<event>
 4    1  0.3324394E+006  0.2358806E+01  0.7546771E-02  0.2774252E+00
         22   -1    0    0    0    0  0.00000000000E+00  0.00000000000E+00  0.24360778655E+01  0.24360778655E+01  0.00000000000E+00 0.  1.
         22   -1    0    0    0    0 -0.00000000000E+00 -0.00000000000E+00 -0.22986098497E+01  0.22986098497E+01  0.00000000000E+00 0.  1.
          4    1    1    2  501    0 -0.91061217731E+00  0.17668758194E+01  0.25756710065E+00  0.23728264812E+01  0.12700000000E+01 0.  1.
         -4    1    1    2    0  501  0.91061217731E+00 -0.17668758194E+01 -0.12009908489E+00  0.23618612340E+01  0.12700000000E+01 0.  1.
<mgrwt>
<rscale>  0 0.23588058E+01</rscale>
<asrwt>0</asrwt>
<pdfrwt beam="1">0</pdfrwt>
<pdfrwt beam="2">0</pdfrwt>
<totfact> 0.32431603E+12</totfact>
</mgrwt>
</event>
<event>
 4    1  0.3324394E+006  0.2344760E+01  0.7546771E-02  0.2781196E+00
         22   -1    0    0    0    0  0.00000000000E+00  0.00000000000E+00  0.46672056360E+01  0.46672056360E+01  0.00000000000E+00 0. -1.
         22   -1    0    0    0    0 -0.00000000000E+00 -0.00000000000E+00 -0.12072460156E+01  0.12072460156E+01  0.00000000000E+00 0.  1.
          4    1    1    2  501    0 -0.18987951140E+01  0.52874856804E+00  0.12726972701E+01  0.26678936026E+01  0.12700000000E+01 0.  1.
         -4    1    1    2    0  501  0.18987951140E+01 -0.52874856804E+00  0.21872623503E+01  0.32065580491E+01  0.12700000000E+01 0. -1.
<mgrwt>
<rscale>  0 0.23447597E+01</rscale>
<asrwt>0</asrwt>
<pdfrwt beam="1">0</pdfrwt>
<pdfrwt beam="2">0</pdfrwt>
<totfact> 0.31813722E+12</totfact>
</mgrwt>
</event>
<event>
 4    1  0.3324394E+006  0.2091471E+01  0.7546771E-02  0.2921605E+00
         22   -1    0    0    0    0  0.00000000000E+00  0.00000000000E+00  0.59188696284E-01  0.59188696284E-01  0.00000000000E+00 0. -1.
         22   -1    0    0    0    0 -0.00000000000E+00 -0.00000000000E+00 -0.81732453364E+02  0.81732453364E+02  0.00000000000E+00 0. -1.
          4    1    1    2  501    0  0.13947839422E+01  0.90328859741E+00 -0.53493702264E+02  0.53534572329E+02  0.12700000000E+01 0. -1.
         -4    1    1    2    0  501 -0.13947839422E+01 -0.90328859741E+00 -0.28179562403E+02  0.28257069731E+02  0.12700000000E+01 0. -1.
<mgrwt>
<rscale>  0 0.20914714E+01</rscale>
<asrwt>0</asrwt>
<pdfrwt beam="1">0</pdfrwt>
<pdfrwt beam="2">0</pdfrwt>
<totfact> 0.25609212E+12</totfact>
</mgrwt>
</event>
<event>
 4    1  0.3324394E+006  0.2308512E+01  0.7546771E-02  0.2799485E+00
         22   -1    0    0    0    0  0.00000000000E+00  0.00000000000E+00  0.91794441326E+00  0.91794441326E+00  0.00000000000E+00 0. -1.
         22   -1    0    0    0    0 -0.00000000000E+00 -0.00000000000E+00 -0.79015743599E+01  0.79015743599E+01  0.00000000000E+00 0.  1.
          4    1    1    2  501    0 -0.18770215250E+01  0.43945407853E+00 -0.57629855353E+01  0.62081585009E+01  0.12700000000E+01 0.  1.
         -4    1    1    2    0  501  0.18770215250E+01 -0.43945407853E+00 -0.12206444113E+01  0.26113602722E+01  0.12700000000E+01 0. -1.
<mgrwt>
<rscale>  0 0.23085124E+01</rscale>
<asrwt>0</asrwt>
<pdfrwt beam="1">0</pdfrwt>
<pdfrwt beam="2">0</pdfrwt>
<totfact> 0.23242382E+12</totfact>
</mgrwt>
</event>
<event>
 4    1  0.3324394E+006  0.2053774E+01  0.7546771E-02  0.2945349E+00
         22   -1    0    0    0    0  0.00000000000E+00  0.00000000000E+00  0.80364387669E+00  0.80364387669E+00  0.00000000000E+00 0. -1.
         22   -1    0    0    0    0 -0.00000000000E+00 -0.00000000000E+00 -0.97213954629E+01  0.97213954629E+01  0.00000000000E+00 0. -1.
          4    1    1    2  501    0  0.13838446206E+01 -0.83069875032E+00 -0.80284801927E+01  0.82870067306E+01  0.12700000000E+01 0. -1.
         -4    1    1    2    0  501 -0.13838446206E+01  0.83069875032E+00 -0.88927139354E+00  0.22380326090E+01  0.12700000000E+01 0. -1.
<mgrwt>
<rscale>  0 0.20537737E+01</rscale>
<asrwt>0</asrwt>
<pdfrwt beam="1">0</pdfrwt>
<pdfrwt beam="2">0</pdfrwt>
<totfact> 0.21064196E+12</totfact>
</mgrwt>
</event>
<event>
 4    1  0.3324394E+006  0.2146726E+01  0.7546771E-02  0.2888266E+00
         22   -1    0    0    0    0  0.00000000000E+00  0.00000000000E+00  0.14026710234E+01  0.14026710234E+01  0.00000000000E+00 0. -1.
         22   -1    0    0    0    0 -0.00000000000E+00 -0.00000000000E+00 -0.34878528949E+01  0.34878528949E+01  0.00000000000E+00 0.  1.
          4    1    1    2  501    0  0.11838273161E+01 -0.12625702796E+01 -0.16316180826E+01  0.26964065704E+01  0.12700000000E+01 0.  1.
         -4    1    1    2    0  501 -0.11838273161E+01  0.12625702796E+01 -0.45356378888E+00  0.21941173478E+01  0.12700000000E+01 0. -1.
<mgrwt>
<rscale>  0 0.21467256E+01</rscale>
<asrwt>0</asrwt>
<pdfrwt beam="1">0</pdfrwt>
<pdfrwt beam="2">0</pdfrwt>
<totfact> 0.37733398E+12</totfact>
</mgrwt>
</event>
<event>
 4    1  0.3324394E+006  0.2085221E+01  0.7546771E-02  0.2925484E+00
         22   -1    0    0    0    0  0.00000000000E+00  0.00000000000E+00  0.17229392725E+02  0.17229392725E+02  0.00000000000E+00 0. -1.
         22   -1    0    0    0    0 -0.00000000000E+00 -0.00000000000E+00 -0.13990913685E+01  0.13990913685E+01  0.00000000000E+00 0.  1.
          4    1    1    2  501    0  0.20270838322E+00  0.16413880476E+01 -0.51730047450E+00  0.21484285402E+01  0.12700000000E+01 0.  1.
         -4    1    1    2    0  501 -0.20270838322E+00 -0.16413880476E+01  0.16347601831E+02  0.16480055554E+02  0.12700000000E+01 0. -1.
<mgrwt>
<rscale>  0 0.20852207E+01</rscale>
<asrwt>0</asrwt>
<pdfrwt beam="1">0</pdfrwt>
<pdfrwt beam="2">0</pdfrwt>
<totfact> 0.55491953E+11</totfact>
</mgrwt>
</event>
<event>
 4    1  0.3324394E+006  0.2046978E+01  0.7546771E-02  0.2949720E+00
         22   -1    0    0    0    0  0.00000000000E+00  0.00000000000E+00  0.37927037372E+00  0.37927037372E+00  0.00000000000E+00 0.  1.
         22   -1    0    0    0    0 -0.00000000000E+00 -0.00000000000E+00 -0.14784553728E+02  0.14784553728E+02  0.00000000000E+00 0.  1.
          4    1    1    2  501    0 -0.15885029385E+01 -0.23211097990E+00 -0.11014350763E+02  0.11202947819E+02  0.12700000000E+01 0.  1.
         -4    1    1    2    0  501  0.15885029385E+01  0.23211097990E+00 -0.33909325912E+01  0.39608762832E+01  0.12700000000E+01 0.  1.
<mgrwt>
<rscale>  0 0.20469776E+01</rscale>
<asrwt>0</asrwt>
<pdfrwt beam="1">0</pdfrwt>
<pdfrwt beam="2">0</pdfrwt>
<totfact> 0.29535997E+12</totfact>
</mgrwt>
</event>
<event>
 4    1  0.3324394E+006  0.2187743E+01  0.7546771E-02  0.2864568E+00
         22   -1    0    0    0    0  0.00000000000E+00  0.00000000000E+00  0.39964055859E+01  0.39964055859E+01  0.00000000000E+00 0.  1.
         22   -1    0    0    0    0 -0.00000000000E+00 -0.00000000000E+00 -0.25541579089E+01  0.25541579089E+01  0.00000000000E+00 0. -1.
          4    1    1    2  501    0 -0.15461776169E+01  0.88467828686E+00 -0.16658020374E+01  0.27497485925E+01  0.12700000000E+01 0. -1.
         -4    1    1    2    0  501  0.15461776169E+01 -0.88467828686E+00  0.31080497144E+01  0.38008149023E+01  0.12700000000E+01 0.  1.
<mgrwt>
<rscale>  0 0.21877433E+01</rscale>
<asrwt>0</asrwt>
<pdfrwt beam="1">0</pdfrwt>
<pdfrwt beam="2">0</pdfrwt>
<totfact> 0.16082084E+12</totfact>
</mgrwt>
</event>
<event>
 4    1  0.3324394E+006  0.2279171E+01  0.7546771E-02  0.2814692E+00
         22   -1    0    0    0    0  0.00000000000E+00  0.00000000000E+00  0.99618745814E+01  0.99618745814E+01  0.00000000000E+00 0.  1.
         22   -1    0    0    0    0 -0.00000000000E+00 -0.00000000000E+00 -0.10125170788E+01  0.10125170788E+01  0.00000000000E+00 0. -1.
          4    1    1    2  501    0  0.10670092893E+01  0.15630781735E+01  0.65330451552E+00  0.23709552906E+01  0.12700000000E+01 0. -1.
         -4    1    1    2    0  501 -0.10670092893E+01 -0.15630781735E+01  0.82960529871E+01  0.86034363696E+01  0.12700000000E+01 0.  1.
<mgrwt>
<rscale>  0 0.22791714E+01</rscale>
<asrwt>0</asrwt>
<pdfrwt beam="1">0</pdfrwt>
<pdfrwt beam="2">0</pdfrwt>
<totfact> 0.15716176E+12</totfact>
</mgrwt>
</event>
<event>
 4    1  0.3324394E+006  0.2155074E+01  0.7546771E-02  0.2883372E+00
         22   -1    0    0    0    0  0.00000000000E+00  0.00000000000E+00  0.20633295868E+01  0.20633295868E+01  0.00000000000E+00 0.  1.
         22   -1    0    0    0    0 -0.00000000000E+00 -0.00000000000E+00 -0.31214468707E+01  0.31214468707E+01  0.00000000000E+00 0. -1.
          4    1    1    2  501    0  0.13634439452E+00  0.17357573820E+01 -0.18981069128E+01  0.28717857398E+01  0.12700000000E+01 0. -1.
         -4    1    1    2    0  501 -0.13634439452E+00 -0.17357573820E+01  0.83998962897E+00  0.23129907176E+01  0.12700000000E+01 0.  1.
<mgrwt>
<rscale>  0 0.21550739E+01</rscale>
<asrwt>0</asrwt>
<pdfrwt beam="1">0</pdfrwt>
<pdfrwt beam="2">0</pdfrwt>
<totfact> 0.27530379E+12</totfact>
</mgrwt>
</event>
<event>
 4    1  0.3324394E+006  0.2709575E+01  0.7546771E-02  0.2622775E+00
         22   -1    0    0    0    0  0.00000000000E+00  0.00000000000E+00  0.35177190413E+01  0.35177190413E+01  0.00000000000E+00 0. -1.
         22   -1    0    0    0    0 -0.00000000000E+00 -0.00000000000E+00 -0.26518258445E+01  0.26518258445E+01  0.00000000000E+00 0. -1.
          4    1    1    2  501    0 -0.22979507091E+01  0.66956562085E+00 -0.99060555053E+00  0.28849774590E+01  0.12700000000E+01 0. -1.
         -4    1    1    2    0  501  0.22979507091E+01 -0.66956562085E+00  0.18564987474E+01  0.32845674268E+01  0.12700000000E+01 0. -1.
<mgrwt>
<rscale>  0 0.27095748E+01</rscale>
<asrwt>0</asrwt>
<pdfrwt beam="1">0</pdfrwt>
<pdfrwt beam="2">0</pdfrwt>
<totfact> 0.17884751E+12</totfact>
</mgrwt>
</event>
<event>
 4    1  0.3324394E+006  0.2036571E+01  0.7546771E-02  0.2956468E+00
         22   -1    0    0    0    0  0.00000000000E+00  0.00000000000E+00  0.18439874110E+00  0.18439874110E+00  0.00000000000E+00 0. -1.
         22   -1    0    0    0    0 -0.00000000000E+00 -0.00000000000E+00 -0.25118631715E+02  0.25118631715E+02  0.00000000000E+00 0. -1.
          4    1    1    2  501    0 -0.72207654122E+00 -0.14189177320E+01 -0.16557724249E+02  0.16682501442E+02  0.12700000000E+01 0. -1.
         -4    1    1    2    0  501  0.72207654122E+00  0.14189177320E+01 -0.83765087243E+01  0.86205290133E+01  0.12700000000E+01 0. -1.
<mgrwt>
<rscale>  0 0.20365712E+01</rscale>
<asrwt>0</asrwt>
<pdfrwt beam="1">0</pdfrwt>
<pdfrwt beam="2">0</pdfrwt>
<totfact> 0.34226129E+12</totfact>
</mgrwt>
</event>
<event>
 4    1  0.3324394E+006  0.3056972E+01  0.7546771E-02  0.2504477E+00
         22   -1    0    0    0    0  0.00000000000E+00  0.00000000000E+00  0.31180662907E+01  0.31180662907E+01  0.00000000000E+00 0.  1.
         22   -1    0    0    0    0 -0.00000000000E+00 -0.00000000000E+00 -0.30247766921E+01  0.30247766921E+01  0.00000000000E+00 0. -1.
          4    1    1    2  501    0 -0.23344912408E+01  0.15107380355E+01  0.34057574610E+00  0.30758853366E+01  0.12700000000E+01 0. -1.
         -4    1    1    2    0  501  0.23344912408E+01 -0.15107380355E+01 -0.24728614750E+00  0.30669576462E+01  0.12700000000E+01 0.  1.
<mgrwt>
<rscale>  0 0.30569722E+01</rscale>
<asrwt>0</asrwt>
<pdfrwt beam="1">0</pdfrwt>
<pdfrwt beam="2">0</pdfrwt>
<totfact> 0.17666600E+12</totfact>
</mgrwt>
</event>
<event>
 4    1  0.3324394E+006  0.2297958E+01  0.7546771E-02  0.2804913E+00
         22   -1    0    0    0    0  0.00000000000E+00  0.00000000000E+00  0.63230506238E+02  0.63230506238E+02  0.00000000000E+00 0. -1.
         22   -1    0    0    0    0 -0.00000000000E+00 -0.00000000000E+00 -0.86930626054E-01  0.86930626054E-01  0.00000000000E+00 0.  1.
          4    1    1    2  501    0  0.12273289281E+01  0.14701607237E+01  0.25295116042E+02  0.25399281573E+02  0.12700000000E+01 0.  1.
         -4    1    1    2    0  501 -0.12273289281E+01 -0.14701607237E+01  0.37848459571E+02  0.37918155292E+02  0.12700000000E+01 0. -1.
<mgrwt>
<rscale>  0 0.22979575E+01</rscale>
<asrwt>0</asrwt>
<pdfrwt beam="1">0</pdfrwt>
<pdfrwt beam="2">0</pdfrwt>
<totfact> 0.23762301E+12</totfact>
</mgrwt>
</event>
<event>
 4    1  0.3324394E+006  0.2335231E+01  0.7546771E-02  0.2785952E+00
         22   -1    0    0    0    0  0.00000000000E+00  0.00000000000E+00  0.63796745928E+01  0.63796745928E+01  0.00000000000E+00 0. -1.
         22   -1    0    0    0    0 -0.00000000000E+00 -0.00000000000E+00 -0.15432182519E+01  0.15432182519E+01  0.00000000000E+00 0.  1.
          4    1    1    2  501    0 -0.19072564139E+01  0.45030810393E+00 -0.22764088621E+00  0.23463002344E+01  0.12700000000E+01 0.  1.
         -4    1    1    2    0  501  0.19072564139E+01 -0.45030810393E+00  0.50640972270E+01  0.55765926103E+01  0.12700000000E+01 0. -1.
<mgrwt>
<rscale>  0 0.23352311E+01</rscale>
<asrwt>0</asrwt>
<pdfrwt beam="1">0</pdfrwt>
<pdfrwt beam="2">0</pdfrwt>
<totfact> 0.16558074E+12</totfact>
</mgrwt>
</event>
<event>
 4    1  0.3324394E+006  0.2303378E+01  0.7546771E-02  0.2802119E+00
         22   -1    0    0    0    0  0.00000000000E+00  0.00000000000E+00  0.14763362449E+02  0.14763362449E+02  0.00000000000E+00 0.  1.
         22   -1    0    0    0    0 -0.00000000000E+00 -0.00000000000E+00 -0.80778887105E+00  0.80778887105E+00  0.00000000000E+00 0.  1.
          4    1    1    2  501    0 -0.17717750601E+01  0.74395209678E+00  0.11770606957E+01  0.25867012713E+01  0.12700000000E+01 0.  1.
         -4    1    1    2    0  501  0.17717750601E+01 -0.74395209678E+00  0.12778512882E+02  0.12984450049E+02  0.12700000000E+01 0.  1.
<mgrwt>
<rscale>  0 0.23033783E+01</rscale>
<asrwt>0</asrwt>
<pdfrwt beam="1">0</pdfrwt>
<pdfrwt beam="2">0</pdfrwt>
<totfact> 0.12582270E+12</totfact>
</mgrwt>
</event>
<event>
 4    1  0.3324394E+006  0.6584381E+01  0.7546771E-02  0.1970930E+00
         22   -1    0    0    0    0  0.00000000000E+00  0.00000000000E+00  0.16591027234E+02  0.16591027234E+02  0.00000000000E+00 0.  1.
         22   -1    0    0    0    0 -0.00000000000E+00 -0.00000000000E+00 -0.39284176532E+01  0.39284176532E+01  0.00000000000E+00 0. -1.
          4    1    1    2  501    0  0.42712927860E+01  0.48473944776E+01  0.39465415072E+00  0.65961979339E+01  0.12700000000E+01 0. -1.
         -4    1    1    2    0  501 -0.42712927860E+01 -0.48473944776E+01  0.12267955430E+02  0.13923246953E+02  0.12700000000E+01 0.  1.
<mgrwt>
<rscale>  0 0.65843812E+01</rscale>
<asrwt>0</asrwt>
<pdfrwt beam="1">0</pdfrwt>
<pdfrwt beam="2">0</pdfrwt>
<totfact> 0.17523279E+11</totfact>
</mgrwt>
</event>
<event>
 4    1  0.3324394E+006  0.2815029E+01  0.7546771E-02  0.2584075E+00
         22   -1    0    0    0    0  0.00000000000E+00  0.00000000000E+00  0.22763312771E+01  0.22763312771E+01  0.00000000000E+00 0.  1.
         22   -1    0    0    0    0 -0.00000000000E+00 -0.00000000000E+00 -0.57235000332E+01  0.57235000332E+01  0.00000000000E+00 0. -1.
          4    1    1    2  501    0  0.17711189143E+01  0.17817474663E+01 -0.42271900282E+01  0.50787323002E+01  0.12700000000E+01 0. -1.
         -4    1    1    2    0  501 -0.17711189143E+01 -0.17817474663E+01  0.78002127205E+00  0.29210990102E+01  0.12700000000E+01 0.  1.
<mgrwt>
<rscale>  0 0.28150286E+01</rscale>
<asrwt>0</asrwt>
<pdfrwt beam="1">0</pdfrwt>
<pdfrwt beam="2">0</pdfrwt>
<totfact> 0.12023246E+12</totfact>
</mgrwt>
</event>
<event>
 4    1  0.3324394E+006  0.2129445E+01  0.7546771E-02  0.2898513E+00
         22   -1    0    0    0    0  0.00000000000E+00  0.00000000000E+00  0.78723755095E+01  0.78723755095E+01  0.00000000000E+00 0.  1.
         22   -1    0    0    0    0 -0.00000000000E+00 -0.00000000000E+00 -0.86617073286E+00  0.86617073286E+00  0.00000000000E+00 0. -1.
          4    1    1    2  501    0  0.92613543520E+00 -0.14366306596E+01  0.97421289712E+00  0.23417141724E+01  0.12700000000E+01 0. -1.
         -4    1    1    2    0  501 -0.92613543520E+00  0.14366306596E+01  0.60319918796E+01  0.63968320700E+01  0.12700000000E+01 0.  1.
<mgrwt>
<rscale>  0 0.21294446E+01</rscale>
<asrwt>0</asrwt>
<pdfrwt beam="1">0</pdfrwt>
<pdfrwt beam="2">0</pdfrwt>
<totfact> 0.24941978E+12</totfact>
</mgrwt>
</event>
<event>
 4    1  0.3324394E+006  0.2334141E+01  0.7546771E-02  0.2786498E+00
         22   -1    0    0    0    0  0.00000000000E+00  0.00000000000E+00  0.14552257765E+02  0.14552257765E+02  0.00000000000E+00 0.  1.
         22   -1    0    0    0    0 -0.00000000000E+00 -0.00000000000E+00 -0.74322521085E+00  0.74322521085E+00  0.00000000000E+00 0. -1.
          4    1    1    2  501    0  0.49504870608E+00  0.18947932038E+01  0.15169902214E+01  0.27837876784E+01  0.12700000000E+01 0. -1.
         -4    1    1    2    0  501 -0.49504870608E+00 -0.18947932038E+01  0.12292042333E+02  0.12511695298E+02  0.12700000000E+01 0.  1.
<mgrwt>
<rscale>  0 0.23341411E+01</rscale>
<asrwt>0</asrwt>
<pdfrwt beam="1">0</pdfrwt>
<pdfrwt beam="2">0</pdfrwt>
<totfact> 0.14079411E+12</totfact>
</mgrwt>
</event>
<event>
 4    1  0.3324394E+006  0.2047174E+01  0.7546771E-02  0.2949593E+00
         22   -1    0    0    0    0  0.00000000000E+00  0.00000000000E+00  0.22330631867E+01  0.22330631867E+01  0.00000000000E+00 0.  1.
         22   -1    0    0    0    0 -0.00000000000E+00 -0.00000000000E+00 -0.24930480537E+01  0.24930480537E+01  0.00000000000E+00 0.  1.
          4    1    1    2  501    0  0.11033368840E+01  0.11664776726E+01 -0.13048918475E+01  0.24276872068E+01  0.12700000000E+01 0.  1.
         -4    1    1    2    0  501 -0.11033368840E+01 -0.11664776726E+01  0.10449069806E+01  0.22984240336E+01  0.12700000000E+01 0.  1.
<mgrwt>
<rscale>  0 0.20471743E+01</rscale>
<asrwt>0</asrwt>
<pdfrwt beam="1">0</pdfrwt>
<pdfrwt beam="2">0</pdfrwt>
<totfact> 0.32647430E+12</totfact>
</mgrwt>
</event>
<event>
 4    1  0.3324394E+006  0.2468957E+01  0.7546771E-02  0.2722376E+00
         22   -1    0    0    0    0  0.00000000000E+00  0.00000000000E+00  0.22511347548E+00  0.22511347548E+00  0.00000000000E+00 0.  1.
         22   -1    0    0    0    0 -0.00000000000E+00 -0.00000000000E+00 -0.31984783172E+02  0.31984783172E+02  0.00000000000E+00 0.  1.
          4    1    1    2  501    0  0.30155700577E+00  0.20956885313E+01 -0.22187398110E+02  0.22324345050E+02  0.12700000000E+01 0.  1.
         -4    1    1    2    0  501 -0.30155700577E+00 -0.20956885313E+01 -0.95722715869E+01  0.98855515972E+01  0.12700000000E+01 0.  1.
<mgrwt>
<rscale>  0 0.24689567E+01</rscale>
<asrwt>0</asrwt>
<pdfrwt beam="1">0</pdfrwt>
<pdfrwt beam="2">0</pdfrwt>
<totfact> 0.20155989E+12</totfact>
</mgrwt>
</event>
<event>
 4    1  0.3324394E+006  0.2777690E+01  0.7546771E-02  0.2597472E+00
         22   -1    0    0    0    0  0.00000000000E+00  0.00000000000E+00  0.91592504455E+00  0.91592504455E+00  0.00000000000E+00 0.  1.
         22   -1    0    0    0    0 -0.00000000000E+00 -0.00000000000E+00 -0.94543453580E+01  0.94543453580E+01  0.00000000000E+00 0.  1.
          4    1    1    2  501    0 -0.21549789477E+01 -0.12077771951E+01 -0.59811167536E+01  0.65946431016E+01  0.12700000000E+01 0.  1.
         -4    1    1    2    0  501  0.21549789477E+01  0.12077771951E+01 -0.25573035599E+01  0.37756273009E+01  0.12700000000E+01 0.  1.
<mgrwt>
<rscale>  0 0.27776897E+01</rscale>
<asrwt>0</asrwt>
<pdfrwt beam="1">0</pdfrwt>
<pdfrwt beam="2">0</pdfrwt>
<totfact> 0.18772617E+12</totfact>
</mgrwt>
</event>
<event>
 4    1  0.3324394E+006  0.2159080E+01  0.7546771E-02  0.2881037E+00
         22   -1    0    0    0    0  0.00000000000E+00  0.00000000000E+00  0.56528881161E+01  0.56528881161E+01  0.00000000000E+00 0. -1.
         22   -1    0    0    0    0 -0.00000000000E+00 -0.00000000000E+00 -0.95861758517E+00  0.95861758517E+00  0.00000000000E+00 0.  1.
          4    1    1    2  501    0  0.91160625042E+00 -0.14891950556E+01  0.35829549127E+01  0.41832037693E+01  0.12700000000E+01 0. -1.
         -4    1    1    2    0  501 -0.91160625042E+00  0.14891950556E+01  0.11113156183E+01  0.24283019320E+01  0.12700000000E+01 0.  1.
<mgrwt>
<rscale>  0 0.21590803E+01</rscale>
<asrwt>0</asrwt>
<pdfrwt beam="1">0</pdfrwt>
<pdfrwt beam="2">0</pdfrwt>
<totfact> 0.33000143E+12</totfact>
</mgrwt>
</event>
<event>
 4    1  0.3324394E+006  0.2424348E+01  0.7546771E-02  0.2742852E+00
         22   -1    0    0    0    0  0.00000000000E+00  0.00000000000E+00  0.10425686904E+01  0.10425686904E+01  0.00000000000E+00 0.  1.
         22   -1    0    0    0    0 -0.00000000000E+00 -0.00000000000E+00 -0.16697539935E+02  0.16697539935E+02  0.00000000000E+00 0. -1.
          4    1    1    2  501    0  0.34758393053E+00  0.20356193781E+01 -0.15046514195E+02  0.15240572504E+02  0.12700000000E+01 0. -1.
         -4    1    1    2    0  501 -0.34758393053E+00 -0.20356193781E+01 -0.60845705023E+00  0.24995361216E+01  0.12700000000E+01 0.  1.
<mgrwt>
<rscale>  0 0.24243475E+01</rscale>
<asrwt>0</asrwt>
<pdfrwt beam="1">0</pdfrwt>
<pdfrwt beam="2">0</pdfrwt>
<totfact> 0.80814178E+11</totfact>
</mgrwt>
</event>
<event>
 4    1  0.3324394E+006  0.2142769E+01  0.7546771E-02  0.2890598E+00
         22   -1    0    0    0    0  0.00000000000E+00  0.00000000000E+00  0.47190135342E+00  0.47190135342E+00  0.00000000000E+00 0. -1.
         22   -1    0    0    0    0 -0.00000000000E+00 -0.00000000000E+00 -0.10125077969E+02  0.10125077969E+02  0.00000000000E+00 0.  1.
          4    1    1    2  501    0 -0.34203254878E+00  0.16916180386E+01 -0.58736204246E+01  0.62522695675E+01  0.12700000000E+01 0. -1.
         -4    1    1    2    0  501  0.34203254878E+00 -0.16916180386E+01 -0.37795561907E+01  0.43447097546E+01  0.12700000000E+01 0.  1.
<mgrwt>
<rscale>  0 0.21427687E+01</rscale>
<asrwt>0</asrwt>
<pdfrwt beam="1">0</pdfrwt>
<pdfrwt beam="2">0</pdfrwt>
<totfact> 0.36652292E+12</totfact>
</mgrwt>
</event>
<event>
 4    1  0.3324394E+006  0.3169997E+01  0.7546771E-02  0.2471044E+00
         22   -1    0    0    0    0  0.00000000000E+00  0.00000000000E+00  0.41191908500E+01  0.41191908500E+01  0.00000000000E+00 0.  1.
         22   -1    0    0    0    0 -0.00000000000E+00 -0.00000000000E+00 -0.73262433979E+01  0.73262433979E+01  0.00000000000E+00 0. -1.
          4    1    1    2  501    0 -0.27851291028E+01 -0.82403584968E+00 -0.62773266020E+01  0.70323330744E+01  0.12700000000E+01 0.  1.
         -4    1    1    2    0  501  0.27851291028E+01  0.82403584968E+00  0.30702740541E+01  0.44131011736E+01  0.12700000000E+01 0. -1.
<mgrwt>
<rscale>  0 0.31699967E+01</rscale>
<asrwt>0</asrwt>
<pdfrwt beam="1">0</pdfrwt>
<pdfrwt beam="2">0</pdfrwt>
<totfact> 0.44771656E+11</totfact>
</mgrwt>
</event>
<event>
 4    1  0.3324394E+006  0.2001418E+01  0.7546771E-02  0.2979772E+00
         22   -1    0    0    0    0  0.00000000000E+00  0.00000000000E+00  0.24621475401E+01  0.24621475401E+01  0.00000000000E+00 0.  1.
         22   -1    0    0    0    0 -0.00000000000E+00 -0.00000000000E+00 -0.28715632283E+01  0.28715632283E+01  0.00000000000E+00 0.  1.
          4    1    1    2  501    0 -0.14700391778E+01  0.48141422378E+00 -0.19604700945E+01  0.28016277109E+01  0.12700000000E+01 0.  1.
         -4    1    1    2    0  501  0.14700391778E+01 -0.48141422378E+00  0.15510544062E+01  0.25320830575E+01  0.12700000000E+01 0.  1.
<mgrwt>
<rscale>  0 0.20014182E+01</rscale>
<asrwt>0</asrwt>
<pdfrwt beam="1">0</pdfrwt>
<pdfrwt beam="2">0</pdfrwt>
<totfact> 0.24720666E+12</totfact>
</mgrwt>
</event>
<event>
 4    1  0.3324394E+006  0.4364378E+01  0.7546771E-02  0.2212621E+00
         22   -1    0    0    0    0  0.00000000000E+00  0.00000000000E+00  0.31738613602E+01  0.31738613602E+01  0.00000000000E+00 0. -1.
         22   -1    0    0    0    0 -0.00000000000E+00 -0.00000000000E+00 -0.60014585139E+01  0.60014585139E+01  0.00000000000E+00 0.  1.
          4    1    1    2  501    0  0.78953128628E+00  0.41001875101E+01 -0.14139135205E+01  0.45876953597E+01  0.12700000000E+01 0.  1.
         -4    1    1    2    0  501 -0.78953128628E+00 -0.41001875101E+01 -0.14136836333E+01  0.45876245144E+01  0.12700000000E+01 0. -1.
<mgrwt>
<rscale>  0 0.43643782E+01</rscale>
<asrwt>0</asrwt>
<pdfrwt beam="1">0</pdfrwt>
<pdfrwt beam="2">0</pdfrwt>
<totfact> 0.77149293E+11</totfact>
</mgrwt>
</event>
<event>
 4    1  0.3324394E+006  0.3111269E+01  0.7546771E-02  0.2488146E+00
         22   -1    0    0    0    0  0.00000000000E+00  0.00000000000E+00  0.32078398884E+01  0.32078398884E+01  0.00000000000E+00 0. -1.
         22   -1    0    0    0    0 -0.00000000000E+00 -0.00000000000E+00 -0.30176266552E+01  0.30176266552E+01  0.00000000000E+00 0.  1.
          4    1    1    2  501    0 -0.22392838939E+01 -0.17471981003E+01  0.86760415368E-01  0.31124782615E+01  0.12700000000E+01 0. -1.
         -4    1    1    2    0  501  0.22392838939E+01  0.17471981003E+01  0.10345281785E+00  0.31129882821E+01  0.12700000000E+01 0.  1.
<mgrwt>
<rscale>  0 0.31112688E+01</rscale>
<asrwt>0</asrwt>
<pdfrwt beam="1">0</pdfrwt>
<pdfrwt beam="2">0</pdfrwt>
<totfact> 0.17137006E+12</totfact>
</mgrwt>
</event>
<event>
 4    1  0.3324394E+006  0.3467179E+01  0.7546771E-02  0.2392409E+00
         22   -1    0    0    0    0  0.00000000000E+00  0.00000000000E+00  0.84903725356E+00  0.84903725356E+00  0.00000000000E+00 0. -1.
         22   -1    0    0    0    0 -0.00000000000E+00 -0.00000000000E+00 -0.15351028452E+02  0.15351028452E+02  0.00000000000E+00 0.  1.
          4    1    1    2  501    0 -0.31132998699E+01  0.84604541335E+00 -0.49936293967E+01  0.60792814931E+01  0.12700000000E+01 0. -1.
         -4    1    1    2    0  501  0.31132998699E+01 -0.84604541335E+00 -0.95083618017E+01  0.10120784212E+02  0.12700000000E+01 0.  1.
<mgrwt>
<rscale>  0 0.34671788E+01</rscale>
<asrwt>0</asrwt>
<pdfrwt beam="1">0</pdfrwt>
<pdfrwt beam="2">0</pdfrwt>
<totfact> 0.11331761E+12</totfact>
</mgrwt>
</event>
<event>
 4    1  0.3324394E+006  0.2303145E+01  0.7546771E-02  0.2802239E+00
         22   -1    0    0    0    0  0.00000000000E+00  0.00000000000E+00  0.26619603145E+01  0.26619603145E+01  0.00000000000E+00 0. -1.
         22   -1    0    0    0    0 -0.00000000000E+00 -0.00000000000E+00 -0.82297797470E+01  0.82297797470E+01  0.00000000000E+00 0.  1.
          4    1    1    2  501    0 -0.28143991945E+00 -0.19006229725E+01 -0.75248444251E+01  0.78694192755E+01  0.12700000000E+01 0.  1.
         -4    1    1    2    0  501  0.28143991945E+00  0.19006229725E+01  0.19570249926E+01  0.30223207860E+01  0.12700000000E+01 0. -1.
<mgrwt>
<rscale>  0 0.23031448E+01</rscale>
<asrwt>0</asrwt>
<pdfrwt beam="1">0</pdfrwt>
<pdfrwt beam="2">0</pdfrwt>
<totfact> 0.64925743E+11</totfact>
</mgrwt>
</event>
<event>
 4    1  0.3324394E+006  0.2550590E+01  0.7546771E-02  0.2686638E+00
         22   -1    0    0    0    0  0.00000000000E+00  0.00000000000E+00  0.10473536878E+02  0.10473536878E+02  0.00000000000E+00 0.  1.
         22   -1    0    0    0    0 -0.00000000000E+00 -0.00000000000E+00 -0.15904595965E+01  0.15904595965E+01  0.00000000000E+00 0. -1.
          4    1    1    2  501    0  0.19642254632E+01 -0.10170676727E+01 -0.26751788175E+00  0.25645806944E+01  0.12700000000E+01 0. -1.
         -4    1    1    2    0  501 -0.19642254632E+01  0.10170676727E+01  0.91505951636E+01  0.94994157805E+01  0.12700000000E+01 0.  1.
<mgrwt>
<rscale>  0 0.25505898E+01</rscale>
<asrwt>0</asrwt>
<pdfrwt beam="1">0</pdfrwt>
<pdfrwt beam="2">0</pdfrwt>
<totfact> 0.88115661E+11</totfact>
</mgrwt>
</event>
<event>
 4    1  0.3324394E+006  0.2084595E+01  0.7546771E-02  0.2925874E+00
         22   -1    0    0    0    0  0.00000000000E+00  0.00000000000E+00  0.20668752413E+01  0.20668752413E+01  0.00000000000E+00 0. -1.
         22   -1    0    0    0    0 -0.00000000000E+00 -0.00000000000E+00 -0.77152386580E+01  0.77152386580E+01  0.00000000000E+00 0. -1.
          4    1    1    2  501    0  0.14330173316E+01  0.82407414998E+00 -0.69959168373E+01  0.72998896753E+01  0.12700000000E+01 0. -1.
         -4    1    1    2    0  501 -0.14330173316E+01 -0.82407414998E+00  0.13475534205E+01  0.24822242241E+01  0.12700000000E+01 0. -1.
<mgrwt>
<rscale>  0 0.20845951E+01</rscale>
<asrwt>0</asrwt>
<pdfrwt beam="1">0</pdfrwt>
<pdfrwt beam="2">0</pdfrwt>
<totfact> 0.94127162E+11</totfact>
</mgrwt>
</event>
<event>
 4    1  0.3324394E+006  0.2762797E+01  0.7546771E-02  0.2602907E+00
         22   -1    0    0    0    0  0.00000000000E+00  0.00000000000E+00  0.19761338586E+01  0.19761338586E+01  0.00000000000E+00 0. -1.
         22   -1    0    0    0    0 -0.00000000000E+00 -0.00000000000E+00 -0.42320090191E+01  0.42320090191E+01  0.00000000000E+00 0.  1.
          4    1    1    2  501    0 -0.20627117567E+01 -0.13286719687E+01 -0.21086872442E+00  0.27708328370E+01  0.12700000000E+01 0. -1.
         -4    1    1    2    0  501  0.20627117567E+01  0.13286719687E+01 -0.20450064361E+01  0.34373100407E+01  0.12700000000E+01 0.  1.
<mgrwt>
<rscale>  0 0.27627973E+01</rscale>
<asrwt>0</asrwt>
<pdfrwt beam="1">0</pdfrwt>
<pdfrwt beam="2">0</pdfrwt>
<totfact> 0.20247792E+12</totfact>
</mgrwt>
</event>
<event>
 4    1  0.3324394E+006  0.2984626E+01  0.7546771E-02  0.2527061E+00
         22   -1    0    0    0    0  0.00000000000E+00  0.00000000000E+00  0.17267191956E+02  0.17267191956E+02  0.00000000000E+00 0.  1.
         22   -1    0    0    0    0 -0.00000000000E+00 -0.00000000000E+00 -0.11529516317E+01  0.11529516317E+01  0.00000000000E+00 0. -1.
          4    1    1    2  501    0 -0.60953427493E-01 -0.27002547559E+01  0.12109480489E+01  0.32209294069E+01  0.12700000000E+01 0. -1.
         -4    1    1    2    0  501  0.60953427493E-01  0.27002547559E+01  0.14903292276E+02  0.15199214181E+02  0.12700000000E+01 0.  1.
<mgrwt>
<rscale>  0 0.29846258E+01</rscale>
<asrwt>0</asrwt>
<pdfrwt beam="1">0</pdfrwt>
<pdfrwt beam="2">0</pdfrwt>
<totfact> 0.69100300E+11</totfact>
</mgrwt>
</event>
<event>
 4    1  0.3324394E+006  0.3338789E+01  0.7546771E-02  0.2424869E+00
         22   -1    0    0    0    0  0.00000000000E+00  0.00000000000E+00  0.31782596347E+01  0.31782596347E+01  0.00000000000E+00 0.  1.
         22   -1    0    0    0    0 -0.00000000000E+00 -0.00000000000E+00 -0.43397895141E+01  0.43397895141E+01  0.00000000000E+00 0. -1.
          4    1    1    2  501    0 -0.21408260277E+01 -0.22251907854E+01 -0.22270209720E+01  0.40133692233E+01  0.12700000000E+01 0. -1.
         -4    1    1    2    0  501  0.21408260277E+01  0.22251907854E+01  0.10654910926E+01  0.35046799256E+01  0.12700000000E+01 0.  1.
<mgrwt>
<rscale>  0 0.33387887E+01</rscale>
<asrwt>0</asrwt>
<pdfrwt beam="1">0</pdfrwt>
<pdfrwt beam="2">0</pdfrwt>
<totfact> 0.11309038E+12</totfact>
</mgrwt>
</event>
<event>
 4    1  0.3324394E+006  0.2121628E+01  0.7546771E-02  0.2903201E+00
         22   -1    0    0    0    0  0.00000000000E+00  0.00000000000E+00  0.22448760170E+02  0.22448760170E+02  0.00000000000E+00 0.  1.
         22   -1    0    0    0    0 -0.00000000000E+00 -0.00000000000E+00 -0.36892159810E+00  0.36892159810E+00  0.00000000000E+00 0. -1.
          4    1    1    2  501    0 -0.14149732436E+01  0.94141128912E+00  0.33316916619E+01  0.39498701023E+01  0.12700000000E+01 0. -1.
         -4    1    1    2    0  501  0.14149732436E+01 -0.94141128912E+00  0.18748146910E+02  0.18867811666E+02  0.12700000000E+01 0. -1.
<mgrwt>
<rscale>  0 0.21216278E+01</rscale>
<asrwt>0</asrwt>
<pdfrwt beam="1">0</pdfrwt>
<pdfrwt beam="2">0</pdfrwt>
<totfact> 0.18140968E+12</totfact>
</mgrwt>
</event>
<event>
 4    1  0.3324394E+006  0.2461533E+01  0.7546771E-02  0.2725736E+00
         22   -1    0    0    0    0  0.00000000000E+00  0.00000000000E+00  0.35707175674E+02  0.35707175674E+02  0.00000000000E+00 0. -1.
         22   -1    0    0    0    0 -0.00000000000E+00 -0.00000000000E+00 -0.27749900556E+00  0.27749900556E+00  0.00000000000E+00 0. -1.
          4    1    1    2  501    0 -0.11444658960E+01 -0.17709998468E+01  0.65002111494E+01  0.69506753364E+01  0.12700000000E+01 0. -1.
         -4    1    1    2    0  501  0.11444658960E+01  0.17709998468E+01  0.28929465519E+02  0.29033999343E+02  0.12700000000E+01 0. -1.
<mgrwt>
<rscale>  0 0.24615326E+01</rscale>
<asrwt>0</asrwt>
<pdfrwt beam="1">0</pdfrwt>
<pdfrwt beam="2">0</pdfrwt>
<totfact> 0.13848139E+12</totfact>
</mgrwt>
</event>
<event>
 4    1  0.3324394E+006  0.2445517E+01  0.7546771E-02  0.2733048E+00
         22   -1    0    0    0    0  0.00000000000E+00  0.00000000000E+00  0.69741781996E+01  0.69741781996E+01  0.00000000000E+00 0. -1.
         22   -1    0    0    0    0 -0.00000000000E+00 -0.00000000000E+00 -0.86267961841E+00  0.86267961841E+00  0.00000000000E+00 0.  1.
          4    1    1    2  501    0 -0.25561071123E+00 -0.20742027785E+01  0.27529509483E+01  0.36822945191E+01  0.12700000000E+01 0.  1.
         -4    1    1    2    0  501  0.25561071123E+00  0.20742027785E+01  0.33585476329E+01  0.41545632989E+01  0.12700000000E+01 0. -1.
<mgrwt>
<rscale>  0 0.24455171E+01</rscale>
<asrwt>0</asrwt>
<pdfrwt beam="1">0</pdfrwt>
<pdfrwt beam="2">0</pdfrwt>
<totfact> 0.28973473E+12</totfact>
</mgrwt>
</event>
<event>
 4    1  0.3324394E+006  0.2379635E+01  0.7546771E-02  0.2764097E+00
         22   -1    0    0    0    0  0.00000000000E+00  0.00000000000E+00  0.15523511937E+01  0.15523511937E+01  0.00000000000E+00 0. -1.
         22   -1    0    0    0    0 -0.00000000000E+00 -0.00000000000E+00 -0.37351396242E+01  0.37351396242E+01  0.00000000000E+00 0.  1.
          4    1    1    2  501    0 -0.19577644328E+01  0.46574886249E+00 -0.14956691779E+01  0.28106386937E+01  0.12700000000E+01 0.  1.
         -4    1    1    2    0  501  0.19577644328E+01 -0.46574886249E+00 -0.68711925264E+00  0.24768521241E+01  0.12700000000E+01 0. -1.
<mgrwt>
<rscale>  0 0.23796352E+01</rscale>
<asrwt>0</asrwt>
<pdfrwt beam="1">0</pdfrwt>
<pdfrwt beam="2">0</pdfrwt>
<totfact> 0.30986940E+12</totfact>
</mgrwt>
</event>
<event>
 4    1  0.3324394E+006  0.2219210E+01  0.7546771E-02  0.2846960E+00
         22   -1    0    0    0    0  0.00000000000E+00  0.00000000000E+00  0.56393911802E+01  0.56393911802E+01  0.00000000000E+00 0.  1.
         22   -1    0    0    0    0 -0.00000000000E+00 -0.00000000000E+00 -0.22325160569E+01  0.22325160569E+01  0.00000000000E+00 0.  1.
          4    1    1    2  501    0  0.18100456287E+01  0.18901526767E+00 -0.13676810869E+01  0.26068071476E+01  0.12700000000E+01 0.  1.
         -4    1    1    2    0  501 -0.18100456287E+01 -0.18901526767E+00  0.47745562101E+01  0.52651000896E+01  0.12700000000E+01 0.  1.
<mgrwt>
<rscale>  0 0.22192098E+01</rscale>
<asrwt>0</asrwt>
<pdfrwt beam="1">0</pdfrwt>
<pdfrwt beam="2">0</pdfrwt>
<totfact> 0.12515118E+12</totfact>
</mgrwt>
</event>
<event>
 4    1  0.3324394E+006  0.3502392E+01  0.7546771E-02  0.2383871E+00
         22   -1    0    0    0    0  0.00000000000E+00  0.00000000000E+00  0.15119792585E+02  0.15119792585E+02  0.00000000000E+00 0.  1.
         22   -1    0    0    0    0 -0.00000000000E+00 -0.00000000000E+00 -0.98925903487E+00  0.98925903487E+00  0.00000000000E+00 0. -1.
          4    1    1    2  501    0  0.80083290668E+00 -0.31642561495E+01  0.36490931631E+01  0.50579275634E+01  0.12700000000E+01 0. -1.
         -4    1    1    2    0  501 -0.80083290668E+00  0.31642561495E+01  0.10481440387E+02  0.11051124057E+02  0.12700000000E+01 0.  1.
<mgrwt>
<rscale>  0 0.35023921E+01</rscale>
<asrwt>0</asrwt>
<pdfrwt beam="1">0</pdfrwt>
<pdfrwt beam="2">0</pdfrwt>
<totfact> 0.96989062E+11</totfact>
</mgrwt>
</event>
<event>
 4    1  0.3324394E+006  0.2719080E+01  0.7546771E-02  0.2619175E+00
         22   -1    0    0    0    0  0.00000000000E+00  0.00000000000E+00  0.21423778844E+02  0.21423778844E+02  0.00000000000E+00 0. -1.
         22   -1    0    0    0    0 -0.00000000000E+00 -0.00000000000E+00 -0.34749354974E+00  0.34749354974E+00  0.00000000000E+00 0. -1.
          4    1    1    2  501    0 -0.22892203018E+01 -0.73482241561E+00  0.96351162214E+01  0.10011436369E+02  0.12700000000E+01 0. -1.
         -4    1    1    2    0  501  0.22892203018E+01  0.73482241561E+00  0.11441169073E+02  0.11759836025E+02  0.12700000000E+01 0. -1.
<mgrwt>
<rscale>  0 0.27190795E+01</rscale>
<asrwt>0</asrwt>
<pdfrwt beam="1">0</pdfrwt>
<pdfrwt beam="2">0</pdfrwt>
<totfact> 0.20574412E+12</totfact>
</mgrwt>
</event>
<event>
 4    1  0.3324394E+006  0.2178037E+01  0.7546771E-02  0.2870098E+00
         22   -1    0    0    0    0  0.00000000000E+00  0.00000000000E+00  0.18051118119E+02  0.18051118119E+02  0.00000000000E+00 0. -1.
         22   -1    0    0    0    0 -0.00000000000E+00 -0.00000000000E+00 -0.26552880760E+00  0.26552880760E+00  0.00000000000E+00 0.  1.
          4    1    1    2  501    0  0.75094830211E+00  0.16021934735E+01  0.79644967549E+01  0.82569398592E+01  0.12700000000E+01 0.  1.
         -4    1    1    2    0  501 -0.75094830211E+00 -0.16021934735E+01  0.98210925567E+01  0.10059707068E+02  0.12700000000E+01 0. -1.
<mgrwt>
<rscale>  0 0.21780375E+01</rscale>
<asrwt>0</asrwt>
<pdfrwt beam="1">0</pdfrwt>
<pdfrwt beam="2">0</pdfrwt>
<totfact> 0.34436206E+12</totfact>
</mgrwt>
</event>
<event>
 4    1  0.3324394E+006  0.2737606E+01  0.7546771E-02  0.2612223E+00
         22   -1    0    0    0    0  0.00000000000E+00  0.00000000000E+00  0.15828912976E+01  0.15828912976E+01  0.00000000000E+00 0. -1.
         22   -1    0    0    0    0 -0.00000000000E+00 -0.00000000000E+00 -0.77118463837E+01  0.77118463837E+01  0.00000000000E+00 0.  1.
          4    1    1    2  501    0  0.10178575027E+01 -0.22012617885E+01 -0.59520264238E+01  0.65514201443E+01  0.12700000000E+01 0.  1.
         -4    1    1    2    0  501 -0.10178575027E+01  0.22012617885E+01 -0.17692866234E+00  0.27433175370E+01  0.12700000000E+01 0. -1.
<mgrwt>
<rscale>  0 0.27376061E+01</rscale>
<asrwt>0</asrwt>
<pdfrwt beam="1">0</pdfrwt>
<pdfrwt beam="2">0</pdfrwt>
<totfact> 0.12817585E+12</totfact>
</mgrwt>
</event>
<event>
 4    1  0.3324394E+006  0.2033384E+01  0.7546771E-02  0.2958548E+00
         22   -1    0    0    0    0  0.00000000000E+00  0.00000000000E+00  0.11891463706E+01  0.11891463706E+01  0.00000000000E+00 0.  1.
         22   -1    0    0    0    0 -0.00000000000E+00 -0.00000000000E+00 -0.45510980433E+01  0.45510980433E+01  0.00000000000E+00 0. -1.
          4    1    1    2  501    0  0.14409613882E+01 -0.66736949410E+00 -0.28664451129E+00  0.20534889432E+01  0.12700000000E+01 0.  1.
         -4    1    1    2    0  501 -0.14409613882E+01  0.66736949410E+00 -0.30753071614E+01  0.36867554707E+01  0.12700000000E+01 0.  1.
<mgrwt>
<rscale>  0 0.20333843E+01</rscale>
<asrwt>0</asrwt>
<pdfrwt beam="1">0</pdfrwt>
<pdfrwt beam="2">0</pdfrwt>
<totfact> 0.33344620E+12</totfact>
</mgrwt>
</event>
<event>
 4    1  0.3324394E+006  0.3346449E+01  0.7546771E-02  0.2422871E+00
         22   -1    0    0    0    0  0.00000000000E+00  0.00000000000E+00  0.62940295088E+02  0.62940295088E+02  0.00000000000E+00 0. -1.
         22   -1    0    0    0    0 -0.00000000000E+00 -0.00000000000E+00 -0.19461773268E+00  0.19461773268E+00  0.00000000000E+00 0.  1.
          4    1    1    2  501    0 -0.13023240840E+01 -0.28088742968E+01  0.22128039864E+02  0.22379653059E+02  0.12700000000E+01 0.  1.
         -4    1    1    2    0  501  0.13023240840E+01  0.28088742968E+01  0.40617637491E+02  0.40755259761E+02  0.12700000000E+01 0. -1.
<mgrwt>
<rscale>  0 0.33464493E+01</rscale>
<asrwt>0</asrwt>
<pdfrwt beam="1">0</pdfrwt>
<pdfrwt beam="2">0</pdfrwt>
<totfact> 0.97731674E+11</totfact>
</mgrwt>
</event>
<event>
 4    1  0.3324394E+006  0.2754530E+01  0.7546771E-02  0.2605947E+00
         22   -1    0    0    0    0  0.00000000000E+00  0.00000000000E+00  0.15604881149E+02  0.15604881149E+02  0.00000000000E+00 0. -1.
         22   -1    0    0    0    0 -0.00000000000E+00 -0.00000000000E+00 -0.89906072661E+00  0.89906072661E+00  0.00000000000E+00 0.  1.
          4    1    1    2  501    0 -0.98253120511E+00 -0.22381165651E+01  0.17610861450E+01  0.32693818587E+01  0.12700000000E+01 0.  1.
         -4    1    1    2    0  501  0.98253120511E+00  0.22381165651E+01  0.12944734278E+02  0.13234560017E+02  0.12700000000E+01 0. -1.
<mgrwt>
<rscale>  0 0.27545296E+01</rscale>
<asrwt>0</asrwt>
<pdfrwt beam="1">0</pdfrwt>
<pdfrwt beam="2">0</pdfrwt>
<totfact> 0.10403726E+12</totfact>
</mgrwt>
</event>
<event>
 4    1  0.3324394E+006  0.3104150E+01  0.7546771E-02  0.2490258E+00
         22   -1    0    0    0    0  0.00000000000E+00  0.00000000000E+00  0.22227295304E+01  0.22227295304E+01  0.00000000000E+00 0.  1.
         22   -1    0    0    0    0 -0.00000000000E+00 -0.00000000000E+00 -0.51357474356E+01  0.51357474356E+01  0.00000000000E+00 0.  1.
          4    1    1    2  501    0  0.36273735918E+00  0.28091399314E+01 -0.38023974576E-02  0.31041520588E+01  0.12700000000E+01 0.  1.
         -4    1    1    2    0  501 -0.36273735918E+00 -0.28091399314E+01 -0.29092155077E+01  0.42543249072E+01  0.12700000000E+01 0.  1.
<mgrwt>
<rscale>  0 0.31041497E+01</rscale>
<asrwt>0</asrwt>
<pdfrwt beam="1">0</pdfrwt>
<pdfrwt beam="2">0</pdfrwt>
<totfact> 0.14056639E+12</totfact>
</mgrwt>
</event>
<event>
 4    1  0.3324394E+006  0.2173219E+01  0.7546771E-02  0.2872861E+00
         22   -1    0    0    0    0  0.00000000000E+00  0.00000000000E+00  0.11066721964E+01  0.11066721964E+01  0.00000000000E+00 0.  1.
         22   -1    0    0    0    0 -0.00000000000E+00 -0.00000000000E+00 -0.94288745079E+01  0.94288745079E+01  0.00000000000E+00 0. -1.
          4    1    1    2  501    0 -0.62208764082E+00  0.16501484038E+01 -0.80584904475E+01  0.83463855099E+01  0.12700000000E+01 0. -1.
         -4    1    1    2    0  501  0.62208764082E+00 -0.16501484038E+01 -0.26371186396E+00  0.21891611943E+01  0.12700000000E+01 0.  1.
<mgrwt>
<rscale>  0 0.21732195E+01</rscale>
<asrwt>0</asrwt>
<pdfrwt beam="1">0</pdfrwt>
<pdfrwt beam="2">0</pdfrwt>
<totfact> 0.15173272E+12</totfact>
</mgrwt>
</event>
<event>
 4    1  0.3324394E+006  0.2446458E+01  0.7546771E-02  0.2732616E+00
         22   -1    0    0    0    0  0.00000000000E+00  0.00000000000E+00  0.64250552227E-01  0.64250552227E-01  0.00000000000E+00 0.  1.
         22   -1    0    0    0    0 -0.00000000000E+00 -0.00000000000E+00 -0.96626897026E+02  0.96626897026E+02  0.00000000000E+00 0. -1.
          4    1    1    2  501    0 -0.33549027189E+00 -0.20639050825E+01 -0.57447551368E+02  0.57499620138E+02  0.12700000000E+01 0.  1.
         -4    1    1    2    0  501  0.33549027189E+00  0.20639050825E+01 -0.39115095106E+02  0.39191527440E+02  0.12700000000E+01 0. -1.
<mgrwt>
<rscale>  0 0.24464582E+01</rscale>
<asrwt>0</asrwt>
<pdfrwt beam="1">0</pdfrwt>
<pdfrwt beam="2">0</pdfrwt>
<totfact> 0.18541432E+12</totfact>
</mgrwt>
</event>
<event>
 4    1  0.3324394E+006  0.2186184E+01  0.7546771E-02  0.2865454E+00
         22   -1    0    0    0    0  0.00000000000E+00  0.00000000000E+00  0.32230667875E+00  0.32230667875E+00  0.00000000000E+00 0.  1.
         22   -1    0    0    0    0 -0.00000000000E+00 -0.00000000000E+00 -0.19758987268E+02  0.19758987268E+02  0.00000000000E+00 0. -1.
          4    1    1    2  501    0 -0.96572051863E+00 -0.14946188377E+01 -0.47028458318E+01  0.51861508373E+01  0.12700000000E+01 0.  1.
         -4    1    1    2    0  501  0.96572051863E+00  0.14946188377E+01 -0.14733834757E+02  0.14895143109E+02  0.12700000000E+01 0. -1.
<mgrwt>
<rscale>  0 0.21861843E+01</rscale>
<asrwt>0</asrwt>
<pdfrwt beam="1">0</pdfrwt>
<pdfrwt beam="2">0</pdfrwt>
<totfact> 0.24766412E+12</totfact>
</mgrwt>
</event>
<event>
 4    1  0.3324394E+006  0.2054733E+01  0.7546771E-02  0.2944734E+00
         22   -1    0    0    0    0  0.00000000000E+00  0.00000000000E+00  0.61250930345E+00  0.61250930345E+00  0.00000000000E+00 0. -1.
         22   -1    0    0    0    0 -0.00000000000E+00 -0.00000000000E+00 -0.69008794692E+01  0.69008794692E+01  0.00000000000E+00 0.  1.
          4    1    1    2  501    0 -0.97804795770E+00 -0.12854764036E+01 -0.32724245791E+01  0.38640251057E+01  0.12700000000E+01 0.  1.
         -4    1    1    2    0  501  0.97804795770E+00  0.12854764036E+01 -0.30159455866E+01  0.36493636669E+01  0.12700000000E+01 0. -1.
<mgrwt>
<rscale>  0 0.20547329E+01</rscale>
<asrwt>0</asrwt>
<pdfrwt beam="1">0</pdfrwt>
<pdfrwt beam="2">0</pdfrwt>
<totfact> 0.43290947E+12</totfact>
</mgrwt>
</event>
<event>
 4    1  0.3324394E+006  0.2513208E+01  0.7546771E-02  0.2702736E+00
         22   -1    0    0    0    0  0.00000000000E+00  0.00000000000E+00  0.22272193847E+01  0.22272193847E+01  0.00000000000E+00 0. -1.
         22   -1    0    0    0    0 -0.00000000000E+00 -0.00000000000E+00 -0.31744047337E+01  0.31744047337E+01  0.00000000000E+00 0.  1.
          4    1    1    2  501    0 -0.18647470468E+01 -0.11072639051E+01 -0.13555205563E+01  0.28554598374E+01  0.12700000000E+01 0.  1.
         -4    1    1    2    0  501  0.18647470468E+01  0.11072639051E+01  0.40833520728E+00  0.25461642810E+01  0.12700000000E+01 0.  1.
<mgrwt>
<rscale>  0 0.25132081E+01</rscale>
<asrwt>0</asrwt>
<pdfrwt beam="1">0</pdfrwt>
<pdfrwt beam="2">0</pdfrwt>
<totfact> 0.24706396E+12</totfact>
</mgrwt>
</event>
<event>
 4    1  0.3324394E+006  0.2032346E+01  0.7546771E-02  0.2959228E+00
         22   -1    0    0    0    0  0.00000000000E+00  0.00000000000E+00  0.94331400788E-01  0.94331400788E-01  0.00000000000E+00 0.  1.
         22   -1    0    0    0    0 -0.00000000000E+00 -0.00000000000E+00 -0.46455932937E+02  0.46455932937E+02  0.00000000000E+00 0.  1.
          4    1    1    2  501    0 -0.13506417079E+00 -0.15809130798E+01 -0.28760266465E+02  0.28831984941E+02  0.12700000000E+01 0.  1.
         -4    1    1    2    0  501  0.13506417079E+00  0.15809130798E+01 -0.17601335071E+02  0.17718279396E+02  0.12700000000E+01 0.  1.
<mgrwt>
<rscale>  0 0.20323456E+01</rscale>
<asrwt>0</asrwt>
<pdfrwt beam="1">0</pdfrwt>
<pdfrwt beam="2">0</pdfrwt>
<totfact> 0.32684998E+12</totfact>
</mgrwt>
</event>
<event>
 4    1  0.3324394E+006  0.2007276E+01  0.7546771E-02  0.2975833E+00
         22   -1    0    0    0    0  0.00000000000E+00  0.00000000000E+00  0.65664837690E+00  0.65664837690E+00  0.00000000000E+00 0.  1.
         22   -1    0    0    0    0 -0.00000000000E+00 -0.00000000000E+00 -0.61364051257E+01  0.61364051257E+01  0.00000000000E+00 0.  1.
          4    1    1    2  501    0 -0.12477051027E+01 -0.92708588718E+00 -0.27693898798E+01  0.34203328160E+01  0.12700000000E+01 0.  1.
         -4    1    1    2    0  501  0.12477051027E+01  0.92708588718E+00 -0.27103668690E+01  0.33727206866E+01  0.12700000000E+01 0.  1.
<mgrwt>
<rscale>  0 0.20072758E+01</rscale>
<asrwt>0</asrwt>
<pdfrwt beam="1">0</pdfrwt>
<pdfrwt beam="2">0</pdfrwt>
<totfact> 0.46024777E+12</totfact>
</mgrwt>
</event>
<event>
 4    1  0.3324394E+006  0.2209718E+01  0.7546771E-02  0.2852221E+00
         22   -1    0    0    0    0  0.00000000000E+00  0.00000000000E+00  0.17698092715E+02  0.17698092715E+02  0.00000000000E+00 0. -1.
         22   -1    0    0    0    0 -0.00000000000E+00 -0.00000000000E+00 -0.29023493614E+00  0.29023493614E+00  0.00000000000E+00 0.  1.
          4    1    1    2  501    0  0.13268527633E+01  0.12285830556E+01  0.67048683885E+01  0.70596115111E+01  0.12700000000E+01 0.  1.
         -4    1    1    2    0  501 -0.13268527633E+01 -0.12285830556E+01  0.10702989390E+02  0.10928716140E+02  0.12700000000E+01 0. -1.
<mgrwt>
<rscale>  0 0.22097182E+01</rscale>
<asrwt>0</asrwt>
<pdfrwt beam="1">0</pdfrwt>
<pdfrwt beam="2">0</pdfrwt>
<totfact> 0.31943210E+12</totfact>
</mgrwt>
</event>
<event>
 4    1  0.3324394E+006  0.2087653E+01  0.7546771E-02  0.2923972E+00
         22   -1    0    0    0    0  0.00000000000E+00  0.00000000000E+00  0.61675147822E+00  0.61675147822E+00  0.00000000000E+00 0. -1.
         22   -1    0    0    0    0 -0.00000000000E+00 -0.00000000000E+00 -0.13785222029E+02  0.13785222029E+02  0.00000000000E+00 0.  1.
          4    1    1    2  501    0  0.16119940047E+01 -0.38323488565E+00 -0.11611450207E+02  0.11797629828E+02  0.12700000000E+01 0.  1.
         -4    1    1    2    0  501 -0.16119940047E+01  0.38323488565E+00 -0.15570203439E+01  0.26043436794E+01  0.12700000000E+01 0. -1.
<mgrwt>
<rscale>  0 0.20876527E+01</rscale>
<asrwt>0</asrwt>
<pdfrwt beam="1">0</pdfrwt>
<pdfrwt beam="2">0</pdfrwt>
<totfact> 0.18592511E+12</totfact>
</mgrwt>
</event>
<event>
 4    1  0.3324394E+006  0.2460912E+01  0.7546771E-02  0.2726018E+00
         22   -1    0    0    0    0  0.00000000000E+00  0.00000000000E+00  0.78894173478E+00  0.78894173478E+00  0.00000000000E+00 0.  1.
         22   -1    0    0    0    0 -0.00000000000E+00 -0.00000000000E+00 -0.10633285199E+02  0.10633285199E+02  0.00000000000E+00 0.  1.
          4    1    1    2  501    0  0.14646679427E+01 -0.15158939401E+01 -0.79339143343E+01  0.83068094527E+01  0.12700000000E+01 0.  1.
         -4    1    1    2    0  501 -0.14646679427E+01  0.15158939401E+01 -0.19104291295E+01  0.31154174807E+01  0.12700000000E+01 0.  1.
<mgrwt>
<rscale>  0 0.24609117E+01</rscale>
<asrwt>0</asrwt>
<pdfrwt beam="1">0</pdfrwt>
<pdfrwt beam="2">0</pdfrwt>
<totfact> 0.19298326E+12</totfact>
</mgrwt>
</event>
<event>
 4    1  0.3324394E+006  0.2190504E+01  0.7546771E-02  0.2863004E+00
         22   -1    0    0    0    0  0.00000000000E+00  0.00000000000E+00  0.21060256561E+01  0.21060256561E+01  0.00000000000E+00 0. -1.
         22   -1    0    0    0    0 -0.00000000000E+00 -0.00000000000E+00 -0.36073812514E+01  0.36073812514E+01  0.00000000000E+00 0. -1.
          4    1    1    2  501    0 -0.17606438383E+01  0.29247210345E+00 -0.24846151034E+01  0.33123434104E+01  0.12700000000E+01 0. -1.
         -4    1    1    2    0  501  0.17606438383E+01 -0.29247210345E+00  0.98325950813E+00  0.24010634971E+01  0.12700000000E+01 0. -1.
<mgrwt>
<rscale>  0 0.21905037E+01</rscale>
<asrwt>0</asrwt>
<pdfrwt beam="1">0</pdfrwt>
<pdfrwt beam="2">0</pdfrwt>
<totfact> 0.22693547E+12</totfact>
</mgrwt>
</event>
<event>
 4    1  0.3324394E+006  0.2036533E+01  0.7546771E-02  0.2956493E+00
         22   -1    0    0    0    0  0.00000000000E+00  0.00000000000E+00  0.24093595498E+01  0.24093595498E+01  0.00000000000E+00 0. -1.
         22   -1    0    0    0    0 -0.00000000000E+00 -0.00000000000E+00 -0.19597457092E+01  0.19597457092E+01  0.00000000000E+00 0. -1.
          4    1    1    2  501    0 -0.15295402497E+01  0.44167249583E+00 -0.53703991191E+00  0.21061528520E+01  0.12700000000E+01 0. -1.
         -4    1    1    2    0  501  0.15295402497E+01 -0.44167249583E+00  0.98665375250E+00  0.22629524070E+01  0.12700000000E+01 0. -1.
<mgrwt>
<rscale>  0 0.20365333E+01</rscale>
<asrwt>0</asrwt>
<pdfrwt beam="1">0</pdfrwt>
<pdfrwt beam="2">0</pdfrwt>
<totfact> 0.39516826E+12</totfact>
</mgrwt>
</event>
<event>
 4    1  0.3324394E+006  0.2590170E+01  0.7546771E-02  0.2670064E+00
         22   -1    0    0    0    0  0.00000000000E+00  0.00000000000E+00  0.44104639002E+01  0.44104639002E+01  0.00000000000E+00 0.  1.
         22   -1    0    0    0    0 -0.00000000000E+00 -0.00000000000E+00 -0.19325026225E+01  0.19325026225E+01  0.00000000000E+00 0. -1.
          4    1    1    2  501    0  0.16599347578E+01  0.15299334137E+01 -0.22423796723E+00  0.25998581340E+01  0.12700000000E+01 0. -1.
         -4    1    1    2    0  501 -0.16599347578E+01 -0.15299334137E+01  0.27021992449E+01  0.37431083887E+01  0.12700000000E+01 0.  1.
<mgrwt>
<rscale>  0 0.25901698E+01</rscale>
<asrwt>0</asrwt>
<pdfrwt beam="1">0</pdfrwt>
<pdfrwt beam="2">0</pdfrwt>
<totfact> 0.19789724E+12</totfact>
</mgrwt>
</event>
<event>
 4    1  0.3324394E+006  0.2580875E+01  0.7546771E-02  0.2673914E+00
         22   -1    0    0    0    0  0.00000000000E+00  0.00000000000E+00  0.58368396336E+01  0.58368396336E+01  0.00000000000E+00 0.  1.
         22   -1    0    0    0    0 -0.00000000000E+00 -0.00000000000E+00 -0.12437559240E+01  0.12437559240E+01  0.00000000000E+00 0. -1.
          4    1    1    2  501    0 -0.11559292305E+01  0.19266145501E+01  0.12798635478E+01  0.28807927227E+01  0.12700000000E+01 0.  1.
         -4    1    1    2    0  501  0.11559292305E+01 -0.19266145501E+01  0.33132201618E+01  0.41998028348E+01  0.12700000000E+01 0. -1.
<mgrwt>
<rscale>  0 0.25808750E+01</rscale>
<asrwt>0</asrwt>
<pdfrwt beam="1">0</pdfrwt>
<pdfrwt beam="2">0</pdfrwt>
<totfact> 0.23586128E+12</totfact>
</mgrwt>
</event>
<event>
 4    1  0.3324394E+006  0.2410104E+01  0.7546771E-02  0.2749540E+00
         22   -1    0    0    0    0  0.00000000000E+00  0.00000000000E+00  0.38616877209E+02  0.38616877209E+02  0.00000000000E+00 0. -1.
         22   -1    0    0    0    0 -0.00000000000E+00 -0.00000000000E+00 -0.31387119742E+00  0.31387119742E+00  0.00000000000E+00 0.  1.
          4    1    1    2  501    0 -0.87155911973E+00  0.18536678315E+01  0.51044160500E+01  0.56447907792E+01  0.12700000000E+01 0.  1.
         -4    1    1    2    0  501  0.87155911973E+00 -0.18536678315E+01  0.33198589962E+02  0.33285957628E+02  0.12700000000E+01 0. -1.
<mgrwt>
<rscale>  0 0.24101037E+01</rscale>
<asrwt>0</asrwt>
<pdfrwt beam="1">0</pdfrwt>
<pdfrwt beam="2">0</pdfrwt>
<totfact> 0.10901598E+12</totfact>
</mgrwt>
</event>
<event>
 4    1  0.3324394E+006  0.2411467E+01  0.7546771E-02  0.2748897E+00
         22   -1    0    0    0    0  0.00000000000E+00  0.00000000000E+00  0.10618706770E+01  0.10618706770E+01  0.00000000000E+00 0.  1.
         22   -1    0    0    0    0 -0.00000000000E+00 -0.00000000000E+00 -0.64432171535E+01  0.64432171535E+01  0.00000000000E+00 0.  1.
          4    1    1    2  501    0  0.15185653424E+01 -0.13770369900E+01 -0.41443191450E+01  0.47948464779E+01  0.12700000000E+01 0.  1.
         -4    1    1    2    0  501 -0.15185653424E+01  0.13770369900E+01 -0.12370273315E+01  0.27102413527E+01  0.12700000000E+01 0.  1.
<mgrwt>
<rscale>  0 0.24114667E+01</rscale>
<asrwt>0</asrwt>
<pdfrwt beam="1">0</pdfrwt>
<pdfrwt beam="2">0</pdfrwt>
<totfact> 0.25126188E+12</totfact>
</mgrwt>
</event>
<event>
 4    1  0.3324394E+006  0.4057864E+01  0.7546771E-02  0.2266368E+00
         22   -1    0    0    0    0  0.00000000000E+00  0.00000000000E+00  0.49604412701E+01  0.49604412701E+01  0.00000000000E+00 0. -1.
         22   -1    0    0    0    0 -0.00000000000E+00 -0.00000000000E+00 -0.94056157761E+01  0.94056157761E+01  0.00000000000E+00 0.  1.
          4    1    1    2  501    0 -0.22880306454E+01 -0.31013348249E+01 -0.80006669025E+01  0.89708936464E+01  0.12700000000E+01 0.  1.
         -4    1    1    2    0  501  0.22880306454E+01  0.31013348249E+01  0.35554923965E+01  0.53951633999E+01  0.12700000000E+01 0. -1.
<mgrwt>
<rscale>  0 0.40578642E+01</rscale>
<asrwt>0</asrwt>
<pdfrwt beam="1">0</pdfrwt>
<pdfrwt beam="2">0</pdfrwt>
<totfact> 0.26618682E+11</totfact>
</mgrwt>
</event>
<event>
 4    1  0.3324394E+006  0.4048895E+01  0.7546771E-02  0.2268045E+00
         22   -1    0    0    0    0  0.00000000000E+00  0.00000000000E+00  0.16745429037E+01  0.16745429037E+01  0.00000000000E+00 0. -1.
         22   -1    0    0    0    0 -0.00000000000E+00 -0.00000000000E+00 -0.10910061623E+02  0.10910061623E+02  0.00000000000E+00 0.  1.
          4    1    1    2  501    0 -0.12825148421E+01 -0.36243347683E+01 -0.66340045807E+01  0.77719729547E+01  0.12700000000E+01 0.  1.
         -4    1    1    2    0  501  0.12825148421E+01  0.36243347683E+01 -0.26015141386E+01  0.48126315718E+01  0.12700000000E+01 0. -1.
<mgrwt>
<rscale>  0 0.40488945E+01</rscale>
<asrwt>0</asrwt>
<pdfrwt beam="1">0</pdfrwt>
<pdfrwt beam="2">0</pdfrwt>
<totfact> 0.79022399E+11</totfact>
</mgrwt>
</event>
<event>
 4    1  0.3324394E+006  0.2297323E+01  0.7546771E-02  0.2805241E+00
         22   -1    0    0    0    0  0.00000000000E+00  0.00000000000E+00  0.70520758627E+00  0.70520758627E+00  0.00000000000E+00 0. -1.
         22   -1    0    0    0    0 -0.00000000000E+00 -0.00000000000E+00 -0.14123148734E+02  0.14123148734E+02  0.00000000000E+00 0.  1.
          4    1    1    2  501    0 -0.18464542665E+01  0.50537074179E+00 -0.11792404582E+02  0.12014095836E+02  0.12700000000E+01 0.  1.
         -4    1    1    2    0  501  0.18464542665E+01 -0.50537074179E+00 -0.16255365663E+01  0.28142604843E+01  0.12700000000E+01 0. -1.
<mgrwt>
<rscale>  0 0.22973230E+01</rscale>
<asrwt>0</asrwt>
<pdfrwt beam="1">0</pdfrwt>
<pdfrwt beam="2">0</pdfrwt>
<totfact> 0.15504093E+12</totfact>
</mgrwt>
</event>
<event>
 4    1  0.3324394E+006  0.2208704E+01  0.7546771E-02  0.2852785E+00
         22   -1    0    0    0    0  0.00000000000E+00  0.00000000000E+00  0.74101752054E+00  0.74101752054E+00  0.00000000000E+00 0. -1.
         22   -1    0    0    0    0 -0.00000000000E+00 -0.00000000000E+00 -0.68068631852E+01  0.68068631852E+01  0.00000000000E+00 0.  1.
          4    1    1    2  501    0 -0.15749432660E+00 -0.18001854937E+01 -0.37168032993E+01  0.43235401051E+01  0.12700000000E+01 0. -1.
         -4    1    1    2    0  501  0.15749432660E+00  0.18001854937E+01 -0.23490423654E+01  0.32243406007E+01  0.12700000000E+01 0. -1.
<mgrwt>
<rscale>  0 0.22087038E+01</rscale>
<asrwt>0</asrwt>
<pdfrwt beam="1">0</pdfrwt>
<pdfrwt beam="2">0</pdfrwt>
<totfact> 0.35456826E+12</totfact>
</mgrwt>
</event>
<event>
 4    1  0.3324394E+006  0.2224561E+01  0.7546771E-02  0.2844013E+00
         22   -1    0    0    0    0  0.00000000000E+00  0.00000000000E+00  0.20623910672E+02  0.20623910672E+02  0.00000000000E+00 0. -1.
         22   -1    0    0    0    0 -0.00000000000E+00 -0.00000000000E+00 -0.29927616279E+00  0.29927616279E+00  0.00000000000E+00 0. -1.
          4    1    1    2  501    0 -0.15785144611E+01 -0.91872893921E+00  0.55044039740E+01  0.59369296675E+01  0.12700000000E+01 0. -1.
         -4    1    1    2    0  501  0.15785144611E+01  0.91872893921E+00  0.14820230535E+02  0.14986257167E+02  0.12700000000E+01 0. -1.
<mgrwt>
<rscale>  0 0.22245608E+01</rscale>
<asrwt>0</asrwt>
<pdfrwt beam="1">0</pdfrwt>
<pdfrwt beam="2">0</pdfrwt>
<totfact> 0.25513592E+12</totfact>
</mgrwt>
</event>
<event>
 4    1  0.3324394E+006  0.2415568E+01  0.7546771E-02  0.2746966E+00
         22   -1    0    0    0    0  0.00000000000E+00  0.00000000000E+00  0.30032991677E+01  0.30032991677E+01  0.00000000000E+00 0.  1.
         22   -1    0    0    0    0 -0.00000000000E+00 -0.00000000000E+00 -0.24399303954E+01  0.24399303954E+01  0.00000000000E+00 0. -1.
          4    1    1    2  501    0 -0.17846784807E+01  0.10183277375E+01  0.15101131115E+01  0.28487559162E+01  0.12700000000E+01 0.  1.
         -4    1    1    2    0  501  0.17846784807E+01 -0.10183277375E+01 -0.94674433917E+00  0.25944736469E+01  0.12700000000E+01 0. -1.
<mgrwt>
<rscale>  0 0.24155680E+01</rscale>
<asrwt>0</asrwt>
<pdfrwt beam="1">0</pdfrwt>
<pdfrwt beam="2">0</pdfrwt>
<totfact> 0.23709932E+12</totfact>
</mgrwt>
</event>
<event>
 4    1  0.3324394E+006  0.2073370E+01  0.7546771E-02  0.2932901E+00
         22   -1    0    0    0    0  0.00000000000E+00  0.00000000000E+00  0.78489938849E+00  0.78489938849E+00  0.00000000000E+00 0. -1.
         22   -1    0    0    0    0 -0.00000000000E+00 -0.00000000000E+00 -0.54827787985E+01  0.54827787985E+01  0.00000000000E+00 0.  1.
          4    1    1    2  501    0  0.16383869885E+01  0.40650781207E-01 -0.22468681439E+01  0.30573323121E+01  0.12700000000E+01 0. -1.
         -4    1    1    2    0  501 -0.16383869885E+01 -0.40650781207E-01 -0.24510112661E+01  0.32103458749E+01  0.12700000000E+01 0.  1.
<mgrwt>
<rscale>  0 0.20733703E+01</rscale>
<asrwt>0</asrwt>
<pdfrwt beam="1">0</pdfrwt>
<pdfrwt beam="2">0</pdfrwt>
<totfact> 0.42971608E+12</totfact>
</mgrwt>
</event>
<event>
 4    1  0.3324394E+006  0.2414106E+01  0.7546771E-02  0.2747653E+00
         22   -1    0    0    0    0  0.00000000000E+00  0.00000000000E+00  0.10217777439E+02  0.10217777439E+02  0.00000000000E+00 0.  1.
         22   -1    0    0    0    0 -0.00000000000E+00 -0.00000000000E+00 -0.11484762498E+01  0.11484762498E+01  0.00000000000E+00 0. -1.
          4    1    1    2  501    0  0.44183356112E+00 -0.20049419385E+01  0.50255942742E+00  0.24658619285E+01  0.12700000000E+01 0. -1.
         -4    1    1    2    0  501 -0.44183356112E+00  0.20049419385E+01  0.85667417619E+01  0.89003917603E+01  0.12700000000E+01 0.  1.
<mgrwt>
<rscale>  0 0.24141063E+01</rscale>
<asrwt>0</asrwt>
<pdfrwt beam="1">0</pdfrwt>
<pdfrwt beam="2">0</pdfrwt>
<totfact> 0.13195929E+12</totfact>
</mgrwt>
</event>
<event>
 4    1  0.3324394E+006  0.3333186E+01  0.7546771E-02  0.2426336E+00
         22   -1    0    0    0    0  0.00000000000E+00  0.00000000000E+00  0.26611688116E+01  0.26611688116E+01  0.00000000000E+00 0.  1.
         22   -1    0    0    0    0 -0.00000000000E+00 -0.00000000000E+00 -0.81556671424E+01  0.81556671424E+01  0.00000000000E+00 0. -1.
          4    1    1    2  501    0  0.30425626172E+01 -0.48993803073E+00 -0.65257856875E+01  0.73277558224E+01  0.12700000000E+01 0. -1.
         -4    1    1    2    0  501 -0.30425626172E+01  0.48993803073E+00  0.10312873567E+01  0.34890801317E+01  0.12700000000E+01 0.  1.
<mgrwt>
<rscale>  0 0.33331856E+01</rscale>
<asrwt>0</asrwt>
<pdfrwt beam="1">0</pdfrwt>
<pdfrwt beam="2">0</pdfrwt>
<totfact> 0.65661862E+11</totfact>
</mgrwt>
</event>
<event>
 4    1  0.3324394E+006  0.4479762E+01  0.7546771E-02  0.2194006E+00
         22   -1    0    0    0    0  0.00000000000E+00  0.00000000000E+00  0.13276567137E+01  0.13276567137E+01  0.00000000000E+00 0. -1.
         22   -1    0    0    0    0 -0.00000000000E+00 -0.00000000000E+00 -0.15127669202E+02  0.15127669202E+02  0.00000000000E+00 0. -1.
          4    1    1    2  501    0  0.37931145545E+01 -0.20168414336E+01 -0.71328406391E+01  0.84229260340E+01  0.12700000000E+01 0. -1.
         -4    1    1    2    0  501 -0.37931145545E+01  0.20168414336E+01 -0.66671718488E+01  0.80323998813E+01  0.12700000000E+01 0. -1.
<mgrwt>
<rscale>  0 0.44797620E+01</rscale>
<asrwt>0</asrwt>
<pdfrwt beam="1">0</pdfrwt>
<pdfrwt beam="2">0</pdfrwt>
<totfact> 0.69210214E+11</totfact>
</mgrwt>
</event>
<event>
 4    1  0.3324394E+006  0.6852171E+01  0.7546771E-02  0.1950756E+00
         22   -1    0    0    0    0  0.00000000000E+00  0.00000000000E+00  0.11740042311E+01  0.11740042311E+01  0.00000000000E+00 0. -1.
         22   -1    0    0    0    0 -0.00000000000E+00 -0.00000000000E+00 -0.54732416466E+02  0.54732416466E+02  0.00000000000E+00 0.  1.
          4    1    1    2  501    0 -0.42053448134E+01 -0.52587467888E+01 -0.41285145800E+02  0.41849916446E+02  0.12700000000E+01 0.  1.
         -4    1    1    2    0  501  0.42053448134E+01  0.52587467888E+01 -0.12273266435E+02  0.14056504252E+02  0.12700000000E+01 0. -1.
<mgrwt>
<rscale>  0 0.68521707E+01</rscale>
<asrwt>0</asrwt>
<pdfrwt beam="1">0</pdfrwt>
<pdfrwt beam="2">0</pdfrwt>
<totfact> 0.15484112E+11</totfact>
</mgrwt>
</event>
<event>
 4    1  0.3324394E+006  0.3148629E+01  0.7546771E-02  0.2477201E+00
         22   -1    0    0    0    0  0.00000000000E+00  0.00000000000E+00  0.14225221389E+02  0.14225221389E+02  0.00000000000E+00 0. -1.
         22   -1    0    0    0    0 -0.00000000000E+00 -0.00000000000E+00 -0.12514684167E+01  0.12514684167E+01  0.00000000000E+00 0. -1.
          4    1    1    2  501    0 -0.28076054804E+01  0.64677292087E+00  0.13356902408E+01  0.34202239932E+01  0.12700000000E+01 0. -1.
         -4    1    1    2    0  501  0.28076054804E+01 -0.64677292087E+00  0.11638062732E+02  0.12056465813E+02  0.12700000000E+01 0. -1.
<mgrwt>
<rscale>  0 0.31486289E+01</rscale>
<asrwt>0</asrwt>
<pdfrwt beam="1">0</pdfrwt>
<pdfrwt beam="2">0</pdfrwt>
<totfact> 0.79883130E+11</totfact>
</mgrwt>
</event>
<event>
 4    1  0.3324394E+006  0.4411751E+01  0.7546771E-02  0.2204880E+00
         22   -1    0    0    0    0  0.00000000000E+00  0.00000000000E+00  0.26326486662E+02  0.26326486662E+02  0.00000000000E+00 0.  1.
         22   -1    0    0    0    0 -0.00000000000E+00 -0.00000000000E+00 -0.12781046703E+01  0.12781046703E+01  0.00000000000E+00 0. -1.
          4    1    1    2  501    0 -0.22792462322E+01  0.35574832660E+01  0.35627471138E+01  0.56706893383E+01  0.12700000000E+01 0. -1.
         -4    1    1    2    0  501  0.22792462322E+01 -0.35574832660E+01  0.21485634878E+02  0.21933901994E+02  0.12700000000E+01 0.  1.
<mgrwt>
<rscale>  0 0.44117514E+01</rscale>
<asrwt>0</asrwt>
<pdfrwt beam="1">0</pdfrwt>
<pdfrwt beam="2">0</pdfrwt>
<totfact> 0.36225748E+11</totfact>
</mgrwt>
</event>
<event>
 4    1  0.3324394E+006  0.2097678E+01  0.7546771E-02  0.2917775E+00
         22   -1    0    0    0    0  0.00000000000E+00  0.00000000000E+00  0.30842130496E+00  0.30842130496E+00  0.00000000000E+00 0. -1.
         22   -1    0    0    0    0 -0.00000000000E+00 -0.00000000000E+00 -0.14335295754E+02  0.14335295754E+02  0.00000000000E+00 0. -1.
          4    1    1    2  501    0 -0.10957400681E+01 -0.12596453818E+01 -0.65081332495E+01  0.68378396572E+01  0.12700000000E+01 0. -1.
         -4    1    1    2    0  501  0.10957400681E+01  0.12596453818E+01 -0.75187411996E+01  0.78058774018E+01  0.12700000000E+01 0. -1.
<mgrwt>
<rscale>  0 0.20976780E+01</rscale>
<asrwt>0</asrwt>
<pdfrwt beam="1">0</pdfrwt>
<pdfrwt beam="2">0</pdfrwt>
<totfact> 0.38698923E+12</totfact>
</mgrwt>
</event>
<event>
 4    1  0.3324394E+006  0.2050742E+01  0.7546771E-02  0.2947295E+00
         22   -1    0    0    0    0  0.00000000000E+00  0.00000000000E+00  0.31564685620E+00  0.31564685620E+00  0.00000000000E+00 0.  1.
         22   -1    0    0    0    0 -0.00000000000E+00 -0.00000000000E+00 -0.14678711201E+02  0.14678711201E+02  0.00000000000E+00 0.  1.
          4    1    1    2  501    0 -0.27432322230E+00  0.15866277317E+01 -0.94594985389E+01  0.96792382653E+01  0.12700000000E+01 0.  1.
         -4    1    1    2    0  501  0.27432322230E+00 -0.15866277317E+01 -0.49035658059E+01  0.53151197919E+01  0.12700000000E+01 0.  1.
<mgrwt>
<rscale>  0 0.20507415E+01</rscale>
<asrwt>0</asrwt>
<pdfrwt beam="1">0</pdfrwt>
<pdfrwt beam="2">0</pdfrwt>
<totfact> 0.36624844E+12</totfact>
</mgrwt>
</event>
<event>
 4    1  0.3324394E+006  0.3603971E+01  0.7546771E-02  0.2360057E+00
         22   -1    0    0    0    0  0.00000000000E+00  0.00000000000E+00  0.56372704059E+01  0.56372704059E+01  0.00000000000E+00 0.  1.
         22   -1    0    0    0    0 -0.00000000000E+00 -0.00000000000E+00 -0.43315609341E+01  0.43315609341E+01  0.00000000000E+00 0.  1.
          4    1    1    2  501    0 -0.33468277521E+01 -0.41766917163E+00 -0.27572889522E+01  0.45377578059E+01  0.12700000000E+01 0.  1.
         -4    1    1    2    0  501  0.33468277521E+01  0.41766917163E+00  0.40629984240E+01  0.54310735340E+01  0.12700000000E+01 0.  1.
<mgrwt>
<rscale>  0 0.36039705E+01</rscale>
<asrwt>0</asrwt>
<pdfrwt beam="1">0</pdfrwt>
<pdfrwt beam="2">0</pdfrwt>
<totfact> 0.57683081E+11</totfact>
</mgrwt>
</event>
<event>
 4    1  0.3324394E+006  0.2111689E+01  0.7546771E-02  0.2909210E+00
         22   -1    0    0    0    0  0.00000000000E+00  0.00000000000E+00  0.95247456508E+01  0.95247456508E+01  0.00000000000E+00 0. -1.
         22   -1    0    0    0    0 -0.00000000000E+00 -0.00000000000E+00 -0.54534922615E+00  0.54534922615E+00  0.00000000000E+00 0.  1.
          4    1    1    2  501    0  0.14092324124E+01  0.92757520889E+00  0.63838164887E+01  0.67240125462E+01  0.12700000000E+01 0. -1.
         -4    1    1    2    0  501 -0.14092324124E+01 -0.92757520889E+00  0.25955799360E+01  0.33460823308E+01  0.12700000000E+01 0.  1.
<mgrwt>
<rscale>  0 0.21116893E+01</rscale>
<asrwt>0</asrwt>
<pdfrwt beam="1">0</pdfrwt>
<pdfrwt beam="2">0</pdfrwt>
<totfact> 0.33516707E+12</totfact>
</mgrwt>
</event>
<event>
 4    1  0.3324394E+006  0.2467873E+01  0.7546771E-02  0.2722865E+00
         22   -1    0    0    0    0  0.00000000000E+00  0.00000000000E+00  0.59440334005E+00  0.59440334005E+00  0.00000000000E+00 0.  1.
         22   -1    0    0    0    0 -0.00000000000E+00 -0.00000000000E+00 -0.10250221420E+02  0.10250221420E+02  0.00000000000E+00 0. -1.
          4    1    1    2  501    0  0.10646712906E+01  0.18286534011E+01 -0.49347983307E+01  0.55174842803E+01  0.12700000000E+01 0. -1.
         -4    1    1    2    0  501 -0.10646712906E+01 -0.18286534011E+01 -0.47210197493E+01  0.53271404798E+01  0.12700000000E+01 0.  1.
<mgrwt>
<rscale>  0 0.24678732E+01</rscale>
<asrwt>0</asrwt>
<pdfrwt beam="1">0</pdfrwt>
<pdfrwt beam="2">0</pdfrwt>
<totfact> 0.27821240E+12</totfact>
</mgrwt>
</event>
<event>
 4    1  0.3324394E+006  0.2613844E+01  0.7546771E-02  0.2660373E+00
         22   -1    0    0    0    0  0.00000000000E+00  0.00000000000E+00  0.17623645966E+02  0.17623645966E+02  0.00000000000E+00 0. -1.
         22   -1    0    0    0    0 -0.00000000000E+00 -0.00000000000E+00 -0.69108051724E+01  0.69108051724E+01  0.00000000000E+00 0.  1.
          4    1    1    2  501    0 -0.11889403135E+01 -0.19508201647E+01 -0.65617661385E+01  0.70632112555E+01  0.12700000000E+01 0.  1.
         -4    1    1    2    0  501  0.11889403135E+01  0.19508201647E+01  0.17274606932E+02  0.17471239883E+02  0.12700000000E+01 0. -1.
<mgrwt>
<rscale>  0 0.26138436E+01</rscale>
<asrwt>0</asrwt>
<pdfrwt beam="1">0</pdfrwt>
<pdfrwt beam="2">0</pdfrwt>
<totfact> 0.83235993E+10</totfact>
</mgrwt>
</event>
<event>
 4    1  0.3324394E+006  0.5007240E+01  0.7546771E-02  0.2122141E+00
         22   -1    0    0    0    0  0.00000000000E+00  0.00000000000E+00  0.13960554507E+02  0.13960554507E+02  0.00000000000E+00 0.  1.
         22   -1    0    0    0    0 -0.00000000000E+00 -0.00000000000E+00 -0.20775752669E+01  0.20775752669E+01  0.00000000000E+00 0. -1.
          4    1    1    2  501    0  0.48427461753E+01  0.85789622715E-01  0.88939329209E+01  0.10206590674E+02  0.12700000000E+01 0.  1.
         -4    1    1    2    0  501 -0.48427461753E+01 -0.85789622715E-01  0.29890463189E+01  0.58315390999E+01  0.12700000000E+01 0. -1.
<mgrwt>
<rscale>  0 0.50072398E+01</rscale>
<asrwt>0</asrwt>
<pdfrwt beam="1">0</pdfrwt>
<pdfrwt beam="2">0</pdfrwt>
<totfact> 0.45581754E+11</totfact>
</mgrwt>
</event>
<event>
 4    1  0.3324394E+006  0.2793992E+01  0.7546771E-02  0.2591583E+00
         22   -1    0    0    0    0  0.00000000000E+00  0.00000000000E+00  0.33686143326E+01  0.33686143326E+01  0.00000000000E+00 0. -1.
         22   -1    0    0    0    0 -0.00000000000E+00 -0.00000000000E+00 -0.25298594685E+01  0.25298594685E+01  0.00000000000E+00 0.  1.
          4    1    1    2  501    0  0.16648725964E+01 -0.18497804665E+01 -0.43531750543E+00  0.28277004557E+01  0.12700000000E+01 0.  1.
         -4    1    1    2    0  501 -0.16648725964E+01  0.18497804665E+01  0.12740723695E+01  0.30707733455E+01  0.12700000000E+01 0. -1.
<mgrwt>
<rscale>  0 0.27939915E+01</rscale>
<asrwt>0</asrwt>
<pdfrwt beam="1">0</pdfrwt>
<pdfrwt beam="2">0</pdfrwt>
<totfact> 0.19876397E+12</totfact>
</mgrwt>
</event>
<event>
 4    1  0.3324394E+006  0.2575891E+01  0.7546771E-02  0.2675989E+00
         22   -1    0    0    0    0  0.00000000000E+00  0.00000000000E+00  0.36018962181E+00  0.36018962181E+00  0.00000000000E+00 0.  1.
         22   -1    0    0    0    0 -0.00000000000E+00 -0.00000000000E+00 -0.27023042509E+02  0.27023042509E+02  0.00000000000E+00 0. -1.
          4    1    1    2  501    0  0.68174983386E+00  0.21348370072E+01 -0.21056048653E+02  0.21213024225E+02  0.12700000000E+01 0.  1.
         -4    1    1    2    0  501 -0.68174983386E+00 -0.21348370072E+01 -0.56068042340E+01  0.61702079059E+01  0.12700000000E+01 0. -1.
<mgrwt>
<rscale>  0 0.25758905E+01</rscale>
<asrwt>0</asrwt>
<pdfrwt beam="1">0</pdfrwt>
<pdfrwt beam="2">0</pdfrwt>
<totfact> 0.14752673E+12</totfact>
</mgrwt>
</event>
<event>
 4    1  0.3324394E+006  0.2561713E+01  0.7546771E-02  0.2681933E+00
         22   -1    0    0    0    0  0.00000000000E+00  0.00000000000E+00  0.45510294016E+00  0.45510294016E+00  0.00000000000E+00 0. -1.
         22   -1    0    0    0    0 -0.00000000000E+00 -0.00000000000E+00 -0.16743018588E+02  0.16743018588E+02  0.00000000000E+00 0. -1.
          4    1    1    2  501    0  0.19182329250E+01  0.11268782770E+01 -0.11347305366E+02  0.11632872014E+02  0.12700000000E+01 0. -1.
         -4    1    1    2    0  501 -0.19182329250E+01 -0.11268782770E+01 -0.49406102809E+01  0.55652495140E+01  0.12700000000E+01 0. -1.
<mgrwt>
<rscale>  0 0.25617127E+01</rscale>
<asrwt>0</asrwt>
<pdfrwt beam="1">0</pdfrwt>
<pdfrwt beam="2">0</pdfrwt>
<totfact> 0.20635441E+12</totfact>
</mgrwt>
</event>
<event>
 4    1  0.3324394E+006  0.2064802E+01  0.7546771E-02  0.2938315E+00
         22   -1    0    0    0    0  0.00000000000E+00  0.00000000000E+00  0.30979081869E+01  0.30979081869E+01  0.00000000000E+00 0.  1.
         22   -1    0    0    0    0 -0.00000000000E+00 -0.00000000000E+00 -0.15085529665E+01  0.15085529665E+01  0.00000000000E+00 0.  1.
          4    1    1    2  501    0  0.13927336848E+01 -0.84309002502E+00  0.11251381004E+00  0.20678653884E+01  0.12700000000E+01 0.  1.
         -4    1    1    2    0  501 -0.13927336848E+01  0.84309002502E+00  0.14768414103E+01  0.25385957650E+01  0.12700000000E+01 0.  1.
<mgrwt>
<rscale>  0 0.20648021E+01</rscale>
<asrwt>0</asrwt>
<pdfrwt beam="1">0</pdfrwt>
<pdfrwt beam="2">0</pdfrwt>
<totfact> 0.39871107E+12</totfact>
</mgrwt>
</event>
<event>
 4    1  0.3324394E+006  0.2813815E+01  0.7546771E-02  0.2584506E+00
         22   -1    0    0    0    0  0.00000000000E+00  0.00000000000E+00  0.23964716409E+02  0.23964716409E+02  0.00000000000E+00 0.  1.
         22   -1    0    0    0    0 -0.00000000000E+00 -0.00000000000E+00 -0.37499073473E+00  0.37499073473E+00  0.00000000000E+00 0. -1.
          4    1    1    2  501    0 -0.11271241924E+01 -0.22437119592E+01  0.75974988260E+01  0.81018232956E+01  0.12700000000E+01 0. -1.
         -4    1    1    2    0  501  0.11271241924E+01  0.22437119592E+01  0.15992226848E+02  0.16237883848E+02  0.12700000000E+01 0.  1.
<mgrwt>
<rscale>  0 0.28138145E+01</rscale>
<asrwt>0</asrwt>
<pdfrwt beam="1">0</pdfrwt>
<pdfrwt beam="2">0</pdfrwt>
<totfact> 0.16408643E+12</totfact>
</mgrwt>
</event>
<event>
 4    1  0.3324394E+006  0.2046862E+01  0.7546771E-02  0.2949794E+00
         22   -1    0    0    0    0  0.00000000000E+00  0.00000000000E+00  0.70136102240E+01  0.70136102240E+01  0.00000000000E+00 0.  1.
         22   -1    0    0    0    0 -0.00000000000E+00 -0.00000000000E+00 -0.73710259404E+00  0.73710259404E+00  0.00000000000E+00 0. -1.
          4    1    1    2  501    0  0.15849714526E+01 -0.25418628289E+00  0.48256349728E+01  0.52417934014E+01  0.12700000000E+01 0.  1.
         -4    1    1    2    0  501 -0.15849714526E+01  0.25418628289E+00  0.14508726571E+01  0.25089194166E+01  0.12700000000E+01 0. -1.
<mgrwt>
<rscale>  0 0.20468623E+01</rscale>
<asrwt>0</asrwt>
<pdfrwt beam="1">0</pdfrwt>
<pdfrwt beam="2">0</pdfrwt>
<totfact> 0.34415828E+12</totfact>
</mgrwt>
</event>
<event>
 4    1  0.3324394E+006  0.2849039E+01  0.7546771E-02  0.2572150E+00
         22   -1    0    0    0    0  0.00000000000E+00  0.00000000000E+00  0.27264952352E+02  0.27264952352E+02  0.00000000000E+00 0.  1.
         22   -1    0    0    0    0 -0.00000000000E+00 -0.00000000000E+00 -0.35278748586E+00  0.35278748586E+00  0.00000000000E+00 0.  1.
          4    1    1    2  501    0 -0.25273859178E+01  0.34124159182E+00  0.79998606649E+01  0.84920431027E+01  0.12700000000E+01 0.  1.
         -4    1    1    2    0  501  0.25273859178E+01 -0.34124159182E+00  0.18912304201E+02  0.19125696735E+02  0.12700000000E+01 0.  1.
<mgrwt>
<rscale>  0 0.28490394E+01</rscale>
<asrwt>0</asrwt>
<pdfrwt beam="1">0</pdfrwt>
<pdfrwt beam="2">0</pdfrwt>
<totfact> 0.14931631E+12</totfact>
</mgrwt>
</event>
<event>
 4    1  0.3324394E+006  0.2011064E+01  0.7546771E-02  0.2973298E+00
         22   -1    0    0    0    0  0.00000000000E+00  0.00000000000E+00  0.18746971605E+00  0.18746971605E+00  0.00000000000E+00 0.  1.
         22   -1    0    0    0    0 -0.00000000000E+00 -0.00000000000E+00 -0.21630442370E+02  0.21630442370E+02  0.00000000000E+00 0.  1.
          4    1    1    2  501    0  0.11177607510E+01  0.10872384247E+01 -0.10161732132E+02  0.10358821188E+02  0.12700000000E+01 0.  1.
         -4    1    1    2    0  501 -0.11177607510E+01 -0.10872384247E+01 -0.11281240522E+02  0.11459090897E+02  0.12700000000E+01 0.  1.
<mgrwt>
<rscale>  0 0.20110635E+01</rscale>
<asrwt>0</asrwt>
<pdfrwt beam="1">0</pdfrwt>
<pdfrwt beam="2">0</pdfrwt>
<totfact> 0.40546916E+12</totfact>
</mgrwt>
</event>
<event>
 4    1  0.3324394E+006  0.2879328E+01  0.7546771E-02  0.2561746E+00
         22   -1    0    0    0    0  0.00000000000E+00  0.00000000000E+00  0.58558621956E+01  0.58558621956E+01  0.00000000000E+00 0. -1.
         22   -1    0    0    0    0 -0.00000000000E+00 -0.00000000000E+00 -0.15904777769E+01  0.15904777769E+01  0.00000000000E+00 0.  1.
          4    1    1    2  501    0 -0.25576210888E+01  0.36905611900E+00  0.89870490196E+00  0.30163220242E+01  0.12700000000E+01 0.  1.
         -4    1    1    2    0  501  0.25576210888E+01 -0.36905611900E+00  0.33666795167E+01  0.44300179482E+01  0.12700000000E+01 0. -1.
<mgrwt>
<rscale>  0 0.28793277E+01</rscale>
<asrwt>0</asrwt>
<pdfrwt beam="1">0</pdfrwt>
<pdfrwt beam="2">0</pdfrwt>
<totfact> 0.17711508E+12</totfact>
</mgrwt>
</event>
<event>
 4    1  0.3324394E+006  0.2411387E+01  0.7546771E-02  0.2748934E+00
         22   -1    0    0    0    0  0.00000000000E+00  0.00000000000E+00  0.28280096773E+01  0.28280096773E+01  0.00000000000E+00 0.  1.
         22   -1    0    0    0    0 -0.00000000000E+00 -0.00000000000E+00 -0.58780040558E+01  0.58780040558E+01  0.00000000000E+00 0. -1.
          4    1    1    2  501    0 -0.19399897652E+00  0.20406497045E+01 -0.50350364061E+01  0.55826855930E+01  0.12700000000E+01 0. -1.
         -4    1    1    2    0  501  0.19399897652E+00 -0.20406497045E+01  0.19850420276E+01  0.31233281401E+01  0.12700000000E+01 0.  1.
<mgrwt>
<rscale>  0 0.24113869E+01</rscale>
<asrwt>0</asrwt>
<pdfrwt beam="1">0</pdfrwt>
<pdfrwt beam="2">0</pdfrwt>
<totfact> 0.90487871E+11</totfact>
</mgrwt>
</event>
<event>
 4    1  0.3324394E+006  0.2176992E+01  0.7546771E-02  0.2870697E+00
         22   -1    0    0    0    0  0.00000000000E+00  0.00000000000E+00  0.54821581877E+02  0.54821581877E+02  0.00000000000E+00 0. -1.
         22   -1    0    0    0    0 -0.00000000000E+00 -0.00000000000E+00 -0.90364642852E-01  0.90364642852E-01  0.00000000000E+00 0.  1.
          4    1    1    2  501    0 -0.17043123928E+01  0.47086292021E+00  0.21650596324E+02  0.21759770536E+02  0.12700000000E+01 0. -1.
         -4    1    1    2    0  501  0.17043123928E+01 -0.47086292021E+00  0.33080620911E+02  0.33152175984E+02  0.12700000000E+01 0.  1.
<mgrwt>
<rscale>  0 0.21769916E+01</rscale>
<asrwt>0</asrwt>
<pdfrwt beam="1">0</pdfrwt>
<pdfrwt beam="2">0</pdfrwt>
<totfact> 0.27548194E+12</totfact>
</mgrwt>
</event>
<event>
 4    1  0.3324394E+006  0.2170587E+01  0.7546771E-02  0.2874375E+00
         22   -1    0    0    0    0  0.00000000000E+00  0.00000000000E+00  0.19176837663E+01  0.19176837663E+01  0.00000000000E+00 0.  1.
         22   -1    0    0    0    0 -0.00000000000E+00 -0.00000000000E+00 -0.38625213495E+01  0.38625213495E+01  0.00000000000E+00 0. -1.
          4    1    1    2  501    0  0.14040158066E+01 -0.10617376386E+01 -0.27159143500E+01  0.34767280531E+01  0.12700000000E+01 0. -1.
         -4    1    1    2    0  501 -0.14040158066E+01  0.10617376386E+01  0.77107676683E+00  0.23034770628E+01  0.12700000000E+01 0.  1.
<mgrwt>
<rscale>  0 0.21705868E+01</rscale>
<asrwt>0</asrwt>
<pdfrwt beam="1">0</pdfrwt>
<pdfrwt beam="2">0</pdfrwt>
<totfact> 0.23341957E+12</totfact>
</mgrwt>
</event>
<event>
 4    1  0.3324394E+006  0.2099762E+01  0.7546771E-02  0.2916494E+00
         22   -1    0    0    0    0  0.00000000000E+00  0.00000000000E+00  0.70023511890E+00  0.70023511890E+00  0.00000000000E+00 0. -1.
         22   -1    0    0    0    0 -0.00000000000E+00 -0.00000000000E+00 -0.97163098257E+01  0.97163098257E+01  0.00000000000E+00 0. -1.
          4    1    1    2  501    0  0.16620657106E+01  0.18340528883E+00 -0.75979539894E+01  0.78827599704E+01  0.12700000000E+01 0. -1.
         -4    1    1    2    0  501 -0.16620657106E+01 -0.18340528883E+00 -0.14181207174E+01  0.25337849742E+01  0.12700000000E+01 0. -1.
<mgrwt>
<rscale>  0 0.20997619E+01</rscale>
<asrwt>0</asrwt>
<pdfrwt beam="1">0</pdfrwt>
<pdfrwt beam="2">0</pdfrwt>
<totfact> 0.24649343E+12</totfact>
</mgrwt>
</event>
<event>
 4    1  0.3324394E+006  0.2556674E+01  0.7546771E-02  0.2684060E+00
         22   -1    0    0    0    0  0.00000000000E+00  0.00000000000E+00  0.46842366711E+02  0.46842366711E+02  0.00000000000E+00 0.  1.
         22   -1    0    0    0    0 -0.00000000000E+00 -0.00000000000E+00 -0.31681919329E+00  0.31681919329E+00  0.00000000000E+00 0. -1.
          4    1    1    2  501    0 -0.22162352187E+01 -0.10945811846E+00  0.56245711973E+01  0.61783801096E+01  0.12700000000E+01 0. -1.
         -4    1    1    2    0  501  0.22162352187E+01  0.10945811846E+00  0.40900976321E+02  0.40980805795E+02  0.12700000000E+01 0.  1.
<mgrwt>
<rscale>  0 0.25566735E+01</rscale>
<asrwt>0</asrwt>
<pdfrwt beam="1">0</pdfrwt>
<pdfrwt beam="2">0</pdfrwt>
<totfact> 0.83875200E+11</totfact>
</mgrwt>
</event>
<event>
 4    1  0.3324394E+006  0.2066962E+01  0.7546771E-02  0.2936946E+00
         22   -1    0    0    0    0  0.00000000000E+00  0.00000000000E+00  0.35976429606E+01  0.35976429606E+01  0.00000000000E+00 0.  1.
         22   -1    0    0    0    0 -0.00000000000E+00 -0.00000000000E+00 -0.28054679038E+01  0.28054679038E+01  0.00000000000E+00 0.  1.
          4    1    1    2  501    0 -0.19902139995E+00 -0.16185871289E+01 -0.20352114661E+01  0.29007618867E+01  0.12700000000E+01 0.  1.
         -4    1    1    2    0  501  0.19902139995E+00  0.16185871289E+01  0.28273865229E+01  0.35023489776E+01  0.12700000000E+01 0.  1.
<mgrwt>
<rscale>  0 0.20669625E+01</rscale>
<asrwt>0</asrwt>
<pdfrwt beam="1">0</pdfrwt>
<pdfrwt beam="2">0</pdfrwt>
<totfact> 0.16311332E+12</totfact>
</mgrwt>
</event>
<event>
 4    1  0.3324394E+006  0.2137318E+01  0.7546771E-02  0.2893824E+00
         22   -1    0    0    0    0  0.00000000000E+00  0.00000000000E+00  0.33765609960E+00  0.33765609960E+00  0.00000000000E+00 0.  1.
         22   -1    0    0    0    0 -0.00000000000E+00 -0.00000000000E+00 -0.20958191026E+02  0.20958191026E+02  0.00000000000E+00 0. -1.
          4    1    1    2  501    0 -0.17004408163E+01 -0.25244684633E+00 -0.16649849227E+02  0.16786470971E+02  0.12700000000E+01 0. -1.
         -4    1    1    2    0  501  0.17004408163E+01  0.25244684633E+00 -0.39706856993E+01  0.45093761545E+01  0.12700000000E+01 0.  1.
<mgrwt>
<rscale>  0 0.21373180E+01</rscale>
<asrwt>0</asrwt>
<pdfrwt beam="1">0</pdfrwt>
<pdfrwt beam="2">0</pdfrwt>
<totfact> 0.21839240E+12</totfact>
</mgrwt>
</event>
<event>
 4    1  0.3324394E+006  0.2172696E+01  0.7546771E-02  0.2873162E+00
         22   -1    0    0    0    0  0.00000000000E+00  0.00000000000E+00  0.56834495440E+00  0.56834495440E+00  0.00000000000E+00 0.  1.
         22   -1    0    0    0    0 -0.00000000000E+00 -0.00000000000E+00 -0.83185255206E+01  0.83185255206E+01  0.00000000000E+00 0. -1.
          4    1    1    2  501    0  0.15795905609E+01  0.78268875312E+00 -0.37018805339E+01  0.42923801686E+01  0.12700000000E+01 0.  1.
         -4    1    1    2    0  501 -0.15795905609E+01 -0.78268875312E+00 -0.40483000323E+01  0.45944903064E+01  0.12700000000E+01 0. -1.
<mgrwt>
<rscale>  0 0.21726960E+01</rscale>
<asrwt>0</asrwt>
<pdfrwt beam="1">0</pdfrwt>
<pdfrwt beam="2">0</pdfrwt>
<totfact> 0.37661106E+12</totfact>
</mgrwt>
</event>
<event>
 4    1  0.3324394E+006  0.1010767E+02  0.7546771E-02  0.1774326E+00
         22   -1    0    0    0    0  0.00000000000E+00  0.00000000000E+00  0.61761006842E+01  0.61761006842E+01  0.00000000000E+00 0. -1.
         22   -1    0    0    0    0 -0.00000000000E+00 -0.00000000000E+00 -0.16549877033E+02  0.16549877033E+02  0.00000000000E+00 0.  1.
          4    1    1    2  501    0  0.20980832701E+01  0.98056187712E+01 -0.54349018481E+01  0.11476200198E+02  0.12700000000E+01 0.  1.
         -4    1    1    2    0  501 -0.20980832701E+01 -0.98056187712E+01 -0.49388745010E+01  0.11249777519E+02  0.12700000000E+01 0. -1.
<mgrwt>
<rscale>  0 0.10107671E+02</rscale>
<asrwt>0</asrwt>
<pdfrwt beam="1">0</pdfrwt>
<pdfrwt beam="2">0</pdfrwt>
<totfact> 0.10289050E+11</totfact>
</mgrwt>
</event>
<event>
 4    1  0.3324394E+006  0.2096838E+01  0.7546771E-02  0.2918292E+00
         22   -1    0    0    0    0  0.00000000000E+00  0.00000000000E+00  0.19233769149E+00  0.19233769149E+00  0.00000000000E+00 0.  1.
         22   -1    0    0    0    0 -0.00000000000E+00 -0.00000000000E+00 -0.29251378699E+02  0.29251378699E+02  0.00000000000E+00 0.  1.
          4    1    1    2  501    0 -0.16494699741E+01 -0.25115197651E+00 -0.76476521192E+01  0.79298998384E+01  0.12700000000E+01 0.  1.
         -4    1    1    2    0  501  0.16494699741E+01  0.25115197651E+00 -0.21411388889E+02  0.21513816552E+02  0.12700000000E+01 0.  1.
<mgrwt>
<rscale>  0 0.20968377E+01</rscale>
<asrwt>0</asrwt>
<pdfrwt beam="1">0</pdfrwt>
<pdfrwt beam="2">0</pdfrwt>
<totfact> 0.26924292E+12</totfact>
</mgrwt>
</event>
<event>
 4    1  0.3324394E+006  0.3278992E+01  0.7546771E-02  0.2440747E+00
         22   -1    0    0    0    0  0.00000000000E+00  0.00000000000E+00  0.29390069562E+02  0.29390069562E+02  0.00000000000E+00 0. -1.
         22   -1    0    0    0    0 -0.00000000000E+00 -0.00000000000E+00 -0.36812777310E+00  0.36812777310E+00  0.00000000000E+00 0. -1.
          4    1    1    2  501    0 -0.17572604303E+01  0.24598623002E+01  0.15686340015E+02  0.16025387666E+02  0.12700000000E+01 0. -1.
         -4    1    1    2    0  501  0.17572604303E+01 -0.24598623002E+01  0.13335601773E+02  0.13732809669E+02  0.12700000000E+01 0. -1.
<mgrwt>
<rscale>  0 0.32789917E+01</rscale>
<asrwt>0</asrwt>
<pdfrwt beam="1">0</pdfrwt>
<pdfrwt beam="2">0</pdfrwt>
<totfact> 0.12939957E+12</totfact>
</mgrwt>
</event>
<event>
 4    1  0.3324394E+006  0.3458016E+01  0.7546771E-02  0.2394656E+00
         22   -1    0    0    0    0  0.00000000000E+00  0.00000000000E+00  0.64869323622E+01  0.64869323622E+01  0.00000000000E+00 0. -1.
         22   -1    0    0    0    0 -0.00000000000E+00 -0.00000000000E+00 -0.18641830405E+01  0.18641830405E+01  0.00000000000E+00 0.  1.
          4    1    1    2  501    0 -0.32072895853E+01  0.24139017458E+00  0.27524804487E+01  0.44197312498E+01  0.12700000000E+01 0. -1.
         -4    1    1    2    0  501  0.32072895853E+01 -0.24139017458E+00  0.18702688730E+01  0.39313841529E+01  0.12700000000E+01 0.  1.
<mgrwt>
<rscale>  0 0.34580162E+01</rscale>
<asrwt>0</asrwt>
<pdfrwt beam="1">0</pdfrwt>
<pdfrwt beam="2">0</pdfrwt>
<totfact> 0.13053741E+12</totfact>
</mgrwt>
</event>
<event>
 4    1  0.3324394E+006  0.4330709E+01  0.7546771E-02  0.2218210E+00
         22   -1    0    0    0    0  0.00000000000E+00  0.00000000000E+00  0.11094799027E+02  0.11094799027E+02  0.00000000000E+00 0.  1.
         22   -1    0    0    0    0 -0.00000000000E+00 -0.00000000000E+00 -0.85417904376E+01  0.85417904376E+01  0.00000000000E+00 0. -1.
          4    1    1    2  501    0 -0.33829726422E+01  0.23869721516E+01 -0.75167543659E+01  0.86750582793E+01  0.12700000000E+01 0. -1.
         -4    1    1    2    0  501  0.33829726422E+01 -0.23869721516E+01  0.10069762956E+02  0.10961531186E+02  0.12700000000E+01 0.  1.
<mgrwt>
<rscale>  0 0.43307089E+01</rscale>
<asrwt>0</asrwt>
<pdfrwt beam="1">0</pdfrwt>
<pdfrwt beam="2">0</pdfrwt>
<totfact> 0.11390470E+11</totfact>
</mgrwt>
</event>
<event>
 4    1  0.3324394E+006  0.2501333E+01  0.7546771E-02  0.2707943E+00
         22   -1    0    0    0    0  0.00000000000E+00  0.00000000000E+00  0.29591579080E+02  0.29591579080E+02  0.00000000000E+00 0. -1.
         22   -1    0    0    0    0 -0.00000000000E+00 -0.00000000000E+00 -0.21200781753E+00  0.21200781753E+00  0.00000000000E+00 0.  1.
          4    1    1    2  501    0  0.16141247957E+01  0.14277136619E+01  0.15465067123E+02  0.15666045011E+02  0.12700000000E+01 0. -1.
         -4    1    1    2    0  501 -0.16141247957E+01 -0.14277136619E+01  0.13914504139E+02  0.14137541886E+02  0.12700000000E+01 0.  1.
<mgrwt>
<rscale>  0 0.25013327E+01</rscale>
<asrwt>0</asrwt>
<pdfrwt beam="1">0</pdfrwt>
<pdfrwt beam="2">0</pdfrwt>
<totfact> 0.23801526E+12</totfact>
</mgrwt>
</event>
<event>
 4    1  0.3324394E+006  0.6070733E+01  0.7546771E-02  0.2013402E+00
         22   -1    0    0    0    0  0.00000000000E+00  0.00000000000E+00  0.36004460462E+02  0.36004460462E+02  0.00000000000E+00 0. -1.
         22   -1    0    0    0    0 -0.00000000000E+00 -0.00000000000E+00 -0.29985012463E+01  0.29985012463E+01  0.00000000000E+00 0.  1.
          4    1    1    2  501    0  0.59179178720E+01  0.46813157392E+00  0.67631913204E+00  0.61082899962E+01  0.12700000000E+01 0.  1.
         -4    1    1    2    0  501 -0.59179178720E+01 -0.46813157392E+00  0.32329640084E+02  0.32894671712E+02  0.12700000000E+01 0. -1.
<mgrwt>
<rscale>  0 0.60707330E+01</rscale>
<asrwt>0</asrwt>
<pdfrwt beam="1">0</pdfrwt>
<pdfrwt beam="2">0</pdfrwt>
<totfact> 0.90555959E+10</totfact>
</mgrwt>
</event>
<event>
 4    1  0.3324394E+006  0.2809170E+01  0.7546771E-02  0.2586156E+00
         22   -1    0    0    0    0  0.00000000000E+00  0.00000000000E+00  0.16447877706E+00  0.16447877706E+00  0.00000000000E+00 0.  1.
         22   -1    0    0    0    0 -0.00000000000E+00 -0.00000000000E+00 -0.77780610952E+02  0.77780610952E+02  0.00000000000E+00 0. -1.
          4    1    1    2  501    0  0.96962873060E-01 -0.25038233742E+01 -0.62931944078E+02  0.62994611029E+02  0.12700000000E+01 0. -1.
         -4    1    1    2    0  501 -0.96962873060E-01  0.25038233742E+01 -0.14684188097E+02  0.14950478700E+02  0.12700000000E+01 0.  1.
<mgrwt>
<rscale>  0 0.28091695E+01</rscale>
<asrwt>0</asrwt>
<pdfrwt beam="1">0</pdfrwt>
<pdfrwt beam="2">0</pdfrwt>
<totfact> 0.88446428E+11</totfact>
</mgrwt>
</event>
<event>
 4    1  0.3324394E+006  0.4453897E+01  0.7546771E-02  0.2198109E+00
         22   -1    0    0    0    0  0.00000000000E+00  0.00000000000E+00  0.43876115344E+01  0.43876115344E+01  0.00000000000E+00 0. -1.
         22   -1    0    0    0    0 -0.00000000000E+00 -0.00000000000E+00 -0.64252954696E+01  0.64252954696E+01  0.00000000000E+00 0.  1.
          4    1    1    2  501    0 -0.24311863553E+01 -0.35090783496E+01 -0.39619901847E+01  0.59610874999E+01  0.12700000000E+01 0. -1.
         -4    1    1    2    0  501  0.24311863553E+01  0.35090783496E+01  0.19243062496E+01  0.48518195041E+01  0.12700000000E+01 0.  1.
<mgrwt>
<rscale>  0 0.44538969E+01</rscale>
<asrwt>0</asrwt>
<pdfrwt beam="1">0</pdfrwt>
<pdfrwt beam="2">0</pdfrwt>
<totfact> 0.48619866E+11</totfact>
</mgrwt>
</event>
<event>
 4    1  0.3324394E+006  0.3665829E+01  0.7546771E-02  0.2346118E+00
         22   -1    0    0    0    0  0.00000000000E+00  0.00000000000E+00  0.19366973115E+02  0.19366973115E+02  0.00000000000E+00 0. -1.
         22   -1    0    0    0    0 -0.00000000000E+00 -0.00000000000E+00 -0.14274315512E+01  0.14274315512E+01  0.00000000000E+00 0.  1.
          4    1    1    2  501    0 -0.18746388979E+01  0.28829030200E+01  0.15163609438E+01  0.39670708756E+01  0.12700000000E+01 0.  1.
         -4    1    1    2    0  501  0.18746388979E+01 -0.28829030200E+01  0.16423180620E+02  0.16827333791E+02  0.12700000000E+01 0. -1.
<mgrwt>
<rscale>  0 0.36658288E+01</rscale>
<asrwt>0</asrwt>
<pdfrwt beam="1">0</pdfrwt>
<pdfrwt beam="2">0</pdfrwt>
<totfact> 0.46903512E+11</totfact>
</mgrwt>
</event>
<event>
 4    1  0.3324394E+006  0.2028052E+01  0.7546771E-02  0.2962043E+00
         22   -1    0    0    0    0  0.00000000000E+00  0.00000000000E+00  0.48555943217E+01  0.48555943217E+01  0.00000000000E+00 0. -1.
         22   -1    0    0    0    0 -0.00000000000E+00 -0.00000000000E+00 -0.10405584255E+01  0.10405584255E+01  0.00000000000E+00 0. -1.
          4    1    1    2  501    0 -0.26203230501E+00 -0.15593061247E+01  0.63624053275E+00  0.21255113584E+01  0.12700000000E+01 0. -1.
         -4    1    1    2    0  501  0.26203230501E+00  0.15593061247E+01  0.31787953635E+01  0.37706413887E+01  0.12700000000E+01 0. -1.
<mgrwt>
<rscale>  0 0.20280524E+01</rscale>
<asrwt>0</asrwt>
<pdfrwt beam="1">0</pdfrwt>
<pdfrwt beam="2">0</pdfrwt>
<totfact> 0.35983732E+12</totfact>
</mgrwt>
</event>
<event>
 4    1  0.3324394E+006  0.2078463E+01  0.7546771E-02  0.2929704E+00
         22   -1    0    0    0    0  0.00000000000E+00  0.00000000000E+00  0.22258280268E+00  0.22258280268E+00  0.00000000000E+00 0. -1.
         22   -1    0    0    0    0 -0.00000000000E+00 -0.00000000000E+00 -0.19440585186E+02  0.19440585186E+02  0.00000000000E+00 0.  1.
          4    1    1    2  501    0  0.15936897559E+01  0.40897511636E+00 -0.10008151413E+02  0.10221697628E+02  0.12700000000E+01 0. -1.
         -4    1    1    2    0  501 -0.15936897559E+01 -0.40897511636E+00 -0.92098509697E+01  0.94414703605E+01  0.12700000000E+01 0.  1.
<mgrwt>
<rscale>  0 0.20784628E+01</rscale>
<asrwt>0</asrwt>
<pdfrwt beam="1">0</pdfrwt>
<pdfrwt beam="2">0</pdfrwt>
<totfact> 0.38251491E+12</totfact>
</mgrwt>
</event>
<event>
 4    1  0.3324394E+006  0.5464165E+01  0.7546771E-02  0.2071361E+00
         22   -1    0    0    0    0  0.00000000000E+00  0.00000000000E+00  0.25197663562E+00  0.25197663562E+00  0.00000000000E+00 0.  1.
         22   -1    0    0    0    0 -0.00000000000E+00 -0.00000000000E+00 -0.16718390563E+03  0.16718390563E+03  0.00000000000E+00 0. -1.
          4    1    1    2  501    0 -0.61269030950E+00 -0.52790918616E+01 -0.12864653710E+03  0.12876252797E+03  0.12700000000E+01 0.  1.
         -4    1    1    2    0  501  0.61269030950E+00  0.52790918616E+01 -0.38285391892E+02  0.38673354297E+02  0.12700000000E+01 0. -1.
<mgrwt>
<rscale>  0 0.54641651E+01</rscale>
<asrwt>0</asrwt>
<pdfrwt beam="1">0</pdfrwt>
<pdfrwt beam="2">0</pdfrwt>
<totfact> 0.18345437E+11</totfact>
</mgrwt>
</event>
<event>
 4    1  0.3324394E+006  0.2196454E+01  0.7546771E-02  0.2859645E+00
         22   -1    0    0    0    0  0.00000000000E+00  0.00000000000E+00  0.10152847117E+02  0.10152847117E+02  0.00000000000E+00 0. -1.
         22   -1    0    0    0    0 -0.00000000000E+00 -0.00000000000E+00 -0.51362962509E+00  0.51362962509E+00  0.00000000000E+00 0. -1.
          4    1    1    2  501    0 -0.12101638835E+01 -0.13217467458E+01  0.33603830149E+01  0.40145466857E+01  0.12700000000E+01 0. -1.
         -4    1    1    2    0  501  0.12101638835E+01  0.13217467458E+01  0.62788344766E+01  0.66519300560E+01  0.12700000000E+01 0. -1.
<mgrwt>
<rscale>  0 0.21964542E+01</rscale>
<asrwt>0</asrwt>
<pdfrwt beam="1">0</pdfrwt>
<pdfrwt beam="2">0</pdfrwt>
<totfact> 0.33198620E+12</totfact>
</mgrwt>
</event>
<event>
 4    1  0.3324394E+006  0.2314360E+01  0.7546771E-02  0.2796498E+00
         22   -1    0    0    0    0  0.00000000000E+00  0.00000000000E+00  0.52714007512E+00  0.52714007512E+00  0.00000000000E+00 0.  1.
         22   -1    0    0    0    0 -0.00000000000E+00 -0.00000000000E+00 -0.10247278375E+02  0.10247278375E+02  0.00000000000E+00 0. -1.
          4    1    1    2  501    0 -0.18900029897E+01  0.41382326620E+00 -0.43656958765E+01  0.49412105281E+01  0.12700000000E+01 0.  1.
         -4    1    1    2    0  501  0.18900029897E+01 -0.41382326620E+00 -0.53544424235E+01  0.58332079222E+01  0.12700000000E+01 0. -1.
<mgrwt>
<rscale>  0 0.23143597E+01</rscale>
<asrwt>0</asrwt>
<pdfrwt beam="1">0</pdfrwt>
<pdfrwt beam="2">0</pdfrwt>
<totfact> 0.31879819E+12</totfact>
</mgrwt>
</event>
<event>
 4    1  0.3324394E+006  0.2037794E+01  0.7546771E-02  0.2955672E+00
         22   -1    0    0    0    0  0.00000000000E+00  0.00000000000E+00  0.93512211448E+00  0.93512211448E+00  0.00000000000E+00 0. -1.
         22   -1    0    0    0    0 -0.00000000000E+00 -0.00000000000E+00 -0.45775295556E+01  0.45775295556E+01  0.00000000000E+00 0.  1.
          4    1    1    2  501    0  0.76836221958E-01 -0.15917919507E+01 -0.22977337380E+01  0.30711863750E+01  0.12700000000E+01 0. -1.
         -4    1    1    2    0  501 -0.76836221958E-01  0.15917919507E+01 -0.13446737031E+01  0.24414652951E+01  0.12700000000E+01 0.  1.
<mgrwt>
<rscale>  0 0.20377943E+01</rscale>
<asrwt>0</asrwt>
<pdfrwt beam="1">0</pdfrwt>
<pdfrwt beam="2">0</pdfrwt>
<totfact> 0.43586662E+12</totfact>
</mgrwt>
</event>
<event>
 4    1  0.3324394E+006  0.3341718E+01  0.7546771E-02  0.2424105E+00
         22   -1    0    0    0    0  0.00000000000E+00  0.00000000000E+00  0.12735443005E+02  0.12735443005E+02  0.00000000000E+00 0.  1.
         22   -1    0    0    0    0 -0.00000000000E+00 -0.00000000000E+00 -0.81434655529E+01  0.81434655529E+01  0.00000000000E+00 0. -1.
          4    1    1    2  501    0 -0.28279688020E+01  0.12477062617E+01 -0.75654264724E+01  0.82705958776E+01  0.12700000000E+01 0. -1.
         -4    1    1    2    0  501  0.28279688020E+01 -0.12477062617E+01  0.12157403925E+02  0.12608312680E+02  0.12700000000E+01 0.  1.
<mgrwt>
<rscale>  0 0.33417179E+01</rscale>
<asrwt>0</asrwt>
<pdfrwt beam="1">0</pdfrwt>
<pdfrwt beam="2">0</pdfrwt>
<totfact> 0.10197353E+11</totfact>
</mgrwt>
</event>
<event>
 4    1  0.3324394E+006  0.3768703E+01  0.7546771E-02  0.2323815E+00
         22   -1    0    0    0    0  0.00000000000E+00  0.00000000000E+00  0.30500461031E+00  0.30500461031E+00  0.00000000000E+00 0.  1.
         22   -1    0    0    0    0 -0.00000000000E+00 -0.00000000000E+00 -0.51204619791E+02  0.51204619791E+02  0.00000000000E+00 0. -1.
          4    1    1    2  501    0  0.24330333755E+01  0.25827443317E+01 -0.33200776417E+02  0.33413989202E+02  0.12700000000E+01 0. -1.
         -4    1    1    2    0  501 -0.24330333755E+01 -0.25827443317E+01 -0.17698838764E+02  0.18095635200E+02  0.12700000000E+01 0.  1.
<mgrwt>
<rscale>  0 0.37687027E+01</rscale>
<asrwt>0</asrwt>
<pdfrwt beam="1">0</pdfrwt>
<pdfrwt beam="2">0</pdfrwt>
<totfact> 0.77846372E+11</totfact>
</mgrwt>
</event>
<event>
 4    1  0.3324394E+006  0.2026956E+01  0.7546771E-02  0.2962764E+00
         22   -1    0    0    0    0  0.00000000000E+00  0.00000000000E+00  0.50610172625E+01  0.50610172625E+01  0.00000000000E+00 0.  1.
         22   -1    0    0    0    0 -0.00000000000E+00 -0.00000000000E+00 -0.82975471700E+00  0.82975471700E+00  0.00000000000E+00 0. -1.
          4    1    1    2  501    0 -0.89066232864E+00 -0.13047494837E+01  0.25488592740E+01  0.32565678555E+01  0.12700000000E+01 0. -1.
         -4    1    1    2    0  501  0.89066232864E+00  0.13047494837E+01  0.16824032714E+01  0.26342041239E+01  0.12700000000E+01 0. -1.
<mgrwt>
<rscale>  0 0.20269560E+01</rscale>
<asrwt>0</asrwt>
<pdfrwt beam="1">0</pdfrwt>
<pdfrwt beam="2">0</pdfrwt>
<totfact> 0.44354307E+12</totfact>
</mgrwt>
</event>
<event>
 4    1  0.3324394E+006  0.3361524E+01  0.7546771E-02  0.2418963E+00
         22   -1    0    0    0    0  0.00000000000E+00  0.00000000000E+00  0.37497629610E+02  0.37497629610E+02  0.00000000000E+00 0.  1.
         22   -1    0    0    0    0 -0.00000000000E+00 -0.00000000000E+00 -0.98161215316E+00  0.98161215316E+00  0.00000000000E+00 0.  1.
          4    1    1    2  501    0  0.26678173090E+01 -0.16030269183E+01  0.22415955162E+01  0.40403706455E+01  0.12700000000E+01 0.  1.
         -4    1    1    2    0  501 -0.26678173090E+01  0.16030269183E+01  0.34274421941E+02  0.34438871118E+02  0.12700000000E+01 0.  1.
<mgrwt>
<rscale>  0 0.33615241E+01</rscale>
<asrwt>0</asrwt>
<pdfrwt beam="1">0</pdfrwt>
<pdfrwt beam="2">0</pdfrwt>
<totfact> 0.31177873E+11</totfact>
</mgrwt>
</event>
<event>
 4    1  0.3324394E+006  0.3512230E+01  0.7546771E-02  0.2381512E+00
         22   -1    0    0    0    0  0.00000000000E+00  0.00000000000E+00  0.11079053685E+02  0.11079053685E+02  0.00000000000E+00 0. -1.
         22   -1    0    0    0    0 -0.00000000000E+00 -0.00000000000E+00 -0.53380146270E+01  0.53380146270E+01  0.00000000000E+00 0. -1.
          4    1    1    2  501    0  0.25407059565E+01 -0.20658341464E+01 -0.44319155699E+01  0.56548769302E+01  0.12700000000E+01 0. -1.
         -4    1    1    2    0  501 -0.25407059565E+01  0.20658341464E+01  0.10172954628E+02  0.10762191382E+02  0.12700000000E+01 0. -1.
<mgrwt>
<rscale>  0 0.35122297E+01</rscale>
<asrwt>0</asrwt>
<pdfrwt beam="1">0</pdfrwt>
<pdfrwt beam="2">0</pdfrwt>
<totfact> 0.20010257E+11</totfact>
</mgrwt>
</event>
<event>
 4    1  0.3324394E+006  0.3832600E+01  0.7546771E-02  0.2310483E+00
         22   -1    0    0    0    0  0.00000000000E+00  0.00000000000E+00  0.29133565628E+02  0.29133565628E+02  0.00000000000E+00 0.  1.
         22   -1    0    0    0    0 -0.00000000000E+00 -0.00000000000E+00 -0.11675907152E+01  0.11675907152E+01  0.00000000000E+00 0. -1.
          4    1    1    2  501    0  0.33672280325E+01 -0.13182175738E+01  0.25628272121E+01  0.46105211759E+01  0.12700000000E+01 0. -1.
         -4    1    1    2    0  501 -0.33672280325E+01  0.13182175738E+01  0.25403147701E+02  0.25690635167E+02  0.12700000000E+01 0.  1.
<mgrwt>
<rscale>  0 0.38325999E+01</rscale>
<asrwt>0</asrwt>
<pdfrwt beam="1">0</pdfrwt>
<pdfrwt beam="2">0</pdfrwt>
<totfact> 0.35335767E+11</totfact>
</mgrwt>
</event>
<event>
 4    1  0.3324394E+006  0.2301271E+01  0.7546771E-02  0.2803204E+00
         22   -1    0    0    0    0  0.00000000000E+00  0.00000000000E+00  0.94966958287E+01  0.94966958287E+01  0.00000000000E+00 0. -1.
         22   -1    0    0    0    0 -0.00000000000E+00 -0.00000000000E+00 -0.60717630299E+00  0.60717630299E+00  0.00000000000E+00 0. -1.
          4    1    1    2  501    0  0.19190286098E+01  0.16680083225E-01  0.30019444949E+01  0.37825282260E+01  0.12700000000E+01 0. -1.
         -4    1    1    2    0  501 -0.19190286098E+01 -0.16680083225E-01  0.58875750308E+01  0.63213439056E+01  0.12700000000E+01 0. -1.
<mgrwt>
<rscale>  0 0.23012712E+01</rscale>
<asrwt>0</asrwt>
<pdfrwt beam="1">0</pdfrwt>
<pdfrwt beam="2">0</pdfrwt>
<totfact> 0.29788376E+12</totfact>
</mgrwt>
</event>
<event>
 4    1  0.3324394E+006  0.2154697E+01  0.7546771E-02  0.2883593E+00
         22   -1    0    0    0    0  0.00000000000E+00  0.00000000000E+00  0.34052380331E+00  0.34052380331E+00  0.00000000000E+00 0. -1.
         22   -1    0    0    0    0 -0.00000000000E+00 -0.00000000000E+00 -0.25729962230E+02  0.25729962230E+02  0.00000000000E+00 0. -1.
          4    1    1    2  501    0 -0.11766531650E+01  0.12826945120E+01 -0.21632277910E+02  0.21739323022E+02  0.12700000000E+01 0. -1.
         -4    1    1    2    0  501  0.11766531650E+01 -0.12826945120E+01 -0.37571605166E+01  0.43311630112E+01  0.12700000000E+01 0. -1.
<mgrwt>
<rscale>  0 0.21546967E+01</rscale>
<asrwt>0</asrwt>
<pdfrwt beam="1">0</pdfrwt>
<pdfrwt beam="2">0</pdfrwt>
<totfact> 0.16717808E+12</totfact>
</mgrwt>
</event>
<event>
 4    1  0.3324394E+006  0.2399009E+01  0.7546771E-02  0.2754800E+00
         22   -1    0    0    0    0  0.00000000000E+00  0.00000000000E+00  0.33508268107E+00  0.33508268107E+00  0.00000000000E+00 0.  1.
         22   -1    0    0    0    0 -0.00000000000E+00 -0.00000000000E+00 -0.17263155673E+02  0.17263155673E+02  0.00000000000E+00 0.  1.
          4    1    1    2  501    0  0.12096342848E+01  0.16368051311E+01 -0.78373924276E+01  0.81963385852E+01  0.12700000000E+01 0.  1.
         -4    1    1    2    0  501 -0.12096342848E+01 -0.16368051311E+01 -0.90906805642E+01  0.94018997687E+01  0.12700000000E+01 0.  1.
<mgrwt>
<rscale>  0 0.23990094E+01</rscale>
<asrwt>0</asrwt>
<pdfrwt beam="1">0</pdfrwt>
<pdfrwt beam="2">0</pdfrwt>
<totfact> 0.28039947E+12</totfact>
</mgrwt>
</event>
<event>
 4    1  0.3324394E+006  0.2374110E+01  0.7546771E-02  0.2766775E+00
         22   -1    0    0    0    0  0.00000000000E+00  0.00000000000E+00  0.26626563454E+01  0.26626563454E+01  0.00000000000E+00 0. -1.
         22   -1    0    0    0    0 -0.00000000000E+00 -0.00000000000E+00 -0.21958791276E+01  0.21958791276E+01  0.00000000000E+00 0.  1.
          4    1    1    2  501    0 -0.17113180323E+01  0.10463683539E+01 -0.22751937556E+00  0.23849866259E+01  0.12700000000E+01 0. -1.
         -4    1    1    2    0  501  0.17113180323E+01 -0.10463683539E+01  0.69429659334E+00  0.24735488471E+01  0.12700000000E+01 0. -1.
<mgrwt>
<rscale>  0 0.23741095E+01</rscale>
<asrwt>0</asrwt>
<pdfrwt beam="1">0</pdfrwt>
<pdfrwt beam="2">0</pdfrwt>
<totfact> 0.30836473E+12</totfact>
</mgrwt>
</event>
<event>
 4    1  0.3324394E+006  0.2229108E+01  0.7546771E-02  0.2841519E+00
         22   -1    0    0    0    0  0.00000000000E+00  0.00000000000E+00  0.27229230872E+02  0.27229230872E+02  0.00000000000E+00 0. -1.
         22   -1    0    0    0    0 -0.00000000000E+00 -0.00000000000E+00 -0.24320021373E+00  0.24320021373E+00  0.00000000000E+00 0. -1.
          4    1    1    2  501    0 -0.16182009507E+01 -0.85874676514E+00  0.66296888808E+01  0.69944045479E+01  0.12700000000E+01 0. -1.
         -4    1    1    2    0  501  0.16182009507E+01  0.85874676514E+00  0.20356341777E+02  0.20478026538E+02  0.12700000000E+01 0. -1.
<mgrwt>
<rscale>  0 0.22291075E+01</rscale>
<asrwt>0</asrwt>
<pdfrwt beam="1">0</pdfrwt>
<pdfrwt beam="2">0</pdfrwt>
<totfact> 0.22692647E+12</totfact>
</mgrwt>
</event>
<event>
 4    1  0.3324394E+006  0.3172792E+01  0.7546771E-02  0.2470244E+00
         22   -1    0    0    0    0  0.00000000000E+00  0.00000000000E+00  0.90826845249E+01  0.90826845249E+01  0.00000000000E+00 0. -1.
         22   -1    0    0    0    0 -0.00000000000E+00 -0.00000000000E+00 -0.45126302891E+01  0.45126302891E+01  0.00000000000E+00 0.  1.
          4    1    1    2  501    0  0.58008783352E+00 -0.28490713960E+01 -0.36191359110E+01  0.48129777120E+01  0.12700000000E+01 0.  1.
         -4    1    1    2    0  501 -0.58008783352E+00  0.28490713960E+01  0.81891901468E+01  0.87823371021E+01  0.12700000000E+01 0. -1.
<mgrwt>
<rscale>  0 0.31727921E+01</rscale>
<asrwt>0</asrwt>
<pdfrwt beam="1">0</pdfrwt>
<pdfrwt beam="2">0</pdfrwt>
<totfact> 0.31051332E+11</totfact>
</mgrwt>
</event>
<event>
 4    1  0.3324394E+006  0.2697888E+01  0.7546771E-02  0.2627233E+00
         22   -1    0    0    0    0  0.00000000000E+00  0.00000000000E+00  0.16138010670E+01  0.16138010670E+01  0.00000000000E+00 0. -1.
         22   -1    0    0    0    0 -0.00000000000E+00 -0.00000000000E+00 -0.48931604620E+01  0.48931604620E+01  0.00000000000E+00 0.  1.
          4    1    1    2  501    0 -0.11049703692E+01 -0.21082553589E+01 -0.72951848149E+00  0.27947803831E+01  0.12700000000E+01 0.  1.
         -4    1    1    2    0  501  0.11049703692E+01  0.21082553589E+01 -0.25498409135E+01  0.37121811458E+01  0.12700000000E+01 0. -1.
<mgrwt>
<rscale>  0 0.26978881E+01</rscale>
<asrwt>0</asrwt>
<pdfrwt beam="1">0</pdfrwt>
<pdfrwt beam="2">0</pdfrwt>
<totfact> 0.21552912E+12</totfact>
</mgrwt>
</event>
<event>
 4    1  0.3324394E+006  0.2127948E+01  0.7546771E-02  0.2899408E+00
         22   -1    0    0    0    0  0.00000000000E+00  0.00000000000E+00  0.47046508939E+01  0.47046508939E+01  0.00000000000E+00 0.  1.
         22   -1    0    0    0    0 -0.00000000000E+00 -0.00000000000E+00 -0.99135377425E+00  0.99135377425E+00  0.00000000000E+00 0. -1.
          4    1    1    2  501    0  0.66295315598E+00 -0.15734531835E+01  0.13706547248E+01  0.25311768374E+01  0.12700000000E+01 0. -1.
         -4    1    1    2    0  501 -0.66295315598E+00  0.15734531835E+01  0.23426423949E+01  0.31648278308E+01  0.12700000000E+01 0. -1.
<mgrwt>
<rscale>  0 0.21279478E+01</rscale>
<asrwt>0</asrwt>
<pdfrwt beam="1">0</pdfrwt>
<pdfrwt beam="2">0</pdfrwt>
<totfact> 0.39479178E+12</totfact>
</mgrwt>
</event>
<event>
 4    1  0.3324394E+006  0.2528733E+01  0.7546771E-02  0.2695997E+00
         22   -1    0    0    0    0  0.00000000000E+00  0.00000000000E+00  0.78716480553E+01  0.78716480553E+01  0.00000000000E+00 0.  1.
         22   -1    0    0    0    0 -0.00000000000E+00 -0.00000000000E+00 -0.11640453773E+01  0.11640453773E+01  0.00000000000E+00 0.  1.
          4    1    1    2  501    0  0.53956599695E+00  0.21190704739E+01  0.87047855300E+00  0.26743642328E+01  0.12700000000E+01 0.  1.
         -4    1    1    2    0  501 -0.53956599695E+00 -0.21190704739E+01  0.58371241250E+01  0.63613291999E+01  0.12700000000E+01 0.  1.
<mgrwt>
<rscale>  0 0.25287331E+01</rscale>
<asrwt>0</asrwt>
<pdfrwt beam="1">0</pdfrwt>
<pdfrwt beam="2">0</pdfrwt>
<totfact> 0.17799259E+12</totfact>
</mgrwt>
</event>
<event>
 4    1  0.3324394E+006  0.2674468E+01  0.7546771E-02  0.2636276E+00
         22   -1    0    0    0    0  0.00000000000E+00  0.00000000000E+00  0.75929699141E+02  0.75929699141E+02  0.00000000000E+00 0.  1.
         22   -1    0    0    0    0 -0.00000000000E+00 -0.00000000000E+00 -0.10201986817E+00  0.10201986817E+00  0.00000000000E+00 0. -1.
          4    1    1    2  501    0 -0.61668367872E+00  0.22714711329E+01  0.27390630841E+02  0.27520890933E+02  0.12700000000E+01 0.  1.
         -4    1    1    2    0  501  0.61668367872E+00 -0.22714711329E+01  0.48437048432E+02  0.48510828076E+02  0.12700000000E+01 0. -1.
<mgrwt>
<rscale>  0 0.26744681E+01</rscale>
<asrwt>0</asrwt>
<pdfrwt beam="1">0</pdfrwt>
<pdfrwt beam="2">0</pdfrwt>
<totfact> 0.15532891E+12</totfact>
</mgrwt>
</event>
<event>
 4    1  0.3324394E+006  0.2043667E+01  0.7546771E-02  0.2951860E+00
         22   -1    0    0    0    0  0.00000000000E+00  0.00000000000E+00  0.96346369326E+00  0.96346369326E+00  0.00000000000E+00 0. -1.
         22   -1    0    0    0    0 -0.00000000000E+00 -0.00000000000E+00 -0.54598218716E+01  0.54598218716E+01  0.00000000000E+00 0.  1.
          4    1    1    2  501    0  0.15104611439E+01 -0.53120617378E+00 -0.79041133948E+00  0.21911921303E+01  0.12700000000E+01 0. -1.
         -4    1    1    2    0  501 -0.15104611439E+01  0.53120617378E+00 -0.37059468389E+01  0.42320934346E+01  0.12700000000E+01 0.  1.
<mgrwt>
<rscale>  0 0.20436665E+01</rscale>
<asrwt>0</asrwt>
<pdfrwt beam="1">0</pdfrwt>
<pdfrwt beam="2">0</pdfrwt>
<totfact> 0.34192158E+12</totfact>
</mgrwt>
</event>
<event>
 4    1  0.3324394E+006  0.2269917E+01  0.7546771E-02  0.2819566E+00
         22   -1    0    0    0    0  0.00000000000E+00  0.00000000000E+00  0.23763047578E+00  0.23763047578E+00  0.00000000000E+00 0.  1.
         22   -1    0    0    0    0 -0.00000000000E+00 -0.00000000000E+00 -0.36740298407E+02  0.36740298407E+02  0.00000000000E+00 0. -1.
          4    1    1    2  501    0 -0.14550884672E+01  0.11926196566E+01 -0.30087630557E+02  0.30173134352E+02  0.12700000000E+01 0. -1.
         -4    1    1    2    0  501  0.14550884672E+01 -0.11926196566E+01 -0.64150373744E+01  0.68047945309E+01  0.12700000000E+01 0.  1.
<mgrwt>
<rscale>  0 0.22699172E+01</rscale>
<asrwt>0</asrwt>
<pdfrwt beam="1">0</pdfrwt>
<pdfrwt beam="2">0</pdfrwt>
<totfact> 0.15877519E+12</totfact>
</mgrwt>
</event>
<event>
 4    1  0.3324394E+006  0.2524830E+01  0.7546771E-02  0.2697683E+00
         22   -1    0    0    0    0  0.00000000000E+00  0.00000000000E+00  0.11920144375E+00  0.11920144375E+00  0.00000000000E+00 0. -1.
         22   -1    0    0    0    0 -0.00000000000E+00 -0.00000000000E+00 -0.83778087702E+02  0.83778087702E+02  0.00000000000E+00 0.  1.
          4    1    1    2  501    0  0.20309463435E+01  0.79820154549E+00 -0.67056570682E+02  0.67104086614E+02  0.12700000000E+01 0.  1.
         -4    1    1    2    0  501 -0.20309463435E+01 -0.79820154549E+00 -0.16602315577E+02  0.16793202532E+02  0.12700000000E+01 0. -1.
<mgrwt>
<rscale>  0 0.25248304E+01</rscale>
<asrwt>0</asrwt>
<pdfrwt beam="1">0</pdfrwt>
<pdfrwt beam="2">0</pdfrwt>
<totfact> 0.11419379E+12</totfact>
</mgrwt>
</event>
<event>
 4    1  0.3324394E+006  0.2624187E+01  0.7546771E-02  0.2656189E+00
         22   -1    0    0    0    0  0.00000000000E+00  0.00000000000E+00  0.23048841001E+01  0.23048841001E+01  0.00000000000E+00 0.  1.
         22   -1    0    0    0    0 -0.00000000000E+00 -0.00000000000E+00 -0.31458236265E+01  0.31458236265E+01  0.00000000000E+00 0. -1.
          4    1    1    2  501    0 -0.17474838089E+01 -0.14898857302E+01 -0.10314401744E+01  0.28196148646E+01  0.12700000000E+01 0. -1.
         -4    1    1    2    0  501  0.17474838089E+01  0.14898857302E+01  0.19050064808E+00  0.26310928620E+01  0.12700000000E+01 0.  1.
<mgrwt>
<rscale>  0 0.26241873E+01</rscale>
<asrwt>0</asrwt>
<pdfrwt beam="1">0</pdfrwt>
<pdfrwt beam="2">0</pdfrwt>
<totfact> 0.23995507E+12</totfact>
</mgrwt>
</event>
<event>
 4    1  0.3324394E+006  0.2214579E+01  0.7546771E-02  0.2849521E+00
         22   -1    0    0    0    0  0.00000000000E+00  0.00000000000E+00  0.10009137370E+01  0.10009137370E+01  0.00000000000E+00 0. -1.
         22   -1    0    0    0    0 -0.00000000000E+00 -0.00000000000E+00 -0.52650477744E+01  0.52650477744E+01  0.00000000000E+00 0.  1.
          4    1    1    2  501    0 -0.15146078663E+01  0.99871133760E+00 -0.29571551537E+01  0.36944726183E+01  0.12700000000E+01 0.  1.
         -4    1    1    2    0  501  0.15146078663E+01 -0.99871133760E+00 -0.13069788838E+01  0.25714888931E+01  0.12700000000E+01 0. -1.
<mgrwt>
<rscale>  0 0.22145793E+01</rscale>
<asrwt>0</asrwt>
<pdfrwt beam="1">0</pdfrwt>
<pdfrwt beam="2">0</pdfrwt>
<totfact> 0.34178743E+12</totfact>
</mgrwt>
</event>
<event>
 4    1  0.3324394E+006  0.3595904E+01  0.7546771E-02  0.2361905E+00
         22   -1    0    0    0    0  0.00000000000E+00  0.00000000000E+00  0.44276140762E+01  0.44276140762E+01  0.00000000000E+00 0. -1.
         22   -1    0    0    0    0 -0.00000000000E+00 -0.00000000000E+00 -0.42598742012E+01  0.42598742012E+01  0.00000000000E+00 0.  1.
          4    1    1    2  501    0 -0.33568661087E+01 -0.22152873334E+00 -0.23518569975E+01  0.42967146040E+01  0.12700000000E+01 0.  1.
         -4    1    1    2    0  501  0.33568661087E+01  0.22152873334E+00  0.25195968724E+01  0.43907736734E+01  0.12700000000E+01 0. -1.
<mgrwt>
<rscale>  0 0.35959039E+01</rscale>
<asrwt>0</asrwt>
<pdfrwt beam="1">0</pdfrwt>
<pdfrwt beam="2">0</pdfrwt>
<totfact> 0.78305832E+11</totfact>
</mgrwt>
</event>
<event>
 4    1  0.3324394E+006  0.2441874E+01  0.7546771E-02  0.2734724E+00
         22   -1    0    0    0    0  0.00000000000E+00  0.00000000000E+00  0.48564739506E+00  0.48564739506E+00  0.00000000000E+00 0.  1.
         22   -1    0    0    0    0 -0.00000000000E+00 -0.00000000000E+00 -0.13298495493E+02  0.13298495493E+02  0.00000000000E+00 0.  1.
          4    1    1    2  501    0  0.11706875577E+01 -0.17260764475E+01 -0.83156923708E+01  0.86668038437E+01  0.12700000000E+01 0.  1.
         -4    1    1    2    0  501 -0.11706875577E+01  0.17260764475E+01 -0.44971557273E+01  0.51173390445E+01  0.12700000000E+01 0.  1.
<mgrwt>
<rscale>  0 0.24418741E+01</rscale>
<asrwt>0</asrwt>
<pdfrwt beam="1">0</pdfrwt>
<pdfrwt beam="2">0</pdfrwt>
<totfact> 0.25459965E+12</totfact>
</mgrwt>
</event>
<event>
 4    1  0.3324394E+006  0.2130440E+01  0.7546771E-02  0.2897918E+00
         22   -1    0    0    0    0  0.00000000000E+00  0.00000000000E+00  0.22830444773E+00  0.22830444773E+00  0.00000000000E+00 0. -1.
         22   -1    0    0    0    0 -0.00000000000E+00 -0.00000000000E+00 -0.21992161285E+02  0.21992161285E+02  0.00000000000E+00 0. -1.
          4    1    1    2  501    0 -0.57691575101E+00  0.16102923430E+01 -0.14324764612E+02  0.14482322134E+02  0.12700000000E+01 0. -1.
         -4    1    1    2    0  501  0.57691575101E+00 -0.16102923430E+01 -0.74390922262E+01  0.77381435993E+01  0.12700000000E+01 0. -1.
<mgrwt>
<rscale>  0 0.21304397E+01</rscale>
<asrwt>0</asrwt>
<pdfrwt beam="1">0</pdfrwt>
<pdfrwt beam="2">0</pdfrwt>
<totfact> 0.31874483E+12</totfact>
</mgrwt>
</event>
<event>
 4    1  0.3324394E+006  0.2189704E+01  0.7546771E-02  0.2863457E+00
         22   -1    0    0    0    0  0.00000000000E+00  0.00000000000E+00  0.53848738452E+00  0.53848738452E+00  0.00000000000E+00 0.  1.
         22   -1    0    0    0    0 -0.00000000000E+00 -0.00000000000E+00 -0.89058596821E+01  0.89058596821E+01  0.00000000000E+00 0. -1.
          4    1    1    2  501    0  0.20961384242E+00 -0.17714301514E+01 -0.42480282053E+01  0.47791784207E+01  0.12700000000E+01 0. -1.
         -4    1    1    2    0  501 -0.20961384242E+00  0.17714301514E+01 -0.41193440923E+01  0.46651686459E+01  0.12700000000E+01 0.  1.
<mgrwt>
<rscale>  0 0.21897038E+01</rscale>
<asrwt>0</asrwt>
<pdfrwt beam="1">0</pdfrwt>
<pdfrwt beam="2">0</pdfrwt>
<totfact> 0.36873409E+12</totfact>
</mgrwt>
</event>
<event>
 4    1  0.3324394E+006  0.2398548E+01  0.7546771E-02  0.2755020E+00
         22   -1    0    0    0    0  0.00000000000E+00  0.00000000000E+00  0.22599209143E+01  0.22599209143E+01  0.00000000000E+00 0.  1.
         22   -1    0    0    0    0 -0.00000000000E+00 -0.00000000000E+00 -0.46993850776E+01  0.46993850776E+01  0.00000000000E+00 0. -1.
          4    1    1    2  501    0  0.63304892497E+00  0.19337479587E+01 -0.35753708107E+01  0.43053813470E+01  0.12700000000E+01 0. -1.
         -4    1    1    2    0  501 -0.63304892497E+00 -0.19337479587E+01  0.11359066474E+01  0.26539246449E+01  0.12700000000E+01 0.  1.
<mgrwt>
<rscale>  0 0.23985479E+01</rscale>
<asrwt>0</asrwt>
<pdfrwt beam="1">0</pdfrwt>
<pdfrwt beam="2">0</pdfrwt>
<totfact> 0.15315837E+12</totfact>
</mgrwt>
</event>
<event>
 4    1  0.3324394E+006  0.2035509E+01  0.7546771E-02  0.2957161E+00
         22   -1    0    0    0    0  0.00000000000E+00  0.00000000000E+00  0.21887677726E+01  0.21887677726E+01  0.00000000000E+00 0. -1.
         22   -1    0    0    0    0 -0.00000000000E+00 -0.00000000000E+00 -0.32526754293E+01  0.32526754293E+01  0.00000000000E+00 0.  1.
          4    1    1    2  501    0 -0.15633187698E+01 -0.29399285486E+00 -0.22910285384E+01  0.30646548156E+01  0.12700000000E+01 0.  1.
         -4    1    1    2    0  501  0.15633187698E+01  0.29399285486E+00  0.12271208817E+01  0.23767883863E+01  0.12700000000E+01 0. -1.
<mgrwt>
<rscale>  0 0.20355091E+01</rscale>
<asrwt>0</asrwt>
<pdfrwt beam="1">0</pdfrwt>
<pdfrwt beam="2">0</pdfrwt>
<totfact> 0.24500090E+12</totfact>
</mgrwt>
</event>
<event>
 4    1  0.3324394E+006  0.2155299E+01  0.7546771E-02  0.2883241E+00
         22   -1    0    0    0    0  0.00000000000E+00  0.00000000000E+00  0.10596822514E+01  0.10596822514E+01  0.00000000000E+00 0.  1.
         22   -1    0    0    0    0 -0.00000000000E+00 -0.00000000000E+00 -0.46110407847E+01  0.46110407847E+01  0.00000000000E+00 0. -1.
          4    1    1    2  501    0  0.47468384984E+00  0.16754374633E+01 -0.11460862157E+01  0.24410712944E+01  0.12700000000E+01 0.  1.
         -4    1    1    2    0  501 -0.47468384984E+00 -0.16754374633E+01 -0.24052723176E+01  0.32296517417E+01  0.12700000000E+01 0.  1.
<mgrwt>
<rscale>  0 0.21552994E+01</rscale>
<asrwt>0</asrwt>
<pdfrwt beam="1">0</pdfrwt>
<pdfrwt beam="2">0</pdfrwt>
<totfact> 0.37463984E+12</totfact>
</mgrwt>
</event>
<event>
 4    1  0.3324394E+006  0.2036874E+01  0.7546771E-02  0.2956271E+00
         22   -1    0    0    0    0  0.00000000000E+00  0.00000000000E+00  0.30355733311E+02  0.30355733311E+02  0.00000000000E+00 0.  1.
         22   -1    0    0    0    0 -0.00000000000E+00 -0.00000000000E+00 -0.15566635689E+00  0.15566635689E+00  0.00000000000E+00 0. -1.
          4    1    1    2  501    0 -0.50465642215E+00  0.15103901722E+01  0.97713766550E+01  0.99814156466E+01  0.12700000000E+01 0. -1.
         -4    1    1    2    0  501  0.50465642215E+00 -0.15103901722E+01  0.20428690299E+02  0.20529984021E+02  0.12700000000E+01 0. -1.
<mgrwt>
<rscale>  0 0.20368742E+01</rscale>
<asrwt>0</asrwt>
<pdfrwt beam="1">0</pdfrwt>
<pdfrwt beam="2">0</pdfrwt>
<totfact> 0.32504526E+12</totfact>
</mgrwt>
</event>
<event>
 4    1  0.3324394E+006  0.2127516E+01  0.7546771E-02  0.2899666E+00
         22   -1    0    0    0    0  0.00000000000E+00  0.00000000000E+00  0.35545910323E+02  0.35545910323E+02  0.00000000000E+00 0.  1.
         22   -1    0    0    0    0 -0.00000000000E+00 -0.00000000000E+00 -0.23645466774E+00  0.23645466774E+00  0.00000000000E+00 0.  1.
          4    1    1    2  501    0 -0.15347363457E+01 -0.74700005069E+00  0.55009361097E+01  0.58980185495E+01  0.12700000000E+01 0.  1.
         -4    1    1    2    0  501  0.15347363457E+01  0.74700005069E+00  0.29808519545E+02  0.29884346441E+02  0.12700000000E+01 0.  1.
<mgrwt>
<rscale>  0 0.21275161E+01</rscale>
<asrwt>0</asrwt>
<pdfrwt beam="1">0</pdfrwt>
<pdfrwt beam="2">0</pdfrwt>
<totfact> 0.16660144E+12</totfact>
</mgrwt>
</event>
<event>
 4    1  0.3324394E+006  0.2695714E+01  0.7546771E-02  0.2628067E+00
         22   -1    0    0    0    0  0.00000000000E+00  0.00000000000E+00  0.10247060151E+00  0.10247060151E+00  0.00000000000E+00 0.  1.
         22   -1    0    0    0    0 -0.00000000000E+00 -0.00000000000E+00 -0.74757911690E+02  0.74757911690E+02  0.00000000000E+00 0. -1.
          4    1    1    2  501    0 -0.14632949224E+01 -0.18742307984E+01 -0.28843153681E+02  0.28968852020E+02  0.12700000000E+01 0.  1.
         -4    1    1    2    0  501  0.14632949224E+01  0.18742307984E+01 -0.45812287408E+02  0.45891530271E+02  0.12700000000E+01 0. -1.
<mgrwt>
<rscale>  0 0.26957138E+01</rscale>
<asrwt>0</asrwt>
<pdfrwt beam="1">0</pdfrwt>
<pdfrwt beam="2">0</pdfrwt>
<totfact> 0.15789159E+12</totfact>
</mgrwt>
</event>
<event>
 4    1  0.3324394E+006  0.2047863E+01  0.7546771E-02  0.2949149E+00
         22   -1    0    0    0    0  0.00000000000E+00  0.00000000000E+00  0.11558227782E+00  0.11558227782E+00  0.00000000000E+00 0.  1.
         22   -1    0    0    0    0 -0.00000000000E+00 -0.00000000000E+00 -0.36901614162E+02  0.36901614162E+02  0.00000000000E+00 0. -1.
          4    1    1    2  501    0  0.15466607828E+01  0.43437461693E+00 -0.20788265790E+02  0.20888890239E+02  0.12700000000E+01 0. -1.
         -4    1    1    2    0  501 -0.15466607828E+01 -0.43437461693E+00 -0.15997766095E+02  0.16128306201E+02  0.12700000000E+01 0.  1.
<mgrwt>
<rscale>  0 0.20478625E+01</rscale>
<asrwt>0</asrwt>
<pdfrwt beam="1">0</pdfrwt>
<pdfrwt beam="2">0</pdfrwt>
<totfact> 0.35215308E+12</totfact>
</mgrwt>
</event>
<event>
 4    1  0.3324394E+006  0.2313002E+01  0.7546771E-02  0.2797190E+00
         22   -1    0    0    0    0  0.00000000000E+00  0.00000000000E+00  0.20697691490E+01  0.20697691490E+01  0.00000000000E+00 0.  1.
         22   -1    0    0    0    0 -0.00000000000E+00 -0.00000000000E+00 -0.47203547211E+01  0.47203547211E+01  0.00000000000E+00 0. -1.
          4    1    1    2  501    0  0.49497306752E+00 -0.18687109643E+01 -0.36088599249E+01  0.42864727881E+01  0.12700000000E+01 0. -1.
         -4    1    1    2    0  501 -0.49497306752E+00  0.18687109643E+01  0.95827435279E+00  0.25036510821E+01  0.12700000000E+01 0.  1.
<mgrwt>
<rscale>  0 0.23130022E+01</rscale>
<asrwt>0</asrwt>
<pdfrwt beam="1">0</pdfrwt>
<pdfrwt beam="2">0</pdfrwt>
<totfact> 0.16869693E+12</totfact>
</mgrwt>
</event>
<event>
 4    1  0.3324394E+006  0.2241062E+01  0.7546771E-02  0.2835010E+00
         22   -1    0    0    0    0  0.00000000000E+00  0.00000000000E+00  0.56329795025E+01  0.56329795025E+01  0.00000000000E+00 0. -1.
         22   -1    0    0    0    0 -0.00000000000E+00 -0.00000000000E+00 -0.12543123332E+01  0.12543123332E+01  0.00000000000E+00 0. -1.
          4    1    1    2  501    0  0.11984227806E+01  0.14047212922E+01  0.33751949104E+00  0.22663359144E+01  0.12700000000E+01 0. -1.
         -4    1    1    2    0  501 -0.11984227806E+01 -0.14047212922E+01  0.40411476782E+01  0.46209559214E+01  0.12700000000E+01 0. -1.
<mgrwt>
<rscale>  0 0.22410620E+01</rscale>
<asrwt>0</asrwt>
<pdfrwt beam="1">0</pdfrwt>
<pdfrwt beam="2">0</pdfrwt>
<totfact> 0.24366100E+12</totfact>
</mgrwt>
</event>
<event>
 4    1  0.3324394E+006  0.2261062E+01  0.7546771E-02  0.2824266E+00
         22   -1    0    0    0    0  0.00000000000E+00  0.00000000000E+00  0.21191142839E+01  0.21191142839E+01  0.00000000000E+00 0.  1.
         22   -1    0    0    0    0 -0.00000000000E+00 -0.00000000000E+00 -0.37399393707E+01  0.37399393707E+01  0.00000000000E+00 0. -1.
          4    1    1    2  501    0  0.78471950277E+00 -0.16981502986E+01 -0.25557112728E+01  0.34123392628E+01  0.12700000000E+01 0. -1.
         -4    1    1    2    0  501 -0.78471950277E+00  0.16981502986E+01  0.93488618597E+00  0.24467143918E+01  0.12700000000E+01 0.  1.
<mgrwt>
<rscale>  0 0.22610615E+01</rscale>
<asrwt>0</asrwt>
<pdfrwt beam="1">0</pdfrwt>
<pdfrwt beam="2">0</pdfrwt>
<totfact> 0.21596756E+12</totfact>
</mgrwt>
</event>
<event>
 4    1  0.3324394E+006  0.2663029E+01  0.7546771E-02  0.2640745E+00
         22   -1    0    0    0    0  0.00000000000E+00  0.00000000000E+00  0.24535398913E+02  0.24535398913E+02  0.00000000000E+00 0.  1.
         22   -1    0    0    0    0 -0.00000000000E+00 -0.00000000000E+00 -0.11086804512E+01  0.11086804512E+01  0.00000000000E+00 0. -1.
          4    1    1    2  501    0 -0.12802631280E+01  0.19595274135E+01  0.68869150101E+00  0.27506394429E+01  0.12700000000E+01 0. -1.
         -4    1    1    2    0  501  0.12802631280E+01 -0.19595274135E+01  0.22738026961E+02  0.22893439921E+02  0.12700000000E+01 0.  1.
<mgrwt>
<rscale>  0 0.26630286E+01</rscale>
<asrwt>0</asrwt>
<pdfrwt beam="1">0</pdfrwt>
<pdfrwt beam="2">0</pdfrwt>
<totfact> 0.46600435E+11</totfact>
</mgrwt>
</event>
<event>
 4    1  0.3324394E+006  0.3356957E+01  0.7546771E-02  0.2420144E+00
         22   -1    0    0    0    0  0.00000000000E+00  0.00000000000E+00  0.86114225665E+02  0.86114225665E+02  0.00000000000E+00 0.  1.
         22   -1    0    0    0    0 -0.00000000000E+00 -0.00000000000E+00 -0.14508772991E+00  0.14508772991E+00  0.00000000000E+00 0. -1.
          4    1    1    2  501    0 -0.17108238033E+01 -0.25940972237E+01  0.29479898583E+02  0.29670415888E+02  0.12700000000E+01 0.  1.
         -4    1    1    2    0  501  0.17108238033E+01  0.25940972237E+01  0.56489239352E+02  0.56588897507E+02  0.12700000000E+01 0. -1.
<mgrwt>
<rscale>  0 0.33569567E+01</rscale>
<asrwt>0</asrwt>
<pdfrwt beam="1">0</pdfrwt>
<pdfrwt beam="2">0</pdfrwt>
<totfact> 0.88386538E+11</totfact>
</mgrwt>
</event>
<event>
 4    1  0.3324394E+006  0.2401216E+01  0.7546771E-02  0.2753750E+00
         22   -1    0    0    0    0  0.00000000000E+00  0.00000000000E+00  0.27687416754E+02  0.27687416754E+02  0.00000000000E+00 0.  1.
         22   -1    0    0    0    0 -0.00000000000E+00 -0.00000000000E+00 -0.81150704437E+00  0.81150704437E+00  0.00000000000E+00 0. -1.
          4    1    1    2  501    0  0.21007869823E+00 -0.20270183346E+01  0.11521276069E+01  0.26633126762E+01  0.12700000000E+01 0. -1.
         -4    1    1    2    0  501 -0.21007869823E+00  0.20270183346E+01  0.25723782103E+02  0.25835611122E+02  0.12700000000E+01 0.  1.
<mgrwt>
<rscale>  0 0.24012156E+01</rscale>
<asrwt>0</asrwt>
<pdfrwt beam="1">0</pdfrwt>
<pdfrwt beam="2">0</pdfrwt>
<totfact> 0.57099358E+11</totfact>
</mgrwt>
</event>
<event>
 4    1  0.3324394E+006  0.2135504E+01  0.7546771E-02  0.2894902E+00
         22   -1    0    0    0    0  0.00000000000E+00  0.00000000000E+00  0.25704598521E+01  0.25704598521E+01  0.00000000000E+00 0. -1.
         22   -1    0    0    0    0 -0.00000000000E+00 -0.00000000000E+00 -0.24518845096E+01  0.24518845096E+01  0.00000000000E+00 0.  1.
          4    1    1    2  501    0  0.89463711260E+00 -0.14652993208E+01 -0.12609640605E+01  0.24800016179E+01  0.12700000000E+01 0. -1.
         -4    1    1    2    0  501 -0.89463711260E+00  0.14652993208E+01  0.13795394030E+01  0.25423427438E+01  0.12700000000E+01 0. -1.
<mgrwt>
<rscale>  0 0.21355041E+01</rscale>
<asrwt>0</asrwt>
<pdfrwt beam="1">0</pdfrwt>
<pdfrwt beam="2">0</pdfrwt>
<totfact> 0.28265349E+12</totfact>
</mgrwt>
</event>
<event>
 4    1  0.3324394E+006  0.2460366E+01  0.7546771E-02  0.2726265E+00
         22   -1    0    0    0    0  0.00000000000E+00  0.00000000000E+00  0.28151917307E+02  0.28151917307E+02  0.00000000000E+00 0. -1.
         22   -1    0    0    0    0 -0.00000000000E+00 -0.00000000000E+00 -0.21782499550E+00  0.21782499550E+00  0.00000000000E+00 0.  1.
          4    1    1    2  501    0  0.52027090957E+00  0.20420135419E+01  0.12359166745E+02  0.12601682576E+02  0.12700000000E+01 0.  1.
         -4    1    1    2    0  501 -0.52027090957E+00 -0.20420135419E+01  0.15574925567E+02  0.15768059726E+02  0.12700000000E+01 0. -1.
<mgrwt>
<rscale>  0 0.24603661E+01</rscale>
<asrwt>0</asrwt>
<pdfrwt beam="1">0</pdfrwt>
<pdfrwt beam="2">0</pdfrwt>
<totfact> 0.24604764E+12</totfact>
</mgrwt>
</event>
<event>
 4    1  0.3324394E+006  0.2044566E+01  0.7546771E-02  0.2951278E+00
         22   -1    0    0    0    0  0.00000000000E+00  0.00000000000E+00  0.83845412242E+00  0.83845412242E+00  0.00000000000E+00 0.  1.
         22   -1    0    0    0    0 -0.00000000000E+00 -0.00000000000E+00 -0.55894669026E+01  0.55894669026E+01  0.00000000000E+00 0.  1.
          4    1    1    2  501    0 -0.11097828403E+01 -0.11557389054E+01 -0.34318446517E+01  0.39947225290E+01  0.12700000000E+01 0.  1.
         -4    1    1    2    0  501  0.11097828403E+01  0.11557389054E+01 -0.13191681285E+01  0.24331984961E+01  0.12700000000E+01 0.  1.
<mgrwt>
<rscale>  0 0.20445661E+01</rscale>
<asrwt>0</asrwt>
<pdfrwt beam="1">0</pdfrwt>
<pdfrwt beam="2">0</pdfrwt>
<totfact> 0.38960190E+12</totfact>
</mgrwt>
</event>
<event>
 4    1  0.3324394E+006  0.2323652E+01  0.7546771E-02  0.2791780E+00
         22   -1    0    0    0    0  0.00000000000E+00  0.00000000000E+00  0.18283665493E+01  0.18283665493E+01  0.00000000000E+00 0. -1.
         22   -1    0    0    0    0 -0.00000000000E+00 -0.00000000000E+00 -0.37161641643E+01  0.37161641643E+01  0.00000000000E+00 0. -1.
          4    1    1    2  501    0 -0.47115685189E+00  0.18879803408E+01 -0.22001209257E+01  0.31999829115E+01  0.12700000000E+01 0. -1.
         -4    1    1    2    0  501  0.47115685189E+00 -0.18879803408E+01  0.31232331065E+00  0.23445478022E+01  0.12700000000E+01 0. -1.
<mgrwt>
<rscale>  0 0.23236520E+01</rscale>
<asrwt>0</asrwt>
<pdfrwt beam="1">0</pdfrwt>
<pdfrwt beam="2">0</pdfrwt>
<totfact> 0.25810921E+12</totfact>
</mgrwt>
</event>
<event>
 4    1  0.3324394E+006  0.2036008E+01  0.7546771E-02  0.2956835E+00
         22   -1    0    0    0    0  0.00000000000E+00  0.00000000000E+00  0.64189388438E+01  0.64189388438E+01  0.00000000000E+00 0. -1.
         22   -1    0    0    0    0 -0.00000000000E+00 -0.00000000000E+00 -0.88299558588E+00  0.88299558588E+00  0.00000000000E+00 0. -1.
          4    1    1    2  501    0  0.20122008258E+00 -0.15785878659E+01  0.87569319747E+00  0.22163410722E+01  0.12700000000E+01 0. -1.
         -4    1    1    2    0  501 -0.20122008258E+00  0.15785878659E+01  0.46602500604E+01  0.50855933575E+01  0.12700000000E+01 0. -1.
<mgrwt>
<rscale>  0 0.20360081E+01</rscale>
<asrwt>0</asrwt>
<pdfrwt beam="1">0</pdfrwt>
<pdfrwt beam="2">0</pdfrwt>
<totfact> 0.31151907E+12</totfact>
</mgrwt>
</event>
<event>
 4    1  0.3324394E+006  0.2583347E+01  0.7546771E-02  0.2672888E+00
         22   -1    0    0    0    0  0.00000000000E+00  0.00000000000E+00  0.22876143533E+00  0.22876143533E+00  0.00000000000E+00 0.  1.
         22   -1    0    0    0    0 -0.00000000000E+00 -0.00000000000E+00 -0.74896224618E+02  0.74896224618E+02  0.00000000000E+00 0. -1.
          4    1    1    2  501    0  0.21544866551E+01  0.64727856143E+00 -0.66682667083E+02  0.66732688928E+02  0.12700000000E+01 0. -1.
         -4    1    1    2    0  501 -0.21544866551E+01 -0.64727856143E+00 -0.79847960994E+01  0.83922971249E+01  0.12700000000E+01 0.  1.
<mgrwt>
<rscale>  0 0.25833471E+01</rscale>
<asrwt>0</asrwt>
<pdfrwt beam="1">0</pdfrwt>
<pdfrwt beam="2">0</pdfrwt>
<totfact> 0.64469229E+11</totfact>
</mgrwt>
</event>
<event>
 4    1  0.3324394E+006  0.2037714E+01  0.7546771E-02  0.2955724E+00
         22   -1    0    0    0    0  0.00000000000E+00  0.00000000000E+00  0.33712676683E+00  0.33712676683E+00  0.00000000000E+00 0.  1.
         22   -1    0    0    0    0 -0.00000000000E+00 -0.00000000000E+00 -0.14230757203E+02  0.14230757203E+02  0.00000000000E+00 0. -1.
          4    1    1    2  501    0 -0.15711030021E+01 -0.26648046549E+00 -0.96181863371E+01  0.98316725382E+01  0.12700000000E+01 0. -1.
         -4    1    1    2    0  501  0.15711030021E+01  0.26648046549E+00 -0.42754440990E+01  0.47362114316E+01  0.12700000000E+01 0.  1.
<mgrwt>
<rscale>  0 0.20377135E+01</rscale>
<asrwt>0</asrwt>
<pdfrwt beam="1">0</pdfrwt>
<pdfrwt beam="2">0</pdfrwt>
<totfact> 0.35336022E+12</totfact>
</mgrwt>
</event>
<event>
 4    1  0.3324394E+006  0.2934670E+01  0.7546771E-02  0.2543237E+00
         22   -1    0    0    0    0  0.00000000000E+00  0.00000000000E+00  0.81702937892E+00  0.81702937892E+00  0.00000000000E+00 0.  1.
         22   -1    0    0    0    0 -0.00000000000E+00 -0.00000000000E+00 -0.12436650982E+02  0.12436650982E+02  0.00000000000E+00 0. -1.
          4    1    1    2  501    0 -0.18036761818E+01  0.19354945728E+01 -0.83970508299E+01  0.88950969444E+01  0.12700000000E+01 0.  1.
         -4    1    1    2    0  501  0.18036761818E+01 -0.19354945728E+01 -0.32225707730E+01  0.43585834164E+01  0.12700000000E+01 0. -1.
<mgrwt>
<rscale>  0 0.29346698E+01</rscale>
<asrwt>0</asrwt>
<pdfrwt beam="1">0</pdfrwt>
<pdfrwt beam="2">0</pdfrwt>
<totfact> 0.15325835E+12</totfact>
</mgrwt>
</event>
<event>
 4    1  0.3324394E+006  0.2054932E+01  0.7546771E-02  0.2944607E+00
         22   -1    0    0    0    0  0.00000000000E+00  0.00000000000E+00  0.43759189026E+01  0.43759189026E+01  0.00000000000E+00 0.  1.
         22   -1    0    0    0    0 -0.00000000000E+00 -0.00000000000E+00 -0.97360472486E+00  0.97360472486E+00  0.00000000000E+00 0.  1.
          4    1    1    2  501    0  0.12824058870E+01 -0.98248686503E+00  0.19526681397E+01  0.28347236484E+01  0.12700000000E+01 0.  1.
         -4    1    1    2    0  501 -0.12824058870E+01  0.98248686503E+00  0.14496460380E+01  0.25147999790E+01  0.12700000000E+01 0.  1.
<mgrwt>
<rscale>  0 0.20549319E+01</rscale>
<asrwt>0</asrwt>
<pdfrwt beam="1">0</pdfrwt>
<pdfrwt beam="2">0</pdfrwt>
<totfact> 0.43899676E+12</totfact>
</mgrwt>
</event>
<event>
 4    1  0.3324394E+006  0.2645119E+01  0.7546771E-02  0.2647815E+00
         22   -1    0    0    0    0  0.00000000000E+00  0.00000000000E+00  0.21321420852E+02  0.21321420852E+02  0.00000000000E+00 0.  1.
         22   -1    0    0    0    0 -0.00000000000E+00 -0.00000000000E+00 -0.18185294213E+01  0.18185294213E+01  0.00000000000E+00 0. -1.
          4    1    1    2  501    0 -0.11231684881E+01 -0.20303312347E+01 -0.72274531273E+00  0.27420819029E+01  0.12700000000E+01 0. -1.
         -4    1    1    2    0  501  0.11231684881E+01  0.20303312347E+01  0.20225636743E+02  0.20397868370E+02  0.12700000000E+01 0.  1.
<mgrwt>
<rscale>  0 0.26451186E+01</rscale>
<asrwt>0</asrwt>
<pdfrwt beam="1">0</pdfrwt>
<pdfrwt beam="2">0</pdfrwt>
<totfact> 0.31470831E+11</totfact>
</mgrwt>
</event>
<event>
 4    1  0.3324394E+006  0.6216641E+01  0.7546771E-02  0.2000787E+00
         22   -1    0    0    0    0  0.00000000000E+00  0.00000000000E+00  0.18036376307E+02  0.18036376307E+02  0.00000000000E+00 0. -1.
         22   -1    0    0    0    0 -0.00000000000E+00 -0.00000000000E+00 -0.22688771711E+01  0.22688771711E+01  0.00000000000E+00 0.  1.
          4    1    1    2  501    0 -0.51940205530E+01 -0.31711010307E+01  0.10277919367E+02  0.12011754982E+02  0.12700000000E+01 0. -1.
         -4    1    1    2    0  501  0.51940205530E+01  0.31711010307E+01  0.54895797689E+01  0.82934984953E+01  0.12700000000E+01 0.  1.
<mgrwt>
<rscale>  0 0.62166415E+01</rscale>
<asrwt>0</asrwt>
<pdfrwt beam="1">0</pdfrwt>
<pdfrwt beam="2">0</pdfrwt>
<totfact> 0.30004697E+11</totfact>
</mgrwt>
</event>
<event>
 4    1  0.3324394E+006  0.2019192E+01  0.7546771E-02  0.2967890E+00
         22   -1    0    0    0    0  0.00000000000E+00  0.00000000000E+00  0.99957012176E+01  0.99957012176E+01  0.00000000000E+00 0.  1.
         22   -1    0    0    0    0 -0.00000000000E+00 -0.00000000000E+00 -0.45936571854E+00  0.45936571854E+00  0.00000000000E+00 0. -1.
          4    1    1    2  501    0 -0.94067574978E+00 -0.12567285536E+01  0.30182301702E+01  0.36313703865E+01  0.12700000000E+01 0. -1.
         -4    1    1    2    0  501  0.94067574978E+00  0.12567285536E+01  0.65181053288E+01  0.68236965496E+01  0.12700000000E+01 0.  1.
<mgrwt>
<rscale>  0 0.20191923E+01</rscale>
<asrwt>0</asrwt>
<pdfrwt beam="1">0</pdfrwt>
<pdfrwt beam="2">0</pdfrwt>
<totfact> 0.38374179E+12</totfact>
</mgrwt>
</event>
<event>
 4    1  0.3324394E+006  0.2390239E+01  0.7546771E-02  0.2758991E+00
         22   -1    0    0    0    0  0.00000000000E+00  0.00000000000E+00  0.20305557089E+02  0.20305557089E+02  0.00000000000E+00 0. -1.
         22   -1    0    0    0    0 -0.00000000000E+00 -0.00000000000E+00 -0.33915378301E+00  0.33915378301E+00  0.00000000000E+00 0.  1.
          4    1    1    2  501    0 -0.24842763472E+00  0.20096332193E+01  0.57222362621E+01  0.62013893448E+01  0.12700000000E+01 0.  1.
         -4    1    1    2    0  501  0.24842763472E+00 -0.20096332193E+01  0.14244167044E+02  0.14443321527E+02  0.12700000000E+01 0. -1.
<mgrwt>
<rscale>  0 0.23902389E+01</rscale>
<asrwt>0</asrwt>
<pdfrwt beam="1">0</pdfrwt>
<pdfrwt beam="2">0</pdfrwt>
<totfact> 0.22607794E+12</totfact>
</mgrwt>
</event>
<event>
 4    1  0.3324394E+006  0.2578758E+01  0.7546771E-02  0.2674794E+00
         22   -1    0    0    0    0  0.00000000000E+00  0.00000000000E+00  0.87168421777E+01  0.87168421777E+01  0.00000000000E+00 0. -1.
         22   -1    0    0    0    0 -0.00000000000E+00 -0.00000000000E+00 -0.80431748891E+00  0.80431748891E+00  0.00000000000E+00 0. -1.
          4    1    1    2  501    0  0.21726280134E+01  0.56283401433E+00  0.28758521645E+01  0.38627089308E+01  0.12700000000E+01 0. -1.
         -4    1    1    2    0  501 -0.21726280134E+01 -0.56283401433E+00  0.50366725243E+01  0.56584507358E+01  0.12700000000E+01 0. -1.
<mgrwt>
<rscale>  0 0.25787583E+01</rscale>
<asrwt>0</asrwt>
<pdfrwt beam="1">0</pdfrwt>
<pdfrwt beam="2">0</pdfrwt>
<totfact> 0.24008047E+12</totfact>
</mgrwt>
</event>
<event>
 4    1  0.3324394E+006  0.2983705E+01  0.7546771E-02  0.2527355E+00
         22   -1    0    0    0    0  0.00000000000E+00  0.00000000000E+00  0.29684567704E+01  0.29684567704E+01  0.00000000000E+00 0. -1.
         22   -1    0    0    0    0 -0.00000000000E+00 -0.00000000000E+00 -0.32144813684E+01  0.32144813684E+01  0.00000000000E+00 0.  1.
          4    1    1    2  501    0  0.23151397278E+01  0.13891449005E+01 -0.92336702527E+00  0.31233158946E+01  0.12700000000E+01 0.  1.
         -4    1    1    2    0  501 -0.23151397278E+01 -0.13891449005E+01  0.67734242728E+00  0.30596222443E+01  0.12700000000E+01 0. -1.
<mgrwt>
<rscale>  0 0.29837050E+01</rscale>
<asrwt>0</asrwt>
<pdfrwt beam="1">0</pdfrwt>
<pdfrwt beam="2">0</pdfrwt>
<totfact> 0.17426785E+12</totfact>
</mgrwt>
</event>
<event>
 4    1  0.3324394E+006  0.2841639E+01  0.7546771E-02  0.2574723E+00
         22   -1    0    0    0    0  0.00000000000E+00  0.00000000000E+00  0.57129884229E+01  0.57129884229E+01  0.00000000000E+00 0.  1.
         22   -1    0    0    0    0 -0.00000000000E+00 -0.00000000000E+00 -0.14265858403E+01  0.14265858403E+01  0.00000000000E+00 0. -1.
          4    1    1    2  501    0  0.14912298304E+01  0.20586995049E+01  0.18003938357E+01  0.33639750329E+01  0.12700000000E+01 0. -1.
         -4    1    1    2    0  501 -0.14912298304E+01 -0.20586995049E+01  0.24860087468E+01  0.37755992303E+01  0.12700000000E+01 0.  1.
<mgrwt>
<rscale>  0 0.28416386E+01</rscale>
<asrwt>0</asrwt>
<pdfrwt beam="1">0</pdfrwt>
<pdfrwt beam="2">0</pdfrwt>
<totfact> 0.20670895E+12</totfact>
</mgrwt>
</event>
<event>
 4    1  0.3324394E+006  0.2549742E+01  0.7546771E-02  0.2686998E+00
         22   -1    0    0    0    0  0.00000000000E+00  0.00000000000E+00  0.21822857766E+00  0.21822857766E+00  0.00000000000E+00 0.  1.
         22   -1    0    0    0    0 -0.00000000000E+00 -0.00000000000E+00 -0.40438561930E+02  0.40438561930E+02  0.00000000000E+00 0.  1.
          4    1    1    2  501    0 -0.12464310731E+01  0.18261147174E+01 -0.30541411601E+02  0.30647659094E+02  0.12700000000E+01 0.  1.
         -4    1    1    2    0  501  0.12464310731E+01 -0.18261147174E+01 -0.96789217520E+01  0.10009131414E+02  0.12700000000E+01 0.  1.
<mgrwt>
<rscale>  0 0.25497422E+01</rscale>
<asrwt>0</asrwt>
<pdfrwt beam="1">0</pdfrwt>
<pdfrwt beam="2">0</pdfrwt>
<totfact> 0.15424246E+12</totfact>
</mgrwt>
</event>
<event>
 4    1  0.3324394E+006  0.2159480E+01  0.7546771E-02  0.2880804E+00
         22   -1    0    0    0    0  0.00000000000E+00  0.00000000000E+00  0.90784790764E+00  0.90784790764E+00  0.00000000000E+00 0.  1.
         22   -1    0    0    0    0 -0.00000000000E+00 -0.00000000000E+00 -0.84422815485E+01  0.84422815485E+01  0.00000000000E+00 0. -1.
          4    1    1    2  501    0  0.16775866432E+01  0.48595878136E+00 -0.66925873898E+01  0.70323594086E+01  0.12700000000E+01 0. -1.
         -4    1    1    2    0  501 -0.16775866432E+01 -0.48595878136E+00 -0.84184625113E+00  0.23177700475E+01  0.12700000000E+01 0.  1.
<mgrwt>
<rscale>  0 0.21594798E+01</rscale>
<asrwt>0</asrwt>
<pdfrwt beam="1">0</pdfrwt>
<pdfrwt beam="2">0</pdfrwt>
<totfact> 0.21736229E+12</totfact>
</mgrwt>
</event>
<event>
 4    1  0.3324394E+006  0.2097972E+01  0.7546771E-02  0.2917594E+00
         22   -1    0    0    0    0  0.00000000000E+00  0.00000000000E+00  0.11442758563E+02  0.11442758563E+02  0.00000000000E+00 0.  1.
         22   -1    0    0    0    0 -0.00000000000E+00 -0.00000000000E+00 -0.22079486135E+01  0.22079486135E+01  0.00000000000E+00 0. -1.
          4    1    1    2  501    0  0.12067955587E+01  0.11542226301E+01 -0.15849880172E+01  0.26293863191E+01  0.12700000000E+01 0. -1.
         -4    1    1    2    0  501 -0.12067955587E+01 -0.11542226301E+01  0.10819797967E+02  0.11021320857E+02  0.12700000000E+01 0.  1.
<mgrwt>
<rscale>  0 0.20979717E+01</rscale>
<asrwt>0</asrwt>
<pdfrwt beam="1">0</pdfrwt>
<pdfrwt beam="2">0</pdfrwt>
<totfact> 0.54155578E+11</totfact>
</mgrwt>
</event>
<event>
 4    1  0.3324394E+006  0.2045166E+01  0.7546771E-02  0.2950890E+00
         22   -1    0    0    0    0  0.00000000000E+00  0.00000000000E+00  0.75221330814E-01  0.75221330814E-01  0.00000000000E+00 0. -1.
         22   -1    0    0    0    0 -0.00000000000E+00 -0.00000000000E+00 -0.68066427514E+02  0.68066427514E+02  0.00000000000E+00 0. -1.
          4    1    1    2  501    0 -0.13477563930E+01  0.86796010441E+00 -0.19417687109E+02  0.19525093462E+02  0.12700000000E+01 0.  1.
         -4    1    1    2    0  501  0.13477563930E+01 -0.86796010441E+00 -0.48573519074E+02  0.48616555383E+02  0.12700000000E+01 0.  1.
<mgrwt>
<rscale>  0 0.20451655E+01</rscale>
<asrwt>0</asrwt>
<pdfrwt beam="1">0</pdfrwt>
<pdfrwt beam="2">0</pdfrwt>
<totfact> 0.25239680E+12</totfact>
</mgrwt>
</event>
<event>
 4    1  0.3324394E+006  0.2165775E+01  0.7546771E-02  0.2877153E+00
         22   -1    0    0    0    0  0.00000000000E+00  0.00000000000E+00  0.11920537675E+00  0.11920537675E+00  0.00000000000E+00 0.  1.
         22   -1    0    0    0    0 -0.00000000000E+00 -0.00000000000E+00 -0.63370915028E+02  0.63370915028E+02  0.00000000000E+00 0. -1.
          4    1    1    2  501    0 -0.16421099003E+01 -0.61738007430E+00 -0.51170923477E+02  0.51216735473E+02  0.12700000000E+01 0. -1.
         -4    1    1    2    0  501  0.16421099003E+01  0.61738007430E+00 -0.12080786174E+02  0.12273384931E+02  0.12700000000E+01 0.  1.
<mgrwt>
<rscale>  0 0.21657754E+01</rscale>
<asrwt>0</asrwt>
<pdfrwt beam="1">0</pdfrwt>
<pdfrwt beam="2">0</pdfrwt>
<totfact> 0.16701423E+12</totfact>
</mgrwt>
</event>
<event>
 4    1  0.3324394E+006  0.2960703E+01  0.7546771E-02  0.2534746E+00
         22   -1    0    0    0    0  0.00000000000E+00  0.00000000000E+00  0.86796475015E+01  0.86796475015E+01  0.00000000000E+00 0.  1.
         22   -1    0    0    0    0 -0.00000000000E+00 -0.00000000000E+00 -0.71470078758E+01  0.71470078758E+01  0.00000000000E+00 0. -1.
          4    1    1    2  501    0  0.26512086675E+01  0.35207493014E+00 -0.65666201856E+01  0.72032121180E+01  0.12700000000E+01 0. -1.
         -4    1    1    2    0  501 -0.26512086675E+01 -0.35207493014E+00  0.80992598113E+01  0.86234432593E+01  0.12700000000E+01 0.  1.
<mgrwt>
<rscale>  0 0.29607033E+01</rscale>
<asrwt>0</asrwt>
<pdfrwt beam="1">0</pdfrwt>
<pdfrwt beam="2">0</pdfrwt>
<totfact> 0.18989031E+11</totfact>
</mgrwt>
</event>
<event>
 4    1  0.3324394E+006  0.2332025E+01  0.7546771E-02  0.2787560E+00
         22   -1    0    0    0    0  0.00000000000E+00  0.00000000000E+00  0.48057489905E+02  0.48057489905E+02  0.00000000000E+00 0. -1.
         22   -1    0    0    0    0 -0.00000000000E+00 -0.00000000000E+00 -0.15256639979E+00  0.15256639979E+00  0.00000000000E+00 0.  1.
          4    1    1    2  501    0 -0.83630555287E+00  0.17680587890E+01  0.11702238748E+02  0.11932339694E+02  0.12700000000E+01 0.  1.
         -4    1    1    2    0  501  0.83630555287E+00 -0.17680587890E+01  0.36202684757E+02  0.36277716611E+02  0.12700000000E+01 0. -1.
<mgrwt>
<rscale>  0 0.23320246E+01</rscale>
<asrwt>0</asrwt>
<pdfrwt beam="1">0</pdfrwt>
<pdfrwt beam="2">0</pdfrwt>
<totfact> 0.18342717E+12</totfact>
</mgrwt>
</event>
<event>
 4    1  0.3324394E+006  0.2389973E+01  0.7546771E-02  0.2759119E+00
         22   -1    0    0    0    0  0.00000000000E+00  0.00000000000E+00  0.17185764380E+02  0.17185764380E+02  0.00000000000E+00 0. -1.
         22   -1    0    0    0    0 -0.00000000000E+00 -0.00000000000E+00 -0.45899727036E+00  0.45899727036E+00  0.00000000000E+00 0. -1.
          4    1    1    2  501    0 -0.19766594915E+01  0.43804820200E+00  0.37294403006E+01  0.44295252486E+01  0.12700000000E+01 0. -1.
         -4    1    1    2    0  501  0.19766594915E+01 -0.43804820200E+00  0.12997326809E+02  0.13215236402E+02  0.12700000000E+01 0. -1.
<mgrwt>
<rscale>  0 0.23899726E+01</rscale>
<asrwt>0</asrwt>
<pdfrwt beam="1">0</pdfrwt>
<pdfrwt beam="2">0</pdfrwt>
<totfact> 0.19788291E+12</totfact>
</mgrwt>
</event>
<event>
 4    1  0.3324394E+006  0.2471738E+01  0.7546771E-02  0.2721123E+00
         22   -1    0    0    0    0  0.00000000000E+00  0.00000000000E+00  0.53805948992E+00  0.53805948992E+00  0.00000000000E+00 0.  1.
         22   -1    0    0    0    0 -0.00000000000E+00 -0.00000000000E+00 -0.13078148894E+02  0.13078148894E+02  0.00000000000E+00 0. -1.
          4    1    1    2  501    0  0.12093574268E+01 -0.17418505199E+01 -0.37985716330E+01  0.45319570905E+01  0.12700000000E+01 0. -1.
         -4    1    1    2    0  501 -0.12093574268E+01  0.17418505199E+01 -0.87415177709E+01  0.90842512932E+01  0.12700000000E+01 0.  1.
<mgrwt>
<rscale>  0 0.24717380E+01</rscale>
<asrwt>0</asrwt>
<pdfrwt beam="1">0</pdfrwt>
<pdfrwt beam="2">0</pdfrwt>
<totfact> 0.23145266E+12</totfact>
</mgrwt>
</event>
<event>
 4    1  0.3324394E+006  0.2759403E+01  0.7546771E-02  0.2604153E+00
         22   -1    0    0    0    0  0.00000000000E+00  0.00000000000E+00  0.27368628472E+02  0.27368628472E+02  0.00000000000E+00 0.  1.
         22   -1    0    0    0    0 -0.00000000000E+00 -0.00000000000E+00 -0.42850503576E+00  0.42850503576E+00  0.00000000000E+00 0. -1.
          4    1    1    2  501    0 -0.64495585835E+00  0.23633526193E+01  0.52389162473E+01  0.59211947366E+01  0.12700000000E+01 0. -1.
         -4    1    1    2    0  501  0.64495585835E+00 -0.23633526193E+01  0.21701207189E+02  0.21875938771E+02  0.12700000000E+01 0.  1.
<mgrwt>
<rscale>  0 0.27594028E+01</rscale>
<asrwt>0</asrwt>
<pdfrwt beam="1">0</pdfrwt>
<pdfrwt beam="2">0</pdfrwt>
<totfact> 0.11939974E+12</totfact>
</mgrwt>
</event>
<event>
 4    1  0.3324394E+006  0.2002350E+01  0.7546771E-02  0.2979144E+00
         22   -1    0    0    0    0  0.00000000000E+00  0.00000000000E+00  0.15145121360E+01  0.15145121360E+01  0.00000000000E+00 0. -1.
         22   -1    0    0    0    0 -0.00000000000E+00 -0.00000000000E+00 -0.27282502232E+01  0.27282502232E+01  0.00000000000E+00 0. -1.
          4    1    1    2  501    0 -0.15405616627E+01 -0.15222932881E+00 -0.24150835582E+00  0.20168614953E+01  0.12700000000E+01 0. -1.
         -4    1    1    2    0  501  0.15405616627E+01  0.15222932881E+00 -0.97222973136E+00  0.22259008639E+01  0.12700000000E+01 0. -1.
<mgrwt>
<rscale>  0 0.20023496E+01</rscale>
<asrwt>0</asrwt>
<pdfrwt beam="1">0</pdfrwt>
<pdfrwt beam="2">0</pdfrwt>
<totfact> 0.46035880E+12</totfact>
</mgrwt>
</event>
<event>
 4    1  0.3324394E+006  0.2007304E+01  0.7546771E-02  0.2975815E+00
         22   -1    0    0    0    0  0.00000000000E+00  0.00000000000E+00  0.34858583116E+00  0.34858583116E+00  0.00000000000E+00 0.  1.
         22   -1    0    0    0    0 -0.00000000000E+00 -0.00000000000E+00 -0.15203792745E+02  0.15203792745E+02  0.00000000000E+00 0. -1.
          4    1    1    2  501    0 -0.13757732943E+01 -0.72361344975E+00 -0.11235045147E+02  0.11412953519E+02  0.12700000000E+01 0. -1.
         -4    1    1    2    0  501  0.13757732943E+01  0.72361344975E+00 -0.36201617669E+01  0.41394250568E+01  0.12700000000E+01 0.  1.
<mgrwt>
<rscale>  0 0.20073038E+01</rscale>
<asrwt>0</asrwt>
<pdfrwt beam="1">0</pdfrwt>
<pdfrwt beam="2">0</pdfrwt>
<totfact> 0.31375330E+12</totfact>
</mgrwt>
</event>
<event>
 4    1  0.3324394E+006  0.2493709E+01  0.7546771E-02  0.2711310E+00
         22   -1    0    0    0    0  0.00000000000E+00  0.00000000000E+00  0.79427476143E+00  0.79427476143E+00  0.00000000000E+00 0. -1.
         22   -1    0    0    0    0 -0.00000000000E+00 -0.00000000000E+00 -0.79418295356E+01  0.79418295356E+01  0.00000000000E+00 0.  1.
          4    1    1    2  501    0 -0.10019050110E+01  0.18978596367E+01 -0.40938152635E+01  0.47935277473E+01  0.12700000000E+01 0.  1.
         -4    1    1    2    0  501  0.10019050110E+01 -0.18978596367E+01 -0.30537395107E+01  0.39425765498E+01  0.12700000000E+01 0. -1.
<mgrwt>
<rscale>  0 0.24937091E+01</rscale>
<asrwt>0</asrwt>
<pdfrwt beam="1">0</pdfrwt>
<pdfrwt beam="2">0</pdfrwt>
<totfact> 0.27240220E+12</totfact>
</mgrwt>
</event>
<event>
 4    1  0.3324394E+006  0.2839391E+01  0.7546771E-02  0.2575507E+00
         22   -1    0    0    0    0  0.00000000000E+00  0.00000000000E+00  0.24148261634E+00  0.24148261634E+00  0.00000000000E+00 0.  1.
         22   -1    0    0    0    0 -0.00000000000E+00 -0.00000000000E+00 -0.35122063270E+02  0.35122063270E+02  0.00000000000E+00 0. -1.
          4    1    1    2  501    0  0.59247258283E+00 -0.24694565676E+01 -0.21371426807E+02  0.21559221305E+02  0.12700000000E+01 0. -1.
         -4    1    1    2    0  501 -0.59247258283E+00  0.24694565676E+01 -0.13509153847E+02  0.13804324582E+02  0.12700000000E+01 0.  1.
<mgrwt>
<rscale>  0 0.28393907E+01</rscale>
<asrwt>0</asrwt>
<pdfrwt beam="1">0</pdfrwt>
<pdfrwt beam="2">0</pdfrwt>
<totfact> 0.16527478E+12</totfact>
</mgrwt>
</event>
<event>
 4    1  0.3324394E+006  0.5525315E+01  0.7546771E-02  0.2065070E+00
         22   -1    0    0    0    0  0.00000000000E+00  0.00000000000E+00  0.92744925553E+01  0.92744925553E+01  0.00000000000E+00 0.  1.
         22   -1    0    0    0    0 -0.00000000000E+00 -0.00000000000E+00 -0.11289241889E+02  0.11289241889E+02  0.00000000000E+00 0. -1.
          4    1    1    2  501    0 -0.19165175621E+01  0.50242576378E+01 -0.96613790447E+01  0.11129750645E+02  0.12700000000E+01 0. -1.
         -4    1    1    2    0  501  0.19165175621E+01 -0.50242576378E+01  0.76466297113E+01  0.94339837989E+01  0.12700000000E+01 0.  1.
<mgrwt>
<rscale>  0 0.55253149E+01</rscale>
<asrwt>0</asrwt>
<pdfrwt beam="1">0</pdfrwt>
<pdfrwt beam="2">0</pdfrwt>
<totfact> 0.10098763E+11</totfact>
</mgrwt>
</event>
<event>
 4    1  0.3324394E+006  0.2143747E+01  0.7546771E-02  0.2890020E+00
         22   -1    0    0    0    0  0.00000000000E+00  0.00000000000E+00  0.71509991991E+02  0.71509991991E+02  0.00000000000E+00 0.  1.
         22   -1    0    0    0    0 -0.00000000000E+00 -0.00000000000E+00 -0.71672826956E-01  0.71672826956E-01  0.00000000000E+00 0. -1.
          4    1    1    2  501    0 -0.10331964355E+01 -0.13839285113E+01  0.24213435075E+02  0.24308148657E+02  0.12700000000E+01 0.  1.
         -4    1    1    2    0  501  0.10331964355E+01  0.13839285113E+01  0.47224884089E+02  0.47273516161E+02  0.12700000000E+01 0. -1.
<mgrwt>
<rscale>  0 0.21437474E+01</rscale>
<asrwt>0</asrwt>
<pdfrwt beam="1">0</pdfrwt>
<pdfrwt beam="2">0</pdfrwt>
<totfact> 0.24899537E+12</totfact>
</mgrwt>
</event>
<event>
 4    1  0.3324394E+006  0.2076965E+01  0.7546771E-02  0.2930642E+00
         22   -1    0    0    0    0  0.00000000000E+00  0.00000000000E+00  0.56035223513E+01  0.56035223513E+01  0.00000000000E+00 0. -1.
         22   -1    0    0    0    0 -0.00000000000E+00 -0.00000000000E+00 -0.12977029639E+01  0.12977029639E+01  0.00000000000E+00 0.  1.
          4    1    1    2  501    0  0.75596672264E+00  0.14592458769E+01 -0.47844135908E-01  0.20775161314E+01  0.12700000000E+01 0.  1.
         -4    1    1    2    0  501 -0.75596672264E+00 -0.14592458769E+01  0.43536635233E+01  0.48237091837E+01  0.12700000000E+01 0. -1.
<mgrwt>
<rscale>  0 0.20769651E+01</rscale>
<asrwt>0</asrwt>
<pdfrwt beam="1">0</pdfrwt>
<pdfrwt beam="2">0</pdfrwt>
<totfact> 0.23579413E+12</totfact>
</mgrwt>
</event>
<event>
 4    1  0.3324394E+006  0.3035380E+01  0.7546771E-02  0.2511116E+00
         22   -1    0    0    0    0  0.00000000000E+00  0.00000000000E+00  0.18171655491E+02  0.18171655491E+02  0.00000000000E+00 0.  1.
         22   -1    0    0    0    0 -0.00000000000E+00 -0.00000000000E+00 -0.64930187489E+00  0.64930187489E+00  0.00000000000E+00 0. -1.
          4    1    1    2  501    0 -0.13074846681E+01  0.24271623365E+01  0.13166232309E+02  0.13511595257E+02  0.12700000000E+01 0.  1.
         -4    1    1    2    0  501  0.13074846681E+01 -0.24271623365E+01  0.43561213072E+01  0.53093621094E+01  0.12700000000E+01 0. -1.
<mgrwt>
<rscale>  0 0.30353802E+01</rscale>
<asrwt>0</asrwt>
<pdfrwt beam="1">0</pdfrwt>
<pdfrwt beam="2">0</pdfrwt>
<totfact> 0.12475553E+12</totfact>
</mgrwt>
</event>
<event>
 4    1  0.3324394E+006  0.4522747E+01  0.7546771E-02  0.2187275E+00
         22   -1    0    0    0    0  0.00000000000E+00  0.00000000000E+00  0.28840030571E+01  0.28840030571E+01  0.00000000000E+00 0. -1.
         22   -1    0    0    0    0 -0.00000000000E+00 -0.00000000000E+00 -0.11938426216E+02  0.11938426216E+02  0.00000000000E+00 0. -1.
          4    1    1    2  501    0  0.41053392905E+01 -0.14101518110E+01 -0.92488997530E+01  0.10295503167E+02  0.12700000000E+01 0. -1.
         -4    1    1    2    0  501 -0.41053392905E+01  0.14101518110E+01  0.19447659445E+00  0.45269261057E+01  0.12700000000E+01 0. -1.
<mgrwt>
<rscale>  0 0.45227468E+01</rscale>
<asrwt>0</asrwt>
<pdfrwt beam="1">0</pdfrwt>
<pdfrwt beam="2">0</pdfrwt>
<totfact> 0.37695252E+11</totfact>
</mgrwt>
</event>
<event>
 4    1  0.3324394E+006  0.2000617E+01  0.7546771E-02  0.2980313E+00
         22   -1    0    0    0    0  0.00000000000E+00  0.00000000000E+00  0.28935353095E+02  0.28935353095E+02  0.00000000000E+00 0. -1.
         22   -1    0    0    0    0 -0.00000000000E+00 -0.00000000000E+00 -0.18208600441E+00  0.18208600441E+00  0.00000000000E+00 0.  1.
          4    1    1    2  501    0  0.10464048413E+01  0.11378063643E+01  0.72393765744E+01  0.75107283003E+01  0.12700000000E+01 0. -1.
         -4    1    1    2    0  501 -0.10464048413E+01 -0.11378063643E+01  0.21513890517E+02  0.21606710800E+02  0.12700000000E+01 0. -1.
<mgrwt>
<rscale>  0 0.20006165E+01</rscale>
<asrwt>0</asrwt>
<pdfrwt beam="1">0</pdfrwt>
<pdfrwt beam="2">0</pdfrwt>
<totfact> 0.29016521E+12</totfact>
</mgrwt>
</event>
<event>
 4    1  0.3324394E+006  0.4650344E+01  0.7546771E-02  0.2167911E+00
         22   -1    0    0    0    0  0.00000000000E+00  0.00000000000E+00  0.31517711858E+01  0.31517711858E+01  0.00000000000E+00 0.  1.
         22   -1    0    0    0    0 -0.00000000000E+00 -0.00000000000E+00 -0.12420584967E+02  0.12420584967E+02  0.00000000000E+00 0. -1.
          4    1    1    2  501    0  0.22943706359E+01 -0.38403982765E+01 -0.98434412778E+01  0.10886644650E+02  0.12700000000E+01 0. -1.
         -4    1    1    2    0  501 -0.22943706359E+01  0.38403982765E+01  0.57462749609E+00  0.46857115037E+01  0.12700000000E+01 0.  1.
<mgrwt>
<rscale>  0 0.46503436E+01</rscale>
<asrwt>0</asrwt>
<pdfrwt beam="1">0</pdfrwt>
<pdfrwt beam="2">0</pdfrwt>
<totfact> 0.32378636E+11</totfact>
</mgrwt>
</event>
<event>
 4    1  0.3324394E+006  0.2282974E+01  0.7546771E-02  0.2812701E+00
         22   -1    0    0    0    0  0.00000000000E+00  0.00000000000E+00  0.67362481463E+00  0.67362481463E+00  0.00000000000E+00 0.  1.
         22   -1    0    0    0    0 -0.00000000000E+00 -0.00000000000E+00 -0.92283887441E+01  0.92283887441E+01  0.00000000000E+00 0.  1.
          4    1    1    2  501    0  0.12319825383E+01  0.14426669797E+01 -0.62675836487E+01  0.66704253075E+01  0.12700000000E+01 0.  1.
         -4    1    1    2    0  501 -0.12319825383E+01 -0.14426669797E+01 -0.22871802808E+01  0.32315882513E+01  0.12700000000E+01 0.  1.
<mgrwt>
<rscale>  0 0.22829737E+01</rscale>
<asrwt>0</asrwt>
<pdfrwt beam="1">0</pdfrwt>
<pdfrwt beam="2">0</pdfrwt>
<totfact> 0.27413035E+12</totfact>
</mgrwt>
</event>
<event>
 4    1  0.3324394E+006  0.2070962E+01  0.7546771E-02  0.2934419E+00
         22   -1    0    0    0    0  0.00000000000E+00  0.00000000000E+00  0.10774507956E+01  0.10774507956E+01  0.00000000000E+00 0.  1.
         22   -1    0    0    0    0 -0.00000000000E+00 -0.00000000000E+00 -0.39809076931E+01  0.39809076931E+01  0.00000000000E+00 0. -1.
          4    1    1    2  501    0  0.50137625448E+00  0.15571140162E+01 -0.14745736349E+01  0.25422921965E+01  0.12700000000E+01 0.  1.
         -4    1    1    2    0  501 -0.50137625448E+00 -0.15571140162E+01 -0.14288832626E+01  0.25160662921E+01  0.12700000000E+01 0. -1.
<mgrwt>
<rscale>  0 0.20709617E+01</rscale>
<asrwt>0</asrwt>
<pdfrwt beam="1">0</pdfrwt>
<pdfrwt beam="2">0</pdfrwt>
<totfact> 0.43710254E+12</totfact>
</mgrwt>
</event>
<event>
 4    1  0.3324394E+006  0.4581945E+01  0.7546771E-02  0.2178179E+00
         22   -1    0    0    0    0  0.00000000000E+00  0.00000000000E+00  0.29661695479E+02  0.29661695479E+02  0.00000000000E+00 0. -1.
         22   -1    0    0    0    0 -0.00000000000E+00 -0.00000000000E+00 -0.79674272370E+00  0.79674272370E+00  0.00000000000E+00 0.  1.
          4    1    1    2  501    0  0.40683902482E+01 -0.16821174910E+01  0.93438458243E+01  0.10406808985E+02  0.12700000000E+01 0.  1.
         -4    1    1    2    0  501 -0.40683902482E+01  0.16821174910E+01  0.19521106931E+02  0.20051629217E+02  0.12700000000E+01 0. -1.
<mgrwt>
<rscale>  0 0.45819448E+01</rscale>
<asrwt>0</asrwt>
<pdfrwt beam="1">0</pdfrwt>
<pdfrwt beam="2">0</pdfrwt>
<totfact> 0.53419832E+11</totfact>
</mgrwt>
</event>
<event>
 4    1  0.3324394E+006  0.2290047E+01  0.7546771E-02  0.2809012E+00
         22   -1    0    0    0    0  0.00000000000E+00  0.00000000000E+00  0.43494126885E+01  0.43494126885E+01  0.00000000000E+00 0. -1.
         22   -1    0    0    0    0 -0.00000000000E+00 -0.00000000000E+00 -0.14820360647E+01  0.14820360647E+01  0.00000000000E+00 0.  1.
          4    1    1    2  501    0 -0.35457999063E+00  0.18723482071E+01  0.17477830017E+00  0.22967068234E+01  0.12700000000E+01 0. -1.
         -4    1    1    2    0  501  0.35457999063E+00 -0.18723482071E+01  0.26925983236E+01  0.35347419299E+01  0.12700000000E+01 0. -1.
<mgrwt>
<rscale>  0 0.22900469E+01</rscale>
<asrwt>0</asrwt>
<pdfrwt beam="1">0</pdfrwt>
<pdfrwt beam="2">0</pdfrwt>
<totfact> 0.27322161E+12</totfact>
</mgrwt>
</event>
<event>
 4    1  0.3324394E+006  0.2992432E+01  0.7546771E-02  0.2524577E+00
         22   -1    0    0    0    0  0.00000000000E+00  0.00000000000E+00  0.13690465908E+01  0.13690465908E+01  0.00000000000E+00 0.  1.
         22   -1    0    0    0    0 -0.00000000000E+00 -0.00000000000E+00 -0.67251274495E+01  0.67251274495E+01  0.00000000000E+00 0. -1.
          4    1    1    2  501    0 -0.20953187393E+00 -0.27014528375E+01 -0.20080093469E+01  0.36037137201E+01  0.12700000000E+01 0.  1.
         -4    1    1    2    0  501  0.20953187393E+00  0.27014528375E+01 -0.33480715118E+01  0.44904603202E+01  0.12700000000E+01 0. -1.
<mgrwt>
<rscale>  0 0.29924323E+01</rscale>
<asrwt>0</asrwt>
<pdfrwt beam="1">0</pdfrwt>
<pdfrwt beam="2">0</pdfrwt>
<totfact> 0.17844178E+12</totfact>
</mgrwt>
</event>
<event>
 4    1  0.3324394E+006  0.2115115E+01  0.7546771E-02  0.2907133E+00
         22   -1    0    0    0    0  0.00000000000E+00  0.00000000000E+00  0.59126766492E+01  0.59126766492E+01  0.00000000000E+00 0.  1.
         22   -1    0    0    0    0 -0.00000000000E+00 -0.00000000000E+00 -0.76088039340E+00  0.76088039340E+00  0.00000000000E+00 0.  1.
          4    1    1    2  501    0  0.24342425357E-02 -0.16913911341E+01  0.23265121740E+01  0.31442596569E+01  0.12700000000E+01 0.  1.
         -4    1    1    2    0  501 -0.24342425357E-02  0.16913911341E+01  0.28252840818E+01  0.35292973857E+01  0.12700000000E+01 0.  1.
<mgrwt>
<rscale>  0 0.21151146E+01</rscale>
<asrwt>0</asrwt>
<pdfrwt beam="1">0</pdfrwt>
<pdfrwt beam="2">0</pdfrwt>
<totfact> 0.40697636E+12</totfact>
</mgrwt>
</event>
<event>
 4    1  0.3324394E+006  0.3106110E+01  0.7546771E-02  0.2489676E+00
         22   -1    0    0    0    0  0.00000000000E+00  0.00000000000E+00  0.13140430072E+02  0.13140430072E+02  0.00000000000E+00 0. -1.
         22   -1    0    0    0    0 -0.00000000000E+00 -0.00000000000E+00 -0.92487279273E+00  0.92487279273E+00  0.00000000000E+00 0. -1.
          4    1    1    2  501    0 -0.26943943352E+01 -0.88048814209E+00  0.29147435222E+01  0.42595363600E+01  0.12700000000E+01 0. -1.
         -4    1    1    2    0  501  0.26943943352E+01  0.88048814209E+00  0.93008137575E+01  0.98057665051E+01  0.12700000000E+01 0. -1.
<mgrwt>
<rscale>  0 0.31061101E+01</rscale>
<asrwt>0</asrwt>
<pdfrwt beam="1">0</pdfrwt>
<pdfrwt beam="2">0</pdfrwt>
<totfact> 0.12441231E+12</totfact>
</mgrwt>
</event>
<event>
 4    1  0.3324394E+006  0.2298851E+01  0.7546771E-02  0.2804452E+00
         22   -1    0    0    0    0  0.00000000000E+00  0.00000000000E+00  0.51371041126E+00  0.51371041126E+00  0.00000000000E+00 0.  1.
         22   -1    0    0    0    0 -0.00000000000E+00 -0.00000000000E+00 -0.10339691425E+02  0.10339691425E+02  0.00000000000E+00 0. -1.
          4    1    1    2  501    0 -0.19142888500E+01 -0.85510502215E-01 -0.45268504485E+01  0.50771142227E+01  0.12700000000E+01 0.  1.
         -4    1    1    2    0  501  0.19142888500E+01  0.85510502215E-01 -0.52991305651E+01  0.57762876134E+01  0.12700000000E+01 0.  1.
<mgrwt>
<rscale>  0 0.22988505E+01</rscale>
<asrwt>0</asrwt>
<pdfrwt beam="1">0</pdfrwt>
<pdfrwt beam="2">0</pdfrwt>
<totfact> 0.32467747E+12</totfact>
</mgrwt>
</event>
<event>
 4    1  0.3324394E+006  0.2310425E+01  0.7546771E-02  0.2798506E+00
         22   -1    0    0    0    0  0.00000000000E+00  0.00000000000E+00  0.37926700710E+01  0.37926700710E+01  0.00000000000E+00 0.  1.
         22   -1    0    0    0    0 -0.00000000000E+00 -0.00000000000E+00 -0.16342847289E+01  0.16342847289E+01  0.00000000000E+00 0. -1.
          4    1    1    2  501    0 -0.13795886720E+01 -0.13497765959E+01  0.68312010191E-01  0.23114342503E+01  0.12700000000E+01 0. -1.
         -4    1    1    2    0  501  0.13795886720E+01  0.13497765959E+01  0.20900733319E+01  0.31155205497E+01  0.12700000000E+01 0.  1.
<mgrwt>
<rscale>  0 0.23104246E+01</rscale>
<asrwt>0</asrwt>
<pdfrwt beam="1">0</pdfrwt>
<pdfrwt beam="2">0</pdfrwt>
<totfact> 0.28684200E+12</totfact>
</mgrwt>
</event>
<event>
 4    1  0.3324394E+006  0.2163016E+01  0.7546771E-02  0.2878751E+00
         22   -1    0    0    0    0  0.00000000000E+00  0.00000000000E+00  0.97400826630E+01  0.97400826630E+01  0.00000000000E+00 0.  1.
         22   -1    0    0    0    0 -0.00000000000E+00 -0.00000000000E+00 -0.56202667117E+00  0.56202667117E+00  0.00000000000E+00 0.  1.
          4    1    1    2  501    0  0.16593801441E+01 -0.55874440776E+00  0.26253526182E+01  0.34016340405E+01  0.12700000000E+01 0.  1.
         -4    1    1    2    0  501 -0.16593801441E+01  0.55874440776E+00  0.65527033736E+01  0.69004752936E+01  0.12700000000E+01 0.  1.
<mgrwt>
<rscale>  0 0.21630159E+01</rscale>
<asrwt>0</asrwt>
<pdfrwt beam="1">0</pdfrwt>
<pdfrwt beam="2">0</pdfrwt>
<totfact> 0.31530476E+12</totfact>
</mgrwt>
</event>
<event>
 4    1  0.3324394E+006  0.4076113E+01  0.7546771E-02  0.2262977E+00
         22   -1    0    0    0    0  0.00000000000E+00  0.00000000000E+00  0.32009982929E+00  0.32009982929E+00  0.00000000000E+00 0.  1.
         22   -1    0    0    0    0 -0.00000000000E+00 -0.00000000000E+00 -0.53749955455E+02  0.53749955455E+02  0.00000000000E+00 0. -1.
          4    1    1    2  501    0  0.27187205341E+01 -0.27586880567E+01 -0.31724034760E+02  0.31984825818E+02  0.12700000000E+01 0. -1.
         -4    1    1    2    0  501 -0.27187205341E+01  0.27586880567E+01 -0.21705820866E+02  0.22085229467E+02  0.12700000000E+01 0.  1.
<mgrwt>
<rscale>  0 0.40761135E+01</rscale>
<asrwt>0</asrwt>
<pdfrwt beam="1">0</pdfrwt>
<pdfrwt beam="2">0</pdfrwt>
<totfact> 0.69153162E+11</totfact>
</mgrwt>
</event>
<event>
 4    1  0.3324394E+006  0.3617660E+01  0.7546771E-02  0.2356937E+00
         22   -1    0    0    0    0  0.00000000000E+00  0.00000000000E+00  0.78902614743E+00  0.78902614743E+00  0.00000000000E+00 0.  1.
         22   -1    0    0    0    0 -0.00000000000E+00 -0.00000000000E+00 -0.16630813522E+02  0.16630813522E+02  0.00000000000E+00 0. -1.
          4    1    1    2  501    0 -0.33844788224E+01  0.14094429265E+00 -0.83686890690E+01  0.91171497151E+01  0.12700000000E+01 0. -1.
         -4    1    1    2    0  501  0.33844788224E+01 -0.14094429265E+00 -0.74730983051E+01  0.83026899539E+01  0.12700000000E+01 0.  1.
<mgrwt>
<rscale>  0 0.36176598E+01</rscale>
<asrwt>0</asrwt>
<pdfrwt beam="1">0</pdfrwt>
<pdfrwt beam="2">0</pdfrwt>
<totfact> 0.11158688E+12</totfact>
</mgrwt>
</event>
<event>
 4    1  0.3324394E+006  0.2237509E+01  0.7546771E-02  0.2836938E+00
         22   -1    0    0    0    0  0.00000000000E+00  0.00000000000E+00  0.34292845204E+00  0.34292845204E+00  0.00000000000E+00 0.  1.
         22   -1    0    0    0    0 -0.00000000000E+00 -0.00000000000E+00 -0.14620105430E+02  0.14620105430E+02  0.00000000000E+00 0. -1.
          4    1    1    2  501    0  0.52361791137E+00 -0.17661734456E+01 -0.74222188667E+01  0.77521466229E+01  0.12700000000E+01 0. -1.
         -4    1    1    2    0  501 -0.52361791137E+00  0.17661734456E+01 -0.68549581111E+01  0.72108872591E+01  0.12700000000E+01 0.  1.
<mgrwt>
<rscale>  0 0.22375085E+01</rscale>
<asrwt>0</asrwt>
<pdfrwt beam="1">0</pdfrwt>
<pdfrwt beam="2">0</pdfrwt>
<totfact> 0.33536416E+12</totfact>
</mgrwt>
</event>
<event>
 4    1  0.3324394E+006  0.3088093E+01  0.7546771E-02  0.2495054E+00
         22   -1    0    0    0    0  0.00000000000E+00  0.00000000000E+00  0.86846779034E+01  0.86846779034E+01  0.00000000000E+00 0.  1.
         22   -1    0    0    0    0 -0.00000000000E+00 -0.00000000000E+00 -0.14275750758E+01  0.14275750758E+01  0.00000000000E+00 0. -1.
          4    1    1    2  501    0 -0.58438438579E+00  0.27535275522E+01  0.11994007515E+01  0.33128358326E+01  0.12700000000E+01 0. -1.
         -4    1    1    2    0  501  0.58438438579E+00 -0.27535275522E+01  0.60577020761E+01  0.67994171467E+01  0.12700000000E+01 0.  1.
<mgrwt>
<rscale>  0 0.30880931E+01</rscale>
<asrwt>0</asrwt>
<pdfrwt beam="1">0</pdfrwt>
<pdfrwt beam="2">0</pdfrwt>
<totfact> 0.12513673E+12</totfact>
</mgrwt>
</event>
<event>
 4    1  0.3324394E+006  0.2029015E+01  0.7546771E-02  0.2961411E+00
         22   -1    0    0    0    0  0.00000000000E+00  0.00000000000E+00  0.18100020716E+01  0.18100020716E+01  0.00000000000E+00 0. -1.
         22   -1    0    0    0    0 -0.00000000000E+00 -0.00000000000E+00 -0.32482903917E+01  0.32482903917E+01  0.00000000000E+00 0. -1.
          4    1    1    2  501    0  0.64470837853E+00  0.14451136502E+01 -0.21038986227E+01  0.29228909952E+01  0.12700000000E+01 0. -1.
         -4    1    1    2    0  501 -0.64470837853E+00 -0.14451136502E+01  0.66561030255E+00  0.21354014681E+01  0.12700000000E+01 0. -1.
<mgrwt>
<rscale>  0 0.20290151E+01</rscale>
<asrwt>0</asrwt>
<pdfrwt beam="1">0</pdfrwt>
<pdfrwt beam="2">0</pdfrwt>
<totfact> 0.30574392E+12</totfact>
</mgrwt>
</event>
<event>
 4    1  0.3324394E+006  0.4022073E+01  0.7546771E-02  0.2273095E+00
         22   -1    0    0    0    0  0.00000000000E+00  0.00000000000E+00  0.41585502742E+00  0.41585502742E+00  0.00000000000E+00 0. -1.
         22   -1    0    0    0    0 -0.00000000000E+00 -0.00000000000E+00 -0.86908410115E+02  0.86908410115E+02  0.00000000000E+00 0.  1.
          4    1    1    2  501    0 -0.32010674551E+01  0.20778213771E+01 -0.75697367507E+02  0.75804145810E+02  0.12700000000E+01 0.  1.
         -4    1    1    2    0  501  0.32010674551E+01 -0.20778213771E+01 -0.10795187580E+02  0.11520119332E+02  0.12700000000E+01 0. -1.
<mgrwt>
<rscale>  0 0.40220734E+01</rscale>
<asrwt>0</asrwt>
<pdfrwt beam="1">0</pdfrwt>
<pdfrwt beam="2">0</pdfrwt>
<totfact> 0.26875095E+11</totfact>
</mgrwt>
</event>
<event>
 4    1  0.3324394E+006  0.2243282E+01  0.7546771E-02  0.2833808E+00
         22   -1    0    0    0    0  0.00000000000E+00  0.00000000000E+00  0.40378842109E+01  0.40378842109E+01  0.00000000000E+00 0.  1.
         22   -1    0    0    0    0 -0.00000000000E+00 -0.00000000000E+00 -0.15117707130E+01  0.15117707130E+01  0.00000000000E+00 0. -1.
          4    1    1    2  501    0 -0.18148373771E+01 -0.35465105877E+00  0.10021077094E+00  0.22455187101E+01  0.12700000000E+01 0. -1.
         -4    1    1    2    0  501  0.18148373771E+01  0.35465105877E+00  0.24259027270E+01  0.33041362138E+01  0.12700000000E+01 0.  1.
<mgrwt>
<rscale>  0 0.22432815E+01</rscale>
<asrwt>0</asrwt>
<pdfrwt beam="1">0</pdfrwt>
<pdfrwt beam="2">0</pdfrwt>
<totfact> 0.29148387E+12</totfact>
</mgrwt>
</event>
<event>
 4    1  0.3324394E+006  0.2093804E+01  0.7546771E-02  0.2920163E+00
         22   -1    0    0    0    0  0.00000000000E+00  0.00000000000E+00  0.13278243100E+02  0.13278243100E+02  0.00000000000E+00 0. -1.
         22   -1    0    0    0    0 -0.00000000000E+00 -0.00000000000E+00 -0.33385951661E+00  0.33385951661E+00  0.00000000000E+00 0.  1.
          4    1    1    2  501    0  0.99339471920E+00  0.13357698062E+01  0.57562474389E+01  0.61252264139E+01  0.12700000000E+01 0.  1.
         -4    1    1    2    0  501 -0.99339471920E+00 -0.13357698062E+01  0.71881361443E+01  0.74868762025E+01  0.12700000000E+01 0. -1.
<mgrwt>
<rscale>  0 0.20938037E+01</rscale>
<asrwt>0</asrwt>
<pdfrwt beam="1">0</pdfrwt>
<pdfrwt beam="2">0</pdfrwt>
<totfact> 0.38892395E+12</totfact>
</mgrwt>
</event>
<event>
 4    1  0.3324394E+006  0.3698239E+01  0.7546771E-02  0.2338976E+00
         22   -1    0    0    0    0  0.00000000000E+00  0.00000000000E+00  0.15364860875E+02  0.15364860875E+02  0.00000000000E+00 0. -1.
         22   -1    0    0    0    0 -0.00000000000E+00 -0.00000000000E+00 -0.21294048608E+01  0.21294048608E+01  0.00000000000E+00 0.  1.
          4    1    1    2  501    0 -0.34698253629E+01  0.15614795201E+00 -0.55217992929E-01  0.36986510053E+01  0.12700000000E+01 0.  1.
         -4    1    1    2    0  501  0.34698253629E+01 -0.15614795201E+00  0.13290674007E+02  0.13795614731E+02  0.12700000000E+01 0. -1.
<mgrwt>
<rscale>  0 0.36982388E+01</rscale>
<asrwt>0</asrwt>
<pdfrwt beam="1">0</pdfrwt>
<pdfrwt beam="2">0</pdfrwt>
<totfact> 0.39374708E+11</totfact>
</mgrwt>
</event>
<event>
 4    1  0.3324394E+006  0.3369750E+01  0.7546771E-02  0.2416843E+00
         22   -1    0    0    0    0  0.00000000000E+00  0.00000000000E+00  0.12013078528E+02  0.12013078528E+02  0.00000000000E+00 0.  1.
         22   -1    0    0    0    0 -0.00000000000E+00 -0.00000000000E+00 -0.11417928867E+01  0.11417928867E+01  0.00000000000E+00 0.  1.
          4    1    1    2  501    0 -0.18823976705E+01 -0.24897578909E+01  0.27066327292E+01  0.43221610423E+01  0.12700000000E+01 0.  1.
         -4    1    1    2    0  501  0.18823976705E+01  0.24897578909E+01  0.81646529118E+01  0.88327103720E+01  0.12700000000E+01 0.  1.
<mgrwt>
<rscale>  0 0.33697500E+01</rscale>
<asrwt>0</asrwt>
<pdfrwt beam="1">0</pdfrwt>
<pdfrwt beam="2">0</pdfrwt>
<totfact> 0.10912002E+12</totfact>
</mgrwt>
</event>
<event>
 4    1  0.3324394E+006  0.2708926E+01  0.7546771E-02  0.2623022E+00
         22   -1    0    0    0    0  0.00000000000E+00  0.00000000000E+00  0.22947501036E+01  0.22947501036E+01  0.00000000000E+00 0. -1.
         22   -1    0    0    0    0 -0.00000000000E+00 -0.00000000000E+00 -0.33590162868E+01  0.33590162868E+01  0.00000000000E+00 0.  1.
          4    1    1    2  501    0  0.75626909203E-01 -0.23915810346E+01 -0.11513338486E+01  0.29434416769E+01  0.12700000000E+01 0.  1.
         -4    1    1    2    0  501 -0.75626909203E-01  0.23915810346E+01  0.87067665464E-01  0.27103247135E+01  0.12700000000E+01 0. -1.
<mgrwt>
<rscale>  0 0.27089259E+01</rscale>
<asrwt>0</asrwt>
<pdfrwt beam="1">0</pdfrwt>
<pdfrwt beam="2">0</pdfrwt>
<totfact> 0.22336774E+12</totfact>
</mgrwt>
</event>
<event>
 4    1  0.3324394E+006  0.2200733E+01  0.7546771E-02  0.2857241E+00
         22   -1    0    0    0    0  0.00000000000E+00  0.00000000000E+00  0.71354893598E-01  0.71354893598E-01  0.00000000000E+00 0.  1.
         22   -1    0    0    0    0 -0.00000000000E+00 -0.00000000000E+00 -0.83053693555E+02  0.83053693555E+02  0.00000000000E+00 0. -1.
          4    1    1    2  501    0  0.15631101897E+01 -0.88713703399E+00 -0.59259114072E+02  0.59299964808E+02  0.12700000000E+01 0. -1.
         -4    1    1    2    0  501 -0.15631101897E+01  0.88713703399E+00 -0.23723224589E+02  0.23825083640E+02  0.12700000000E+01 0.  1.
<mgrwt>
<rscale>  0 0.22007330E+01</rscale>
<asrwt>0</asrwt>
<pdfrwt beam="1">0</pdfrwt>
<pdfrwt beam="2">0</pdfrwt>
<totfact> 0.20385638E+12</totfact>
</mgrwt>
</event>
<event>
 4    1  0.3324394E+006  0.2551258E+01  0.7546771E-02  0.2686354E+00
         22   -1    0    0    0    0  0.00000000000E+00  0.00000000000E+00  0.49592496256E+00  0.49592496256E+00  0.00000000000E+00 0.  1.
         22   -1    0    0    0    0 -0.00000000000E+00 -0.00000000000E+00 -0.31557722874E+02  0.31557722874E+02  0.00000000000E+00 0. -1.
          4    1    1    2  501    0 -0.15153768966E+01 -0.16123431753E+01 -0.27779646932E+02  0.27896553574E+02  0.12700000000E+01 0. -1.
         -4    1    1    2    0  501  0.15153768966E+01  0.16123431753E+01 -0.32821509793E+01  0.41570942622E+01  0.12700000000E+01 0.  1.
<mgrwt>
<rscale>  0 0.25512581E+01</rscale>
<asrwt>0</asrwt>
<pdfrwt beam="1">0</pdfrwt>
<pdfrwt beam="2">0</pdfrwt>
<totfact> 0.84467325E+11</totfact>
</mgrwt>
</event>
<event>
 4    1  0.3324394E+006  0.2034476E+01  0.7546771E-02  0.2957835E+00
         22   -1    0    0    0    0  0.00000000000E+00  0.00000000000E+00  0.59499727311E+00  0.59499727311E+00  0.00000000000E+00 0. -1.
         22   -1    0    0    0    0 -0.00000000000E+00 -0.00000000000E+00 -0.97651452781E+01  0.97651452781E+01  0.00000000000E+00 0.  1.
          4    1    1    2  501    0 -0.71441685112E+00 -0.14197887758E+01 -0.73631602681E+01  0.76390588909E+01  0.12700000000E+01 0. -1.
         -4    1    1    2    0  501  0.71441685112E+00  0.14197887758E+01 -0.18069877369E+01  0.27210836603E+01  0.12700000000E+01 0. -1.
<mgrwt>
<rscale>  0 0.20344758E+01</rscale>
<asrwt>0</asrwt>
<pdfrwt beam="1">0</pdfrwt>
<pdfrwt beam="2">0</pdfrwt>
<totfact> 0.29467593E+12</totfact>
</mgrwt>
</event>
<event>
 4    1  0.3324394E+006  0.2369306E+01  0.7546771E-02  0.2769112E+00
         22   -1    0    0    0    0  0.00000000000E+00  0.00000000000E+00  0.87842696928E+00  0.87842696928E+00  0.00000000000E+00 0. -1.
         22   -1    0    0    0    0 -0.00000000000E+00 -0.00000000000E+00 -0.10904389064E+02  0.10904389064E+02  0.00000000000E+00 0.  1.
          4    1    1    2  501    0 -0.13434537005E+01 -0.14818383881E+01 -0.88034460130E+01  0.91167030530E+01  0.12700000000E+01 0.  1.
         -4    1    1    2    0  501  0.13434537005E+01  0.14818383881E+01 -0.12225160819E+01  0.26661129804E+01  0.12700000000E+01 0. -1.
<mgrwt>
<rscale>  0 0.23693064E+01</rscale>
<asrwt>0</asrwt>
<pdfrwt beam="1">0</pdfrwt>
<pdfrwt beam="2">0</pdfrwt>
<totfact> 0.16562361E+12</totfact>
</mgrwt>
</event>
<event>
 4    1  0.3324394E+006  0.6747192E+01  0.7546771E-02  0.1958518E+00
         22   -1    0    0    0    0  0.00000000000E+00  0.00000000000E+00  0.93756388690E+01  0.93756388690E+01  0.00000000000E+00 0. -1.
         22   -1    0    0    0    0 -0.00000000000E+00 -0.00000000000E+00 -0.78984135858E+01  0.78984135858E+01  0.00000000000E+00 0.  1.
          4    1    1    2  501    0  0.55540289929E+01 -0.36144800366E+01 -0.46221929615E+01  0.81785861714E+01  0.12700000000E+01 0.  1.
         -4    1    1    2    0  501 -0.55540289929E+01  0.36144800366E+01  0.60994182447E+01  0.90954662835E+01  0.12700000000E+01 0. -1.
<mgrwt>
<rscale>  0 0.67471923E+01</rscale>
<asrwt>0</asrwt>
<pdfrwt beam="1">0</pdfrwt>
<pdfrwt beam="2">0</pdfrwt>
<totfact> 0.15347674E+11</totfact>
</mgrwt>
</event>
<event>
 4    1  0.3324394E+006  0.2903842E+01  0.7546771E-02  0.2553468E+00
         22   -1    0    0    0    0  0.00000000000E+00  0.00000000000E+00  0.95476084081E+01  0.95476084081E+01  0.00000000000E+00 0.  1.
         22   -1    0    0    0    0 -0.00000000000E+00 -0.00000000000E+00 -0.17203911552E+01  0.17203911552E+01  0.00000000000E+00 0. -1.
          4    1    1    2  501    0  0.21072234207E+01  0.15424038846E+01 -0.16635676734E-01  0.29038899831E+01  0.12700000000E+01 0. -1.
         -4    1    1    2    0  501 -0.21072234207E+01 -0.15424038846E+01  0.78438529296E+01  0.83641095802E+01  0.12700000000E+01 0.  1.
<mgrwt>
<rscale>  0 0.29038423E+01</rscale>
<asrwt>0</asrwt>
<pdfrwt beam="1">0</pdfrwt>
<pdfrwt beam="2">0</pdfrwt>
<totfact> 0.90036446E+11</totfact>
</mgrwt>
</event>
<event>
 4    1  0.3324394E+006  0.2485045E+01  0.7546771E-02  0.2715160E+00
         22   -1    0    0    0    0  0.00000000000E+00  0.00000000000E+00  0.12866865848E+01  0.12866865848E+01  0.00000000000E+00 0.  1.
         22   -1    0    0    0    0 -0.00000000000E+00 -0.00000000000E+00 -0.57594728451E+01  0.57594728451E+01  0.00000000000E+00 0. -1.
          4    1    1    2  501    0 -0.16769908914E+01 -0.13229708522E+01 -0.36747310069E+01  0.44361129718E+01  0.12700000000E+01 0. -1.
         -4    1    1    2    0  501  0.16769908914E+01  0.13229708522E+01 -0.79805525342E+00  0.26100464580E+01  0.12700000000E+01 0.  1.
<mgrwt>
<rscale>  0 0.24850453E+01</rscale>
<asrwt>0</asrwt>
<pdfrwt beam="1">0</pdfrwt>
<pdfrwt beam="2">0</pdfrwt>
<totfact> 0.23048511E+12</totfact>
</mgrwt>
</event>
<event>
 4    1  0.3324394E+006  0.2342326E+01  0.7546771E-02  0.2782407E+00
         22   -1    0    0    0    0  0.00000000000E+00  0.00000000000E+00  0.26110863210E+01  0.26110863210E+01  0.00000000000E+00 0. -1.
         22   -1    0    0    0    0 -0.00000000000E+00 -0.00000000000E+00 -0.23919748541E+01  0.23919748541E+01  0.00000000000E+00 0. -1.
          4    1    1    2  501    0 -0.19516407854E+01  0.25434405536E+00  0.98169051014E+00  0.25397261489E+01  0.12700000000E+01 0. -1.
         -4    1    1    2    0  501  0.19516407854E+01 -0.25434405536E+00 -0.76257904322E+00  0.24633350261E+01  0.12700000000E+01 0. -1.
<mgrwt>
<rscale>  0 0.23423263E+01</rscale>
<asrwt>0</asrwt>
<pdfrwt beam="1">0</pdfrwt>
<pdfrwt beam="2">0</pdfrwt>
<totfact> 0.28564696E+12</totfact>
</mgrwt>
</event>
<event>
 4    1  0.3324394E+006  0.2040510E+01  0.7546771E-02  0.2953906E+00
         22   -1    0    0    0    0  0.00000000000E+00  0.00000000000E+00  0.33650263528E+02  0.33650263528E+02  0.00000000000E+00 0. -1.
         22   -1    0    0    0    0 -0.00000000000E+00 -0.00000000000E+00 -0.43716089574E+00  0.43716089574E+00  0.00000000000E+00 0.  1.
          4    1    1    2  501    0  0.14598563263E+00  0.15904305695E+01  0.21750444640E+01  0.29823647701E+01  0.12700000000E+01 0.  1.
         -4    1    1    2    0  501 -0.14598563263E+00 -0.15904305695E+01  0.31038058168E+02  0.31105059653E+02  0.12700000000E+01 0. -1.
<mgrwt>
<rscale>  0 0.20405100E+01</rscale>
<asrwt>0</asrwt>
<pdfrwt beam="1">0</pdfrwt>
<pdfrwt beam="2">0</pdfrwt>
<totfact> 0.89685278E+11</totfact>
</mgrwt>
</event>
<event>
 4    1  0.3324394E+006  0.3960370E+01  0.7546771E-02  0.2284934E+00
         22   -1    0    0    0    0  0.00000000000E+00  0.00000000000E+00  0.90677586566E+00  0.90677586566E+00  0.00000000000E+00 0. -1.
         22   -1    0    0    0    0 -0.00000000000E+00 -0.00000000000E+00 -0.18357102521E+02  0.18357102521E+02  0.00000000000E+00 0.  1.
          4    1    1    2  501    0  0.52681884877E+00 -0.37140404307E+01 -0.11039775906E+02  0.11728648110E+02  0.12700000000E+01 0.  1.
         -4    1    1    2    0  501 -0.52681884877E+00  0.37140404307E+01 -0.64105507489E+01  0.75352302769E+01  0.12700000000E+01 0. -1.
<mgrwt>
<rscale>  0 0.39603705E+01</rscale>
<asrwt>0</asrwt>
<pdfrwt beam="1">0</pdfrwt>
<pdfrwt beam="2">0</pdfrwt>
<totfact> 0.84272536E+11</totfact>
</mgrwt>
</event>
<event>
 4    1  0.3324394E+006  0.2736084E+01  0.7546771E-02  0.2612791E+00
         22   -1    0    0    0    0  0.00000000000E+00  0.00000000000E+00  0.12092099945E+01  0.12092099945E+01  0.00000000000E+00 0.  1.
         22   -1    0    0    0    0 -0.00000000000E+00 -0.00000000000E+00 -0.65075360341E+01  0.65075360341E+01  0.00000000000E+00 0. -1.
          4    1    1    2  501    0  0.20060074764E+01  0.13598492234E+01 -0.35001900101E+01  0.44426890520E+01  0.12700000000E+01 0.  1.
         -4    1    1    2    0  501 -0.20060074764E+01 -0.13598492234E+01 -0.17981360295E+01  0.32740569767E+01  0.12700000000E+01 0. -1.
<mgrwt>
<rscale>  0 0.27360840E+01</rscale>
<asrwt>0</asrwt>
<pdfrwt beam="1">0</pdfrwt>
<pdfrwt beam="2">0</pdfrwt>
<totfact> 0.21399464E+12</totfact>
</mgrwt>
</event>
<event>
 4    1  0.3324394E+006  0.2212848E+01  0.7546771E-02  0.2850481E+00
         22   -1    0    0    0    0  0.00000000000E+00  0.00000000000E+00  0.10213536007E+02  0.10213536007E+02  0.00000000000E+00 0. -1.
         22   -1    0    0    0    0 -0.00000000000E+00 -0.00000000000E+00 -0.60623882247E+00  0.60623882247E+00  0.00000000000E+00 0. -1.
          4    1    1    2  501    0 -0.11278207890E+01  0.14183845040E+01  0.72778664863E+01  0.76068413238E+01  0.12700000000E+01 0. -1.
         -4    1    1    2    0  501  0.11278207890E+01 -0.14183845040E+01  0.23294306979E+01  0.32129335053E+01  0.12700000000E+01 0. -1.
<mgrwt>
<rscale>  0 0.22128476E+01</rscale>
<asrwt>0</asrwt>
<pdfrwt beam="1">0</pdfrwt>
<pdfrwt beam="2">0</pdfrwt>
<totfact> 0.27324523E+12</totfact>
</mgrwt>
</event>
<event>
 4    1  0.3324394E+006  0.2364866E+01  0.7546771E-02  0.2771280E+00
         22   -1    0    0    0    0  0.00000000000E+00  0.00000000000E+00  0.12842641794E+01  0.12842641794E+01  0.00000000000E+00 0.  1.
         22   -1    0    0    0    0 -0.00000000000E+00 -0.00000000000E+00 -0.45518441575E+01  0.45518441575E+01  0.00000000000E+00 0.  1.
          4    1    1    2  501    0  0.18664001049E+01 -0.70444379615E+00 -0.10265125319E+01  0.25780454596E+01  0.12700000000E+01 0.  1.
         -4    1    1    2    0  501 -0.18664001049E+01  0.70444379615E+00 -0.22410674463E+01  0.32580628773E+01  0.12700000000E+01 0.  1.
<mgrwt>
<rscale>  0 0.23648658E+01</rscale>
<asrwt>0</asrwt>
<pdfrwt beam="1">0</pdfrwt>
<pdfrwt beam="2">0</pdfrwt>
<totfact> 0.30525420E+12</totfact>
</mgrwt>
</event>
<event>
 4    1  0.3324394E+006  0.2876479E+01  0.7546771E-02  0.2562716E+00
         22   -1    0    0    0    0  0.00000000000E+00  0.00000000000E+00  0.77082772737E+01  0.77082772737E+01  0.00000000000E+00 0. -1.
         22   -1    0    0    0    0 -0.00000000000E+00 -0.00000000000E+00 -0.11313597969E+01  0.11313597969E+01  0.00000000000E+00 0. -1.
          4    1    1    2  501    0  0.18761545475E+01 -0.17723649702E+01  0.22881498517E+01  0.36755629797E+01  0.12700000000E+01 0. -1.
         -4    1    1    2    0  501 -0.18761545475E+01  0.17723649702E+01  0.42887676251E+01  0.51640740908E+01  0.12700000000E+01 0. -1.
<mgrwt>
<rscale>  0 0.28764794E+01</rscale>
<asrwt>0</asrwt>
<pdfrwt beam="1">0</pdfrwt>
<pdfrwt beam="2">0</pdfrwt>
<totfact> 0.18858283E+12</totfact>
</mgrwt>
</event>
<event>
 4    1  0.3324394E+006  0.2181704E+01  0.7546771E-02  0.2868004E+00
         22   -1    0    0    0    0  0.00000000000E+00  0.00000000000E+00  0.12306169133E+01  0.12306169133E+01  0.00000000000E+00 0.  1.
         22   -1    0    0    0    0 -0.00000000000E+00 -0.00000000000E+00 -0.39409705595E+01  0.39409705595E+01  0.00000000000E+00 0. -1.
          4    1    1    2  501    0 -0.12793177511E+01  0.12289337661E+01 -0.17074138489E+01  0.27703960296E+01  0.12700000000E+01 0.  1.
         -4    1    1    2    0  501  0.12793177511E+01 -0.12289337661E+01 -0.10029397974E+01  0.24011914432E+01  0.12700000000E+01 0. -1.
<mgrwt>
<rscale>  0 0.21817039E+01</rscale>
<asrwt>0</asrwt>
<pdfrwt beam="1">0</pdfrwt>
<pdfrwt beam="2">0</pdfrwt>
<totfact> 0.37989099E+12</totfact>
</mgrwt>
</event>
<event>
 4    1  0.3324394E+006  0.2499868E+01  0.7546771E-02  0.2708588E+00
         22   -1    0    0    0    0  0.00000000000E+00  0.00000000000E+00  0.89632992022E+00  0.89632992022E+00  0.00000000000E+00 0. -1.
         22   -1    0    0    0    0 -0.00000000000E+00 -0.00000000000E+00 -0.11631851072E+02  0.11631851072E+02  0.00000000000E+00 0.  1.
          4    1    1    2  501    0  0.11407422626E+01 -0.18262383592E+01 -0.93324850293E+01  0.96615017609E+01  0.12700000000E+01 0.  1.
         -4    1    1    2    0  501 -0.11407422626E+01  0.18262383592E+01 -0.14030361225E+01  0.28666792313E+01  0.12700000000E+01 0. -1.
<mgrwt>
<rscale>  0 0.24998679E+01</rscale>
<asrwt>0</asrwt>
<pdfrwt beam="1">0</pdfrwt>
<pdfrwt beam="2">0</pdfrwt>
<totfact> 0.14963316E+12</totfact>
</mgrwt>
</event>
<event>
 4    1  0.3324394E+006  0.2241959E+01  0.7546771E-02  0.2834524E+00
         22   -1    0    0    0    0  0.00000000000E+00  0.00000000000E+00  0.80553898262E+01  0.80553898262E+01  0.00000000000E+00 0.  1.
         22   -1    0    0    0    0 -0.00000000000E+00 -0.00000000000E+00 -0.19451774700E+01  0.19451774700E+01  0.00000000000E+00 0. -1.
          4    1    1    2  501    0 -0.38723938386E+00 -0.18065232887E+01 -0.10658626475E+01  0.24824270214E+01  0.12700000000E+01 0. -1.
         -4    1    1    2    0  501  0.38723938386E+00  0.18065232887E+01  0.71760750037E+01  0.75181402748E+01  0.12700000000E+01 0.  1.
<mgrwt>
<rscale>  0 0.22419591E+01</rscale>
<asrwt>0</asrwt>
<pdfrwt beam="1">0</pdfrwt>
<pdfrwt beam="2">0</pdfrwt>
<totfact> 0.95882250E+11</totfact>
</mgrwt>
</event>
<event>
 4    1  0.3324394E+006  0.2047618E+01  0.7546771E-02  0.2949307E+00
         22   -1    0    0    0    0  0.00000000000E+00  0.00000000000E+00  0.51900380799E+00  0.51900380799E+00  0.00000000000E+00 0.  1.
         22   -1    0    0    0    0 -0.00000000000E+00 -0.00000000000E+00 -0.42546487521E+02  0.42546487521E+02  0.00000000000E+00 0. -1.
          4    1    1    2  501    0 -0.26665331665E+00  0.15838991451E+01 -0.40394729462E+02  0.40446593290E+02  0.12700000000E+01 0. -1.
         -4    1    1    2    0  501  0.26665331665E+00 -0.15838991451E+01 -0.16327542515E+01  0.26188980391E+01  0.12700000000E+01 0.  1.
<mgrwt>
<rscale>  0 0.20476182E+01</rscale>
<asrwt>0</asrwt>
<pdfrwt beam="1">0</pdfrwt>
<pdfrwt beam="2">0</pdfrwt>
<totfact> 0.54560864E+11</totfact>
</mgrwt>
</event>
<event>
 4    1  0.3324394E+006  0.2593755E+01  0.7546771E-02  0.2668586E+00
         22   -1    0    0    0    0  0.00000000000E+00  0.00000000000E+00  0.74359631747E+00  0.74359631747E+00  0.00000000000E+00 0.  1.
         22   -1    0    0    0    0 -0.00000000000E+00 -0.00000000000E+00 -0.11583602781E+02  0.11583602781E+02  0.00000000000E+00 0. -1.
          4    1    1    2  501    0  0.16212240055E+01 -0.15768003101E+01 -0.25359055493E+01  0.36274486142E+01  0.12700000000E+01 0.  1.
         -4    1    1    2    0  501 -0.16212240055E+01  0.15768003101E+01 -0.83041009146E+01  0.86997504846E+01  0.12700000000E+01 0. -1.
<mgrwt>
<rscale>  0 0.25937553E+01</rscale>
<asrwt>0</asrwt>
<pdfrwt beam="1">0</pdfrwt>
<pdfrwt beam="2">0</pdfrwt>
<totfact> 0.18601807E+12</totfact>
</mgrwt>
</event>
<event>
 4    1  0.3324394E+006  0.2167599E+01  0.7546771E-02  0.2876099E+00
         22   -1    0    0    0    0  0.00000000000E+00  0.00000000000E+00  0.22932258028E+01  0.22932258028E+01  0.00000000000E+00 0. -1.
         22   -1    0    0    0    0 -0.00000000000E+00 -0.00000000000E+00 -0.26775539057E+01  0.26775539057E+01  0.00000000000E+00 0. -1.
          4    1    1    2  501    0 -0.20020807043E+00  0.17451366030E+01 -0.13964984218E+01  0.25785059388E+01  0.12700000000E+01 0. -1.
         -4    1    1    2    0  501  0.20020807043E+00 -0.17451366030E+01  0.10121703189E+01  0.23922737697E+01  0.12700000000E+01 0. -1.
<mgrwt>
<rscale>  0 0.21675989E+01</rscale>
<asrwt>0</asrwt>
<pdfrwt beam="1">0</pdfrwt>
<pdfrwt beam="2">0</pdfrwt>
<totfact> 0.29131858E+12</totfact>
</mgrwt>
</event>
<event>
 4    1  0.3324394E+006  0.2459250E+01  0.7546771E-02  0.2726773E+00
         22   -1    0    0    0    0  0.00000000000E+00  0.00000000000E+00  0.51262765847E+02  0.51262765847E+02  0.00000000000E+00 0.  1.
         22   -1    0    0    0    0 -0.00000000000E+00 -0.00000000000E+00 -0.46148644494E+00  0.46148644494E+00  0.00000000000E+00 0. -1.
          4    1    1    2  501    0 -0.11901121598E+01  0.17374247868E+01  0.30878922306E+01  0.39475296415E+01  0.12700000000E+01 0. -1.
         -4    1    1    2    0  501  0.11901121598E+01 -0.17374247868E+01  0.47713387172E+02  0.47776722651E+02  0.12700000000E+01 0.  1.
<mgrwt>
<rscale>  0 0.24592503E+01</rscale>
<asrwt>0</asrwt>
<pdfrwt beam="1">0</pdfrwt>
<pdfrwt beam="2">0</pdfrwt>
<totfact> 0.48786537E+11</totfact>
</mgrwt>
</event>
<event>
 4    1  0.3324394E+006  0.2938964E+01  0.7546771E-02  0.2541827E+00
         22   -1    0    0    0    0  0.00000000000E+00  0.00000000000E+00  0.15525515487E+02  0.15525515487E+02  0.00000000000E+00 0.  1.
         22   -1    0    0    0    0 -0.00000000000E+00 -0.00000000000E+00 -0.70011107468E+00  0.70011107468E+00  0.00000000000E+00 0. -1.
          4    1    1    2  501    0 -0.26420287859E+01  0.21045909149E+00  0.37363297753E+01  0.47537005926E+01  0.12700000000E+01 0. -1.
         -4    1    1    2    0  501  0.26420287859E+01 -0.21045909149E+00  0.11089074638E+02  0.11471925970E+02  0.12700000000E+01 0.  1.
<mgrwt>
<rscale>  0 0.29389640E+01</rscale>
<asrwt>0</asrwt>
<pdfrwt beam="1">0</pdfrwt>
<pdfrwt beam="2">0</pdfrwt>
<totfact> 0.13914695E+12</totfact>
</mgrwt>
</event>
<event>
 4    1  0.3324394E+006  0.2003512E+01  0.7546771E-02  0.2978361E+00
         22   -1    0    0    0    0  0.00000000000E+00  0.00000000000E+00  0.42899548123E+02  0.42899548123E+02  0.00000000000E+00 0. -1.
         22   -1    0    0    0    0 -0.00000000000E+00 -0.00000000000E+00 -0.11423004673E+00  0.11423004673E+00  0.00000000000E+00 0.  1.
          4    1    1    2  501    0  0.13582251791E+01 -0.74591308057E+00  0.30539371213E+02  0.30605020112E+02  0.12700000000E+01 0. -1.
         -4    1    1    2    0  501 -0.13582251791E+01  0.74591308057E+00  0.12245946863E+02  0.12408758058E+02  0.12700000000E+01 0.  1.
<mgrwt>
<rscale>  0 0.20035124E+01</rscale>
<asrwt>0</asrwt>
<pdfrwt beam="1">0</pdfrwt>
<pdfrwt beam="2">0</pdfrwt>
<totfact> 0.29344586E+12</totfact>
</mgrwt>
</event>
<event>
 4    1  0.3324394E+006  0.2104942E+01  0.7546771E-02  0.2913321E+00
         22   -1    0    0    0    0  0.00000000000E+00  0.00000000000E+00  0.11398623828E+01  0.11398623828E+01  0.00000000000E+00 0. -1.
         22   -1    0    0    0    0 -0.00000000000E+00 -0.00000000000E+00 -0.93216396577E+01  0.93216396577E+01  0.00000000000E+00 0.  1.
          4    1    1    2  501    0  0.10113447178E+01  0.13398001042E+01 -0.80848002953E+01  0.83543269192E+01  0.12700000000E+01 0.  1.
         -4    1    1    2    0  501 -0.10113447178E+01 -0.13398001042E+01 -0.96976979557E-01  0.21071751213E+01  0.12700000000E+01 0. -1.
<mgrwt>
<rscale>  0 0.21049424E+01</rscale>
<asrwt>0</asrwt>
<pdfrwt beam="1">0</pdfrwt>
<pdfrwt beam="2">0</pdfrwt>
<totfact> 0.14872596E+12</totfact>
</mgrwt>
</event>
<event>
 4    1  0.3324394E+006  0.2038092E+01  0.7546771E-02  0.2955478E+00
         22   -1    0    0    0    0  0.00000000000E+00  0.00000000000E+00  0.34499161607E+01  0.34499161607E+01  0.00000000000E+00 0.  1.
         22   -1    0    0    0    0 -0.00000000000E+00 -0.00000000000E+00 -0.13105254927E+01  0.13105254927E+01  0.00000000000E+00 0. -1.
          4    1    1    2  501    0  0.14700758304E+01 -0.61627456144E+00  0.39119287919E+00  0.20752949552E+01  0.12700000000E+01 0. -1.
         -4    1    1    2    0  501 -0.14700758304E+01  0.61627456144E+00  0.17481977888E+01  0.26851466982E+01  0.12700000000E+01 0. -1.
<mgrwt>
<rscale>  0 0.20380916E+01</rscale>
<asrwt>0</asrwt>
<pdfrwt beam="1">0</pdfrwt>
<pdfrwt beam="2">0</pdfrwt>
<totfact> 0.41320932E+12</totfact>
</mgrwt>
</event>
<event>
 4    1  0.3324394E+006  0.3170838E+01  0.7546771E-02  0.2470803E+00
         22   -1    0    0    0    0  0.00000000000E+00  0.00000000000E+00  0.22602894688E+02  0.22602894688E+02  0.00000000000E+00 0.  1.
         22   -1    0    0    0    0 -0.00000000000E+00 -0.00000000000E+00 -0.60800030020E+00  0.60800030020E+00  0.00000000000E+00 0.  1.
          4    1    1    2  501    0  0.23939691317E+01  0.16462764797E+01  0.49850984726E+01  0.59080810110E+01  0.12700000000E+01 0.  1.
         -4    1    1    2    0  501 -0.23939691317E+01 -0.16462764797E+01  0.17009795915E+02  0.17302813977E+02  0.12700000000E+01 0.  1.
<mgrwt>
<rscale>  0 0.31708381E+01</rscale>
<asrwt>0</asrwt>
<pdfrwt beam="1">0</pdfrwt>
<pdfrwt beam="2">0</pdfrwt>
<totfact> 0.10236392E+12</totfact>
</mgrwt>
</event>
<event>
 4    1  0.3324394E+006  0.3907494E+01  0.7546771E-02  0.2295334E+00
         22   -1    0    0    0    0  0.00000000000E+00  0.00000000000E+00  0.21050319325E+00  0.21050319325E+00  0.00000000000E+00 0.  1.
         22   -1    0    0    0    0 -0.00000000000E+00 -0.00000000000E+00 -0.77001114398E+02  0.77001114398E+02  0.00000000000E+00 0. -1.
          4    1    1    2  501    0 -0.33535236445E+01 -0.15522516718E+01 -0.29096047749E+02  0.29357256355E+02  0.12700000000E+01 0.  1.
         -4    1    1    2    0  501  0.33535236445E+01  0.15522516718E+01 -0.47694563456E+02  0.47854361237E+02  0.12700000000E+01 0. -1.
<mgrwt>
<rscale>  0 0.39074936E+01</rscale>
<asrwt>0</asrwt>
<pdfrwt beam="1">0</pdfrwt>
<pdfrwt beam="2">0</pdfrwt>
<totfact> 0.68116285E+11</totfact>
</mgrwt>
</event>
<event>
 4    1  0.3324394E+006  0.2673948E+01  0.7546771E-02  0.2636478E+00
         22   -1    0    0    0    0  0.00000000000E+00  0.00000000000E+00  0.19276799580E+01  0.19276799580E+01  0.00000000000E+00 0. -1.
         22   -1    0    0    0    0 -0.00000000000E+00 -0.00000000000E+00 -0.41027116524E+01  0.41027116524E+01  0.00000000000E+00 0. -1.
          4    1    1    2  501    0  0.24349209292E+00  0.23404715906E+01 -0.20214217918E+01  0.33520354601E+01  0.12700000000E+01 0. -1.
         -4    1    1    2    0  501 -0.24349209292E+00 -0.23404715906E+01 -0.15360990260E+00  0.26783561503E+01  0.12700000000E+01 0. -1.
<mgrwt>
<rscale>  0 0.26739476E+01</rscale>
<asrwt>0</asrwt>
<pdfrwt beam="1">0</pdfrwt>
<pdfrwt beam="2">0</pdfrwt>
<totfact> 0.21613406E+12</totfact>
</mgrwt>
</event>
<event>
 4    1  0.3324394E+006  0.2056394E+01  0.7546771E-02  0.2943671E+00
         22   -1    0    0    0    0  0.00000000000E+00  0.00000000000E+00  0.56478808644E+01  0.56478808644E+01  0.00000000000E+00 0.  1.
         22   -1    0    0    0    0 -0.00000000000E+00 -0.00000000000E+00 -0.10078186819E+01  0.10078186819E+01  0.00000000000E+00 0. -1.
          4    1    1    2  501    0 -0.94824094068E+00  0.13102265680E+01  0.63272352866E+00  0.21515328501E+01  0.12700000000E+01 0. -1.
         -4    1    1    2    0  501  0.94824094068E+00 -0.13102265680E+01  0.40073386539E+01  0.45041666963E+01  0.12700000000E+01 0.  1.
<mgrwt>
<rscale>  0 0.20563936E+01</rscale>
<asrwt>0</asrwt>
<pdfrwt beam="1">0</pdfrwt>
<pdfrwt beam="2">0</pdfrwt>
<totfact> 0.31199350E+12</totfact>
</mgrwt>
</event>
<event>
 4    1  0.3324394E+006  0.2834171E+01  0.7546771E-02  0.2577331E+00
         22   -1    0    0    0    0  0.00000000000E+00  0.00000000000E+00  0.39642650023E+01  0.39642650023E+01  0.00000000000E+00 0. -1.
         22   -1    0    0    0    0 -0.00000000000E+00 -0.00000000000E+00 -0.35291327997E+01  0.35291327997E+01  0.00000000000E+00 0.  1.
          4    1    1    2  501    0  0.19897156727E+01  0.15686486590E+01 -0.22274386894E+01  0.36047205424E+01  0.12700000000E+01 0.  1.
         -4    1    1    2    0  501 -0.19897156727E+01 -0.15686486590E+01  0.26625708920E+01  0.38886772595E+01  0.12700000000E+01 0. -1.
<mgrwt>
<rscale>  0 0.28341713E+01</rscale>
<asrwt>0</asrwt>
<pdfrwt beam="1">0</pdfrwt>
<pdfrwt beam="2">0</pdfrwt>
<totfact> 0.11128785E+12</totfact>
</mgrwt>
</event>
<event>
 4    1  0.3324394E+006  0.2198412E+01  0.7546771E-02  0.2858544E+00
         22   -1    0    0    0    0  0.00000000000E+00  0.00000000000E+00  0.13768667105E+01  0.13768667105E+01  0.00000000000E+00 0.  1.
         22   -1    0    0    0    0 -0.00000000000E+00 -0.00000000000E+00 -0.42023571177E+01  0.42023571177E+01  0.00000000000E+00 0. -1.
          4    1    1    2  501    0 -0.17367612902E+01  0.45141400310E+00 -0.25449214614E+01  0.33629807651E+01  0.12700000000E+01 0. -1.
         -4    1    1    2    0  501  0.17367612902E+01 -0.45141400310E+00 -0.28056894568E+00  0.22162430631E+01  0.12700000000E+01 0.  1.
<mgrwt>
<rscale>  0 0.21984118E+01</rscale>
<asrwt>0</asrwt>
<pdfrwt beam="1">0</pdfrwt>
<pdfrwt beam="2">0</pdfrwt>
<totfact> 0.30964523E+12</totfact>
</mgrwt>
</event>
<event>
 4    1  0.3324394E+006  0.2159680E+01  0.7546771E-02  0.2880688E+00
         22   -1    0    0    0    0  0.00000000000E+00  0.00000000000E+00  0.19682044547E+01  0.19682044547E+01  0.00000000000E+00 0.  1.
         22   -1    0    0    0    0 -0.00000000000E+00 -0.00000000000E+00 -0.23753420786E+01  0.23753420786E+01  0.00000000000E+00 0.  1.
          4    1    1    2  501    0 -0.17445097091E+01 -0.89465493995E-01 -0.30862897412E+00  0.21816209670E+01  0.12700000000E+01 0.  1.
         -4    1    1    2    0  501  0.17445097091E+01  0.89465493995E-01 -0.98508649757E-01  0.21619255663E+01  0.12700000000E+01 0.  1.
<mgrwt>
<rscale>  0 0.21596801E+01</rscale>
<asrwt>0</asrwt>
<pdfrwt beam="1">0</pdfrwt>
<pdfrwt beam="2">0</pdfrwt>
<totfact> 0.39976857E+12</totfact>
</mgrwt>
</event>
<event>
 4    1  0.3324394E+006  0.2336939E+01  0.7546771E-02  0.2785097E+00
         22   -1    0    0    0    0  0.00000000000E+00  0.00000000000E+00  0.47129813539E+00  0.47129813539E+00  0.00000000000E+00 0. -1.
         22   -1    0    0    0    0 -0.00000000000E+00 -0.00000000000E+00 -0.16259487767E+02  0.16259487767E+02  0.00000000000E+00 0.  1.
          4    1    1    2  501    0  0.74144898404E+00 -0.18162149876E+01 -0.34100257636E+01  0.41339520057E+01  0.12700000000E+01 0. -1.
         -4    1    1    2    0  501 -0.74144898404E+00  0.18162149876E+01 -0.12378163868E+02  0.12596833896E+02  0.12700000000E+01 0.  1.
<mgrwt>
<rscale>  0 0.23369389E+01</rscale>
<asrwt>0</asrwt>
<pdfrwt beam="1">0</pdfrwt>
<pdfrwt beam="2">0</pdfrwt>
<totfact> 0.20568475E+12</totfact>
</mgrwt>
</event>
<event>
 4    1  0.3324394E+006  0.2115753E+01  0.7546771E-02  0.2906746E+00
         22   -1    0    0    0    0  0.00000000000E+00  0.00000000000E+00  0.38657781164E+00  0.38657781164E+00  0.00000000000E+00 0. -1.
         22   -1    0    0    0    0 -0.00000000000E+00 -0.00000000000E+00 -0.13935049069E+02  0.13935049069E+02  0.00000000000E+00 0. -1.
          4    1    1    2  501    0 -0.16771867783E+01  0.22484339907E+00 -0.97182944968E+01  0.99459367568E+01  0.12700000000E+01 0. -1.
         -4    1    1    2    0  501  0.16771867783E+01 -0.22484339907E+00 -0.38301767610E+01  0.43756901243E+01  0.12700000000E+01 0. -1.
<mgrwt>
<rscale>  0 0.21157528E+01</rscale>
<asrwt>0</asrwt>
<pdfrwt beam="1">0</pdfrwt>
<pdfrwt beam="2">0</pdfrwt>
<totfact> 0.31088867E+12</totfact>
</mgrwt>
</event>
<event>
 4    1  0.3324394E+006  0.2036110E+01  0.7546771E-02  0.2956769E+00
         22   -1    0    0    0    0  0.00000000000E+00  0.00000000000E+00  0.88265440634E+01  0.88265440634E+01  0.00000000000E+00 0. -1.
         22   -1    0    0    0    0 -0.00000000000E+00 -0.00000000000E+00 -0.73339490459E+00  0.73339490459E+00  0.00000000000E+00 0.  1.
          4    1    1    2  501    0 -0.12455574952E+01 -0.99067111150E+00  0.11803185530E+01  0.23534856302E+01  0.12700000000E+01 0.  1.
         -4    1    1    2    0  501  0.12455574952E+01  0.99067111150E+00  0.69128306058E+01  0.72064533378E+01  0.12700000000E+01 0. -1.
<mgrwt>
<rscale>  0 0.20361097E+01</rscale>
<asrwt>0</asrwt>
<pdfrwt beam="1">0</pdfrwt>
<pdfrwt beam="2">0</pdfrwt>
<totfact> 0.26263127E+12</totfact>
</mgrwt>
</event>
<event>
 4    1  0.3324394E+006  0.2224215E+01  0.7546771E-02  0.2844203E+00
         22   -1    0    0    0    0  0.00000000000E+00  0.00000000000E+00  0.19215812123E+01  0.19215812123E+01  0.00000000000E+00 0.  1.
         22   -1    0    0    0    0 -0.00000000000E+00 -0.00000000000E+00 -0.25807725608E+01  0.25807725608E+01  0.00000000000E+00 0.  1.
          4    1    1    2  501    0 -0.12797969407E+00 -0.18214979064E+01 -0.21871655630E+00  0.22349430322E+01  0.12700000000E+01 0.  1.
         -4    1    1    2    0  501  0.12797969407E+00  0.18214979064E+01 -0.44047479212E+00  0.22674107409E+01  0.12700000000E+01 0.  1.
<mgrwt>
<rscale>  0 0.22242152E+01</rscale>
<asrwt>0</asrwt>
<pdfrwt beam="1">0</pdfrwt>
<pdfrwt beam="2">0</pdfrwt>
<totfact> 0.37321989E+12</totfact>
</mgrwt>
</event>
<event>
 4    1  0.3324394E+006  0.2068464E+01  0.7546771E-02  0.2935996E+00
         22   -1    0    0    0    0  0.00000000000E+00  0.00000000000E+00  0.16418698171E+02  0.16418698171E+02  0.00000000000E+00 0. -1.
         22   -1    0    0    0    0 -0.00000000000E+00 -0.00000000000E+00 -0.33195515439E+00  0.33195515439E+00  0.00000000000E+00 0. -1.
          4    1    1    2  501    0  0.11197470868E+01  0.11881961508E+01  0.41600257147E+01  0.46458968540E+01  0.12700000000E+01 0. -1.
         -4    1    1    2    0  501 -0.11197470868E+01 -0.11881961508E+01  0.11926717302E+02  0.12104756471E+02  0.12700000000E+01 0. -1.
<mgrwt>
<rscale>  0 0.20684641E+01</rscale>
<asrwt>0</asrwt>
<pdfrwt beam="1">0</pdfrwt>
<pdfrwt beam="2">0</pdfrwt>
<totfact> 0.30148273E+12</totfact>
</mgrwt>
</event>
<event>
 4    1  0.3324394E+006  0.2266180E+01  0.7546771E-02  0.2821545E+00
         22   -1    0    0    0    0  0.00000000000E+00  0.00000000000E+00  0.78498989604E+01  0.78498989604E+01  0.00000000000E+00 0.  1.
         22   -1    0    0    0    0 -0.00000000000E+00 -0.00000000000E+00 -0.73945227673E+00  0.73945227673E+00  0.00000000000E+00 0. -1.
          4    1    1    2  501    0 -0.87249104638E+00 -0.16617559139E+01  0.20971703883E+01  0.30876685348E+01  0.12700000000E+01 0. -1.
         -4    1    1    2    0  501  0.87249104638E+00  0.16617559139E+01  0.50132762953E+01  0.55016827023E+01  0.12700000000E+01 0.  1.
<mgrwt>
<rscale>  0 0.22661803E+01</rscale>
<asrwt>0</asrwt>
<pdfrwt beam="1">0</pdfrwt>
<pdfrwt beam="2">0</pdfrwt>
<totfact> 0.29962692E+12</totfact>
</mgrwt>
</event>
<event>
 4    1  0.3324394E+006  0.2364485E+01  0.7546771E-02  0.2771467E+00
         22   -1    0    0    0    0  0.00000000000E+00  0.00000000000E+00  0.26316456057E+01  0.26316456057E+01  0.00000000000E+00 0. -1.
         22   -1    0    0    0    0 -0.00000000000E+00 -0.00000000000E+00 -0.42942863600E+01  0.42942863600E+01  0.00000000000E+00 0.  1.
          4    1    1    2  501    0 -0.14567885416E+01  0.13622248970E+01 -0.32929153453E+01  0.40538970135E+01  0.12700000000E+01 0. -1.
         -4    1    1    2    0  501  0.14567885416E+01 -0.13622248970E+01  0.16302745910E+01  0.28720349523E+01  0.12700000000E+01 0. -1.
<mgrwt>
<rscale>  0 0.23644850E+01</rscale>
<asrwt>0</asrwt>
<pdfrwt beam="1">0</pdfrwt>
<pdfrwt beam="2">0</pdfrwt>
<totfact> 0.14271521E+12</totfact>
</mgrwt>
</event>
<event>
 4    1  0.3324394E+006  0.2184175E+01  0.7546771E-02  0.2866596E+00
         22   -1    0    0    0    0  0.00000000000E+00  0.00000000000E+00  0.62438589577E+01  0.62438589577E+01  0.00000000000E+00 0.  1.
         22   -1    0    0    0    0 -0.00000000000E+00 -0.00000000000E+00 -0.10037499637E+01  0.10037499637E+01  0.00000000000E+00 0.  1.
          4    1    1    2  501    0  0.16070674878E+01 -0.75832375909E+00  0.84918763793E+00  0.23434462824E+01  0.12700000000E+01 0.  1.
         -4    1    1    2    0  501 -0.16070674878E+01  0.75832375909E+00  0.43909213561E+01  0.49041626389E+01  0.12700000000E+01 0.  1.
<mgrwt>
<rscale>  0 0.21841751E+01</rscale>
<asrwt>0</asrwt>
<pdfrwt beam="1">0</pdfrwt>
<pdfrwt beam="2">0</pdfrwt>
<totfact> 0.27817633E+12</totfact>
</mgrwt>
</event>
<event>
 4    1  0.3324394E+006  0.3169956E+01  0.7546771E-02  0.2471056E+00
         22   -1    0    0    0    0  0.00000000000E+00  0.00000000000E+00  0.47028391877E+00  0.47028391877E+00  0.00000000000E+00 0. -1.
         22   -1    0    0    0    0 -0.00000000000E+00 -0.00000000000E+00 -0.21674041299E+02  0.21674041299E+02  0.00000000000E+00 0.  1.
          4    1    1    2  501    0  0.21485856346E+01  0.19543030164E+01 -0.11919421131E+02  0.12333743171E+02  0.12700000000E+01 0.  1.
         -4    1    1    2    0  501 -0.21485856346E+01 -0.19543030164E+01 -0.92843362490E+01  0.98105820466E+01  0.12700000000E+01 0. -1.
<mgrwt>
<rscale>  0 0.31699559E+01</rscale>
<asrwt>0</asrwt>
<pdfrwt beam="1">0</pdfrwt>
<pdfrwt beam="2">0</pdfrwt>
<totfact> 0.14423628E+12</totfact>
</mgrwt>
</event>
<event>
 4    1  0.3324394E+006  0.2730836E+01  0.7546771E-02  0.2614753E+00
         22   -1    0    0    0    0  0.00000000000E+00  0.00000000000E+00  0.11966909028E+01  0.11966909028E+01  0.00000000000E+00 0.  1.
         22   -1    0    0    0    0 -0.00000000000E+00 -0.00000000000E+00 -0.63141693059E+01  0.63141693059E+01  0.00000000000E+00 0. -1.
          4    1    1    2  501    0 -0.24080982044E+01  0.21361191453E+00 -0.29878223048E+01  0.40477832374E+01  0.12700000000E+01 0. -1.
         -4    1    1    2    0  501  0.24080982044E+01 -0.21361191453E+00 -0.21296560983E+01  0.34630769713E+01  0.12700000000E+01 0.  1.
<mgrwt>
<rscale>  0 0.27308363E+01</rscale>
<asrwt>0</asrwt>
<pdfrwt beam="1">0</pdfrwt>
<pdfrwt beam="2">0</pdfrwt>
<totfact> 0.22449556E+12</totfact>
</mgrwt>
</event>
<event>
 4    1  0.3324394E+006  0.2865918E+01  0.7546771E-02  0.2566328E+00
         22   -1    0    0    0    0  0.00000000000E+00  0.00000000000E+00  0.48885021031E+01  0.48885021031E+01  0.00000000000E+00 0.  1.
         22   -1    0    0    0    0 -0.00000000000E+00 -0.00000000000E+00 -0.24814511020E+01  0.24814511020E+01  0.00000000000E+00 0.  1.
          4    1    1    2  501    0 -0.23765140197E+01  0.97609726200E+00 -0.89047112493E+00  0.30010704049E+01  0.12700000000E+01 0.  1.
         -4    1    1    2    0  501  0.23765140197E+01 -0.97609726200E+00  0.32975221260E+01  0.43688828003E+01  0.12700000000E+01 0.  1.
<mgrwt>
<rscale>  0 0.28659178E+01</rscale>
<asrwt>0</asrwt>
<pdfrwt beam="1">0</pdfrwt>
<pdfrwt beam="2">0</pdfrwt>
<totfact> 0.13113167E+12</totfact>
</mgrwt>
</event>
<event>
 4    1  0.3324394E+006  0.5709384E+01  0.7546771E-02  0.2046774E+00
         22   -1    0    0    0    0  0.00000000000E+00  0.00000000000E+00  0.53189494703E+01  0.53189494703E+01  0.00000000000E+00 0. -1.
         22   -1    0    0    0    0 -0.00000000000E+00 -0.00000000000E+00 -0.62319178284E+01  0.62319178284E+01  0.00000000000E+00 0.  1.
          4    1    1    2  501    0 -0.17183714597E+01 -0.52944659066E+01 -0.12005574473E+01  0.58342444150E+01  0.12700000000E+01 0.  1.
         -4    1    1    2    0  501  0.17183714597E+01  0.52944659066E+01  0.28758908918E+00  0.57166228837E+01  0.12700000000E+01 0. -1.
<mgrwt>
<rscale>  0 0.57093844E+01</rscale>
<asrwt>0</asrwt>
<pdfrwt beam="1">0</pdfrwt>
<pdfrwt beam="2">0</pdfrwt>
<totfact> 0.40156284E+11</totfact>
</mgrwt>
</event>
<event>
 4    1  0.3324394E+006  0.2033804E+01  0.7546771E-02  0.2958274E+00
         22   -1    0    0    0    0  0.00000000000E+00  0.00000000000E+00  0.16307707927E+00  0.16307707927E+00  0.00000000000E+00 0.  1.
         22   -1    0    0    0    0 -0.00000000000E+00 -0.00000000000E+00 -0.26696748791E+02  0.26696748791E+02  0.00000000000E+00 0.  1.
          4    1    1    2  501    0  0.80089739843E+00  0.13718673844E+01 -0.10266647753E+02  0.10466155591E+02  0.12700000000E+01 0.  1.
         -4    1    1    2    0  501 -0.80089739843E+00 -0.13718673844E+01 -0.16267023959E+02  0.16393670280E+02  0.12700000000E+01 0.  1.
<mgrwt>
<rscale>  0 0.20338035E+01</rscale>
<asrwt>0</asrwt>
<pdfrwt beam="1">0</pdfrwt>
<pdfrwt beam="2">0</pdfrwt>
<totfact> 0.36336730E+12</totfact>
</mgrwt>
</event>
<event>
 4    1  0.3324394E+006  0.2323128E+01  0.7546771E-02  0.2792045E+00
         22   -1    0    0    0    0  0.00000000000E+00  0.00000000000E+00  0.65551523198E+00  0.65551523198E+00  0.00000000000E+00 0.  1.
         22   -1    0    0    0    0 -0.00000000000E+00 -0.00000000000E+00 -0.84269421395E+01  0.84269421395E+01  0.00000000000E+00 0. -1.
          4    1    1    2  501    0 -0.18471196003E+01 -0.61006143678E+00 -0.45744558121E+01  0.51305527725E+01  0.12700000000E+01 0.  1.
         -4    1    1    2    0  501  0.18471196003E+01  0.61006143678E+00 -0.31969710954E+01  0.39519045990E+01  0.12700000000E+01 0. -1.
<mgrwt>
<rscale>  0 0.23231284E+01</rscale>
<asrwt>0</asrwt>
<pdfrwt beam="1">0</pdfrwt>
<pdfrwt beam="2">0</pdfrwt>
<totfact> 0.31546084E+12</totfact>
</mgrwt>
</event>
<event>
 4    1  0.3324394E+006  0.2009263E+01  0.7546771E-02  0.2974503E+00
         22   -1    0    0    0    0  0.00000000000E+00  0.00000000000E+00  0.36676287255E+00  0.36676287255E+00  0.00000000000E+00 0. -1.
         22   -1    0    0    0    0 -0.00000000000E+00 -0.00000000000E+00 -0.16884727228E+02  0.16884727228E+02  0.00000000000E+00 0. -1.
          4    1    1    2  501    0 -0.14742928572E+01 -0.50069608493E+00 -0.13348029283E+02  0.13498408119E+02  0.12700000000E+01 0. -1.
         -4    1    1    2    0  501  0.14742928572E+01  0.50069608493E+00 -0.31699350717E+01  0.37530819811E+01  0.12700000000E+01 0. -1.
<mgrwt>
<rscale>  0 0.20092626E+01</rscale>
<asrwt>0</asrwt>
<pdfrwt beam="1">0</pdfrwt>
<pdfrwt beam="2">0</pdfrwt>
<totfact> 0.26035773E+12</totfact>
</mgrwt>
</event>
<event>
 4    1  0.3324394E+006  0.7961200E+01  0.7546771E-02  0.1878525E+00
         22   -1    0    0    0    0  0.00000000000E+00  0.00000000000E+00  0.78768525044E+01  0.78768525044E+01  0.00000000000E+00 0. -1.
         22   -1    0    0    0    0 -0.00000000000E+00 -0.00000000000E+00 -0.34130258397E+02  0.34130258397E+02  0.00000000000E+00 0.  1.
          4    1    1    2  501    0  0.26032410664E+01 -0.74155877743E+01 -0.31488218447E+02  0.32479048740E+02  0.12700000000E+01 0.  1.
         -4    1    1    2    0  501 -0.26032410664E+01  0.74155877743E+01  0.52348125539E+01  0.95280621620E+01  0.12700000000E+01 0. -1.
<mgrwt>
<rscale>  0 0.79612000E+01</rscale>
<asrwt>0</asrwt>
<pdfrwt beam="1">0</pdfrwt>
<pdfrwt beam="2">0</pdfrwt>
<totfact> 0.30928745E+10</totfact>
</mgrwt>
</event>
<event>
 4    1  0.3324394E+006  0.3542373E+01  0.7546771E-02  0.2374356E+00
         22   -1    0    0    0    0  0.00000000000E+00  0.00000000000E+00  0.83682380955E+01  0.83682380955E+01  0.00000000000E+00 0.  1.
         22   -1    0    0    0    0 -0.00000000000E+00 -0.00000000000E+00 -0.15629553974E+01  0.15629553974E+01  0.00000000000E+00 0. -1.
          4    1    1    2  501    0  0.32805350057E+01  0.41665196371E+00  0.24023281272E+01  0.42801389245E+01  0.12700000000E+01 0.  1.
         -4    1    1    2    0  501 -0.32805350057E+01 -0.41665196371E+00  0.44029545709E+01  0.56510545684E+01  0.12700000000E+01 0. -1.
<mgrwt>
<rscale>  0 0.35423733E+01</rscale>
<asrwt>0</asrwt>
<pdfrwt beam="1">0</pdfrwt>
<pdfrwt beam="2">0</pdfrwt>
<totfact> 0.11790289E+12</totfact>
</mgrwt>
</event>
<event>
 4    1  0.3324394E+006  0.2164319E+01  0.7546771E-02  0.2877996E+00
         22   -1    0    0    0    0  0.00000000000E+00  0.00000000000E+00  0.55154089001E+00  0.55154089001E+00  0.00000000000E+00 0.  1.
         22   -1    0    0    0    0 -0.00000000000E+00 -0.00000000000E+00 -0.86031382207E+01  0.86031382207E+01  0.00000000000E+00 0.  1.
          4    1    1    2  501    0 -0.58094902439E+00  0.16534431107E+01 -0.45435412112E+01  0.50326973510E+01  0.12700000000E+01 0.  1.
         -4    1    1    2    0  501  0.58094902439E+00 -0.16534431107E+01 -0.35080561195E+01  0.41219817597E+01  0.12700000000E+01 0.  1.
<mgrwt>
<rscale>  0 0.21643188E+01</rscale>
<asrwt>0</asrwt>
<pdfrwt beam="1">0</pdfrwt>
<pdfrwt beam="2">0</pdfrwt>
<totfact> 0.37415292E+12</totfact>
</mgrwt>
</event>
<event>
 4    1  0.3324394E+006  0.2445463E+01  0.7546771E-02  0.2733073E+00
         22   -1    0    0    0    0  0.00000000000E+00  0.00000000000E+00  0.51596079594E+00  0.51596079594E+00  0.00000000000E+00 0.  1.
         22   -1    0    0    0    0 -0.00000000000E+00 -0.00000000000E+00 -0.12412809212E+02  0.12412809212E+02  0.00000000000E+00 0. -1.
          4    1    1    2  501    0 -0.54173431213E+00 -0.20183933585E+01 -0.76121705908E+01  0.79953379490E+01  0.12700000000E+01 0. -1.
         -4    1    1    2    0  501  0.54173431213E+00  0.20183933585E+01 -0.42846778256E+01  0.49334320593E+01  0.12700000000E+01 0.  1.
<mgrwt>
<rscale>  0 0.24454627E+01</rscale>
<asrwt>0</asrwt>
<pdfrwt beam="1">0</pdfrwt>
<pdfrwt beam="2">0</pdfrwt>
<totfact> 0.25867874E+12</totfact>
</mgrwt>
</event>
<event>
 4    1  0.3324394E+006  0.2312701E+01  0.7546771E-02  0.2797343E+00
         22   -1    0    0    0    0  0.00000000000E+00  0.00000000000E+00  0.15450026713E+01  0.15450026713E+01  0.00000000000E+00 0. -1.
         22   -1    0    0    0    0 -0.00000000000E+00 -0.00000000000E+00 -0.70163307012E+01  0.70163307012E+01  0.00000000000E+00 0.  1.
          4    1    1    2  501    0 -0.60828609784E+00  0.18345779073E+01 -0.57824619618E+01  0.62277969150E+01  0.12700000000E+01 0.  1.
         -4    1    1    2    0  501  0.60828609784E+00 -0.18345779073E+01  0.31113393185E+00  0.23335364575E+01  0.12700000000E+01 0. -1.
<mgrwt>
<rscale>  0 0.23127015E+01</rscale>
<asrwt>0</asrwt>
<pdfrwt beam="1">0</pdfrwt>
<pdfrwt beam="2">0</pdfrwt>
<totfact> 0.14760022E+12</totfact>
</mgrwt>
</event>
<event>
 4    1  0.3324394E+006  0.2354044E+01  0.7546771E-02  0.2776597E+00
         22   -1    0    0    0    0  0.00000000000E+00  0.00000000000E+00  0.34423641384E+01  0.34423641384E+01  0.00000000000E+00 0. -1.
         22   -1    0    0    0    0 -0.00000000000E+00 -0.00000000000E+00 -0.26263640958E+01  0.26263640958E+01  0.00000000000E+00 0.  1.
          4    1    1    2  501    0  0.14372127714E+01  0.13649339793E+01 -0.14798050302E+01  0.27805302094E+01  0.12700000000E+01 0. -1.
         -4    1    1    2    0  501 -0.14372127714E+01 -0.13649339793E+01  0.22958050728E+01  0.32881980248E+01  0.12700000000E+01 0. -1.
<mgrwt>
<rscale>  0 0.23540445E+01</rscale>
<asrwt>0</asrwt>
<pdfrwt beam="1">0</pdfrwt>
<pdfrwt beam="2">0</pdfrwt>
<totfact> 0.18551445E+12</totfact>
</mgrwt>
</event>
<event>
 4    1  0.3324394E+006  0.2146268E+01  0.7546771E-02  0.2888535E+00
         22   -1    0    0    0    0  0.00000000000E+00  0.00000000000E+00  0.55096071336E+00  0.55096071336E+00  0.00000000000E+00 0. -1.
         22   -1    0    0    0    0 -0.00000000000E+00 -0.00000000000E+00 -0.11951479025E+02  0.11951479025E+02  0.00000000000E+00 0.  1.
          4    1    1    2  501    0 -0.65308320148E+00  0.16022008081E+01 -0.91266983871E+01  0.93756646990E+01  0.12700000000E+01 0.  1.
         -4    1    1    2    0  501  0.65308320148E+00 -0.16022008081E+01 -0.22738199243E+01  0.31267750392E+01  0.12700000000E+01 0.  1.
<mgrwt>
<rscale>  0 0.21462677E+01</rscale>
<asrwt>0</asrwt>
<pdfrwt beam="1">0</pdfrwt>
<pdfrwt beam="2">0</pdfrwt>
<totfact> 0.25152950E+12</totfact>
</mgrwt>
</event>
<event>
 4    1  0.3324394E+006  0.4015021E+01  0.7546771E-02  0.2274432E+00
         22   -1    0    0    0    0  0.00000000000E+00  0.00000000000E+00  0.20890137952E+01  0.20890137952E+01  0.00000000000E+00 0.  1.
         22   -1    0    0    0    0 -0.00000000000E+00 -0.00000000000E+00 -0.11662541262E+02  0.11662541262E+02  0.00000000000E+00 0. -1.
          4    1    1    2  501    0 -0.35927879225E+01 -0.12646622821E+01 -0.87861404274E+01  0.96600548319E+01  0.12700000000E+01 0. -1.
         -4    1    1    2    0  501  0.35927879225E+01  0.12646622821E+01 -0.78738703943E+00  0.40915002253E+01  0.12700000000E+01 0.  1.
<mgrwt>
<rscale>  0 0.40150213E+01</rscale>
<asrwt>0</asrwt>
<pdfrwt beam="1">0</pdfrwt>
<pdfrwt beam="2">0</pdfrwt>
<totfact> 0.56429369E+11</totfact>
</mgrwt>
</event>
<event>
 4    1  0.3324394E+006  0.2333601E+01  0.7546771E-02  0.2786769E+00
         22   -1    0    0    0    0  0.00000000000E+00  0.00000000000E+00  0.42943564725E+01  0.42943564725E+01  0.00000000000E+00 0. -1.
         22   -1    0    0    0    0 -0.00000000000E+00 -0.00000000000E+00 -0.25264455990E+01  0.25264455990E+01  0.00000000000E+00 0. -1.
          4    1    1    2  501    0  0.52913070514E+00  0.18848915765E+01 -0.15228974981E+01  0.27865592310E+01  0.12700000000E+01 0. -1.
         -4    1    1    2    0  501 -0.52913070514E+00 -0.18848915765E+01  0.32908083716E+01  0.40342428406E+01  0.12700000000E+01 0. -1.
<mgrwt>
<rscale>  0 0.23336014E+01</rscale>
<asrwt>0</asrwt>
<pdfrwt beam="1">0</pdfrwt>
<pdfrwt beam="2">0</pdfrwt>
<totfact> 0.14965237E+12</totfact>
</mgrwt>
</event>
<event>
 4    1  0.3324394E+006  0.2181280E+01  0.7546771E-02  0.2868246E+00
         22   -1    0    0    0    0  0.00000000000E+00  0.00000000000E+00  0.10178376074E+02  0.10178376074E+02  0.00000000000E+00 0. -1.
         22   -1    0    0    0    0 -0.00000000000E+00 -0.00000000000E+00 -0.55293928265E+00  0.55293928265E+00  0.00000000000E+00 0. -1.
          4    1    1    2  501    0 -0.13345697216E+01  0.11679062928E+01  0.27030449805E+01  0.34733893558E+01  0.12700000000E+01 0. -1.
         -4    1    1    2    0  501  0.13345697216E+01 -0.11679062928E+01  0.69223918111E+01  0.72579260011E+01  0.12700000000E+01 0. -1.
<mgrwt>
<rscale>  0 0.21812798E+01</rscale>
<asrwt>0</asrwt>
<pdfrwt beam="1">0</pdfrwt>
<pdfrwt beam="2">0</pdfrwt>
<totfact> 0.30450611E+12</totfact>
</mgrwt>
</event>
<event>
 4    1  0.3324394E+006  0.3417873E+01  0.7546771E-02  0.2404622E+00
         22   -1    0    0    0    0  0.00000000000E+00  0.00000000000E+00  0.47397563171E+02  0.47397563171E+02  0.00000000000E+00 0. -1.
         22   -1    0    0    0    0 -0.00000000000E+00 -0.00000000000E+00 -0.26773272864E+00  0.26773272864E+00  0.00000000000E+00 0.  1.
          4    1    1    2  501    0  0.25437507455E+01  0.18969149450E+01  0.16847856307E+02  0.17191047563E+02  0.12700000000E+01 0.  1.
         -4    1    1    2    0  501 -0.25437507455E+01 -0.18969149450E+01  0.30281974135E+02  0.30474248336E+02  0.12700000000E+01 0. -1.
<mgrwt>
<rscale>  0 0.34178728E+01</rscale>
<asrwt>0</asrwt>
<pdfrwt beam="1">0</pdfrwt>
<pdfrwt beam="2">0</pdfrwt>
<totfact> 0.99739902E+11</totfact>
</mgrwt>
</event>
<event>
 4    1  0.3324394E+006  0.2971072E+01  0.7546771E-02  0.2531401E+00
         22   -1    0    0    0    0  0.00000000000E+00  0.00000000000E+00  0.24990982047E+02  0.24990982047E+02  0.00000000000E+00 0. -1.
         22   -1    0    0    0    0 -0.00000000000E+00 -0.00000000000E+00 -0.15504286520E+01  0.15504286520E+01  0.00000000000E+00 0.  1.
          4    1    1    2  501    0  0.22068524600E+01 -0.15310679996E+01  0.58804445313E-01  0.29716535737E+01  0.12700000000E+01 0.  1.
         -4    1    1    2    0  501 -0.22068524600E+01  0.15310679996E+01  0.23381748949E+02  0.23569757125E+02  0.12700000000E+01 0. -1.
<mgrwt>
<rscale>  0 0.29710717E+01</rscale>
<asrwt>0</asrwt>
<pdfrwt beam="1">0</pdfrwt>
<pdfrwt beam="2">0</pdfrwt>
<totfact> 0.30986305E+11</totfact>
</mgrwt>
</event>
<event>
 4    1  0.3324394E+006  0.2367149E+01  0.7546771E-02  0.2770164E+00
         22   -1    0    0    0    0  0.00000000000E+00  0.00000000000E+00  0.33238520793E+01  0.33238520793E+01  0.00000000000E+00 0. -1.
         22   -1    0    0    0    0 -0.00000000000E+00 -0.00000000000E+00 -0.18318944411E+01  0.18318944411E+01  0.00000000000E+00 0. -1.
          4    1    1    2  501    0  0.49944037360E+00 -0.19341809510E+01  0.18019257505E-01  0.23672180575E+01  0.12700000000E+01 0. -1.
         -4    1    1    2    0  501 -0.49944037360E+00  0.19341809510E+01  0.14739383807E+01  0.27885284628E+01  0.12700000000E+01 0. -1.
<mgrwt>
<rscale>  0 0.23671495E+01</rscale>
<asrwt>0</asrwt>
<pdfrwt beam="1">0</pdfrwt>
<pdfrwt beam="2">0</pdfrwt>
<totfact> 0.29353814E+12</totfact>
</mgrwt>
</event>
<event>
 4    1  0.3324394E+006  0.2020564E+01  0.7546771E-02  0.2966981E+00
         22   -1    0    0    0    0  0.00000000000E+00  0.00000000000E+00  0.94860403507E+01  0.94860403507E+01  0.00000000000E+00 0.  1.
         22   -1    0    0    0    0 -0.00000000000E+00 -0.00000000000E+00 -0.58833737818E+00  0.58833737818E+00  0.00000000000E+00 0. -1.
          4    1    1    2  501    0  0.14973400480E+01 -0.47723380548E+00  0.18388919576E+01  0.27320693542E+01  0.12700000000E+01 0. -1.
         -4    1    1    2    0  501 -0.14973400480E+01  0.47723380548E+00  0.70588110149E+01  0.73423083747E+01  0.12700000000E+01 0.  1.
<mgrwt>
<rscale>  0 0.20205641E+01</rscale>
<asrwt>0</asrwt>
<pdfrwt beam="1">0</pdfrwt>
<pdfrwt beam="2">0</pdfrwt>
<totfact> 0.30910460E+12</totfact>
</mgrwt>
</event>
<event>
 4    1  0.3324394E+006  0.2991686E+01  0.7546771E-02  0.2524814E+00
         22   -1    0    0    0    0  0.00000000000E+00  0.00000000000E+00  0.32134438300E+01  0.32134438300E+01  0.00000000000E+00 0.  1.
         22   -1    0    0    0    0 -0.00000000000E+00 -0.00000000000E+00 -0.41563908468E+01  0.41563908468E+01  0.00000000000E+00 0. -1.
          4    1    1    2  501    0 -0.10997444173E+01 -0.24754489011E+01 -0.25879503515E+01  0.39557138505E+01  0.12700000000E+01 0. -1.
         -4    1    1    2    0  501  0.10997444173E+01  0.24754489011E+01  0.16450033347E+01  0.34141208263E+01  0.12700000000E+01 0.  1.
<mgrwt>
<rscale>  0 0.29916860E+01</rscale>
<asrwt>0</asrwt>
<pdfrwt beam="1">0</pdfrwt>
<pdfrwt beam="2">0</pdfrwt>
<totfact> 0.11747125E+12</totfact>
</mgrwt>
</event>
<event>
 4    1  0.3324394E+006  0.2828424E+01  0.7546771E-02  0.2579347E+00
         22   -1    0    0    0    0  0.00000000000E+00  0.00000000000E+00  0.36675724080E+01  0.36675724080E+01  0.00000000000E+00 0.  1.
         22   -1    0    0    0    0 -0.00000000000E+00 -0.00000000000E+00 -0.42822538075E+01  0.42822538075E+01  0.00000000000E+00 0. -1.
          4    1    1    2  501    0  0.17529268153E+01 -0.18205296566E+01 -0.30915531272E+01  0.41901887056E+01  0.12700000000E+01 0. -1.
         -4    1    1    2    0  501 -0.17529268153E+01  0.18205296566E+01  0.24768717277E+01  0.37596375099E+01  0.12700000000E+01 0.  1.
<mgrwt>
<rscale>  0 0.28284237E+01</rscale>
<asrwt>0</asrwt>
<pdfrwt beam="1">0</pdfrwt>
<pdfrwt beam="2">0</pdfrwt>
<totfact> 0.97134659E+11</totfact>
</mgrwt>
</event>
<event>
 4    1  0.3324394E+006  0.3009233E+01  0.7546771E-02  0.2519270E+00
         22   -1    0    0    0    0  0.00000000000E+00  0.00000000000E+00  0.14297041610E+02  0.14297041610E+02  0.00000000000E+00 0.  1.
         22   -1    0    0    0    0 -0.00000000000E+00 -0.00000000000E+00 -0.64221221384E+00  0.64221221384E+00  0.00000000000E+00 0. -1.
          4    1    1    2  501    0  0.10326961843E+01 -0.25250978887E+01  0.59515054928E+01  0.66690252951E+01  0.12700000000E+01 0.  1.
         -4    1    1    2    0  501 -0.10326961843E+01  0.25250978887E+01  0.77033239034E+01  0.82702285287E+01  0.12700000000E+01 0.  1.
<mgrwt>
<rscale>  0 0.30092326E+01</rscale>
<asrwt>0</asrwt>
<pdfrwt beam="1">0</pdfrwt>
<pdfrwt beam="2">0</pdfrwt>
<totfact> 0.16984069E+12</totfact>
</mgrwt>
</event>
<event>
 4    1  0.3324394E+006  0.2480661E+01  0.7546771E-02  0.2717118E+00
         22   -1    0    0    0    0  0.00000000000E+00  0.00000000000E+00  0.56584270467E+01  0.56584270467E+01  0.00000000000E+00 0.  1.
         22   -1    0    0    0    0 -0.00000000000E+00 -0.00000000000E+00 -0.11508360076E+01  0.11508360076E+01  0.00000000000E+00 0. -1.
          4    1    1    2  501    0 -0.69091728619E+00 -0.20157913278E+01  0.30523466066E+01  0.39332557990E+01  0.12700000000E+01 0.  1.
         -4    1    1    2    0  501  0.69091728619E+00  0.20157913278E+01  0.14552444326E+01  0.28760072553E+01  0.12700000000E+01 0.  1.
<mgrwt>
<rscale>  0 0.24806615E+01</rscale>
<asrwt>0</asrwt>
<pdfrwt beam="1">0</pdfrwt>
<pdfrwt beam="2">0</pdfrwt>
<totfact> 0.26749485E+12</totfact>
</mgrwt>
</event>
<event>
 4    1  0.3324394E+006  0.3299799E+01  0.7546771E-02  0.2435165E+00
         22   -1    0    0    0    0  0.00000000000E+00  0.00000000000E+00  0.22382989819E+01  0.22382989819E+01  0.00000000000E+00 0. -1.
         22   -1    0    0    0    0 -0.00000000000E+00 -0.00000000000E+00 -0.49060291337E+01  0.49060291337E+01  0.00000000000E+00 0.  1.
          4    1    1    2  501    0  0.30237183272E+01 -0.36455947598E+00 -0.10060414040E+01  0.34497529535E+01  0.12700000000E+01 0. -1.
         -4    1    1    2    0  501 -0.30237183272E+01  0.36455947598E+00 -0.16616887478E+01  0.36945751621E+01  0.12700000000E+01 0.  1.
<mgrwt>
<rscale>  0 0.32997994E+01</rscale>
<asrwt>0</asrwt>
<pdfrwt beam="1">0</pdfrwt>
<pdfrwt beam="2">0</pdfrwt>
<totfact> 0.14719676E+12</totfact>
</mgrwt>
</event>
<event>
 4    1  0.3324394E+006  0.2927410E+01  0.7546771E-02  0.2545629E+00
         22   -1    0    0    0    0  0.00000000000E+00  0.00000000000E+00  0.81133273320E-01  0.81133273320E-01  0.00000000000E+00 0.  1.
         22   -1    0    0    0    0 -0.00000000000E+00 -0.00000000000E+00 -0.10695390191E+03  0.10695390191E+03  0.00000000000E+00 0. -1.
          4    1    1    2  501    0 -0.17768401144E+01  0.19492739429E+01 -0.47471688409E+02  0.47561864241E+02  0.12700000000E+01 0.  1.
         -4    1    1    2    0  501  0.17768401144E+01 -0.19492739429E+01 -0.59401080232E+02  0.59473170947E+02  0.12700000000E+01 0. -1.
<mgrwt>
<rscale>  0 0.29274101E+01</rscale>
<asrwt>0</asrwt>
<pdfrwt beam="1">0</pdfrwt>
<pdfrwt beam="2">0</pdfrwt>
<totfact> 0.12421064E+12</totfact>
</mgrwt>
</event>
<event>
 4    1  0.3324394E+006  0.2165723E+01  0.7546771E-02  0.2877183E+00
         22   -1    0    0    0    0  0.00000000000E+00  0.00000000000E+00  0.10144274591E+02  0.10144274591E+02  0.00000000000E+00 0.  1.
         22   -1    0    0    0    0 -0.00000000000E+00 -0.00000000000E+00 -0.56034057493E+00  0.56034057493E+00  0.00000000000E+00 0.  1.
          4    1    1    2  501    0  0.59777709976E+00 -0.16492787832E+01  0.25538961065E+01  0.33485434577E+01  0.12700000000E+01 0.  1.
         -4    1    1    2    0  501 -0.59777709976E+00  0.16492787832E+01  0.70300379100E+01  0.73560717085E+01  0.12700000000E+01 0.  1.
<mgrwt>
<rscale>  0 0.21657234E+01</rscale>
<asrwt>0</asrwt>
<pdfrwt beam="1">0</pdfrwt>
<pdfrwt beam="2">0</pdfrwt>
<totfact> 0.30118196E+12</totfact>
</mgrwt>
</event>
<event>
 4    1  0.3324394E+006  0.2654538E+01  0.7546771E-02  0.2644086E+00
         22   -1    0    0    0    0  0.00000000000E+00  0.00000000000E+00  0.37699112233E+01  0.37699112233E+01  0.00000000000E+00 0. -1.
         22   -1    0    0    0    0 -0.00000000000E+00 -0.00000000000E+00 -0.21121698552E+01  0.21121698552E+01  0.00000000000E+00 0. -1.
          4    1    1    2  501    0 -0.20135892703E+00  0.23223105916E+01  0.18264499970E+01  0.32221873771E+01  0.12700000000E+01 0. -1.
         -4    1    1    2    0  501  0.20135892703E+00 -0.23223105916E+01 -0.16870862900E+00  0.26598937014E+01  0.12700000000E+01 0. -1.
<mgrwt>
<rscale>  0 0.26545380E+01</rscale>
<asrwt>0</asrwt>
<pdfrwt beam="1">0</pdfrwt>
<pdfrwt beam="2">0</pdfrwt>
<totfact> 0.21477527E+12</totfact>
</mgrwt>
</event>
<event>
 4    1  0.3324394E+006  0.2040311E+01  0.7546771E-02  0.2954035E+00
         22   -1    0    0    0    0  0.00000000000E+00  0.00000000000E+00  0.54281375212E+01  0.54281375212E+01  0.00000000000E+00 0.  1.
         22   -1    0    0    0    0 -0.00000000000E+00 -0.00000000000E+00 -0.10163350405E+01  0.10163350405E+01  0.00000000000E+00 0. -1.
          4    1    1    2  501    0 -0.37254799552E+00  0.15527967023E+01  0.60960789720E+00  0.21294345249E+01  0.12700000000E+01 0. -1.
         -4    1    1    2    0  501  0.37254799552E+00 -0.15527967023E+01  0.38021945835E+01  0.43150380368E+01  0.12700000000E+01 0. -1.
<mgrwt>
<rscale>  0 0.20403112E+01</rscale>
<asrwt>0</asrwt>
<pdfrwt beam="1">0</pdfrwt>
<pdfrwt beam="2">0</pdfrwt>
<totfact> 0.32391848E+12</totfact>
</mgrwt>
</event>
<event>
 4    1  0.3324394E+006  0.2160390E+01  0.7546771E-02  0.2880275E+00
         22   -1    0    0    0    0  0.00000000000E+00  0.00000000000E+00  0.23383337310E+02  0.23383337310E+02  0.00000000000E+00 0. -1.
         22   -1    0    0    0    0 -0.00000000000E+00 -0.00000000000E+00 -0.21328045014E+00  0.21328045014E+00  0.00000000000E+00 0. -1.
          4    1    1    2  501    0  0.75101573396E+00 -0.15780878122E+01  0.14573256051E+02  0.14732517697E+02  0.12700000000E+01 0. -1.
         -4    1    1    2    0  501 -0.75101573396E+00  0.15780878122E+01  0.85968008092E+01  0.88641000631E+01  0.12700000000E+01 0. -1.
<mgrwt>
<rscale>  0 0.21603902E+01</rscale>
<asrwt>0</asrwt>
<pdfrwt beam="1">0</pdfrwt>
<pdfrwt beam="2">0</pdfrwt>
<totfact> 0.31844702E+12</totfact>
</mgrwt>
</event>
<event>
 4    1  0.3324394E+006  0.4209252E+01  0.7546771E-02  0.2238995E+00
         22   -1    0    0    0    0  0.00000000000E+00  0.00000000000E+00  0.39089792267E+01  0.39089792267E+01  0.00000000000E+00 0. -1.
         22   -1    0    0    0    0 -0.00000000000E+00 -0.00000000000E+00 -0.61412381464E+01  0.61412381464E+01  0.00000000000E+00 0.  1.
          4    1    1    2  501    0  0.36673303003E+01 -0.16295994603E+01 -0.36879924083E+01  0.55963464811E+01  0.12700000000E+01 0.  1.
         -4    1    1    2    0  501 -0.36673303003E+01  0.16295994603E+01  0.14557334886E+01  0.44538708920E+01  0.12700000000E+01 0. -1.
<mgrwt>
<rscale>  0 0.42092524E+01</rscale>
<asrwt>0</asrwt>
<pdfrwt beam="1">0</pdfrwt>
<pdfrwt beam="2">0</pdfrwt>
<totfact> 0.58790682E+11</totfact>
</mgrwt>
</event>
<event>
 4    1  0.3324394E+006  0.2134391E+01  0.7546771E-02  0.2895563E+00
         22   -1    0    0    0    0  0.00000000000E+00  0.00000000000E+00  0.65429529385E+01  0.65429529385E+01  0.00000000000E+00 0.  1.
         22   -1    0    0    0    0 -0.00000000000E+00 -0.00000000000E+00 -0.13046362886E+01  0.13046362886E+01  0.00000000000E+00 0. -1.
          4    1    1    2  501    0 -0.16032085748E+01  0.61028427004E+00 -0.60294653693E-01  0.21352423913E+01  0.12700000000E+01 0. -1.
         -4    1    1    2    0  501  0.16032085748E+01 -0.61028427004E+00  0.52986113036E+01  0.57123468357E+01  0.12700000000E+01 0.  1.
<mgrwt>
<rscale>  0 0.21343909E+01</rscale>
<asrwt>0</asrwt>
<pdfrwt beam="1">0</pdfrwt>
<pdfrwt beam="2">0</pdfrwt>
<totfact> 0.19486445E+12</totfact>
</mgrwt>
</event>
<event>
 4    1  0.3324394E+006  0.2669095E+01  0.7546771E-02  0.2638371E+00
         22   -1    0    0    0    0  0.00000000000E+00  0.00000000000E+00  0.32922177383E+01  0.32922177383E+01  0.00000000000E+00 0. -1.
         22   -1    0    0    0    0 -0.00000000000E+00 -0.00000000000E+00 -0.24120753831E+01  0.24120753831E+01  0.00000000000E+00 0.  1.
          4    1    1    2  501    0 -0.12694539387E+01  0.19747549867E+01 -0.47476843474E+00  0.27109916316E+01  0.12700000000E+01 0.  1.
         -4    1    1    2    0  501  0.12694539387E+01 -0.19747549867E+01  0.13549107900E+01  0.29933014898E+01  0.12700000000E+01 0. -1.
<mgrwt>
<rscale>  0 0.26690955E+01</rscale>
<asrwt>0</asrwt>
<pdfrwt beam="1">0</pdfrwt>
<pdfrwt beam="2">0</pdfrwt>
<totfact> 0.21581501E+12</totfact>
</mgrwt>
</event>
<event>
 4    1  0.3324394E+006  0.2632573E+01  0.7546771E-02  0.2652819E+00
         22   -1    0    0    0    0  0.00000000000E+00  0.00000000000E+00  0.23722561534E+01  0.23722561534E+01  0.00000000000E+00 0. -1.
         22   -1    0    0    0    0 -0.00000000000E+00 -0.00000000000E+00 -0.92566820559E+01  0.92566820559E+01  0.00000000000E+00 0.  1.
          4    1    1    2  501    0 -0.16705788120E+01 -0.15895622285E+01 -0.82524165236E+01  0.86621487013E+01  0.12700000000E+01 0.  1.
         -4    1    1    2    0  501  0.16705788120E+01  0.15895622285E+01  0.13679906210E+01  0.29667895080E+01  0.12700000000E+01 0. -1.
<mgrwt>
<rscale>  0 0.26325732E+01</rscale>
<asrwt>0</asrwt>
<pdfrwt beam="1">0</pdfrwt>
<pdfrwt beam="2">0</pdfrwt>
<totfact> 0.64432779E+11</totfact>
</mgrwt>
</event>
<event>
 4    1  0.3324394E+006  0.2006450E+01  0.7546771E-02  0.2976387E+00
         22   -1    0    0    0    0  0.00000000000E+00  0.00000000000E+00  0.21900023115E+01  0.21900023115E+01  0.00000000000E+00 0.  1.
         22   -1    0    0    0    0 -0.00000000000E+00 -0.00000000000E+00 -0.46428577002E+01  0.46428577002E+01  0.00000000000E+00 0. -1.
          4    1    1    2  501    0  0.14879917675E+01 -0.44589315726E+00 -0.38817269989E+01  0.43696275244E+01  0.12700000000E+01 0. -1.
         -4    1    1    2    0  501 -0.14879917675E+01  0.44589315726E+00  0.14288716102E+01  0.24632324873E+01  0.12700000000E+01 0.  1.
<mgrwt>
<rscale>  0 0.20064497E+01</rscale>
<asrwt>0</asrwt>
<pdfrwt beam="1">0</pdfrwt>
<pdfrwt beam="2">0</pdfrwt>
<totfact> 0.16111949E+12</totfact>
</mgrwt>
</event>
<event>
 4    1  0.3324394E+006  0.2688284E+01  0.7546771E-02  0.2630924E+00
         22   -1    0    0    0    0  0.00000000000E+00  0.00000000000E+00  0.20573693087E+00  0.20573693087E+00  0.00000000000E+00 0. -1.
         22   -1    0    0    0    0 -0.00000000000E+00 -0.00000000000E+00 -0.85649194913E+02  0.85649194913E+02  0.00000000000E+00 0.  1.
          4    1    1    2  501    0 -0.23146453628E+01 -0.50634982435E+00 -0.75691483595E+02  0.75739207562E+02  0.12700000000E+01 0.  1.
         -4    1    1    2    0  501  0.23146453628E+01  0.50634982435E+00 -0.97519743868E+01  0.10115724282E+02  0.12700000000E+01 0. -1.
<mgrwt>
<rscale>  0 0.26882845E+01</rscale>
<asrwt>0</asrwt>
<pdfrwt beam="1">0</pdfrwt>
<pdfrwt beam="2">0</pdfrwt>
<totfact> 0.60354628E+11</totfact>
</mgrwt>
</event>
<event>
 4    1  0.3324394E+006  0.2018318E+01  0.7546771E-02  0.2968469E+00
         22   -1    0    0    0    0  0.00000000000E+00  0.00000000000E+00  0.19765358265E+00  0.19765358265E+00  0.00000000000E+00 0.  1.
         22   -1    0    0    0    0 -0.00000000000E+00 -0.00000000000E+00 -0.28424552465E+02  0.28424552465E+02  0.00000000000E+00 0. -1.
          4    1    1    2  501    0  0.98990389136E+00  0.12168811083E+01 -0.21617274545E+02  0.21711291258E+02  0.12700000000E+01 0. -1.
         -4    1    1    2    0  501 -0.98990389136E+00 -0.12168811083E+01 -0.66096243375E+01  0.69109147896E+01  0.12700000000E+01 0.  1.
<mgrwt>
<rscale>  0 0.20183184E+01</rscale>
<asrwt>0</asrwt>
<pdfrwt beam="1">0</pdfrwt>
<pdfrwt beam="2">0</pdfrwt>
<totfact> 0.27086953E+12</totfact>
</mgrwt>
</event>
<event>
 4    1  0.3324394E+006  0.2510550E+01  0.7546771E-02  0.2703897E+00
         22   -1    0    0    0    0  0.00000000000E+00  0.00000000000E+00  0.90960486083E+01  0.90960486083E+01  0.00000000000E+00 0. -1.
         22   -1    0    0    0    0 -0.00000000000E+00 -0.00000000000E+00 -0.73481786980E+00  0.73481786980E+00  0.00000000000E+00 0.  1.
          4    1    1    2  501    0  0.12017606844E+01 -0.18015913539E+01  0.30069264082E+01  0.39172013700E+01  0.12700000000E+01 0. -1.
         -4    1    1    2    0  501 -0.12017606844E+01  0.18015913539E+01  0.53543043303E+01  0.59136651081E+01  0.12700000000E+01 0.  1.
<mgrwt>
<rscale>  0 0.25105498E+01</rscale>
<asrwt>0</asrwt>
<pdfrwt beam="1">0</pdfrwt>
<pdfrwt beam="2">0</pdfrwt>
<totfact> 0.25273940E+12</totfact>
</mgrwt>
</event>
<event>
 4    1  0.3324394E+006  0.4295686E+01  0.7546771E-02  0.2224102E+00
         22   -1    0    0    0    0  0.00000000000E+00  0.00000000000E+00  0.54668588160E+01  0.54668588160E+01  0.00000000000E+00 0.  1.
         22   -1    0    0    0    0 -0.00000000000E+00 -0.00000000000E+00 -0.46932489165E+01  0.46932489165E+01  0.00000000000E+00 0. -1.
          4    1    1    2  501    0 -0.39586926721E+01  0.10810965296E+01 -0.23051132551E+01  0.48750861015E+01  0.12700000000E+01 0. -1.
         -4    1    1    2    0  501  0.39586926721E+01 -0.10810965296E+01  0.30787231546E+01  0.52850216310E+01  0.12700000000E+01 0.  1.
<mgrwt>
<rscale>  0 0.42956859E+01</rscale>
<asrwt>0</asrwt>
<pdfrwt beam="1">0</pdfrwt>
<pdfrwt beam="2">0</pdfrwt>
<totfact> 0.54420573E+11</totfact>
</mgrwt>
</event>
<event>
 4    1  0.3324394E+006  0.2068186E+01  0.7546771E-02  0.2936172E+00
         22   -1    0    0    0    0  0.00000000000E+00  0.00000000000E+00  0.33587808910E+01  0.33587808910E+01  0.00000000000E+00 0. -1.
         22   -1    0    0    0    0 -0.00000000000E+00 -0.00000000000E+00 -0.13536083793E+01  0.13536083793E+01  0.00000000000E+00 0.  1.
          4    1    1    2  501    0  0.13297831079E+01  0.94666245924E+00  0.42937415292E+00  0.21122866967E+01  0.12700000000E+01 0.  1.
         -4    1    1    2    0  501 -0.13297831079E+01 -0.94666245924E+00  0.15757983588E+01  0.26001025736E+01  0.12700000000E+01 0.  1.
<mgrwt>
<rscale>  0 0.20681859E+01</rscale>
<asrwt>0</asrwt>
<pdfrwt beam="1">0</pdfrwt>
<pdfrwt beam="2">0</pdfrwt>
<totfact> 0.41084012E+12</totfact>
</mgrwt>
</event>
<event>
 4    1  0.3324394E+006  0.2483427E+01  0.7546771E-02  0.2715882E+00
         22   -1    0    0    0    0  0.00000000000E+00  0.00000000000E+00  0.15078933361E+01  0.15078933361E+01  0.00000000000E+00 0. -1.
         22   -1    0    0    0    0 -0.00000000000E+00 -0.00000000000E+00 -0.56995684523E+01  0.56995684523E+01  0.00000000000E+00 0.  1.
          4    1    1    2  501    0 -0.65414072907E+00  0.20314055618E+01 -0.40108646225E+01  0.47174615706E+01  0.12700000000E+01 0.  1.
         -4    1    1    2    0  501  0.65414072907E+00 -0.20314055618E+01 -0.18081049365E+00  0.24900002178E+01  0.12700000000E+01 0. -1.
<mgrwt>
<rscale>  0 0.24834268E+01</rscale>
<asrwt>0</asrwt>
<pdfrwt beam="1">0</pdfrwt>
<pdfrwt beam="2">0</pdfrwt>
<totfact> 0.19448169E+12</totfact>
</mgrwt>
</event>
<event>
 4    1  0.3324394E+006  0.2058701E+01  0.7546771E-02  0.2942197E+00
         22   -1    0    0    0    0  0.00000000000E+00  0.00000000000E+00  0.57563101065E+01  0.57563101065E+01  0.00000000000E+00 0. -1.
         22   -1    0    0    0    0 -0.00000000000E+00 -0.00000000000E+00 -0.73639888060E+00  0.73639888060E+00  0.00000000000E+00 0.  1.
          4    1    1    2  501    0 -0.13507255239E+01  0.89492409818E+00  0.24684852716E+01  0.32142912312E+01  0.12700000000E+01 0. -1.
         -4    1    1    2    0  501  0.13507255239E+01 -0.89492409818E+00  0.25514259543E+01  0.32784177560E+01  0.12700000000E+01 0.  1.
<mgrwt>
<rscale>  0 0.20587007E+01</rscale>
<asrwt>0</asrwt>
<pdfrwt beam="1">0</pdfrwt>
<pdfrwt beam="2">0</pdfrwt>
<totfact> 0.43606017E+12</totfact>
</mgrwt>
</event>
<event>
 4    1  0.3324394E+006  0.3726451E+01  0.7546771E-02  0.2332846E+00
         22   -1    0    0    0    0  0.00000000000E+00  0.00000000000E+00  0.66745442544E+00  0.66745442544E+00  0.00000000000E+00 0. -1.
         22   -1    0    0    0    0 -0.00000000000E+00 -0.00000000000E+00 -0.34569192962E+02  0.34569192962E+02  0.00000000000E+00 0.  1.
          4    1    1    2  501    0 -0.18149913146E+01 -0.29965557572E+01 -0.28068036679E+02  0.28314327166E+02  0.12700000000E+01 0.  1.
         -4    1    1    2    0  501  0.18149913146E+01  0.29965557572E+01 -0.58337018573E+01  0.69223202207E+01  0.12700000000E+01 0. -1.
<mgrwt>
<rscale>  0 0.37264514E+01</rscale>
<asrwt>0</asrwt>
<pdfrwt beam="1">0</pdfrwt>
<pdfrwt beam="2">0</pdfrwt>
<totfact> 0.53699836E+11</totfact>
</mgrwt>
</event>
<event>
 4    1  0.3324394E+006  0.2134445E+01  0.7546771E-02  0.2895531E+00
         22   -1    0    0    0    0  0.00000000000E+00  0.00000000000E+00  0.22033366666E+01  0.22033366666E+01  0.00000000000E+00 0. -1.
         22   -1    0    0    0    0 -0.00000000000E+00 -0.00000000000E+00 -0.44997786630E+01  0.44997786630E+01  0.00000000000E+00 0. -1.
          4    1    1    2  501    0  0.17140596214E+01 -0.70389426441E-01 -0.36122129630E+01  0.41957046544E+01  0.12700000000E+01 0. -1.
         -4    1    1    2    0  501 -0.17140596214E+01  0.70389426441E-01  0.13157709666E+01  0.25074106751E+01  0.12700000000E+01 0. -1.
<mgrwt>
<rscale>  0 0.21344449E+01</rscale>
<asrwt>0</asrwt>
<pdfrwt beam="1">0</pdfrwt>
<pdfrwt beam="2">0</pdfrwt>
<totfact> 0.16602118E+12</totfact>
</mgrwt>
</event>
<event>
 4    1  0.3324394E+006  0.2045262E+01  0.7546771E-02  0.2950827E+00
         22   -1    0    0    0    0  0.00000000000E+00  0.00000000000E+00  0.12710239581E+01  0.12710239581E+01  0.00000000000E+00 0. -1.
         22   -1    0    0    0    0 -0.00000000000E+00 -0.00000000000E+00 -0.32933904365E+01  0.32933904365E+01  0.00000000000E+00 0. -1.
          4    1    1    2  501    0  0.73215015736E+00  0.14262379122E+01 -0.95132400009E+00  0.22556852148E+01  0.12700000000E+01 0. -1.
         -4    1    1    2    0  501 -0.73215015736E+00 -0.14262379122E+01 -0.10710424783E+01  0.23087291798E+01  0.12700000000E+01 0. -1.
<mgrwt>
<rscale>  0 0.20452624E+01</rscale>
<asrwt>0</asrwt>
<pdfrwt beam="1">0</pdfrwt>
<pdfrwt beam="2">0</pdfrwt>
<totfact> 0.45190345E+12</totfact>
</mgrwt>
</event>
<event>
 4    1  0.3324394E+006  0.2265519E+01  0.7546771E-02  0.2821896E+00
         22   -1    0    0    0    0  0.00000000000E+00  0.00000000000E+00  0.25683514398E+00  0.25683514398E+00  0.00000000000E+00 0. -1.
         22   -1    0    0    0    0 -0.00000000000E+00 -0.00000000000E+00 -0.20033317003E+02  0.20033317003E+02  0.00000000000E+00 0. -1.
          4    1    1    2  501    0  0.63182296078E+00  0.17664866794E+01 -0.93845236333E+01  0.96541110034E+01  0.12700000000E+01 0. -1.
         -4    1    1    2    0  501 -0.63182296078E+00 -0.17664866794E+01 -0.10391958225E+02  0.10636041143E+02  0.12700000000E+01 0. -1.
<mgrwt>
<rscale>  0 0.22655188E+01</rscale>
<asrwt>0</asrwt>
<pdfrwt beam="1">0</pdfrwt>
<pdfrwt beam="2">0</pdfrwt>
<totfact> 0.31399018E+12</totfact>
</mgrwt>
</event>
<event>
 4    1  0.3324394E+006  0.2071213E+01  0.7546771E-02  0.2934260E+00
         22   -1    0    0    0    0  0.00000000000E+00  0.00000000000E+00  0.69935339447E+01  0.69935339447E+01  0.00000000000E+00 0. -1.
         22   -1    0    0    0    0 -0.00000000000E+00 -0.00000000000E+00 -0.10891783532E+01  0.10891783532E+01  0.00000000000E+00 0.  1.
          4    1    1    2  501    0 -0.43718705356E-01 -0.16355771763E+01  0.28117667561E+00  0.20902115557E+01  0.12700000000E+01 0.  1.
         -4    1    1    2    0  501  0.43718705356E-01  0.16355771763E+01  0.56231789159E+01  0.59925007421E+01  0.12700000000E+01 0. -1.
<mgrwt>
<rscale>  0 0.20712132E+01</rscale>
<asrwt>0</asrwt>
<pdfrwt beam="1">0</pdfrwt>
<pdfrwt beam="2">0</pdfrwt>
<totfact> 0.22129447E+12</totfact>
</mgrwt>
</event>
<event>
 4    1  0.3324394E+006  0.3416284E+01  0.7546771E-02  0.2405021E+00
         22   -1    0    0    0    0  0.00000000000E+00  0.00000000000E+00  0.24907316288E+02  0.24907316288E+02  0.00000000000E+00 0. -1.
         22   -1    0    0    0    0 -0.00000000000E+00 -0.00000000000E+00 -0.19359923303E+01  0.19359923303E+01  0.00000000000E+00 0.  1.
          4    1    1    2  501    0  0.10252890826E+00  0.31697919802E+01 -0.19939330531E+00  0.34220974657E+01  0.12700000000E+01 0.  1.
         -4    1    1    2    0  501 -0.10252890826E+00 -0.31697919802E+01  0.23170717263E+02  0.23421211153E+02  0.12700000000E+01 0. -1.
<mgrwt>
<rscale>  0 0.34162836E+01</rscale>
<asrwt>0</asrwt>
<pdfrwt beam="1">0</pdfrwt>
<pdfrwt beam="2">0</pdfrwt>
<totfact> 0.24082719E+11</totfact>
</mgrwt>
</event>
<event>
 4    1  0.3324394E+006  0.2334425E+01  0.7546771E-02  0.2786356E+00
         22   -1    0    0    0    0  0.00000000000E+00  0.00000000000E+00  0.13955723032E+01  0.13955723032E+01  0.00000000000E+00 0. -1.
         22   -1    0    0    0    0 -0.00000000000E+00 -0.00000000000E+00 -0.50523381134E+01  0.50523381134E+01  0.00000000000E+00 0. -1.
          4    1    1    2  501    0 -0.85596106104E+00  0.17618089484E+01 -0.33648084664E+01  0.40952992716E+01  0.12700000000E+01 0. -1.
         -4    1    1    2    0  501  0.85596106104E+00 -0.17618089484E+01 -0.29195734372E+00  0.23526111449E+01  0.12700000000E+01 0. -1.
<mgrwt>
<rscale>  0 0.23344250E+01</rscale>
<asrwt>0</asrwt>
<pdfrwt beam="1">0</pdfrwt>
<pdfrwt beam="2">0</pdfrwt>
<totfact> 0.24526644E+12</totfact>
</mgrwt>
</event>
<event>
 4    1  0.3324394E+006  0.2791950E+01  0.7546771E-02  0.2592317E+00
         22   -1    0    0    0    0  0.00000000000E+00  0.00000000000E+00  0.62927861379E+02  0.62927861379E+02  0.00000000000E+00 0.  1.
         22   -1    0    0    0    0 -0.00000000000E+00 -0.00000000000E+00 -0.15193510867E+00  0.15193510867E+00  0.00000000000E+00 0. -1.
          4    1    1    2  501    0 -0.10897900141E+01 -0.22348247484E+01  0.17832914261E+02  0.18050147228E+02  0.12700000000E+01 0. -1.
         -4    1    1    2    0  501  0.10897900141E+01  0.22348247484E+01  0.44943012009E+02  0.45029649259E+02  0.12700000000E+01 0.  1.
<mgrwt>
<rscale>  0 0.27919498E+01</rscale>
<asrwt>0</asrwt>
<pdfrwt beam="1">0</pdfrwt>
<pdfrwt beam="2">0</pdfrwt>
<totfact> 0.12878999E+12</totfact>
</mgrwt>
</event>
<event>
 4    1  0.3324394E+006  0.2152745E+01  0.7546771E-02  0.2884734E+00
         22   -1    0    0    0    0  0.00000000000E+00  0.00000000000E+00  0.11305728807E+01  0.11305728807E+01  0.00000000000E+00 0.  1.
         22   -1    0    0    0    0 -0.00000000000E+00 -0.00000000000E+00 -0.56769214649E+01  0.56769214649E+01  0.00000000000E+00 0. -1.
          4    1    1    2  501    0 -0.15538519815E+01 -0.77907383413E+00 -0.40676274536E+01  0.46021630915E+01  0.12700000000E+01 0. -1.
         -4    1    1    2    0  501  0.15538519815E+01  0.77907383413E+00 -0.47872113060E+00  0.22053312541E+01  0.12700000000E+01 0.  1.
<mgrwt>
<rscale>  0 0.21527452E+01</rscale>
<asrwt>0</asrwt>
<pdfrwt beam="1">0</pdfrwt>
<pdfrwt beam="2">0</pdfrwt>
<totfact> 0.27192028E+12</totfact>
</mgrwt>
</event>
<event>
 4    1  0.3324394E+006  0.2987341E+01  0.7546771E-02  0.2526195E+00
         22   -1    0    0    0    0  0.00000000000E+00  0.00000000000E+00  0.53029037807E+02  0.53029037807E+02  0.00000000000E+00 0. -1.
         22   -1    0    0    0    0 -0.00000000000E+00 -0.00000000000E+00 -0.29095862113E+00  0.29095862113E+00  0.00000000000E+00 0. -1.
          4    1    1    2  501    0  0.37171060543E-01  0.27036876244E+01  0.90584103174E+01  0.95382915627E+01  0.12700000000E+01 0. -1.
         -4    1    1    2    0  501 -0.37171060543E-01 -0.27036876244E+01  0.43679668869E+02  0.43781704865E+02  0.12700000000E+01 0. -1.
<mgrwt>
<rscale>  0 0.29873414E+01</rscale>
<asrwt>0</asrwt>
<pdfrwt beam="1">0</pdfrwt>
<pdfrwt beam="2">0</pdfrwt>
<totfact> 0.78356108E+11</totfact>
</mgrwt>
</event>
<event>
 4    1  0.3324394E+006  0.5793255E+01  0.7546771E-02  0.2038740E+00
         22   -1    0    0    0    0  0.00000000000E+00  0.00000000000E+00  0.41831367566E+01  0.41831367566E+01  0.00000000000E+00 0. -1.
         22   -1    0    0    0    0 -0.00000000000E+00 -0.00000000000E+00 -0.97657071985E+01  0.97657071985E+01  0.00000000000E+00 0.  1.
          4    1    1    2  501    0 -0.35651147253E+01 -0.43862129115E+01 -0.57374272119E+01  0.81535193457E+01  0.12700000000E+01 0.  1.
         -4    1    1    2    0  501  0.35651147253E+01  0.43862129115E+01  0.15485676993E+00  0.57953246094E+01  0.12700000000E+01 0. -1.
<mgrwt>
<rscale>  0 0.57932553E+01</rscale>
<asrwt>0</asrwt>
<pdfrwt beam="1">0</pdfrwt>
<pdfrwt beam="2">0</pdfrwt>
<totfact> 0.31107780E+11</totfact>
</mgrwt>
</event>
<event>
 4    1  0.3324394E+006  0.2031149E+01  0.7546771E-02  0.2960011E+00
         22   -1    0    0    0    0  0.00000000000E+00  0.00000000000E+00  0.15123254693E+02  0.15123254693E+02  0.00000000000E+00 0. -1.
         22   -1    0    0    0    0 -0.00000000000E+00 -0.00000000000E+00 -0.33882569079E+00  0.33882569079E+00  0.00000000000E+00 0.  1.
          4    1    1    2  501    0  0.74982309342E+00 -0.13965789413E+01  0.39793541206E+01  0.44677540921E+01  0.12700000000E+01 0.  1.
         -4    1    1    2    0  501 -0.74982309342E+00  0.13965789413E+01  0.10805074882E+02  0.10994326292E+02  0.12700000000E+01 0. -1.
<mgrwt>
<rscale>  0 0.20311493E+01</rscale>
<asrwt>0</asrwt>
<pdfrwt beam="1">0</pdfrwt>
<pdfrwt beam="2">0</pdfrwt>
<totfact> 0.32605153E+12</totfact>
</mgrwt>
</event>
<event>
 4    1  0.3324394E+006  0.3180128E+01  0.7546771E-02  0.2468150E+00
         22   -1    0    0    0    0  0.00000000000E+00  0.00000000000E+00  0.12929515605E+02  0.12929515605E+02  0.00000000000E+00 0. -1.
         22   -1    0    0    0    0 -0.00000000000E+00 -0.00000000000E+00 -0.78270801904E+00  0.78270801904E+00  0.00000000000E+00 0.  1.
          4    1    1    2  501    0 -0.23118292428E+01 -0.17764465933E+01  0.62513687322E+01  0.70137599027E+01  0.12700000000E+01 0. -1.
         -4    1    1    2    0  501  0.23118292428E+01  0.17764465933E+01  0.58954388535E+01  0.66984637210E+01  0.12700000000E+01 0.  1.
<mgrwt>
<rscale>  0 0.31801284E+01</rscale>
<asrwt>0</asrwt>
<pdfrwt beam="1">0</pdfrwt>
<pdfrwt beam="2">0</pdfrwt>
<totfact> 0.15346248E+12</totfact>
</mgrwt>
</event>
<event>
 4    1  0.3324394E+006  0.8195654E+01  0.7546771E-02  0.1865184E+00
         22   -1    0    0    0    0  0.00000000000E+00  0.00000000000E+00  0.14222308211E+02  0.14222308211E+02  0.00000000000E+00 0. -1.
         22   -1    0    0    0    0 -0.00000000000E+00 -0.00000000000E+00 -0.13317563189E+02  0.13317563189E+02  0.00000000000E+00 0.  1.
          4    1    1    2  501    0 -0.75008754194E+01  0.30483955179E+01 -0.10609716379E+02  0.13406521880E+02  0.12700000000E+01 0.  1.
         -4    1    1    2    0  501  0.75008754194E+01 -0.30483955179E+01  0.11514461401E+02  0.14133349519E+02  0.12700000000E+01 0. -1.
<mgrwt>
<rscale>  0 0.81956542E+01</rscale>
<asrwt>0</asrwt>
<pdfrwt beam="1">0</pdfrwt>
<pdfrwt beam="2">0</pdfrwt>
<totfact> 0.49050980E+10</totfact>
</mgrwt>
</event>
<event>
 4    1  0.3324394E+006  0.4030487E+01  0.7546771E-02  0.2271504E+00
         22   -1    0    0    0    0  0.00000000000E+00  0.00000000000E+00  0.13653920318E+01  0.13653920318E+01  0.00000000000E+00 0.  1.
         22   -1    0    0    0    0 -0.00000000000E+00 -0.00000000000E+00 -0.17320514641E+02  0.17320514641E+02  0.00000000000E+00 0. -1.
          4    1    1    2  501    0 -0.11975252640E+01 -0.36328855087E+01 -0.13205398513E+02  0.13806787235E+02  0.12700000000E+01 0. -1.
         -4    1    1    2    0  501  0.11975252640E+01  0.36328855087E+01 -0.27497240960E+01  0.48791194371E+01  0.12700000000E+01 0.  1.
<mgrwt>
<rscale>  0 0.40304868E+01</rscale>
<asrwt>0</asrwt>
<pdfrwt beam="1">0</pdfrwt>
<pdfrwt beam="2">0</pdfrwt>
<totfact> 0.56702889E+11</totfact>
</mgrwt>
</event>
<event>
 4    1  0.3324394E+006  0.3112595E+01  0.7546771E-02  0.2487753E+00
         22   -1    0    0    0    0  0.00000000000E+00  0.00000000000E+00  0.44933631303E+01  0.44933631303E+01  0.00000000000E+00 0. -1.
         22   -1    0    0    0    0 -0.00000000000E+00 -0.00000000000E+00 -0.21592534992E+01  0.21592534992E+01  0.00000000000E+00 0.  1.
          4    1    1    2  501    0  0.28137859540E+01  0.39743794970E+00  0.10404225112E+01  0.32818786267E+01  0.12700000000E+01 0. -1.
         -4    1    1    2    0  501 -0.28137859540E+01 -0.39743794970E+00  0.12936871200E+01  0.33707380028E+01  0.12700000000E+01 0.  1.
<mgrwt>
<rscale>  0 0.31125951E+01</rscale>
<asrwt>0</asrwt>
<pdfrwt beam="1">0</pdfrwt>
<pdfrwt beam="2">0</pdfrwt>
<totfact> 0.17025781E+12</totfact>
</mgrwt>
</event>
<event>
 4    1  0.3324394E+006  0.2457479E+01  0.7546771E-02  0.2727578E+00
         22   -1    0    0    0    0  0.00000000000E+00  0.00000000000E+00  0.54766885292E+00  0.54766885292E+00  0.00000000000E+00 0. -1.
         22   -1    0    0    0    0 -0.00000000000E+00 -0.00000000000E+00 -0.16931243065E+02  0.16931243065E+02  0.00000000000E+00 0.  1.
          4    1    1    2  501    0  0.20456329948E+01  0.49161949634E+00 -0.13352599656E+02  0.13576859786E+02  0.12700000000E+01 0.  1.
         -4    1    1    2    0  501 -0.20456329948E+01 -0.49161949634E+00 -0.30309745555E+01  0.39020521312E+01  0.12700000000E+01 0. -1.
<mgrwt>
<rscale>  0 0.24574792E+01</rscale>
<asrwt>0</asrwt>
<pdfrwt beam="1">0</pdfrwt>
<pdfrwt beam="2">0</pdfrwt>
<totfact> 0.16512229E+12</totfact>
</mgrwt>
</event>
<event>
 4    1  0.3324394E+006  0.3305272E+01  0.7546771E-02  0.2433707E+00
         22   -1    0    0    0    0  0.00000000000E+00  0.00000000000E+00  0.23951953984E+02  0.23951953984E+02  0.00000000000E+00 0.  1.
         22   -1    0    0    0    0 -0.00000000000E+00 -0.00000000000E+00 -0.60126057172E+00  0.60126057172E+00  0.00000000000E+00 0. -1.
          4    1    1    2  501    0 -0.29973517176E+01  0.57254184153E+00  0.56434986153E+01  0.65401756934E+01  0.12700000000E+01 0. -1.
         -4    1    1    2    0  501  0.29973517176E+01 -0.57254184153E+00  0.17707194797E+02  0.18013038863E+02  0.12700000000E+01 0.  1.
<mgrwt>
<rscale>  0 0.33052718E+01</rscale>
<asrwt>0</asrwt>
<pdfrwt beam="1">0</pdfrwt>
<pdfrwt beam="2">0</pdfrwt>
<totfact> 0.96381547E+11</totfact>
</mgrwt>
</event>
<event>
 4    1  0.3324394E+006  0.2124257E+01  0.7546771E-02  0.2901620E+00
         22   -1    0    0    0    0  0.00000000000E+00  0.00000000000E+00  0.54652010638E+01  0.54652010638E+01  0.00000000000E+00 0.  1.
         22   -1    0    0    0    0 -0.00000000000E+00 -0.00000000000E+00 -0.14592523653E+01  0.14592523653E+01  0.00000000000E+00 0. -1.
          4    1    1    2  501    0 -0.11991116739E+01  0.12090075356E+01 -0.27837014430E+00  0.21424187184E+01  0.12700000000E+01 0. -1.
         -4    1    1    2    0  501  0.11991116739E+01 -0.12090075356E+01  0.42843188427E+01  0.47820347107E+01  0.12700000000E+01 0.  1.
<mgrwt>
<rscale>  0 0.21242571E+01</rscale>
<asrwt>0</asrwt>
<pdfrwt beam="1">0</pdfrwt>
<pdfrwt beam="2">0</pdfrwt>
<totfact> 0.21227398E+12</totfact>
</mgrwt>
</event>
<event>
 4    1  0.3324394E+006  0.2311780E+01  0.7546771E-02  0.2797814E+00
         22   -1    0    0    0    0  0.00000000000E+00  0.00000000000E+00  0.95426479434E+00  0.95426479434E+00  0.00000000000E+00 0.  1.
         22   -1    0    0    0    0 -0.00000000000E+00 -0.00000000000E+00 -0.20767959421E+02  0.20767959421E+02  0.00000000000E+00 0. -1.
          4    1    1    2  501    0  0.19197471295E+01  0.21446606620E+00 -0.19188692764E+02  0.19327448221E+02  0.12700000000E+01 0. -1.
         -4    1    1    2    0  501 -0.19197471295E+01 -0.21446606620E+00 -0.62500186234E+00  0.23947759943E+01  0.12700000000E+01 0.  1.
<mgrwt>
<rscale>  0 0.23117796E+01</rscale>
<asrwt>0</asrwt>
<pdfrwt beam="1">0</pdfrwt>
<pdfrwt beam="2">0</pdfrwt>
<totfact> 0.68175736E+11</totfact>
</mgrwt>
</event>
<event>
 4    1  0.3324394E+006  0.4421436E+01  0.7546771E-02  0.2203314E+00
         22   -1    0    0    0    0  0.00000000000E+00  0.00000000000E+00  0.53109268659E+01  0.53109268659E+01  0.00000000000E+00 0.  1.
         22   -1    0    0    0    0 -0.00000000000E+00 -0.00000000000E+00 -0.10321637075E+02  0.10321637075E+02  0.00000000000E+00 0. -1.
          4    1    1    2  501    0  0.10538071803E+01 -0.41019129701E+01 -0.87748622002E+01  0.98258488804E+01  0.12700000000E+01 0. -1.
         -4    1    1    2    0  501 -0.10538071803E+01  0.41019129701E+01  0.37641519909E+01  0.58067150608E+01  0.12700000000E+01 0.  1.
<mgrwt>
<rscale>  0 0.44214364E+01</rscale>
<asrwt>0</asrwt>
<pdfrwt beam="1">0</pdfrwt>
<pdfrwt beam="2">0</pdfrwt>
<totfact> 0.21938533E+11</totfact>
</mgrwt>
</event>
<event>
 4    1  0.3324394E+006  0.2798457E+01  0.7546771E-02  0.2589981E+00
         22   -1    0    0    0    0  0.00000000000E+00  0.00000000000E+00  0.16333670996E+01  0.16333670996E+01  0.00000000000E+00 0.  1.
         22   -1    0    0    0    0 -0.00000000000E+00 -0.00000000000E+00 -0.88485364644E+01  0.88485364644E+01  0.00000000000E+00 0. -1.
          4    1    1    2  501    0 -0.57822682863E+00  0.24257193433E+01 -0.71550021263E+01  0.76828000121E+01  0.12700000000E+01 0. -1.
         -4    1    1    2    0  501  0.57822682863E+00 -0.24257193433E+01 -0.60167238446E-01  0.27991035519E+01  0.12700000000E+01 0.  1.
<mgrwt>
<rscale>  0 0.27984568E+01</rscale>
<asrwt>0</asrwt>
<pdfrwt beam="1">0</pdfrwt>
<pdfrwt beam="2">0</pdfrwt>
<totfact> 0.10478037E+12</totfact>
</mgrwt>
</event>
<event>
 4    1  0.3324394E+006  0.2025067E+01  0.7546771E-02  0.2964008E+00
         22   -1    0    0    0    0  0.00000000000E+00  0.00000000000E+00  0.58701926483E+00  0.58701926483E+00  0.00000000000E+00 0.  1.
         22   -1    0    0    0    0 -0.00000000000E+00 -0.00000000000E+00 -0.16646184870E+02  0.16646184870E+02  0.00000000000E+00 0. -1.
          4    1    1    2  501    0 -0.15082623269E+01 -0.46167074839E+00 -0.14593637942E+02  0.14733470857E+02  0.12700000000E+01 0. -1.
         -4    1    1    2    0  501  0.15082623269E+01  0.46167074839E+00 -0.14655276634E+01  0.24997332776E+01  0.12700000000E+01 0.  1.
<mgrwt>
<rscale>  0 0.20250667E+01</rscale>
<asrwt>0</asrwt>
<pdfrwt beam="1">0</pdfrwt>
<pdfrwt beam="2">0</pdfrwt>
<totfact> 0.15588069E+12</totfact>
</mgrwt>
</event>
<event>
 4    1  0.3324394E+006  0.2706562E+01  0.7546771E-02  0.2623921E+00
         22   -1    0    0    0    0  0.00000000000E+00  0.00000000000E+00  0.37304359844E+02  0.37304359844E+02  0.00000000000E+00 0. -1.
         22   -1    0    0    0    0 -0.00000000000E+00 -0.00000000000E+00 -0.23120728994E+00  0.23120728994E+00  0.00000000000E+00 0.  1.
          4    1    1    2  501    0 -0.20133221154E+01 -0.12880655134E+01  0.11251555359E+02  0.11572509525E+02  0.12700000000E+01 0.  1.
         -4    1    1    2    0  501  0.20133221154E+01  0.12880655134E+01  0.25821597194E+02  0.25963057608E+02  0.12700000000E+01 0. -1.
<mgrwt>
<rscale>  0 0.27065622E+01</rscale>
<asrwt>0</asrwt>
<pdfrwt beam="1">0</pdfrwt>
<pdfrwt beam="2">0</pdfrwt>
<totfact> 0.16053194E+12</totfact>
</mgrwt>
</event>
<event>
 4    1  0.3324394E+006  0.2054685E+01  0.7546771E-02  0.2944765E+00
         22   -1    0    0    0    0  0.00000000000E+00  0.00000000000E+00  0.58188711755E+00  0.58188711755E+00  0.00000000000E+00 0. -1.
         22   -1    0    0    0    0 -0.00000000000E+00 -0.00000000000E+00 -0.85518952494E+01  0.85518952494E+01  0.00000000000E+00 0.  1.
          4    1    1    2  501    0  0.15080887216E+01 -0.57835824864E+00 -0.57632915788E+01  0.61185994866E+01  0.12700000000E+01 0.  1.
         -4    1    1    2    0  501 -0.15080887216E+01  0.57835824864E+00 -0.22067165531E+01  0.30151828803E+01  0.12700000000E+01 0. -1.
<mgrwt>
<rscale>  0 0.20546849E+01</rscale>
<asrwt>0</asrwt>
<pdfrwt beam="1">0</pdfrwt>
<pdfrwt beam="2">0</pdfrwt>
<totfact> 0.35468577E+12</totfact>
</mgrwt>
</event>
<event>
 4    1  0.3324394E+006  0.2516113E+01  0.7546771E-02  0.2701469E+00
         22   -1    0    0    0    0  0.00000000000E+00  0.00000000000E+00  0.27227220564E+02  0.27227220564E+02  0.00000000000E+00 0. -1.
         22   -1    0    0    0    0 -0.00000000000E+00 -0.00000000000E+00 -0.44559888841E+00  0.44559888841E+00  0.00000000000E+00 0.  1.
          4    1    1    2  501    0  0.60359074272E+00 -0.20865288260E+01  0.38227614186E+01  0.45764974806E+01  0.12700000000E+01 0.  1.
         -4    1    1    2    0  501 -0.60359074272E+00  0.20865288260E+01  0.22958860257E+02  0.23096321972E+02  0.12700000000E+01 0. -1.
<mgrwt>
<rscale>  0 0.25161129E+01</rscale>
<asrwt>0</asrwt>
<pdfrwt beam="1">0</pdfrwt>
<pdfrwt beam="2">0</pdfrwt>
<totfact> 0.11500113E+12</totfact>
</mgrwt>
</event>
<event>
 4    1  0.3324394E+006  0.3211837E+01  0.7546771E-02  0.2459199E+00
         22   -1    0    0    0    0  0.00000000000E+00  0.00000000000E+00  0.98301142965E+00  0.98301142965E+00  0.00000000000E+00 0. -1.
         22   -1    0    0    0    0 -0.00000000000E+00 -0.00000000000E+00 -0.10769470641E+02  0.10769470641E+02  0.00000000000E+00 0. -1.
          4    1    1    2  501    0 -0.46271517923E+00 -0.29135706722E+01 -0.58327316589E+01  0.66585777764E+01  0.12700000000E+01 0. -1.
         -4    1    1    2    0  501  0.46271517923E+00  0.29135706722E+01 -0.39537275520E+01  0.50939042938E+01  0.12700000000E+01 0. -1.
<mgrwt>
<rscale>  0 0.32118374E+01</rscale>
<asrwt>0</asrwt>
<pdfrwt beam="1">0</pdfrwt>
<pdfrwt beam="2">0</pdfrwt>
<totfact> 0.14790720E+12</totfact>
</mgrwt>
</event>
<event>
 4    1  0.3324394E+006  0.2473211E+01  0.7546771E-02  0.2720459E+00
         22   -1    0    0    0    0  0.00000000000E+00  0.00000000000E+00  0.58530321802E+02  0.58530321802E+02  0.00000000000E+00 0.  1.
         22   -1    0    0    0    0 -0.00000000000E+00 -0.00000000000E+00 -0.17662126128E+00  0.17662126128E+00  0.00000000000E+00 0.  1.
          4    1    1    2  501    0 -0.18912902355E+01  0.96275403062E+00  0.10420369709E+02  0.10709849624E+02  0.12700000000E+01 0.  1.
         -4    1    1    2    0  501  0.18912902355E+01 -0.96275403062E+00  0.47933330831E+02  0.47997093440E+02  0.12700000000E+01 0.  1.
<mgrwt>
<rscale>  0 0.24732113E+01</rscale>
<asrwt>0</asrwt>
<pdfrwt beam="1">0</pdfrwt>
<pdfrwt beam="2">0</pdfrwt>
<totfact> 0.12001949E+12</totfact>
</mgrwt>
</event>
<event>
 4    1  0.3324394E+006  0.5307240E+01  0.7546771E-02  0.2088022E+00
         22   -1    0    0    0    0  0.00000000000E+00  0.00000000000E+00  0.12012897938E+01  0.12012897938E+01  0.00000000000E+00 0.  1.
         22   -1    0    0    0    0 -0.00000000000E+00 -0.00000000000E+00 -0.23830181356E+02  0.23830181356E+02  0.00000000000E+00 0. -1.
          4    1    1    2  501    0  0.28546857473E+01  0.42900656789E+01 -0.12901248593E+02  0.13950233314E+02  0.12700000000E+01 0.  1.
         -4    1    1    2    0  501 -0.28546857473E+01 -0.42900656789E+01 -0.97276429689E+01  0.11081237836E+02  0.12700000000E+01 0. -1.
<mgrwt>
<rscale>  0 0.53072398E+01</rscale>
<asrwt>0</asrwt>
<pdfrwt beam="1">0</pdfrwt>
<pdfrwt beam="2">0</pdfrwt>
<totfact> 0.44101867E+11</totfact>
</mgrwt>
</event>
<event>
 4    1  0.3324394E+006  0.2680546E+01  0.7546771E-02  0.2633915E+00
         22   -1    0    0    0    0  0.00000000000E+00  0.00000000000E+00  0.16099805268E+01  0.16099805268E+01  0.00000000000E+00 0. -1.
         22   -1    0    0    0    0 -0.00000000000E+00 -0.00000000000E+00 -0.83630698735E+01  0.83630698735E+01  0.00000000000E+00 0.  1.
          4    1    1    2  501    0  0.37554805310E+00  0.23305345949E+01 -0.67818172184E+01  0.72923502811E+01  0.12700000000E+01 0.  1.
         -4    1    1    2    0  501 -0.37554805310E+00 -0.23305345949E+01  0.28727871665E-01  0.26807001192E+01  0.12700000000E+01 0. -1.
<mgrwt>
<rscale>  0 0.26805462E+01</rscale>
<asrwt>0</asrwt>
<pdfrwt beam="1">0</pdfrwt>
<pdfrwt beam="2">0</pdfrwt>
<totfact> 0.11402775E+12</totfact>
</mgrwt>
</event>
<event>
 4    1  0.3324394E+006  0.2102897E+01  0.7546771E-02  0.2914571E+00
         22   -1    0    0    0    0  0.00000000000E+00  0.00000000000E+00  0.13159355013E+02  0.13159355013E+02  0.00000000000E+00 0.  1.
         22   -1    0    0    0    0 -0.00000000000E+00 -0.00000000000E+00 -0.68292957135E+00  0.68292957135E+00  0.00000000000E+00 0. -1.
          4    1    1    2  501    0 -0.34669806470E+00  0.16398408958E+01  0.13055627238E+01  0.24752114531E+01  0.12700000000E+01 0. -1.
         -4    1    1    2    0  501  0.34669806470E+00 -0.16398408958E+01  0.11170862717E+02  0.11367073131E+02  0.12700000000E+01 0.  1.
<mgrwt>
<rscale>  0 0.21028975E+01</rscale>
<asrwt>0</asrwt>
<pdfrwt beam="1">0</pdfrwt>
<pdfrwt beam="2">0</pdfrwt>
<totfact> 0.17533712E+12</totfact>
</mgrwt>
</event>
<event>
 4    1  0.3324394E+006  0.3583487E+01  0.7546771E-02  0.2364765E+00
         22   -1    0    0    0    0  0.00000000000E+00  0.00000000000E+00  0.15978336601E+02  0.15978336601E+02  0.00000000000E+00 0.  1.
         22   -1    0    0    0    0 -0.00000000000E+00 -0.00000000000E+00 -0.88231944449E+00  0.88231944449E+00  0.00000000000E+00 0.  1.
          4    1    1    2  501    0 -0.31912365234E+01  0.10220018874E+01  0.50310995488E+01  0.61768390845E+01  0.12700000000E+01 0.  1.
         -4    1    1    2    0  501  0.31912365234E+01 -0.10220018874E+01  0.10064917607E+02  0.10683816961E+02  0.12700000000E+01 0.  1.
<mgrwt>
<rscale>  0 0.35834869E+01</rscale>
<asrwt>0</asrwt>
<pdfrwt beam="1">0</pdfrwt>
<pdfrwt beam="2">0</pdfrwt>
<totfact> 0.10323574E+12</totfact>
</mgrwt>
</event>
<event>
 4    1  0.3324394E+006  0.2539100E+01  0.7546771E-02  0.2691539E+00
         22   -1    0    0    0    0  0.00000000000E+00  0.00000000000E+00  0.42169832212E+01  0.42169832212E+01  0.00000000000E+00 0.  1.
         22   -1    0    0    0    0 -0.00000000000E+00 -0.00000000000E+00 -0.15669481348E+01  0.15669481348E+01  0.00000000000E+00 0.  1.
          4    1    1    2  501    0  0.21196708544E+01  0.58405655207E+00  0.87392682742E+00  0.26852885668E+01  0.12700000000E+01 0.  1.
         -4    1    1    2    0  501 -0.21196708544E+01 -0.58405655207E+00  0.17761082590E+01  0.30986427892E+01  0.12700000000E+01 0.  1.
<mgrwt>
<rscale>  0 0.25390996E+01</rscale>
<asrwt>0</asrwt>
<pdfrwt beam="1">0</pdfrwt>
<pdfrwt beam="2">0</pdfrwt>
<totfact> 0.26577139E+12</totfact>
</mgrwt>
</event>
<event>
 4    1  0.3324394E+006  0.9803442E+01  0.7546771E-02  0.1786995E+00
         22   -1    0    0    0    0  0.00000000000E+00  0.00000000000E+00  0.21111915736E+02  0.21111915736E+02  0.00000000000E+00 0. -1.
         22   -1    0    0    0    0 -0.00000000000E+00 -0.00000000000E+00 -0.76324696935E+01  0.76324696935E+01  0.00000000000E+00 0.  1.
          4    1    1    2  501    0  0.30675410666E+01 -0.92241407601E+01 -0.23904453808E+01  0.10090674411E+02  0.12700000000E+01 0.  1.
         -4    1    1    2    0  501 -0.30675410666E+01  0.92241407601E+01  0.15869891423E+02  0.18653711018E+02  0.12700000000E+01 0. -1.
<mgrwt>
<rscale>  0 0.98034423E+01</rscale>
<asrwt>0</asrwt>
<pdfrwt beam="1">0</pdfrwt>
<pdfrwt beam="2">0</pdfrwt>
<totfact> 0.59024115E+10</totfact>
</mgrwt>
</event>
<event>
 4    1  0.3324394E+006  0.2274079E+01  0.7546771E-02  0.2817370E+00
         22   -1    0    0    0    0  0.00000000000E+00  0.00000000000E+00  0.33789070576E+01  0.33789070576E+01  0.00000000000E+00 0. -1.
         22   -1    0    0    0    0 -0.00000000000E+00 -0.00000000000E+00 -0.16477289698E+01  0.16477289698E+01  0.00000000000E+00 0.  1.
          4    1    1    2  501    0  0.99035454160E+00  0.16055319765E+01  0.19522258837E+00  0.22824431876E+01  0.12700000000E+01 0.  1.
         -4    1    1    2    0  501 -0.99035454160E+00 -0.16055319765E+01  0.15359554994E+01  0.27441928397E+01  0.12700000000E+01 0. -1.
<mgrwt>
<rscale>  0 0.22740789E+01</rscale>
<asrwt>0</asrwt>
<pdfrwt beam="1">0</pdfrwt>
<pdfrwt beam="2">0</pdfrwt>
<totfact> 0.32539039E+12</totfact>
</mgrwt>
</event>
<event>
 4    1  0.3324394E+006  0.2758030E+01  0.7546771E-02  0.2604658E+00
         22   -1    0    0    0    0  0.00000000000E+00  0.00000000000E+00  0.52086384152E+02  0.52086384152E+02  0.00000000000E+00 0. -1.
         22   -1    0    0    0    0 -0.00000000000E+00 -0.00000000000E+00 -0.14914558380E+00  0.14914558380E+00  0.00000000000E+00 0.  1.
          4    1    1    2  501    0 -0.13908098963E+01  0.20148142135E+01  0.29737029823E+02  0.29864655886E+02  0.12700000000E+01 0.  1.
         -4    1    1    2    0  501  0.13908098963E+01 -0.20148142135E+01  0.22200208745E+02  0.22370873850E+02  0.12700000000E+01 0. -1.
<mgrwt>
<rscale>  0 0.27580298E+01</rscale>
<asrwt>0</asrwt>
<pdfrwt beam="1">0</pdfrwt>
<pdfrwt beam="2">0</pdfrwt>
<totfact> 0.16916721E+12</totfact>
</mgrwt>
</event>
<event>
 4    1  0.3324394E+006  0.2218894E+01  0.7546771E-02  0.2847134E+00
         22   -1    0    0    0    0  0.00000000000E+00  0.00000000000E+00  0.39624210620E+00  0.39624210620E+00  0.00000000000E+00 0.  1.
         22   -1    0    0    0    0 -0.00000000000E+00 -0.00000000000E+00 -0.24292369199E+02  0.24292369199E+02  0.00000000000E+00 0.  1.
          4    1    1    2  501    0 -0.87286855677E+00 -0.15964619222E+01 -0.20575873128E+02  0.20695169610E+02  0.12700000000E+01 0.  1.
         -4    1    1    2    0  501  0.87286855677E+00  0.15964619222E+01 -0.33202539650E+01  0.39934416959E+01  0.12700000000E+01 0.  1.
<mgrwt>
<rscale>  0 0.22188939E+01</rscale>
<asrwt>0</asrwt>
<pdfrwt beam="1">0</pdfrwt>
<pdfrwt beam="2">0</pdfrwt>
<totfact> 0.15159630E+12</totfact>
</mgrwt>
</event>
<event>
 4    1  0.3324394E+006  0.2044178E+01  0.7546771E-02  0.2951529E+00
         22   -1    0    0    0    0  0.00000000000E+00  0.00000000000E+00  0.14308800219E+00  0.14308800219E+00  0.00000000000E+00 0.  1.
         22   -1    0    0    0    0 -0.00000000000E+00 -0.00000000000E+00 -0.31532340844E+02  0.31532340844E+02  0.00000000000E+00 0. -1.
          4    1    1    2  501    0 -0.10031821855E+01  0.12487555946E+01 -0.11390471933E+02  0.11572446409E+02  0.12700000000E+01 0.  1.
         -4    1    1    2    0  501  0.10031821855E+01 -0.12487555946E+01 -0.19998780909E+02  0.20102982437E+02  0.12700000000E+01 0. -1.
<mgrwt>
<rscale>  0 0.20441783E+01</rscale>
<asrwt>0</asrwt>
<pdfrwt beam="1">0</pdfrwt>
<pdfrwt beam="2">0</pdfrwt>
<totfact> 0.34004783E+12</totfact>
</mgrwt>
</event>
<event>
 4    1  0.3324394E+006  0.2129791E+01  0.7546771E-02  0.2898306E+00
         22   -1    0    0    0    0  0.00000000000E+00  0.00000000000E+00  0.44851423349E+01  0.44851423349E+01  0.00000000000E+00 0.  1.
         22   -1    0    0    0    0 -0.00000000000E+00 -0.00000000000E+00 -0.19436514739E+01  0.19436514739E+01  0.00000000000E+00 0. -1.
          4    1    1    2  501    0 -0.65677366568E+00 -0.15785304549E+01 -0.95548696380E+00  0.23343019048E+01  0.12700000000E+01 0. -1.
         -4    1    1    2    0  501  0.65677366568E+00  0.15785304549E+01  0.34969778248E+01  0.40944919040E+01  0.12700000000E+01 0.  1.
<mgrwt>
<rscale>  0 0.21297911E+01</rscale>
<asrwt>0</asrwt>
<pdfrwt beam="1">0</pdfrwt>
<pdfrwt beam="2">0</pdfrwt>
<totfact> 0.19271601E+12</totfact>
</mgrwt>
</event>
<event>
 4    1  0.3324394E+006  0.2833401E+01  0.7546771E-02  0.2577601E+00
         22   -1    0    0    0    0  0.00000000000E+00  0.00000000000E+00  0.19966963567E+02  0.19966963567E+02  0.00000000000E+00 0.  1.
         22   -1    0    0    0    0 -0.00000000000E+00 -0.00000000000E+00 -0.47489833326E+00  0.47489833326E+00  0.00000000000E+00 0. -1.
          4    1    1    2  501    0 -0.21098811077E+01  0.14013073267E+01  0.57435097158E+01  0.64043785310E+01  0.12700000000E+01 0. -1.
         -4    1    1    2    0  501  0.21098811077E+01 -0.14013073267E+01  0.13748555517E+02  0.14037483369E+02  0.12700000000E+01 0.  1.
<mgrwt>
<rscale>  0 0.28334009E+01</rscale>
<asrwt>0</asrwt>
<pdfrwt beam="1">0</pdfrwt>
<pdfrwt beam="2">0</pdfrwt>
<totfact> 0.15805219E+12</totfact>
</mgrwt>
</event>
<event>
 4    1  0.3324394E+006  0.2120452E+01  0.7546771E-02  0.2903909E+00
         22   -1    0    0    0    0  0.00000000000E+00  0.00000000000E+00  0.58123225289E+02  0.58123225289E+02  0.00000000000E+00 0. -1.
         22   -1    0    0    0    0 -0.00000000000E+00 -0.00000000000E+00 -0.89693710928E-01  0.89693710928E-01  0.00000000000E+00 0. -1.
          4    1    1    2  501    0  0.96596078765E+00 -0.13965452074E+01  0.18222733233E+02  0.18345689555E+02  0.12700000000E+01 0. -1.
         -4    1    1    2    0  501 -0.96596078765E+00  0.13965452074E+01  0.39810798345E+02  0.39867229445E+02  0.12700000000E+01 0. -1.
<mgrwt>
<rscale>  0 0.21204525E+01</rscale>
<asrwt>0</asrwt>
<pdfrwt beam="1">0</pdfrwt>
<pdfrwt beam="2">0</pdfrwt>
<totfact> 0.25694665E+12</totfact>
</mgrwt>
</event>
<event>
 4    1  0.3324394E+006  0.2654610E+01  0.7546771E-02  0.2644057E+00
         22   -1    0    0    0    0  0.00000000000E+00  0.00000000000E+00  0.65725172911E+00  0.65725172911E+00  0.00000000000E+00 0.  1.
         22   -1    0    0    0    0 -0.00000000000E+00 -0.00000000000E+00 -0.11200842323E+02  0.11200842323E+02  0.00000000000E+00 0. -1.
          4    1    1    2  501    0 -0.23219882426E+01 -0.20597615114E+00 -0.64978872878E+01  0.70192232318E+01  0.12700000000E+01 0. -1.
         -4    1    1    2    0  501  0.23219882426E+01  0.20597615114E+00 -0.40457033057E+01  0.48388708198E+01  0.12700000000E+01 0.  1.
<mgrwt>
<rscale>  0 0.26546102E+01</rscale>
<asrwt>0</asrwt>
<pdfrwt beam="1">0</pdfrwt>
<pdfrwt beam="2">0</pdfrwt>
<totfact> 0.22292640E+12</totfact>
</mgrwt>
</event>
<event>
 4    1  0.3324394E+006  0.3705502E+01  0.7546771E-02  0.2337390E+00
         22   -1    0    0    0    0  0.00000000000E+00  0.00000000000E+00  0.73365272074E+01  0.73365272074E+01  0.00000000000E+00 0. -1.
         22   -1    0    0    0    0 -0.00000000000E+00 -0.00000000000E+00 -0.66371946069E+01  0.66371946069E+01  0.00000000000E+00 0.  1.
          4    1    1    2  501    0 -0.82212328949E+00  0.33825962671E+01 -0.55707225686E+01  0.66905675503E+01  0.12700000000E+01 0.  1.
         -4    1    1    2    0  501  0.82212328949E+00 -0.33825962671E+01  0.62700551691E+01  0.72831542640E+01  0.12700000000E+01 0. -1.
<mgrwt>
<rscale>  0 0.37055019E+01</rscale>
<asrwt>0</asrwt>
<pdfrwt beam="1">0</pdfrwt>
<pdfrwt beam="2">0</pdfrwt>
<totfact> 0.25388763E+11</totfact>
</mgrwt>
</event>
<event>
 4    1  0.3324394E+006  0.2003942E+01  0.7546771E-02  0.2978072E+00
         22   -1    0    0    0    0  0.00000000000E+00  0.00000000000E+00  0.33143474993E+01  0.33143474993E+01  0.00000000000E+00 0. -1.
         22   -1    0    0    0    0 -0.00000000000E+00 -0.00000000000E+00 -0.13417883396E+01  0.13417883396E+01  0.00000000000E+00 0. -1.
          4    1    1    2  501    0  0.13217127992E+01 -0.80991347095E+00  0.17113475482E+01  0.26352409728E+01  0.12700000000E+01 0. -1.
         -4    1    1    2    0  501 -0.13217127992E+01  0.80991347095E+00  0.26121161144E+00  0.20208948661E+01  0.12700000000E+01 0. -1.
<mgrwt>
<rscale>  0 0.20039423E+01</rscale>
<asrwt>0</asrwt>
<pdfrwt beam="1">0</pdfrwt>
<pdfrwt beam="2">0</pdfrwt>
<totfact> 0.42151323E+12</totfact>
</mgrwt>
</event>
<event>
 4    1  0.3324394E+006  0.2012033E+01  0.7546771E-02  0.2972651E+00
         22   -1    0    0    0    0  0.00000000000E+00  0.00000000000E+00  0.17935697987E+01  0.17935697987E+01  0.00000000000E+00 0. -1.
         22   -1    0    0    0    0 -0.00000000000E+00 -0.00000000000E+00 -0.22956161469E+01  0.22956161469E+01  0.00000000000E+00 0. -1.
          4    1    1    2  501    0  0.73597706756E+00  0.13761236328E+01 -0.51583696274E+00  0.20771052619E+01  0.12700000000E+01 0. -1.
         -4    1    1    2    0  501 -0.73597706756E+00 -0.13761236328E+01  0.13790614533E-01  0.20120806837E+01  0.12700000000E+01 0. -1.
<mgrwt>
<rscale>  0 0.20120334E+01</rscale>
<asrwt>0</asrwt>
<pdfrwt beam="1">0</pdfrwt>
<pdfrwt beam="2">0</pdfrwt>
<totfact> 0.46307788E+12</totfact>
</mgrwt>
</event>
<event>
 4    1  0.3324394E+006  0.2897800E+01  0.7546771E-02  0.2555497E+00
         22   -1    0    0    0    0  0.00000000000E+00  0.00000000000E+00  0.10354751862E+02  0.10354751862E+02  0.00000000000E+00 0.  1.
         22   -1    0    0    0    0 -0.00000000000E+00 -0.00000000000E+00 -0.23952933984E+01  0.23952933984E+01  0.00000000000E+00 0. -1.
          4    1    1    2  501    0  0.18299313904E+01  0.18535629318E+01 -0.12050021187E+01  0.31383553881E+01  0.12700000000E+01 0. -1.
         -4    1    1    2    0  501 -0.18299313904E+01 -0.18535629318E+01  0.91644605818E+01  0.96116898718E+01  0.12700000000E+01 0.  1.
<mgrwt>
<rscale>  0 0.28977999E+01</rscale>
<asrwt>0</asrwt>
<pdfrwt beam="1">0</pdfrwt>
<pdfrwt beam="2">0</pdfrwt>
<totfact> 0.55632467E+11</totfact>
</mgrwt>
</event>
<event>
 4    1  0.3324394E+006  0.2350197E+01  0.7546771E-02  0.2778499E+00
         22   -1    0    0    0    0  0.00000000000E+00  0.00000000000E+00  0.20973010067E+00  0.20973010067E+00  0.00000000000E+00 0. -1.
         22   -1    0    0    0    0 -0.00000000000E+00 -0.00000000000E+00 -0.10151410368E+03  0.10151410368E+03  0.00000000000E+00 0.  1.
          4    1    1    2  501    0 -0.95125663007E+00  0.17336767242E+01 -0.94422091133E+02  0.94451335184E+02  0.12700000000E+01 0.  1.
         -4    1    1    2    0  501  0.95125663007E+00 -0.17336767242E+01 -0.68822824418E+01  0.72724985919E+01  0.12700000000E+01 0. -1.
<mgrwt>
<rscale>  0 0.23501966E+01</rscale>
<asrwt>0</asrwt>
<pdfrwt beam="1">0</pdfrwt>
<pdfrwt beam="2">0</pdfrwt>
<totfact> 0.46588875E+11</totfact>
</mgrwt>
</event>
<event>
 4    1  0.3324394E+006  0.3185671E+01  0.7546771E-02  0.2466574E+00
         22   -1    0    0    0    0  0.00000000000E+00  0.00000000000E+00  0.61871611459E+02  0.61871611459E+02  0.00000000000E+00 0.  1.
         22   -1    0    0    0    0 -0.00000000000E+00 -0.00000000000E+00 -0.21442908387E+01  0.21442908387E+01  0.00000000000E+00 0.  1.
          4    1    1    2  501    0 -0.10340724954E+01 -0.27324524189E+01 -0.89573252815E+00  0.33092051779E+01  0.12700000000E+01 0.  1.
         -4    1    1    2    0  501  0.10340724954E+01  0.27324524189E+01  0.60623053149E+02  0.60706697120E+02  0.12700000000E+01 0.  1.
<mgrwt>
<rscale>  0 0.31856714E+01</rscale>
<asrwt>0</asrwt>
<pdfrwt beam="1">0</pdfrwt>
<pdfrwt beam="2">0</pdfrwt>
<totfact> 0.65677041E+10</totfact>
</mgrwt>
</event>
<event>
 4    1  0.3324394E+006  0.2093701E+01  0.7546771E-02  0.2920227E+00
         22   -1    0    0    0    0  0.00000000000E+00  0.00000000000E+00  0.15235515873E+01  0.15235515873E+01  0.00000000000E+00 0.  1.
         22   -1    0    0    0    0 -0.00000000000E+00 -0.00000000000E+00 -0.52534951179E+01  0.52534951179E+01  0.00000000000E+00 0. -1.
          4    1    1    2  501    0  0.98554755303E+00 -0.13414094148E+01 -0.41439242510E+01  0.46428107215E+01  0.12700000000E+01 0. -1.
         -4    1    1    2    0  501 -0.98554755303E+00  0.13414094148E+01  0.41398072033E+00  0.21342359837E+01  0.12700000000E+01 0.  1.
<mgrwt>
<rscale>  0 0.20937008E+01</rscale>
<asrwt>0</asrwt>
<pdfrwt beam="1">0</pdfrwt>
<pdfrwt beam="2">0</pdfrwt>
<totfact> 0.21169163E+12</totfact>
</mgrwt>
</event>
<event>
 4    1  0.3324394E+006  0.3037825E+01  0.7546771E-02  0.2510361E+00
         22   -1    0    0    0    0  0.00000000000E+00  0.00000000000E+00  0.56047046259E+00  0.56047046259E+00  0.00000000000E+00 0.  1.
         22   -1    0    0    0    0 -0.00000000000E+00 -0.00000000000E+00 -0.16840537809E+02  0.16840537809E+02  0.00000000000E+00 0. -1.
          4    1    1    2  501    0  0.27589932735E+01 -0.58614006742E-01 -0.94385649908E+01  0.99153864559E+01  0.12700000000E+01 0.  1.
         -4    1    1    2    0  501 -0.27589932735E+01  0.58614006742E-01 -0.68415023557E+01  0.74856218158E+01  0.12700000000E+01 0.  1.
<mgrwt>
<rscale>  0 0.30378248E+01</rscale>
<asrwt>0</asrwt>
<pdfrwt beam="1">0</pdfrwt>
<pdfrwt beam="2">0</pdfrwt>
<totfact> 0.16194015E+12</totfact>
</mgrwt>
</event>
<event>
 4    1  0.3324394E+006  0.3556562E+01  0.7546771E-02  0.2371024E+00
         22   -1    0    0    0    0  0.00000000000E+00  0.00000000000E+00  0.13268041984E+02  0.13268041984E+02  0.00000000000E+00 0. -1.
         22   -1    0    0    0    0 -0.00000000000E+00 -0.00000000000E+00 -0.13666539167E+01  0.13666539167E+01  0.00000000000E+00 0.  1.
          4    1    1    2  501    0 -0.30001240737E+01  0.14267060435E+01  0.19266998877E+01  0.40449112536E+01  0.12700000000E+01 0.  1.
         -4    1    1    2    0  501  0.30001240737E+01 -0.14267060435E+01  0.99746881792E+01  0.10589784647E+02  0.12700000000E+01 0. -1.
<mgrwt>
<rscale>  0 0.35565622E+01</rscale>
<asrwt>0</asrwt>
<pdfrwt beam="1">0</pdfrwt>
<pdfrwt beam="2">0</pdfrwt>
<totfact> 0.78643882E+11</totfact>
</mgrwt>
</event>
<event>
 4    1  0.3324394E+006  0.2609491E+01  0.7546771E-02  0.2662142E+00
         22   -1    0    0    0    0  0.00000000000E+00  0.00000000000E+00  0.58841387390E+01  0.58841387390E+01  0.00000000000E+00 0. -1.
         22   -1    0    0    0    0 -0.00000000000E+00 -0.00000000000E+00 -0.12503656820E+01  0.12503656820E+01  0.00000000000E+00 0. -1.
          4    1    1    2  501    0 -0.14219330372E+01 -0.17817543480E+01  0.13434273041E+01  0.29350023919E+01  0.12700000000E+01 0. -1.
         -4    1    1    2    0  501  0.14219330372E+01  0.17817543480E+01  0.32903457528E+01  0.41995020291E+01  0.12700000000E+01 0. -1.
<mgrwt>
<rscale>  0 0.26094908E+01</rscale>
<asrwt>0</asrwt>
<pdfrwt beam="1">0</pdfrwt>
<pdfrwt beam="2">0</pdfrwt>
<totfact> 0.23219275E+12</totfact>
</mgrwt>
</event>
<event>
 4    1  0.3324394E+006  0.5356998E+01  0.7546771E-02  0.2082656E+00
         22   -1    0    0    0    0  0.00000000000E+00  0.00000000000E+00  0.37661019014E+02  0.37661019014E+02  0.00000000000E+00 0.  1.
         22   -1    0    0    0    0 -0.00000000000E+00 -0.00000000000E+00 -0.82016702158E+00  0.82016702158E+00  0.00000000000E+00 0. -1.
          4    1    1    2  501    0  0.44344253475E+01 -0.27240407275E+01  0.13296149903E+02  0.14334748979E+02  0.12700000000E+01 0. -1.
         -4    1    1    2    0  501 -0.44344253475E+01  0.27240407275E+01  0.23544702089E+02  0.24146437056E+02  0.12700000000E+01 0.  1.
<mgrwt>
<rscale>  0 0.53569979E+01</rscale>
<asrwt>0</asrwt>
<pdfrwt beam="1">0</pdfrwt>
<pdfrwt beam="2">0</pdfrwt>
<totfact> 0.38050143E+11</totfact>
</mgrwt>
</event>
<event>
 4    1  0.3324394E+006  0.2257821E+01  0.7546771E-02  0.2825994E+00
         22   -1    0    0    0    0  0.00000000000E+00  0.00000000000E+00  0.92859575200E+00  0.92859575200E+00  0.00000000000E+00 0. -1.
         22   -1    0    0    0    0 -0.00000000000E+00 -0.00000000000E+00 -0.59610004834E+01  0.59610004834E+01  0.00000000000E+00 0.  1.
          4    1    1    2  501    0 -0.18437268588E+01  0.29245217586E+00 -0.15476327132E+01  0.27373205914E+01  0.12700000000E+01 0. -1.
         -4    1    1    2    0  501  0.18437268588E+01 -0.29245217586E+00 -0.34847720182E+01  0.41522756440E+01  0.12700000000E+01 0.  1.
<mgrwt>
<rscale>  0 0.22578213E+01</rscale>
<asrwt>0</asrwt>
<pdfrwt beam="1">0</pdfrwt>
<pdfrwt beam="2">0</pdfrwt>
<totfact> 0.32127644E+12</totfact>
</mgrwt>
</event>
<event>
 4    1  0.3324394E+006  0.2199528E+01  0.7546771E-02  0.2857917E+00
         22   -1    0    0    0    0  0.00000000000E+00  0.00000000000E+00  0.15831157183E+01  0.15831157183E+01  0.00000000000E+00 0.  1.
         22   -1    0    0    0    0 -0.00000000000E+00 -0.00000000000E+00 -0.32197045053E+01  0.32197045053E+01  0.00000000000E+00 0. -1.
          4    1    1    2  501    0 -0.10776982169E+01 -0.14365201725E+01 -0.13598636134E+01  0.25859529578E+01  0.12700000000E+01 0. -1.
         -4    1    1    2    0  501  0.10776982169E+01  0.14365201725E+01 -0.27672517365E+00  0.22168672659E+01  0.12700000000E+01 0.  1.
<mgrwt>
<rscale>  0 0.21995281E+01</rscale>
<asrwt>0</asrwt>
<pdfrwt beam="1">0</pdfrwt>
<pdfrwt beam="2">0</pdfrwt>
<totfact> 0.36054659E+12</totfact>
</mgrwt>
</event>
<event>
 4    1  0.3324394E+006  0.2142789E+01  0.7546771E-02  0.2890586E+00
         22   -1    0    0    0    0  0.00000000000E+00  0.00000000000E+00  0.29846352741E+02  0.29846352741E+02  0.00000000000E+00 0. -1.
         22   -1    0    0    0    0 -0.00000000000E+00 -0.00000000000E+00 -0.24469757634E+00  0.24469757634E+00  0.00000000000E+00 0.  1.
          4    1    1    2  501    0 -0.10603634866E+01  0.13617167919E+01  0.56328264666E+01  0.60266306795E+01  0.12700000000E+01 0.  1.
         -4    1    1    2    0  501  0.10603634866E+01 -0.13617167919E+01  0.23968828698E+02  0.24064419638E+02  0.12700000000E+01 0. -1.
<mgrwt>
<rscale>  0 0.21427887E+01</rscale>
<asrwt>0</asrwt>
<pdfrwt beam="1">0</pdfrwt>
<pdfrwt beam="2">0</pdfrwt>
<totfact> 0.20056348E+12</totfact>
</mgrwt>
</event>
<event>
 4    1  0.3324394E+006  0.2473693E+01  0.7546771E-02  0.2720243E+00
         22   -1    0    0    0    0  0.00000000000E+00  0.00000000000E+00  0.66290995476E+00  0.66290995476E+00  0.00000000000E+00 0. -1.
         22   -1    0    0    0    0 -0.00000000000E+00 -0.00000000000E+00 -0.16198563882E+02  0.16198563882E+02  0.00000000000E+00 0. -1.
          4    1    1    2  501    0  0.36672793073E+00  0.20908766786E+01 -0.13297196529E+02  0.13525331426E+02  0.12700000000E+01 0. -1.
         -4    1    1    2    0  501 -0.36672793073E+00 -0.20908766786E+01 -0.22384573988E+01  0.33361424110E+01  0.12700000000E+01 0. -1.
<mgrwt>
<rscale>  0 0.24736925E+01</rscale>
<asrwt>0</asrwt>
<pdfrwt beam="1">0</pdfrwt>
<pdfrwt beam="2">0</pdfrwt>
<totfact> 0.14048568E+12</totfact>
</mgrwt>
</event>
<event>
 4    1  0.3324394E+006  0.2837165E+01  0.7546771E-02  0.2576284E+00
         22   -1    0    0    0    0  0.00000000000E+00  0.00000000000E+00  0.21447684097E+02  0.21447684097E+02  0.00000000000E+00 0.  1.
         22   -1    0    0    0    0 -0.00000000000E+00 -0.00000000000E+00 -0.39249648576E+00  0.39249648576E+00  0.00000000000E+00 0.  1.
          4    1    1    2  501    0  0.23665676697E+01 -0.91431041085E+00  0.82424361239E+01  0.87170671283E+01  0.12700000000E+01 0.  1.
         -4    1    1    2    0  501 -0.23665676697E+01  0.91431041085E+00  0.12812751487E+02  0.13123113454E+02  0.12700000000E+01 0.  1.
<mgrwt>
<rscale>  0 0.28371651E+01</rscale>
<asrwt>0</asrwt>
<pdfrwt beam="1">0</pdfrwt>
<pdfrwt beam="2">0</pdfrwt>
<totfact> 0.17916634E+12</totfact>
</mgrwt>
</event>
<event>
 4    1  0.3324394E+006  0.3453734E+01  0.7546771E-02  0.2395709E+00
         22   -1    0    0    0    0  0.00000000000E+00  0.00000000000E+00  0.70584101039E+02  0.70584101039E+02  0.00000000000E+00 0.  1.
         22   -1    0    0    0    0 -0.00000000000E+00 -0.00000000000E+00 -0.19222591025E+00  0.19222591025E+00  0.00000000000E+00 0.  1.
          4    1    1    2  501    0 -0.71702484831E+00  0.31306952306E+01  0.22893358844E+02  0.23152411460E+02  0.12700000000E+01 0.  1.
         -4    1    1    2    0  501  0.71702484831E+00 -0.31306952306E+01  0.47498516285E+02  0.47623915490E+02  0.12700000000E+01 0.  1.
<mgrwt>
<rscale>  0 0.34537338E+01</rscale>
<asrwt>0</asrwt>
<pdfrwt beam="1">0</pdfrwt>
<pdfrwt beam="2">0</pdfrwt>
<totfact> 0.84875961E+11</totfact>
</mgrwt>
</event>
<event>
 4    1  0.3324394E+006  0.2838758E+01  0.7546771E-02  0.2575728E+00
         22   -1    0    0    0    0  0.00000000000E+00  0.00000000000E+00  0.25882140696E+00  0.25882140696E+00  0.00000000000E+00 0.  1.
         22   -1    0    0    0    0 -0.00000000000E+00 -0.00000000000E+00 -0.31239713378E+02  0.31239713378E+02  0.00000000000E+00 0. -1.
          4    1    1    2  501    0  0.24116143741E+01 -0.79357505037E+00 -0.14580999157E+02  0.14854766294E+02  0.12700000000E+01 0.  1.
         -4    1    1    2    0  501 -0.24116143741E+01  0.79357505037E+00 -0.16399892814E+02  0.16643768491E+02  0.12700000000E+01 0. -1.
<mgrwt>
<rscale>  0 0.28387577E+01</rscale>
<asrwt>0</asrwt>
<pdfrwt beam="1">0</pdfrwt>
<pdfrwt beam="2">0</pdfrwt>
<totfact> 0.17772282E+12</totfact>
</mgrwt>
</event>
<event>
 4    1  0.3324394E+006  0.2104253E+01  0.7546771E-02  0.2913742E+00
         22   -1    0    0    0    0  0.00000000000E+00  0.00000000000E+00  0.52249513303E+02  0.52249513303E+02  0.00000000000E+00 0. -1.
         22   -1    0    0    0    0 -0.00000000000E+00 -0.00000000000E+00 -0.15761758885E+00  0.15761758885E+00  0.00000000000E+00 0. -1.
          4    1    1    2  501    0 -0.12187018122E+01 -0.11531468143E+01  0.82287116542E+01  0.84935020557E+01  0.12700000000E+01 0. -1.
         -4    1    1    2    0  501  0.12187018122E+01  0.11531468143E+01  0.43863184060E+02  0.43913628836E+02  0.12700000000E+01 0. -1.
<mgrwt>
<rscale>  0 0.21042532E+01</rscale>
<asrwt>0</asrwt>
<pdfrwt beam="1">0</pdfrwt>
<pdfrwt beam="2">0</pdfrwt>
<totfact> 0.15841333E+12</totfact>
</mgrwt>
</event>
<event>
 4    1  0.3324394E+006  0.2007536E+01  0.7546771E-02  0.2975659E+00
         22   -1    0    0    0    0  0.00000000000E+00  0.00000000000E+00  0.36979832823E-01  0.36979832823E-01  0.00000000000E+00 0. -1.
         22   -1    0    0    0    0 -0.00000000000E+00 -0.00000000000E+00 -0.10939727789E+03  0.10939727789E+03  0.00000000000E+00 0.  1.
          4    1    1    2  501    0 -0.15369305928E+01  0.23483164799E+00 -0.51316097972E+02  0.51355351354E+02  0.12700000000E+01 0.  1.
         -4    1    1    2    0  501  0.15369305928E+01 -0.23483164799E+00 -0.58044200081E+02  0.58078906365E+02  0.12700000000E+01 0. -1.
<mgrwt>
<rscale>  0 0.20075362E+01</rscale>
<asrwt>0</asrwt>
<pdfrwt beam="1">0</pdfrwt>
<pdfrwt beam="2">0</pdfrwt>
<totfact> 0.28555737E+12</totfact>
</mgrwt>
</event>
<event>
 4    1  0.3324394E+006  0.3968865E+01  0.7546771E-02  0.2283286E+00
         22   -1    0    0    0    0  0.00000000000E+00  0.00000000000E+00  0.59447421138E+00  0.59447421138E+00  0.00000000000E+00 0.  1.
         22   -1    0    0    0    0 -0.00000000000E+00 -0.00000000000E+00 -0.26899997499E+02  0.26899997499E+02  0.00000000000E+00 0. -1.
          4    1    1    2  501    0 -0.27172585653E+01  0.25991340365E+01 -0.14835016990E+02  0.15356745129E+02  0.12700000000E+01 0.  1.
         -4    1    1    2    0  501  0.27172585653E+01 -0.25991340365E+01 -0.11470506298E+02  0.12137726582E+02  0.12700000000E+01 0. -1.
<mgrwt>
<rscale>  0 0.39688653E+01</rscale>
<asrwt>0</asrwt>
<pdfrwt beam="1">0</pdfrwt>
<pdfrwt beam="2">0</pdfrwt>
<totfact> 0.84321246E+11</totfact>
</mgrwt>
</event>
<event>
 4    1  0.3324394E+006  0.2320439E+01  0.7546771E-02  0.2793408E+00
         22   -1    0    0    0    0  0.00000000000E+00  0.00000000000E+00  0.85220895355E+00  0.85220895355E+00  0.00000000000E+00 0.  1.
         22   -1    0    0    0    0 -0.00000000000E+00 -0.00000000000E+00 -0.16168882090E+02  0.16168882090E+02  0.00000000000E+00 0. -1.
          4    1    1    2  501    0  0.10870755316E+01 -0.16092861683E+01 -0.14301123643E+02  0.14488152838E+02  0.12700000000E+01 0. -1.
         -4    1    1    2    0  501 -0.10870755316E+01  0.16092861683E+01 -0.10155494933E+01  0.25329382062E+01  0.12700000000E+01 0.  1.
<mgrwt>
<rscale>  0 0.23204386E+01</rscale>
<asrwt>0</asrwt>
<pdfrwt beam="1">0</pdfrwt>
<pdfrwt beam="2">0</pdfrwt>
<totfact> 0.10583547E+12</totfact>
</mgrwt>
</event>
<event>
 4    1  0.3324394E+006  0.2554448E+01  0.7546771E-02  0.2685002E+00
         22   -1    0    0    0    0  0.00000000000E+00  0.00000000000E+00  0.23106462639E+00  0.23106462639E+00  0.00000000000E+00 0.  1.
         22   -1    0    0    0    0 -0.00000000000E+00 -0.00000000000E+00 -0.34870282220E+02  0.34870282220E+02  0.00000000000E+00 0. -1.
          4    1    1    2  501    0 -0.21901779667E+01  0.33974545096E+00 -0.24972761172E+02  0.25103067682E+02  0.12700000000E+01 0.  1.
         -4    1    1    2    0  501  0.21901779667E+01 -0.33974545096E+00 -0.96664564224E+01  0.99982791651E+01  0.12700000000E+01 0. -1.
<mgrwt>
<rscale>  0 0.25544484E+01</rscale>
<asrwt>0</asrwt>
<pdfrwt beam="1">0</pdfrwt>
<pdfrwt beam="2">0</pdfrwt>
<totfact> 0.17523808E+12</totfact>
</mgrwt>
</event>
<event>
 4    1  0.3324394E+006  0.8493363E+01  0.7546771E-02  0.1849049E+00
         22   -1    0    0    0    0  0.00000000000E+00  0.00000000000E+00  0.65331089886E+01  0.65331089886E+01  0.00000000000E+00 0. -1.
         22   -1    0    0    0    0 -0.00000000000E+00 -0.00000000000E+00 -0.13948999709E+02  0.13948999709E+02  0.00000000000E+00 0.  1.
          4    1    1    2  501    0 -0.63767671675E+01  0.54645367866E+01 -0.83832645853E+01  0.11933832029E+02  0.12700000000E+01 0. -1.
         -4    1    1    2    0  501  0.63767671675E+01 -0.54645367866E+01  0.96737386502E+00  0.85482766681E+01  0.12700000000E+01 0.  1.
<mgrwt>
<rscale>  0 0.84933634E+01</rscale>
<asrwt>0</asrwt>
<pdfrwt beam="1">0</pdfrwt>
<pdfrwt beam="2">0</pdfrwt>
<totfact> 0.11876812E+11</totfact>
</mgrwt>
</event>
<event>
 4    1  0.3324394E+006  0.4084154E+01  0.7546771E-02  0.2261491E+00
         22   -1    0    0    0    0  0.00000000000E+00  0.00000000000E+00  0.76789607354E+00  0.76789607354E+00  0.00000000000E+00 0.  1.
         22   -1    0    0    0    0 -0.00000000000E+00 -0.00000000000E+00 -0.30087993859E+02  0.30087993859E+02  0.00000000000E+00 0. -1.
          4    1    1    2  501    0 -0.18169539429E+01  0.34301738821E+01 -0.22795238275E+02  0.23158221057E+02  0.12700000000E+01 0. -1.
         -4    1    1    2    0  501  0.18169539429E+01 -0.34301738821E+01 -0.65248595104E+01  0.76976688759E+01  0.12700000000E+01 0.  1.
<mgrwt>
<rscale>  0 0.40841541E+01</rscale>
<asrwt>0</asrwt>
<pdfrwt beam="1">0</pdfrwt>
<pdfrwt beam="2">0</pdfrwt>
<totfact> 0.54703979E+11</totfact>
</mgrwt>
</event>
<event>
 4    1  0.3324394E+006  0.2975158E+01  0.7546771E-02  0.2530089E+00
         22   -1    0    0    0    0  0.00000000000E+00  0.00000000000E+00  0.42963612885E+01  0.42963612885E+01  0.00000000000E+00 0. -1.
         22   -1    0    0    0    0 -0.00000000000E+00 -0.00000000000E+00 -0.33427378135E+01  0.33427378135E+01  0.00000000000E+00 0.  1.
          4    1    1    2  501    0 -0.20194685943E+01  0.17777548984E+01 -0.18890431660E+01  0.35242091262E+01  0.12700000000E+01 0.  1.
         -4    1    1    2    0  501  0.20194685943E+01 -0.17777548984E+01  0.28426666409E+01  0.41148899759E+01  0.12700000000E+01 0. -1.
<mgrwt>
<rscale>  0 0.29751581E+01</rscale>
<asrwt>0</asrwt>
<pdfrwt beam="1">0</pdfrwt>
<pdfrwt beam="2">0</pdfrwt>
<totfact> 0.10787562E+12</totfact>
</mgrwt>
</event>
<event>
 4    1  0.3324394E+006  0.2670587E+01  0.7546771E-02  0.2637788E+00
         22   -1    0    0    0    0  0.00000000000E+00  0.00000000000E+00  0.22886105691E+00  0.22886105691E+00  0.00000000000E+00 0.  1.
         22   -1    0    0    0    0 -0.00000000000E+00 -0.00000000000E+00 -0.43227180850E+02  0.43227180850E+02  0.00000000000E+00 0. -1.
          4    1    1    2  501    0  0.10071825651E+01 -0.21224326928E+01 -0.32977721717E+02  0.33085679182E+02  0.12700000000E+01 0. -1.
         -4    1    1    2    0  501 -0.10071825651E+01  0.21224326928E+01 -0.10020598076E+02  0.10370362726E+02  0.12700000000E+01 0.  1.
<mgrwt>
<rscale>  0 0.26705874E+01</rscale>
<asrwt>0</asrwt>
<pdfrwt beam="1">0</pdfrwt>
<pdfrwt beam="2">0</pdfrwt>
<totfact> 0.13409953E+12</totfact>
</mgrwt>
</event>
<event>
 4    1  0.3324394E+006  0.3613529E+01  0.7546771E-02  0.2357876E+00
         22   -1    0    0    0    0  0.00000000000E+00  0.00000000000E+00  0.46133615567E+01  0.46133615567E+01  0.00000000000E+00 0. -1.
         22   -1    0    0    0    0 -0.00000000000E+00 -0.00000000000E+00 -0.10694938837E+02  0.10694938837E+02  0.00000000000E+00 0.  1.
          4    1    1    2  501    0  0.27107086763E+01 -0.20240421719E+01 -0.96044305444E+01  0.10261709133E+02  0.12700000000E+01 0.  1.
         -4    1    1    2    0  501 -0.27107086763E+01  0.20240421719E+01  0.35228532638E+01  0.50465912614E+01  0.12700000000E+01 0. -1.
<mgrwt>
<rscale>  0 0.36135285E+01</rscale>
<asrwt>0</asrwt>
<pdfrwt beam="1">0</pdfrwt>
<pdfrwt beam="2">0</pdfrwt>
<totfact> 0.24824093E+11</totfact>
</mgrwt>
</event>
<event>
 4    1  0.3324394E+006  0.3834492E+01  0.7546771E-02  0.2310094E+00
         22   -1    0    0    0    0  0.00000000000E+00  0.00000000000E+00  0.33848783466E+01  0.33848783466E+01  0.00000000000E+00 0. -1.
         22   -1    0    0    0    0 -0.00000000000E+00 -0.00000000000E+00 -0.57137726569E+01  0.57137726569E+01  0.00000000000E+00 0.  1.
          4    1    1    2  501    0  0.25775425531E+01 -0.25390355127E+01 -0.33920468856E+01  0.51195028100E+01  0.12700000000E+01 0.  1.
         -4    1    1    2    0  501 -0.25775425531E+01  0.25390355127E+01  0.10631525753E+01  0.39791481935E+01  0.12700000000E+01 0. -1.
<mgrwt>
<rscale>  0 0.38344917E+01</rscale>
<asrwt>0</asrwt>
<pdfrwt beam="1">0</pdfrwt>
<pdfrwt beam="2">0</pdfrwt>
<totfact> 0.75854337E+11</totfact>
</mgrwt>
</event>
<event>
 4    1  0.3324394E+006  0.3611475E+01  0.7546771E-02  0.2358344E+00
         22   -1    0    0    0    0  0.00000000000E+00  0.00000000000E+00  0.32461617001E+01  0.32461617001E+01  0.00000000000E+00 0.  1.
         22   -1    0    0    0    0 -0.00000000000E+00 -0.00000000000E+00 -0.58873670199E+01  0.58873670199E+01  0.00000000000E+00 0. -1.
          4    1    1    2  501    0 -0.50904730544E+00 -0.33422632843E+01 -0.38940006318E+01  0.53109315512E+01  0.12700000000E+01 0. -1.
         -4    1    1    2    0  501  0.50904730544E+00  0.33422632843E+01  0.12527953120E+01  0.38225971688E+01  0.12700000000E+01 0.  1.
<mgrwt>
<rscale>  0 0.36114752E+01</rscale>
<asrwt>0</asrwt>
<pdfrwt beam="1">0</pdfrwt>
<pdfrwt beam="2">0</pdfrwt>
<totfact> 0.76878467E+11</totfact>
</mgrwt>
</event>
<event>
 4    1  0.3324394E+006  0.2463344E+01  0.7546771E-02  0.2724915E+00
         22   -1    0    0    0    0  0.00000000000E+00  0.00000000000E+00  0.45658596373E+02  0.45658596373E+02  0.00000000000E+00 0.  1.
         22   -1    0    0    0    0 -0.00000000000E+00 -0.00000000000E+00 -0.16878913148E+00  0.16878913148E+00  0.00000000000E+00 0. -1.
          4    1    1    2  501    0 -0.15234228717E+01  0.14609394957E+01  0.12179166160E+02  0.12425785682E+02  0.12700000000E+01 0. -1.
         -4    1    1    2    0  501  0.15234228717E+01 -0.14609394957E+01  0.33310641081E+02  0.33401599823E+02  0.12700000000E+01 0.  1.
<mgrwt>
<rscale>  0 0.24633436E+01</rscale>
<asrwt>0</asrwt>
<pdfrwt beam="1">0</pdfrwt>
<pdfrwt beam="2">0</pdfrwt>
<totfact> 0.17531836E+12</totfact>
</mgrwt>
</event>
<event>
 4    1  0.3324394E+006  0.2469166E+01  0.7546771E-02  0.2722282E+00
         22   -1    0    0    0    0  0.00000000000E+00  0.00000000000E+00  0.11206431711E+01  0.11206431711E+01  0.00000000000E+00 0.  1.
         22   -1    0    0    0    0 -0.00000000000E+00 -0.00000000000E+00 -0.14108593253E+02  0.14108593253E+02  0.00000000000E+00 0. -1.
          4    1    1    2  501    0 -0.87442598466E+00 -0.19285386312E+01 -0.12462538119E+02  0.12704788012E+02  0.12700000000E+01 0. -1.
         -4    1    1    2    0  501  0.87442598466E+00  0.19285386312E+01 -0.52541196239E+00  0.25244484120E+01  0.12700000000E+01 0.  1.
<mgrwt>
<rscale>  0 0.24691663E+01</rscale>
<asrwt>0</asrwt>
<pdfrwt beam="1">0</pdfrwt>
<pdfrwt beam="2">0</pdfrwt>
<totfact> 0.91571268E+11</totfact>
</mgrwt>
</event>
<event>
 4    1  0.3324394E+006  0.2464645E+01  0.7546771E-02  0.2724325E+00
         22   -1    0    0    0    0  0.00000000000E+00  0.00000000000E+00  0.24111944604E+01  0.24111944604E+01  0.00000000000E+00 0.  1.
         22   -1    0    0    0    0 -0.00000000000E+00 -0.00000000000E+00 -0.31812477190E+01  0.31812477190E+01  0.00000000000E+00 0. -1.
          4    1    1    2  501    0  0.33739081985E+00 -0.20851243943E+01  0.89050388385E+00  0.26205864749E+01  0.12700000000E+01 0.  1.
         -4    1    1    2    0  501 -0.33739081985E+00  0.20851243943E+01 -0.16605571424E+01  0.29718557045E+01  0.12700000000E+01 0. -1.
<mgrwt>
<rscale>  0 0.24646453E+01</rscale>
<asrwt>0</asrwt>
<pdfrwt beam="1">0</pdfrwt>
<pdfrwt beam="2">0</pdfrwt>
<totfact> 0.22474406E+12</totfact>
</mgrwt>
</event>
<event>
 4    1  0.3324394E+006  0.4528684E+01  0.7546771E-02  0.2186354E+00
         22   -1    0    0    0    0  0.00000000000E+00  0.00000000000E+00  0.32399110140E+02  0.32399110140E+02  0.00000000000E+00 0.  1.
         22   -1    0    0    0    0 -0.00000000000E+00 -0.00000000000E+00 -0.83534617071E+00  0.83534617071E+00  0.00000000000E+00 0. -1.
          4    1    1    2  501    0 -0.18000186662E+01  0.39567680261E+01  0.76036118715E+01  0.88500787513E+01  0.12700000000E+01 0. -1.
         -4    1    1    2    0  501  0.18000186662E+01 -0.39567680261E+01  0.23960152098E+02  0.24384377559E+02  0.12700000000E+01 0.  1.
<mgrwt>
<rscale>  0 0.45286842E+01</rscale>
<asrwt>0</asrwt>
<pdfrwt beam="1">0</pdfrwt>
<pdfrwt beam="2">0</pdfrwt>
<totfact> 0.45223728E+11</totfact>
</mgrwt>
</event>
<event>
 4    1  0.3324394E+006  0.3011720E+01  0.7546771E-02  0.2518489E+00
         22   -1    0    0    0    0  0.00000000000E+00  0.00000000000E+00  0.69947650025E+00  0.69947650025E+00  0.00000000000E+00 0. -1.
         22   -1    0    0    0    0 -0.00000000000E+00 -0.00000000000E+00 -0.19660727948E+02  0.19660727948E+02  0.00000000000E+00 0.  1.
          4    1    1    2  501    0  0.27180254632E+01 -0.26437837598E+00 -0.15420404869E+02  0.15711758166E+02  0.12700000000E+01 0.  1.
         -4    1    1    2    0  501 -0.27180254632E+01  0.26437837598E+00 -0.35408465787E+01  0.46484462822E+01  0.12700000000E+01 0. -1.
<mgrwt>
<rscale>  0 0.30117202E+01</rscale>
<asrwt>0</asrwt>
<pdfrwt beam="1">0</pdfrwt>
<pdfrwt beam="2">0</pdfrwt>
<totfact> 0.10395619E+12</totfact>
</mgrwt>
</event>
<event>
 4    1  0.3324394E+006  0.2539518E+01  0.7546771E-02  0.2691360E+00
         22   -1    0    0    0    0  0.00000000000E+00  0.00000000000E+00  0.27410042938E+01  0.27410042938E+01  0.00000000000E+00 0. -1.
         22   -1    0    0    0    0 -0.00000000000E+00 -0.00000000000E+00 -0.58458466334E+01  0.58458466334E+01  0.00000000000E+00 0.  1.
          4    1    1    2  501    0 -0.18717971281E+01  0.11543952951E+01 -0.48712108631E+01  0.54934368349E+01  0.12700000000E+01 0.  1.
         -4    1    1    2    0  501  0.18717971281E+01 -0.11543952951E+01  0.17663685235E+01  0.30934140924E+01  0.12700000000E+01 0. -1.
<mgrwt>
<rscale>  0 0.25395183E+01</rscale>
<asrwt>0</asrwt>
<pdfrwt beam="1">0</pdfrwt>
<pdfrwt beam="2">0</pdfrwt>
<totfact> 0.94461510E+11</totfact>
</mgrwt>
</event>
<event>
 4    1  0.3324394E+006  0.2874064E+01  0.7546771E-02  0.2563540E+00
         22   -1    0    0    0    0  0.00000000000E+00  0.00000000000E+00  0.13073347291E+01  0.13073347291E+01  0.00000000000E+00 0. -1.
         22   -1    0    0    0    0 -0.00000000000E+00 -0.00000000000E+00 -0.63188932259E+01  0.63188932259E+01  0.00000000000E+00 0. -1.
          4    1    1    2  501    0  0.11211308272E+00  0.25758056770E+01 -0.24715844973E+01  0.37906429740E+01  0.12700000000E+01 0. -1.
         -4    1    1    2    0  501 -0.11211308272E+00 -0.25758056770E+01 -0.25399739995E+01  0.38355849810E+01  0.12700000000E+01 0. -1.
<mgrwt>
<rscale>  0 0.28740641E+01</rscale>
<asrwt>0</asrwt>
<pdfrwt beam="1">0</pdfrwt>
<pdfrwt beam="2">0</pdfrwt>
<totfact> 0.20266882E+12</totfact>
</mgrwt>
</event>
<event>
 4    1  0.3324394E+006  0.3491540E+01  0.7546771E-02  0.2386486E+00
         22   -1    0    0    0    0  0.00000000000E+00  0.00000000000E+00  0.55976507072E+01  0.55976507072E+01  0.00000000000E+00 0. -1.
         22   -1    0    0    0    0 -0.00000000000E+00 -0.00000000000E+00 -0.32821085105E+01  0.32821085105E+01  0.00000000000E+00 0.  1.
          4    1    1    2  501    0 -0.13917729208E+01 -0.29395439252E+01 -0.14175409905E+01  0.37683249343E+01  0.12700000000E+01 0.  1.
         -4    1    1    2    0  501  0.13917729208E+01  0.29395439252E+01  0.37330831872E+01  0.51114342834E+01  0.12700000000E+01 0. -1.
<mgrwt>
<rscale>  0 0.34915398E+01</rscale>
<asrwt>0</asrwt>
<pdfrwt beam="1">0</pdfrwt>
<pdfrwt beam="2">0</pdfrwt>
<totfact> 0.80585809E+11</totfact>
</mgrwt>
</event>
<event>
 4    1  0.3324394E+006  0.3579430E+01  0.7546771E-02  0.2365702E+00
         22   -1    0    0    0    0  0.00000000000E+00  0.00000000000E+00  0.14675094779E+01  0.14675094779E+01  0.00000000000E+00 0.  1.
         22   -1    0    0    0    0 -0.00000000000E+00 -0.00000000000E+00 -0.11335679351E+02  0.11335679351E+02  0.00000000000E+00 0. -1.
          4    1    1    2  501    0 -0.32396196169E+01  0.83921813878E+00 -0.80028954974E+01  0.87669070195E+01  0.12700000000E+01 0.  1.
         -4    1    1    2    0  501  0.32396196169E+01 -0.83921813878E+00 -0.18652743753E+01  0.40362818090E+01  0.12700000000E+01 0. -1.
<mgrwt>
<rscale>  0 0.35794305E+01</rscale>
<asrwt>0</asrwt>
<pdfrwt beam="1">0</pdfrwt>
<pdfrwt beam="2">0</pdfrwt>
<totfact> 0.87811298E+11</totfact>
</mgrwt>
</event>
<event>
 4    1  0.3324394E+006  0.2178092E+01  0.7546771E-02  0.2870067E+00
         22   -1    0    0    0    0  0.00000000000E+00  0.00000000000E+00  0.20105422372E+02  0.20105422372E+02  0.00000000000E+00 0. -1.
         22   -1    0    0    0    0 -0.00000000000E+00 -0.00000000000E+00 -0.35981111113E+00  0.35981111113E+00  0.00000000000E+00 0.  1.
          4    1    1    2  501    0  0.13200404831E+01 -0.11784225516E+01  0.15876221189E+02  0.16024933255E+02  0.12700000000E+01 0. -1.
         -4    1    1    2    0  501 -0.13200404831E+01  0.11784225516E+01  0.38693900719E+01  0.44403002281E+01  0.12700000000E+01 0.  1.
<mgrwt>
<rscale>  0 0.21780924E+01</rscale>
<asrwt>0</asrwt>
<pdfrwt beam="1">0</pdfrwt>
<pdfrwt beam="2">0</pdfrwt>
<totfact> 0.21417035E+12</totfact>
</mgrwt>
</event>
<event>
 4    1  0.3324394E+006  0.2467646E+01  0.7546771E-02  0.2722968E+00
         22   -1    0    0    0    0  0.00000000000E+00  0.00000000000E+00  0.17749873467E+02  0.17749873467E+02  0.00000000000E+00 0.  1.
         22   -1    0    0    0    0 -0.00000000000E+00 -0.00000000000E+00 -0.40001432128E+00  0.40001432128E+00  0.00000000000E+00 0. -1.
          4    1    1    2  501    0 -0.96411716611E+00  0.18833098197E+01  0.12099201049E+02  0.12348276957E+02  0.12700000000E+01 0. -1.
         -4    1    1    2    0  501  0.96411716611E+00 -0.18833098197E+01  0.52506580965E+01  0.58016108309E+01  0.12700000000E+01 0.  1.
<mgrwt>
<rscale>  0 0.24676462E+01</rscale>
<asrwt>0</asrwt>
<pdfrwt beam="1">0</pdfrwt>
<pdfrwt beam="2">0</pdfrwt>
<totfact> 0.22199194E+12</totfact>
</mgrwt>
</event>
<event>
 4    1  0.3324394E+006  0.4278331E+01  0.7546771E-02  0.2227051E+00
         22   -1    0    0    0    0  0.00000000000E+00  0.00000000000E+00  0.36139842841E+02  0.36139842841E+02  0.00000000000E+00 0. -1.
         22   -1    0    0    0    0 -0.00000000000E+00 -0.00000000000E+00 -0.50650858742E+00  0.50650858742E+00  0.00000000000E+00 0.  1.
          4    1    1    2  501    0  0.26211610450E+01 -0.31338050621E+01  0.17953535394E+02  0.18456260524E+02  0.12700000000E+01 0.  1.
         -4    1    1    2    0  501 -0.26211610450E+01  0.31338050621E+01  0.17679798860E+02  0.18190090904E+02  0.12700000000E+01 0. -1.
<mgrwt>
<rscale>  0 0.42783314E+01</rscale>
<asrwt>0</asrwt>
<pdfrwt beam="1">0</pdfrwt>
<pdfrwt beam="2">0</pdfrwt>
<totfact> 0.69305038E+11</totfact>
</mgrwt>
</event>
<event>
 4    1  0.3324394E+006  0.2520715E+01  0.7546771E-02  0.2699467E+00
         22   -1    0    0    0    0  0.00000000000E+00  0.00000000000E+00  0.16032728747E+00  0.16032728747E+00  0.00000000000E+00 0.  1.
         22   -1    0    0    0    0 -0.00000000000E+00 -0.00000000000E+00 -0.55470885787E+02  0.55470885787E+02  0.00000000000E+00 0. -1.
          4    1    1    2  501    0  0.11452940366E+01  0.18518654413E+01 -0.42518938414E+02  0.42593592569E+02  0.12700000000E+01 0. -1.
         -4    1    1    2    0  501 -0.11452940366E+01 -0.18518654413E+01 -0.12791620085E+02  0.13037620505E+02  0.12700000000E+01 0.  1.
<mgrwt>
<rscale>  0 0.25207150E+01</rscale>
<asrwt>0</asrwt>
<pdfrwt beam="1">0</pdfrwt>
<pdfrwt beam="2">0</pdfrwt>
<totfact> 0.14358961E+12</totfact>
</mgrwt>
</event>
<event>
 4    1  0.3324394E+006  0.2070938E+01  0.7546771E-02  0.2934434E+00
         22   -1    0    0    0    0  0.00000000000E+00  0.00000000000E+00  0.22937224995E+01  0.22937224995E+01  0.00000000000E+00 0. -1.
         22   -1    0    0    0    0 -0.00000000000E+00 -0.00000000000E+00 -0.21306518832E+01  0.21306518832E+01  0.00000000000E+00 0. -1.
          4    1    1    2  501    0  0.16008005288E+01 -0.33663253873E+00 -0.69251526673E+00  0.21836577557E+01  0.12700000000E+01 0. -1.
         -4    1    1    2    0  501 -0.16008005288E+01  0.33663253873E+00  0.85558588305E+00  0.22407166270E+01  0.12700000000E+01 0. -1.
<mgrwt>
<rscale>  0 0.20709379E+01</rscale>
<asrwt>0</asrwt>
<pdfrwt beam="1">0</pdfrwt>
<pdfrwt beam="2">0</pdfrwt>
<totfact> 0.37979464E+12</totfact>
</mgrwt>
</event>
<event>
 4    1  0.3324394E+006  0.2048918E+01  0.7546771E-02  0.2948469E+00
         22   -1    0    0    0    0  0.00000000000E+00  0.00000000000E+00  0.10371848985E+01  0.10371848985E+01  0.00000000000E+00 0. -1.
         22   -1    0    0    0    0 -0.00000000000E+00 -0.00000000000E+00 -0.58868651351E+01  0.58868651351E+01  0.00000000000E+00 0.  1.
          4    1    1    2  501    0  0.16018659223E+01 -0.13852446322E+00 -0.43599943290E+01  0.48174281530E+01  0.12700000000E+01 0.  1.
         -4    1    1    2    0  501 -0.16018659223E+01  0.13852446322E+00 -0.48968590759E+00  0.21066218806E+01  0.12700000000E+01 0.  1.
<mgrwt>
<rscale>  0 0.20489176E+01</rscale>
<asrwt>0</asrwt>
<pdfrwt beam="1">0</pdfrwt>
<pdfrwt beam="2">0</pdfrwt>
<totfact> 0.28740517E+12</totfact>
</mgrwt>
</event>
<event>
 4    1  0.3324394E+006  0.2812506E+01  0.7546771E-02  0.2584970E+00
         22   -1    0    0    0    0  0.00000000000E+00  0.00000000000E+00  0.27589787644E+01  0.27589787644E+01  0.00000000000E+00 0.  1.
         22   -1    0    0    0    0 -0.00000000000E+00 -0.00000000000E+00 -0.33167056664E+01  0.33167056664E+01  0.00000000000E+00 0. -1.
          4    1    1    2  501    0  0.25074816595E+01 -0.99135002300E-01 -0.13973761967E+01  0.31405178326E+01  0.12700000000E+01 0.  1.
         -4    1    1    2    0  501 -0.25074816595E+01  0.99135002300E-01  0.83964929473E+00  0.29351665983E+01  0.12700000000E+01 0. -1.
<mgrwt>
<rscale>  0 0.28125064E+01</rscale>
<asrwt>0</asrwt>
<pdfrwt beam="1">0</pdfrwt>
<pdfrwt beam="2">0</pdfrwt>
<totfact> 0.18297233E+12</totfact>
</mgrwt>
</event>
<event>
 4    1  0.3324394E+006  0.2535155E+01  0.7546771E-02  0.2693231E+00
         22   -1    0    0    0    0  0.00000000000E+00  0.00000000000E+00  0.23584230296E+01  0.23584230296E+01  0.00000000000E+00 0.  1.
         22   -1    0    0    0    0 -0.00000000000E+00 -0.00000000000E+00 -0.37773776103E+01  0.37773776103E+01  0.00000000000E+00 0.  1.
          4    1    1    2  501    0  0.21891424282E+01 -0.14753591452E+00 -0.23286934786E+01  0.34423574384E+01  0.12700000000E+01 0.  1.
         -4    1    1    2    0  501 -0.21891424282E+01  0.14753591452E+00  0.90973889790E+00  0.26934432014E+01  0.12700000000E+01 0.  1.
<mgrwt>
<rscale>  0 0.25351551E+01</rscale>
<asrwt>0</asrwt>
<pdfrwt beam="1">0</pdfrwt>
<pdfrwt beam="2">0</pdfrwt>
<totfact> 0.18854070E+12</totfact>
</mgrwt>
</event>
<event>
 4    1  0.3324394E+006  0.2146649E+01  0.7546771E-02  0.2888311E+00
         22   -1    0    0    0    0  0.00000000000E+00  0.00000000000E+00  0.26556825392E+02  0.26556825392E+02  0.00000000000E+00 0.  1.
         22   -1    0    0    0    0 -0.00000000000E+00 -0.00000000000E+00 -0.30521128919E+00  0.30521128919E+00  0.00000000000E+00 0. -1.
          4    1    1    2  501    0 -0.15291785490E+01  0.81044177831E+00  0.43033511914E+01  0.48090471392E+01  0.12700000000E+01 0. -1.
         -4    1    1    2    0  501  0.15291785490E+01 -0.81044177831E+00  0.21948262912E+02  0.22052989543E+02  0.12700000000E+01 0.  1.
<mgrwt>
<rscale>  0 0.21466492E+01</rscale>
<asrwt>0</asrwt>
<pdfrwt beam="1">0</pdfrwt>
<pdfrwt beam="2">0</pdfrwt>
<totfact> 0.18162306E+12</totfact>
</mgrwt>
</event>
<event>
 4    1  0.3324394E+006  0.3332066E+01  0.7546771E-02  0.2426629E+00
         22   -1    0    0    0    0  0.00000000000E+00  0.00000000000E+00  0.76169875068E+00  0.76169875068E+00  0.00000000000E+00 0. -1.
         22   -1    0    0    0    0 -0.00000000000E+00 -0.00000000000E+00 -0.16654926557E+02  0.16654926557E+02  0.00000000000E+00 0.  1.
          4    1    1    2  501    0 -0.26858839098E+01 -0.15085730152E+01 -0.11023153349E+02  0.11515753326E+02  0.12700000000E+01 0.  1.
         -4    1    1    2    0  501  0.26858839098E+01  0.15085730152E+01 -0.48700744573E+01  0.59008719813E+01  0.12700000000E+01 0. -1.
<mgrwt>
<rscale>  0 0.33320662E+01</rscale>
<asrwt>0</asrwt>
<pdfrwt beam="1">0</pdfrwt>
<pdfrwt beam="2">0</pdfrwt>
<totfact> 0.11594176E+12</totfact>
</mgrwt>
</event>
<event>
 4    1  0.3324394E+006  0.7526666E+01  0.7546771E-02  0.1904892E+00
         22   -1    0    0    0    0  0.00000000000E+00  0.00000000000E+00  0.10795707390E+01  0.10795707390E+01  0.00000000000E+00 0.  1.
         22   -1    0    0    0    0 -0.00000000000E+00 -0.00000000000E+00 -0.57588703306E+02  0.57588703306E+02  0.00000000000E+00 0. -1.
          4    1    1    2  501    0  0.38086859215E+01 -0.63664519897E+01 -0.36995615893E+02  0.37753493808E+02  0.12700000000E+01 0. -1.
         -4    1    1    2    0  501 -0.38086859215E+01  0.63664519897E+01 -0.19513516674E+02  0.20914780238E+02  0.12700000000E+01 0.  1.
<mgrwt>
<rscale>  0 0.75266659E+01</rscale>
<asrwt>0</asrwt>
<pdfrwt beam="1">0</pdfrwt>
<pdfrwt beam="2">0</pdfrwt>
<totfact> 0.15927849E+11</totfact>
</mgrwt>
</event>
<event>
 4    1  0.3324394E+006  0.4385413E+01  0.7546771E-02  0.2209166E+00
         22   -1    0    0    0    0  0.00000000000E+00  0.00000000000E+00  0.29162208278E+01  0.29162208278E+01  0.00000000000E+00 0. -1.
         22   -1    0    0    0    0 -0.00000000000E+00 -0.00000000000E+00 -0.66533503408E+01  0.66533503408E+01  0.00000000000E+00 0.  1.
          4    1    1    2  501    0 -0.41933588232E+01 -0.18624858143E+00 -0.23174816512E+01  0.49600975755E+01  0.12700000000E+01 0.  1.
         -4    1    1    2    0  501  0.41933588232E+01  0.18624858143E+00 -0.14196478619E+01  0.46094735932E+01  0.12700000000E+01 0. -1.
<mgrwt>
<rscale>  0 0.43854130E+01</rscale>
<asrwt>0</asrwt>
<pdfrwt beam="1">0</pdfrwt>
<pdfrwt beam="2">0</pdfrwt>
<totfact> 0.75318761E+11</totfact>
</mgrwt>
</event>
<event>
 4    1  0.3324394E+006  0.4433502E+01  0.7546771E-02  0.2201372E+00
         22   -1    0    0    0    0  0.00000000000E+00  0.00000000000E+00  0.36501486492E+01  0.36501486492E+01  0.00000000000E+00 0. -1.
         22   -1    0    0    0    0 -0.00000000000E+00 -0.00000000000E+00 -0.13277638666E+02  0.13277638666E+02  0.00000000000E+00 0.  1.
          4    1    1    2  501    0  0.41052256894E+01 -0.10909459754E+01 -0.11339363955E+02  0.12175266567E+02  0.12700000000E+01 0.  1.
         -4    1    1    2    0  501 -0.41052256894E+01  0.10909459754E+01  0.17118739380E+01  0.47525207481E+01  0.12700000000E+01 0. -1.
<mgrwt>
<rscale>  0 0.44335021E+01</rscale>
<asrwt>0</asrwt>
<pdfrwt beam="1">0</pdfrwt>
<pdfrwt beam="2">0</pdfrwt>
<totfact> 0.25125938E+11</totfact>
</mgrwt>
</event>
<event>
 4    1  0.3324394E+006  0.2641262E+01  0.7546771E-02  0.2649348E+00
         22   -1    0    0    0    0  0.00000000000E+00  0.00000000000E+00  0.13913556963E+02  0.13913556963E+02  0.00000000000E+00 0. -1.
         22   -1    0    0    0    0 -0.00000000000E+00 -0.00000000000E+00 -0.64043327379E+00  0.64043327379E+00  0.00000000000E+00 0.  1.
          4    1    1    2  501    0 -0.21759485546E+01  0.79285233248E+00  0.32459860984E+01  0.41848169237E+01  0.12700000000E+01 0. -1.
         -4    1    1    2    0  501  0.21759485546E+01 -0.79285233248E+00  0.10027137591E+02  0.10369173313E+02  0.12700000000E+01 0.  1.
<mgrwt>
<rscale>  0 0.26412624E+01</rscale>
<asrwt>0</asrwt>
<pdfrwt beam="1">0</pdfrwt>
<pdfrwt beam="2">0</pdfrwt>
<totfact> 0.17615489E+12</totfact>
</mgrwt>
</event>
<event>
 4    1  0.3324394E+006  0.2088279E+01  0.7546771E-02  0.2923583E+00
         22   -1    0    0    0    0  0.00000000000E+00  0.00000000000E+00  0.50654325832E+00  0.50654325832E+00  0.00000000000E+00 0.  1.
         22   -1    0    0    0    0 -0.00000000000E+00 -0.00000000000E+00 -0.21819320966E+02  0.21819320966E+02  0.00000000000E+00 0. -1.
          4    1    1    2  501    0  0.42012501488E-01 -0.16571800143E+01 -0.19342227659E+02  0.19454631363E+02  0.12700000000E+01 0. -1.
         -4    1    1    2    0  501 -0.42012501488E-01  0.16571800143E+01 -0.19705500483E+01  0.28712328611E+01  0.12700000000E+01 0.  1.
<mgrwt>
<rscale>  0 0.20882794E+01</rscale>
<asrwt>0</asrwt>
<pdfrwt beam="1">0</pdfrwt>
<pdfrwt beam="2">0</pdfrwt>
<totfact> 0.13151786E+12</totfact>
</mgrwt>
</event>
<event>
 4    1  0.3324394E+006  0.2202838E+01  0.7546771E-02  0.2856061E+00
         22   -1    0    0    0    0  0.00000000000E+00  0.00000000000E+00  0.11246256024E+02  0.11246256024E+02  0.00000000000E+00 0.  1.
         22   -1    0    0    0    0 -0.00000000000E+00 -0.00000000000E+00 -0.54625251338E+00  0.54625251338E+00  0.00000000000E+00 0. -1.
          4    1    1    2  501    0 -0.16281068471E+01 -0.76737359121E+00  0.26472558087E+01  0.34439014868E+01  0.12700000000E+01 0. -1.
         -4    1    1    2    0  501  0.16281068471E+01  0.76737359121E+00  0.80527477022E+01  0.83486070508E+01  0.12700000000E+01 0.  1.
<mgrwt>
<rscale>  0 0.22028377E+01</rscale>
<asrwt>0</asrwt>
<pdfrwt beam="1">0</pdfrwt>
<pdfrwt beam="2">0</pdfrwt>
<totfact> 0.27350996E+12</totfact>
</mgrwt>
</event>
<event>
 4    1  0.3324394E+006  0.3996940E+01  0.7546771E-02  0.2277880E+00
         22   -1    0    0    0    0  0.00000000000E+00  0.00000000000E+00  0.45197837064E+01  0.45197837064E+01  0.00000000000E+00 0.  1.
         22   -1    0    0    0    0 -0.00000000000E+00 -0.00000000000E+00 -0.88017895446E+01  0.88017895446E+01  0.00000000000E+00 0. -1.
          4    1    1    2  501    0  0.37897906265E+01 -0.10774940868E-01  0.30116442218E+01  0.50045509300E+01  0.12700000000E+01 0.  1.
         -4    1    1    2    0  501 -0.37897906265E+01  0.10774940868E-01 -0.72936500600E+01  0.83170223211E+01  0.12700000000E+01 0. -1.
<mgrwt>
<rscale>  0 0.39969400E+01</rscale>
<asrwt>0</asrwt>
<pdfrwt beam="1">0</pdfrwt>
<pdfrwt beam="2">0</pdfrwt>
<totfact> 0.32190260E+11</totfact>
</mgrwt>
</event>
<event>
 4    1  0.3324394E+006  0.2223307E+01  0.7546771E-02  0.2844702E+00
         22   -1    0    0    0    0  0.00000000000E+00  0.00000000000E+00  0.17101897313E+02  0.17101897313E+02  0.00000000000E+00 0.  1.
         22   -1    0    0    0    0 -0.00000000000E+00 -0.00000000000E+00 -0.31630807961E+00  0.31630807961E+00  0.00000000000E+00 0. -1.
          4    1    1    2  501    0  0.92651992322E+00 -0.15721811884E+01  0.58355989636E+01  0.62447824719E+01  0.12700000000E+01 0. -1.
         -4    1    1    2    0  501 -0.92651992322E+00  0.15721811884E+01  0.10949990270E+02  0.11173422921E+02  0.12700000000E+01 0.  1.
<mgrwt>
<rscale>  0 0.22233067E+01</rscale>
<asrwt>0</asrwt>
<pdfrwt beam="1">0</pdfrwt>
<pdfrwt beam="2">0</pdfrwt>
<totfact> 0.30263547E+12</totfact>
</mgrwt>
</event>
<event>
 4    1  0.3324394E+006  0.2645758E+01  0.7546771E-02  0.2647561E+00
         22   -1    0    0    0    0  0.00000000000E+00  0.00000000000E+00  0.13220508341E+01  0.13220508341E+01  0.00000000000E+00 0. -1.
         22   -1    0    0    0    0 -0.00000000000E+00 -0.00000000000E+00 -0.63788038851E+01  0.63788038851E+01  0.00000000000E+00 0. -1.
          4    1    1    2  501    0 -0.10761144917E+01 -0.20564806718E+01 -0.41156384845E+01  0.48927002042E+01  0.12700000000E+01 0. -1.
         -4    1    1    2    0  501  0.10761144917E+01  0.20564806718E+01 -0.94111456660E+00  0.28081545151E+01  0.12700000000E+01 0. -1.
<mgrwt>
<rscale>  0 0.26457580E+01</rscale>
<asrwt>0</asrwt>
<pdfrwt beam="1">0</pdfrwt>
<pdfrwt beam="2">0</pdfrwt>
<totfact> 0.19784126E+12</totfact>
</mgrwt>
</event>
<event>
 4    1  0.3324394E+006  0.2053256E+01  0.7546771E-02  0.2945680E+00
         22   -1    0    0    0    0  0.00000000000E+00  0.00000000000E+00  0.11987511486E+02  0.11987511486E+02  0.00000000000E+00 0.  1.
         22   -1    0    0    0    0 -0.00000000000E+00 -0.00000000000E+00 -0.43969735543E+00  0.43969735543E+00  0.00000000000E+00 0.  1.
          4    1    1    2  501    0 -0.69506447637E+00  0.14559695913E+01  0.29939923157E+01  0.36304065976E+01  0.12700000000E+01 0.  1.
         -4    1    1    2    0  501  0.69506447637E+00 -0.14559695913E+01  0.85538218144E+01  0.87968022434E+01  0.12700000000E+01 0.  1.
<mgrwt>
<rscale>  0 0.20532565E+01</rscale>
<asrwt>0</asrwt>
<pdfrwt beam="1">0</pdfrwt>
<pdfrwt beam="2">0</pdfrwt>
<totfact> 0.32328575E+12</totfact>
</mgrwt>
</event>
<event>
 4    1  0.3324394E+006  0.2399617E+01  0.7546771E-02  0.2754511E+00
         22   -1    0    0    0    0  0.00000000000E+00  0.00000000000E+00  0.19187097931E+00  0.19187097931E+00  0.00000000000E+00 0.  1.
         22   -1    0    0    0    0 -0.00000000000E+00 -0.00000000000E+00 -0.36547109720E+02  0.36547109720E+02  0.00000000000E+00 0.  1.
          4    1    1    2  501    0 -0.49896732781E+00  0.19739035358E+01 -0.25946232304E+02  0.26056959423E+02  0.12700000000E+01 0.  1.
         -4    1    1    2    0  501  0.49896732781E+00 -0.19739035358E+01 -0.10409006436E+02  0.10682021276E+02  0.12700000000E+01 0.  1.
<mgrwt>
<rscale>  0 0.23996174E+01</rscale>
<asrwt>0</asrwt>
<pdfrwt beam="1">0</pdfrwt>
<pdfrwt beam="2">0</pdfrwt>
<totfact> 0.20298110E+12</totfact>
</mgrwt>
</event>
<event>
 4    1  0.3324394E+006  0.3512684E+01  0.7546771E-02  0.2381403E+00
         22   -1    0    0    0    0  0.00000000000E+00  0.00000000000E+00  0.22073339590E+00  0.22073339590E+00  0.00000000000E+00 0. -1.
         22   -1    0    0    0    0 -0.00000000000E+00 -0.00000000000E+00 -0.56437611253E+02  0.56437611253E+02  0.00000000000E+00 0.  1.
          4    1    1    2  501    0 -0.15827139477E+01  0.28672399450E+01 -0.25342946598E+02  0.25585227977E+02  0.12700000000E+01 0.  1.
         -4    1    1    2    0  501  0.15827139477E+01 -0.28672399450E+01 -0.30873931259E+02  0.31073116672E+02  0.12700000000E+01 0.  1.
<mgrwt>
<rscale>  0 0.35126839E+01</rscale>
<asrwt>0</asrwt>
<pdfrwt beam="1">0</pdfrwt>
<pdfrwt beam="2">0</pdfrwt>
<totfact> 0.98255467E+11</totfact>
</mgrwt>
</event>
<event>
 4    1  0.3324394E+006  0.5010529E+01  0.7546771E-02  0.2121749E+00
         22   -1    0    0    0    0  0.00000000000E+00  0.00000000000E+00  0.28934241886E+01  0.28934241886E+01  0.00000000000E+00 0.  1.
         22   -1    0    0    0    0 -0.00000000000E+00 -0.00000000000E+00 -0.88285244549E+02  0.88285244549E+02  0.00000000000E+00 0. -1.
          4    1    1    2  501    0 -0.47560507514E+01 -0.93406486721E+00 -0.85987048957E+02  0.86132908834E+02  0.12700000000E+01 0. -1.
         -4    1    1    2    0  501  0.47560507514E+01  0.93406486721E+00  0.59522859596E+00  0.50457599039E+01  0.12700000000E+01 0.  1.
<mgrwt>
<rscale>  0 0.50105285E+01</rscale>
<asrwt>0</asrwt>
<pdfrwt beam="1">0</pdfrwt>
<pdfrwt beam="2">0</pdfrwt>
<totfact> 0.28538310E+10</totfact>
</mgrwt>
</event>
<event>
 4    1  0.3324394E+006  0.2168162E+01  0.7546771E-02  0.2875774E+00
         22   -1    0    0    0    0  0.00000000000E+00  0.00000000000E+00  0.35822697849E+01  0.35822697849E+01  0.00000000000E+00 0.  1.
         22   -1    0    0    0    0 -0.00000000000E+00 -0.00000000000E+00 -0.17100998491E+01  0.17100998491E+01  0.00000000000E+00 0.  1.
          4    1    1    2  501    0 -0.19681206345E+00 -0.17462218233E+01 -0.34022159326E+00  0.21946927751E+01  0.12700000000E+01 0.  1.
         -4    1    1    2    0  501  0.19681206345E+00  0.17462218233E+01  0.22123915291E+01  0.30976768589E+01  0.12700000000E+01 0.  1.
<mgrwt>
<rscale>  0 0.21681618E+01</rscale>
<asrwt>0</asrwt>
<pdfrwt beam="1">0</pdfrwt>
<pdfrwt beam="2">0</pdfrwt>
<totfact> 0.29109030E+12</totfact>
</mgrwt>
</event>
<event>
 4    1  0.3324394E+006  0.2400017E+01  0.7546771E-02  0.2754321E+00
         22   -1    0    0    0    0  0.00000000000E+00  0.00000000000E+00  0.55400190034E+00  0.55400190034E+00  0.00000000000E+00 0. -1.
         22   -1    0    0    0    0 -0.00000000000E+00 -0.00000000000E+00 -0.10575740307E+02  0.10575740307E+02  0.00000000000E+00 0.  1.
          4    1    1    2  501    0 -0.17922854609E+01 -0.96689840995E+00 -0.57338776619E+01  0.62159016040E+01  0.12700000000E+01 0.  1.
         -4    1    1    2    0  501  0.17922854609E+01  0.96689840995E+00 -0.42878607444E+01  0.49138406030E+01  0.12700000000E+01 0.  1.
<mgrwt>
<rscale>  0 0.24000166E+01</rscale>
<asrwt>0</asrwt>
<pdfrwt beam="1">0</pdfrwt>
<pdfrwt beam="2">0</pdfrwt>
<totfact> 0.29006846E+12</totfact>
</mgrwt>
</event>
<event>
 4    1  0.3324394E+006  0.2048058E+01  0.7546771E-02  0.2949023E+00
         22   -1    0    0    0    0  0.00000000000E+00  0.00000000000E+00  0.29356246654E+00  0.29356246654E+00  0.00000000000E+00 0. -1.
         22   -1    0    0    0    0 -0.00000000000E+00 -0.00000000000E+00 -0.14627068390E+02  0.14627068390E+02  0.00000000000E+00 0. -1.
          4    1    1    2  501    0  0.48118618166E+00 -0.15330047059E+01 -0.83019038544E+01  0.85507982772E+01  0.12700000000E+01 0. -1.
         -4    1    1    2    0  501 -0.48118618166E+00  0.15330047059E+01 -0.60316020693E+01  0.63698325796E+01  0.12700000000E+01 0. -1.
<mgrwt>
<rscale>  0 0.20480585E+01</rscale>
<asrwt>0</asrwt>
<pdfrwt beam="1">0</pdfrwt>
<pdfrwt beam="2">0</pdfrwt>
<totfact> 0.39901021E+12</totfact>
</mgrwt>
</event>
<event>
 4    1  0.3324394E+006  0.3149453E+01  0.7546771E-02  0.2476962E+00
         22   -1    0    0    0    0  0.00000000000E+00  0.00000000000E+00  0.75207044123E+02  0.75207044123E+02  0.00000000000E+00 0. -1.
         22   -1    0    0    0    0 -0.00000000000E+00 -0.00000000000E+00 -0.17718920783E+00  0.17718920783E+00  0.00000000000E+00 0.  1.
          4    1    1    2  501    0 -0.19816813870E+01 -0.20926281369E+01  0.18456923426E+02  0.18723703587E+02  0.12700000000E+01 0.  1.
         -4    1    1    2    0  501  0.19816813870E+01  0.20926281369E+01  0.56572931489E+02  0.56660529744E+02  0.12700000000E+01 0. -1.
<mgrwt>
<rscale>  0 0.31494529E+01</rscale>
<asrwt>0</asrwt>
<pdfrwt beam="1">0</pdfrwt>
<pdfrwt beam="2">0</pdfrwt>
<totfact> 0.85248140E+11</totfact>
</mgrwt>
</event>
<event>
 4    1  0.3324394E+006  0.3094778E+01  0.7546771E-02  0.2493052E+00
         22   -1    0    0    0    0  0.00000000000E+00  0.00000000000E+00  0.88361280702E+01  0.88361280702E+01  0.00000000000E+00 0.  1.
         22   -1    0    0    0    0 -0.00000000000E+00 -0.00000000000E+00 -0.12932022931E+01  0.12932022931E+01  0.00000000000E+00 0. -1.
          4    1    1    2  501    0  0.11530432668E+01 -0.25758960412E+01  0.17340242314E+01  0.35474623642E+01  0.12700000000E+01 0. -1.
         -4    1    1    2    0  501 -0.11530432668E+01  0.25758960412E+01  0.58089015457E+01  0.65818679991E+01  0.12700000000E+01 0.  1.
<mgrwt>
<rscale>  0 0.30947777E+01</rscale>
<asrwt>0</asrwt>
<pdfrwt beam="1">0</pdfrwt>
<pdfrwt beam="2">0</pdfrwt>
<totfact> 0.13729053E+12</totfact>
</mgrwt>
</event>
<event>
 4    1  0.3324394E+006  0.2250479E+01  0.7546771E-02  0.2829928E+00
         22   -1    0    0    0    0  0.00000000000E+00  0.00000000000E+00  0.96620737256E+00  0.96620737256E+00  0.00000000000E+00 0. -1.
         22   -1    0    0    0    0 -0.00000000000E+00 -0.00000000000E+00 -0.16682079434E+02  0.16682079434E+02  0.00000000000E+00 0.  1.
          4    1    1    2  501    0 -0.13695136071E+01 -0.12554632737E+01 -0.15165388219E+02  0.15331459663E+02  0.12700000000E+01 0.  1.
         -4    1    1    2    0  501  0.13695136071E+01  0.12554632737E+01 -0.55048384165E+00  0.23168271432E+01  0.12700000000E+01 0. -1.
<mgrwt>
<rscale>  0 0.22504790E+01</rscale>
<asrwt>0</asrwt>
<pdfrwt beam="1">0</pdfrwt>
<pdfrwt beam="2">0</pdfrwt>
<totfact> 0.88247028E+11</totfact>
</mgrwt>
</event>
<event>
 4    1  0.3324394E+006  0.2093767E+01  0.7546771E-02  0.2920186E+00
         22   -1    0    0    0    0  0.00000000000E+00  0.00000000000E+00  0.42878458317E+01  0.42878458317E+01  0.00000000000E+00 0. -1.
         22   -1    0    0    0    0 -0.00000000000E+00 -0.00000000000E+00 -0.13237562879E+01  0.13237562879E+01  0.00000000000E+00 0.  1.
          4    1    1    2  501    0 -0.16333617013E+01  0.32107489063E+00  0.14329716677E+00  0.20986647209E+01  0.12700000000E+01 0.  1.
         -4    1    1    2    0  501  0.16333617013E+01 -0.32107489063E+00  0.28207923770E+01  0.35129373987E+01  0.12700000000E+01 0. -1.
<mgrwt>
<rscale>  0 0.20937668E+01</rscale>
<asrwt>0</asrwt>
<pdfrwt beam="1">0</pdfrwt>
<pdfrwt beam="2">0</pdfrwt>
<totfact> 0.31634583E+12</totfact>
</mgrwt>
</event>
<event>
 4    1  0.3324394E+006  0.2587800E+01  0.7546771E-02  0.2671043E+00
         22   -1    0    0    0    0  0.00000000000E+00  0.00000000000E+00  0.59084530037E+02  0.59084530037E+02  0.00000000000E+00 0.  1.
         22   -1    0    0    0    0 -0.00000000000E+00 -0.00000000000E+00 -0.14669354476E+00  0.14669354476E+00  0.00000000000E+00 0. -1.
          4    1    1    2  501    0 -0.96517108927E-01 -0.22526639351E+01  0.15347493285E+02  0.15564133785E+02  0.12700000000E+01 0.  1.
         -4    1    1    2    0  501  0.96517108927E-01  0.22526639351E+01  0.43590343207E+02  0.43667089797E+02  0.12700000000E+01 0. -1.
<mgrwt>
<rscale>  0 0.25878003E+01</rscale>
<asrwt>0</asrwt>
<pdfrwt beam="1">0</pdfrwt>
<pdfrwt beam="2">0</pdfrwt>
<totfact> 0.14571689E+12</totfact>
</mgrwt>
</event>
<event>
 4    1  0.3324394E+006  0.2237111E+01  0.7546771E-02  0.2837154E+00
         22   -1    0    0    0    0  0.00000000000E+00  0.00000000000E+00  0.36101496416E+00  0.36101496416E+00  0.00000000000E+00 0.  1.
         22   -1    0    0    0    0 -0.00000000000E+00 -0.00000000000E+00 -0.14060433468E+02  0.14060433468E+02  0.00000000000E+00 0.  1.
          4    1    1    2  501    0  0.40055116662E+00  0.17975878919E+01 -0.77046868828E+01  0.80228961995E+01  0.12700000000E+01 0.  1.
         -4    1    1    2    0  501 -0.40055116662E+00 -0.17975878919E+01 -0.59947316213E+01  0.63985522330E+01  0.12700000000E+01 0.  1.
<mgrwt>
<rscale>  0 0.22371105E+01</rscale>
<asrwt>0</asrwt>
<pdfrwt beam="1">0</pdfrwt>
<pdfrwt beam="2">0</pdfrwt>
<totfact> 0.33209033E+12</totfact>
</mgrwt>
</event>
<event>
 4    1  0.3324394E+006  0.2155648E+01  0.7546771E-02  0.2883037E+00
         22   -1    0    0    0    0  0.00000000000E+00  0.00000000000E+00  0.32851962871E+01  0.32851962871E+01  0.00000000000E+00 0.  1.
         22   -1    0    0    0    0 -0.00000000000E+00 -0.00000000000E+00 -0.16315873005E+01  0.16315873005E+01  0.00000000000E+00 0. -1.
          4    1    1    2  501    0 -0.10967409274E+01 -0.13531737540E+01 -0.69985254099E-01  0.21567841353E+01  0.12700000000E+01 0.  1.
         -4    1    1    2    0  501  0.10967409274E+01  0.13531737540E+01  0.17235942407E+01  0.27599994524E+01  0.12700000000E+01 0.  1.
<mgrwt>
<rscale>  0 0.21556484E+01</rscale>
<asrwt>0</asrwt>
<pdfrwt beam="1">0</pdfrwt>
<pdfrwt beam="2">0</pdfrwt>
<totfact> 0.34011797E+12</totfact>
</mgrwt>
</event>
<event>
 4    1  0.3324394E+006  0.2326734E+01  0.7546771E-02  0.2790224E+00
         22   -1    0    0    0    0  0.00000000000E+00  0.00000000000E+00  0.81566459970E+01  0.81566459970E+01  0.00000000000E+00 0. -1.
         22   -1    0    0    0    0 -0.00000000000E+00 -0.00000000000E+00 -0.84263907193E+00  0.84263907193E+00  0.00000000000E+00 0.  1.
          4    1    1    2  501    0  0.37040752617E+00  0.19140508738E+01  0.15835658095E+01  0.28144934102E+01  0.12700000000E+01 0.  1.
         -4    1    1    2    0  501 -0.37040752617E+00 -0.19140508738E+01  0.57304411156E+01  0.61847916588E+01  0.12700000000E+01 0. -1.
<mgrwt>
<rscale>  0 0.23267343E+01</rscale>
<asrwt>0</asrwt>
<pdfrwt beam="1">0</pdfrwt>
<pdfrwt beam="2">0</pdfrwt>
<totfact> 0.24663815E+12</totfact>
</mgrwt>
</event>
<event>
 4    1  0.3324394E+006  0.2374572E+01  0.7546771E-02  0.2766550E+00
         22   -1    0    0    0    0  0.00000000000E+00  0.00000000000E+00  0.64761685934E+00  0.64761685934E+00  0.00000000000E+00 0.  1.
         22   -1    0    0    0    0 -0.00000000000E+00 -0.00000000000E+00 -0.14414679505E+02  0.14414679505E+02  0.00000000000E+00 0. -1.
          4    1    1    2  501    0  0.89519092187E+00 -0.17956403695E+01 -0.11622684617E+02  0.11862773236E+02  0.12700000000E+01 0. -1.
         -4    1    1    2    0  501 -0.89519092187E+00  0.17956403695E+01 -0.21443780281E+01  0.31995231286E+01  0.12700000000E+01 0.  1.
<mgrwt>
<rscale>  0 0.23745718E+01</rscale>
<asrwt>0</asrwt>
<pdfrwt beam="1">0</pdfrwt>
<pdfrwt beam="2">0</pdfrwt>
<totfact> 0.16654403E+12</totfact>
</mgrwt>
</event>
<event>
 4    1  0.3324394E+006  0.2139104E+01  0.7546771E-02  0.2892766E+00
         22   -1    0    0    0    0  0.00000000000E+00  0.00000000000E+00  0.72434853862E-01  0.72434853862E-01  0.00000000000E+00 0. -1.
         22   -1    0    0    0    0 -0.00000000000E+00 -0.00000000000E+00 -0.81299028021E+02  0.81299028021E+02  0.00000000000E+00 0.  1.
          4    1    1    2  501    0  0.85047419386E+00  0.14965155299E+01 -0.59825516788E+02  0.59863747160E+02  0.12700000000E+01 0. -1.
         -4    1    1    2    0  501 -0.85047419386E+00 -0.14965155299E+01 -0.21401076380E+02  0.21507715715E+02  0.12700000000E+01 0.  1.
<mgrwt>
<rscale>  0 0.21391038E+01</rscale>
<asrwt>0</asrwt>
<pdfrwt beam="1">0</pdfrwt>
<pdfrwt beam="2">0</pdfrwt>
<totfact> 0.20648948E+12</totfact>
</mgrwt>
</event>
<event>
 4    1  0.3324394E+006  0.2185912E+01  0.7546771E-02  0.2865608E+00
         22   -1    0    0    0    0  0.00000000000E+00  0.00000000000E+00  0.22211790839E+01  0.22211790839E+01  0.00000000000E+00 0. -1.
         22   -1    0    0    0    0 -0.00000000000E+00 -0.00000000000E+00 -0.37564972755E+01  0.37564972755E+01  0.00000000000E+00 0. -1.
          4    1    1    2  501    0 -0.15707770163E+01 -0.83544772473E+00 -0.27214937693E+01  0.34906649327E+01  0.12700000000E+01 0. -1.
         -4    1    1    2    0  501  0.15707770163E+01  0.83544772473E+00  0.11861755776E+01  0.24870114267E+01  0.12700000000E+01 0. -1.
<mgrwt>
<rscale>  0 0.21859125E+01</rscale>
<asrwt>0</asrwt>
<pdfrwt beam="1">0</pdfrwt>
<pdfrwt beam="2">0</pdfrwt>
<totfact> 0.20344217E+12</totfact>
</mgrwt>
</event>
<event>
 4    1  0.3324394E+006  0.2138513E+01  0.7546771E-02  0.2893116E+00
         22   -1    0    0    0    0  0.00000000000E+00  0.00000000000E+00  0.14990548121E+02  0.14990548121E+02  0.00000000000E+00 0. -1.
         22   -1    0    0    0    0 -0.00000000000E+00 -0.00000000000E+00 -0.80338051472E+00  0.80338051472E+00  0.00000000000E+00 0.  1.
          4    1    1    2  501    0 -0.54117799699E+00  0.16332375404E+01  0.87419851476E+00  0.23102946849E+01  0.12700000000E+01 0.  1.
         -4    1    1    2    0  501  0.54117799699E+00 -0.16332375404E+01  0.13312969092E+02  0.13483633951E+02  0.12700000000E+01 0. -1.
<mgrwt>
<rscale>  0 0.21385131E+01</rscale>
<asrwt>0</asrwt>
<pdfrwt beam="1">0</pdfrwt>
<pdfrwt beam="2">0</pdfrwt>
<totfact> 0.12424787E+12</totfact>
</mgrwt>
</event>
<event>
 4    1  0.3324394E+006  0.2925329E+01  0.7546771E-02  0.2546316E+00
         22   -1    0    0    0    0  0.00000000000E+00  0.00000000000E+00  0.36903886708E+00  0.36903886708E+00  0.00000000000E+00 0.  1.
         22   -1    0    0    0    0 -0.00000000000E+00 -0.00000000000E+00 -0.27686373079E+02  0.27686373079E+02  0.00000000000E+00 0. -1.
          4    1    1    2  501    0  0.23103537484E+01  0.12676424909E+01 -0.19312525160E+02  0.19532823144E+02  0.12700000000E+01 0. -1.
         -4    1    1    2    0  501 -0.23103537484E+01 -0.12676424909E+01 -0.80048090515E+01  0.85225888015E+01  0.12700000000E+01 0.  1.
<mgrwt>
<rscale>  0 0.29253294E+01</rscale>
<asrwt>0</asrwt>
<pdfrwt beam="1">0</pdfrwt>
<pdfrwt beam="2">0</pdfrwt>
<totfact> 0.13921222E+12</totfact>
</mgrwt>
</event>
<event>
 4    1  0.3324394E+006  0.2165566E+01  0.7546771E-02  0.2877274E+00
         22   -1    0    0    0    0  0.00000000000E+00  0.00000000000E+00  0.82724496043E+00  0.82724496043E+00  0.00000000000E+00 0. -1.
         22   -1    0    0    0    0 -0.00000000000E+00 -0.00000000000E+00 -0.58282520421E+01  0.58282520421E+01  0.00000000000E+00 0.  1.
          4    1    1    2  501    0 -0.15776675365E+01  0.76664192564E+00 -0.30505329317E+01  0.37410460924E+01  0.12700000000E+01 0. -1.
         -4    1    1    2    0  501  0.15776675365E+01 -0.76664192564E+00 -0.19504741500E+01  0.29144509102E+01  0.12700000000E+01 0. -1.
<mgrwt>
<rscale>  0 0.21655657E+01</rscale>
<asrwt>0</asrwt>
<pdfrwt beam="1">0</pdfrwt>
<pdfrwt beam="2">0</pdfrwt>
<totfact> 0.37643938E+12</totfact>
</mgrwt>
</event>
<event>
 4    1  0.3324394E+006  0.2532954E+01  0.7546771E-02  0.2694178E+00
         22   -1    0    0    0    0  0.00000000000E+00  0.00000000000E+00  0.43170309068E+01  0.43170309068E+01  0.00000000000E+00 0. -1.
         22   -1    0    0    0    0 -0.00000000000E+00 -0.00000000000E+00 -0.64188809679E+01  0.64188809679E+01  0.00000000000E+00 0.  1.
          4    1    1    2  501    0  0.11313582198E+01  0.18769612571E+01 -0.57566005970E+01  0.62892213680E+01  0.12700000000E+01 0.  1.
         -4    1    1    2    0  501 -0.11313582198E+01 -0.18769612571E+01  0.36547505359E+01  0.44466905066E+01  0.12700000000E+01 0. -1.
<mgrwt>
<rscale>  0 0.25329538E+01</rscale>
<asrwt>0</asrwt>
<pdfrwt beam="1">0</pdfrwt>
<pdfrwt beam="2">0</pdfrwt>
<totfact> 0.49616424E+11</totfact>
</mgrwt>
</event>
<event>
 4    1  0.3324394E+006  0.2808803E+01  0.7546771E-02  0.2586286E+00
         22   -1    0    0    0    0  0.00000000000E+00  0.00000000000E+00  0.13619161773E+02  0.13619161773E+02  0.00000000000E+00 0. -1.
         22   -1    0    0    0    0 -0.00000000000E+00 -0.00000000000E+00 -0.94226333496E+00  0.94226333496E+00  0.00000000000E+00 0. -1.
          4    1    1    2  501    0 -0.21456171416E+01 -0.12933678251E+01  0.18195961798E+01  0.33466854509E+01  0.12700000000E+01 0. -1.
         -4    1    1    2    0  501  0.21456171416E+01  0.12933678251E+01  0.10857302259E+02  0.11214739657E+02  0.12700000000E+01 0. -1.
<mgrwt>
<rscale>  0 0.28088028E+01</rscale>
<asrwt>0</asrwt>
<pdfrwt beam="1">0</pdfrwt>
<pdfrwt beam="2">0</pdfrwt>
<totfact> 0.11657356E+12</totfact>
</mgrwt>
</event>
<event>
 4    1  0.3324394E+006  0.3075646E+01  0.7546771E-02  0.2498803E+00
         22   -1    0    0    0    0  0.00000000000E+00  0.00000000000E+00  0.23725147766E+01  0.23725147766E+01  0.00000000000E+00 0. -1.
         22   -1    0    0    0    0 -0.00000000000E+00 -0.00000000000E+00 -0.40664209728E+01  0.40664209728E+01  0.00000000000E+00 0.  1.
          4    1    1    2  501    0  0.23472620835E+01  0.15287436682E+01 -0.39747650756E+00  0.31012229952E+01  0.12700000000E+01 0. -1.
         -4    1    1    2    0  501 -0.23472620835E+01 -0.15287436682E+01 -0.12964296887E+01  0.33377127542E+01  0.12700000000E+01 0.  1.
<mgrwt>
<rscale>  0 0.30756457E+01</rscale>
<asrwt>0</asrwt>
<pdfrwt beam="1">0</pdfrwt>
<pdfrwt beam="2">0</pdfrwt>
<totfact> 0.17169063E+12</totfact>
</mgrwt>
</event>
<event>
 4    1  0.3324394E+006  0.2175777E+01  0.7546771E-02  0.2871393E+00
         22   -1    0    0    0    0  0.00000000000E+00  0.00000000000E+00  0.15323044414E+02  0.15323044414E+02  0.00000000000E+00 0.  1.
         22   -1    0    0    0    0 -0.00000000000E+00 -0.00000000000E+00 -0.35384684188E+00  0.35384684188E+00  0.00000000000E+00 0. -1.
          4    1    1    2  501    0  0.18509654020E+00  0.17569418690E+01  0.46924041667E+01  0.51722975865E+01  0.12700000000E+01 0. -1.
         -4    1    1    2    0  501 -0.18509654020E+00 -0.17569418690E+01  0.10276793406E+02  0.10504593670E+02  0.12700000000E+01 0.  1.
<mgrwt>
<rscale>  0 0.21757770E+01</rscale>
<asrwt>0</asrwt>
<pdfrwt beam="1">0</pdfrwt>
<pdfrwt beam="2">0</pdfrwt>
<totfact> 0.30557862E+12</totfact>
</mgrwt>
</event>
<event>
 4    1  0.3324394E+006  0.2617489E+01  0.7546771E-02  0.2658895E+00
         22   -1    0    0    0    0  0.00000000000E+00  0.00000000000E+00  0.10614512102E+02  0.10614512102E+02  0.00000000000E+00 0. -1.
         22   -1    0    0    0    0 -0.00000000000E+00 -0.00000000000E+00 -0.14565603658E+01  0.14565603658E+01  0.00000000000E+00 0. -1.
          4    1    1    2  501    0 -0.91230994857E-01  0.22869247722E+01  0.75075350500E-01  0.26185653164E+01  0.12700000000E+01 0. -1.
         -4    1    1    2    0  501  0.91230994857E-01 -0.22869247722E+01  0.90828763856E+01  0.94525071512E+01  0.12700000000E+01 0. -1.
<mgrwt>
<rscale>  0 0.26174889E+01</rscale>
<asrwt>0</asrwt>
<pdfrwt beam="1">0</pdfrwt>
<pdfrwt beam="2">0</pdfrwt>
<totfact> 0.95933431E+11</totfact>
</mgrwt>
</event>
<event>
 4    1  0.3324394E+006  0.2219852E+01  0.7546771E-02  0.2846606E+00
         22   -1    0    0    0    0  0.00000000000E+00  0.00000000000E+00  0.11482958754E+01  0.11482958754E+01  0.00000000000E+00 0.  1.
         22   -1    0    0    0    0 -0.00000000000E+00 -0.00000000000E+00 -0.48287560156E+01  0.48287560156E+01  0.00000000000E+00 0. -1.
          4    1    1    2  501    0 -0.12310414441E+01  0.13414090905E+01 -0.84324191264E+00  0.23746154022E+01  0.12700000000E+01 0. -1.
         -4    1    1    2    0  501  0.12310414441E+01 -0.13414090905E+01 -0.28372182275E+01  0.36024364888E+01  0.12700000000E+01 0.  1.
<mgrwt>
<rscale>  0 0.22198517E+01</rscale>
<asrwt>0</asrwt>
<pdfrwt beam="1">0</pdfrwt>
<pdfrwt beam="2">0</pdfrwt>
<totfact> 0.32362050E+12</totfact>
</mgrwt>
</event>
<event>
 4    1  0.3324394E+006  0.3067950E+01  0.7546771E-02  0.2501134E+00
         22   -1    0    0    0    0  0.00000000000E+00  0.00000000000E+00  0.22888506278E+01  0.22888506278E+01  0.00000000000E+00 0. -1.
         22   -1    0    0    0    0 -0.00000000000E+00 -0.00000000000E+00 -0.93128827109E+01  0.93128827109E+01  0.00000000000E+00 0.  1.
          4    1    1    2  501    0  0.23867901250E+01  0.14500519197E+01 -0.78469158113E+01  0.84253430446E+01  0.12700000000E+01 0.  1.
         -4    1    1    2    0  501 -0.23867901250E+01 -0.14500519197E+01  0.82288372807E+00  0.31763902941E+01  0.12700000000E+01 0. -1.
<mgrwt>
<rscale>  0 0.30679501E+01</rscale>
<asrwt>0</asrwt>
<pdfrwt beam="1">0</pdfrwt>
<pdfrwt beam="2">0</pdfrwt>
<totfact> 0.66679214E+11</totfact>
</mgrwt>
</event>
<event>
 4    1  0.3324394E+006  0.2315440E+01  0.7546771E-02  0.2795947E+00
         22   -1    0    0    0    0  0.00000000000E+00  0.00000000000E+00  0.11166829571E+02  0.11166829571E+02  0.00000000000E+00 0.  1.
         22   -1    0    0    0    0 -0.00000000000E+00 -0.00000000000E+00 -0.49172150141E+00  0.49172150141E+00  0.00000000000E+00 0. -1.
          4    1    1    2  501    0 -0.17128319579E+01 -0.90253548330E+00  0.62334778011E+01  0.66496247346E+01  0.12700000000E+01 0.  1.
         -4    1    1    2    0  501  0.17128319579E+01  0.90253548330E+00  0.44416302681E+01  0.50089263374E+01  0.12700000000E+01 0. -1.
<mgrwt>
<rscale>  0 0.23154403E+01</rscale>
<asrwt>0</asrwt>
<pdfrwt beam="1">0</pdfrwt>
<pdfrwt beam="2">0</pdfrwt>
<totfact> 0.31069180E+12</totfact>
</mgrwt>
</event>
<event>
 4    1  0.3324394E+006  0.3303092E+01  0.7546771E-02  0.2434287E+00
         22   -1    0    0    0    0  0.00000000000E+00  0.00000000000E+00  0.50297918438E+01  0.50297918438E+01  0.00000000000E+00 0.  1.
         22   -1    0    0    0    0 -0.00000000000E+00 -0.00000000000E+00 -0.22297051662E+01  0.22297051662E+01  0.00000000000E+00 0. -1.
          4    1    1    2  501    0  0.27009035227E+01 -0.14151449529E+01  0.80190946361E+00  0.33990401387E+01  0.12700000000E+01 0. -1.
         -4    1    1    2    0  501 -0.27009035227E+01  0.14151449529E+01  0.19981772140E+01  0.38604568713E+01  0.12700000000E+01 0.  1.
<mgrwt>
<rscale>  0 0.33030917E+01</rscale>
<asrwt>0</asrwt>
<pdfrwt beam="1">0</pdfrwt>
<pdfrwt beam="2">0</pdfrwt>
<totfact> 0.14355829E+12</totfact>
</mgrwt>
</event>
<event>
 4    1  0.3324394E+006  0.2575604E+01  0.7546771E-02  0.2676109E+00
         22   -1    0    0    0    0  0.00000000000E+00  0.00000000000E+00  0.28369330214E+02  0.28369330214E+02  0.00000000000E+00 0. -1.
         22   -1    0    0    0    0 -0.00000000000E+00 -0.00000000000E+00 -0.35455323885E+00  0.35455323885E+00  0.00000000000E+00 0.  1.
          4    1    1    2  501    0  0.12664340099E+01 -0.18485076641E+01  0.56270936465E+01  0.61885312144E+01  0.12700000000E+01 0.  1.
         -4    1    1    2    0  501 -0.12664340099E+01  0.18485076641E+01  0.22387683329E+02  0.22535352238E+02  0.12700000000E+01 0. -1.
<mgrwt>
<rscale>  0 0.25756039E+01</rscale>
<asrwt>0</asrwt>
<pdfrwt beam="1">0</pdfrwt>
<pdfrwt beam="2">0</pdfrwt>
<totfact> 0.14118368E+12</totfact>
</mgrwt>
</event>
<event>
 4    1  0.3324394E+006  0.2762444E+01  0.7546771E-02  0.2603036E+00
         22   -1    0    0    0    0  0.00000000000E+00  0.00000000000E+00  0.24017467440E+01  0.24017467440E+01  0.00000000000E+00 0.  1.
         22   -1    0    0    0    0 -0.00000000000E+00 -0.00000000000E+00 -0.44606595865E+01  0.44606595865E+01  0.00000000000E+00 0. -1.
          4    1    1    2  501    0  0.32073232636E+00  0.24321441782E+01 -0.28698865728E+01  0.39833834199E+01  0.12700000000E+01 0. -1.
         -4    1    1    2    0  501 -0.32073232636E+00 -0.24321441782E+01  0.81097373029E+00  0.28790229106E+01  0.12700000000E+01 0. -1.
<mgrwt>
<rscale>  0 0.27624436E+01</rscale>
<asrwt>0</asrwt>
<pdfrwt beam="1">0</pdfrwt>
<pdfrwt beam="2">0</pdfrwt>
<totfact> 0.15177293E+12</totfact>
</mgrwt>
</event>
<event>
 4    1  0.3324394E+006  0.3467122E+01  0.7546771E-02  0.2392423E+00
         22   -1    0    0    0    0  0.00000000000E+00  0.00000000000E+00  0.12504282117E+02  0.12504282117E+02  0.00000000000E+00 0. -1.
         22   -1    0    0    0    0 -0.00000000000E+00 -0.00000000000E+00 -0.65938340535E+01  0.65938340535E+01  0.00000000000E+00 0.  1.
          4    1    1    2  501    0  0.10440189389E+00  0.32244585533E+01 -0.58703242575E+01  0.68177444661E+01  0.12700000000E+01 0.  1.
         -4    1    1    2    0  501 -0.10440189389E+00 -0.32244585533E+01  0.11780772321E+02  0.12280371705E+02  0.12700000000E+01 0. -1.
<mgrwt>
<rscale>  0 0.34671217E+01</rscale>
<asrwt>0</asrwt>
<pdfrwt beam="1">0</pdfrwt>
<pdfrwt beam="2">0</pdfrwt>
<totfact> 0.13428418E+11</totfact>
</mgrwt>
</event>
<event>
 4    1  0.3324394E+006  0.2031555E+01  0.7546771E-02  0.2959745E+00
         22   -1    0    0    0    0  0.00000000000E+00  0.00000000000E+00  0.36409743484E+02  0.36409743484E+02  0.00000000000E+00 0.  1.
         22   -1    0    0    0    0 -0.00000000000E+00 -0.00000000000E+00 -0.32055099921E+00  0.32055099921E+00  0.00000000000E+00 0. -1.
          4    1    1    2  501    0 -0.11380086457E+01  0.11041971340E+01  0.32794803427E+01  0.38577462729E+01  0.12700000000E+01 0. -1.
         -4    1    1    2    0  501  0.11380086457E+01 -0.11041971340E+01  0.32809712142E+02  0.32872548210E+02  0.12700000000E+01 0.  1.
<mgrwt>
<rscale>  0 0.20315548E+01</rscale>
<asrwt>0</asrwt>
<pdfrwt beam="1">0</pdfrwt>
<pdfrwt beam="2">0</pdfrwt>
<totfact> 0.11487251E+12</totfact>
</mgrwt>
</event>
<event>
 4    1  0.3324394E+006  0.2616346E+01  0.7546771E-02  0.2659358E+00
         22   -1    0    0    0    0  0.00000000000E+00  0.00000000000E+00  0.42474696129E+02  0.42474696129E+02  0.00000000000E+00 0. -1.
         22   -1    0    0    0    0 -0.00000000000E+00 -0.00000000000E+00 -0.32050451322E+00  0.32050451322E+00  0.00000000000E+00 0.  1.
          4    1    1    2  501    0  0.12528658686E+01 -0.19138168821E+01  0.59896723350E+01  0.65361642133E+01  0.12700000000E+01 0.  1.
         -4    1    1    2    0  501 -0.12528658686E+01  0.19138168821E+01  0.36164519281E+02  0.36259036429E+02  0.12700000000E+01 0. -1.
<mgrwt>
<rscale>  0 0.26163463E+01</rscale>
<asrwt>0</asrwt>
<pdfrwt beam="1">0</pdfrwt>
<pdfrwt beam="2">0</pdfrwt>
<totfact> 0.94100453E+11</totfact>
</mgrwt>
</event>
<event>
 4    1  0.3324394E+006  0.4397758E+01  0.7546771E-02  0.2207152E+00
         22   -1    0    0    0    0  0.00000000000E+00  0.00000000000E+00  0.29648577083E+01  0.29648577083E+01  0.00000000000E+00 0. -1.
         22   -1    0    0    0    0 -0.00000000000E+00 -0.00000000000E+00 -0.65273443702E+01  0.65273443702E+01  0.00000000000E+00 0.  1.
          4    1    1    2  501    0 -0.27734477691E+00 -0.42012442802E+01 -0.19012528221E+01  0.47911414006E+01  0.12700000000E+01 0. -1.
         -4    1    1    2    0  501  0.27734477691E+00  0.42012442802E+01 -0.16612338398E+01  0.47010606779E+01  0.12700000000E+01 0.  1.
<mgrwt>
<rscale>  0 0.43977578E+01</rscale>
<asrwt>0</asrwt>
<pdfrwt beam="1">0</pdfrwt>
<pdfrwt beam="2">0</pdfrwt>
<totfact> 0.75583876E+11</totfact>
</mgrwt>
</event>
<event>
 4    1  0.3324394E+006  0.3643941E+01  0.7546771E-02  0.2351003E+00
         22   -1    0    0    0    0  0.00000000000E+00  0.00000000000E+00  0.15945619090E+02  0.15945619090E+02  0.00000000000E+00 0.  1.
         22   -1    0    0    0    0 -0.00000000000E+00 -0.00000000000E+00 -0.85964175213E+00  0.85964175213E+00  0.00000000000E+00 0. -1.
          4    1    1    2  501    0 -0.33313058168E+01  0.75352821471E+00  0.90298625540E+01  0.97373877894E+01  0.12700000000E+01 0.  1.
         -4    1    1    2    0  501  0.33313058168E+01 -0.75352821471E+00  0.60561147840E+01  0.70678730529E+01  0.12700000000E+01 0. -1.
<mgrwt>
<rscale>  0 0.36439406E+01</rscale>
<asrwt>0</asrwt>
<pdfrwt beam="1">0</pdfrwt>
<pdfrwt beam="2">0</pdfrwt>
<totfact> 0.10661330E+12</totfact>
</mgrwt>
</event>
<event>
 4    1  0.3324394E+006  0.2599168E+01  0.7546771E-02  0.2666361E+00
         22   -1    0    0    0    0  0.00000000000E+00  0.00000000000E+00  0.64065418765E+00  0.64065418765E+00  0.00000000000E+00 0.  1.
         22   -1    0    0    0    0 -0.00000000000E+00 -0.00000000000E+00 -0.14057687432E+02  0.14057687432E+02  0.00000000000E+00 0. -1.
          4    1    1    2  501    0  0.58049497706E+00 -0.21922137301E+01 -0.10382213914E+02  0.10702618428E+02  0.12700000000E+01 0. -1.
         -4    1    1    2    0  501 -0.58049497706E+00  0.21922137301E+01 -0.30348193302E+01  0.39957231916E+01  0.12700000000E+01 0.  1.
<mgrwt>
<rscale>  0 0.25991682E+01</rscale>
<asrwt>0</asrwt>
<pdfrwt beam="1">0</pdfrwt>
<pdfrwt beam="2">0</pdfrwt>
<totfact> 0.17387309E+12</totfact>
</mgrwt>
</event>
<event>
 4    1  0.3324394E+006  0.2760728E+01  0.7546771E-02  0.2603666E+00
         22   -1    0    0    0    0  0.00000000000E+00  0.00000000000E+00  0.11260274912E+02  0.11260274912E+02  0.00000000000E+00 0. -1.
         22   -1    0    0    0    0 -0.00000000000E+00 -0.00000000000E+00 -0.67687108172E+00  0.67687108172E+00  0.00000000000E+00 0.  1.
          4    1    1    2  501    0  0.25608566050E+00  0.24378549514E+01  0.52663205263E+01  0.59460700060E+01  0.12700000000E+01 0. -1.
         -4    1    1    2    0  501 -0.25608566050E+00 -0.24378549514E+01  0.53170833037E+01  0.59910759875E+01  0.12700000000E+01 0.  1.
<mgrwt>
<rscale>  0 0.27607276E+01</rscale>
<asrwt>0</asrwt>
<pdfrwt beam="1">0</pdfrwt>
<pdfrwt beam="2">0</pdfrwt>
<totfact> 0.21422954E+12</totfact>
</mgrwt>
</event>
<event>
 4    1  0.3324394E+006  0.2197802E+01  0.7546771E-02  0.2858887E+00
         22   -1    0    0    0    0  0.00000000000E+00  0.00000000000E+00  0.27923997972E+01  0.27923997972E+01  0.00000000000E+00 0.  1.
         22   -1    0    0    0    0 -0.00000000000E+00 -0.00000000000E+00 -0.37945883356E+01  0.37945883356E+01  0.00000000000E+00 0. -1.
          4    1    1    2  501    0 -0.16513223377E+01  0.70040721965E+00 -0.29305596650E+01  0.36631292205E+01  0.12700000000E+01 0. -1.
         -4    1    1    2    0  501  0.16513223377E+01 -0.70040721965E+00  0.19283711266E+01  0.29238589122E+01  0.12700000000E+01 0.  1.
<mgrwt>
<rscale>  0 0.21978025E+01</rscale>
<asrwt>0</asrwt>
<pdfrwt beam="1">0</pdfrwt>
<pdfrwt beam="2">0</pdfrwt>
<totfact> 0.15405931E+12</totfact>
</mgrwt>
</event>
<event>
 4    1  0.3324394E+006  0.2118190E+01  0.7546771E-02  0.2905273E+00
         22   -1    0    0    0    0  0.00000000000E+00  0.00000000000E+00  0.12410554784E+00  0.12410554784E+00  0.00000000000E+00 0. -1.
         22   -1    0    0    0    0 -0.00000000000E+00 -0.00000000000E+00 -0.47658964241E+02  0.47658964241E+02  0.00000000000E+00 0.  1.
          4    1    1    2  501    0 -0.15735983549E+01 -0.63056949060E+00 -0.35506726957E+02  0.35569852247E+02  0.12700000000E+01 0.  1.
         -4    1    1    2    0  501  0.15735983549E+01  0.63056949060E+00 -0.12028131737E+02  0.12213217543E+02  0.12700000000E+01 0. -1.
<mgrwt>
<rscale>  0 0.21181902E+01</rscale>
<asrwt>0</asrwt>
<pdfrwt beam="1">0</pdfrwt>
<pdfrwt beam="2">0</pdfrwt>
<totfact> 0.23323565E+12</totfact>
</mgrwt>
</event>
<event>
 4    1  0.3324394E+006  0.2651727E+01  0.7546771E-02  0.2645196E+00
         22   -1    0    0    0    0  0.00000000000E+00  0.00000000000E+00  0.17558255237E+01  0.17558255237E+01  0.00000000000E+00 0. -1.
         22   -1    0    0    0    0 -0.00000000000E+00 -0.00000000000E+00 -0.40816506213E+01  0.40816506213E+01  0.00000000000E+00 0. -1.
          4    1    1    2  501    0  0.14167206305E+01 -0.18470670256E+01 -0.15635239966E+01  0.30783536558E+01  0.12700000000E+01 0. -1.
         -4    1    1    2    0  501 -0.14167206305E+01  0.18470670256E+01 -0.76230110104E+00  0.27591224893E+01  0.12700000000E+01 0. -1.
<mgrwt>
<rscale>  0 0.26517266E+01</rscale>
<asrwt>0</asrwt>
<pdfrwt beam="1">0</pdfrwt>
<pdfrwt beam="2">0</pdfrwt>
<totfact> 0.24222034E+12</totfact>
</mgrwt>
</event>
<event>
 4    1  0.3324394E+006  0.5746860E+01  0.7546771E-02  0.2043162E+00
         22   -1    0    0    0    0  0.00000000000E+00  0.00000000000E+00  0.16966377258E+01  0.16966377258E+01  0.00000000000E+00 0. -1.
         22   -1    0    0    0    0 -0.00000000000E+00 -0.00000000000E+00 -0.20356074081E+02  0.20356074081E+02  0.00000000000E+00 0.  1.
          4    1    1    2  501    0 -0.45566119814E+01 -0.32635543740E+01 -0.70237760470E+01  0.90752316698E+01  0.12700000000E+01 0.  1.
         -4    1    1    2    0  501  0.45566119814E+01  0.32635543740E+01 -0.11635660308E+02  0.12977480137E+02  0.12700000000E+01 0. -1.
<mgrwt>
<rscale>  0 0.57468600E+01</rscale>
<asrwt>0</asrwt>
<pdfrwt beam="1">0</pdfrwt>
<pdfrwt beam="2">0</pdfrwt>
<totfact> 0.36127772E+11</totfact>
</mgrwt>
</event>
<event>
 4    1  0.3324394E+006  0.3728557E+01  0.7546771E-02  0.2332392E+00
         22   -1    0    0    0    0  0.00000000000E+00  0.00000000000E+00  0.86324309879E+01  0.86324309879E+01  0.00000000000E+00 0.  1.
         22   -1    0    0    0    0 -0.00000000000E+00 -0.00000000000E+00 -0.17913759447E+01  0.17913759447E+01  0.00000000000E+00 0. -1.
          4    1    1    2  501    0 -0.33233253413E+01 -0.11156815214E+01  0.17641927396E+01  0.41248651618E+01  0.12700000000E+01 0. -1.
         -4    1    1    2    0  501  0.33233253413E+01  0.11156815214E+01  0.50768623036E+01  0.62989417707E+01  0.12700000000E+01 0.  1.
<mgrwt>
<rscale>  0 0.37285569E+01</rscale>
<asrwt>0</asrwt>
<pdfrwt beam="1">0</pdfrwt>
<pdfrwt beam="2">0</pdfrwt>
<totfact> 0.97042082E+11</totfact>
</mgrwt>
</event>
<event>
 4    1  0.3324394E+006  0.2348707E+01  0.7546771E-02  0.2779237E+00
         22   -1    0    0    0    0  0.00000000000E+00  0.00000000000E+00  0.17357326185E+02  0.17357326185E+02  0.00000000000E+00 0.  1.
         22   -1    0    0    0    0 -0.00000000000E+00 -0.00000000000E+00 -0.65959057626E+00  0.65959057626E+00  0.00000000000E+00 0. -1.
          4    1    1    2  501    0 -0.22182803580E+00  0.19632415001E+01  0.18642626238E+01  0.29986496954E+01  0.12700000000E+01 0. -1.
         -4    1    1    2    0  501  0.22182803580E+00 -0.19632415001E+01  0.14833472985E+02  0.15018267066E+02  0.12700000000E+01 0.  1.
<mgrwt>
<rscale>  0 0.23487071E+01</rscale>
<asrwt>0</asrwt>
<pdfrwt beam="1">0</pdfrwt>
<pdfrwt beam="2">0</pdfrwt>
<totfact> 0.12971483E+12</totfact>
</mgrwt>
</event>
<event>
 4    1  0.3324394E+006  0.2610279E+01  0.7546771E-02  0.2661821E+00
         22   -1    0    0    0    0  0.00000000000E+00  0.00000000000E+00  0.12261836664E+00  0.12261836664E+00  0.00000000000E+00 0. -1.
         22   -1    0    0    0    0 -0.00000000000E+00 -0.00000000000E+00 -0.56346086302E+02  0.56346086302E+02  0.00000000000E+00 0. -1.
          4    1    1    2  501    0  0.22804753763E+01 -0.95149114922E-02 -0.24792140770E+02  0.24929175727E+02  0.12700000000E+01 0. -1.
         -4    1    1    2    0  501 -0.22804753763E+01  0.95149114922E-02 -0.31431327165E+02  0.31539528941E+02  0.12700000000E+01 0. -1.
<mgrwt>
<rscale>  0 0.26102794E+01</rscale>
<asrwt>0</asrwt>
<pdfrwt beam="1">0</pdfrwt>
<pdfrwt beam="2">0</pdfrwt>
<totfact> 0.18943456E+12</totfact>
</mgrwt>
</event>
<event>
 4    1  0.3324394E+006  0.2526527E+01  0.7546771E-02  0.2696949E+00
         22   -1    0    0    0    0  0.00000000000E+00  0.00000000000E+00  0.77732747714E+00  0.77732747714E+00  0.00000000000E+00 0.  1.
         22   -1    0    0    0    0 -0.00000000000E+00 -0.00000000000E+00 -0.91612447453E+01  0.91612447453E+01  0.00000000000E+00 0.  1.
          4    1    1    2  501    0 -0.53580778426E+00 -0.21173919044E+01 -0.57916193043E+01  0.63187176409E+01  0.12700000000E+01 0.  1.
         -4    1    1    2    0  501  0.53580778426E+00  0.21173919044E+01 -0.25922979638E+01  0.36198545816E+01  0.12700000000E+01 0.  1.
<mgrwt>
<rscale>  0 0.25265270E+01</rscale>
<asrwt>0</asrwt>
<pdfrwt beam="1">0</pdfrwt>
<pdfrwt beam="2">0</pdfrwt>
<totfact> 0.23505579E+12</totfact>
</mgrwt>
</event>
<event>
 4    1  0.3324394E+006  0.3126017E+01  0.7546771E-02  0.2483798E+00
         22   -1    0    0    0    0  0.00000000000E+00  0.00000000000E+00  0.10257950763E+02  0.10257950763E+02  0.00000000000E+00 0.  1.
         22   -1    0    0    0    0 -0.00000000000E+00 -0.00000000000E+00 -0.12710396397E+01  0.12710396397E+01  0.00000000000E+00 0. -1.
          4    1    1    2  501    0  0.18421256663E+01 -0.21830376652E+01  0.73786709717E+01  0.80135364058E+01  0.12700000000E+01 0.  1.
         -4    1    1    2    0  501 -0.18421256663E+01  0.21830376652E+01  0.16082401512E+01  0.35154539966E+01  0.12700000000E+01 0. -1.
<mgrwt>
<rscale>  0 0.31260167E+01</rscale>
<asrwt>0</asrwt>
<pdfrwt beam="1">0</pdfrwt>
<pdfrwt beam="2">0</pdfrwt>
<totfact> 0.11693044E+12</totfact>
</mgrwt>
</event>
<event>
 4    1  0.3324394E+006  0.3565061E+01  0.7546771E-02  0.2369039E+00
         22   -1    0    0    0    0  0.00000000000E+00  0.00000000000E+00  0.25445122190E+01  0.25445122190E+01  0.00000000000E+00 0. -1.
         22   -1    0    0    0    0 -0.00000000000E+00 -0.00000000000E+00 -0.52477340232E+01  0.52477340232E+01  0.00000000000E+00 0.  1.
          4    1    1    2  501    0  0.18550673305E+01 -0.27668544600E+01 -0.22067552620E+01  0.41927827501E+01  0.12700000000E+01 0.  1.
         -4    1    1    2    0  501 -0.18550673305E+01  0.27668544600E+01 -0.49646654230E+00  0.35994634921E+01  0.12700000000E+01 0. -1.
<mgrwt>
<rscale>  0 0.35650608E+01</rscale>
<asrwt>0</asrwt>
<pdfrwt beam="1">0</pdfrwt>
<pdfrwt beam="2">0</pdfrwt>
<totfact> 0.11709994E+12</totfact>
</mgrwt>
</event>
<event>
 4    1  0.3324394E+006  0.2458498E+01  0.7546771E-02  0.2727115E+00
         22   -1    0    0    0    0  0.00000000000E+00  0.00000000000E+00  0.13401545433E+02  0.13401545433E+02  0.00000000000E+00 0.  1.
         22   -1    0    0    0    0 -0.00000000000E+00 -0.00000000000E+00 -0.45852010818E+00  0.45852010818E+00  0.00000000000E+00 0. -1.
          4    1    1    2  501    0 -0.83247182142E+00 -0.19334686953E+01  0.55845131816E+01  0.61017209051E+01  0.12700000000E+01 0. -1.
         -4    1    1    2    0  501  0.83247182142E+00  0.19334686953E+01  0.73585121431E+01  0.77583446359E+01  0.12700000000E+01 0.  1.
<mgrwt>
<rscale>  0 0.24584976E+01</rscale>
<asrwt>0</asrwt>
<pdfrwt beam="1">0</pdfrwt>
<pdfrwt beam="2">0</pdfrwt>
<totfact> 0.26910281E+12</totfact>
</mgrwt>
</event>
<event>
 4    1  0.3324394E+006  0.3359692E+01  0.7546771E-02  0.2419436E+00
         22   -1    0    0    0    0  0.00000000000E+00  0.00000000000E+00  0.22303799748E+01  0.22303799748E+01  0.00000000000E+00 0. -1.
         22   -1    0    0    0    0 -0.00000000000E+00 -0.00000000000E+00 -0.62147736115E+01  0.62147736115E+01  0.00000000000E+00 0.  1.
          4    1    1    2  501    0  0.13149739691E+01  0.28187716874E+01 -0.38117337105E+01  0.50810278729E+01  0.12700000000E+01 0.  1.
         -4    1    1    2    0  501 -0.13149739691E+01 -0.28187716874E+01 -0.17265992629E+00  0.33641257134E+01  0.12700000000E+01 0. -1.
<mgrwt>
<rscale>  0 0.33596920E+01</rscale>
<asrwt>0</asrwt>
<pdfrwt beam="1">0</pdfrwt>
<pdfrwt beam="2">0</pdfrwt>
<totfact> 0.11161915E+12</totfact>
</mgrwt>
</event>
<event>
 4    1  0.3324394E+006  0.3013949E+01  0.7546771E-02  0.2517790E+00
         22   -1    0    0    0    0  0.00000000000E+00  0.00000000000E+00  0.50863653784E+00  0.50863653784E+00  0.00000000000E+00 0. -1.
         22   -1    0    0    0    0 -0.00000000000E+00 -0.00000000000E+00 -0.18017229803E+02  0.18017229803E+02  0.00000000000E+00 0.  1.
          4    1    1    2  501    0 -0.23041218031E+01  0.14703772608E+01 -0.96215632819E+01  0.10082577377E+02  0.12700000000E+01 0.  1.
         -4    1    1    2    0  501  0.23041218031E+01 -0.14703772608E+01 -0.78870299831E+01  0.84432889639E+01  0.12700000000E+01 0. -1.
<mgrwt>
<rscale>  0 0.30139487E+01</rscale>
<asrwt>0</asrwt>
<pdfrwt beam="1">0</pdfrwt>
<pdfrwt beam="2">0</pdfrwt>
<totfact> 0.16620928E+12</totfact>
</mgrwt>
</event>
<event>
 4    1  0.3324394E+006  0.2493406E+01  0.7546771E-02  0.2711444E+00
         22   -1    0    0    0    0  0.00000000000E+00  0.00000000000E+00  0.33868358513E+01  0.33868358513E+01  0.00000000000E+00 0. -1.
         22   -1    0    0    0    0 -0.00000000000E+00 -0.00000000000E+00 -0.19472177148E+01  0.19472177148E+01  0.00000000000E+00 0.  1.
          4    1    1    2  501    0 -0.21118390920E+01 -0.37987915026E+00  0.13581808879E+01  0.28393182004E+01  0.12700000000E+01 0. -1.
         -4    1    1    2    0  501  0.21118390920E+01  0.37987915026E+00  0.81437248685E-01  0.24947353656E+01  0.12700000000E+01 0.  1.
<mgrwt>
<rscale>  0 0.24934058E+01</rscale>
<asrwt>0</asrwt>
<pdfrwt beam="1">0</pdfrwt>
<pdfrwt beam="2">0</pdfrwt>
<totfact> 0.26758904E+12</totfact>
</mgrwt>
</event>
<event>
 4    1  0.3324394E+006  0.2453094E+01  0.7546771E-02  0.2729578E+00
         22   -1    0    0    0    0  0.00000000000E+00  0.00000000000E+00  0.43816236789E+02  0.43816236789E+02  0.00000000000E+00 0. -1.
         22   -1    0    0    0    0 -0.00000000000E+00 -0.00000000000E+00 -0.13793906453E+00  0.13793906453E+00  0.00000000000E+00 0.  1.
          4    1    1    2  501    0 -0.19833384081E+01  0.68639553791E+00  0.20389402203E+02  0.20536440594E+02  0.12700000000E+01 0. -1.
         -4    1    1    2    0  501  0.19833384081E+01 -0.68639553791E+00  0.23288895521E+02  0.23417735259E+02  0.12700000000E+01 0.  1.
<mgrwt>
<rscale>  0 0.24530940E+01</rscale>
<asrwt>0</asrwt>
<pdfrwt beam="1">0</pdfrwt>
<pdfrwt beam="2">0</pdfrwt>
<totfact> 0.23158173E+12</totfact>
</mgrwt>
</event>
<event>
 4    1  0.3324394E+006  0.2003514E+01  0.7546771E-02  0.2978360E+00
         22   -1    0    0    0    0  0.00000000000E+00  0.00000000000E+00  0.15055637925E+02  0.15055637925E+02  0.00000000000E+00 0.  1.
         22   -1    0    0    0    0 -0.00000000000E+00 -0.00000000000E+00 -0.26730517826E+00  0.26730517826E+00  0.00000000000E+00 0. -1.
          4    1    1    2  501    0  0.99689410768E+00 -0.11863265789E+01  0.70050440313E+01  0.72859255071E+01  0.12700000000E+01 0. -1.
         -4    1    1    2    0  501 -0.99689410768E+00  0.11863265789E+01  0.77832887150E+01  0.80370175958E+01  0.12700000000E+01 0.  1.
<mgrwt>
<rscale>  0 0.20035141E+01</rscale>
<asrwt>0</asrwt>
<pdfrwt beam="1">0</pdfrwt>
<pdfrwt beam="2">0</pdfrwt>
<totfact> 0.42769644E+12</totfact>
</mgrwt>
</event>
<event>
 4    1  0.3324394E+006  0.2710855E+01  0.7546771E-02  0.2622288E+00
         22   -1    0    0    0    0  0.00000000000E+00  0.00000000000E+00  0.63710642097E+00  0.63710642097E+00  0.00000000000E+00 0.  1.
         22   -1    0    0    0    0 -0.00000000000E+00 -0.00000000000E+00 -0.25852661508E+02  0.25852661508E+02  0.00000000000E+00 0. -1.
          4    1    1    2  501    0 -0.13021267223E+00 -0.23914182854E+01 -0.22464632749E+02  0.22627603968E+02  0.12700000000E+01 0. -1.
         -4    1    1    2    0  501  0.13021267223E+00  0.23914182854E+01 -0.27509223377E+01  0.38621639613E+01  0.12700000000E+01 0.  1.
<mgrwt>
<rscale>  0 0.27108554E+01</rscale>
<asrwt>0</asrwt>
<pdfrwt beam="1">0</pdfrwt>
<pdfrwt beam="2">0</pdfrwt>
<totfact> 0.81973569E+11</totfact>
</mgrwt>
</event>
<event>
 4    1  0.3324394E+006  0.2611838E+01  0.7546771E-02  0.2661188E+00
         22   -1    0    0    0    0  0.00000000000E+00  0.00000000000E+00  0.16247394322E+00  0.16247394322E+00  0.00000000000E+00 0.  1.
         22   -1    0    0    0    0 -0.00000000000E+00 -0.00000000000E+00 -0.61180967627E+02  0.61180967627E+02  0.00000000000E+00 0. -1.
          4    1    1    2  501    0 -0.71685281962E+00  0.21667758874E+01 -0.47689088478E+02  0.47760557530E+02  0.12700000000E+01 0. -1.
         -4    1    1    2    0  501  0.71685281962E+00 -0.21667758874E+01 -0.13329405206E+02  0.13582884040E+02  0.12700000000E+01 0.  1.
<mgrwt>
<rscale>  0 0.26118376E+01</rscale>
<asrwt>0</asrwt>
<pdfrwt beam="1">0</pdfrwt>
<pdfrwt beam="2">0</pdfrwt>
<totfact> 0.12413306E+12</totfact>
</mgrwt>
</event>
<event>
 4    1  0.3324394E+006  0.2477807E+01  0.7546771E-02  0.2718396E+00
         22   -1    0    0    0    0  0.00000000000E+00  0.00000000000E+00  0.77401287823E+01  0.77401287823E+01  0.00000000000E+00 0. -1.
         22   -1    0    0    0    0 -0.00000000000E+00 -0.00000000000E+00 -0.17201561595E+01  0.17201561595E+01  0.00000000000E+00 0.  1.
          4    1    1    2  501    0 -0.11083112798E+01  0.18161154147E+01 -0.46232054378E+00  0.25205692566E+01  0.12700000000E+01 0.  1.
         -4    1    1    2    0  501  0.11083112798E+01 -0.18161154147E+01  0.64822931666E+01  0.69397156851E+01  0.12700000000E+01 0. -1.
<mgrwt>
<rscale>  0 0.24778073E+01</rscale>
<asrwt>0</asrwt>
<pdfrwt beam="1">0</pdfrwt>
<pdfrwt beam="2">0</pdfrwt>
<totfact> 0.11594582E+12</totfact>
</mgrwt>
</event>
<event>
 4    1  0.3324394E+006  0.2362074E+01  0.7546771E-02  0.2772648E+00
         22   -1    0    0    0    0  0.00000000000E+00  0.00000000000E+00  0.24545169840E+01  0.24545169840E+01  0.00000000000E+00 0.  1.
         22   -1    0    0    0    0 -0.00000000000E+00 -0.00000000000E+00 -0.48898088890E+01  0.48898088890E+01  0.00000000000E+00 0. -1.
          4    1    1    2  501    0  0.14008618341E+01 -0.14156552728E+01  0.14686425358E+01  0.27814213323E+01  0.12700000000E+01 0.  1.
         -4    1    1    2    0  501 -0.14008618341E+01  0.14156552728E+01 -0.39039344408E+01  0.45629045407E+01  0.12700000000E+01 0. -1.
<mgrwt>
<rscale>  0 0.23620740E+01</rscale>
<asrwt>0</asrwt>
<pdfrwt beam="1">0</pdfrwt>
<pdfrwt beam="2">0</pdfrwt>
<totfact> 0.13276017E+12</totfact>
</mgrwt>
</event>
<event>
 4    1  0.3324394E+006  0.2792878E+01  0.7546771E-02  0.2591983E+00
         22   -1    0    0    0    0  0.00000000000E+00  0.00000000000E+00  0.34203888133E+02  0.34203888133E+02  0.00000000000E+00 0.  1.
         22   -1    0    0    0    0 -0.00000000000E+00 -0.00000000000E+00 -0.27079663227E+00  0.27079663227E+00  0.00000000000E+00 0. -1.
          4    1    1    2  501    0 -0.23921370818E+01 -0.68186971430E+00  0.10117908397E+02  0.10496296320E+02  0.12700000000E+01 0. -1.
         -4    1    1    2    0  501  0.23921370818E+01  0.68186971430E+00  0.23815183104E+02  0.23978388445E+02  0.12700000000E+01 0.  1.
<mgrwt>
<rscale>  0 0.27928777E+01</rscale>
<asrwt>0</asrwt>
<pdfrwt beam="1">0</pdfrwt>
<pdfrwt beam="2">0</pdfrwt>
<totfact> 0.15042573E+12</totfact>
</mgrwt>
</event>
<event>
 4    1  0.3324394E+006  0.2175729E+01  0.7546771E-02  0.2871420E+00
         22   -1    0    0    0    0  0.00000000000E+00  0.00000000000E+00  0.80127074216E+00  0.80127074216E+00  0.00000000000E+00 0.  1.
         22   -1    0    0    0    0 -0.00000000000E+00 -0.00000000000E+00 -0.17095468521E+02  0.17095468521E+02  0.00000000000E+00 0.  1.
          4    1    1    2  501    0  0.18907517844E-01  0.17665049472E+01 -0.15385989218E+02  0.15539062438E+02  0.12700000000E+01 0.  1.
         -4    1    1    2    0  501 -0.18907517844E-01 -0.17665049472E+01 -0.90820856045E+00  0.23576768252E+01  0.12700000000E+01 0.  1.
<mgrwt>
<rscale>  0 0.21757291E+01</rscale>
<asrwt>0</asrwt>
<pdfrwt beam="1">0</pdfrwt>
<pdfrwt beam="2">0</pdfrwt>
<totfact> 0.10596626E+12</totfact>
</mgrwt>
</event>
<event>
 4    1  0.3324394E+006  0.2779876E+01  0.7546771E-02  0.2596678E+00
         22   -1    0    0    0    0  0.00000000000E+00  0.00000000000E+00  0.10100544630E+02  0.10100544630E+02  0.00000000000E+00 0.  1.
         22   -1    0    0    0    0 -0.00000000000E+00 -0.00000000000E+00 -0.79314345473E+00  0.79314345473E+00  0.00000000000E+00 0. -1.
          4    1    1    2  501    0  0.13357887634E+01 -0.20809798092E+01  0.36291062128E+01  0.45714462143E+01  0.12700000000E+01 0. -1.
         -4    1    1    2    0  501 -0.13357887634E+01  0.20809798092E+01  0.56782949623E+01  0.63222418702E+01  0.12700000000E+01 0.  1.
<mgrwt>
<rscale>  0 0.27798756E+01</rscale>
<asrwt>0</asrwt>
<pdfrwt beam="1">0</pdfrwt>
<pdfrwt beam="2">0</pdfrwt>
<totfact> 0.20415987E+12</totfact>
</mgrwt>
</event>
<event>
 4    1  0.3324394E+006  0.2173411E+01  0.7546771E-02  0.2872751E+00
         22   -1    0    0    0    0  0.00000000000E+00  0.00000000000E+00  0.24049472038E+01  0.24049472038E+01  0.00000000000E+00 0.  1.
         22   -1    0    0    0    0 -0.00000000000E+00 -0.00000000000E+00 -0.57486970989E+01  0.57486970989E+01  0.00000000000E+00 0. -1.
          4    1    1    2  501    0 -0.42254772464E+00  0.17123871791E+01 -0.49797041022E+01  0.54333386951E+01  0.12700000000E+01 0. -1.
         -4    1    1    2    0  501  0.42254772464E+00 -0.17123871791E+01  0.16359542071E+01  0.27203056076E+01  0.12700000000E+01 0.  1.
<mgrwt>
<rscale>  0 0.21734112E+01</rscale>
<asrwt>0</asrwt>
<pdfrwt beam="1">0</pdfrwt>
<pdfrwt beam="2">0</pdfrwt>
<totfact> 0.11220249E+12</totfact>
</mgrwt>
</event>
<event>
 4    1  0.3324394E+006  0.3434776E+01  0.7546771E-02  0.2400401E+00
         22   -1    0    0    0    0  0.00000000000E+00  0.00000000000E+00  0.14840598618E+03  0.14840598618E+03  0.00000000000E+00 0. -1.
         22   -1    0    0    0    0 -0.00000000000E+00 -0.00000000000E+00 -0.14612665320E+00  0.14612665320E+00  0.00000000000E+00 0.  1.
          4    1    1    2  501    0  0.20459223028E+01 -0.24492834085E+01  0.23974143372E+02  0.24218943778E+02  0.12700000000E+01 0.  1.
         -4    1    1    2    0  501 -0.20459223028E+01  0.24492834085E+01  0.12428571616E+03  0.12433316906E+03  0.12700000000E+01 0.  1.
<mgrwt>
<rscale>  0 0.34347762E+01</rscale>
<asrwt>0</asrwt>
<pdfrwt beam="1">0</pdfrwt>
<pdfrwt beam="2">0</pdfrwt>
<totfact> 0.40256028E+11</totfact>
</mgrwt>
</event>
<event>
 4    1  0.3324394E+006  0.2549763E+01  0.7546771E-02  0.2686990E+00
         22   -1    0    0    0    0  0.00000000000E+00  0.00000000000E+00  0.66025788080E+00  0.66025788080E+00  0.00000000000E+00 0.  1.
         22   -1    0    0    0    0 -0.00000000000E+00 -0.00000000000E+00 -0.12117831198E+02  0.12117831198E+02  0.00000000000E+00 0. -1.
          4    1    1    2  501    0  0.22088961622E+01 -0.95743775242E-01 -0.84948048103E+01  0.88692163064E+01  0.12700000000E+01 0. -1.
         -4    1    1    2    0  501 -0.22088961622E+01  0.95743775242E-01 -0.29627685073E+01  0.39088727728E+01  0.12700000000E+01 0.  1.
<mgrwt>
<rscale>  0 0.25497626E+01</rscale>
<asrwt>0</asrwt>
<pdfrwt beam="1">0</pdfrwt>
<pdfrwt beam="2">0</pdfrwt>
<totfact> 0.20150683E+12</totfact>
</mgrwt>
</event>
<event>
 4    1  0.3324394E+006  0.2335420E+01  0.7546771E-02  0.2785857E+00
         22   -1    0    0    0    0  0.00000000000E+00  0.00000000000E+00  0.25842548976E+01  0.25842548976E+01  0.00000000000E+00 0. -1.
         22   -1    0    0    0    0 -0.00000000000E+00 -0.00000000000E+00 -0.25100888208E+01  0.25100888208E+01  0.00000000000E+00 0.  1.
          4    1    1    2  501    0  0.14815160898E+01 -0.12831205337E+01 -0.97915511761E+00  0.25323769413E+01  0.12700000000E+01 0.  1.
         -4    1    1    2    0  501 -0.14815160898E+01  0.12831205337E+01  0.10533211944E+01  0.25619667771E+01  0.12700000000E+01 0. -1.
<mgrwt>
<rscale>  0 0.23354204E+01</rscale>
<asrwt>0</asrwt>
<pdfrwt beam="1">0</pdfrwt>
<pdfrwt beam="2">0</pdfrwt>
<totfact> 0.27334711E+12</totfact>
</mgrwt>
</event>
<event>
 4    1  0.3324394E+006  0.3615859E+01  0.7546771E-02  0.2357346E+00
         22   -1    0    0    0    0  0.00000000000E+00  0.00000000000E+00  0.13112235268E+01  0.13112235268E+01  0.00000000000E+00 0. -1.
         22   -1    0    0    0    0 -0.00000000000E+00 -0.00000000000E+00 -0.11486649165E+02  0.11486649165E+02  0.00000000000E+00 0.  1.
          4    1    1    2  501    0  0.17554424834E+01  0.28948161089E+01 -0.27634488520E+01  0.45509436576E+01  0.12700000000E+01 0.  1.
         -4    1    1    2    0  501 -0.17554424834E+01 -0.28948161089E+01 -0.74119767866E+01  0.82469290346E+01  0.12700000000E+01 0. -1.
<mgrwt>
<rscale>  0 0.36158593E+01</rscale>
<asrwt>0</asrwt>
<pdfrwt beam="1">0</pdfrwt>
<pdfrwt beam="2">0</pdfrwt>
<totfact> 0.98342926E+11</totfact>
</mgrwt>
</event>
<event>
 4    1  0.3324394E+006  0.2302125E+01  0.7546771E-02  0.2802764E+00
         22   -1    0    0    0    0  0.00000000000E+00  0.00000000000E+00  0.52642037104E+00  0.52642037104E+00  0.00000000000E+00 0.  1.
         22   -1    0    0    0    0 -0.00000000000E+00 -0.00000000000E+00 -0.11802116662E+02  0.11802116662E+02  0.00000000000E+00 0. -1.
          4    1    1    2  501    0  0.18129549265E+00  0.19115473304E+01 -0.80010066413E+01  0.83256164051E+01  0.12700000000E+01 0. -1.
         -4    1    1    2    0  501 -0.18129549265E+00 -0.19115473304E+01 -0.32746896500E+01  0.40029206282E+01  0.12700000000E+01 0.  1.
<mgrwt>
<rscale>  0 0.23021254E+01</rscale>
<asrwt>0</asrwt>
<pdfrwt beam="1">0</pdfrwt>
<pdfrwt beam="2">0</pdfrwt>
<totfact> 0.26892397E+12</totfact>
</mgrwt>
</event>
<event>
 4    1  0.3324394E+006  0.2091968E+01  0.7546771E-02  0.2921297E+00
         22   -1    0    0    0    0  0.00000000000E+00  0.00000000000E+00  0.44586352738E+01  0.44586352738E+01  0.00000000000E+00 0.  1.
         22   -1    0    0    0    0 -0.00000000000E+00 -0.00000000000E+00 -0.12439346487E+01  0.12439346487E+01  0.00000000000E+00 0.  1.
          4    1    1    2  501    0  0.20705676765E+00 -0.16494115614E+01  0.29780982218E+00  0.21130597943E+01  0.12700000000E+01 0.  1.
         -4    1    1    2    0  501 -0.20705676765E+00  0.16494115614E+01  0.29168908030E+01  0.35895101282E+01  0.12700000000E+01 0.  1.
<mgrwt>
<rscale>  0 0.20919682E+01</rscale>
<asrwt>0</asrwt>
<pdfrwt beam="1">0</pdfrwt>
<pdfrwt beam="2">0</pdfrwt>
<totfact> 0.32444322E+12</totfact>
</mgrwt>
</event>
<event>
 4    1  0.3324394E+006  0.2063531E+01  0.7546771E-02  0.2939122E+00
         22   -1    0    0    0    0  0.00000000000E+00  0.00000000000E+00  0.30865195049E+01  0.30865195049E+01  0.00000000000E+00 0. -1.
         22   -1    0    0    0    0 -0.00000000000E+00 -0.00000000000E+00 -0.13878803455E+01  0.13878803455E+01  0.00000000000E+00 0.  1.
          4    1    1    2  501    0 -0.80275395876E+00  0.14145130599E+01  0.67651185373E+00  0.21715960497E+01  0.12700000000E+01 0. -1.
         -4    1    1    2    0  501  0.80275395876E+00 -0.14145130599E+01  0.10221273057E+01  0.23028038006E+01  0.12700000000E+01 0. -1.
<mgrwt>
<rscale>  0 0.20635312E+01</rscale>
<asrwt>0</asrwt>
<pdfrwt beam="1">0</pdfrwt>
<pdfrwt beam="2">0</pdfrwt>
<totfact> 0.44071871E+12</totfact>
</mgrwt>
</event>
<event>
 4    1  0.3324394E+006  0.2140006E+01  0.7546771E-02  0.2892231E+00
         22   -1    0    0    0    0  0.00000000000E+00  0.00000000000E+00  0.25382716608E+01  0.25382716608E+01  0.00000000000E+00 0.  1.
         22   -1    0    0    0    0 -0.00000000000E+00 -0.00000000000E+00 -0.18042529441E+01  0.18042529441E+01  0.00000000000E+00 0. -1.
          4    1    1    2  501    0 -0.13413481896E+01 -0.10805138667E+01  0.35922036587E+00  0.21699457258E+01  0.12700000000E+01 0.  1.
         -4    1    1    2    0  501  0.13413481896E+01  0.10805138667E+01  0.37479835087E+00  0.21725788790E+01  0.12700000000E+01 0. -1.
<mgrwt>
<rscale>  0 0.21400059E+01</rscale>
<asrwt>0</asrwt>
<pdfrwt beam="1">0</pdfrwt>
<pdfrwt beam="2">0</pdfrwt>
<totfact> 0.40923414E+12</totfact>
</mgrwt>
</event>
<event>
 4    1  0.3324394E+006  0.2213907E+01  0.7546771E-02  0.2849894E+00
         22   -1    0    0    0    0  0.00000000000E+00  0.00000000000E+00  0.49912015937E+01  0.49912015937E+01  0.00000000000E+00 0. -1.
         22   -1    0    0    0    0 -0.00000000000E+00 -0.00000000000E+00 -0.15421878618E+01  0.15421878618E+01  0.00000000000E+00 0. -1.
          4    1    1    2  501    0 -0.16135671057E+01 -0.82757792674E+00 -0.24430804349E+00  0.22273460552E+01  0.12700000000E+01 0. -1.
         -4    1    1    2    0  501  0.16135671057E+01  0.82757792674E+00  0.36933217754E+01  0.43060434004E+01  0.12700000000E+01 0. -1.
<mgrwt>
<rscale>  0 0.22139070E+01</rscale>
<asrwt>0</asrwt>
<pdfrwt beam="1">0</pdfrwt>
<pdfrwt beam="2">0</pdfrwt>
<totfact> 0.22181571E+12</totfact>
</mgrwt>
</event>
<event>
 4    1  0.3324394E+006  0.2150397E+01  0.7546771E-02  0.2886109E+00
         22   -1    0    0    0    0  0.00000000000E+00  0.00000000000E+00  0.42053465339E+02  0.42053465339E+02  0.00000000000E+00 0.  1.
         22   -1    0    0    0    0 -0.00000000000E+00 -0.00000000000E+00 -0.11886761961E+00  0.11886761961E+00  0.00000000000E+00 0.  1.
          4    1    1    2  501    0 -0.11679916749E+00 -0.17313762900E+01  0.15195081111E+02  0.15346488063E+02  0.12700000000E+01 0.  1.
         -4    1    1    2    0  501  0.11679916749E+00  0.17313762900E+01  0.26739516608E+02  0.26825844895E+02  0.12700000000E+01 0.  1.
<mgrwt>
<rscale>  0 0.21503967E+01</rscale>
<asrwt>0</asrwt>
<pdfrwt beam="1">0</pdfrwt>
<pdfrwt beam="2">0</pdfrwt>
<totfact> 0.28817985E+12</totfact>
</mgrwt>
</event>
<event>
 4    1  0.3324394E+006  0.2489080E+01  0.7546771E-02  0.2713364E+00
         22   -1    0    0    0    0  0.00000000000E+00  0.00000000000E+00  0.13827556767E+01  0.13827556767E+01  0.00000000000E+00 0.  1.
         22   -1    0    0    0    0 -0.00000000000E+00 -0.00000000000E+00 -0.63816219191E+01  0.63816219191E+01  0.00000000000E+00 0. -1.
          4    1    1    2  501    0 -0.21155507873E+01  0.32720646565E+00 -0.46183274326E+01  0.52463766048E+01  0.12700000000E+01 0. -1.
         -4    1    1    2    0  501  0.21155507873E+01 -0.32720646565E+00 -0.38053880974E+00  0.25180009910E+01  0.12700000000E+01 0.  1.
<mgrwt>
<rscale>  0 0.24890800E+01</rscale>
<asrwt>0</asrwt>
<pdfrwt beam="1">0</pdfrwt>
<pdfrwt beam="2">0</pdfrwt>
<totfact> 0.18779961E+12</totfact>
</mgrwt>
</event>
<event>
 4    1  0.3324394E+006  0.2338527E+01  0.7546771E-02  0.2784303E+00
         22   -1    0    0    0    0  0.00000000000E+00  0.00000000000E+00  0.24923085471E+01  0.24923085471E+01  0.00000000000E+00 0. -1.
         22   -1    0    0    0    0 -0.00000000000E+00 -0.00000000000E+00 -0.29063851057E+01  0.29063851057E+01  0.00000000000E+00 0.  1.
          4    1    1    2  501    0 -0.19124241557E+01 -0.44546916585E+00 -0.15432278894E+01  0.28018317665E+01  0.12700000000E+01 0.  1.
         -4    1    1    2    0  501  0.19124241557E+01  0.44546916585E+00  0.11291513307E+01  0.25968618864E+01  0.12700000000E+01 0. -1.
<mgrwt>
<rscale>  0 0.23385271E+01</rscale>
<asrwt>0</asrwt>
<pdfrwt beam="1">0</pdfrwt>
<pdfrwt beam="2">0</pdfrwt>
<totfact> 0.24034520E+12</totfact>
</mgrwt>
</event>
<event>
 4    1  0.3324394E+006  0.2141143E+01  0.7546771E-02  0.2891559E+00
         22   -1    0    0    0    0  0.00000000000E+00  0.00000000000E+00  0.56138951446E-01  0.56138951446E-01  0.00000000000E+00 0.  1.
         22   -1    0    0    0    0 -0.00000000000E+00 -0.00000000000E+00 -0.95078836642E+02  0.95078836642E+02  0.00000000000E+00 0. -1.
          4    1    1    2  501    0  0.14837681785E+01  0.87751085429E+00 -0.29643513421E+02  0.29720739918E+02  0.12700000000E+01 0.  1.
         -4    1    1    2    0  501 -0.14837681785E+01 -0.87751085429E+00 -0.65379184269E+02  0.65414235675E+02  0.12700000000E+01 0. -1.
<mgrwt>
<rscale>  0 0.21411430E+01</rscale>
<asrwt>0</asrwt>
<pdfrwt beam="1">0</pdfrwt>
<pdfrwt beam="2">0</pdfrwt>
<totfact> 0.22003847E+12</totfact>
</mgrwt>
</event>
<event>
 4    1  0.3324394E+006  0.3177064E+01  0.7546771E-02  0.2469024E+00
         22   -1    0    0    0    0  0.00000000000E+00  0.00000000000E+00  0.15946406785E+01  0.15946406785E+01  0.00000000000E+00 0.  1.
         22   -1    0    0    0    0 -0.00000000000E+00 -0.00000000000E+00 -0.70150155551E+01  0.70150155551E+01  0.00000000000E+00 0. -1.
          4    1    1    2  501    0  0.81747212958E+00  0.27950982808E+01 -0.13647628114E+01  0.34577901344E+01  0.12700000000E+01 0.  1.
         -4    1    1    2    0  501 -0.81747212958E+00 -0.27950982808E+01 -0.40556120652E+01  0.51518660993E+01  0.12700000000E+01 0. -1.
<mgrwt>
<rscale>  0 0.31770639E+01</rscale>
<asrwt>0</asrwt>
<pdfrwt beam="1">0</pdfrwt>
<pdfrwt beam="2">0</pdfrwt>
<totfact> 0.14235979E+12</totfact>
</mgrwt>
</event>
<event>
 4    1  0.3324394E+006  0.2257166E+01  0.7546771E-02  0.2826344E+00
         22   -1    0    0    0    0  0.00000000000E+00  0.00000000000E+00  0.86877750929E+00  0.86877750929E+00  0.00000000000E+00 0.  1.
         22   -1    0    0    0    0 -0.00000000000E+00 -0.00000000000E+00 -0.59469571140E+01  0.59469571140E+01  0.00000000000E+00 0.  1.
          4    1    1    2  501    0  0.60607739563E+00 -0.17648136208E+01 -0.29407879677E+01  0.37071593973E+01  0.12700000000E+01 0.  1.
         -4    1    1    2    0  501 -0.60607739563E+00  0.17648136208E+01 -0.21373916370E+01  0.31085752260E+01  0.12700000000E+01 0.  1.
<mgrwt>
<rscale>  0 0.22571657E+01</rscale>
<asrwt>0</asrwt>
<pdfrwt beam="1">0</pdfrwt>
<pdfrwt beam="2">0</pdfrwt>
<totfact> 0.34758391E+12</totfact>
</mgrwt>
</event>
<event>
 4    1  0.3324394E+006  0.6275048E+01  0.7546771E-02  0.1995865E+00
         22   -1    0    0    0    0  0.00000000000E+00  0.00000000000E+00  0.90182145485E+01  0.90182145485E+01  0.00000000000E+00 0.  1.
         22   -1    0    0    0    0 -0.00000000000E+00 -0.00000000000E+00 -0.45382738214E+01  0.45382738214E+01  0.00000000000E+00 0. -1.
          4    1    1    2  501    0  0.37182681694E+01  0.48926282795E+01  0.92048946869E+00  0.63422023401E+01  0.12700000000E+01 0.  1.
         -4    1    1    2    0  501 -0.37182681694E+01 -0.48926282795E+01  0.35594512584E+01  0.72142860299E+01  0.12700000000E+01 0. -1.
<mgrwt>
<rscale>  0 0.62750482E+01</rscale>
<asrwt>0</asrwt>
<pdfrwt beam="1">0</pdfrwt>
<pdfrwt beam="2">0</pdfrwt>
<totfact> 0.31110713E+11</totfact>
</mgrwt>
</event>
<event>
 4    1  0.3324394E+006  0.2113670E+01  0.7546771E-02  0.2908008E+00
         22   -1    0    0    0    0  0.00000000000E+00  0.00000000000E+00  0.25599200354E+01  0.25599200354E+01  0.00000000000E+00 0.  1.
         22   -1    0    0    0    0 -0.00000000000E+00 -0.00000000000E+00 -0.31781526745E+01  0.31781526745E+01  0.00000000000E+00 0. -1.
          4    1    1    2  501    0  0.16207626897E+01 -0.47731520520E+00 -0.22355890992E+01  0.30765987911E+01  0.12700000000E+01 0. -1.
         -4    1    1    2    0  501 -0.16207626897E+01  0.47731520520E+00  0.16173564600E+01  0.26614739187E+01  0.12700000000E+01 0.  1.
<mgrwt>
<rscale>  0 0.21136701E+01</rscale>
<asrwt>0</asrwt>
<pdfrwt beam="1">0</pdfrwt>
<pdfrwt beam="2">0</pdfrwt>
<totfact> 0.20985849E+12</totfact>
</mgrwt>
</event>
<event>
 4    1  0.3324394E+006  0.2435608E+01  0.7546771E-02  0.2737617E+00
         22   -1    0    0    0    0  0.00000000000E+00  0.00000000000E+00  0.55823392163E+01  0.55823392163E+01  0.00000000000E+00 0.  1.
         22   -1    0    0    0    0 -0.00000000000E+00 -0.00000000000E+00 -0.17378312823E+01  0.17378312823E+01  0.00000000000E+00 0. -1.
          4    1    1    2  501    0 -0.37697130432E+00 -0.20438148573E+01 -0.35909140623E+00  0.24619368743E+01  0.12700000000E+01 0. -1.
         -4    1    1    2    0  501  0.37697130432E+00  0.20438148573E+01  0.42035993402E+01  0.48582336243E+01  0.12700000000E+01 0.  1.
<mgrwt>
<rscale>  0 0.24356080E+01</rscale>
<asrwt>0</asrwt>
<pdfrwt beam="1">0</pdfrwt>
<pdfrwt beam="2">0</pdfrwt>
<totfact> 0.16926669E+12</totfact>
</mgrwt>
</event>
<event>
 4    1  0.3324394E+006  0.2160000E+01  0.7546771E-02  0.2880502E+00
         22   -1    0    0    0    0  0.00000000000E+00  0.00000000000E+00  0.13101160109E+01  0.13101160109E+01  0.00000000000E+00 0. -1.
         22   -1    0    0    0    0 -0.00000000000E+00 -0.00000000000E+00 -0.40371834600E+01  0.40371834600E+01  0.00000000000E+00 0. -1.
          4    1    1    2  501    0  0.92596993469E+00 -0.14816479617E+01 -0.22815611912E+01  0.31418342527E+01  0.12700000000E+01 0. -1.
         -4    1    1    2    0  501 -0.92596993469E+00  0.14816479617E+01 -0.44550625787E+00  0.22054652181E+01  0.12700000000E+01 0. -1.
<mgrwt>
<rscale>  0 0.21600002E+01</rscale>
<asrwt>0</asrwt>
<pdfrwt beam="1">0</pdfrwt>
<pdfrwt beam="2">0</pdfrwt>
<totfact> 0.34367603E+12</totfact>
</mgrwt>
</event>
<event>
 4    1  0.3324394E+006  0.2063800E+01  0.7546771E-02  0.2938951E+00
         22   -1    0    0    0    0  0.00000000000E+00  0.00000000000E+00  0.11480829011E+02  0.11480829011E+02  0.00000000000E+00 0. -1.
         22   -1    0    0    0    0 -0.00000000000E+00 -0.00000000000E+00 -0.98086373964E+00  0.98086373964E+00  0.00000000000E+00 0.  1.
          4    1    1    2  501    0 -0.11092563131E+01 -0.11899250006E+01  0.33680210098E+00  0.20911017982E+01  0.12700000000E+01 0.  1.
         -4    1    1    2    0  501  0.11092563131E+01  0.11899250006E+01  0.10163163170E+02  0.10370590952E+02  0.12700000000E+01 0. -1.
<mgrwt>
<rscale>  0 0.20638002E+01</rscale>
<asrwt>0</asrwt>
<pdfrwt beam="1">0</pdfrwt>
<pdfrwt beam="2">0</pdfrwt>
<totfact> 0.13716922E+12</totfact>
</mgrwt>
</event>
<event>
 4    1  0.3324394E+006  0.2071224E+01  0.7546771E-02  0.2934253E+00
         22   -1    0    0    0    0  0.00000000000E+00  0.00000000000E+00  0.70114329696E+01  0.70114329696E+01  0.00000000000E+00 0. -1.
         22   -1    0    0    0    0 -0.00000000000E+00 -0.00000000000E+00 -0.80519909758E+00  0.80519909758E+00  0.00000000000E+00 0.  1.
          4    1    1    2  501    0 -0.68645370363E+00  0.14852106449E+01  0.11879561030E+01  0.23877204714E+01  0.12700000000E+01 0.  1.
         -4    1    1    2    0  501  0.68645370363E+00 -0.14852106449E+01  0.50182777690E+01  0.54289115957E+01  0.12700000000E+01 0. -1.
<mgrwt>
<rscale>  0 0.20712241E+01</rscale>
<asrwt>0</asrwt>
<pdfrwt beam="1">0</pdfrwt>
<pdfrwt beam="2">0</pdfrwt>
<totfact> 0.31138252E+12</totfact>
</mgrwt>
</event>
<event>
 4    1  0.3324394E+006  0.2954244E+01  0.7546771E-02  0.2536840E+00
         22   -1    0    0    0    0  0.00000000000E+00  0.00000000000E+00  0.13575234680E+02  0.13575234680E+02  0.00000000000E+00 0.  1.
         22   -1    0    0    0    0 -0.00000000000E+00 -0.00000000000E+00 -0.77003098181E+00  0.77003098181E+00  0.00000000000E+00 0.  1.
          4    1    1    2  501    0 -0.26628718028E+01  0.15417869696E+00  0.34882277269E+01  0.45711366183E+01  0.12700000000E+01 0.  1.
         -4    1    1    2    0  501  0.26628718028E+01 -0.15417869696E+00  0.93169759716E+01  0.97741290437E+01  0.12700000000E+01 0.  1.
<mgrwt>
<rscale>  0 0.29542439E+01</rscale>
<asrwt>0</asrwt>
<pdfrwt beam="1">0</pdfrwt>
<pdfrwt beam="2">0</pdfrwt>
<totfact> 0.14728337E+12</totfact>
</mgrwt>
</event>
<event>
 4    1  0.3324394E+006  0.6433946E+01  0.7546771E-02  0.1982826E+00
         22   -1    0    0    0    0  0.00000000000E+00  0.00000000000E+00  0.46936141295E+01  0.46936141295E+01  0.00000000000E+00 0. -1.
         22   -1    0    0    0    0 -0.00000000000E+00 -0.00000000000E+00 -0.15506752940E+02  0.15506752940E+02  0.00000000000E+00 0.  1.
          4    1    1    2  501    0 -0.76958933881E+00 -0.62602306792E+01 -0.12039270880E+02  0.13650629994E+02  0.12700000000E+01 0.  1.
         -4    1    1    2    0  501  0.76958933881E+00  0.62602306792E+01  0.12261320696E+01  0.65497370756E+01  0.12700000000E+01 0. -1.
<mgrwt>
<rscale>  0 0.64339456E+01</rscale>
<asrwt>0</asrwt>
<pdfrwt beam="1">0</pdfrwt>
<pdfrwt beam="2">0</pdfrwt>
<totfact> 0.15442526E+11</totfact>
</mgrwt>
</event>
<event>
 4    1  0.3324394E+006  0.3236704E+01  0.7546771E-02  0.2452287E+00
         22   -1    0    0    0    0  0.00000000000E+00  0.00000000000E+00  0.10093089873E+01  0.10093089873E+01  0.00000000000E+00 0. -1.
         22   -1    0    0    0    0 -0.00000000000E+00 -0.00000000000E+00 -0.13953153681E+02  0.13953153681E+02  0.00000000000E+00 0.  1.
          4    1    1    2  501    0  0.26201811276E+01  0.14135073646E+01 -0.10257963462E+02  0.10756489511E+02  0.12700000000E+01 0.  1.
         -4    1    1    2    0  501 -0.26201811276E+01 -0.14135073646E+01 -0.26858812320E+01  0.42059731578E+01  0.12700000000E+01 0. -1.
<mgrwt>
<rscale>  0 0.32367039E+01</rscale>
<asrwt>0</asrwt>
<pdfrwt beam="1">0</pdfrwt>
<pdfrwt beam="2">0</pdfrwt>
<totfact> 0.10462302E+12</totfact>
</mgrwt>
</event>
<event>
 4    1  0.3324394E+006  0.2891649E+01  0.7546771E-02  0.2557570E+00
         22   -1    0    0    0    0  0.00000000000E+00  0.00000000000E+00  0.34323902501E+01  0.34323902501E+01  0.00000000000E+00 0.  1.
         22   -1    0    0    0    0 -0.00000000000E+00 -0.00000000000E+00 -0.41656659593E+01  0.41656659593E+01  0.00000000000E+00 0. -1.
          4    1    1    2  501    0 -0.20252589980E+01 -0.16269793021E+01 -0.28145691494E+01  0.40352738637E+01  0.12700000000E+01 0. -1.
         -4    1    1    2    0  501  0.20252589980E+01  0.16269793021E+01  0.20812934402E+01  0.35627823457E+01  0.12700000000E+01 0.  1.
<mgrwt>
<rscale>  0 0.28916493E+01</rscale>
<asrwt>0</asrwt>
<pdfrwt beam="1">0</pdfrwt>
<pdfrwt beam="2">0</pdfrwt>
<totfact> 0.10845906E+12</totfact>
</mgrwt>
</event>
<event>
 4    1  0.3324394E+006  0.3334036E+01  0.7546771E-02  0.2426113E+00
         22   -1    0    0    0    0  0.00000000000E+00  0.00000000000E+00  0.24658706152E+01  0.24658706152E+01  0.00000000000E+00 0.  1.
         22   -1    0    0    0    0 -0.00000000000E+00 -0.00000000000E+00 -0.72909864556E+01  0.72909864556E+01  0.00000000000E+00 0.  1.
          4    1    1    2  501    0 -0.12706256617E+01  0.28086303502E+01 -0.54266286903E+01  0.63689946584E+01  0.12700000000E+01 0.  1.
         -4    1    1    2    0  501  0.12706256617E+01 -0.28086303502E+01  0.60151284998E+00  0.33878624124E+01  0.12700000000E+01 0.  1.
<mgrwt>
<rscale>  0 0.33340357E+01</rscale>
<asrwt>0</asrwt>
<pdfrwt beam="1">0</pdfrwt>
<pdfrwt beam="2">0</pdfrwt>
<totfact> 0.82081244E+11</totfact>
</mgrwt>
</event>
<event>
 4    1  0.3324394E+006  0.2371205E+01  0.7546771E-02  0.2768187E+00
         22   -1    0    0    0    0  0.00000000000E+00  0.00000000000E+00  0.28722616803E+02  0.28722616803E+02  0.00000000000E+00 0. -1.
         22   -1    0    0    0    0 -0.00000000000E+00 -0.00000000000E+00 -0.20913829190E+00  0.20913829190E+00  0.00000000000E+00 0.  1.
          4    1    1    2  501    0 -0.22637524579E+00 -0.19895901475E+01  0.10597432392E+02  0.10859474573E+02  0.12700000000E+01 0. -1.
         -4    1    1    2    0  501  0.22637524579E+00  0.19895901475E+01  0.17916046119E+02  0.18072280522E+02  0.12700000000E+01 0.  1.
<mgrwt>
<rscale>  0 0.23712053E+01</rscale>
<asrwt>0</asrwt>
<pdfrwt beam="1">0</pdfrwt>
<pdfrwt beam="2">0</pdfrwt>
<totfact> 0.25099981E+12</totfact>
</mgrwt>
</event>
<event>
 4    1  0.3324394E+006  0.2182342E+01  0.7546771E-02  0.2867640E+00
         22   -1    0    0    0    0  0.00000000000E+00  0.00000000000E+00  0.82591571275E+01  0.82591571275E+01  0.00000000000E+00 0. -1.
         22   -1    0    0    0    0 -0.00000000000E+00 -0.00000000000E+00 -0.74475519292E+00  0.74475519292E+00  0.00000000000E+00 0.  1.
          4    1    1    2  501    0  0.13424671550E+01  0.11608188560E+01  0.16183088267E+01  0.27168993241E+01  0.12700000000E+01 0.  1.
         -4    1    1    2    0  501 -0.13424671550E+01 -0.11608188560E+01  0.58960931079E+01  0.62870129963E+01  0.12700000000E+01 0. -1.
<mgrwt>
<rscale>  0 0.21823424E+01</rscale>
<asrwt>0</asrwt>
<pdfrwt beam="1">0</pdfrwt>
<pdfrwt beam="2">0</pdfrwt>
<totfact> 0.27959190E+12</totfact>
</mgrwt>
</event>
<event>
 4    1  0.3324394E+006  0.2572592E+01  0.7546771E-02  0.2677367E+00
         22   -1    0    0    0    0  0.00000000000E+00  0.00000000000E+00  0.15604394607E+02  0.15604394607E+02  0.00000000000E+00 0. -1.
         22   -1    0    0    0    0 -0.00000000000E+00 -0.00000000000E+00 -0.61772585167E+00  0.61772585167E+00  0.00000000000E+00 0.  1.
          4    1    1    2  501    0  0.18506119560E+01  0.12572052092E+01  0.29525357549E+01  0.39160818344E+01  0.12700000000E+01 0.  1.
         -4    1    1    2    0  501 -0.18506119560E+01 -0.12572052092E+01  0.12034133001E+02  0.12306038625E+02  0.12700000000E+01 0. -1.
<mgrwt>
<rscale>  0 0.25725920E+01</rscale>
<asrwt>0</asrwt>
<pdfrwt beam="1">0</pdfrwt>
<pdfrwt beam="2">0</pdfrwt>
<totfact> 0.15937141E+12</totfact>
</mgrwt>
</event>
<event>
 4    1  0.3324394E+006  0.2060208E+01  0.7546771E-02  0.2941236E+00
         22   -1    0    0    0    0  0.00000000000E+00  0.00000000000E+00  0.25998905923E+00  0.25998905923E+00  0.00000000000E+00 0.  1.
         22   -1    0    0    0    0 -0.00000000000E+00 -0.00000000000E+00 -0.16643185556E+02  0.16643185556E+02  0.00000000000E+00 0. -1.
          4    1    1    2  501    0 -0.94527278419E+00  0.13183377098E+01 -0.93592394475E+01  0.95833093443E+01  0.12700000000E+01 0. -1.
         -4    1    1    2    0  501  0.94527278419E+00 -0.13183377098E+01 -0.70239570488E+01  0.73198652704E+01  0.12700000000E+01 0.  1.
<mgrwt>
<rscale>  0 0.20602075E+01</rscale>
<asrwt>0</asrwt>
<pdfrwt beam="1">0</pdfrwt>
<pdfrwt beam="2">0</pdfrwt>
<totfact> 0.38988027E+12</totfact>
</mgrwt>
</event>
<event>
 4    1  0.3324394E+006  0.2162892E+01  0.7546771E-02  0.2878822E+00
         22   -1    0    0    0    0  0.00000000000E+00  0.00000000000E+00  0.13511133602E+01  0.13511133602E+01  0.00000000000E+00 0. -1.
         22   -1    0    0    0    0 -0.00000000000E+00 -0.00000000000E+00 -0.46213316379E+01  0.46213316379E+01  0.00000000000E+00 0. -1.
          4    1    1    2  501    0  0.85262176929E+00 -0.15291302058E+01 -0.31305401136E+01  0.38050472364E+01  0.12700000000E+01 0. -1.
         -4    1    1    2    0  501 -0.85262176929E+00  0.15291302058E+01 -0.13967816408E+00  0.21673977617E+01  0.12700000000E+01 0. -1.
<mgrwt>
<rscale>  0 0.21628923E+01</rscale>
<asrwt>0</asrwt>
<pdfrwt beam="1">0</pdfrwt>
<pdfrwt beam="2">0</pdfrwt>
<totfact> 0.28286708E+12</totfact>
</mgrwt>
</event>
<event>
 4    1  0.3324394E+006  0.6560440E+01  0.7546771E-02  0.1972795E+00
         22   -1    0    0    0    0  0.00000000000E+00  0.00000000000E+00  0.12516622455E+01  0.12516622455E+01  0.00000000000E+00 0. -1.
         22   -1    0    0    0    0 -0.00000000000E+00 -0.00000000000E+00 -0.49306755987E+02  0.49306755987E+02  0.00000000000E+00 0.  1.
          4    1    1    2  501    0 -0.26525817245E+01 -0.58643227934E+01 -0.37933764151E+02  0.38496880838E+02  0.12700000000E+01 0.  1.
         -4    1    1    2    0  501  0.26525817245E+01  0.58643227934E+01 -0.10121329591E+02  0.12061537394E+02  0.12700000000E+01 0. -1.
<mgrwt>
<rscale>  0 0.65604399E+01</rscale>
<asrwt>0</asrwt>
<pdfrwt beam="1">0</pdfrwt>
<pdfrwt beam="2">0</pdfrwt>
<totfact> 0.16518999E+11</totfact>
</mgrwt>
</event>
<event>
 4    1  0.3324394E+006  0.2248663E+01  0.7546771E-02  0.2830905E+00
         22   -1    0    0    0    0  0.00000000000E+00  0.00000000000E+00  0.59156214068E+00  0.59156214068E+00  0.00000000000E+00 0.  1.
         22   -1    0    0    0    0 -0.00000000000E+00 -0.00000000000E+00 -0.12153260712E+02  0.12153260712E+02  0.00000000000E+00 0. -1.
          4    1    1    2  501    0  0.11036775780E+01  0.14918041713E+01 -0.92517725396E+01  0.95211227807E+01  0.12700000000E+01 0.  1.
         -4    1    1    2    0  501 -0.11036775780E+01 -0.14918041713E+01 -0.23099260317E+01  0.32237000719E+01  0.12700000000E+01 0.  1.
<mgrwt>
<rscale>  0 0.22486627E+01</rscale>
<asrwt>0</asrwt>
<pdfrwt beam="1">0</pdfrwt>
<pdfrwt beam="2">0</pdfrwt>
<totfact> 0.22740011E+12</totfact>
</mgrwt>
</event>
<event>
 4    1  0.3324394E+006  0.2523855E+01  0.7546771E-02  0.2698106E+00
         22   -1    0    0    0    0  0.00000000000E+00  0.00000000000E+00  0.89579095367E+00  0.89579095367E+00  0.00000000000E+00 0. -1.
         22   -1    0    0    0    0 -0.00000000000E+00 -0.00000000000E+00 -0.86641435665E+01  0.86641435665E+01  0.00000000000E+00 0.  1.
          4    1    1    2  501    0  0.11643191853E+01  0.18442627725E+01 -0.59080687657E+01  0.64245716495E+01  0.12700000000E+01 0. -1.
         -4    1    1    2    0  501 -0.11643191853E+01 -0.18442627725E+01 -0.18602838472E+01  0.31353628707E+01  0.12700000000E+01 0.  1.
<mgrwt>
<rscale>  0 0.25238551E+01</rscale>
<asrwt>0</asrwt>
<pdfrwt beam="1">0</pdfrwt>
<pdfrwt beam="2">0</pdfrwt>
<totfact> 0.21392384E+12</totfact>
</mgrwt>
</event>
<event>
 4    1  0.3324394E+006  0.4752919E+01  0.7546771E-02  0.2153704E+00
         22   -1    0    0    0    0  0.00000000000E+00  0.00000000000E+00  0.22477530032E+02  0.22477530032E+02  0.00000000000E+00 0.  1.
         22   -1    0    0    0    0 -0.00000000000E+00 -0.00000000000E+00 -0.10888314259E+01  0.10888314259E+01  0.00000000000E+00 0. -1.
          4    1    1    2  501    0  0.43644245125E+01 -0.13889338405E+01  0.74250953031E+01  0.88160239791E+01  0.12700000000E+01 0. -1.
         -4    1    1    2    0  501 -0.43644245125E+01  0.13889338405E+01  0.13963603303E+02  0.14750337479E+02  0.12700000000E+01 0.  1.
<mgrwt>
<rscale>  0 0.47529189E+01</rscale>
<asrwt>0</asrwt>
<pdfrwt beam="1">0</pdfrwt>
<pdfrwt beam="2">0</pdfrwt>
<totfact> 0.53113217E+11</totfact>
</mgrwt>
</event>
<event>
 4    1  0.3324394E+006  0.2655409E+01  0.7546771E-02  0.2643742E+00
         22   -1    0    0    0    0  0.00000000000E+00  0.00000000000E+00  0.40995301527E+01  0.40995301527E+01  0.00000000000E+00 0.  1.
         22   -1    0    0    0    0 -0.00000000000E+00 -0.00000000000E+00 -0.19468068083E+01  0.19468068083E+01  0.00000000000E+00 0. -1.
          4    1    1    2  501    0 -0.41834631484E+00  0.22941846615E+01  0.44485010596E-01  0.26557815829E+01  0.12700000000E+01 0. -1.
         -4    1    1    2    0  501  0.41834631484E+00 -0.22941846615E+01  0.21082383337E+01  0.33905553781E+01  0.12700000000E+01 0.  1.
<mgrwt>
<rscale>  0 0.26554090E+01</rscale>
<asrwt>0</asrwt>
<pdfrwt beam="1">0</pdfrwt>
<pdfrwt beam="2">0</pdfrwt>
<totfact> 0.21387491E+12</totfact>
</mgrwt>
</event>
<event>
 4    1  0.3324394E+006  0.2738295E+01  0.7546771E-02  0.2611966E+00
         22   -1    0    0    0    0  0.00000000000E+00  0.00000000000E+00  0.76723362123E+00  0.76723362123E+00  0.00000000000E+00 0.  1.
         22   -1    0    0    0    0 -0.00000000000E+00 -0.00000000000E+00 -0.12575144932E+02  0.12575144932E+02  0.00000000000E+00 0. -1.
          4    1    1    2  501    0 -0.18133691341E+01 -0.16115363307E+01 -0.90530356926E+01  0.94581029923E+01  0.12700000000E+01 0. -1.
         -4    1    1    2    0  501  0.18133691341E+01  0.16115363307E+01 -0.27548756183E+01  0.38842755610E+01  0.12700000000E+01 0.  1.
<mgrwt>
<rscale>  0 0.27382945E+01</rscale>
<asrwt>0</asrwt>
<pdfrwt beam="1">0</pdfrwt>
<pdfrwt beam="2">0</pdfrwt>
<totfact> 0.16240892E+12</totfact>
</mgrwt>
</event>
<event>
 4    1  0.3324394E+006  0.2090557E+01  0.7546771E-02  0.2922171E+00
         22   -1    0    0    0    0  0.00000000000E+00  0.00000000000E+00  0.16864358035E+00  0.16864358035E+00  0.00000000000E+00 0. -1.
         22   -1    0    0    0    0 -0.00000000000E+00 -0.00000000000E+00 -0.34210737545E+02  0.34210737545E+02  0.00000000000E+00 0.  1.
          4    1    1    2  501    0 -0.15328707687E+01  0.63861976859E+00 -0.25485711397E+02  0.25571310358E+02  0.12700000000E+01 0. -1.
         -4    1    1    2    0  501  0.15328707687E+01 -0.63861976859E+00 -0.85563825670E+01  0.88080707670E+01  0.12700000000E+01 0.  1.
<mgrwt>
<rscale>  0 0.20905569E+01</rscale>
<asrwt>0</asrwt>
<pdfrwt beam="1">0</pdfrwt>
<pdfrwt beam="2">0</pdfrwt>
<totfact> 0.25515128E+12</totfact>
</mgrwt>
</event>
<event>
 4    1  0.3324394E+006  0.2483548E+01  0.7546771E-02  0.2715828E+00
         22   -1    0    0    0    0  0.00000000000E+00  0.00000000000E+00  0.11071153188E+01  0.11071153188E+01  0.00000000000E+00 0.  1.
         22   -1    0    0    0    0 -0.00000000000E+00 -0.00000000000E+00 -0.57985515421E+01  0.57985515421E+01  0.00000000000E+00 0. -1.
          4    1    1    2  501    0 -0.58862762773E+00 -0.20514940484E+01 -0.30293497494E+01  0.39172656559E+01  0.12700000000E+01 0. -1.
         -4    1    1    2    0  501  0.58862762773E+00  0.20514940484E+01 -0.16620864739E+01  0.29884012049E+01  0.12700000000E+01 0. -1.
<mgrwt>
<rscale>  0 0.24835479E+01</rscale>
<asrwt>0</asrwt>
<pdfrwt beam="1">0</pdfrwt>
<pdfrwt beam="2">0</pdfrwt>
<totfact> 0.27160451E+12</totfact>
</mgrwt>
</event>
<event>
 4    1  0.3324394E+006  0.5241001E+01  0.7546771E-02  0.2095290E+00
         22   -1    0    0    0    0  0.00000000000E+00  0.00000000000E+00  0.91013815785E+01  0.91013815785E+01  0.00000000000E+00 0.  1.
         22   -1    0    0    0    0 -0.00000000000E+00 -0.00000000000E+00 -0.50137760593E+01  0.50137760593E+01  0.00000000000E+00 0. -1.
          4    1    1    2  501    0 -0.23532052595E+01  0.45075067678E+01 -0.24089410547E+01  0.57681096782E+01  0.12700000000E+01 0. -1.
         -4    1    1    2    0  501  0.23532052595E+01 -0.45075067678E+01  0.64965465738E+01  0.83470479596E+01  0.12700000000E+01 0.  1.
<mgrwt>
<rscale>  0 0.52410011E+01</rscale>
<asrwt>0</asrwt>
<pdfrwt beam="1">0</pdfrwt>
<pdfrwt beam="2">0</pdfrwt>
<totfact> 0.27348344E+11</totfact>
</mgrwt>
</event>
<event>
 4    1  0.3324394E+006  0.2990437E+01  0.7546771E-02  0.2525211E+00
         22   -1    0    0    0    0  0.00000000000E+00  0.00000000000E+00  0.17639777675E+02  0.17639777675E+02  0.00000000000E+00 0. -1.
         22   -1    0    0    0    0 -0.00000000000E+00 -0.00000000000E+00 -0.51311202043E+00  0.51311202043E+00  0.00000000000E+00 0. -1.
          4    1    1    2  501    0 -0.66851907279E+00 -0.26235270791E+01  0.95569468220E+01  0.10013887589E+02  0.12700000000E+01 0. -1.
         -4    1    1    2    0  501  0.66851907279E+00  0.26235270791E+01  0.75697188329E+01  0.81390021068E+01  0.12700000000E+01 0. -1.
<mgrwt>
<rscale>  0 0.29904368E+01</rscale>
<asrwt>0</asrwt>
<pdfrwt beam="1">0</pdfrwt>
<pdfrwt beam="2">0</pdfrwt>
<totfact> 0.16895093E+12</totfact>
</mgrwt>
</event>
<event>
 4    1  0.3324394E+006  0.2262033E+01  0.7546771E-02  0.2823748E+00
         22   -1    0    0    0    0  0.00000000000E+00  0.00000000000E+00  0.57715623819E+01  0.57715623819E+01  0.00000000000E+00 0. -1.
         22   -1    0    0    0    0 -0.00000000000E+00 -0.00000000000E+00 -0.21436187241E+01  0.21436187241E+01  0.00000000000E+00 0.  1.
          4    1    1    2  501    0 -0.14644981724E+01 -0.11658216376E+01 -0.12166804516E+01  0.25684832701E+01  0.12700000000E+01 0.  1.
         -4    1    1    2    0  501  0.14644981724E+01  0.11658216376E+01  0.48446241093E+01  0.53466978359E+01  0.12700000000E+01 0. -1.
<mgrwt>
<rscale>  0 0.22620334E+01</rscale>
<asrwt>0</asrwt>
<pdfrwt beam="1">0</pdfrwt>
<pdfrwt beam="2">0</pdfrwt>
<totfact> 0.12762781E+12</totfact>
</mgrwt>
</event>
<event>
 4    1  0.3324394E+006  0.2257548E+01  0.7546771E-02  0.2826140E+00
         22   -1    0    0    0    0  0.00000000000E+00  0.00000000000E+00  0.23061834805E+02  0.23061834805E+02  0.00000000000E+00 0. -1.
         22   -1    0    0    0    0 -0.00000000000E+00 -0.00000000000E+00 -0.26139789998E+00  0.26139789998E+00  0.00000000000E+00 0.  1.
          4    1    1    2  501    0 -0.17666931405E+01 -0.60201161116E+00  0.68154184863E+01  0.71795857663E+01  0.12700000000E+01 0.  1.
         -4    1    1    2    0  501  0.17666931405E+01  0.60201161116E+00  0.15985018418E+02  0.16143646938E+02  0.12700000000E+01 0. -1.
<mgrwt>
<rscale>  0 0.22575479E+01</rscale>
<asrwt>0</asrwt>
<pdfrwt beam="1">0</pdfrwt>
<pdfrwt beam="2">0</pdfrwt>
<totfact> 0.25813097E+12</totfact>
</mgrwt>
</event>
<event>
 4    1  0.3324394E+006  0.2110099E+01  0.7546771E-02  0.2910177E+00
         22   -1    0    0    0    0  0.00000000000E+00  0.00000000000E+00  0.48710682440E+00  0.48710682440E+00  0.00000000000E+00 0. -1.
         22   -1    0    0    0    0 -0.00000000000E+00 -0.00000000000E+00 -0.18939355967E+02  0.18939355967E+02  0.00000000000E+00 0. -1.
          4    1    1    2  501    0 -0.82777634456E-01 -0.16830818486E+01 -0.16212686429E+02  0.16349425614E+02  0.12700000000E+01 0. -1.
         -4    1    1    2    0  501  0.82777634456E-01  0.16830818486E+01 -0.22395627135E+01  0.30770371779E+01  0.12700000000E+01 0. -1.
<mgrwt>
<rscale>  0 0.21100987E+01</rscale>
<asrwt>0</asrwt>
<pdfrwt beam="1">0</pdfrwt>
<pdfrwt beam="2">0</pdfrwt>
<totfact> 0.16402022E+12</totfact>
</mgrwt>
</event>
<event>
 4    1  0.3324394E+006  0.2237240E+01  0.7546771E-02  0.2837084E+00
         22   -1    0    0    0    0  0.00000000000E+00  0.00000000000E+00  0.24211635837E+01  0.24211635837E+01  0.00000000000E+00 0.  1.
         22   -1    0    0    0    0 -0.00000000000E+00 -0.00000000000E+00 -0.32478384405E+01  0.32478384405E+01  0.00000000000E+00 0. -1.
          4    1    1    2  501    0 -0.16726045597E+01  0.77119229662E+00 -0.21222568837E+01  0.30837019720E+01  0.12700000000E+01 0. -1.
         -4    1    1    2    0  501  0.16726045597E+01 -0.77119229662E+00  0.12955820270E+01  0.25853000522E+01  0.12700000000E+01 0.  1.
<mgrwt>
<rscale>  0 0.22372402E+01</rscale>
<asrwt>0</asrwt>
<pdfrwt beam="1">0</pdfrwt>
<pdfrwt beam="2">0</pdfrwt>
<totfact> 0.21830572E+12</totfact>
</mgrwt>
</event>
<event>
 4    1  0.3324394E+006  0.3045656E+01  0.7546771E-02  0.2507946E+00
         22   -1    0    0    0    0  0.00000000000E+00  0.00000000000E+00  0.37425370781E+01  0.37425370781E+01  0.00000000000E+00 0. -1.
         22   -1    0    0    0    0 -0.00000000000E+00 -0.00000000000E+00 -0.11658489286E+02  0.11658489286E+02  0.00000000000E+00 0.  1.
          4    1    1    2  501    0 -0.27377266181E+01  0.40984866846E+00 -0.10791090658E+02  0.11212656267E+02  0.12700000000E+01 0.  1.
         -4    1    1    2    0  501  0.27377266181E+01 -0.40984866846E+00  0.28751384500E+01  0.41883700975E+01  0.12700000000E+01 0. -1.
<mgrwt>
<rscale>  0 0.30456564E+01</rscale>
<asrwt>0</asrwt>
<pdfrwt beam="1">0</pdfrwt>
<pdfrwt beam="2">0</pdfrwt>
<totfact> 0.28598069E+11</totfact>
</mgrwt>
</event>
<event>
 4    1  0.3324394E+006  0.2413621E+01  0.7546771E-02  0.2747882E+00
         22   -1    0    0    0    0  0.00000000000E+00  0.00000000000E+00  0.18396593046E+01  0.18396593046E+01  0.00000000000E+00 0. -1.
         22   -1    0    0    0    0 -0.00000000000E+00 -0.00000000000E+00 -0.59886047486E+01  0.59886047486E+01  0.00000000000E+00 0.  1.
          4    1    1    2  501    0 -0.18357585370E+01 -0.91796319302E+00 -0.47613467450E+01  0.53381634160E+01  0.12700000000E+01 0.  1.
         -4    1    1    2    0  501  0.18357585370E+01  0.91796319302E+00  0.61240130099E+00  0.24901006372E+01  0.12700000000E+01 0. -1.
<mgrwt>
<rscale>  0 0.24136209E+01</rscale>
<asrwt>0</asrwt>
<pdfrwt beam="1">0</pdfrwt>
<pdfrwt beam="2">0</pdfrwt>
<totfact> 0.14579308E+12</totfact>
</mgrwt>
</event>
<event>
 4    1  0.3324394E+006  0.2368418E+01  0.7546771E-02  0.2769545E+00
         22   -1    0    0    0    0  0.00000000000E+00  0.00000000000E+00  0.16022620503E+02  0.16022620503E+02  0.00000000000E+00 0. -1.
         22   -1    0    0    0    0 -0.00000000000E+00 -0.00000000000E+00 -0.93521576241E+00  0.93521576241E+00  0.00000000000E+00 0.  1.
          4    1    1    2  501    0  0.30029381990E+00 -0.19764432091E+01  0.83701438005E+00  0.25119707820E+01  0.12700000000E+01 0.  1.
         -4    1    1    2    0  501 -0.30029381990E+00  0.19764432091E+01  0.14250390360E+02  0.14445865483E+02  0.12700000000E+01 0. -1.
<mgrwt>
<rscale>  0 0.23684181E+01</rscale>
<asrwt>0</asrwt>
<pdfrwt beam="1">0</pdfrwt>
<pdfrwt beam="2">0</pdfrwt>
<totfact> 0.96272115E+11</totfact>
</mgrwt>
</event>
<event>
 4    1  0.3324394E+006  0.2723595E+01  0.7546771E-02  0.2617472E+00
         22   -1    0    0    0    0  0.00000000000E+00  0.00000000000E+00  0.88560211849E-01  0.88560211849E-01  0.00000000000E+00 0.  1.
         22   -1    0    0    0    0 -0.00000000000E+00 -0.00000000000E+00 -0.13295123282E+03  0.13295123282E+03  0.00000000000E+00 0.  1.
          4    1    1    2  501    0  0.13202629474E+01 -0.20154343363E+01 -0.10689273913E+03  0.10692743169E+03  0.12700000000E+01 0.  1.
         -4    1    1    2    0  501 -0.13202629474E+01  0.20154343363E+01 -0.25969933477E+02  0.26112361337E+02  0.12700000000E+01 0.  1.
<mgrwt>
<rscale>  0 0.27235950E+01</rscale>
<asrwt>0</asrwt>
<pdfrwt beam="1">0</pdfrwt>
<pdfrwt beam="2">0</pdfrwt>
<totfact> 0.82445138E+11</totfact>
</mgrwt>
</event>
<event>
 4    1  0.3324394E+006  0.2920434E+01  0.7546771E-02  0.2547937E+00
         22   -1    0    0    0    0  0.00000000000E+00  0.00000000000E+00  0.66476126635E+01  0.66476126635E+01  0.00000000000E+00 0.  1.
         22   -1    0    0    0    0 -0.00000000000E+00 -0.00000000000E+00 -0.14881320486E+01  0.14881320486E+01  0.00000000000E+00 0. -1.
          4    1    1    2  501    0 -0.18665290863E+00  0.26232036671E+01  0.10694674412E+01  0.31100960427E+01  0.12700000000E+01 0.  1.
         -4    1    1    2    0  501  0.18665290863E+00 -0.26232036671E+01  0.40900131737E+01  0.50256486694E+01  0.12700000000E+01 0. -1.
<mgrwt>
<rscale>  0 0.29204343E+01</rscale>
<asrwt>0</asrwt>
<pdfrwt beam="1">0</pdfrwt>
<pdfrwt beam="2">0</pdfrwt>
<totfact> 0.16438809E+12</totfact>
</mgrwt>
</event>
<event>
 4    1  0.3324394E+006  0.2614593E+01  0.7546771E-02  0.2660068E+00
         22   -1    0    0    0    0  0.00000000000E+00  0.00000000000E+00  0.69912964777E+01  0.69912964777E+01  0.00000000000E+00 0.  1.
         22   -1    0    0    0    0 -0.00000000000E+00 -0.00000000000E+00 -0.16951535928E+01  0.16951535928E+01  0.00000000000E+00 0.  1.
          4    1    1    2  501    0  0.21583308071E+01  0.75153524586E+00 -0.17729070966E+00  0.26205970874E+01  0.12700000000E+01 0.  1.
         -4    1    1    2    0  501 -0.21583308071E+01 -0.75153524586E+00  0.54734335946E+01  0.60658529831E+01  0.12700000000E+01 0.  1.
<mgrwt>
<rscale>  0 0.26145931E+01</rscale>
<asrwt>0</asrwt>
<pdfrwt beam="1">0</pdfrwt>
<pdfrwt beam="2">0</pdfrwt>
<totfact> 0.13321060E+12</totfact>
</mgrwt>
</event>
<event>
 4    1  0.3324394E+006  0.2015198E+01  0.7546771E-02  0.2970542E+00
         22   -1    0    0    0    0  0.00000000000E+00  0.00000000000E+00  0.61850745891E+01  0.61850745891E+01  0.00000000000E+00 0. -1.
         22   -1    0    0    0    0 -0.00000000000E+00 -0.00000000000E+00 -0.68925999236E+00  0.68925999236E+00  0.00000000000E+00 0.  1.
          4    1    1    2  501    0  0.65756854690E+00 -0.14197624573E+01  0.19995264724E+01  0.28388603246E+01  0.12700000000E+01 0.  1.
         -4    1    1    2    0  501 -0.65756854690E+00  0.14197624573E+01  0.34962881244E+01  0.40354742568E+01  0.12700000000E+01 0. -1.
<mgrwt>
<rscale>  0 0.20151977E+01</rscale>
<asrwt>0</asrwt>
<pdfrwt beam="1">0</pdfrwt>
<pdfrwt beam="2">0</pdfrwt>
<totfact> 0.43154506E+12</totfact>
</mgrwt>
</event>
<event>
 4    1  0.3324394E+006  0.5357976E+01  0.7546771E-02  0.2082552E+00
         22   -1    0    0    0    0  0.00000000000E+00  0.00000000000E+00  0.10115838123E+01  0.10115838123E+01  0.00000000000E+00 0. -1.
         22   -1    0    0    0    0 -0.00000000000E+00 -0.00000000000E+00 -0.29564191170E+02  0.29564191170E+02  0.00000000000E+00 0.  1.
          4    1    1    2  501    0 -0.51928635377E+01  0.35940923225E+00 -0.17337054264E+02  0.18146111354E+02  0.12700000000E+01 0.  1.
         -4    1    1    2    0  501  0.51928635377E+01 -0.35940923225E+00 -0.11215553094E+02  0.12429663629E+02  0.12700000000E+01 0. -1.
<mgrwt>
<rscale>  0 0.53579760E+01</rscale>
<asrwt>0</asrwt>
<pdfrwt beam="1">0</pdfrwt>
<pdfrwt beam="2">0</pdfrwt>
<totfact> 0.40864084E+11</totfact>
</mgrwt>
</event>
<event>
 4    1  0.3324394E+006  0.2059846E+01  0.7546771E-02  0.2941467E+00
         22   -1    0    0    0    0  0.00000000000E+00  0.00000000000E+00  0.23972676152E+01  0.23972676152E+01  0.00000000000E+00 0. -1.
         22   -1    0    0    0    0 -0.00000000000E+00 -0.00000000000E+00 -0.31189655401E+01  0.31189655401E+01  0.00000000000E+00 0.  1.
          4    1    1    2  501    0 -0.13477156199E+01  0.90206934257E+00 -0.21747809470E+01  0.29954363052E+01  0.12700000000E+01 0.  1.
         -4    1    1    2    0  501  0.13477156199E+01 -0.90206934257E+00  0.14530830221E+01  0.25207968502E+01  0.12700000000E+01 0. -1.
<mgrwt>
<rscale>  0 0.20598462E+01</rscale>
<asrwt>0</asrwt>
<pdfrwt beam="1">0</pdfrwt>
<pdfrwt beam="2">0</pdfrwt>
<totfact> 0.23153882E+12</totfact>
</mgrwt>
</event>
<event>
 4    1  0.3324394E+006  0.2128604E+01  0.7546771E-02  0.2899015E+00
         22   -1    0    0    0    0  0.00000000000E+00  0.00000000000E+00  0.35791347313E+01  0.35791347313E+01  0.00000000000E+00 0. -1.
         22   -1    0    0    0    0 -0.00000000000E+00 -0.00000000000E+00 -0.22422137549E+01  0.22422137549E+01  0.00000000000E+00 0. -1.
          4    1    1    2  501    0 -0.21780656095E-01 -0.17080925555E+01 -0.12521612995E+01  0.24695875152E+01  0.12700000000E+01 0. -1.
         -4    1    1    2    0  501  0.21780656095E-01  0.17080925555E+01  0.25890822759E+01  0.33517609710E+01  0.12700000000E+01 0. -1.
<mgrwt>
<rscale>  0 0.21286039E+01</rscale>
<asrwt>0</asrwt>
<pdfrwt beam="1">0</pdfrwt>
<pdfrwt beam="2">0</pdfrwt>
<totfact> 0.21298415E+12</totfact>
</mgrwt>
</event>
<event>
 4    1  0.3324394E+006  0.2349271E+01  0.7546771E-02  0.2778957E+00
         22   -1    0    0    0    0  0.00000000000E+00  0.00000000000E+00  0.12914740085E+01  0.12914740085E+01  0.00000000000E+00 0.  1.
         22   -1    0    0    0    0 -0.00000000000E+00 -0.00000000000E+00 -0.43031907219E+01  0.43031907219E+01  0.00000000000E+00 0.  1.
          4    1    1    2  501    0 -0.14812319416E+01  0.13084830697E+01 -0.17383327828E+01  0.29224778651E+01  0.12700000000E+01 0.  1.
         -4    1    1    2    0  501  0.14812319416E+01 -0.13084830697E+01 -0.12733839306E+01  0.26721868653E+01  0.12700000000E+01 0.  1.
<mgrwt>
<rscale>  0 0.23492714E+01</rscale>
<asrwt>0</asrwt>
<pdfrwt beam="1">0</pdfrwt>
<pdfrwt beam="2">0</pdfrwt>
<totfact> 0.32408496E+12</totfact>
</mgrwt>
</event>
<event>
 4    1  0.3324394E+006  0.2060520E+01  0.7546771E-02  0.2941037E+00
         22   -1    0    0    0    0  0.00000000000E+00  0.00000000000E+00  0.14961714763E+01  0.14961714763E+01  0.00000000000E+00 0. -1.
         22   -1    0    0    0    0 -0.00000000000E+00 -0.00000000000E+00 -0.55243061413E+01  0.55243061413E+01  0.00000000000E+00 0. -1.
          4    1    1    2  501    0  0.42485267423E+00  0.15659960162E+01 -0.44619843345E+01  0.49147784811E+01  0.12700000000E+01 0. -1.
         -4    1    1    2    0  501 -0.42485267423E+00 -0.15659960162E+01  0.43384966945E+00  0.21056991365E+01  0.12700000000E+01 0. -1.
<mgrwt>
<rscale>  0 0.20605202E+01</rscale>
<asrwt>0</asrwt>
<pdfrwt beam="1">0</pdfrwt>
<pdfrwt beam="2">0</pdfrwt>
<totfact> 0.20363874E+12</totfact>
</mgrwt>
</event>
<event>
 4    1  0.3324394E+006  0.2031444E+01  0.7546771E-02  0.2959818E+00
         22   -1    0    0    0    0  0.00000000000E+00  0.00000000000E+00  0.13413648248E+01  0.13413648248E+01  0.00000000000E+00 0. -1.
         22   -1    0    0    0    0 -0.00000000000E+00 -0.00000000000E+00 -0.51197768002E+01  0.51197768002E+01  0.00000000000E+00 0.  1.
          4    1    1    2  501    0 -0.15789846953E+01  0.14378233243E+00 -0.39300641632E+01  0.44240445696E+01  0.12700000000E+01 0.  1.
         -4    1    1    2    0  501  0.15789846953E+01 -0.14378233243E+00  0.15165218782E+00  0.20370970554E+01  0.12700000000E+01 0. -1.
<mgrwt>
<rscale>  0 0.20314443E+01</rscale>
<asrwt>0</asrwt>
<pdfrwt beam="1">0</pdfrwt>
<pdfrwt beam="2">0</pdfrwt>
<totfact> 0.25266715E+12</totfact>
</mgrwt>
</event>
<event>
 4    1  0.3324394E+006  0.2822536E+01  0.7546771E-02  0.2581421E+00
         22   -1    0    0    0    0  0.00000000000E+00  0.00000000000E+00  0.16297166547E+01  0.16297166547E+01  0.00000000000E+00 0.  1.
         22   -1    0    0    0    0 -0.00000000000E+00 -0.00000000000E+00 -0.59267443225E+01  0.59267443225E+01  0.00000000000E+00 0. -1.
          4    1    1    2  501    0  0.20321816949E+01  0.14913231485E+01 -0.37299476184E+01  0.46775224650E+01  0.12700000000E+01 0. -1.
         -4    1    1    2    0  501 -0.20321816949E+01 -0.14913231485E+01 -0.56708004942E+00  0.28789385122E+01  0.12700000000E+01 0.  1.
<mgrwt>
<rscale>  0 0.28225356E+01</rscale>
<asrwt>0</asrwt>
<pdfrwt beam="1">0</pdfrwt>
<pdfrwt beam="2">0</pdfrwt>
<totfact> 0.16976263E+12</totfact>
</mgrwt>
</event>
<event>
 4    1  0.3324394E+006  0.2797465E+01  0.7546771E-02  0.2590336E+00
         22   -1    0    0    0    0  0.00000000000E+00  0.00000000000E+00  0.75363447477E+00  0.75363447477E+00  0.00000000000E+00 0.  1.
         22   -1    0    0    0    0 -0.00000000000E+00 -0.00000000000E+00 -0.11699722280E+02  0.11699722280E+02  0.00000000000E+00 0. -1.
          4    1    1    2  501    0 -0.24300965531E+01 -0.55456224398E+00 -0.33850181712E+01  0.43913729697E+01  0.12700000000E+01 0.  1.
         -4    1    1    2    0  501  0.24300965531E+01  0.55456224398E+00 -0.75610696342E+01  0.80619837853E+01  0.12700000000E+01 0. -1.
<mgrwt>
<rscale>  0 0.27974647E+01</rscale>
<asrwt>0</asrwt>
<pdfrwt beam="1">0</pdfrwt>
<pdfrwt beam="2">0</pdfrwt>
<totfact> 0.18099476E+12</totfact>
</mgrwt>
</event>
<event>
 4    1  0.3324394E+006  0.2813069E+01  0.7546771E-02  0.2584770E+00
         22   -1    0    0    0    0  0.00000000000E+00  0.00000000000E+00  0.56328561452E+02  0.56328561452E+02  0.00000000000E+00 0.  1.
         22   -1    0    0    0    0 -0.00000000000E+00 -0.00000000000E+00 -0.35450141913E+00  0.35450141913E+00  0.00000000000E+00 0. -1.
          4    1    1    2  501    0  0.24824796767E+01  0.37115150725E+00  0.59660250035E+01  0.65959694609E+01  0.12700000000E+01 0. -1.
         -4    1    1    2    0  501 -0.24824796767E+01 -0.37115150725E+00  0.50008035029E+02  0.50087093410E+02  0.12700000000E+01 0.  1.
<mgrwt>
<rscale>  0 0.28130693E+01</rscale>
<asrwt>0</asrwt>
<pdfrwt beam="1">0</pdfrwt>
<pdfrwt beam="2">0</pdfrwt>
<totfact> 0.57940014E+11</totfact>
</mgrwt>
</event>
<event>
 4    1  0.3324394E+006  0.2143270E+01  0.7546771E-02  0.2890302E+00
         22   -1    0    0    0    0  0.00000000000E+00  0.00000000000E+00  0.53430351464E+01  0.53430351464E+01  0.00000000000E+00 0.  1.
         22   -1    0    0    0    0 -0.00000000000E+00 -0.00000000000E+00 -0.27712813392E+01  0.27712813392E+01  0.00000000000E+00 0.  1.
          4    1    1    2  501    0 -0.26045095456E+00  0.17067137629E+01 -0.20836877449E+01  0.29892074512E+01  0.12700000000E+01 0.  1.
         -4    1    1    2    0  501  0.26045095456E+00 -0.17067137629E+01  0.46554415522E+01  0.51251090344E+01  0.12700000000E+01 0.  1.
<mgrwt>
<rscale>  0 0.21432701E+01</rscale>
<asrwt>0</asrwt>
<pdfrwt beam="1">0</pdfrwt>
<pdfrwt beam="2">0</pdfrwt>
<totfact> 0.10376830E+12</totfact>
</mgrwt>
</event>
<event>
 4    1  0.3324394E+006  0.3205550E+01  0.7546771E-02  0.2460961E+00
         22   -1    0    0    0    0  0.00000000000E+00  0.00000000000E+00  0.12378622656E+02  0.12378622656E+02  0.00000000000E+00 0. -1.
         22   -1    0    0    0    0 -0.00000000000E+00 -0.00000000000E+00 -0.83055151584E+00  0.83055151584E+00  0.00000000000E+00 0.  1.
          4    1    1    2  501    0  0.16941418653E+01 -0.24067680476E+01  0.59272761947E+01  0.67385571291E+01  0.12700000000E+01 0. -1.
         -4    1    1    2    0  501 -0.16941418653E+01  0.24067680476E+01  0.56207949456E+01  0.64706170429E+01  0.12700000000E+01 0.  1.
<mgrwt>
<rscale>  0 0.32055497E+01</rscale>
<asrwt>0</asrwt>
<pdfrwt beam="1">0</pdfrwt>
<pdfrwt beam="2">0</pdfrwt>
<totfact> 0.15128375E+12</totfact>
</mgrwt>
</event>
<event>
 4    1  0.3324394E+006  0.2412724E+01  0.7546771E-02  0.2748304E+00
         22   -1    0    0    0    0  0.00000000000E+00  0.00000000000E+00  0.13824449121E+00  0.13824449121E+00  0.00000000000E+00 0.  1.
         22   -1    0    0    0    0 -0.00000000000E+00 -0.00000000000E+00 -0.42384260212E+02  0.42384260212E+02  0.00000000000E+00 0. -1.
          4    1    1    2  501    0 -0.86367290759E+00 -0.18607536125E+01 -0.19407306444E+02  0.19556706735E+02  0.12700000000E+01 0. -1.
         -4    1    1    2    0  501  0.86367290759E+00  0.18607536125E+01 -0.22838709277E+02  0.22965797969E+02  0.12700000000E+01 0.  1.
<mgrwt>
<rscale>  0 0.24127235E+01</rscale>
<asrwt>0</asrwt>
<pdfrwt beam="1">0</pdfrwt>
<pdfrwt beam="2">0</pdfrwt>
<totfact> 0.24124580E+12</totfact>
</mgrwt>
</event>
<event>
 4    1  0.3324394E+006  0.5237818E+01  0.7546771E-02  0.2095643E+00
         22   -1    0    0    0    0  0.00000000000E+00  0.00000000000E+00  0.46593531359E+01  0.46593531359E+01  0.00000000000E+00 0. -1.
         22   -1    0    0    0    0 -0.00000000000E+00 -0.00000000000E+00 -0.75122889393E+01  0.75122889393E+01  0.00000000000E+00 0.  1.
          4    1    1    2  501    0 -0.48062508767E+01  0.16497857848E+01 -0.42562383793E+01  0.67490966631E+01  0.12700000000E+01 0. -1.
         -4    1    1    2    0  501  0.48062508767E+01 -0.16497857848E+01  0.14033025759E+01  0.54225454120E+01  0.12700000000E+01 0.  1.
<mgrwt>
<rscale>  0 0.52378183E+01</rscale>
<asrwt>0</asrwt>
<pdfrwt beam="1">0</pdfrwt>
<pdfrwt beam="2">0</pdfrwt>
<totfact> 0.37568791E+11</totfact>
</mgrwt>
</event>
<event>
 4    1  0.3324394E+006  0.3041233E+01  0.7546771E-02  0.2509308E+00
         22   -1    0    0    0    0  0.00000000000E+00  0.00000000000E+00  0.41787871750E+00  0.41787871750E+00  0.00000000000E+00 0. -1.
         22   -1    0    0    0    0 -0.00000000000E+00 -0.00000000000E+00 -0.23026744001E+02  0.23026744001E+02  0.00000000000E+00 0. -1.
          4    1    1    2  501    0  0.22524866756E+01 -0.16007821481E+01 -0.13613268326E+02  0.13948841321E+02  0.12700000000E+01 0. -1.
         -4    1    1    2    0  501 -0.22524866756E+01  0.16007821481E+01 -0.89955969578E+01  0.94957813969E+01  0.12700000000E+01 0. -1.
<mgrwt>
<rscale>  0 0.30412333E+01</rscale>
<asrwt>0</asrwt>
<pdfrwt beam="1">0</pdfrwt>
<pdfrwt beam="2">0</pdfrwt>
<totfact> 0.15273714E+12</totfact>
</mgrwt>
</event>
<event>
 4    1  0.3324394E+006  0.4286731E+01  0.7546771E-02  0.2225621E+00
         22   -1    0    0    0    0  0.00000000000E+00  0.00000000000E+00  0.36780304681E+02  0.36780304681E+02  0.00000000000E+00 0. -1.
         22   -1    0    0    0    0 -0.00000000000E+00 -0.00000000000E+00 -0.50885572002E+00  0.50885572002E+00  0.00000000000E+00 0.  1.
          4    1    1    2  501    0 -0.40841127430E+01 -0.28842011531E+00  0.15623475201E+02  0.16200896285E+02  0.12700000000E+01 0. -1.
         -4    1    1    2    0  501  0.40841127430E+01  0.28842011531E+00  0.20647973760E+02  0.21088264117E+02  0.12700000000E+01 0.  1.
<mgrwt>
<rscale>  0 0.42867310E+01</rscale>
<asrwt>0</asrwt>
<pdfrwt beam="1">0</pdfrwt>
<pdfrwt beam="2">0</pdfrwt>
<totfact> 0.67399479E+11</totfact>
</mgrwt>
</event>
<event>
 4    1  0.3324394E+006  0.2877008E+01  0.7546771E-02  0.2562536E+00
         22   -1    0    0    0    0  0.00000000000E+00  0.00000000000E+00  0.19502927492E+02  0.19502927492E+02  0.00000000000E+00 0.  1.
         22   -1    0    0    0    0 -0.00000000000E+00 -0.00000000000E+00 -0.49818704131E+00  0.49818704131E+00  0.00000000000E+00 0. -1.
          4    1    1    2  501    0 -0.61831174321E+00  0.25063848167E+01  0.56538112850E+01  0.63437178616E+01  0.12700000000E+01 0. -1.
         -4    1    1    2    0  501  0.61831174321E+00 -0.25063848167E+01  0.13350929166E+02  0.13657396672E+02  0.12700000000E+01 0.  1.
<mgrwt>
<rscale>  0 0.28770079E+01</rscale>
<asrwt>0</asrwt>
<pdfrwt beam="1">0</pdfrwt>
<pdfrwt beam="2">0</pdfrwt>
<totfact> 0.15419057E+12</totfact>
</mgrwt>
</event>
<event>
 4    1  0.3324394E+006  0.4807257E+01  0.7546771E-02  0.2146738E+00
         22   -1    0    0    0    0  0.00000000000E+00  0.00000000000E+00  0.25325881923E+01  0.25325881923E+01  0.00000000000E+00 0.  1.
         22   -1    0    0    0    0 -0.00000000000E+00 -0.00000000000E+00 -0.13363839286E+02  0.13363839286E+02  0.00000000000E+00 0. -1.
          4    1    1    2  501    0  0.44348893543E+01  0.13522497028E+01 -0.98920402319E+01  0.10998280902E+02  0.12700000000E+01 0. -1.
         -4    1    1    2    0  501 -0.44348893543E+01 -0.13522497028E+01 -0.93921086203E+00  0.48981465767E+01  0.12700000000E+01 0.  1.
<mgrwt>
<rscale>  0 0.48072573E+01</rscale>
<asrwt>0</asrwt>
<pdfrwt beam="1">0</pdfrwt>
<pdfrwt beam="2">0</pdfrwt>
<totfact> 0.38211600E+11</totfact>
</mgrwt>
</event>
<event>
 4    1  0.3324394E+006  0.3994257E+01  0.7546771E-02  0.2278394E+00
         22   -1    0    0    0    0  0.00000000000E+00  0.00000000000E+00  0.18036373427E+01  0.18036373427E+01  0.00000000000E+00 0.  1.
         22   -1    0    0    0    0 -0.00000000000E+00 -0.00000000000E+00 -0.10186527147E+02  0.10186527147E+02  0.00000000000E+00 0. -1.
          4    1    1    2  501    0  0.36169970666E+01  0.11218374718E+01 -0.63666473918E+01  0.75158689520E+01  0.12700000000E+01 0. -1.
         -4    1    1    2    0  501 -0.36169970666E+01 -0.11218374718E+01 -0.20162424124E+01  0.44742955377E+01  0.12700000000E+01 0.  1.
<mgrwt>
<rscale>  0 0.39942568E+01</rscale>
<asrwt>0</asrwt>
<pdfrwt beam="1">0</pdfrwt>
<pdfrwt beam="2">0</pdfrwt>
<totfact> 0.78828927E+11</totfact>
</mgrwt>
</event>
<event>
 4    1  0.3324394E+006  0.2293387E+01  0.7546771E-02  0.2807278E+00
         22   -1    0    0    0    0  0.00000000000E+00  0.00000000000E+00  0.16678433446E+01  0.16678433446E+01  0.00000000000E+00 0. -1.
         22   -1    0    0    0    0 -0.00000000000E+00 -0.00000000000E+00 -0.33458614692E+01  0.33458614692E+01  0.00000000000E+00 0. -1.
          4    1    1    2  501    0 -0.22617844137E-01  0.19095054194E+01 -0.23800047923E+00  0.23057030906E+01  0.12700000000E+01 0. -1.
         -4    1    1    2    0  501  0.22617844137E-01 -0.19095054194E+01 -0.14400176454E+01  0.27080017232E+01  0.12700000000E+01 0. -1.
<mgrwt>
<rscale>  0 0.22933867E+01</rscale>
<asrwt>0</asrwt>
<pdfrwt beam="1">0</pdfrwt>
<pdfrwt beam="2">0</pdfrwt>
<totfact> 0.32458679E+12</totfact>
</mgrwt>
</event>
<event>
 4    1  0.3324394E+006  0.2071281E+01  0.7546771E-02  0.2934217E+00
         22   -1    0    0    0    0  0.00000000000E+00  0.00000000000E+00  0.18985184851E+00  0.18985184851E+00  0.00000000000E+00 0.  1.
         22   -1    0    0    0    0 -0.00000000000E+00 -0.00000000000E+00 -0.11194513297E+03  0.11194513297E+03  0.00000000000E+00 0.  1.
          4    1    1    2  501    0 -0.21940330818E+00 -0.16214705338E+01 -0.10596748699E+03  0.10598772808E+03  0.12700000000E+01 0.  1.
         -4    1    1    2    0  501  0.21940330818E+00  0.16214705338E+01 -0.57877941293E+01  0.61472567366E+01  0.12700000000E+01 0.  1.
<mgrwt>
<rscale>  0 0.20712809E+01</rscale>
<asrwt>0</asrwt>
<pdfrwt beam="1">0</pdfrwt>
<pdfrwt beam="2">0</pdfrwt>
<totfact> 0.45313544E+11</totfact>
</mgrwt>
</event>
<event>
 4    1  0.3324394E+006  0.2041145E+01  0.7546771E-02  0.2953494E+00
         22   -1    0    0    0    0  0.00000000000E+00  0.00000000000E+00  0.12603131369E+01  0.12603131369E+01  0.00000000000E+00 0. -1.
         22   -1    0    0    0    0 -0.00000000000E+00 -0.00000000000E+00 -0.51587374566E+01  0.51587374566E+01  0.00000000000E+00 0.  1.
          4    1    1    2  501    0 -0.58704319744E+00  0.14861873892E+01 -0.38727734354E+01  0.43777444825E+01  0.12700000000E+01 0.  1.
         -4    1    1    2    0  501  0.58704319744E+00 -0.14861873892E+01 -0.25650884221E-01  0.20413061111E+01  0.12700000000E+01 0.  1.
<mgrwt>
<rscale>  0 0.20411449E+01</rscale>
<asrwt>0</asrwt>
<pdfrwt beam="1">0</pdfrwt>
<pdfrwt beam="2">0</pdfrwt>
<totfact> 0.26897315E+12</totfact>
</mgrwt>
</event>
<event>
 4    1  0.3324394E+006  0.2197720E+01  0.7546771E-02  0.2858933E+00
         22   -1    0    0    0    0  0.00000000000E+00  0.00000000000E+00  0.26426452507E+01  0.26426452507E+01  0.00000000000E+00 0. -1.
         22   -1    0    0    0    0 -0.00000000000E+00 -0.00000000000E+00 -0.47325884145E+01  0.47325884145E+01  0.00000000000E+00 0.  1.
          4    1    1    2  501    0  0.14038592375E+01  0.11163564133E+01 -0.39340602719E+01  0.45063069828E+01  0.12700000000E+01 0.  1.
         -4    1    1    2    0  501 -0.14038592375E+01 -0.11163564133E+01  0.18441171081E+01  0.28689266823E+01  0.12700000000E+01 0. -1.
<mgrwt>
<rscale>  0 0.21977198E+01</rscale>
<asrwt>0</asrwt>
<pdfrwt beam="1">0</pdfrwt>
<pdfrwt beam="2">0</pdfrwt>
<totfact> 0.12662507E+12</totfact>
</mgrwt>
</event>
<event>
 4    1  0.3324394E+006  0.2500770E+01  0.7546771E-02  0.2708191E+00
         22   -1    0    0    0    0  0.00000000000E+00  0.00000000000E+00  0.15912334194E+01  0.15912334194E+01  0.00000000000E+00 0.  1.
         22   -1    0    0    0    0 -0.00000000000E+00 -0.00000000000E+00 -0.40305115680E+01  0.40305115680E+01  0.00000000000E+00 0. -1.
          4    1    1    2  501    0  0.14957255682E+01  0.15504048935E+01 -0.16631020325E+01  0.30032913078E+01  0.12700000000E+01 0. -1.
         -4    1    1    2    0  501 -0.14957255682E+01 -0.15504048935E+01 -0.77617611620E+00  0.26184536796E+01  0.12700000000E+01 0. -1.
<mgrwt>
<rscale>  0 0.25007699E+01</rscale>
<asrwt>0</asrwt>
<pdfrwt beam="1">0</pdfrwt>
<pdfrwt beam="2">0</pdfrwt>
<totfact> 0.27538844E+12</totfact>
</mgrwt>
</event>
<event>
 4    1  0.3324394E+006  0.2013065E+01  0.7546771E-02  0.2971962E+00
         22   -1    0    0    0    0  0.00000000000E+00  0.00000000000E+00  0.91895083266E+00  0.91895083266E+00  0.00000000000E+00 0. -1.
         22   -1    0    0    0    0 -0.00000000000E+00 -0.00000000000E+00 -0.44361320523E+01  0.44361320523E+01  0.00000000000E+00 0. -1.
          4    1    1    2  501    0 -0.95248186966E+00 -0.12378653717E+01 -0.15524848975E+01  0.25421726431E+01  0.12700000000E+01 0. -1.
         -4    1    1    2    0  501  0.95248186966E+00  0.12378653717E+01 -0.19646963222E+01  0.28129102419E+01  0.12700000000E+01 0. -1.
<mgrwt>
<rscale>  0 0.20130654E+01</rscale>
<asrwt>0</asrwt>
<pdfrwt beam="1">0</pdfrwt>
<pdfrwt beam="2">0</pdfrwt>
<totfact> 0.46139939E+12</totfact>
</mgrwt>
</event>
<event>
 4    1  0.3324394E+006  0.3079934E+01  0.7546771E-02  0.2497508E+00
         22   -1    0    0    0    0  0.00000000000E+00  0.00000000000E+00  0.11596627236E+02  0.11596627236E+02  0.00000000000E+00 0. -1.
         22   -1    0    0    0    0 -0.00000000000E+00 -0.00000000000E+00 -0.10179918201E+01  0.10179918201E+01  0.00000000000E+00 0.  1.
          4    1    1    2  501    0 -0.27643217988E+01  0.48126726293E+00  0.80849664306E+01  0.86517440652E+01  0.12700000000E+01 0.  1.
         -4    1    1    2    0  501  0.27643217988E+01 -0.48126726293E+00  0.24936689851E+01  0.39628749908E+01  0.12700000000E+01 0. -1.
<mgrwt>
<rscale>  0 0.30799340E+01</rscale>
<asrwt>0</asrwt>
<pdfrwt beam="1">0</pdfrwt>
<pdfrwt beam="2">0</pdfrwt>
<totfact> 0.12988806E+12</totfact>
</mgrwt>
</event>
<event>
 4    1  0.3324394E+006  0.3167106E+01  0.7546771E-02  0.2471872E+00
         22   -1    0    0    0    0  0.00000000000E+00  0.00000000000E+00  0.11416942779E+01  0.11416942779E+01  0.00000000000E+00 0.  1.
         22   -1    0    0    0    0 -0.00000000000E+00 -0.00000000000E+00 -0.12001965946E+02  0.12001965946E+02  0.00000000000E+00 0. -1.
          4    1    1    2  501    0 -0.19525300146E+00 -0.28947430590E+01 -0.88321602656E+01  0.93828362487E+01  0.12700000000E+01 0. -1.
         -4    1    1    2    0  501  0.19525300146E+00  0.28947430590E+01 -0.20281114028E+01  0.37608239754E+01  0.12700000000E+01 0.  1.
<mgrwt>
<rscale>  0 0.31671061E+01</rscale>
<asrwt>0</asrwt>
<pdfrwt beam="1">0</pdfrwt>
<pdfrwt beam="2">0</pdfrwt>
<totfact> 0.10925379E+12</totfact>
</mgrwt>
</event>
<event>
 4    1  0.3324394E+006  0.2191512E+01  0.7546771E-02  0.2862434E+00
         22   -1    0    0    0    0  0.00000000000E+00  0.00000000000E+00  0.38211357422E+02  0.38211357422E+02  0.00000000000E+00 0.  1.
         22   -1    0    0    0    0 -0.00000000000E+00 -0.00000000000E+00 -0.21541588084E+00  0.21541588084E+00  0.00000000000E+00 0. -1.
          4    1    1    2  501    0 -0.14840827239E+01  0.99364138737E+00  0.65977967903E+01  0.69522404464E+01  0.12700000000E+01 0. -1.
         -4    1    1    2    0  501  0.14840827239E+01 -0.99364138737E+00  0.31398144751E+02  0.31474532856E+02  0.12700000000E+01 0.  1.
<mgrwt>
<rscale>  0 0.21915120E+01</rscale>
<asrwt>0</asrwt>
<pdfrwt beam="1">0</pdfrwt>
<pdfrwt beam="2">0</pdfrwt>
<totfact> 0.16840897E+12</totfact>
</mgrwt>
</event>
<event>
 4    1  0.3324394E+006  0.2036312E+01  0.7546771E-02  0.2956637E+00
         22   -1    0    0    0    0  0.00000000000E+00  0.00000000000E+00  0.29809037819E+02  0.29809037819E+02  0.00000000000E+00 0. -1.
         22   -1    0    0    0    0 -0.00000000000E+00 -0.00000000000E+00 -0.23941459375E+00  0.23941459375E+00  0.00000000000E+00 0. -1.
          4    1    1    2  501    0  0.10424892943E+01 -0.12028641800E+01  0.50598141855E+01  0.54541989106E+01  0.12700000000E+01 0. -1.
         -4    1    1    2    0  501 -0.10424892943E+01  0.12028641800E+01  0.24509809040E+02  0.24594253503E+02  0.12700000000E+01 0. -1.
<mgrwt>
<rscale>  0 0.20363119E+01</rscale>
<asrwt>0</asrwt>
<pdfrwt beam="1">0</pdfrwt>
<pdfrwt beam="2">0</pdfrwt>
<totfact> 0.20583873E+12</totfact>
</mgrwt>
</event>
<event>
 4    1  0.3324394E+006  0.4615303E+01  0.7546771E-02  0.2173139E+00
         22   -1    0    0    0    0  0.00000000000E+00  0.00000000000E+00  0.11891204840E+03  0.11891204840E+03  0.00000000000E+00 0. -1.
         22   -1    0    0    0    0 -0.00000000000E+00 -0.00000000000E+00 -0.19086620427E+00  0.19086620427E+00  0.00000000000E+00 0.  1.
          4    1    1    2  501    0 -0.40839112050E+01 -0.17348755999E+01  0.74125937637E+02  0.74269479967E+02  0.12700000000E+01 0.  1.
         -4    1    1    2    0  501  0.40839112050E+01  0.17348755999E+01  0.44595244560E+02  0.44833434638E+02  0.12700000000E+01 0. -1.
<mgrwt>
<rscale>  0 0.46153032E+01</rscale>
<asrwt>0</asrwt>
<pdfrwt beam="1">0</pdfrwt>
<pdfrwt beam="2">0</pdfrwt>
<totfact> 0.41320366E+11</totfact>
</mgrwt>
</event>
<event>
 4    1  0.3324394E+006  0.3061433E+01  0.7546771E-02  0.2503116E+00
         22   -1    0    0    0    0  0.00000000000E+00  0.00000000000E+00  0.10713768904E+02  0.10713768904E+02  0.00000000000E+00 0.  1.
         22   -1    0    0    0    0 -0.00000000000E+00 -0.00000000000E+00 -0.25611073409E+01  0.25611073409E+01  0.00000000000E+00 0. -1.
          4    1    1    2  501    0 -0.26825240913E+01 -0.75068967758E+00 -0.13095331279E+01  0.33297518685E+01  0.12700000000E+01 0. -1.
         -4    1    1    2    0  501  0.26825240913E+01  0.75068967758E+00  0.94621946912E+01  0.99451243766E+01  0.12700000000E+01 0.  1.
<mgrwt>
<rscale>  0 0.30614328E+01</rscale>
<asrwt>0</asrwt>
<pdfrwt beam="1">0</pdfrwt>
<pdfrwt beam="2">0</pdfrwt>
<totfact> 0.49381633E+11</totfact>
</mgrwt>
</event>
<event>
 4    1  0.3324394E+006  0.2175486E+01  0.7546771E-02  0.2871560E+00
         22   -1    0    0    0    0  0.00000000000E+00  0.00000000000E+00  0.18019549013E+02  0.18019549013E+02  0.00000000000E+00 0. -1.
         22   -1    0    0    0    0 -0.00000000000E+00 -0.00000000000E+00 -0.31849408969E+00  0.31849408969E+00  0.00000000000E+00 0.  1.
          4    1    1    2  501    0  0.11857292875E+01 -0.13091546551E+01  0.50109684578E+01  0.54628330323E+01  0.12700000000E+01 0.  1.
         -4    1    1    2    0  501 -0.11857292875E+01  0.13091546551E+01  0.12690086466E+02  0.12875210071E+02  0.12700000000E+01 0. -1.
<mgrwt>
<rscale>  0 0.21754861E+01</rscale>
<asrwt>0</asrwt>
<pdfrwt beam="1">0</pdfrwt>
<pdfrwt beam="2">0</pdfrwt>
<totfact> 0.28146705E+12</totfact>
</mgrwt>
</event>
<event>
 4    1  0.3324394E+006  0.2681126E+01  0.7546771E-02  0.2633690E+00
         22   -1    0    0    0    0  0.00000000000E+00  0.00000000000E+00  0.63748828719E-01  0.63748828719E-01  0.00000000000E+00 0. -1.
         22   -1    0    0    0    0 -0.00000000000E+00 -0.00000000000E+00 -0.11289534473E+03  0.11289534473E+03  0.00000000000E+00 0.  1.
          4    1    1    2  501    0  0.95616430700E+00  0.21590018808E+01 -0.58357566246E+02  0.58419123388E+02  0.12700000000E+01 0. -1.
         -4    1    1    2    0  501 -0.95616430700E+00 -0.21590018808E+01 -0.54474029654E+02  0.54539970169E+02  0.12700000000E+01 0.  1.
<mgrwt>
<rscale>  0 0.26811265E+01</rscale>
<asrwt>0</asrwt>
<pdfrwt beam="1">0</pdfrwt>
<pdfrwt beam="2">0</pdfrwt>
<totfact> 0.15006392E+12</totfact>
</mgrwt>
</event>
<event>
 4    1  0.3324394E+006  0.2748057E+01  0.7546771E-02  0.2608339E+00
         22   -1    0    0    0    0  0.00000000000E+00  0.00000000000E+00  0.33146333443E+02  0.33146333443E+02  0.00000000000E+00 0. -1.
         22   -1    0    0    0    0 -0.00000000000E+00 -0.00000000000E+00 -0.19642259580E+01  0.19642259580E+01  0.00000000000E+00 0.  1.
          4    1    1    2  501    0  0.15816743894E+01  0.18539753482E+01 -0.91472717337E+00  0.28962983733E+01  0.12700000000E+01 0.  1.
         -4    1    1    2    0  501 -0.15816743894E+01 -0.18539753482E+01  0.32096834659E+02  0.32214261028E+02  0.12700000000E+01 0. -1.
<mgrwt>
<rscale>  0 0.27480572E+01</rscale>
<asrwt>0</asrwt>
<pdfrwt beam="1">0</pdfrwt>
<pdfrwt beam="2">0</pdfrwt>
<totfact> 0.16468021E+11</totfact>
</mgrwt>
</event>
<event>
 4    1  0.3324394E+006  0.2247530E+01  0.7546771E-02  0.2831516E+00
         22   -1    0    0    0    0  0.00000000000E+00  0.00000000000E+00  0.85508364226E+00  0.85508364226E+00  0.00000000000E+00 0.  1.
         22   -1    0    0    0    0 -0.00000000000E+00 -0.00000000000E+00 -0.59089144459E+01  0.59089144459E+01  0.00000000000E+00 0.  1.
          4    1    1    2  501    0 -0.88494532448E-02  0.18542951833E+01 -0.24742089795E+01  0.33426185864E+01  0.12700000000E+01 0.  1.
         -4    1    1    2    0  501  0.88494532448E-02 -0.18542951833E+01 -0.25796218242E+01  0.34213795018E+01  0.12700000000E+01 0.  1.
<mgrwt>
<rscale>  0 0.22475295E+01</rscale>
<asrwt>0</asrwt>
<pdfrwt beam="1">0</pdfrwt>
<pdfrwt beam="2">0</pdfrwt>
<totfact> 0.35664385E+12</totfact>
</mgrwt>
</event>
<event>
 4    1  0.3324394E+006  0.4149037E+01  0.7546771E-02  0.2249680E+00
         22   -1    0    0    0    0  0.00000000000E+00  0.00000000000E+00  0.74954336874E+00  0.74954336874E+00  0.00000000000E+00 0. -1.
         22   -1    0    0    0    0 -0.00000000000E+00 -0.00000000000E+00 -0.27237778775E+02  0.27237778775E+02  0.00000000000E+00 0.  1.
          4    1    1    2  501    0  0.37791505227E+01 -0.11487496937E+01 -0.18785480014E+02  0.19238211037E+02  0.12700000000E+01 0.  1.
         -4    1    1    2    0  501 -0.37791505227E+01  0.11487496937E+01 -0.77027553921E+01  0.87491111070E+01  0.12700000000E+01 0. -1.
<mgrwt>
<rscale>  0 0.41490366E+01</rscale>
<asrwt>0</asrwt>
<pdfrwt beam="1">0</pdfrwt>
<pdfrwt beam="2">0</pdfrwt>
<totfact> 0.63810480E+11</totfact>
</mgrwt>
</event>
<event>
 4    1  0.3324394E+006  0.2195014E+01  0.7546771E-02  0.2860457E+00
         22   -1    0    0    0    0  0.00000000000E+00  0.00000000000E+00  0.28424110743E+01  0.28424110743E+01  0.00000000000E+00 0. -1.
         22   -1    0    0    0    0 -0.00000000000E+00 -0.00000000000E+00 -0.19048308819E+01  0.19048308819E+01  0.00000000000E+00 0. -1.
          4    1    1    2  501    0  0.90123958493E+00  0.15469179945E+01 -0.31888036824E+00  0.22180560769E+01  0.12700000000E+01 0. -1.
         -4    1    1    2    0  501 -0.90123958493E+00 -0.15469179945E+01  0.12564605607E+01  0.25291858793E+01  0.12700000000E+01 0. -1.
<mgrwt>
<rscale>  0 0.21950144E+01</rscale>
<asrwt>0</asrwt>
<pdfrwt beam="1">0</pdfrwt>
<pdfrwt beam="2">0</pdfrwt>
<totfact> 0.33688960E+12</totfact>
</mgrwt>
</event>
<event>
 4    1  0.3324394E+006  0.3812966E+01  0.7546771E-02  0.2314538E+00
         22   -1    0    0    0    0  0.00000000000E+00  0.00000000000E+00  0.15778674488E+01  0.15778674488E+01  0.00000000000E+00 0. -1.
         22   -1    0    0    0    0 -0.00000000000E+00 -0.00000000000E+00 -0.10948427027E+02  0.10948427027E+02  0.00000000000E+00 0.  1.
          4    1    1    2  501    0 -0.25567518221E+01 -0.25276133349E+01 -0.21925462420E+01  0.43984051739E+01  0.12700000000E+01 0. -1.
         -4    1    1    2    0  501  0.25567518221E+01  0.25276133349E+01 -0.71780133365E+01  0.81278893022E+01  0.12700000000E+01 0.  1.
<mgrwt>
<rscale>  0 0.38129659E+01</rscale>
<asrwt>0</asrwt>
<pdfrwt beam="1">0</pdfrwt>
<pdfrwt beam="2">0</pdfrwt>
<totfact> 0.84267733E+11</totfact>
</mgrwt>
</event>
<event>
 4    1  0.3324394E+006  0.2833590E+01  0.7546771E-02  0.2577535E+00
         22   -1    0    0    0    0  0.00000000000E+00  0.00000000000E+00  0.34815126660E+01  0.34815126660E+01  0.00000000000E+00 0.  1.
         22   -1    0    0    0    0 -0.00000000000E+00 -0.00000000000E+00 -0.25565699246E+01  0.25565699246E+01  0.00000000000E+00 0.  1.
          4    1    1    2  501    0 -0.10450440053E+01  0.23074261522E+01 -0.48221894076E+00  0.28743290570E+01  0.12700000000E+01 0.  1.
         -4    1    1    2    0  501  0.10450440053E+01 -0.23074261522E+01  0.14071616822E+01  0.31637535335E+01  0.12700000000E+01 0.  1.
<mgrwt>
<rscale>  0 0.28335900E+01</rscale>
<asrwt>0</asrwt>
<pdfrwt beam="1">0</pdfrwt>
<pdfrwt beam="2">0</pdfrwt>
<totfact> 0.18890830E+12</totfact>
</mgrwt>
</event>
<event>
 4    1  0.3324394E+006  0.2787039E+01  0.7546771E-02  0.2594086E+00
         22   -1    0    0    0    0  0.00000000000E+00  0.00000000000E+00  0.26447512558E+02  0.26447512558E+02  0.00000000000E+00 0.  1.
         22   -1    0    0    0    0 -0.00000000000E+00 -0.00000000000E+00 -0.29533001505E+00  0.29533001505E+00  0.00000000000E+00 0. -1.
          4    1    1    2  501    0  0.33806423279E-01  0.24806342365E+01  0.12082179373E+02  0.12399461580E+02  0.12700000000E+01 0. -1.
         -4    1    1    2    0  501 -0.33806423279E-01 -0.24806342365E+01  0.14070003170E+02  0.14343380993E+02  0.12700000000E+01 0.  1.
<mgrwt>
<rscale>  0 0.27870395E+01</rscale>
<asrwt>0</asrwt>
<pdfrwt beam="1">0</pdfrwt>
<pdfrwt beam="2">0</pdfrwt>
<totfact> 0.18945100E+12</totfact>
</mgrwt>
</event>
<event>
 4    1  0.3324394E+006  0.2428349E+01  0.7546771E-02  0.2740987E+00
         22   -1    0    0    0    0  0.00000000000E+00  0.00000000000E+00  0.63514354146E+01  0.63514354146E+01  0.00000000000E+00 0. -1.
         22   -1    0    0    0    0 -0.00000000000E+00 -0.00000000000E+00 -0.12723279481E+01  0.12723279481E+01  0.00000000000E+00 0.  1.
          4    1    1    2  501    0  0.20377541993E+01 -0.36267755992E+00  0.55778360372E+00  0.24915857877E+01  0.12700000000E+01 0.  1.
         -4    1    1    2    0  501 -0.20377541993E+01  0.36267755992E+00  0.45213238628E+01  0.51321775750E+01  0.12700000000E+01 0. -1.
<mgrwt>
<rscale>  0 0.24283487E+01</rscale>
<asrwt>0</asrwt>
<pdfrwt beam="1">0</pdfrwt>
<pdfrwt beam="2">0</pdfrwt>
<totfact> 0.20779740E+12</totfact>
</mgrwt>
</event>
<event>
 4    1  0.3324394E+006  0.3008326E+01  0.7546771E-02  0.2519555E+00
         22   -1    0    0    0    0  0.00000000000E+00  0.00000000000E+00  0.18483874668E+01  0.18483874668E+01  0.00000000000E+00 0.  1.
         22   -1    0    0    0    0 -0.00000000000E+00 -0.00000000000E+00 -0.55956005491E+01  0.55956005491E+01  0.00000000000E+00 0. -1.
          4    1    1    2  501    0  0.70321478018E+00  0.26348841501E+01 -0.31895086006E+01  0.43844031093E+01  0.12700000000E+01 0. -1.
         -4    1    1    2    0  501 -0.70321478018E+00 -0.26348841501E+01 -0.55770448162E+00  0.30595849065E+01  0.12700000000E+01 0. -1.
<mgrwt>
<rscale>  0 0.30083260E+01</rscale>
<asrwt>0</asrwt>
<pdfrwt beam="1">0</pdfrwt>
<pdfrwt beam="2">0</pdfrwt>
<totfact> 0.15719107E+12</totfact>
</mgrwt>
</event>
<event>
 4    1  0.3324394E+006  0.2973975E+01  0.7546771E-02  0.2530469E+00
         22   -1    0    0    0    0  0.00000000000E+00  0.00000000000E+00  0.83307642452E+01  0.83307642452E+01  0.00000000000E+00 0.  1.
         22   -1    0    0    0    0 -0.00000000000E+00 -0.00000000000E+00 -0.71715468133E+01  0.71715468133E+01  0.00000000000E+00 0. -1.
          4    1    1    2  501    0 -0.25935663484E+01 -0.71066263755E+00 -0.65748410189E+01  0.72161667256E+01  0.12700000000E+01 0. -1.
         -4    1    1    2    0  501  0.25935663484E+01  0.71066263755E+00  0.77340584507E+01  0.82861443330E+01  0.12700000000E+01 0.  1.
<mgrwt>
<rscale>  0 0.29739751E+01</rscale>
<asrwt>0</asrwt>
<pdfrwt beam="1">0</pdfrwt>
<pdfrwt beam="2">0</pdfrwt>
<totfact> 0.19868804E+11</totfact>
</mgrwt>
</event>
<event>
 4    1  0.3324394E+006  0.2236519E+01  0.7546771E-02  0.2837476E+00
         22   -1    0    0    0    0  0.00000000000E+00  0.00000000000E+00  0.32483536099E+01  0.32483536099E+01  0.00000000000E+00 0.  1.
         22   -1    0    0    0    0 -0.00000000000E+00 -0.00000000000E+00 -0.18819058712E+01  0.18819058712E+01  0.00000000000E+00 0. -1.
          4    1    1    2  501    0  0.31710269554E+00 -0.18134401473E+01 -0.41035650435E+00  0.22738539417E+01  0.12700000000E+01 0. -1.
         -4    1    1    2    0  501 -0.31710269554E+00  0.18134401473E+01  0.17768042431E+01  0.28564055394E+01  0.12700000000E+01 0.  1.
<mgrwt>
<rscale>  0 0.22365195E+01</rscale>
<asrwt>0</asrwt>
<pdfrwt beam="1">0</pdfrwt>
<pdfrwt beam="2">0</pdfrwt>
<totfact> 0.29229490E+12</totfact>
</mgrwt>
</event>
<event>
 4    1  0.3324394E+006  0.2064881E+01  0.7546771E-02  0.2938265E+00
         22   -1    0    0    0    0  0.00000000000E+00  0.00000000000E+00  0.21739725993E+00  0.21739725993E+00  0.00000000000E+00 0. -1.
         22   -1    0    0    0    0 -0.00000000000E+00 -0.00000000000E+00 -0.19966188451E+02  0.19966188451E+02  0.00000000000E+00 0.  1.
          4    1    1    2  501    0 -0.86634391066E+00  0.13785065102E+01 -0.85314713888E+01  0.87777979031E+01  0.12700000000E+01 0.  1.
         -4    1    1    2    0  501  0.86634391066E+00 -0.13785065102E+01 -0.11217319802E+02  0.11405787808E+02  0.12700000000E+01 0. -1.
<mgrwt>
<rscale>  0 0.20648806E+01</rscale>
<asrwt>0</asrwt>
<pdfrwt beam="1">0</pdfrwt>
<pdfrwt beam="2">0</pdfrwt>
<totfact> 0.37987717E+12</totfact>
</mgrwt>
</event>
<event>
 4    1  0.3324394E+006  0.4297644E+01  0.7546771E-02  0.2223770E+00
         22   -1    0    0    0    0  0.00000000000E+00  0.00000000000E+00  0.11868125627E+01  0.11868125627E+01  0.00000000000E+00 0.  1.
         22   -1    0    0    0    0 -0.00000000000E+00 -0.00000000000E+00 -0.32710535611E+02  0.32710535611E+02  0.00000000000E+00 0. -1.
          4    1    1    2  501    0 -0.39672946449E+01  0.10570808465E+01 -0.28033409314E+02  0.28360920022E+02  0.12700000000E+01 0. -1.
         -4    1    1    2    0  501  0.39672946449E+01 -0.10570808465E+01 -0.34903137335E+01  0.55364281512E+01  0.12700000000E+01 0.  1.
<mgrwt>
<rscale>  0 0.42976443E+01</rscale>
<asrwt>0</asrwt>
<pdfrwt beam="1">0</pdfrwt>
<pdfrwt beam="2">0</pdfrwt>
<totfact> 0.29914931E+11</totfact>
</mgrwt>
</event>
<event>
 4    1  0.3324394E+006  0.2972083E+01  0.7546771E-02  0.2531076E+00
         22   -1    0    0    0    0  0.00000000000E+00  0.00000000000E+00  0.74803935988E+00  0.74803935988E+00  0.00000000000E+00 0. -1.
         22   -1    0    0    0    0 -0.00000000000E+00 -0.00000000000E+00 -0.17321201290E+02  0.17321201290E+02  0.00000000000E+00 0.  1.
          4    1    1    2  501    0 -0.25654019682E+01  0.79943169485E+00 -0.13383411678E+02  0.13709448801E+02  0.12700000000E+01 0.  1.
         -4    1    1    2    0  501  0.25654019682E+01 -0.79943169485E+00 -0.31897502528E+01  0.43597918493E+01  0.12700000000E+01 0. -1.
<mgrwt>
<rscale>  0 0.29720832E+01</rscale>
<asrwt>0</asrwt>
<pdfrwt beam="1">0</pdfrwt>
<pdfrwt beam="2">0</pdfrwt>
<totfact> 0.11274299E+12</totfact>
</mgrwt>
</event>
<event>
 4    1  0.3324394E+006  0.3312906E+01  0.7546771E-02  0.2431680E+00
         22   -1    0    0    0    0  0.00000000000E+00  0.00000000000E+00  0.26086578034E+02  0.26086578034E+02  0.00000000000E+00 0.  1.
         22   -1    0    0    0    0 -0.00000000000E+00 -0.00000000000E+00 -0.11184290481E+01  0.11184290481E+01  0.00000000000E+00 0. -1.
          4    1    1    2  501    0 -0.30380031373E+01 -0.36467150627E+00  0.17404856117E+01  0.37422771857E+01  0.12700000000E+01 0. -1.
         -4    1    1    2    0  501  0.30380031373E+01  0.36467150627E+00  0.23227663374E+02  0.23462729897E+02  0.12700000000E+01 0.  1.
<mgrwt>
<rscale>  0 0.33129063E+01</rscale>
<asrwt>0</asrwt>
<pdfrwt beam="1">0</pdfrwt>
<pdfrwt beam="2">0</pdfrwt>
<totfact> 0.42701514E+11</totfact>
</mgrwt>
</event>
<event>
 4    1  0.3324394E+006  0.2613459E+01  0.7546771E-02  0.2660529E+00
         22   -1    0    0    0    0  0.00000000000E+00  0.00000000000E+00  0.12245196506E+02  0.12245196506E+02  0.00000000000E+00 0. -1.
         22   -1    0    0    0    0 -0.00000000000E+00 -0.00000000000E+00 -0.55797637999E+00  0.55797637999E+00  0.00000000000E+00 0.  1.
          4    1    1    2  501    0 -0.13606964029E+01  0.18346046689E+01  0.59626202347E+01  0.65102234259E+01  0.12700000000E+01 0.  1.
         -4    1    1    2    0  501  0.13606964029E+01 -0.18346046689E+01  0.57245998915E+01  0.62929494603E+01  0.12700000000E+01 0. -1.
<mgrwt>
<rscale>  0 0.26134592E+01</rscale>
<asrwt>0</asrwt>
<pdfrwt beam="1">0</pdfrwt>
<pdfrwt beam="2">0</pdfrwt>
<totfact> 0.24073525E+12</totfact>
</mgrwt>
</event>
<event>
 4    1  0.3324394E+006  0.4736425E+01  0.7546771E-02  0.2155844E+00
         22   -1    0    0    0    0  0.00000000000E+00  0.00000000000E+00  0.79080656793E+01  0.79080656793E+01  0.00000000000E+00 0.  1.
         22   -1    0    0    0    0 -0.00000000000E+00 -0.00000000000E+00 -0.30940444855E+01  0.30940444855E+01  0.00000000000E+00 0. -1.
          4    1    1    2  501    0 -0.45518036273E+01  0.31922157509E+00  0.39931566042E+01  0.61950801722E+01  0.12700000000E+01 0.  1.
         -4    1    1    2    0  501  0.45518036273E+01 -0.31922157509E+00  0.82086458957E+00  0.48070299926E+01  0.12700000000E+01 0. -1.
<mgrwt>
<rscale>  0 0.47364247E+01</rscale>
<asrwt>0</asrwt>
<pdfrwt beam="1">0</pdfrwt>
<pdfrwt beam="2">0</pdfrwt>
<totfact> 0.57150678E+11</totfact>
</mgrwt>
</event>
<event>
 4    1  0.3324394E+006  0.2384751E+01  0.7546771E-02  0.2761628E+00
         22   -1    0    0    0    0  0.00000000000E+00  0.00000000000E+00  0.20980896477E+00  0.20980896477E+00  0.00000000000E+00 0.  1.
         22   -1    0    0    0    0 -0.00000000000E+00 -0.00000000000E+00 -0.28656118731E+02  0.28656118731E+02  0.00000000000E+00 0.  1.
          4    1    1    2  501    0  0.16040319913E+01 -0.12252422389E+01 -0.10866094790E+02  0.11124704632E+02  0.12700000000E+01 0.  1.
         -4    1    1    2    0  501 -0.16040319913E+01  0.12252422389E+01 -0.17580214977E+02  0.17741223064E+02  0.12700000000E+01 0.  1.
<mgrwt>
<rscale>  0 0.23847510E+01</rscale>
<asrwt>0</asrwt>
<pdfrwt beam="1">0</pdfrwt>
<pdfrwt beam="2">0</pdfrwt>
<totfact> 0.25084264E+12</totfact>
</mgrwt>
</event>
<event>
 4    1  0.3324394E+006  0.2538988E+01  0.7546771E-02  0.2691587E+00
         22   -1    0    0    0    0  0.00000000000E+00  0.00000000000E+00  0.31733499920E+02  0.31733499920E+02  0.00000000000E+00 0. -1.
         22   -1    0    0    0    0 -0.00000000000E+00 -0.00000000000E+00 -0.21068891803E+00  0.21068891803E+00  0.00000000000E+00 0.  1.
          4    1    1    2  501    0 -0.12072365793E+01 -0.18374280822E+01  0.12738841304E+02  0.12989401060E+02  0.12700000000E+01 0.  1.
         -4    1    1    2    0  501  0.12072365793E+01  0.18374280822E+01  0.18783969698E+02  0.18954787778E+02  0.12700000000E+01 0.  1.
<mgrwt>
<rscale>  0 0.25389884E+01</rscale>
<asrwt>0</asrwt>
<pdfrwt beam="1">0</pdfrwt>
<pdfrwt beam="2">0</pdfrwt>
<totfact> 0.21923233E+12</totfact>
</mgrwt>
</event>
<event>
 4    1  0.3324394E+006  0.3446821E+01  0.7546771E-02  0.2397415E+00
         22   -1    0    0    0    0  0.00000000000E+00  0.00000000000E+00  0.11461223445E+02  0.11461223445E+02  0.00000000000E+00 0.  1.
         22   -1    0    0    0    0 -0.00000000000E+00 -0.00000000000E+00 -0.10477131303E+01  0.10477131303E+01  0.00000000000E+00 0. -1.
          4    1    1    2  501    0  0.27690192259E+01 -0.16125148516E+01  0.45622693528E+01  0.57179430976E+01  0.12700000000E+01 0. -1.
         -4    1    1    2    0  501 -0.27690192259E+01  0.16125148516E+01  0.58512409622E+01  0.67909934780E+01  0.12700000000E+01 0.  1.
<mgrwt>
<rscale>  0 0.34468205E+01</rscale>
<asrwt>0</asrwt>
<pdfrwt beam="1">0</pdfrwt>
<pdfrwt beam="2">0</pdfrwt>
<totfact> 0.12749707E+12</totfact>
</mgrwt>
</event>
<event>
 4    1  0.3324394E+006  0.3641565E+01  0.7546771E-02  0.2351537E+00
         22   -1    0    0    0    0  0.00000000000E+00  0.00000000000E+00  0.33483575838E+00  0.33483575838E+00  0.00000000000E+00 0. -1.
         22   -1    0    0    0    0 -0.00000000000E+00 -0.00000000000E+00 -0.78293848898E+02  0.78293848898E+02  0.00000000000E+00 0.  1.
          4    1    1    2  501    0 -0.16584413498E+01 -0.29828959174E+01 -0.11343007826E+02  0.11913220485E+02  0.12700000000E+01 0. -1.
         -4    1    1    2    0  501  0.16584413498E+01  0.29828959174E+01 -0.66616005313E+02  0.66715464172E+02  0.12700000000E+01 0.  1.
<mgrwt>
<rscale>  0 0.36415650E+01</rscale>
<asrwt>0</asrwt>
<pdfrwt beam="1">0</pdfrwt>
<pdfrwt beam="2">0</pdfrwt>
<totfact> 0.39598792E+11</totfact>
</mgrwt>
</event>
<event>
 4    1  0.3324394E+006  0.2215190E+01  0.7546771E-02  0.2849182E+00
         22   -1    0    0    0    0  0.00000000000E+00  0.00000000000E+00  0.20610219864E+01  0.20610219864E+01  0.00000000000E+00 0. -1.
         22   -1    0    0    0    0 -0.00000000000E+00 -0.00000000000E+00 -0.43217134387E+01  0.43217134387E+01  0.00000000000E+00 0.  1.
          4    1    1    2  501    0 -0.17374897516E+01 -0.52468836579E+00 -0.32690058687E+01  0.39488565291E+01  0.12700000000E+01 0.  1.
         -4    1    1    2    0  501  0.17374897516E+01  0.52468836579E+00  0.10083144164E+01  0.24338788960E+01  0.12700000000E+01 0. -1.
<mgrwt>
<rscale>  0 0.22151904E+01</rscale>
<asrwt>0</asrwt>
<pdfrwt beam="1">0</pdfrwt>
<pdfrwt beam="2">0</pdfrwt>
<totfact> 0.18813542E+12</totfact>
</mgrwt>
</event>
<event>
 4    1  0.3324394E+006  0.2316363E+01  0.7546771E-02  0.2795478E+00
         22   -1    0    0    0    0  0.00000000000E+00  0.00000000000E+00  0.22044080039E+02  0.22044080039E+02  0.00000000000E+00 0.  1.
         22   -1    0    0    0    0 -0.00000000000E+00 -0.00000000000E+00 -0.24340334262E+00  0.24340334262E+00  0.00000000000E+00 0. -1.
          4    1    1    2  501    0 -0.37598338422E+00  0.19003352275E+01  0.10861467306E+02  0.11105719676E+02  0.12700000000E+01 0.  1.
         -4    1    1    2    0  501  0.37598338422E+00 -0.19003352275E+01  0.10939209390E+02  0.11181763705E+02  0.12700000000E+01 0. -1.
<mgrwt>
<rscale>  0 0.23163630E+01</rscale>
<asrwt>0</asrwt>
<pdfrwt beam="1">0</pdfrwt>
<pdfrwt beam="2">0</pdfrwt>
<totfact> 0.29586185E+12</totfact>
</mgrwt>
</event>
<event>
 4    1  0.3324394E+006  0.2218783E+01  0.7546771E-02  0.2847195E+00
         22   -1    0    0    0    0  0.00000000000E+00  0.00000000000E+00  0.23579932884E+02  0.23579932884E+02  0.00000000000E+00 0. -1.
         22   -1    0    0    0    0 -0.00000000000E+00 -0.00000000000E+00 -0.23456762661E+00  0.23456762661E+00  0.00000000000E+00 0.  1.
          4    1    1    2  501    0 -0.41764843415E+00  0.17707820437E+01  0.77245661097E+01  0.80369099064E+01  0.12700000000E+01 0. -1.
         -4    1    1    2    0  501  0.41764843415E+00 -0.17707820437E+01  0.15620799148E+02  0.15777590604E+02  0.12700000000E+01 0.  1.
<mgrwt>
<rscale>  0 0.22187833E+01</rscale>
<asrwt>0</asrwt>
<pdfrwt beam="1">0</pdfrwt>
<pdfrwt beam="2">0</pdfrwt>
<totfact> 0.28334653E+12</totfact>
</mgrwt>
</event>
<event>
 4    1  0.3324394E+006  0.3457467E+01  0.7546771E-02  0.2394791E+00
         22   -1    0    0    0    0  0.00000000000E+00  0.00000000000E+00  0.23442086733E+01  0.23442086733E+01  0.00000000000E+00 0.  1.
         22   -1    0    0    0    0 -0.00000000000E+00 -0.00000000000E+00 -0.52604575523E+01  0.52604575523E+01  0.00000000000E+00 0. -1.
          4    1    1    2  501    0 -0.27381385913E+01 -0.16863498668E+01 -0.21234233418E+01  0.40574629397E+01  0.12700000000E+01 0. -1.
         -4    1    1    2    0  501  0.27381385913E+01  0.16863498668E+01 -0.79282553716E+00  0.35472032858E+01  0.12700000000E+01 0.  1.
<mgrwt>
<rscale>  0 0.34574671E+01</rscale>
<asrwt>0</asrwt>
<pdfrwt beam="1">0</pdfrwt>
<pdfrwt beam="2">0</pdfrwt>
<totfact> 0.12844182E+12</totfact>
</mgrwt>
</event>
<event>
 4    1  0.3324394E+006  0.2501394E+01  0.7546771E-02  0.2707916E+00
         22   -1    0    0    0    0  0.00000000000E+00  0.00000000000E+00  0.12742278949E+02  0.12742278949E+02  0.00000000000E+00 0. -1.
         22   -1    0    0    0    0 -0.00000000000E+00 -0.00000000000E+00 -0.64740573426E+00  0.64740573426E+00  0.00000000000E+00 0.  1.
          4    1    1    2  501    0 -0.20526590589E+01  0.65625086984E+00  0.27572369736E+01  0.37228121286E+01  0.12700000000E+01 0.  1.
         -4    1    1    2    0  501  0.20526590589E+01 -0.65625086984E+00  0.93376362406E+01  0.96668725542E+01  0.12700000000E+01 0. -1.
<mgrwt>
<rscale>  0 0.25013945E+01</rscale>
<asrwt>0</asrwt>
<pdfrwt beam="1">0</pdfrwt>
<pdfrwt beam="2">0</pdfrwt>
<totfact> 0.19378617E+12</totfact>
</mgrwt>
</event>
<event>
 4    1  0.3324394E+006  0.2075656E+01  0.7546771E-02  0.2931464E+00
         22   -1    0    0    0    0  0.00000000000E+00  0.00000000000E+00  0.40118944193E+00  0.40118944193E+00  0.00000000000E+00 0. -1.
         22   -1    0    0    0    0 -0.00000000000E+00 -0.00000000000E+00 -0.10919070245E+02  0.10919070245E+02  0.00000000000E+00 0. -1.
          4    1    1    2  501    0 -0.16108490339E+01  0.31719810122E+00 -0.59859283065E+01  0.63355889178E+01  0.12700000000E+01 0. -1.
         -4    1    1    2    0  501  0.16108490339E+01 -0.31719810122E+00 -0.45319524971E+01  0.49846707696E+01  0.12700000000E+01 0. -1.
<mgrwt>
<rscale>  0 0.20756563E+01</rscale>
<asrwt>0</asrwt>
<pdfrwt beam="1">0</pdfrwt>
<pdfrwt beam="2">0</pdfrwt>
<totfact> 0.40157777E+12</totfact>
</mgrwt>
</event>
<event>
 4    1  0.3324394E+006  0.2045562E+01  0.7546771E-02  0.2950634E+00
         22   -1    0    0    0    0  0.00000000000E+00  0.00000000000E+00  0.31706209347E+01  0.31706209347E+01  0.00000000000E+00 0. -1.
         22   -1    0    0    0    0 -0.00000000000E+00 -0.00000000000E+00 -0.14426924186E+01  0.14426924186E+01  0.00000000000E+00 0. -1.
          4    1    1    2  501    0  0.12275756001E+01 -0.10317364184E+01  0.15374144690E+01  0.25588992049E+01  0.12700000000E+01 0. -1.
         -4    1    1    2    0  501 -0.12275756001E+01  0.10317364184E+01  0.19051404700E+00  0.20544141484E+01  0.12700000000E+01 0. -1.
<mgrwt>
<rscale>  0 0.20455615E+01</rscale>
<asrwt>0</asrwt>
<pdfrwt beam="1">0</pdfrwt>
<pdfrwt beam="2">0</pdfrwt>
<totfact> 0.40848153E+12</totfact>
</mgrwt>
</event>
<event>
 4    1  0.3324394E+006  0.2737426E+01  0.7546771E-02  0.2612290E+00
         22   -1    0    0    0    0  0.00000000000E+00  0.00000000000E+00  0.16376636420E+02  0.16376636420E+02  0.00000000000E+00 0. -1.
         22   -1    0    0    0    0 -0.00000000000E+00 -0.00000000000E+00 -0.46966319380E+00  0.46966319380E+00  0.00000000000E+00 0.  1.
          4    1    1    2  501    0 -0.20069315010E+01  0.13611850426E+01  0.66020162016E+01  0.71470355180E+01  0.12700000000E+01 0.  1.
         -4    1    1    2    0  501  0.20069315010E+01 -0.13611850426E+01  0.93049570245E+01  0.96992640956E+01  0.12700000000E+01 0. -1.
<mgrwt>
<rscale>  0 0.27374256E+01</rscale>
<asrwt>0</asrwt>
<pdfrwt beam="1">0</pdfrwt>
<pdfrwt beam="2">0</pdfrwt>
<totfact> 0.20467646E+12</totfact>
</mgrwt>
</event>
<event>
 4    1  0.3324394E+006  0.2581264E+01  0.7546771E-02  0.2673752E+00
         22   -1    0    0    0    0  0.00000000000E+00  0.00000000000E+00  0.43827056622E+01  0.43827056622E+01  0.00000000000E+00 0.  1.
         22   -1    0    0    0    0 -0.00000000000E+00 -0.00000000000E+00 -0.15218749890E+01  0.15218749890E+01  0.00000000000E+00 0. -1.
          4    1    1    2  501    0 -0.14222582398E+01 -0.17398865928E+01  0.15260999305E+01  0.29986505055E+01  0.12700000000E+01 0. -1.
         -4    1    1    2    0  501  0.14222582398E+01  0.17398865928E+01  0.13347307426E+01  0.29059301457E+01  0.12700000000E+01 0.  1.
<mgrwt>
<rscale>  0 0.25812640E+01</rscale>
<asrwt>0</asrwt>
<pdfrwt beam="1">0</pdfrwt>
<pdfrwt beam="2">0</pdfrwt>
<totfact> 0.26264272E+12</totfact>
</mgrwt>
</event>
<event>
 4    1  0.3324394E+006  0.2193325E+01  0.7546771E-02  0.2861410E+00
         22   -1    0    0    0    0  0.00000000000E+00  0.00000000000E+00  0.37388597763E+01  0.37388597763E+01  0.00000000000E+00 0.  1.
         22   -1    0    0    0    0 -0.00000000000E+00 -0.00000000000E+00 -0.49717821669E+01  0.49717821669E+01  0.00000000000E+00 0.  1.
          4    1    1    2  501    0  0.16323898444E+01  0.73012128413E+00 -0.43661010366E+01  0.48860527991E+01  0.12700000000E+01 0.  1.
         -4    1    1    2    0  501 -0.16323898444E+01 -0.73012128413E+00  0.31331786460E+01  0.38245891442E+01  0.12700000000E+01 0.  1.
<mgrwt>
<rscale>  0 0.21933248E+01</rscale>
<asrwt>0</asrwt>
<pdfrwt beam="1">0</pdfrwt>
<pdfrwt beam="2">0</pdfrwt>
<totfact> 0.79603536E+11</totfact>
</mgrwt>
</event>
<event>
 4    1  0.3324394E+006  0.3492107E+01  0.7546771E-02  0.2386349E+00
         22   -1    0    0    0    0  0.00000000000E+00  0.00000000000E+00  0.49346310313E+00  0.49346310313E+00  0.00000000000E+00 0.  1.
         22   -1    0    0    0    0 -0.00000000000E+00 -0.00000000000E+00 -0.26826513342E+02  0.26826513342E+02  0.00000000000E+00 0. -1.
          4    1    1    2  501    0  0.23229111051E+01  0.22772778936E+01 -0.17000952266E+02  0.17355897803E+02  0.12700000000E+01 0. -1.
         -4    1    1    2    0  501 -0.23229111051E+01 -0.22772778936E+01 -0.93320979731E+01  0.99640786421E+01  0.12700000000E+01 0.  1.
<mgrwt>
<rscale>  0 0.34921069E+01</rscale>
<asrwt>0</asrwt>
<pdfrwt beam="1">0</pdfrwt>
<pdfrwt beam="2">0</pdfrwt>
<totfact> 0.10444347E+12</totfact>
</mgrwt>
</event>
<event>
 4    1  0.3324394E+006  0.2041813E+01  0.7546771E-02  0.2953060E+00
         22   -1    0    0    0    0  0.00000000000E+00  0.00000000000E+00  0.11367836188E+01  0.11367836188E+01  0.00000000000E+00 0. -1.
         22   -1    0    0    0    0 -0.00000000000E+00 -0.00000000000E+00 -0.37154445361E+01  0.37154445361E+01  0.00000000000E+00 0.  1.
          4    1    1    2  501    0  0.15973598834E+01 -0.67397649384E-01 -0.15653142905E+01  0.25727825147E+01  0.12700000000E+01 0.  1.
         -4    1    1    2    0  501 -0.15973598834E+01  0.67397649384E-01 -0.10133466269E+01  0.22794456401E+01  0.12700000000E+01 0. -1.
<mgrwt>
<rscale>  0 0.20418132E+01</rscale>
<asrwt>0</asrwt>
<pdfrwt beam="1">0</pdfrwt>
<pdfrwt beam="2">0</pdfrwt>
<totfact> 0.44583899E+12</totfact>
</mgrwt>
</event>
<event>
 4    1  0.3324394E+006  0.2033328E+01  0.7546771E-02  0.2958585E+00
         22   -1    0    0    0    0  0.00000000000E+00  0.00000000000E+00  0.21135760685E+02  0.21135760685E+02  0.00000000000E+00 0.  1.
         22   -1    0    0    0    0 -0.00000000000E+00 -0.00000000000E+00 -0.20477343673E+00  0.20477343673E+00  0.00000000000E+00 0. -1.
          4    1    1    2  501    0  0.13778493661E+01  0.78933792205E+00  0.12722348648E+02  0.12883810708E+02  0.12700000000E+01 0. -1.
         -4    1    1    2    0  501 -0.13778493661E+01 -0.78933792205E+00  0.82086385999E+01  0.84567234136E+01  0.12700000000E+01 0. -1.
<mgrwt>
<rscale>  0 0.20333281E+01</rscale>
<asrwt>0</asrwt>
<pdfrwt beam="1">0</pdfrwt>
<pdfrwt beam="2">0</pdfrwt>
<totfact> 0.37824214E+12</totfact>
</mgrwt>
</event>
<event>
 4    1  0.3324394E+006  0.4670378E+01  0.7546771E-02  0.2164950E+00
         22   -1    0    0    0    0  0.00000000000E+00  0.00000000000E+00  0.15536247425E+01  0.15536247425E+01  0.00000000000E+00 0.  1.
         22   -1    0    0    0    0 -0.00000000000E+00 -0.00000000000E+00 -0.14198498702E+02  0.14198498702E+02  0.00000000000E+00 0. -1.
          4    1    1    2  501    0  0.42336694876E+01  0.15085005681E+01 -0.71553623564E+01  0.85446849998E+01  0.12700000000E+01 0. -1.
         -4    1    1    2    0  501 -0.42336694876E+01 -0.15085005681E+01 -0.54895116030E+01  0.72074384446E+01  0.12700000000E+01 0.  1.
<mgrwt>
<rscale>  0 0.46703781E+01</rscale>
<asrwt>0</asrwt>
<pdfrwt beam="1">0</pdfrwt>
<pdfrwt beam="2">0</pdfrwt>
<totfact> 0.62450922E+11</totfact>
</mgrwt>
</event>
<event>
 4    1  0.3324394E+006  0.2030856E+01  0.7546771E-02  0.2960203E+00
         22   -1    0    0    0    0  0.00000000000E+00  0.00000000000E+00  0.41658136031E+00  0.41658136031E+00  0.00000000000E+00 0.  1.
         22   -1    0    0    0    0 -0.00000000000E+00 -0.00000000000E+00 -0.10056413857E+02  0.10056413857E+02  0.00000000000E+00 0. -1.
          4    1    1    2  501    0  0.15385183359E+01 -0.38004820183E+00 -0.54718794551E+01  0.58365949043E+01  0.12700000000E+01 0.  1.
         -4    1    1    2    0  501 -0.15385183359E+01  0.38004820183E+00 -0.41679530414E+01  0.46364003129E+01  0.12700000000E+01 0.  1.
<mgrwt>
<rscale>  0 0.20308558E+01</rscale>
<asrwt>0</asrwt>
<pdfrwt beam="1">0</pdfrwt>
<pdfrwt beam="2">0</pdfrwt>
<totfact> 0.42531368E+12</totfact>
</mgrwt>
</event>
<event>
 4    1  0.3324394E+006  0.3591029E+01  0.7546771E-02  0.2363026E+00
         22   -1    0    0    0    0  0.00000000000E+00  0.00000000000E+00  0.26874679273E+01  0.26874679273E+01  0.00000000000E+00 0.  1.
         22   -1    0    0    0    0 -0.00000000000E+00 -0.00000000000E+00 -0.61274600630E+01  0.61274600630E+01  0.00000000000E+00 0. -1.
          4    1    1    2  501    0 -0.17637998338E+00  0.33543229380E+01 -0.37726895590E+01  0.52085198261E+01  0.12700000000E+01 0. -1.
         -4    1    1    2    0  501  0.17637998338E+00 -0.33543229380E+01  0.33269742332E+00  0.36064081642E+01  0.12700000000E+01 0.  1.
<mgrwt>
<rscale>  0 0.35910294E+01</rscale>
<asrwt>0</asrwt>
<pdfrwt beam="1">0</pdfrwt>
<pdfrwt beam="2">0</pdfrwt>
<totfact> 0.91396095E+11</totfact>
</mgrwt>
</event>
<event>
 4    1  0.3324394E+006  0.2087978E+01  0.7546771E-02  0.2923770E+00
         22   -1    0    0    0    0  0.00000000000E+00  0.00000000000E+00  0.15615562013E+01  0.15615562013E+01  0.00000000000E+00 0.  1.
         22   -1    0    0    0    0 -0.00000000000E+00 -0.00000000000E+00 -0.44453644615E+01  0.44453644615E+01  0.00000000000E+00 0. -1.
          4    1    1    2  501    0  0.69325575954E+00 -0.15053729989E+01 -0.32736721343E+01  0.38828572800E+01  0.12700000000E+01 0. -1.
         -4    1    1    2    0  501 -0.69325575954E+00  0.15053729989E+01  0.38986387407E+00  0.21240633828E+01  0.12700000000E+01 0.  1.
<mgrwt>
<rscale>  0 0.20879778E+01</rscale>
<asrwt>0</asrwt>
<pdfrwt beam="1">0</pdfrwt>
<pdfrwt beam="2">0</pdfrwt>
<totfact> 0.25072106E+12</totfact>
</mgrwt>
</event>
<event>
 4    1  0.3324394E+006  0.2009532E+01  0.7546771E-02  0.2974322E+00
         22   -1    0    0    0    0  0.00000000000E+00  0.00000000000E+00  0.10913878057E+02  0.10913878057E+02  0.00000000000E+00 0.  1.
         22   -1    0    0    0    0 -0.00000000000E+00 -0.00000000000E+00 -0.54396198210E+00  0.54396198210E+00  0.00000000000E+00 0. -1.
          4    1    1    2  501    0  0.10989363224E+01 -0.11034752035E+01  0.19452484012E+01  0.27968213936E+01  0.12700000000E+01 0.  1.
         -4    1    1    2    0  501 -0.10989363224E+01  0.11034752035E+01  0.84246676735E+01  0.86610186453E+01  0.12700000000E+01 0.  1.
<mgrwt>
<rscale>  0 0.20095319E+01</rscale>
<asrwt>0</asrwt>
<pdfrwt beam="1">0</pdfrwt>
<pdfrwt beam="2">0</pdfrwt>
<totfact> 0.28500293E+12</totfact>
</mgrwt>
</event>
<event>
 4    1  0.3324394E+006  0.2522986E+01  0.7546771E-02  0.2698482E+00
         22   -1    0    0    0    0  0.00000000000E+00  0.00000000000E+00  0.85472714623E+00  0.85472714623E+00  0.00000000000E+00 0.  1.
         22   -1    0    0    0    0 -0.00000000000E+00 -0.00000000000E+00 -0.10291580736E+02  0.10291580736E+02  0.00000000000E+00 0.  1.
          4    1    1    2  501    0 -0.18974112436E+01 -0.10734935878E+01 -0.76482532780E+01  0.80536473796E+01  0.12700000000E+01 0.  1.
         -4    1    1    2    0  501  0.18974112436E+01  0.10734935878E+01 -0.17886003122E+01  0.30926605031E+01  0.12700000000E+01 0.  1.
<mgrwt>
<rscale>  0 0.25229859E+01</rscale>
<asrwt>0</asrwt>
<pdfrwt beam="1">0</pdfrwt>
<pdfrwt beam="2">0</pdfrwt>
<totfact> 0.18329125E+12</totfact>
</mgrwt>
</event>
<event>
 4    1  0.3324394E+006  0.2060548E+01  0.7546771E-02  0.2941019E+00
         22   -1    0    0    0    0  0.00000000000E+00  0.00000000000E+00  0.82897357975E+01  0.82897357975E+01  0.00000000000E+00 0. -1.
         22   -1    0    0    0    0 -0.00000000000E+00 -0.00000000000E+00 -0.65408376247E+01  0.65408376247E+01  0.00000000000E+00 0.  1.
          4    1    1    2  501    0  0.15061768045E+01  0.60364734208E+00 -0.62445916677E+01  0.65757724851E+01  0.12700000000E+01 0.  1.
         -4    1    1    2    0  501 -0.15061768045E+01 -0.60364734208E+00  0.79934898405E+01  0.82548009370E+01  0.12700000000E+01 0. -1.
<mgrwt>
<rscale>  0 0.20605482E+01</rscale>
<asrwt>0</asrwt>
<pdfrwt beam="1">0</pdfrwt>
<pdfrwt beam="2">0</pdfrwt>
<totfact> 0.22309510E+11</totfact>
</mgrwt>
</event>
<event>
 4    1  0.3324394E+006  0.2029856E+01  0.7546771E-02  0.2960859E+00
         22   -1    0    0    0    0  0.00000000000E+00  0.00000000000E+00  0.10769243709E+01  0.10769243709E+01  0.00000000000E+00 0. -1.
         22   -1    0    0    0    0 -0.00000000000E+00 -0.00000000000E+00 -0.65422550843E+01  0.65422550843E+01  0.00000000000E+00 0.  1.
          4    1    1    2  501    0 -0.91747853194E+00 -0.12906006821E+01 -0.51873710207E+01  0.55703801561E+01  0.12700000000E+01 0.  1.
         -4    1    1    2    0  501  0.91747853194E+00  0.12906006821E+01 -0.27795969272E+00  0.20487992991E+01  0.12700000000E+01 0. -1.
<mgrwt>
<rscale>  0 0.20298564E+01</rscale>
<asrwt>0</asrwt>
<pdfrwt beam="1">0</pdfrwt>
<pdfrwt beam="2">0</pdfrwt>
<totfact> 0.24277143E+12</totfact>
</mgrwt>
</event>
<event>
 4    1  0.3324394E+006  0.2148357E+01  0.7546771E-02  0.2887307E+00
         22   -1    0    0    0    0  0.00000000000E+00  0.00000000000E+00  0.15695482303E+00  0.15695482303E+00  0.00000000000E+00 0. -1.
         22   -1    0    0    0    0 -0.00000000000E+00 -0.00000000000E+00 -0.29689413404E+02  0.29689413404E+02  0.00000000000E+00 0.  1.
          4    1    1    2  501    0 -0.20502222853E+00 -0.17206108343E+01 -0.16223909746E+02  0.16365533392E+02  0.12700000000E+01 0.  1.
         -4    1    1    2    0  501  0.20502222853E+00  0.17206108343E+01 -0.13308548835E+02  0.13480834835E+02  0.12700000000E+01 0. -1.
<mgrwt>
<rscale>  0 0.21483565E+01</rscale>
<asrwt>0</asrwt>
<pdfrwt beam="1">0</pdfrwt>
<pdfrwt beam="2">0</pdfrwt>
<totfact> 0.33133135E+12</totfact>
</mgrwt>
</event>
<event>
 4    1  0.3324394E+006  0.2451855E+01  0.7546771E-02  0.2730144E+00
         22   -1    0    0    0    0  0.00000000000E+00  0.00000000000E+00  0.27375402231E+01  0.27375402231E+01  0.00000000000E+00 0. -1.
         22   -1    0    0    0    0 -0.00000000000E+00 -0.00000000000E+00 -0.22695008485E+01  0.22695008485E+01  0.00000000000E+00 0.  1.
          4    1    1    2  501    0 -0.20810423734E+01  0.26068383165E+00 -0.21656935000E+00  0.24614011667E+01  0.12700000000E+01 0. -1.
         -4    1    1    2    0  501  0.20810423734E+01 -0.26068383165E+00  0.68460872459E+00  0.25456399050E+01  0.12700000000E+01 0. -1.
<mgrwt>
<rscale>  0 0.24518551E+01</rscale>
<asrwt>0</asrwt>
<pdfrwt beam="1">0</pdfrwt>
<pdfrwt beam="2">0</pdfrwt>
<totfact> 0.28735275E+12</totfact>
</mgrwt>
</event>
<event>
 4    1  0.3324394E+006  0.2965973E+01  0.7546771E-02  0.2533043E+00
         22   -1    0    0    0    0  0.00000000000E+00  0.00000000000E+00  0.61999726569E+00  0.61999726569E+00  0.00000000000E+00 0. -1.
         22   -1    0    0    0    0 -0.00000000000E+00 -0.00000000000E+00 -0.17824975899E+02  0.17824975899E+02  0.00000000000E+00 0. -1.
          4    1    1    2  501    0  0.18284530338E+01 -0.19598098078E+01 -0.12767902997E+02  0.13107873280E+02  0.12700000000E+01 0. -1.
         -4    1    1    2    0  501 -0.18284530338E+01  0.19598098078E+01 -0.44370756368E+01  0.53370998853E+01  0.12700000000E+01 0. -1.
<mgrwt>
<rscale>  0 0.29659729E+01</rscale>
<asrwt>0</asrwt>
<pdfrwt beam="1">0</pdfrwt>
<pdfrwt beam="2">0</pdfrwt>
<totfact> 0.13463864E+12</totfact>
</mgrwt>
</event>
<event>
 4    1  0.3324394E+006  0.2338724E+01  0.7546771E-02  0.2784204E+00
         22   -1    0    0    0    0  0.00000000000E+00  0.00000000000E+00  0.12759689966E+01  0.12759689966E+01  0.00000000000E+00 0. -1.
         22   -1    0    0    0    0 -0.00000000000E+00 -0.00000000000E+00 -0.14034041677E+02  0.14034041677E+02  0.00000000000E+00 0.  1.
          4    1    1    2  501    0 -0.12143098080E+01 -0.15434318529E+01 -0.12758708562E+02  0.12971286535E+02  0.12700000000E+01 0.  1.
         -4    1    1    2    0  501  0.12143098080E+01  0.15434318529E+01  0.63588154453E-03  0.23387241390E+01  0.12700000000E+01 0. -1.
<mgrwt>
<rscale>  0 0.23387241E+01</rscale>
<asrwt>0</asrwt>
<pdfrwt beam="1">0</pdfrwt>
<pdfrwt beam="2">0</pdfrwt>
<totfact> 0.79431418E+11</totfact>
</mgrwt>
</event>
<event>
 4    1  0.3324394E+006  0.4560910E+01  0.7546771E-02  0.2181389E+00
         22   -1    0    0    0    0  0.00000000000E+00  0.00000000000E+00  0.16550654976E+01  0.16550654976E+01  0.00000000000E+00 0.  1.
         22   -1    0    0    0    0 -0.00000000000E+00 -0.00000000000E+00 -0.16210653546E+02  0.16210653546E+02  0.00000000000E+00 0. -1.
          4    1    1    2  501    0 -0.10208824735E+01  0.42599061700E+01 -0.11511900454E+02  0.12382477687E+02  0.12700000000E+01 0. -1.
         -4    1    1    2    0  501  0.10208824735E+01 -0.42599061700E+01 -0.30436875936E+01  0.54832413561E+01  0.12700000000E+01 0.  1.
<mgrwt>
<rscale>  0 0.45609102E+01</rscale>
<asrwt>0</asrwt>
<pdfrwt beam="1">0</pdfrwt>
<pdfrwt beam="2">0</pdfrwt>
<totfact> 0.49319981E+11</totfact>
</mgrwt>
</event>
<event>
 4    1  0.3324394E+006  0.3416678E+01  0.7546771E-02  0.2404922E+00
         22   -1    0    0    0    0  0.00000000000E+00  0.00000000000E+00  0.66130097789E+00  0.66130097789E+00  0.00000000000E+00 0. -1.
         22   -1    0    0    0    0 -0.00000000000E+00 -0.00000000000E+00 -0.20239852586E+02  0.20239852586E+02  0.00000000000E+00 0.  1.
          4    1    1    2  501    0  0.19668648321E+01 -0.24884199530E+01 -0.60528634568E+01  0.69506004889E+01  0.12700000000E+01 0. -1.
         -4    1    1    2    0  501 -0.19668648321E+01  0.24884199530E+01 -0.13525688151E+02  0.13950553075E+02  0.12700000000E+01 0. -1.
<mgrwt>
<rscale>  0 0.34166784E+01</rscale>
<asrwt>0</asrwt>
<pdfrwt beam="1">0</pdfrwt>
<pdfrwt beam="2">0</pdfrwt>
<totfact> 0.10685321E+12</totfact>
</mgrwt>
</event>
<event>
 4    1  0.3324394E+006  0.2287446E+01  0.7546771E-02  0.2810366E+00
         22   -1    0    0    0    0  0.00000000000E+00  0.00000000000E+00  0.78298127346E+01  0.78298127346E+01  0.00000000000E+00 0.  1.
         22   -1    0    0    0    0 -0.00000000000E+00 -0.00000000000E+00 -0.68154771346E+00  0.68154771346E+00  0.00000000000E+00 0. -1.
          4    1    1    2  501    0  0.10085175716E+01 -0.16131957804E+01  0.29800789492E+01  0.37567644139E+01  0.12700000000E+01 0.  1.
         -4    1    1    2    0  501 -0.10085175716E+01  0.16131957804E+01  0.41681860719E+01  0.47545960342E+01  0.12700000000E+01 0. -1.
<mgrwt>
<rscale>  0 0.22874458E+01</rscale>
<asrwt>0</asrwt>
<pdfrwt beam="1">0</pdfrwt>
<pdfrwt beam="2">0</pdfrwt>
<totfact> 0.32970558E+12</totfact>
</mgrwt>
</event>
<event>
 4    1  0.3324394E+006  0.3273696E+01  0.7546771E-02  0.2442178E+00
         22   -1    0    0    0    0  0.00000000000E+00  0.00000000000E+00  0.63417670289E+00  0.63417670289E+00  0.00000000000E+00 0.  1.
         22   -1    0    0    0    0 -0.00000000000E+00 -0.00000000000E+00 -0.21651374731E+02  0.21651374731E+02  0.00000000000E+00 0. -1.
          4    1    1    2  501    0  0.16955899004E+01 -0.24958280456E+01 -0.15728912418E+02  0.16065981719E+02  0.12700000000E+01 0. -1.
         -4    1    1    2    0  501 -0.16955899004E+01  0.24958280456E+01 -0.52882856099E+01  0.62195697146E+01  0.12700000000E+01 0.  1.
<mgrwt>
<rscale>  0 0.32736956E+01</rscale>
<asrwt>0</asrwt>
<pdfrwt beam="1">0</pdfrwt>
<pdfrwt beam="2">0</pdfrwt>
<totfact> 0.10299504E+12</totfact>
</mgrwt>
</event>
<event>
 4    1  0.3324394E+006  0.6066078E+01  0.7546771E-02  0.2013812E+00
         22   -1    0    0    0    0  0.00000000000E+00  0.00000000000E+00  0.81220066879E+02  0.81220066879E+02  0.00000000000E+00 0. -1.
         22   -1    0    0    0    0 -0.00000000000E+00 -0.00000000000E+00 -0.71231403568E+00  0.71231403568E+00  0.00000000000E+00 0.  1.
          4    1    1    2  501    0  0.14206834826E+01 -0.57589979001E+01  0.15539177412E+02  0.16681226964E+02  0.12700000000E+01 0.  1.
         -4    1    1    2    0  501 -0.14206834826E+01  0.57589979001E+01  0.64968575431E+02  0.65251153950E+02  0.12700000000E+01 0. -1.
<mgrwt>
<rscale>  0 0.60660777E+01</rscale>
<asrwt>0</asrwt>
<pdfrwt beam="1">0</pdfrwt>
<pdfrwt beam="2">0</pdfrwt>
<totfact> 0.16057368E+11</totfact>
</mgrwt>
</event>
<event>
 4    1  0.3324394E+006  0.2513022E+01  0.7546771E-02  0.2702817E+00
         22   -1    0    0    0    0  0.00000000000E+00  0.00000000000E+00  0.44089197825E+02  0.44089197825E+02  0.00000000000E+00 0. -1.
         22   -1    0    0    0    0 -0.00000000000E+00 -0.00000000000E+00 -0.17210573249E+00  0.17210573249E+00  0.00000000000E+00 0.  1.
          4    1    1    2  501    0  0.17062051426E+01 -0.13383736065E+01  0.12895013081E+02  0.13137604129E+02  0.12700000000E+01 0. -1.
         -4    1    1    2    0  501 -0.17062051426E+01  0.13383736065E+01  0.31022079012E+02  0.31123699429E+02  0.12700000000E+01 0.  1.
<mgrwt>
<rscale>  0 0.25130221E+01</rscale>
<asrwt>0</asrwt>
<pdfrwt beam="1">0</pdfrwt>
<pdfrwt beam="2">0</pdfrwt>
<totfact> 0.17959482E+12</totfact>
</mgrwt>
</event>
<event>
 4    1  0.3324394E+006  0.2070907E+01  0.7546771E-02  0.2934453E+00
         22   -1    0    0    0    0  0.00000000000E+00  0.00000000000E+00  0.45479443437E+02  0.45479443437E+02  0.00000000000E+00 0.  1.
         22   -1    0    0    0    0 -0.00000000000E+00 -0.00000000000E+00 -0.14811939336E+00  0.14811939336E+00  0.00000000000E+00 0. -1.
          4    1    1    2  501    0  0.13310474642E+01 -0.95082489481E+00  0.89136672930E+01  0.91510720652E+01  0.12700000000E+01 0. -1.
         -4    1    1    2    0  501 -0.13310474642E+01  0.95082489481E+00  0.36417656750E+02  0.36476490765E+02  0.12700000000E+01 0.  1.
<mgrwt>
<rscale>  0 0.20709069E+01</rscale>
<asrwt>0</asrwt>
<pdfrwt beam="1">0</pdfrwt>
<pdfrwt beam="2">0</pdfrwt>
<totfact> 0.20377054E+12</totfact>
</mgrwt>
</event>
<event>
 4    1  0.3324394E+006  0.2223674E+01  0.7546771E-02  0.2844500E+00
         22   -1    0    0    0    0  0.00000000000E+00  0.00000000000E+00  0.81327435452E+00  0.81327435452E+00  0.00000000000E+00 0.  1.
         22   -1    0    0    0    0 -0.00000000000E+00 -0.00000000000E+00 -0.82037803140E+01  0.82037803140E+01  0.00000000000E+00 0. -1.
          4    1    1    2  501    0 -0.39901749937E-02 -0.18253249723E+01 -0.59891826047E+01  0.63886646061E+01  0.12700000000E+01 0. -1.
         -4    1    1    2    0  501  0.39901749937E-02  0.18253249723E+01 -0.14013233548E+01  0.26283900625E+01  0.12700000000E+01 0.  1.
<mgrwt>
<rscale>  0 0.22236743E+01</rscale>
<asrwt>0</asrwt>
<pdfrwt beam="1">0</pdfrwt>
<pdfrwt beam="2">0</pdfrwt>
<totfact> 0.25502249E+12</totfact>
</mgrwt>
</event>
<event>
 4    1  0.3324394E+006  0.2641612E+01  0.7546771E-02  0.2649209E+00
         22   -1    0    0    0    0  0.00000000000E+00  0.00000000000E+00  0.16129087258E+02  0.16129087258E+02  0.00000000000E+00 0.  1.
         22   -1    0    0    0    0 -0.00000000000E+00 -0.00000000000E+00 -0.52267361119E+00  0.52267361119E+00  0.00000000000E+00 0. -1.
          4    1    1    2  501    0 -0.20532970831E+01  0.10720007866E+01  0.43476878098E+01  0.50872884614E+01  0.12700000000E+01 0.  1.
         -4    1    1    2    0  501  0.20532970831E+01 -0.10720007866E+01  0.11258725837E+02  0.11564472408E+02  0.12700000000E+01 0.  1.
<mgrwt>
<rscale>  0 0.26416121E+01</rscale>
<asrwt>0</asrwt>
<pdfrwt beam="1">0</pdfrwt>
<pdfrwt beam="2">0</pdfrwt>
<totfact> 0.18483978E+12</totfact>
</mgrwt>
</event>
<event>
 4    1  0.3324394E+006  0.2434597E+01  0.7546771E-02  0.2738086E+00
         22   -1    0    0    0    0  0.00000000000E+00  0.00000000000E+00  0.34910886820E+01  0.34910886820E+01  0.00000000000E+00 0. -1.
         22   -1    0    0    0    0 -0.00000000000E+00 -0.00000000000E+00 -0.56750109632E+01  0.56750109632E+01  0.00000000000E+00 0.  1.
          4    1    1    2  501    0 -0.43370508412E+00  0.20313206464E+01 -0.49286720840E+01  0.54971876610E+01  0.12700000000E+01 0.  1.
         -4    1    1    2    0  501  0.43370508412E+00 -0.20313206464E+01  0.27447498028E+01  0.36689119842E+01  0.12700000000E+01 0. -1.
<mgrwt>
<rscale>  0 0.24345972E+01</rscale>
<asrwt>0</asrwt>
<pdfrwt beam="1">0</pdfrwt>
<pdfrwt beam="2">0</pdfrwt>
<totfact> 0.73748142E+11</totfact>
</mgrwt>
</event>
<event>
 4    1  0.3324394E+006  0.3491961E+01  0.7546771E-02  0.2386384E+00
         22   -1    0    0    0    0  0.00000000000E+00  0.00000000000E+00  0.58557403134E+01  0.58557403134E+01  0.00000000000E+00 0.  1.
         22   -1    0    0    0    0 -0.00000000000E+00 -0.00000000000E+00 -0.22778693542E+01  0.22778693542E+01  0.00000000000E+00 0. -1.
          4    1    1    2  501    0 -0.23629122513E+01  0.22355168719E+01  0.59750997384E+00  0.35427119782E+01  0.12700000000E+01 0. -1.
         -4    1    1    2    0  501  0.23629122513E+01 -0.22355168719E+01  0.29803609854E+01  0.45908976894E+01  0.12700000000E+01 0.  1.
<mgrwt>
<rscale>  0 0.34919608E+01</rscale>
<asrwt>0</asrwt>
<pdfrwt beam="1">0</pdfrwt>
<pdfrwt beam="2">0</pdfrwt>
<totfact> 0.11692024E+12</totfact>
</mgrwt>
</event>
<event>
 4    1  0.3324394E+006  0.2476019E+01  0.7546771E-02  0.2719198E+00
         22   -1    0    0    0    0  0.00000000000E+00  0.00000000000E+00  0.13482445209E+02  0.13482445209E+02  0.00000000000E+00 0.  1.
         22   -1    0    0    0    0 -0.00000000000E+00 -0.00000000000E+00 -0.46701668027E+00  0.46701668027E+00  0.00000000000E+00 0.  1.
          4    1    1    2  501    0 -0.21210103464E+01  0.13814188042E+00  0.76397134261E+01  0.80309332772E+01  0.12700000000E+01 0.  1.
         -4    1    1    2    0  501  0.21210103464E+01 -0.13814188042E+00  0.53757151030E+01  0.59185286126E+01  0.12700000000E+01 0.  1.
<mgrwt>
<rscale>  0 0.24760186E+01</rscale>
<asrwt>0</asrwt>
<pdfrwt beam="1">0</pdfrwt>
<pdfrwt beam="2">0</pdfrwt>
<totfact> 0.26165129E+12</totfact>
</mgrwt>
</event>
<event>
 4    1  0.3324394E+006  0.3226592E+01  0.7546771E-02  0.2455086E+00
         22   -1    0    0    0    0  0.00000000000E+00  0.00000000000E+00  0.16082714620E+01  0.16082714620E+01  0.00000000000E+00 0. -1.
         22   -1    0    0    0    0 -0.00000000000E+00 -0.00000000000E+00 -0.45076871972E+02  0.45076871972E+02  0.00000000000E+00 0.  1.
          4    1    1    2  501    0  0.13974788245E+01 -0.26163045979E+01 -0.43335869721E+02  0.43455822410E+02  0.12700000000E+01 0.  1.
         -4    1    1    2    0  501 -0.13974788245E+01  0.26163045979E+01 -0.13273078864E+00  0.32293210241E+01  0.12700000000E+01 0. -1.
<mgrwt>
<rscale>  0 0.32265921E+01</rscale>
<asrwt>0</asrwt>
<pdfrwt beam="1">0</pdfrwt>
<pdfrwt beam="2">0</pdfrwt>
<totfact> 0.13931314E+11</totfact>
</mgrwt>
</event>
<event>
 4    1  0.3324394E+006  0.2575787E+01  0.7546771E-02  0.2676033E+00
         22   -1    0    0    0    0  0.00000000000E+00  0.00000000000E+00  0.19995892912E+01  0.19995892912E+01  0.00000000000E+00 0. -1.
         22   -1    0    0    0    0 -0.00000000000E+00 -0.00000000000E+00 -0.33307069880E+01  0.33307069880E+01  0.00000000000E+00 0.  1.
          4    1    1    2  501    0 -0.22214773956E+01  0.29464319027E+00 -0.83004885551E+00  0.27062256985E+01  0.12700000000E+01 0.  1.
         -4    1    1    2    0  501  0.22214773956E+01 -0.29464319027E+00 -0.50106884127E+00  0.26240705807E+01  0.12700000000E+01 0.  1.
<mgrwt>
<rscale>  0 0.25757866E+01</rscale>
<asrwt>0</asrwt>
<pdfrwt beam="1">0</pdfrwt>
<pdfrwt beam="2">0</pdfrwt>
<totfact> 0.26462786E+12</totfact>
</mgrwt>
</event>
<event>
 4    1  0.3324394E+006  0.4109900E+01  0.7546771E-02  0.2256766E+00
         22   -1    0    0    0    0  0.00000000000E+00  0.00000000000E+00  0.21982773956E+01  0.21982773956E+01  0.00000000000E+00 0.  1.
         22   -1    0    0    0    0 -0.00000000000E+00 -0.00000000000E+00 -0.90308008939E+01  0.90308008939E+01  0.00000000000E+00 0.  1.
          4    1    1    2  501    0 -0.20834669436E+01 -0.33071962387E+01 -0.55845816892E+01  0.69338902580E+01  0.12700000000E+01 0.  1.
         -4    1    1    2    0  501  0.20834669436E+01  0.33071962387E+01 -0.12479418090E+01  0.42951880314E+01  0.12700000000E+01 0.  1.
<mgrwt>
<rscale>  0 0.41099004E+01</rscale>
<asrwt>0</asrwt>
<pdfrwt beam="1">0</pdfrwt>
<pdfrwt beam="2">0</pdfrwt>
<totfact> 0.72521114E+11</totfact>
</mgrwt>
</event>
<event>
 4    1  0.3324394E+006  0.3529672E+01  0.7546771E-02  0.2377358E+00
         22   -1    0    0    0    0  0.00000000000E+00  0.00000000000E+00  0.70087502400E+00  0.70087502400E+00  0.00000000000E+00 0. -1.
         22   -1    0    0    0    0 -0.00000000000E+00 -0.00000000000E+00 -0.17984087401E+02  0.17984087401E+02  0.00000000000E+00 0.  1.
          4    1    1    2  501    0 -0.27597583771E+01 -0.17970576844E+01 -0.96471397608E+01  0.10272579432E+02  0.12700000000E+01 0.  1.
         -4    1    1    2    0  501  0.27597583771E+01  0.17970576844E+01 -0.76360726157E+01  0.84123829926E+01  0.12700000000E+01 0. -1.
<mgrwt>
<rscale>  0 0.35296717E+01</rscale>
<asrwt>0</asrwt>
<pdfrwt beam="1">0</pdfrwt>
<pdfrwt beam="2">0</pdfrwt>
<totfact> 0.11587703E+12</totfact>
</mgrwt>
</event>
<event>
 4    1  0.3324394E+006  0.2150259E+01  0.7546771E-02  0.2886190E+00
         22   -1    0    0    0    0  0.00000000000E+00  0.00000000000E+00  0.27580704759E+01  0.27580704759E+01  0.00000000000E+00 0.  1.
         22   -1    0    0    0    0 -0.00000000000E+00 -0.00000000000E+00 -0.30313504086E+01  0.30313504086E+01  0.00000000000E+00 0. -1.
          4    1    1    2  501    0  0.30571392589E+00  0.17079964007E+01 -0.20719463264E+01  0.29860633431E+01  0.12700000000E+01 0. -1.
         -4    1    1    2    0  501 -0.30571392589E+00 -0.17079964007E+01  0.17986663937E+01  0.28033575415E+01  0.12700000000E+01 0.  1.
<mgrwt>
<rscale>  0 0.21502588E+01</rscale>
<asrwt>0</asrwt>
<pdfrwt beam="1">0</pdfrwt>
<pdfrwt beam="2">0</pdfrwt>
<totfact> 0.20334221E+12</totfact>
</mgrwt>
</event>
<event>
 4    1  0.3324394E+006  0.6490942E+01  0.7546771E-02  0.1978269E+00
         22   -1    0    0    0    0  0.00000000000E+00  0.00000000000E+00  0.72754661418E+01  0.72754661418E+01  0.00000000000E+00 0.  1.
         22   -1    0    0    0    0 -0.00000000000E+00 -0.00000000000E+00 -0.10790039244E+02  0.10790039244E+02  0.00000000000E+00 0. -1.
          4    1    1    2  501    0 -0.48431751374E+01  0.41307487749E+01 -0.79055326850E+01  0.10228869824E+02  0.12700000000E+01 0. -1.
         -4    1    1    2    0  501  0.48431751374E+01 -0.41307487749E+01  0.43909595833E+01  0.78366355609E+01  0.12700000000E+01 0.  1.
<mgrwt>
<rscale>  0 0.64909422E+01</rscale>
<asrwt>0</asrwt>
<pdfrwt beam="1">0</pdfrwt>
<pdfrwt beam="2">0</pdfrwt>
<totfact> 0.14286405E+11</totfact>
</mgrwt>
</event>
<event>
 4    1  0.3324394E+006  0.2289816E+01  0.7546771E-02  0.2809132E+00
         22   -1    0    0    0    0  0.00000000000E+00  0.00000000000E+00  0.19506859944E+02  0.19506859944E+02  0.00000000000E+00 0. -1.
         22   -1    0    0    0    0 -0.00000000000E+00 -0.00000000000E+00 -0.31831906886E+00  0.31831906886E+00  0.00000000000E+00 0.  1.
          4    1    1    2  501    0 -0.18075994713E+01  0.60244598605E+00  0.56842047961E+01  0.61280862575E+01  0.12700000000E+01 0. -1.
         -4    1    1    2    0  501  0.18075994713E+01 -0.60244598605E+00  0.13504336079E+02  0.13697092756E+02  0.12700000000E+01 0.  1.
<mgrwt>
<rscale>  0 0.22898159E+01</rscale>
<asrwt>0</asrwt>
<pdfrwt beam="1">0</pdfrwt>
<pdfrwt beam="2">0</pdfrwt>
<totfact> 0.25520435E+12</totfact>
</mgrwt>
</event>
<event>
 4    1  0.3324394E+006  0.2822828E+01  0.7546771E-02  0.2581317E+00
         22   -1    0    0    0    0  0.00000000000E+00  0.00000000000E+00  0.69457875649E+01  0.69457875649E+01  0.00000000000E+00 0.  1.
         22   -1    0    0    0    0 -0.00000000000E+00 -0.00000000000E+00 -0.11594780529E+01  0.11594780529E+01  0.00000000000E+00 0. -1.
          4    1    1    2  501    0 -0.16475030164E+01 -0.19081906702E+01  0.24764891764E+01  0.37551772879E+01  0.12700000000E+01 0. -1.
         -4    1    1    2    0  501  0.16475030164E+01  0.19081906702E+01  0.33098203357E+01  0.43500883298E+01  0.12700000000E+01 0.  1.
<mgrwt>
<rscale>  0 0.28228280E+01</rscale>
<asrwt>0</asrwt>
<pdfrwt beam="1">0</pdfrwt>
<pdfrwt beam="2">0</pdfrwt>
<totfact> 0.20772227E+12</totfact>
</mgrwt>
</event>
<event>
 4    1  0.3324394E+006  0.2364367E+01  0.7546771E-02  0.2771524E+00
         22   -1    0    0    0    0  0.00000000000E+00  0.00000000000E+00  0.19840089083E+00  0.19840089083E+00  0.00000000000E+00 0. -1.
         22   -1    0    0    0    0 -0.00000000000E+00 -0.00000000000E+00 -0.28488963986E+02  0.28488963986E+02  0.00000000000E+00 0.  1.
          4    1    1    2  501    0 -0.12780777067E+01 -0.15309627931E+01 -0.12642942839E+02  0.12862123982E+02  0.12700000000E+01 0.  1.
         -4    1    1    2    0  501  0.12780777067E+01  0.15309627931E+01 -0.15647620256E+02  0.15825240895E+02  0.12700000000E+01 0. -1.
<mgrwt>
<rscale>  0 0.23643667E+01</rscale>
<asrwt>0</asrwt>
<pdfrwt beam="1">0</pdfrwt>
<pdfrwt beam="2">0</pdfrwt>
<totfact> 0.26898099E+12</totfact>
</mgrwt>
</event>
<event>
 4    1  0.3324394E+006  0.2349260E+01  0.7546771E-02  0.2778963E+00
         22   -1    0    0    0    0  0.00000000000E+00  0.00000000000E+00  0.21991066720E+02  0.21991066720E+02  0.00000000000E+00 0.  1.
         22   -1    0    0    0    0 -0.00000000000E+00 -0.00000000000E+00 -0.33546184291E+00  0.33546184291E+00  0.00000000000E+00 0.  1.
          4    1    1    2  501    0  0.85050022210E+00 -0.17840319484E+01  0.52252480885E+01  0.57290695760E+01  0.12700000000E+01 0.  1.
         -4    1    1    2    0  501 -0.85050022210E+00  0.17840319484E+01  0.16430356789E+02  0.16597458987E+02  0.12700000000E+01 0.  1.
<mgrwt>
<rscale>  0 0.23492596E+01</rscale>
<asrwt>0</asrwt>
<pdfrwt beam="1">0</pdfrwt>
<pdfrwt beam="2">0</pdfrwt>
<totfact> 0.20715301E+12</totfact>
</mgrwt>
</event>
<event>
 4    1  0.3324394E+006  0.2432921E+01  0.7546771E-02  0.2738863E+00
         22   -1    0    0    0    0  0.00000000000E+00  0.00000000000E+00  0.80096519141E+01  0.80096519141E+01  0.00000000000E+00 0.  1.
         22   -1    0    0    0    0 -0.00000000000E+00 -0.00000000000E+00 -0.74487902118E+00  0.74487902118E+00  0.00000000000E+00 0.  1.
          4    1    1    2  501    0  0.13433509477E+01 -0.15816485089E+01  0.32433895181E+01  0.40544641249E+01  0.12700000000E+01 0.  1.
         -4    1    1    2    0  501 -0.13433509477E+01  0.15816485089E+01  0.40213833748E+01  0.47000668104E+01  0.12700000000E+01 0.  1.
<mgrwt>
<rscale>  0 0.24329208E+01</rscale>
<asrwt>0</asrwt>
<pdfrwt beam="1">0</pdfrwt>
<pdfrwt beam="2">0</pdfrwt>
<totfact> 0.29005021E+12</totfact>
</mgrwt>
</event>
<event>
 4    1  0.3324394E+006  0.2068032E+01  0.7546771E-02  0.2936269E+00
         22   -1    0    0    0    0  0.00000000000E+00  0.00000000000E+00  0.26486328274E+01  0.26486328274E+01  0.00000000000E+00 0. -1.
         22   -1    0    0    0    0 -0.00000000000E+00 -0.00000000000E+00 -0.16157840150E+01  0.16157840150E+01  0.00000000000E+00 0.  1.
          4    1    1    2  501    0  0.16281942885E+01 -0.11331006003E+00  0.46127757058E+00  0.21188517664E+01  0.12700000000E+01 0. -1.
         -4    1    1    2    0  501 -0.16281942885E+01  0.11331006003E+00  0.57157124174E+00  0.21455650760E+01  0.12700000000E+01 0. -1.
<mgrwt>
<rscale>  0 0.20680319E+01</rscale>
<asrwt>0</asrwt>
<pdfrwt beam="1">0</pdfrwt>
<pdfrwt beam="2">0</pdfrwt>
<totfact> 0.44230391E+12</totfact>
</mgrwt>
</event>
<event>
 4    1  0.3324394E+006  0.2038660E+01  0.7546771E-02  0.2955108E+00
         22   -1    0    0    0    0  0.00000000000E+00  0.00000000000E+00  0.23963476083E+02  0.23963476083E+02  0.00000000000E+00 0. -1.
         22   -1    0    0    0    0 -0.00000000000E+00 -0.00000000000E+00 -0.22052758253E+00  0.22052758253E+00  0.00000000000E+00 0.  1.
          4    1    1    2  501    0 -0.15601602797E+01 -0.33035436662E+00  0.62837175191E+01  0.66061516760E+01  0.12700000000E+01 0.  1.
         -4    1    1    2    0  501  0.15601602797E+01  0.33035436662E+00  0.17459230981E+02  0.17577851989E+02  0.12700000000E+01 0. -1.
<mgrwt>
<rscale>  0 0.20386599E+01</rscale>
<asrwt>0</asrwt>
<pdfrwt beam="1">0</pdfrwt>
<pdfrwt beam="2">0</pdfrwt>
<totfact> 0.29746052E+12</totfact>
</mgrwt>
</event>
<event>
 4    1  0.3324394E+006  0.2987212E+01  0.7546771E-02  0.2526237E+00
         22   -1    0    0    0    0  0.00000000000E+00  0.00000000000E+00  0.44921135301E+01  0.44921135301E+01  0.00000000000E+00 0. -1.
         22   -1    0    0    0    0 -0.00000000000E+00 -0.00000000000E+00 -0.66355147920E+01  0.66355147920E+01  0.00000000000E+00 0.  1.
          4    1    1    2  501    0 -0.10598376514E+01 -0.24874237517E+01 -0.57288196416E+01  0.64608673763E+01  0.12700000000E+01 0.  1.
         -4    1    1    2    0  501  0.10598376514E+01  0.24874237517E+01  0.35854183797E+01  0.46667609458E+01  0.12700000000E+01 0. -1.
<mgrwt>
<rscale>  0 0.29872115E+01</rscale>
<asrwt>0</asrwt>
<pdfrwt beam="1">0</pdfrwt>
<pdfrwt beam="2">0</pdfrwt>
<totfact> 0.45505069E+11</totfact>
</mgrwt>
</event>
<event>
 4    1  0.3324394E+006  0.2692733E+01  0.7546771E-02  0.2629211E+00
         22   -1    0    0    0    0  0.00000000000E+00  0.00000000000E+00  0.51151940091E+01  0.51151940091E+01  0.00000000000E+00 0. -1.
         22   -1    0    0    0    0 -0.00000000000E+00 -0.00000000000E+00 -0.86880220907E+01  0.86880220907E+01  0.00000000000E+00 0.  1.
          4    1    1    2  501    0  0.47026353257E+00  0.23273946457E+01 -0.80999474069E+01  0.85358046851E+01  0.12700000000E+01 0.  1.
         -4    1    1    2    0  501 -0.47026353257E+00 -0.23273946457E+01  0.45271193253E+01  0.52674114148E+01  0.12700000000E+01 0. -1.
<mgrwt>
<rscale>  0 0.26927335E+01</rscale>
<asrwt>0</asrwt>
<pdfrwt beam="1">0</pdfrwt>
<pdfrwt beam="2">0</pdfrwt>
<totfact> 0.28246331E+11</totfact>
</mgrwt>
</event>
<event>
 4    1  0.3324394E+006  0.2116375E+01  0.7546771E-02  0.2906370E+00
         22   -1    0    0    0    0  0.00000000000E+00  0.00000000000E+00  0.48188711331E+01  0.48188711331E+01  0.00000000000E+00 0. -1.
         22   -1    0    0    0    0 -0.00000000000E+00 -0.00000000000E+00 -0.12776795499E+01  0.12776795499E+01  0.00000000000E+00 0.  1.
          4    1    1    2  501    0 -0.10363319069E+01  0.13387153043E+01  0.17927563555E+00  0.21239543876E+01  0.12700000000E+01 0.  1.
         -4    1    1    2    0  501  0.10363319069E+01 -0.13387153043E+01  0.33619159476E+01  0.39725962954E+01  0.12700000000E+01 0. -1.
<mgrwt>
<rscale>  0 0.21163748E+01</rscale>
<asrwt>0</asrwt>
<pdfrwt beam="1">0</pdfrwt>
<pdfrwt beam="2">0</pdfrwt>
<totfact> 0.28704087E+12</totfact>
</mgrwt>
</event>
<event>
 4    1  0.3324394E+006  0.3064424E+01  0.7546771E-02  0.2502205E+00
         22   -1    0    0    0    0  0.00000000000E+00  0.00000000000E+00  0.15272975247E+01  0.15272975247E+01  0.00000000000E+00 0. -1.
         22   -1    0    0    0    0 -0.00000000000E+00 -0.00000000000E+00 -0.88859997630E+01  0.88859997630E+01  0.00000000000E+00 0. -1.
          4    1    1    2  501    0  0.27888474096E+01 -0.11294504247E-01 -0.78949296024E+00  0.31644899390E+01  0.12700000000E+01 0. -1.
         -4    1    1    2    0  501 -0.27888474096E+01  0.11294504247E-01 -0.65692092781E+01  0.72488073487E+01  0.12700000000E+01 0. -1.
<mgrwt>
<rscale>  0 0.30644245E+01</rscale>
<asrwt>0</asrwt>
<pdfrwt beam="1">0</pdfrwt>
<pdfrwt beam="2">0</pdfrwt>
<totfact> 0.11263089E+12</totfact>
</mgrwt>
</event>
<event>
 4    1  0.3324394E+006  0.2039800E+01  0.7546771E-02  0.2954367E+00
         22   -1    0    0    0    0  0.00000000000E+00  0.00000000000E+00  0.77334682279E+01  0.77334682279E+01  0.00000000000E+00 0.  1.
         22   -1    0    0    0    0 -0.00000000000E+00 -0.00000000000E+00 -0.11670146815E+01  0.11670146815E+01  0.00000000000E+00 0.  1.
          4    1    1    2  501    0 -0.15817766559E+01 -0.21416342889E+00  0.16085722459E-01  0.20398632586E+01  0.12700000000E+01 0.  1.
         -4    1    1    2    0  501  0.15817766559E+01  0.21416342889E+00  0.65503678239E+01  0.68606196507E+01  0.12700000000E+01 0.  1.
<mgrwt>
<rscale>  0 0.20397998E+01</rscale>
<asrwt>0</asrwt>
<pdfrwt beam="1">0</pdfrwt>
<pdfrwt beam="2">0</pdfrwt>
<totfact> 0.18127168E+12</totfact>
</mgrwt>
</event>
<event>
 4    1  0.3324394E+006  0.2314914E+01  0.7546771E-02  0.2796216E+00
         22   -1    0    0    0    0  0.00000000000E+00  0.00000000000E+00  0.19991084060E+01  0.19991084060E+01  0.00000000000E+00 0.  1.
         22   -1    0    0    0    0 -0.00000000000E+00 -0.00000000000E+00 -0.30958741119E+01  0.30958741119E+01  0.00000000000E+00 0. -1.
          4    1    1    2  501    0  0.62717830616E+00 -0.18310031079E+01 -0.14813891130E+01  0.27483338067E+01  0.12700000000E+01 0. -1.
         -4    1    1    2    0  501 -0.62717830616E+00  0.18310031079E+01  0.38462340714E+00  0.23466487113E+01  0.12700000000E+01 0.  1.
<mgrwt>
<rscale>  0 0.23149136E+01</rscale>
<asrwt>0</asrwt>
<pdfrwt beam="1">0</pdfrwt>
<pdfrwt beam="2">0</pdfrwt>
<totfact> 0.28833776E+12</totfact>
</mgrwt>
</event>
<event>
 4    1  0.3324394E+006  0.2314397E+01  0.7546771E-02  0.2796479E+00
         22   -1    0    0    0    0  0.00000000000E+00  0.00000000000E+00  0.61944628182E+00  0.61944628182E+00  0.00000000000E+00 0. -1.
         22   -1    0    0    0    0 -0.00000000000E+00 -0.00000000000E+00 -0.14298842237E+02  0.14298842237E+02  0.00000000000E+00 0. -1.
          4    1    1    2  501    0  0.38764836533E+00 -0.18955905957E+01 -0.11529218478E+02  0.11759222495E+02  0.12700000000E+01 0. -1.
         -4    1    1    2    0  501 -0.38764836533E+00  0.18955905957E+01 -0.21501774767E+01  0.31590660238E+01  0.12700000000E+01 0. -1.
<mgrwt>
<rscale>  0 0.23143973E+01</rscale>
<asrwt>0</asrwt>
<pdfrwt beam="1">0</pdfrwt>
<pdfrwt beam="2">0</pdfrwt>
<totfact> 0.17689642E+12</totfact>
</mgrwt>
</event>
<event>
 4    1  0.3324394E+006  0.2548628E+01  0.7546771E-02  0.2687472E+00
         22   -1    0    0    0    0  0.00000000000E+00  0.00000000000E+00  0.61594941115E+01  0.61594941115E+01  0.00000000000E+00 0.  1.
         22   -1    0    0    0    0 -0.00000000000E+00 -0.00000000000E+00 -0.15476255340E+01  0.15476255340E+01  0.00000000000E+00 0. -1.
          4    1    1    2  501    0 -0.20414550091E+01 -0.84561480071E+00  0.13080394865E+00  0.25519820960E+01  0.12700000000E+01 0. -1.
         -4    1    1    2    0  501  0.20414550091E+01  0.84561480071E+00  0.44810646289E+01  0.51551375494E+01  0.12700000000E+01 0.  1.
<mgrwt>
<rscale>  0 0.25486277E+01</rscale>
<asrwt>0</asrwt>
<pdfrwt beam="1">0</pdfrwt>
<pdfrwt beam="2">0</pdfrwt>
<totfact> 0.17209766E+12</totfact>
</mgrwt>
</event>
<event>
 4    1  0.3324394E+006  0.2987359E+01  0.7546771E-02  0.2526190E+00
         22   -1    0    0    0    0  0.00000000000E+00  0.00000000000E+00  0.72311040605E+00  0.72311040605E+00  0.00000000000E+00 0. -1.
         22   -1    0    0    0    0 -0.00000000000E+00 -0.00000000000E+00 -0.12604775228E+02  0.12604775228E+02  0.00000000000E+00 0. -1.
          4    1    1    2  501    0 -0.81178360128E+00  0.25792283418E+01 -0.69038142198E+01  0.75224306069E+01  0.12700000000E+01 0. -1.
         -4    1    1    2    0  501  0.81178360128E+00 -0.25792283418E+01 -0.49778506020E+01  0.58054550270E+01  0.12700000000E+01 0. -1.
<mgrwt>
<rscale>  0 0.29873586E+01</rscale>
<asrwt>0</asrwt>
<pdfrwt beam="1">0</pdfrwt>
<pdfrwt beam="2">0</pdfrwt>
<totfact> 0.17321779E+12</totfact>
</mgrwt>
</event>
<event>
 4    1  0.3324394E+006  0.3297086E+01  0.7546771E-02  0.2435889E+00
         22   -1    0    0    0    0  0.00000000000E+00  0.00000000000E+00  0.70975458481E+01  0.70975458481E+01  0.00000000000E+00 0.  1.
         22   -1    0    0    0    0 -0.00000000000E+00 -0.00000000000E+00 -0.20375199359E+01  0.20375199359E+01  0.00000000000E+00 0.  1.
          4    1    1    2  501    0  0.27516174422E+01 -0.12986443061E+01  0.25407141744E+00  0.33068607269E+01  0.12700000000E+01 0.  1.
         -4    1    1    2    0  501 -0.27516174422E+01  0.12986443061E+01  0.48059544947E+01  0.58282050571E+01  0.12700000000E+01 0.  1.
<mgrwt>
<rscale>  0 0.32970859E+01</rscale>
<asrwt>0</asrwt>
<pdfrwt beam="1">0</pdfrwt>
<pdfrwt beam="2">0</pdfrwt>
<totfact> 0.10577436E+12</totfact>
</mgrwt>
</event>
<event>
 4    1  0.3324394E+006  0.2365233E+01  0.7546771E-02  0.2771100E+00
         22   -1    0    0    0    0  0.00000000000E+00  0.00000000000E+00  0.53454766166E+02  0.53454766166E+02  0.00000000000E+00 0.  1.
         22   -1    0    0    0    0 -0.00000000000E+00 -0.00000000000E+00 -0.16951201058E+00  0.16951201058E+00  0.00000000000E+00 0. -1.
          4    1    1    2  501    0 -0.18263412009E+01 -0.80368339446E+00  0.10057897380E+02  0.10332261558E+02  0.12700000000E+01 0. -1.
         -4    1    1    2    0  501  0.18263412009E+01  0.80368339446E+00  0.43227356775E+02  0.43292016619E+02  0.12700000000E+01 0.  1.
<mgrwt>
<rscale>  0 0.23652334E+01</rscale>
<asrwt>0</asrwt>
<pdfrwt beam="1">0</pdfrwt>
<pdfrwt beam="2">0</pdfrwt>
<totfact> 0.14175439E+12</totfact>
</mgrwt>
</event>
<event>
 4    1  0.3324394E+006  0.2024699E+01  0.7546771E-02  0.2964250E+00
         22   -1    0    0    0    0  0.00000000000E+00  0.00000000000E+00  0.26491649094E+00  0.26491649094E+00  0.00000000000E+00 0.  1.
         22   -1    0    0    0    0 -0.00000000000E+00 -0.00000000000E+00 -0.18259375323E+02  0.18259375323E+02  0.00000000000E+00 0. -1.
          4    1    1    2  501    0 -0.11910030429E+01 -0.10334486867E+01 -0.12614533508E+02  0.12775987636E+02  0.12700000000E+01 0. -1.
         -4    1    1    2    0  501  0.11910030429E+01  0.10334486867E+01 -0.53799253240E+01  0.57483041785E+01  0.12700000000E+01 0.  1.
<mgrwt>
<rscale>  0 0.20246986E+01</rscale>
<asrwt>0</asrwt>
<pdfrwt beam="1">0</pdfrwt>
<pdfrwt beam="2">0</pdfrwt>
<totfact> 0.34035602E+12</totfact>
</mgrwt>
</event>
<event>
 4    1  0.3324394E+006  0.3135683E+01  0.7546771E-02  0.2480967E+00
         22   -1    0    0    0    0  0.00000000000E+00  0.00000000000E+00  0.44337315950E+01  0.44337315950E+01  0.00000000000E+00 0.  1.
         22   -1    0    0    0    0 -0.00000000000E+00 -0.00000000000E+00 -0.30121911096E+01  0.30121911096E+01  0.00000000000E+00 0. -1.
          4    1    1    2  501    0  0.35566253274E+00 -0.28448390723E+01 -0.12012961491E+01  0.33579186444E+01  0.12700000000E+01 0. -1.
         -4    1    1    2    0  501 -0.35566253274E+00  0.28448390723E+01  0.26228366345E+01  0.40880040602E+01  0.12700000000E+01 0.  1.
<mgrwt>
<rscale>  0 0.31356826E+01</rscale>
<asrwt>0</asrwt>
<pdfrwt beam="1">0</pdfrwt>
<pdfrwt beam="2">0</pdfrwt>
<totfact> 0.11740868E+12</totfact>
</mgrwt>
</event>
<event>
 4    1  0.3324394E+006  0.3526493E+01  0.7546771E-02  0.2378113E+00
         22   -1    0    0    0    0  0.00000000000E+00  0.00000000000E+00  0.12177531474E+01  0.12177531474E+01  0.00000000000E+00 0. -1.
         22   -1    0    0    0    0 -0.00000000000E+00 -0.00000000000E+00 -0.16415002490E+02  0.16415002490E+02  0.00000000000E+00 0.  1.
          4    1    1    2  501    0 -0.20574681156E+01 -0.25671152469E+01 -0.13018102618E+02  0.13487295930E+02  0.12700000000E+01 0. -1.
         -4    1    1    2    0  501  0.20574681156E+01  0.25671152469E+01 -0.21791467250E+01  0.41454597075E+01  0.12700000000E+01 0.  1.
<mgrwt>
<rscale>  0 0.35264934E+01</rscale>
<asrwt>0</asrwt>
<pdfrwt beam="1">0</pdfrwt>
<pdfrwt beam="2">0</pdfrwt>
<totfact> 0.69098475E+11</totfact>
</mgrwt>
</event>
