<event>
 4    1  0.3130345E+006  0.2123885E+01  0.7546771E-02  0.2901844E+00
         22   -1    0    0    0    0  0.00000000000E+00  0.00000000000E+00  0.12541707114E+02  0.12541707114E+02  0.00000000000E+00 0.  1.
         22   -1    0    0    0    0 -0.00000000000E+00 -0.00000000000E+00 -0.19807270131E+01  0.19807270131E+01  0.00000000000E+00 0. -1.
          2    1    1    2  501    0 -0.17735564200E+01  0.11684947720E+01 -0.12884623051E+01  0.24841545889E+01  0.25500000000E-02 0. -1.
         -2    1    1    2    0  501  0.17735564200E+01 -0.11684947720E+01  0.11849442406E+02  0.12038279539E+02  0.25500000000E-02 0.  1.
<mgrwt>
<rscale>  0 0.21238853E+01</rscale>
<asrwt>0</asrwt>
<pdfrwt beam="1">0</pdfrwt>
<pdfrwt beam="2">0</pdfrwt>
<totfact> 0.54920162E+11</totfact>
</mgrwt>
</event>
<event>
 4    1  0.3130345E+006  0.2744440E+01  0.7546771E-02  0.2609680E+00
         22   -1    0    0    0    0  0.00000000000E+00  0.00000000000E+00  0.16571259500E+00  0.16571259500E+00  0.00000000000E+00 0.  1.
         22   -1    0    0    0    0 -0.00000000000E+00 -0.00000000000E+00 -0.53102133052E+02  0.53102133052E+02  0.00000000000E+00 0. -1.
          2    1    1    2  501    0 -0.85707060043E+00  0.26071775430E+01 -0.36577407336E+02  0.36680221900E+02  0.25500000000E-02 0. -1.
         -2    1    1    2    0  501  0.85707060043E+00 -0.26071775430E+01 -0.16359013122E+02  0.16587623747E+02  0.25500000000E-02 0.  1.
<mgrwt>
<rscale>  0 0.27444401E+01</rscale>
<asrwt>0</asrwt>
<pdfrwt beam="1">0</pdfrwt>
<pdfrwt beam="2">0</pdfrwt>
<totfact> 0.14666299E+12</totfact>
</mgrwt>
</event>
<event>
 4    1  0.3130345E+006  0.3323753E+01  0.7546771E-02  0.2428815E+00
         22   -1    0    0    0    0  0.00000000000E+00  0.00000000000E+00  0.14790898003E+01  0.14790898003E+01  0.00000000000E+00 0. -1.
         22   -1    0    0    0    0 -0.00000000000E+00 -0.00000000000E+00 -0.15614514970E+02  0.15614514970E+02  0.00000000000E+00 0.  1.
          2    1    1    2  501    0  0.10823999448E+01  0.31425683179E+01 -0.13240744256E+02  0.13651543511E+02  0.25500000000E-02 0.  1.
         -2    1    1    2    0  501 -0.10823999448E+01 -0.31425683179E+01 -0.89468091358E+00  0.34420612593E+01  0.25500000000E-02 0. -1.
<mgrwt>
<rscale>  0 0.33237527E+01</rscale>
<asrwt>0</asrwt>
<pdfrwt beam="1">0</pdfrwt>
<pdfrwt beam="2">0</pdfrwt>
<totfact> 0.58792084E+11</totfact>
</mgrwt>
</event>
<event>
 4    1  0.3130345E+006  0.2573057E+01  0.7546771E-02  0.2677172E+00
         22   -1    0    0    0    0  0.00000000000E+00  0.00000000000E+00  0.50346085445E+00  0.50346085445E+00  0.00000000000E+00 0. -1.
         22   -1    0    0    0    0 -0.00000000000E+00 -0.00000000000E+00 -0.14612302004E+02  0.14612302004E+02  0.00000000000E+00 0.  1.
          2    1    1    2  501    0 -0.28705158531E+00  0.25569941661E+01 -0.94451237143E+01  0.97893302252E+01  0.25500000000E-02 0.  1.
         -2    1    1    2    0  501  0.28705158531E+00 -0.25569941661E+01 -0.46637174355E+01  0.53264326335E+01  0.25500000000E-02 0. -1.
<mgrwt>
<rscale>  0 0.25730574E+01</rscale>
<asrwt>0</asrwt>
<pdfrwt beam="1">0</pdfrwt>
<pdfrwt beam="2">0</pdfrwt>
<totfact> 0.21777266E+12</totfact>
</mgrwt>
</event>
<event>
 4    1  0.3130345E+006  0.2285593E+01  0.7546771E-02  0.2811332E+00
         22   -1    0    0    0    0  0.00000000000E+00  0.00000000000E+00  0.15669515918E+00  0.15669515918E+00  0.00000000000E+00 0.  1.
         22   -1    0    0    0    0 -0.00000000000E+00 -0.00000000000E+00 -0.43877408516E+02  0.43877408516E+02  0.00000000000E+00 0. -1.
          2    1    1    2  501    0 -0.12542934739E+01  0.19106745645E+01 -0.32650879817E+02  0.32730778920E+02  0.25500000000E-02 0.  1.
         -2    1    1    2    0  501  0.12542934739E+01 -0.19106745645E+01 -0.11069833540E+02  0.11303324755E+02  0.25500000000E-02 0. -1.
<mgrwt>
<rscale>  0 0.22855931E+01</rscale>
<asrwt>0</asrwt>
<pdfrwt beam="1">0</pdfrwt>
<pdfrwt beam="2">0</pdfrwt>
<totfact> 0.20061083E+12</totfact>
</mgrwt>
</event>
<event>
 4    1  0.3130345E+006  0.2217956E+01  0.7546771E-02  0.2847652E+00
         22   -1    0    0    0    0  0.00000000000E+00  0.00000000000E+00  0.54975610521E+00  0.54975610521E+00  0.00000000000E+00 0.  1.
         22   -1    0    0    0    0 -0.00000000000E+00 -0.00000000000E+00 -0.59982119873E+02  0.59982119873E+02  0.00000000000E+00 0. -1.
          2    1    1    2  501    0 -0.22118624117E+01  0.16428125070E+00 -0.57633434504E+02  0.57676096460E+02  0.25500000000E-02 0. -1.
         -2    1    1    2    0  501  0.22118624117E+01 -0.16428125070E+00 -0.17989292642E+01  0.28557795184E+01  0.25500000000E-02 0.  1.
<mgrwt>
<rscale>  0 0.22179563E+01</rscale>
<asrwt>0</asrwt>
<pdfrwt beam="1">0</pdfrwt>
<pdfrwt beam="2">0</pdfrwt>
<totfact> 0.32487698E+11</totfact>
</mgrwt>
</event>
<event>
 4    1  0.3130345E+006  0.4204553E+01  0.7546771E-02  0.2239819E+00
         22   -1    0    0    0    0  0.00000000000E+00  0.00000000000E+00  0.78902849305E+00  0.78902849305E+00  0.00000000000E+00 0. -1.
         22   -1    0    0    0    0 -0.00000000000E+00 -0.00000000000E+00 -0.42446982066E+02  0.42446982066E+02  0.00000000000E+00 0.  1.
          2    1    1    2  501    0 -0.41302876635E+01  0.78675455162E+00 -0.35683592390E+02  0.35930447134E+02  0.25500000000E-02 0.  1.
         -2    1    1    2    0  501  0.41302876635E+01 -0.78675455162E+00 -0.59743611832E+01  0.73055634251E+01  0.25500000000E-02 0. -1.
<mgrwt>
<rscale>  0 0.42045529E+01</rscale>
<asrwt>0</asrwt>
<pdfrwt beam="1">0</pdfrwt>
<pdfrwt beam="2">0</pdfrwt>
<totfact> 0.34044927E+11</totfact>
</mgrwt>
</event>
<event>
 4    1  0.3130345E+006  0.3354447E+01  0.7546771E-02  0.2420794E+00
         22   -1    0    0    0    0  0.00000000000E+00  0.00000000000E+00  0.93879072066E+00  0.93879072066E+00  0.00000000000E+00 0. -1.
         22   -1    0    0    0    0 -0.00000000000E+00 -0.00000000000E+00 -0.14590038827E+02  0.14590038827E+02  0.00000000000E+00 0.  1.
          2    1    1    2  501    0  0.33200264989E+01 -0.47930652800E+00 -0.10105872598E+02  0.10648050440E+02  0.25500000000E-02 0.  1.
         -2    1    1    2    0  501 -0.33200264989E+01  0.47930652800E+00 -0.35453755083E+01  0.48807791078E+01  0.25500000000E-02 0. -1.
<mgrwt>
<rscale>  0 0.33544474E+01</rscale>
<asrwt>0</asrwt>
<pdfrwt beam="1">0</pdfrwt>
<pdfrwt beam="2">0</pdfrwt>
<totfact> 0.10757917E+12</totfact>
</mgrwt>
</event>
<event>
 4    1  0.3130345E+006  0.2193064E+01  0.7546771E-02  0.2861557E+00
         22   -1    0    0    0    0  0.00000000000E+00  0.00000000000E+00  0.16791110079E+01  0.16791110079E+01  0.00000000000E+00 0.  1.
         22   -1    0    0    0    0 -0.00000000000E+00 -0.00000000000E+00 -0.28775555086E+01  0.28775555086E+01  0.00000000000E+00 0. -1.
          2    1    1    2  501    0  0.21600056658E+01 -0.37934015174E+00 -0.44477042536E+00  0.22377110316E+01  0.25500000000E-02 0. -1.
         -2    1    1    2    0  501 -0.21600056658E+01  0.37934015174E+00 -0.75367407536E+00  0.23189554850E+01  0.25500000000E-02 0.  1.
<mgrwt>
<rscale>  0 0.21930641E+01</rscale>
<asrwt>0</asrwt>
<pdfrwt beam="1">0</pdfrwt>
<pdfrwt beam="2">0</pdfrwt>
<totfact> 0.38416089E+12</totfact>
</mgrwt>
</event>
<event>
 4    1  0.3130345E+006  0.2199450E+01  0.7546771E-02  0.2857961E+00
         22   -1    0    0    0    0  0.00000000000E+00  0.00000000000E+00  0.18049061881E+01  0.18049061881E+01  0.00000000000E+00 0.  1.
         22   -1    0    0    0    0 -0.00000000000E+00 -0.00000000000E+00 -0.28437626552E+01  0.28437626552E+01  0.00000000000E+00 0. -1.
          2    1    1    2  501    0  0.18969906879E+01 -0.11131034404E+01 -0.10767969797E+01  0.24488918264E+01  0.25500000000E-02 0. -1.
         -2    1    1    2    0  501 -0.18969906879E+01  0.11131034404E+01  0.37940512573E-01  0.21997770169E+01  0.25500000000E-02 0.  1.
<mgrwt>
<rscale>  0 0.21994498E+01</rscale>
<asrwt>0</asrwt>
<pdfrwt beam="1">0</pdfrwt>
<pdfrwt beam="2">0</pdfrwt>
<totfact> 0.35833585E+12</totfact>
</mgrwt>
</event>
<event>
 4    1  0.3130345E+006  0.2616363E+01  0.7546771E-02  0.2659351E+00
         22   -1    0    0    0    0  0.00000000000E+00  0.00000000000E+00  0.46900853058E+02  0.46900853058E+02  0.00000000000E+00 0.  1.
         22   -1    0    0    0    0 -0.00000000000E+00 -0.00000000000E+00 -0.14628568014E+00  0.14628568014E+00  0.00000000000E+00 0. -1.
          2    1    1    2  501    0 -0.25973847920E+01 -0.31454850100E+00  0.22256735053E+02  0.22409989073E+02  0.25500000000E-02 0. -1.
         -2    1    1    2    0  501  0.25973847920E+01  0.31454850100E+00  0.24497832325E+02  0.24637149665E+02  0.25500000000E-02 0.  1.
<mgrwt>
<rscale>  0 0.26163629E+01</rscale>
<asrwt>0</asrwt>
<pdfrwt beam="1">0</pdfrwt>
<pdfrwt beam="2">0</pdfrwt>
<totfact> 0.19846113E+12</totfact>
</mgrwt>
</event>
<event>
 4    1  0.3130345E+006  0.2355310E+01  0.7546771E-02  0.2775973E+00
         22   -1    0    0    0    0  0.00000000000E+00  0.00000000000E+00  0.19132927535E+01  0.19132927535E+01  0.00000000000E+00 0. -1.
         22   -1    0    0    0    0 -0.00000000000E+00 -0.00000000000E+00 -0.11575808296E+02  0.11575808296E+02  0.00000000000E+00 0.  1.
          2    1    1    2  501    0  0.11948133610E+01 -0.20297532609E+01 -0.10670362401E+02  0.10927219113E+02  0.25500000000E-02 0.  1.
         -2    1    1    2    0  501 -0.11948133610E+01  0.20297532609E+01  0.10078468581E+01  0.25618819371E+01  0.25500000000E-02 0. -1.
<mgrwt>
<rscale>  0 0.23553097E+01</rscale>
<asrwt>0</asrwt>
<pdfrwt beam="1">0</pdfrwt>
<pdfrwt beam="2">0</pdfrwt>
<totfact> 0.63037745E+11</totfact>
</mgrwt>
</event>
<event>
 4    1  0.3130345E+006  0.2902827E+01  0.7546771E-02  0.2553809E+00
         22   -1    0    0    0    0  0.00000000000E+00  0.00000000000E+00  0.40889301696E+01  0.40889301696E+01  0.00000000000E+00 0. -1.
         22   -1    0    0    0    0 -0.00000000000E+00 -0.00000000000E+00 -0.37047097234E+01  0.37047097234E+01  0.00000000000E+00 0.  1.
          2    1    1    2  501    0  0.26374927531E+01 -0.12124484340E+01 -0.24037076470E+01  0.37688481241E+01  0.25500000000E-02 0.  1.
         -2    1    1    2    0  501 -0.26374927531E+01  0.12124484340E+01  0.27879280932E+01  0.40247917689E+01  0.25500000000E-02 0. -1.
<mgrwt>
<rscale>  0 0.29028272E+01</rscale>
<asrwt>0</asrwt>
<pdfrwt beam="1">0</pdfrwt>
<pdfrwt beam="2">0</pdfrwt>
<totfact> 0.10136184E+12</totfact>
</mgrwt>
</event>
<event>
 4    1  0.3130345E+006  0.2070133E+01  0.7546771E-02  0.2934942E+00
         22   -1    0    0    0    0  0.00000000000E+00  0.00000000000E+00  0.48895663409E+01  0.48895663409E+01  0.00000000000E+00 0. -1.
         22   -1    0    0    0    0 -0.00000000000E+00 -0.00000000000E+00 -0.11658018341E+01  0.11658018341E+01  0.00000000000E+00 0.  1.
          2    1    1    2  501    0 -0.17736354984E+01 -0.10675486685E+01  0.35349456026E+00  0.21000971280E+01  0.25500000000E-02 0.  1.
         -2    1    1    2    0  501  0.17736354984E+01  0.10675486685E+01  0.33702699465E+01  0.39552710470E+01  0.25500000000E-02 0. -1.
<mgrwt>
<rscale>  0 0.20701327E+01</rscale>
<asrwt>0</asrwt>
<pdfrwt beam="1">0</pdfrwt>
<pdfrwt beam="2">0</pdfrwt>
<totfact> 0.31337682E+12</totfact>
</mgrwt>
</event>
<event>
 4    1  0.3130345E+006  0.2131516E+01  0.7546771E-02  0.2897276E+00
         22   -1    0    0    0    0  0.00000000000E+00  0.00000000000E+00  0.58562045461E+00  0.58562045461E+00  0.00000000000E+00 0. -1.
         22   -1    0    0    0    0 -0.00000000000E+00 -0.00000000000E+00 -0.77585330986E+01  0.77585330986E+01  0.00000000000E+00 0.  1.
          2    1    1    2  501    0 -0.77915831671E+00  0.19840028117E+01 -0.36137419289E+01  0.41955323942E+01  0.25500000000E-02 0.  1.
         -2    1    1    2    0  501  0.77915831671E+00 -0.19840028117E+01 -0.35591707152E+01  0.41486211591E+01  0.25500000000E-02 0. -1.
<mgrwt>
<rscale>  0 0.21315162E+01</rscale>
<asrwt>0</asrwt>
<pdfrwt beam="1">0</pdfrwt>
<pdfrwt beam="2">0</pdfrwt>
<totfact> 0.39585919E+12</totfact>
</mgrwt>
</event>
<event>
 4    1  0.3130345E+006  0.3014662E+01  0.7546771E-02  0.2517567E+00
         22   -1    0    0    0    0  0.00000000000E+00  0.00000000000E+00  0.38229997847E+01  0.38229997847E+01  0.00000000000E+00 0. -1.
         22   -1    0    0    0    0 -0.00000000000E+00 -0.00000000000E+00 -0.30485761128E+01  0.30485761128E+01  0.00000000000E+00 0.  1.
          2    1    1    2  501    0  0.24368842321E+01 -0.17747615019E+01  0.19995186764E+01  0.36174942418E+01  0.25500000000E-02 0. -1.
         -2    1    1    2    0  501 -0.24368842321E+01  0.17747615019E+01 -0.12250950045E+01  0.32540816557E+01  0.25500000000E-02 0.  1.
<mgrwt>
<rscale>  0 0.30146624E+01</rscale>
<asrwt>0</asrwt>
<pdfrwt beam="1">0</pdfrwt>
<pdfrwt beam="2">0</pdfrwt>
<totfact> 0.13784989E+12</totfact>
</mgrwt>
</event>
<event>
 4    1  0.3130345E+006  0.2372569E+01  0.7546771E-02  0.2767523E+00
         22   -1    0    0    0    0  0.00000000000E+00  0.00000000000E+00  0.53414227861E+01  0.53414227861E+01  0.00000000000E+00 0. -1.
         22   -1    0    0    0    0 -0.00000000000E+00 -0.00000000000E+00 -0.11883414814E+01  0.11883414814E+01  0.00000000000E+00 0.  1.
          2    1    1    2  501    0 -0.16387117376E+01  0.17157215116E+01  0.97820054631E+00  0.25663123885E+01  0.25500000000E-02 0.  1.
         -2    1    1    2    0  501  0.16387117376E+01 -0.17157215116E+01  0.31748807584E+01  0.39634518789E+01  0.25500000000E-02 0. -1.
<mgrwt>
<rscale>  0 0.23725689E+01</rscale>
<asrwt>0</asrwt>
<pdfrwt beam="1">0</pdfrwt>
<pdfrwt beam="2">0</pdfrwt>
<totfact> 0.27611421E+12</totfact>
</mgrwt>
</event>
<event>
 4    1  0.3130345E+006  0.6696748E+01  0.7546771E-02  0.1962314E+00
         22   -1    0    0    0    0  0.00000000000E+00  0.00000000000E+00  0.78764462517E+01  0.78764462517E+01  0.00000000000E+00 0.  1.
         22   -1    0    0    0    0 -0.00000000000E+00 -0.00000000000E+00 -0.60606146859E+01  0.60606146859E+01  0.00000000000E+00 0. -1.
          2    1    1    2  501    0 -0.47621968452E+01 -0.47082812285E+01 -0.80660089541E+00  0.67451495480E+01  0.25500000000E-02 0. -1.
         -2    1    1    2    0  501  0.47621968452E+01  0.47082812285E+01  0.26224324612E+01  0.71919113895E+01  0.25500000000E-02 0.  1.
<mgrwt>
<rscale>  0 0.66967483E+01</rscale>
<asrwt>0</asrwt>
<pdfrwt beam="1">0</pdfrwt>
<pdfrwt beam="2">0</pdfrwt>
<totfact> 0.25984629E+11</totfact>
</mgrwt>
</event>
<event>
 4    1  0.3130345E+006  0.3862559E+01  0.7546771E-02  0.2304362E+00
         22   -1    0    0    0    0  0.00000000000E+00  0.00000000000E+00  0.29809357840E+00  0.29809357840E+00  0.00000000000E+00 0.  1.
         22   -1    0    0    0    0 -0.00000000000E+00 -0.00000000000E+00 -0.50241542670E+02  0.50241542670E+02  0.00000000000E+00 0. -1.
          2    1    1    2  501    0  0.70760443246E+00 -0.37971901269E+01 -0.26535013443E+02  0.26814665797E+02  0.25500000000E-02 0.  1.
         -2    1    1    2    0  501 -0.70760443246E+00  0.37971901269E+01 -0.23408435649E+02  0.23724970452E+02  0.25500000000E-02 0. -1.
<mgrwt>
<rscale>  0 0.38625592E+01</rscale>
<asrwt>0</asrwt>
<pdfrwt beam="1">0</pdfrwt>
<pdfrwt beam="2">0</pdfrwt>
<totfact> 0.81900702E+11</totfact>
</mgrwt>
</event>
<event>
 4    1  0.3130345E+006  0.2181936E+01  0.7546771E-02  0.2867872E+00
         22   -1    0    0    0    0  0.00000000000E+00  0.00000000000E+00  0.49578541017E+01  0.49578541017E+01  0.00000000000E+00 0. -1.
         22   -1    0    0    0    0 -0.00000000000E+00 -0.00000000000E+00 -0.17765897549E+02  0.17765897549E+02  0.00000000000E+00 0.  1.
          2    1    1    2  501    0 -0.18097317485E+01  0.12188964411E+01 -0.17454572361E+02  0.17590421835E+02  0.25500000000E-02 0.  1.
         -2    1    1    2    0  501  0.18097317485E+01 -0.12188964411E+01  0.46465289142E+01  0.51333298149E+01  0.25500000000E-02 0. -1.
<mgrwt>
<rscale>  0 0.21819358E+01</rscale>
<asrwt>0</asrwt>
<pdfrwt beam="1">0</pdfrwt>
<pdfrwt beam="2">0</pdfrwt>
<totfact> 0.12232941E+11</totfact>
</mgrwt>
</event>
<event>
 4    1  0.3130345E+006  0.2079898E+01  0.7546771E-02  0.2928805E+00
         22   -1    0    0    0    0  0.00000000000E+00  0.00000000000E+00  0.11576601689E+01  0.11576601689E+01  0.00000000000E+00 0.  1.
         22   -1    0    0    0    0 -0.00000000000E+00 -0.00000000000E+00 -0.37893929982E+01  0.37893929982E+01  0.00000000000E+00 0. -1.
          2    1    1    2  501    0 -0.13840689042E+01  0.15525210314E+01 -0.16071981163E+01  0.26285091919E+01  0.25500000000E-02 0. -1.
         -2    1    1    2    0  501  0.13840689042E+01 -0.15525210314E+01 -0.10245347131E+01  0.23185439752E+01  0.25500000000E-02 0.  1.
<mgrwt>
<rscale>  0 0.20798978E+01</rscale>
<asrwt>0</asrwt>
<pdfrwt beam="1">0</pdfrwt>
<pdfrwt beam="2">0</pdfrwt>
<totfact> 0.42665897E+12</totfact>
</mgrwt>
</event>
<event>
 4    1  0.3130345E+006  0.3102248E+01  0.7546771E-02  0.2490824E+00
         22   -1    0    0    0    0  0.00000000000E+00  0.00000000000E+00  0.37951953688E+00  0.37951953688E+00  0.00000000000E+00 0.  1.
         22   -1    0    0    0    0 -0.00000000000E+00 -0.00000000000E+00 -0.45151018979E+02  0.45151018979E+02  0.00000000000E+00 0. -1.
          2    1    1    2  501    0  0.25153366973E+01  0.18157686999E+01 -0.37458502769E+02  0.37586744616E+02  0.25500000000E-02 0. -1.
         -2    1    1    2    0  501 -0.25153366973E+01 -0.18157686999E+01 -0.73129966736E+01  0.79437938998E+01  0.25500000000E-02 0.  1.
<mgrwt>
<rscale>  0 0.31022478E+01</rscale>
<asrwt>0</asrwt>
<pdfrwt beam="1">0</pdfrwt>
<pdfrwt beam="2">0</pdfrwt>
<totfact> 0.71858129E+11</totfact>
</mgrwt>
</event>
<event>
 4    1  0.3130345E+006  0.2640002E+01  0.7546771E-02  0.2649851E+00
         22   -1    0    0    0    0  0.00000000000E+00  0.00000000000E+00  0.13111582242E+03  0.13111582242E+03  0.00000000000E+00 0. -1.
         22   -1    0    0    0    0 -0.00000000000E+00 -0.00000000000E+00 -0.64601666776E-01  0.64601666776E-01  0.00000000000E+00 0.  1.
          2    1    1    2  501    0  0.20475150094E+01  0.16665187241E+01  0.37917583084E+02  0.38009376682E+02  0.25500000000E-02 0.  1.
         -2    1    1    2    0  501 -0.20475150094E+01 -0.16665187241E+01  0.93133637669E+02  0.93171047403E+02  0.25500000000E-02 0. -1.
<mgrwt>
<rscale>  0 0.26400017E+01</rscale>
<asrwt>0</asrwt>
<pdfrwt beam="1">0</pdfrwt>
<pdfrwt beam="2">0</pdfrwt>
<totfact> 0.11918005E+12</totfact>
</mgrwt>
</event>
<event>
 4    1  0.3130345E+006  0.2167190E+01  0.7546771E-02  0.2876335E+00
         22   -1    0    0    0    0  0.00000000000E+00  0.00000000000E+00  0.68966456179E+00  0.68966456179E+00  0.00000000000E+00 0.  1.
         22   -1    0    0    0    0 -0.00000000000E+00 -0.00000000000E+00 -0.69903641903E+01  0.69903641903E+01  0.00000000000E+00 0. -1.
          2    1    1    2  501    0  0.99615559197E+00 -0.19246770191E+01 -0.37669252452E+01  0.43458531840E+01  0.25500000000E-02 0. -1.
         -2    1    1    2    0  501 -0.99615559197E+00  0.19246770191E+01 -0.25337743833E+01  0.33341755681E+01  0.25500000000E-02 0.  1.
<mgrwt>
<rscale>  0 0.21671904E+01</rscale>
<asrwt>0</asrwt>
<pdfrwt beam="1">0</pdfrwt>
<pdfrwt beam="2">0</pdfrwt>
<totfact> 0.37264970E+12</totfact>
</mgrwt>
</event>
<event>
 4    1  0.3130345E+006  0.3290573E+01  0.7546771E-02  0.2437632E+00
         22   -1    0    0    0    0  0.00000000000E+00  0.00000000000E+00  0.66995025546E+01  0.66995025546E+01  0.00000000000E+00 0.  1.
         22   -1    0    0    0    0 -0.00000000000E+00 -0.00000000000E+00 -0.21443219721E+01  0.21443219721E+01  0.00000000000E+00 0. -1.
          2    1    1    2  501    0  0.32060595134E+01  0.74097600949E+00  0.83148594377E-01  0.32916231925E+01  0.25500000000E-02 0. -1.
         -2    1    1    2    0  501 -0.32060595134E+01 -0.74097600949E+00  0.44720319881E+01  0.55522013342E+01  0.25500000000E-02 0.  1.
<mgrwt>
<rscale>  0 0.32905728E+01</rscale>
<asrwt>0</asrwt>
<pdfrwt beam="1">0</pdfrwt>
<pdfrwt beam="2">0</pdfrwt>
<totfact> 0.10681739E+12</totfact>
</mgrwt>
</event>
<event>
 4    1  0.3130345E+006  0.2102388E+01  0.7546771E-02  0.2914883E+00
         22   -1    0    0    0    0  0.00000000000E+00  0.00000000000E+00  0.22365365660E+01  0.22365365660E+01  0.00000000000E+00 0. -1.
         22   -1    0    0    0    0 -0.00000000000E+00 -0.00000000000E+00 -0.22168252137E+01  0.22168252137E+01  0.00000000000E+00 0.  1.
          2    1    1    2  501    0 -0.11497198273E+00 -0.20992404629E+01 -0.72361934736E+00  0.22234344021E+01  0.25500000000E-02 0.  1.
         -2    1    1    2    0  501  0.11497198273E+00  0.20992404629E+01  0.74333069963E+00  0.22299273776E+01  0.25500000000E-02 0. -1.
<mgrwt>
<rscale>  0 0.21023881E+01</rscale>
<asrwt>0</asrwt>
<pdfrwt beam="1">0</pdfrwt>
<pdfrwt beam="2">0</pdfrwt>
<totfact> 0.37351877E+12</totfact>
</mgrwt>
</event>
<event>
 4    1  0.3130345E+006  0.2932085E+01  0.7546771E-02  0.2544087E+00
         22   -1    0    0    0    0  0.00000000000E+00  0.00000000000E+00  0.85196159017E+00  0.85196159017E+00  0.00000000000E+00 0.  1.
         22   -1    0    0    0    0 -0.00000000000E+00 -0.00000000000E+00 -0.10575093829E+02  0.10575093829E+02  0.00000000000E+00 0. -1.
          2    1    1    2  501    0 -0.28894860087E+01 -0.49798025330E+00 -0.60840403847E+01  0.67537150985E+01  0.25500000000E-02 0.  1.
         -2    1    1    2    0  501  0.28894860087E+01  0.49798025330E+00 -0.36390918541E+01  0.46733403206E+01  0.25500000000E-02 0. -1.
<mgrwt>
<rscale>  0 0.29320846E+01</rscale>
<asrwt>0</asrwt>
<pdfrwt beam="1">0</pdfrwt>
<pdfrwt beam="2">0</pdfrwt>
<totfact> 0.17800777E+12</totfact>
</mgrwt>
</event>
<event>
 4    1  0.3130345E+006  0.2695904E+01  0.7546771E-02  0.2627994E+00
         22   -1    0    0    0    0  0.00000000000E+00  0.00000000000E+00  0.46876373249E+02  0.46876373249E+02  0.00000000000E+00 0. -1.
         22   -1    0    0    0    0 -0.00000000000E+00 -0.00000000000E+00 -0.18869951633E+00  0.18869951633E+00  0.00000000000E+00 0.  1.
          2    1    1    2  501    0  0.77567813561E+00  0.25819012092E+01  0.13405540257E+02  0.13673931641E+02  0.25500000000E-02 0.  1.
         -2    1    1    2    0  501 -0.77567813561E+00 -0.25819012092E+01  0.33282133476E+02  0.33391141125E+02  0.25500000000E-02 0. -1.
<mgrwt>
<rscale>  0 0.26959037E+01</rscale>
<asrwt>0</asrwt>
<pdfrwt beam="1">0</pdfrwt>
<pdfrwt beam="2">0</pdfrwt>
<totfact> 0.14958787E+12</totfact>
</mgrwt>
</event>
<event>
 4    1  0.3130345E+006  0.2988713E+01  0.7546771E-02  0.2525759E+00
         22   -1    0    0    0    0  0.00000000000E+00  0.00000000000E+00  0.92058486685E+01  0.92058486685E+01  0.00000000000E+00 0.  1.
         22   -1    0    0    0    0 -0.00000000000E+00 -0.00000000000E+00 -0.97339587861E+00  0.97339587861E+00  0.00000000000E+00 0. -1.
          2    1    1    2  501    0  0.23166619256E+01 -0.18882461603E+01  0.44034232255E+01  0.53218923932E+01  0.25500000000E-02 0.  1.
         -2    1    1    2    0  501 -0.23166619256E+01  0.18882461603E+01  0.38290295644E+01  0.48573521539E+01  0.25500000000E-02 0. -1.
<mgrwt>
<rscale>  0 0.29887125E+01</rscale>
<asrwt>0</asrwt>
<pdfrwt beam="1">0</pdfrwt>
<pdfrwt beam="2">0</pdfrwt>
<totfact> 0.18086236E+12</totfact>
</mgrwt>
</event>
<event>
 4    1  0.3130345E+006  0.4738963E+01  0.7546771E-02  0.2155514E+00
         22   -1    0    0    0    0  0.00000000000E+00  0.00000000000E+00  0.20200292905E+01  0.20200292905E+01  0.00000000000E+00 0.  1.
         22   -1    0    0    0    0 -0.00000000000E+00 -0.00000000000E+00 -0.12713127306E+02  0.12713127306E+02  0.00000000000E+00 0. -1.
          2    1    1    2  501    0 -0.54248786729E+00  0.47078092015E+01 -0.79563006622E+01  0.92606958320E+01  0.25500000000E-02 0. -1.
         -2    1    1    2    0  501  0.54248786729E+00 -0.47078092015E+01 -0.27367973535E+01  0.54724607646E+01  0.25500000000E-02 0.  1.
<mgrwt>
<rscale>  0 0.47389627E+01</rscale>
<asrwt>0</asrwt>
<pdfrwt beam="1">0</pdfrwt>
<pdfrwt beam="2">0</pdfrwt>
<totfact> 0.52807243E+11</totfact>
</mgrwt>
</event>
<event>
 4    1  0.3130345E+006  0.3148672E+01  0.7546771E-02  0.2477188E+00
         22   -1    0    0    0    0  0.00000000000E+00  0.00000000000E+00  0.12396781522E+02  0.12396781522E+02  0.00000000000E+00 0.  1.
         22   -1    0    0    0    0 -0.00000000000E+00 -0.00000000000E+00 -0.16669724418E+01  0.16669724418E+01  0.00000000000E+00 0. -1.
          2    1    1    2  501    0  0.59702268965E+00 -0.30915519178E+01  0.29294069197E+00  0.31622697709E+01  0.25500000000E-02 0. -1.
         -2    1    1    2    0  501 -0.59702268965E+00  0.30915519178E+01  0.10436868388E+02  0.10901484193E+02  0.25500000000E-02 0.  1.
<mgrwt>
<rscale>  0 0.31486721E+01</rscale>
<asrwt>0</asrwt>
<pdfrwt beam="1">0</pdfrwt>
<pdfrwt beam="2">0</pdfrwt>
<totfact> 0.67990627E+11</totfact>
</mgrwt>
</event>
<event>
 4    1  0.3130345E+006  0.2699196E+01  0.7546771E-02  0.2626733E+00
         22   -1    0    0    0    0  0.00000000000E+00  0.00000000000E+00  0.10557191280E+01  0.10557191280E+01  0.00000000000E+00 0. -1.
         22   -1    0    0    0    0 -0.00000000000E+00 -0.00000000000E+00 -0.96473664125E+01  0.96473664125E+01  0.00000000000E+00 0.  1.
          2    1    1    2  501    0  0.26090131704E+01 -0.69188432046E+00 -0.71510673660E+01  0.76435217415E+01  0.25500000000E-02 0.  1.
         -2    1    1    2    0  501 -0.26090131704E+01  0.69188432046E+00 -0.14405799185E+01  0.30595637990E+01  0.25500000000E-02 0. -1.
<mgrwt>
<rscale>  0 0.26991962E+01</rscale>
<asrwt>0</asrwt>
<pdfrwt beam="1">0</pdfrwt>
<pdfrwt beam="2">0</pdfrwt>
<totfact> 0.15577140E+12</totfact>
</mgrwt>
</event>
<event>
 4    1  0.3130345E+006  0.3317513E+01  0.7546771E-02  0.2430461E+00
         22   -1    0    0    0    0  0.00000000000E+00  0.00000000000E+00  0.62121019545E+01  0.62121019545E+01  0.00000000000E+00 0. -1.
         22   -1    0    0    0    0 -0.00000000000E+00 -0.00000000000E+00 -0.82069074331E+01  0.82069074331E+01  0.00000000000E+00 0.  1.
          2    1    1    2  501    0  0.28904403314E+01 -0.16282625696E+01 -0.73814696006E+01  0.80927117996E+01  0.25500000000E-02 0.  1.
         -2    1    1    2    0  501 -0.28904403314E+01  0.16282625696E+01  0.53866641220E+01  0.63262975879E+01  0.25500000000E-02 0. -1.
<mgrwt>
<rscale>  0 0.33175127E+01</rscale>
<asrwt>0</asrwt>
<pdfrwt beam="1">0</pdfrwt>
<pdfrwt beam="2">0</pdfrwt>
<totfact> 0.24015665E+11</totfact>
</mgrwt>
</event>
<event>
 4    1  0.3130345E+006  0.3502053E+01  0.7546771E-02  0.2383952E+00
         22   -1    0    0    0    0  0.00000000000E+00  0.00000000000E+00  0.13280288946E+02  0.13280288946E+02  0.00000000000E+00 0. -1.
         22   -1    0    0    0    0 -0.00000000000E+00 -0.00000000000E+00 -0.16306446523E+01  0.16306446523E+01  0.00000000000E+00 0.  1.
          2    1    1    2  501    0  0.14294915347E+01 -0.31970179096E+01  0.91519365898E+00  0.36196623459E+01  0.25500000000E-02 0.  1.
         -2    1    1    2    0  501 -0.14294915347E+01  0.31970179096E+01  0.10734450635E+02  0.11291271252E+02  0.25500000000E-02 0. -1.
<mgrwt>
<rscale>  0 0.35020531E+01</rscale>
<asrwt>0</asrwt>
<pdfrwt beam="1">0</pdfrwt>
<pdfrwt beam="2">0</pdfrwt>
<totfact> 0.64110309E+11</totfact>
</mgrwt>
</event>
<event>
 4    1  0.3130345E+006  0.2739942E+01  0.7546771E-02  0.2611352E+00
         22   -1    0    0    0    0  0.00000000000E+00  0.00000000000E+00  0.69169865275E+00  0.69169865275E+00  0.00000000000E+00 0.  1.
         22   -1    0    0    0    0 -0.00000000000E+00 -0.00000000000E+00 -0.10859266040E+02  0.10859266040E+02  0.00000000000E+00 0. -1.
          2    1    1    2  501    0  0.25660265196E+01 -0.96061537128E+00 -0.52180446081E+01  0.58936635487E+01  0.25500000000E-02 0. -1.
         -2    1    1    2    0  501 -0.25660265196E+01  0.96061537128E+00 -0.49495227792E+01  0.56573011441E+01  0.25500000000E-02 0.  1.
<mgrwt>
<rscale>  0 0.27399417E+01</rscale>
<asrwt>0</asrwt>
<pdfrwt beam="1">0</pdfrwt>
<pdfrwt beam="2">0</pdfrwt>
<totfact> 0.21844501E+12</totfact>
</mgrwt>
</event>
<event>
 4    1  0.3130345E+006  0.2069640E+01  0.7546771E-02  0.2935253E+00
         22   -1    0    0    0    0  0.00000000000E+00  0.00000000000E+00  0.39334095630E+01  0.39334095630E+01  0.00000000000E+00 0.  1.
         22   -1    0    0    0    0 -0.00000000000E+00 -0.00000000000E+00 -0.16511274690E+01  0.16511274690E+01  0.00000000000E+00 0. -1.
          2    1    1    2  501    0  0.42762606690E+00 -0.20249788486E+01 -0.48812295954E+00  0.21264227982E+01  0.25500000000E-02 0. -1.
         -2    1    1    2    0  501 -0.42762606690E+00  0.20249788486E+01  0.27704050535E+01  0.34581142337E+01  0.25500000000E-02 0.  1.
<mgrwt>
<rscale>  0 0.20696400E+01</rscale>
<asrwt>0</asrwt>
<pdfrwt beam="1">0</pdfrwt>
<pdfrwt beam="2">0</pdfrwt>
<totfact> 0.27157127E+12</totfact>
</mgrwt>
</event>
<event>
 4    1  0.3130345E+006  0.2539216E+01  0.7546771E-02  0.2691489E+00
         22   -1    0    0    0    0  0.00000000000E+00  0.00000000000E+00  0.12531406493E+00  0.12531406493E+00  0.00000000000E+00 0. -1.
         22   -1    0    0    0    0 -0.00000000000E+00 -0.00000000000E+00 -0.80852543690E+02  0.80852543690E+02  0.00000000000E+00 0.  1.
          2    1    1    2  501    0 -0.22752142503E+01  0.11273923701E+01 -0.64779329570E+02  0.64829076497E+02  0.25500000000E-02 0.  1.
         -2    1    1    2    0  501  0.22752142503E+01 -0.11273923701E+01 -0.15947900055E+02  0.16148781258E+02  0.25500000000E-02 0. -1.
<mgrwt>
<rscale>  0 0.25392164E+01</rscale>
<asrwt>0</asrwt>
<pdfrwt beam="1">0</pdfrwt>
<pdfrwt beam="2">0</pdfrwt>
<totfact> 0.11345604E+12</totfact>
</mgrwt>
</event>
<event>
 4    1  0.3130345E+006  0.2447025E+01  0.7546771E-02  0.2732356E+00
         22   -1    0    0    0    0  0.00000000000E+00  0.00000000000E+00  0.15212258547E+00  0.15212258547E+00  0.00000000000E+00 0.  1.
         22   -1    0    0    0    0 -0.00000000000E+00 -0.00000000000E+00 -0.48671357969E+02  0.48671357969E+02  0.00000000000E+00 0. -1.
          2    1    1    2  501    0 -0.20636765814E+01 -0.13149773378E+01 -0.34935629264E+02  0.35021223922E+02  0.25500000000E-02 0. -1.
         -2    1    1    2    0  501  0.20636765814E+01  0.13149773378E+01 -0.13583606119E+02  0.13802256632E+02  0.25500000000E-02 0.  1.
<mgrwt>
<rscale>  0 0.24470253E+01</rscale>
<asrwt>0</asrwt>
<pdfrwt beam="1">0</pdfrwt>
<pdfrwt beam="2">0</pdfrwt>
<totfact> 0.18097757E+12</totfact>
</mgrwt>
</event>
<event>
 4    1  0.3130345E+006  0.2306599E+01  0.7546771E-02  0.2800465E+00
         22   -1    0    0    0    0  0.00000000000E+00  0.00000000000E+00  0.30184189019E+02  0.30184189019E+02  0.00000000000E+00 0. -1.
         22   -1    0    0    0    0 -0.00000000000E+00 -0.00000000000E+00 -0.20040168915E+00  0.20040168915E+00  0.00000000000E+00 0.  1.
          2    1    1    2  501    0  0.23063779369E+01  0.31849932017E-01  0.97193969939E+01  0.99893482286E+01  0.25500000000E-02 0.  1.
         -2    1    1    2    0  501 -0.23063779369E+01 -0.31849932017E-01  0.20264390335E+02  0.20395242479E+02  0.25500000000E-02 0. -1.
<mgrwt>
<rscale>  0 0.23065993E+01</rscale>
<asrwt>0</asrwt>
<pdfrwt beam="1">0</pdfrwt>
<pdfrwt beam="2">0</pdfrwt>
<totfact> 0.24712011E+12</totfact>
</mgrwt>
</event>
<event>
 4    1  0.3130345E+006  0.2121530E+01  0.7546771E-02  0.2903260E+00
         22   -1    0    0    0    0  0.00000000000E+00  0.00000000000E+00  0.25470272438E+01  0.25470272438E+01  0.00000000000E+00 0. -1.
         22   -1    0    0    0    0 -0.00000000000E+00 -0.00000000000E+00 -0.19238288577E+01  0.19238288577E+01  0.00000000000E+00 0.  1.
          2    1    1    2  501    0  0.15941892457E+01 -0.13998009765E+01 -0.32641736878E+00  0.21464941011E+01  0.25500000000E-02 0.  1.
         -2    1    1    2    0  501 -0.15941892457E+01  0.13998009765E+01  0.94961575487E+00  0.23243620005E+01  0.25500000000E-02 0. -1.
<mgrwt>
<rscale>  0 0.21215298E+01</rscale>
<asrwt>0</asrwt>
<pdfrwt beam="1">0</pdfrwt>
<pdfrwt beam="2">0</pdfrwt>
<totfact> 0.37846081E+12</totfact>
</mgrwt>
</event>
<event>
 4    1  0.3130345E+006  0.2099710E+01  0.7546771E-02  0.2916526E+00
         22   -1    0    0    0    0  0.00000000000E+00  0.00000000000E+00  0.10797939944E+02  0.10797939944E+02  0.00000000000E+00 0. -1.
         22   -1    0    0    0    0 -0.00000000000E+00 -0.00000000000E+00 -0.46806233303E+00  0.46806233303E+00  0.00000000000E+00 0.  1.
          2    1    1    2  501    0 -0.20923705428E+01  0.17538674517E+00  0.71777711929E+01  0.74785814697E+01  0.25500000000E-02 0. -1.
         -2    1    1    2    0  501  0.20923705428E+01 -0.17538674517E+00  0.31521064183E+01  0.37874208075E+01  0.25500000000E-02 0.  1.
<mgrwt>
<rscale>  0 0.20997099E+01</rscale>
<asrwt>0</asrwt>
<pdfrwt beam="1">0</pdfrwt>
<pdfrwt beam="2">0</pdfrwt>
<totfact> 0.34214223E+12</totfact>
</mgrwt>
</event>
<event>
 4    1  0.3130345E+006  0.2515699E+01  0.7546771E-02  0.2701649E+00
         22   -1    0    0    0    0  0.00000000000E+00  0.00000000000E+00  0.39183019366E+01  0.39183019366E+01  0.00000000000E+00 0. -1.
         22   -1    0    0    0    0 -0.00000000000E+00 -0.00000000000E+00 -0.31422543208E+01  0.31422543208E+01  0.00000000000E+00 0.  1.
          2    1    1    2  501    0 -0.51616604462E+00  0.24621758102E+01 -0.20730182977E+01  0.32597773652E+01  0.25500000000E-02 0.  1.
         -2    1    1    2    0  501  0.51616604462E+00 -0.24621758102E+01  0.28490659134E+01  0.38007788922E+01  0.25500000000E-02 0. -1.
<mgrwt>
<rscale>  0 0.25156994E+01</rscale>
<asrwt>0</asrwt>
<pdfrwt beam="1">0</pdfrwt>
<pdfrwt beam="2">0</pdfrwt>
<totfact> 0.12925823E+12</totfact>
</mgrwt>
</event>
<event>
 4    1  0.3130345E+006  0.2463871E+01  0.7546771E-02  0.2724676E+00
         22   -1    0    0    0    0  0.00000000000E+00  0.00000000000E+00  0.37912574211E+01  0.37912574211E+01  0.00000000000E+00 0.  1.
         22   -1    0    0    0    0 -0.00000000000E+00 -0.00000000000E+00 -0.34590491258E+01  0.34590491258E+01  0.00000000000E+00 0. -1.
          2    1    1    2  501    0  0.24133991881E+01  0.49614270467E+00 -0.24906428464E+01  0.35034214013E+01  0.25500000000E-02 0. -1.
         -2    1    1    2    0  501 -0.24133991881E+01 -0.49614270467E+00  0.28228511416E+01  0.37468851456E+01  0.25500000000E-02 0.  1.
<mgrwt>
<rscale>  0 0.24638709E+01</rscale>
<asrwt>0</asrwt>
<pdfrwt beam="1">0</pdfrwt>
<pdfrwt beam="2">0</pdfrwt>
<totfact> 0.12007141E+12</totfact>
</mgrwt>
</event>
<event>
 4    1  0.3130345E+006  0.3585779E+01  0.7546771E-02  0.2364235E+00
         22   -1    0    0    0    0  0.00000000000E+00  0.00000000000E+00  0.64118443293E+01  0.64118443293E+01  0.00000000000E+00 0.  1.
         22   -1    0    0    0    0 -0.00000000000E+00 -0.00000000000E+00 -0.13791579025E+02  0.13791579025E+02  0.00000000000E+00 0. -1.
          2    1    1    2  501    0 -0.35295644577E+01  0.63244189065E+00 -0.13028341490E+02  0.13512790108E+02  0.25500000000E-02 0. -1.
         -2    1    1    2    0  501  0.35295644577E+01 -0.63244189065E+00  0.56486067951E+01  0.66906332461E+01  0.25500000000E-02 0.  1.
<mgrwt>
<rscale>  0 0.35857795E+01</rscale>
<asrwt>0</asrwt>
<pdfrwt beam="1">0</pdfrwt>
<pdfrwt beam="2">0</pdfrwt>
<totfact> 0.12315529E+11</totfact>
</mgrwt>
</event>
<event>
 4    1  0.3130345E+006  0.2598913E+01  0.7546771E-02  0.2666466E+00
         22   -1    0    0    0    0  0.00000000000E+00  0.00000000000E+00  0.28447748848E+01  0.28447748848E+01  0.00000000000E+00 0. -1.
         22   -1    0    0    0    0 -0.00000000000E+00 -0.00000000000E+00 -0.43285606108E+01  0.43285606108E+01  0.00000000000E+00 0.  1.
          2    1    1    2  501    0 -0.23183870034E+01 -0.11744884114E+01 -0.31518575636E+01  0.40851626565E+01  0.25500000000E-02 0.  1.
         -2    1    1    2    0  501  0.23183870034E+01  0.11744884114E+01  0.16680718377E+01  0.30881728391E+01  0.25500000000E-02 0. -1.
<mgrwt>
<rscale>  0 0.25989128E+01</rscale>
<asrwt>0</asrwt>
<pdfrwt beam="1">0</pdfrwt>
<pdfrwt beam="2">0</pdfrwt>
<totfact> 0.12911779E+12</totfact>
</mgrwt>
</event>
<event>
 4    1  0.3130345E+006  0.2294840E+01  0.7546771E-02  0.2806525E+00
         22   -1    0    0    0    0  0.00000000000E+00  0.00000000000E+00  0.28293171748E+01  0.28293171748E+01  0.00000000000E+00 0.  1.
         22   -1    0    0    0    0 -0.00000000000E+00 -0.00000000000E+00 -0.21859345418E+01  0.21859345418E+01  0.00000000000E+00 0. -1.
          2    1    1    2  501    0 -0.42012981930E+00  0.22560525159E+01 -0.64463209859E+00  0.23836608535E+01  0.25500000000E-02 0. -1.
         -2    1    1    2    0  501  0.42012981930E+00 -0.22560525159E+01  0.12880147317E+01  0.26315908631E+01  0.25500000000E-02 0.  1.
<mgrwt>
<rscale>  0 0.22948395E+01</rscale>
<asrwt>0</asrwt>
<pdfrwt beam="1">0</pdfrwt>
<pdfrwt beam="2">0</pdfrwt>
<totfact> 0.28880894E+12</totfact>
</mgrwt>
</event>
<event>
 4    1  0.3130345E+006  0.3624163E+01  0.7546771E-02  0.2355462E+00
         22   -1    0    0    0    0  0.00000000000E+00  0.00000000000E+00  0.49725955064E+01  0.49725955064E+01  0.00000000000E+00 0.  1.
         22   -1    0    0    0    0 -0.00000000000E+00 -0.00000000000E+00 -0.11882285750E+02  0.11882285750E+02  0.00000000000E+00 0. -1.
          2    1    1    2  501    0  0.36212190368E+01 -0.14602823265E+00 -0.10886794950E+02  0.11474182426E+02  0.25500000000E-02 0. -1.
         -2    1    1    2    0  501 -0.36212190368E+01  0.14602823265E+00  0.39771047064E+01  0.53806988306E+01  0.25500000000E-02 0.  1.
<mgrwt>
<rscale>  0 0.36241631E+01</rscale>
<asrwt>0</asrwt>
<pdfrwt beam="1">0</pdfrwt>
<pdfrwt beam="2">0</pdfrwt>
<totfact> 0.19987025E+11</totfact>
</mgrwt>
</event>
<event>
 4    1  0.3130345E+006  0.5109409E+01  0.7546771E-02  0.2110166E+00
         22   -1    0    0    0    0  0.00000000000E+00  0.00000000000E+00  0.11555044675E+02  0.11555044675E+02  0.00000000000E+00 0.  1.
         22   -1    0    0    0    0 -0.00000000000E+00 -0.00000000000E+00 -0.37142480191E+01  0.37142480191E+01  0.00000000000E+00 0. -1.
          2    1    1    2  501    0 -0.45579984247E+01 -0.23088324986E+01  0.86987754929E+01  0.10088347671E+02  0.25500000000E-02 0.  1.
         -2    1    1    2    0  501  0.45579984247E+01  0.23088324986E+01 -0.85797883707E+00  0.51809450232E+01  0.25500000000E-02 0. -1.
<mgrwt>
<rscale>  0 0.51094093E+01</rscale>
<asrwt>0</asrwt>
<pdfrwt beam="1">0</pdfrwt>
<pdfrwt beam="2">0</pdfrwt>
<totfact> 0.29169176E+11</totfact>
</mgrwt>
</event>
<event>
 4    1  0.3130345E+006  0.2145564E+01  0.7546771E-02  0.2888950E+00
         22   -1    0    0    0    0  0.00000000000E+00  0.00000000000E+00  0.25883710946E+00  0.25883710946E+00  0.00000000000E+00 0. -1.
         22   -1    0    0    0    0 -0.00000000000E+00 -0.00000000000E+00 -0.19215299390E+02  0.19215299390E+02  0.00000000000E+00 0.  1.
          2    1    1    2  501    0  0.17725770343E+01 -0.12088868461E+01 -0.68217710449E+01  0.71512239121E+01  0.25500000000E-02 0. -1.
         -2    1    1    2    0  501 -0.17725770343E+01  0.12088868461E+01 -0.12134691235E+02  0.12322912587E+02  0.25500000000E-02 0.  1.
<mgrwt>
<rscale>  0 0.21455636E+01</rscale>
<asrwt>0</asrwt>
<pdfrwt beam="1">0</pdfrwt>
<pdfrwt beam="2">0</pdfrwt>
<totfact> 0.32785945E+12</totfact>
</mgrwt>
</event>
<event>
 4    1  0.3130345E+006  0.2205610E+01  0.7546771E-02  0.2854511E+00
         22   -1    0    0    0    0  0.00000000000E+00  0.00000000000E+00  0.14398792485E+01  0.14398792485E+01  0.00000000000E+00 0.  1.
         22   -1    0    0    0    0 -0.00000000000E+00 -0.00000000000E+00 -0.34742066652E+01  0.34742066652E+01  0.00000000000E+00 0. -1.
          2    1    1    2  501    0 -0.18261543040E+01  0.12368793362E+01 -0.14248469243E+01  0.26258151676E+01  0.25500000000E-02 0.  1.
         -2    1    1    2    0  501  0.18261543040E+01 -0.12368793362E+01 -0.60948049230E+00  0.22882707461E+01  0.25500000000E-02 0. -1.
<mgrwt>
<rscale>  0 0.22056102E+01</rscale>
<asrwt>0</asrwt>
<pdfrwt beam="1">0</pdfrwt>
<pdfrwt beam="2">0</pdfrwt>
<totfact> 0.36783952E+12</totfact>
</mgrwt>
</event>
<event>
 4    1  0.3130345E+006  0.2200379E+01  0.7546771E-02  0.2857439E+00
         22   -1    0    0    0    0  0.00000000000E+00  0.00000000000E+00  0.14524329351E+02  0.14524329351E+02  0.00000000000E+00 0.  1.
         22   -1    0    0    0    0 -0.00000000000E+00 -0.00000000000E+00 -0.91398280905E+00  0.91398280905E+00  0.00000000000E+00 0. -1.
          2    1    1    2  501    0 -0.16432806749E+01  0.14633147120E+01  0.65266732626E+00  0.22951345199E+01  0.25500000000E-02 0. -1.
         -2    1    1    2    0  501  0.16432806749E+01 -0.14633147120E+01  0.12957679216E+02  0.13143177641E+02  0.25500000000E-02 0.  1.
<mgrwt>
<rscale>  0 0.22003790E+01</rscale>
<asrwt>0</asrwt>
<pdfrwt beam="1">0</pdfrwt>
<pdfrwt beam="2">0</pdfrwt>
<totfact> 0.11152468E+12</totfact>
</mgrwt>
</event>
<event>
 4    1  0.3130345E+006  0.2190802E+01  0.7546771E-02  0.2862836E+00
         22   -1    0    0    0    0  0.00000000000E+00  0.00000000000E+00  0.64886148916E+01  0.64886148916E+01  0.00000000000E+00 0.  1.
         22   -1    0    0    0    0 -0.00000000000E+00 -0.00000000000E+00 -0.83847467700E+00  0.83847467700E+00  0.00000000000E+00 0. -1.
          2    1    1    2  501    0  0.53475916006E+00  0.21245325908E+01  0.40825026811E+01  0.46331890456E+01  0.25500000000E-02 0.  1.
         -2    1    1    2    0  501 -0.53475916006E+00 -0.21245325908E+01  0.15676375335E+01  0.26939005230E+01  0.25500000000E-02 0. -1.
<mgrwt>
<rscale>  0 0.21908018E+01</rscale>
<asrwt>0</asrwt>
<pdfrwt beam="1">0</pdfrwt>
<pdfrwt beam="2">0</pdfrwt>
<totfact> 0.32621251E+12</totfact>
</mgrwt>
</event>
<event>
 4    1  0.3130345E+006  0.2124842E+01  0.7546771E-02  0.2901269E+00
         22   -1    0    0    0    0  0.00000000000E+00  0.00000000000E+00  0.34028259566E+01  0.34028259566E+01  0.00000000000E+00 0. -1.
         22   -1    0    0    0    0 -0.00000000000E+00 -0.00000000000E+00 -0.14173367356E+01  0.14173367356E+01  0.00000000000E+00 0.  1.
          2    1    1    2  501    0 -0.19794213386E+01 -0.77255250737E+00  0.38370025933E+00  0.21592078649E+01  0.25500000000E-02 0.  1.
         -2    1    1    2    0  501  0.19794213386E+01  0.77255250737E+00  0.16017889617E+01  0.26609548273E+01  0.25500000000E-02 0. -1.
<mgrwt>
<rscale>  0 0.21248418E+01</rscale>
<asrwt>0</asrwt>
<pdfrwt beam="1">0</pdfrwt>
<pdfrwt beam="2">0</pdfrwt>
<totfact> 0.38379244E+12</totfact>
</mgrwt>
</event>
<event>
 4    1  0.3130345E+006  0.2013095E+01  0.7546771E-02  0.2971942E+00
         22   -1    0    0    0    0  0.00000000000E+00  0.00000000000E+00  0.65667429519E+01  0.65667429519E+01  0.00000000000E+00 0. -1.
         22   -1    0    0    0    0 -0.00000000000E+00 -0.00000000000E+00 -0.95974467746E+00  0.95974467746E+00  0.00000000000E+00 0.  1.
          2    1    1    2  501    0  0.18056163064E+01 -0.89011020699E+00  0.55503656399E+00  0.20882094043E+01  0.25500000000E-02 0.  1.
         -2    1    1    2    0  501 -0.18056163064E+01  0.89011020699E+00  0.50519617105E+01  0.54382782250E+01  0.25500000000E-02 0. -1.
<mgrwt>
<rscale>  0 0.20130954E+01</rscale>
<asrwt>0</asrwt>
<pdfrwt beam="1">0</pdfrwt>
<pdfrwt beam="2">0</pdfrwt>
<totfact> 0.27568099E+12</totfact>
</mgrwt>
</event>
<event>
 4    1  0.3130345E+006  0.2000700E+01  0.7546771E-02  0.2980257E+00
         22   -1    0    0    0    0  0.00000000000E+00  0.00000000000E+00  0.35378640290E+01  0.35378640290E+01  0.00000000000E+00 0. -1.
         22   -1    0    0    0    0 -0.00000000000E+00 -0.00000000000E+00 -0.11544121921E+01  0.11544121921E+01  0.00000000000E+00 0.  1.
          2    1    1    2  501    0  0.42291381049E+00  0.19554888706E+01  0.15228510533E+01  0.25143338377E+01  0.25500000000E-02 0. -1.
         -2    1    1    2    0  501 -0.42291381049E+00 -0.19554888706E+01  0.86060078363E+00  0.21779423834E+01  0.25500000000E-02 0.  1.
<mgrwt>
<rscale>  0 0.20006997E+01</rscale>
<asrwt>0</asrwt>
<pdfrwt beam="1">0</pdfrwt>
<pdfrwt beam="2">0</pdfrwt>
<totfact> 0.46396593E+12</totfact>
</mgrwt>
</event>
<event>
 4    1  0.3130345E+006  0.2296014E+01  0.7546771E-02  0.2805917E+00
         22   -1    0    0    0    0  0.00000000000E+00  0.00000000000E+00  0.31014565852E+01  0.31014565852E+01  0.00000000000E+00 0.  1.
         22   -1    0    0    0    0 -0.00000000000E+00 -0.00000000000E+00 -0.26108687229E+01  0.26108687229E+01  0.00000000000E+00 0. -1.
          2    1    1    2  501    0 -0.19350354103E+01  0.12358449128E+01  0.19325438397E+01  0.30010676237E+01  0.25500000000E-02 0.  1.
         -2    1    1    2    0  501  0.19350354103E+01 -0.12358449128E+01 -0.14419559775E+01  0.27112576844E+01  0.25500000000E-02 0. -1.
<mgrwt>
<rscale>  0 0.22960142E+01</rscale>
<asrwt>0</asrwt>
<pdfrwt beam="1">0</pdfrwt>
<pdfrwt beam="2">0</pdfrwt>
<totfact> 0.21105068E+12</totfact>
</mgrwt>
</event>
<event>
 4    1  0.3130345E+006  0.2468058E+01  0.7546771E-02  0.2722782E+00
         22   -1    0    0    0    0  0.00000000000E+00  0.00000000000E+00  0.19371031740E+01  0.19371031740E+01  0.00000000000E+00 0. -1.
         22   -1    0    0    0    0 -0.00000000000E+00 -0.00000000000E+00 -0.64248457372E+01  0.64248457372E+01  0.00000000000E+00 0.  1.
          2    1    1    2  501    0 -0.16849725157E+01  0.18033779469E+01 -0.52313367700E+01  0.57843059481E+01  0.25500000000E-02 0.  1.
         -2    1    1    2    0  501  0.16849725157E+01 -0.18033779469E+01  0.74359420679E+00  0.25776429630E+01  0.25500000000E-02 0. -1.
<mgrwt>
<rscale>  0 0.24680581E+01</rscale>
<asrwt>0</asrwt>
<pdfrwt beam="1">0</pdfrwt>
<pdfrwt beam="2">0</pdfrwt>
<totfact> 0.12631012E+12</totfact>
</mgrwt>
</event>
<event>
 4    1  0.3130345E+006  0.2304423E+01  0.7546771E-02  0.2801583E+00
         22   -1    0    0    0    0  0.00000000000E+00  0.00000000000E+00  0.72662350751E+01  0.72662350751E+01  0.00000000000E+00 0.  1.
         22   -1    0    0    0    0 -0.00000000000E+00 -0.00000000000E+00 -0.78159819842E+00  0.78159819842E+00  0.00000000000E+00 0. -1.
          2    1    1    2  501    0 -0.22991525188E+01 -0.15573825842E+00  0.22167504029E+01  0.31975530583E+01  0.25500000000E-02 0.  1.
         -2    1    1    2    0  501  0.22991525188E+01  0.15573825842E+00  0.42678864738E+01  0.48502802152E+01  0.25500000000E-02 0. -1.
<mgrwt>
<rscale>  0 0.23044225E+01</rscale>
<asrwt>0</asrwt>
<pdfrwt beam="1">0</pdfrwt>
<pdfrwt beam="2">0</pdfrwt>
<totfact> 0.30864305E+12</totfact>
</mgrwt>
</event>
<event>
 4    1  0.3130345E+006  0.2234255E+01  0.7546771E-02  0.2838708E+00
         22   -1    0    0    0    0  0.00000000000E+00  0.00000000000E+00  0.11012849846E+01  0.11012849846E+01  0.00000000000E+00 0. -1.
         22   -1    0    0    0    0 -0.00000000000E+00 -0.00000000000E+00 -0.73097659362E+01  0.73097659362E+01  0.00000000000E+00 0.  1.
          2    1    1    2  501    0  0.68658547438E+00 -0.21261447074E+01 -0.56963557713E+01  0.61188533653E+01  0.25500000000E-02 0.  1.
         -2    1    1    2    0  501 -0.68658547438E+00  0.21261447074E+01 -0.51212518033E+00  0.22921975554E+01  0.25500000000E-02 0. -1.
<mgrwt>
<rscale>  0 0.22342555E+01</rscale>
<asrwt>0</asrwt>
<pdfrwt beam="1">0</pdfrwt>
<pdfrwt beam="2">0</pdfrwt>
<totfact> 0.20725587E+12</totfact>
</mgrwt>
</event>
<event>
 4    1  0.3130345E+006  0.2916312E+01  0.7546771E-02  0.2549306E+00
         22   -1    0    0    0    0  0.00000000000E+00  0.00000000000E+00  0.19315389822E+00  0.19315389822E+00  0.00000000000E+00 0. -1.
         22   -1    0    0    0    0 -0.00000000000E+00 -0.00000000000E+00 -0.46762761677E+02  0.46762761677E+02  0.00000000000E+00 0.  1.
          2    1    1    2  501    0  0.23912471126E+01 -0.16693731019E+01 -0.28958730179E+02  0.29105204507E+02  0.25500000000E-02 0.  1.
         -2    1    1    2    0  501 -0.23912471126E+01  0.16693731019E+01 -0.17610877600E+02  0.17850711069E+02  0.25500000000E-02 0. -1.
<mgrwt>
<rscale>  0 0.29163120E+01</rscale>
<asrwt>0</asrwt>
<pdfrwt beam="1">0</pdfrwt>
<pdfrwt beam="2">0</pdfrwt>
<totfact> 0.14621281E+12</totfact>
</mgrwt>
</event>
<event>
 4    1  0.3130345E+006  0.3602992E+01  0.7546771E-02  0.2360281E+00
         22   -1    0    0    0    0  0.00000000000E+00  0.00000000000E+00  0.80958921891E+01  0.80958921891E+01  0.00000000000E+00 0. -1.
         22   -1    0    0    0    0 -0.00000000000E+00 -0.00000000000E+00 -0.25263050104E+01  0.25263050104E+01  0.00000000000E+00 0.  1.
          2    1    1    2  501    0  0.19337355640E+01  0.30401007712E+01 -0.42518819664E+00  0.36279935827E+01  0.25500000000E-02 0.  1.
         -2    1    1    2    0  501 -0.19337355640E+01 -0.30401007712E+01  0.59947753754E+01  0.69942036169E+01  0.25500000000E-02 0. -1.
<mgrwt>
<rscale>  0 0.36029922E+01</rscale>
<asrwt>0</asrwt>
<pdfrwt beam="1">0</pdfrwt>
<pdfrwt beam="2">0</pdfrwt>
<totfact> 0.70379922E+11</totfact>
</mgrwt>
</event>
<event>
 4    1  0.3130345E+006  0.4178823E+01  0.7546771E-02  0.2244362E+00
         22   -1    0    0    0    0  0.00000000000E+00  0.00000000000E+00  0.43298871542E+01  0.43298871542E+01  0.00000000000E+00 0. -1.
         22   -1    0    0    0    0 -0.00000000000E+00 -0.00000000000E+00 -0.45269998610E+01  0.45269998610E+01  0.00000000000E+00 0.  1.
          2    1    1    2  501    0 -0.40870579517E+01 -0.87092558407E+00 -0.15613953252E+01  0.44609994326E+01  0.25500000000E-02 0. -1.
         -2    1    1    2    0  501  0.40870579517E+01  0.87092558407E+00  0.13642826184E+01  0.43958875826E+01  0.25500000000E-02 0.  1.
<mgrwt>
<rscale>  0 0.41788229E+01</rscale>
<asrwt>0</asrwt>
<pdfrwt beam="1">0</pdfrwt>
<pdfrwt beam="2">0</pdfrwt>
<totfact> 0.74828751E+11</totfact>
</mgrwt>
</event>
<event>
 4    1  0.3130345E+006  0.2921027E+01  0.7546771E-02  0.2547741E+00
         22   -1    0    0    0    0  0.00000000000E+00  0.00000000000E+00  0.13735871219E+01  0.13735871219E+01  0.00000000000E+00 0.  1.
         22   -1    0    0    0    0 -0.00000000000E+00 -0.00000000000E+00 -0.45769377696E+02  0.45769377696E+02  0.00000000000E+00 0. -1.
          2    1    1    2  501    0 -0.29207213935E+01  0.42204592355E-01 -0.44111530419E+02  0.44208138584E+02  0.25500000000E-02 0. -1.
         -2    1    1    2    0  501  0.29207213935E+01 -0.42204592355E-01 -0.28426015570E+00  0.29348262342E+01  0.25500000000E-02 0.  1.
<mgrwt>
<rscale>  0 0.29210274E+01</rscale>
<asrwt>0</asrwt>
<pdfrwt beam="1">0</pdfrwt>
<pdfrwt beam="2">0</pdfrwt>
<totfact> 0.16372938E+11</totfact>
</mgrwt>
</event>
<event>
 4    1  0.3130345E+006  0.2103405E+01  0.7546771E-02  0.2914261E+00
         22   -1    0    0    0    0  0.00000000000E+00  0.00000000000E+00  0.31196200794E+01  0.31196200794E+01  0.00000000000E+00 0.  1.
         22   -1    0    0    0    0 -0.00000000000E+00 -0.00000000000E+00 -0.14388939575E+01  0.14388939575E+01  0.00000000000E+00 0. -1.
          2    1    1    2  501    0 -0.13994837543E+01 -0.15702716312E+01  0.56717092222E+00  0.21785309573E+01  0.25500000000E-02 0.  1.
         -2    1    1    2    0  501  0.13994837543E+01  0.15702716312E+01  0.11135551997E+01  0.23799830797E+01  0.25500000000E-02 0. -1.
<mgrwt>
<rscale>  0 0.21034054E+01</rscale>
<asrwt>0</asrwt>
<pdfrwt beam="1">0</pdfrwt>
<pdfrwt beam="2">0</pdfrwt>
<totfact> 0.41757349E+12</totfact>
</mgrwt>
</event>
<event>
 4    1  0.3130345E+006  0.4474100E+01  0.7546771E-02  0.2194901E+00
         22   -1    0    0    0    0  0.00000000000E+00  0.00000000000E+00  0.18968257123E+01  0.18968257123E+01  0.00000000000E+00 0.  1.
         22   -1    0    0    0    0 -0.00000000000E+00 -0.00000000000E+00 -0.20604641995E+02  0.20604641995E+02  0.00000000000E+00 0. -1.
          2    1    1    2  501    0  0.13265701921E+00 -0.44721317177E+01 -0.17211919758E+02  0.17783918248E+02  0.25500000000E-02 0. -1.
         -2    1    1    2    0  501 -0.13265701921E+00  0.44721317177E+01 -0.14958965243E+01  0.47175494591E+01  0.25500000000E-02 0.  1.
<mgrwt>
<rscale>  0 0.44740995E+01</rscale>
<asrwt>0</asrwt>
<pdfrwt beam="1">0</pdfrwt>
<pdfrwt beam="2">0</pdfrwt>
<totfact> 0.31284102E+11</totfact>
</mgrwt>
</event>
<event>
 4    1  0.3130345E+006  0.2288792E+01  0.7546771E-02  0.2809665E+00
         22   -1    0    0    0    0  0.00000000000E+00  0.00000000000E+00  0.63609572945E+00  0.63609572945E+00  0.00000000000E+00 0. -1.
         22   -1    0    0    0    0 -0.00000000000E+00 -0.00000000000E+00 -0.82661919337E+01  0.82661919337E+01  0.00000000000E+00 0.  1.
          2    1    1    2  501    0 -0.19020329676E+01  0.12731197737E+01 -0.35438465426E+01  0.42186986368E+01  0.25500000000E-02 0. -1.
         -2    1    1    2    0  501  0.19020329676E+01 -0.12731197737E+01 -0.40862496616E+01  0.46835890264E+01  0.25500000000E-02 0.  1.
<mgrwt>
<rscale>  0 0.22887922E+01</rscale>
<asrwt>0</asrwt>
<pdfrwt beam="1">0</pdfrwt>
<pdfrwt beam="2">0</pdfrwt>
<totfact> 0.33405124E+12</totfact>
</mgrwt>
</event>
<event>
 4    1  0.3130345E+006  0.2070971E+01  0.7546771E-02  0.2934413E+00
         22   -1    0    0    0    0  0.00000000000E+00  0.00000000000E+00  0.10657929239E+01  0.10657929239E+01  0.00000000000E+00 0.  1.
         22   -1    0    0    0    0 -0.00000000000E+00 -0.00000000000E+00 -0.10275752611E+02  0.10275752611E+02  0.00000000000E+00 0. -1.
          2    1    1    2  501    0  0.20504189411E+01  0.29102625412E+00 -0.90281208067E+01  0.92626068640E+01  0.25500000000E-02 0. -1.
         -2    1    1    2    0  501 -0.20504189411E+01 -0.29102625412E+00 -0.18183888002E+00  0.20789386704E+01  0.25500000000E-02 0.  1.
<mgrwt>
<rscale>  0 0.20709709E+01</rscale>
<asrwt>0</asrwt>
<pdfrwt beam="1">0</pdfrwt>
<pdfrwt beam="2">0</pdfrwt>
<totfact> 0.14274307E+12</totfact>
</mgrwt>
</event>
<event>
 4    1  0.3130345E+006  0.2022718E+01  0.7546771E-02  0.2965557E+00
         22   -1    0    0    0    0  0.00000000000E+00  0.00000000000E+00  0.75194363486E+02  0.75194363486E+02  0.00000000000E+00 0. -1.
         22   -1    0    0    0    0 -0.00000000000E+00 -0.00000000000E+00 -0.57698681151E-01  0.57698681151E-01  0.00000000000E+00 0.  1.
          2    1    1    2  501    0  0.15000941861E+01  0.13568711163E+01  0.28586580752E+02  0.28658052750E+02  0.25500000000E-02 0.  1.
         -2    1    1    2    0  501 -0.15000941861E+01 -0.13568711163E+01  0.46550084053E+02  0.46594009417E+02  0.25500000000E-02 0. -1.
<mgrwt>
<rscale>  0 0.20227180E+01</rscale>
<asrwt>0</asrwt>
<pdfrwt beam="1">0</pdfrwt>
<pdfrwt beam="2">0</pdfrwt>
<totfact> 0.29528949E+12</totfact>
</mgrwt>
</event>
<event>
 4    1  0.3130345E+006  0.2709783E+01  0.7546771E-02  0.2622696E+00
         22   -1    0    0    0    0  0.00000000000E+00  0.00000000000E+00  0.57117581313E+00  0.57117581313E+00  0.00000000000E+00 0.  1.
         22   -1    0    0    0    0 -0.00000000000E+00 -0.00000000000E+00 -0.18284166803E+02  0.18284166803E+02  0.00000000000E+00 0. -1.
          2    1    1    2  501    0  0.12148506697E+01  0.24222007812E+01 -0.13993396662E+02  0.14253353129E+02  0.25500000000E-02 0. -1.
         -2    1    1    2    0  501 -0.12148506697E+01 -0.24222007812E+01 -0.37195943279E+01  0.46019894873E+01  0.25500000000E-02 0.  1.
<mgrwt>
<rscale>  0 0.27097833E+01</rscale>
<asrwt>0</asrwt>
<pdfrwt beam="1">0</pdfrwt>
<pdfrwt beam="2">0</pdfrwt>
<totfact> 0.14314900E+12</totfact>
</mgrwt>
</event>
<event>
 4    1  0.3130345E+006  0.2985962E+01  0.7546771E-02  0.2526635E+00
         22   -1    0    0    0    0  0.00000000000E+00  0.00000000000E+00  0.45972465274E+00  0.45972465274E+00  0.00000000000E+00 0.  1.
         22   -1    0    0    0    0 -0.00000000000E+00 -0.00000000000E+00 -0.25322729608E+02  0.25322729608E+02  0.00000000000E+00 0. -1.
          2    1    1    2  501    0  0.18159732524E+01 -0.23702751733E+01 -0.18669055629E+02  0.18906337769E+02  0.25500000000E-02 0. -1.
         -2    1    1    2    0  501 -0.18159732524E+01  0.23702751733E+01 -0.61939493260E+01  0.68761164916E+01  0.25500000000E-02 0.  1.
<mgrwt>
<rscale>  0 0.29859621E+01</rscale>
<asrwt>0</asrwt>
<pdfrwt beam="1">0</pdfrwt>
<pdfrwt beam="2">0</pdfrwt>
<totfact> 0.12169126E+12</totfact>
</mgrwt>
</event>
<event>
 4    1  0.3130345E+006  0.2362213E+01  0.7546771E-02  0.2772579E+00
         22   -1    0    0    0    0  0.00000000000E+00  0.00000000000E+00  0.13172020003E+01  0.13172020003E+01  0.00000000000E+00 0.  1.
         22   -1    0    0    0    0 -0.00000000000E+00 -0.00000000000E+00 -0.42637195308E+01  0.42637195308E+01  0.00000000000E+00 0. -1.
          2    1    1    2  501    0 -0.13423596275E+01 -0.19437376654E+01 -0.16970674004E+01  0.29086233420E+01  0.25500000000E-02 0. -1.
         -2    1    1    2    0  501  0.13423596275E+01  0.19437376654E+01 -0.12494501301E+01  0.26722981891E+01  0.25500000000E-02 0.  1.
<mgrwt>
<rscale>  0 0.23622134E+01</rscale>
<asrwt>0</asrwt>
<pdfrwt beam="1">0</pdfrwt>
<pdfrwt beam="2">0</pdfrwt>
<totfact> 0.32029268E+12</totfact>
</mgrwt>
</event>
<event>
 4    1  0.3130345E+006  0.3006802E+01  0.7546771E-02  0.2520035E+00
         22   -1    0    0    0    0  0.00000000000E+00  0.00000000000E+00  0.11923328974E+01  0.11923328974E+01  0.00000000000E+00 0.  1.
         22   -1    0    0    0    0 -0.00000000000E+00 -0.00000000000E+00 -0.77048786602E+01  0.77048786602E+01  0.00000000000E+00 0. -1.
          2    1    1    2  501    0 -0.10025066491E+01  0.28347546029E+01 -0.38169340689E+01  0.48589963397E+01  0.25500000000E-02 0.  1.
         -2    1    1    2    0  501  0.10025066491E+01 -0.28347546029E+01 -0.26956116939E+01  0.40382152180E+01  0.25500000000E-02 0. -1.
<mgrwt>
<rscale>  0 0.30068022E+01</rscale>
<asrwt>0</asrwt>
<pdfrwt beam="1">0</pdfrwt>
<pdfrwt beam="2">0</pdfrwt>
<totfact> 0.17767652E+12</totfact>
</mgrwt>
</event>
<event>
 4    1  0.3130345E+006  0.2999186E+01  0.7546771E-02  0.2522437E+00
         22   -1    0    0    0    0  0.00000000000E+00  0.00000000000E+00  0.37963952708E+01  0.37963952708E+01  0.00000000000E+00 0.  1.
         22   -1    0    0    0    0 -0.00000000000E+00 -0.00000000000E+00 -0.25603589225E+01  0.25603589225E+01  0.00000000000E+00 0. -1.
          2    1    1    2  501    0  0.22972825062E+01  0.19281079919E+01 -0.25003129651E+00  0.30095895889E+01  0.25500000000E-02 0.  1.
         -2    1    1    2    0  501 -0.22972825062E+01 -0.19281079919E+01  0.14860676447E+01  0.33471646044E+01  0.25500000000E-02 0. -1.
<mgrwt>
<rscale>  0 0.29991855E+01</rscale>
<asrwt>0</asrwt>
<pdfrwt beam="1">0</pdfrwt>
<pdfrwt beam="2">0</pdfrwt>
<totfact> 0.17035894E+12</totfact>
</mgrwt>
</event>
<event>
 4    1  0.3130345E+006  0.2288116E+01  0.7546771E-02  0.2810017E+00
         22   -1    0    0    0    0  0.00000000000E+00  0.00000000000E+00  0.13979235447E+02  0.13979235447E+02  0.00000000000E+00 0.  1.
         22   -1    0    0    0    0 -0.00000000000E+00 -0.00000000000E+00 -0.40222560100E+00  0.40222560100E+00  0.00000000000E+00 0. -1.
          2    1    1    2  501    0 -0.99197110937E+00  0.20619073576E+01  0.49012189409E+01  0.54090130563E+01  0.25500000000E-02 0.  1.
         -2    1    1    2    0  501  0.99197110937E+00 -0.20619073576E+01  0.86757909047E+01  0.89724479914E+01  0.25500000000E-02 0. -1.
<mgrwt>
<rscale>  0 0.22881161E+01</rscale>
<asrwt>0</asrwt>
<pdfrwt beam="1">0</pdfrwt>
<pdfrwt beam="2">0</pdfrwt>
<totfact> 0.29616966E+12</totfact>
</mgrwt>
</event>
<event>
 4    1  0.3130345E+006  0.2061832E+01  0.7546771E-02  0.2940202E+00
         22   -1    0    0    0    0  0.00000000000E+00  0.00000000000E+00  0.13295429231E+02  0.13295429231E+02  0.00000000000E+00 0. -1.
         22   -1    0    0    0    0 -0.00000000000E+00 -0.00000000000E+00 -0.71430495274E+00  0.71430495274E+00  0.00000000000E+00 0.  1.
          2    1    1    2  501    0 -0.64277626515E+00  0.19590768615E+01  0.10844388604E+01  0.23296260689E+01  0.25500000000E-02 0.  1.
         -2    1    1    2    0  501  0.64277626515E+00 -0.19590768615E+01  0.11496685417E+02  0.11680108115E+02  0.25500000000E-02 0. -1.
<mgrwt>
<rscale>  0 0.20618317E+01</rscale>
<asrwt>0</asrwt>
<pdfrwt beam="1">0</pdfrwt>
<pdfrwt beam="2">0</pdfrwt>
<totfact> 0.16453418E+12</totfact>
</mgrwt>
</event>
<event>
 4    1  0.3130345E+006  0.2435877E+01  0.7546771E-02  0.2737493E+00
         22   -1    0    0    0    0  0.00000000000E+00  0.00000000000E+00  0.25579969449E+00  0.25579969449E+00  0.00000000000E+00 0.  1.
         22   -1    0    0    0    0 -0.00000000000E+00 -0.00000000000E+00 -0.24806481298E+02  0.24806481298E+02  0.00000000000E+00 0. -1.
          2    1    1    2  501    0  0.24118552126E+01 -0.34124179378E+00 -0.15468367566E+02  0.15658987617E+02  0.25500000000E-02 0.  1.
         -2    1    1    2    0  501 -0.24118552126E+01  0.34124179378E+00 -0.90823140373E+01  0.94032933754E+01  0.25500000000E-02 0. -1.
<mgrwt>
<rscale>  0 0.24358773E+01</rscale>
<asrwt>0</asrwt>
<pdfrwt beam="1">0</pdfrwt>
<pdfrwt beam="2">0</pdfrwt>
<totfact> 0.24127813E+12</totfact>
</mgrwt>
</event>
<event>
 4    1  0.3130345E+006  0.2899006E+01  0.7546771E-02  0.2555091E+00
         22   -1    0    0    0    0  0.00000000000E+00  0.00000000000E+00  0.58579853753E+01  0.58579853753E+01  0.00000000000E+00 0.  1.
         22   -1    0    0    0    0 -0.00000000000E+00 -0.00000000000E+00 -0.18905678055E+01  0.18905678055E+01  0.00000000000E+00 0. -1.
          2    1    1    2  501    0  0.26955365212E+01  0.10669168922E+01  0.81178651814E-01  0.29001422841E+01  0.25500000000E-02 0. -1.
         -2    1    1    2    0  501 -0.26955365212E+01 -0.10669168922E+01  0.38862389181E+01  0.48484108967E+01  0.25500000000E-02 0.  1.
<mgrwt>
<rscale>  0 0.28990059E+01</rscale>
<asrwt>0</asrwt>
<pdfrwt beam="1">0</pdfrwt>
<pdfrwt beam="2">0</pdfrwt>
<totfact> 0.14502532E+12</totfact>
</mgrwt>
</event>
<event>
 4    1  0.3130345E+006  0.2789404E+01  0.7546771E-02  0.2593233E+00
         22   -1    0    0    0    0  0.00000000000E+00  0.00000000000E+00  0.63672768532E+01  0.63672768532E+01  0.00000000000E+00 0.  1.
         22   -1    0    0    0    0 -0.00000000000E+00 -0.00000000000E+00 -0.16286884069E+01  0.16286884069E+01  0.00000000000E+00 0. -1.
          2    1    1    2  501    0 -0.27757109729E+01 -0.27604253007E+00  0.37147712506E+00  0.28140313858E+01  0.25500000000E-02 0. -1.
         -2    1    1    2    0  501  0.27757109729E+01  0.27604253007E+00  0.43671113212E+01  0.51819338743E+01  0.25500000000E-02 0.  1.
<mgrwt>
<rscale>  0 0.27894045E+01</rscale>
<asrwt>0</asrwt>
<pdfrwt beam="1">0</pdfrwt>
<pdfrwt beam="2">0</pdfrwt>
<totfact> 0.15597859E+12</totfact>
</mgrwt>
</event>
<event>
 4    1  0.3130345E+006  0.3095448E+01  0.7546771E-02  0.2492852E+00
         22   -1    0    0    0    0  0.00000000000E+00  0.00000000000E+00  0.27087699374E+02  0.27087699374E+02  0.00000000000E+00 0.  1.
         22   -1    0    0    0    0 -0.00000000000E+00 -0.00000000000E+00 -0.37933427605E+00  0.37933427605E+00  0.00000000000E+00 0. -1.
          2    1    1    2  501    0 -0.18971321887E+01  0.24459518793E+01  0.97863341927E+01  0.10264216218E+02  0.25500000000E-02 0. -1.
         -2    1    1    2    0  501  0.18971321887E+01 -0.24459518793E+01  0.16922030905E+02  0.17202817432E+02  0.25500000000E-02 0.  1.
<mgrwt>
<rscale>  0 0.30954479E+01</rscale>
<asrwt>0</asrwt>
<pdfrwt beam="1">0</pdfrwt>
<pdfrwt beam="2">0</pdfrwt>
<totfact> 0.13876380E+12</totfact>
</mgrwt>
</event>
<event>
 4    1  0.3130345E+006  0.2010841E+01  0.7546771E-02  0.2973447E+00
         22   -1    0    0    0    0  0.00000000000E+00  0.00000000000E+00  0.36631398213E+02  0.36631398213E+02  0.00000000000E+00 0.  1.
         22   -1    0    0    0    0 -0.00000000000E+00 -0.00000000000E+00 -0.27141127617E+00  0.27141127617E+00  0.00000000000E+00 0. -1.
          2    1    1    2  501    0 -0.14629189843E+01 -0.13796164461E+01  0.39676171729E+01  0.44480856586E+01  0.25500000000E-02 0. -1.
         -2    1    1    2    0  501  0.14629189843E+01  0.13796164461E+01  0.32392369764E+02  0.32454723830E+02  0.25500000000E-02 0.  1.
<mgrwt>
<rscale>  0 0.20108406E+01</rscale>
<asrwt>0</asrwt>
<pdfrwt beam="1">0</pdfrwt>
<pdfrwt beam="2">0</pdfrwt>
<totfact> 0.13734891E+12</totfact>
</mgrwt>
</event>
<event>
 4    1  0.3130345E+006  0.2430001E+01  0.7546771E-02  0.2740218E+00
         22   -1    0    0    0    0  0.00000000000E+00  0.00000000000E+00  0.63326987984E+01  0.63326987984E+01  0.00000000000E+00 0. -1.
         22   -1    0    0    0    0 -0.00000000000E+00 -0.00000000000E+00 -0.98930761368E+00  0.98930761368E+00  0.00000000000E+00 0.  1.
          2    1    1    2  501    0  0.16787253698E+01  0.17569234369E+01  0.17940066942E+01  0.30204909124E+01  0.25500000000E-02 0.  1.
         -2    1    1    2    0  501 -0.16787253698E+01 -0.17569234369E+01  0.35493844904E+01  0.43015154997E+01  0.25500000000E-02 0. -1.
<mgrwt>
<rscale>  0 0.24300011E+01</rscale>
<asrwt>0</asrwt>
<pdfrwt beam="1">0</pdfrwt>
<pdfrwt beam="2">0</pdfrwt>
<totfact> 0.27810492E+12</totfact>
</mgrwt>
</event>
<event>
 4    1  0.3130345E+006  0.6557107E+01  0.7546771E-02  0.1973056E+00
         22   -1    0    0    0    0  0.00000000000E+00  0.00000000000E+00  0.16598366318E+01  0.16598366318E+01  0.00000000000E+00 0. -1.
         22   -1    0    0    0    0 -0.00000000000E+00 -0.00000000000E+00 -0.37661546751E+02  0.37661546751E+02  0.00000000000E+00 0.  1.
          2    1    1    2  501    0  0.64240491658E+01  0.13142423426E+01 -0.28986271905E+02  0.29718674366E+02  0.25500000000E-02 0.  1.
         -2    1    1    2    0  501 -0.64240491658E+01 -0.13142423426E+01 -0.70154382143E+01  0.96027090168E+01  0.25500000000E-02 0. -1.
<mgrwt>
<rscale>  0 0.65571066E+01</rscale>
<asrwt>0</asrwt>
<pdfrwt beam="1">0</pdfrwt>
<pdfrwt beam="2">0</pdfrwt>
<totfact> 0.16971162E+11</totfact>
</mgrwt>
</event>
<event>
 4    1  0.3130345E+006  0.5110738E+01  0.7546771E-02  0.2110013E+00
         22   -1    0    0    0    0  0.00000000000E+00  0.00000000000E+00  0.65499190802E+00  0.65499190802E+00  0.00000000000E+00 0. -1.
         22   -1    0    0    0    0 -0.00000000000E+00 -0.00000000000E+00 -0.54603405280E+02  0.54603405280E+02  0.00000000000E+00 0.  1.
          2    1    1    2  501    0  0.45398278457E+01  0.23472535868E+01 -0.41322321927E+02  0.41637170079E+02  0.25500000000E-02 0.  1.
         -2    1    1    2    0  501 -0.45398278457E+01 -0.23472535868E+01 -0.12626091445E+02  0.13621227109E+02  0.25500000000E-02 0. -1.
<mgrwt>
<rscale>  0 0.51107380E+01</rscale>
<asrwt>0</asrwt>
<pdfrwt beam="1">0</pdfrwt>
<pdfrwt beam="2">0</pdfrwt>
<totfact> 0.30200820E+11</totfact>
</mgrwt>
</event>
<event>
 4    1  0.3130345E+006  0.2092020E+01  0.7546771E-02  0.2921265E+00
         22   -1    0    0    0    0  0.00000000000E+00  0.00000000000E+00  0.57207372748E+00  0.57207372748E+00  0.00000000000E+00 0. -1.
         22   -1    0    0    0    0 -0.00000000000E+00 -0.00000000000E+00 -0.14861291526E+02  0.14861291526E+02  0.00000000000E+00 0.  1.
          2    1    1    2  501    0  0.24397719629E+00  0.20777429785E+01 -0.17693517820E+01  0.27399184273E+01  0.25500000000E-02 0. -1.
         -2    1    1    2    0  501 -0.24397719629E+00 -0.20777429785E+01 -0.12519866017E+02  0.12693446826E+02  0.25500000000E-02 0.  1.
<mgrwt>
<rscale>  0 0.20920199E+01</rscale>
<asrwt>0</asrwt>
<pdfrwt beam="1">0</pdfrwt>
<pdfrwt beam="2">0</pdfrwt>
<totfact> 0.18459641E+12</totfact>
</mgrwt>
</event>
<event>
 4    1  0.3130345E+006  0.2225136E+01  0.7546771E-02  0.2843697E+00
         22   -1    0    0    0    0  0.00000000000E+00  0.00000000000E+00  0.49046021649E+00  0.49046021649E+00  0.00000000000E+00 0. -1.
         22   -1    0    0    0    0 -0.00000000000E+00 -0.00000000000E+00 -0.10510792109E+02  0.10510792109E+02  0.00000000000E+00 0.  1.
          2    1    1    2  501    0 -0.22218446188E+01 -0.12095452560E+00 -0.61041127122E+01  0.64970317849E+01  0.25500000000E-02 0.  1.
         -2    1    1    2    0  501  0.22218446188E+01  0.12095452560E+00 -0.39162191798E+01  0.45042205402E+01  0.25500000000E-02 0. -1.
<mgrwt>
<rscale>  0 0.22251360E+01</rscale>
<asrwt>0</asrwt>
<pdfrwt beam="1">0</pdfrwt>
<pdfrwt beam="2">0</pdfrwt>
<totfact> 0.33536506E+12</totfact>
</mgrwt>
</event>
<event>
 4    1  0.3130345E+006  0.2392034E+01  0.7546771E-02  0.2758131E+00
         22   -1    0    0    0    0  0.00000000000E+00  0.00000000000E+00  0.51657472044E+01  0.51657472044E+01  0.00000000000E+00 0. -1.
         22   -1    0    0    0    0 -0.00000000000E+00 -0.00000000000E+00 -0.17027293642E+01  0.17027293642E+01  0.00000000000E+00 0.  1.
          2    1    1    2  501    0  0.23768557175E+01 -0.26902592179E+00 -0.29872528890E+00  0.24106143095E+01  0.25500000000E-02 0.  1.
         -2    1    1    2    0  501 -0.23768557175E+01  0.26902592179E+00  0.37617431292E+01  0.44578622591E+01  0.25500000000E-02 0. -1.
<mgrwt>
<rscale>  0 0.23920336E+01</rscale>
<asrwt>0</asrwt>
<pdfrwt beam="1">0</pdfrwt>
<pdfrwt beam="2">0</pdfrwt>
<totfact> 0.19000191E+12</totfact>
</mgrwt>
</event>
<event>
 4    1  0.3130345E+006  0.3170155E+01  0.7546771E-02  0.2470998E+00
         22   -1    0    0    0    0  0.00000000000E+00  0.00000000000E+00  0.81320667382E+00  0.81320667382E+00  0.00000000000E+00 0. -1.
         22   -1    0    0    0    0 -0.00000000000E+00 -0.00000000000E+00 -0.58331096272E+02  0.58331096272E+02  0.00000000000E+00 0.  1.
          2    1    1    2  501    0 -0.27796724857E+01  0.15242368994E+01 -0.55012198091E+02  0.55103464705E+02  0.25500000000E-02 0.  1.
         -2    1    1    2    0  501  0.27796724857E+01 -0.15242368994E+01 -0.25056915076E+01  0.40408382407E+01  0.25500000000E-02 0. -1.
<mgrwt>
<rscale>  0 0.31701552E+01</rscale>
<asrwt>0</asrwt>
<pdfrwt beam="1">0</pdfrwt>
<pdfrwt beam="2">0</pdfrwt>
<totfact> 0.21631689E+11</totfact>
</mgrwt>
</event>
<event>
 4    1  0.3130345E+006  0.2760385E+01  0.7546771E-02  0.2603792E+00
         22   -1    0    0    0    0  0.00000000000E+00  0.00000000000E+00  0.27181030250E+01  0.27181030250E+01  0.00000000000E+00 0. -1.
         22   -1    0    0    0    0 -0.00000000000E+00 -0.00000000000E+00 -0.37088572627E+01  0.37088572627E+01  0.00000000000E+00 0.  1.
          2    1    1    2  501    0 -0.24379359699E+01 -0.12946763938E+01 -0.20832202864E+01  0.34582556328E+01  0.25500000000E-02 0.  1.
         -2    1    1    2    0  501  0.24379359699E+01  0.12946763938E+01  0.10924660487E+01  0.29687046549E+01  0.25500000000E-02 0. -1.
<mgrwt>
<rscale>  0 0.27603850E+01</rscale>
<asrwt>0</asrwt>
<pdfrwt beam="1">0</pdfrwt>
<pdfrwt beam="2">0</pdfrwt>
<totfact> 0.16331435E+12</totfact>
</mgrwt>
</event>
<event>
 4    1  0.3130345E+006  0.2160194E+01  0.7546771E-02  0.2880389E+00
         22   -1    0    0    0    0  0.00000000000E+00  0.00000000000E+00  0.30556965461E+00  0.30556965461E+00  0.00000000000E+00 0.  1.
         22   -1    0    0    0    0 -0.00000000000E+00 -0.00000000000E+00 -0.24885022274E+02  0.24885022274E+02  0.00000000000E+00 0. -1.
          2    1    1    2  501    0  0.19067569274E+01 -0.10152394829E+01 -0.20118353332E+02  0.20233995663E+02  0.25500000000E-02 0. -1.
         -2    1    1    2    0  501 -0.19067569274E+01  0.10152394829E+01 -0.44610992871E+01  0.49565962655E+01  0.25500000000E-02 0.  1.
<mgrwt>
<rscale>  0 0.21601944E+01</rscale>
<asrwt>0</asrwt>
<pdfrwt beam="1">0</pdfrwt>
<pdfrwt beam="2">0</pdfrwt>
<totfact> 0.19691282E+12</totfact>
</mgrwt>
</event>
<event>
 4    1  0.3130345E+006  0.6438081E+01  0.7546771E-02  0.1982493E+00
         22   -1    0    0    0    0  0.00000000000E+00  0.00000000000E+00  0.12038102268E+01  0.12038102268E+01  0.00000000000E+00 0.  1.
         22   -1    0    0    0    0 -0.00000000000E+00 -0.00000000000E+00 -0.10283211015E+03  0.10283211015E+03  0.00000000000E+00 0. -1.
          2    1    1    2  501    0  0.48496553411E+01  0.42343508108E+01 -0.93238890985E+02  0.93460899216E+02  0.25500000000E-02 0. -1.
         -2    1    1    2    0  501 -0.48496553411E+01 -0.42343508108E+01 -0.83894089399E+01  0.10575021162E+02  0.25500000000E-02 0.  1.
<mgrwt>
<rscale>  0 0.64380813E+01</rscale>
<asrwt>0</asrwt>
<pdfrwt beam="1">0</pdfrwt>
<pdfrwt beam="2">0</pdfrwt>
<totfact> 0.63525079E+10</totfact>
</mgrwt>
</event>
<event>
 4    1  0.3130345E+006  0.2387060E+01  0.7546771E-02  0.2760517E+00
         22   -1    0    0    0    0  0.00000000000E+00  0.00000000000E+00  0.28167890476E+00  0.28167890476E+00  0.00000000000E+00 0.  1.
         22   -1    0    0    0    0 -0.00000000000E+00 -0.00000000000E+00 -0.29204945843E+02  0.29204945843E+02  0.00000000000E+00 0. -1.
          2    1    1    2  501    0  0.19711744604E+01 -0.13462988066E+01 -0.22635156316E+02  0.22760675675E+02  0.25500000000E-02 0. -1.
         -2    1    1    2    0  501 -0.19711744604E+01  0.13462988066E+01 -0.62881106229E+01  0.67259490734E+01  0.25500000000E-02 0.  1.
<mgrwt>
<rscale>  0 0.23870601E+01</rscale>
<asrwt>0</asrwt>
<pdfrwt beam="1">0</pdfrwt>
<pdfrwt beam="2">0</pdfrwt>
<totfact> 0.17614395E+12</totfact>
</mgrwt>
</event>
<event>
 4    1  0.3130345E+006  0.5542301E+01  0.7546771E-02  0.2063342E+00
         22   -1    0    0    0    0  0.00000000000E+00  0.00000000000E+00  0.29301197335E+01  0.29301197335E+01  0.00000000000E+00 0. -1.
         22   -1    0    0    0    0 -0.00000000000E+00 -0.00000000000E+00 -0.10491371107E+02  0.10491371107E+02  0.00000000000E+00 0.  1.
          2    1    1    2  501    0 -0.55335073836E+01  0.31206534767E+00 -0.35935947962E+01  0.66053780215E+01  0.25500000000E-02 0.  1.
         -2    1    1    2    0  501  0.55335073836E+01 -0.31206534767E+00 -0.39676565777E+01  0.68161128194E+01  0.25500000000E-02 0. -1.
<mgrwt>
<rscale>  0 0.55423005E+01</rscale>
<asrwt>0</asrwt>
<pdfrwt beam="1">0</pdfrwt>
<pdfrwt beam="2">0</pdfrwt>
<totfact> 0.43299427E+11</totfact>
</mgrwt>
</event>
<event>
 4    1  0.3130345E+006  0.3641089E+01  0.7546771E-02  0.2351643E+00
         22   -1    0    0    0    0  0.00000000000E+00  0.00000000000E+00  0.59772052715E+01  0.59772052715E+01  0.00000000000E+00 0.  1.
         22   -1    0    0    0    0 -0.00000000000E+00 -0.00000000000E+00 -0.28927814140E+01  0.28927814140E+01  0.00000000000E+00 0. -1.
          2    1    1    2  501    0  0.35059902387E+01 -0.98262755497E+00 -0.59975070792E+00  0.36901533681E+01  0.25500000000E-02 0. -1.
         -2    1    1    2    0  501 -0.35059902387E+01  0.98262755497E+00  0.36841745654E+01  0.51798333174E+01  0.25500000000E-02 0.  1.
<mgrwt>
<rscale>  0 0.36410893E+01</rscale>
<asrwt>0</asrwt>
<pdfrwt beam="1">0</pdfrwt>
<pdfrwt beam="2">0</pdfrwt>
<totfact> 0.86393654E+11</totfact>
</mgrwt>
</event>
<event>
 4    1  0.3130345E+006  0.2866602E+01  0.7546771E-02  0.2566093E+00
         22   -1    0    0    0    0  0.00000000000E+00  0.00000000000E+00  0.38181709211E+01  0.38181709211E+01  0.00000000000E+00 0. -1.
         22   -1    0    0    0    0 -0.00000000000E+00 -0.00000000000E+00 -0.32355168168E+01  0.32355168168E+01  0.00000000000E+00 0.  1.
          2    1    1    2  501    0 -0.28664039208E+01 -0.33633223676E-01 -0.17494483346E+01  0.33582701811E+01  0.25500000000E-02 0.  1.
         -2    1    1    2    0  501  0.28664039208E+01  0.33633223676E-01  0.23321024389E+01  0.36954175568E+01  0.25500000000E-02 0. -1.
<mgrwt>
<rscale>  0 0.28666024E+01</rscale>
<asrwt>0</asrwt>
<pdfrwt beam="1">0</pdfrwt>
<pdfrwt beam="2">0</pdfrwt>
<totfact> 0.12877232E+12</totfact>
</mgrwt>
</event>
<event>
 4    1  0.3130345E+006  0.2466391E+01  0.7546771E-02  0.2723535E+00
         22   -1    0    0    0    0  0.00000000000E+00  0.00000000000E+00  0.50437718619E+01  0.50437718619E+01  0.00000000000E+00 0.  1.
         22   -1    0    0    0    0 -0.00000000000E+00 -0.00000000000E+00 -0.26933188622E+01  0.26933188622E+01  0.00000000000E+00 0. -1.
          2    1    1    2  501    0  0.16298969166E+00 -0.24609983849E+01 -0.16995048987E+01  0.29952298899E+01  0.25500000000E-02 0. -1.
         -2    1    1    2    0  501 -0.16298969166E+00  0.24609983849E+01  0.40499578985E+01  0.47418608343E+01  0.25500000000E-02 0.  1.
<mgrwt>
<rscale>  0 0.24663911E+01</rscale>
<asrwt>0</asrwt>
<pdfrwt beam="1">0</pdfrwt>
<pdfrwt beam="2">0</pdfrwt>
<totfact> 0.11486897E+12</totfact>
</mgrwt>
</event>
<event>
 4    1  0.3130345E+006  0.2757974E+01  0.7546771E-02  0.2604678E+00
         22   -1    0    0    0    0  0.00000000000E+00  0.00000000000E+00  0.20171086627E+01  0.20171086627E+01  0.00000000000E+00 0.  1.
         22   -1    0    0    0    0 -0.00000000000E+00 -0.00000000000E+00 -0.61909391091E+01  0.61909391091E+01  0.00000000000E+00 0. -1.
          2    1    1    2  501    0 -0.88232328812E+00 -0.26130283711E+01 -0.46528063175E+01  0.54087914347E+01  0.25500000000E-02 0. -1.
         -2    1    1    2    0  501  0.88232328812E+00  0.26130283711E+01  0.47897587109E+00  0.27992563371E+01  0.25500000000E-02 0.  1.
<mgrwt>
<rscale>  0 0.27579736E+01</rscale>
<asrwt>0</asrwt>
<pdfrwt beam="1">0</pdfrwt>
<pdfrwt beam="2">0</pdfrwt>
<totfact> 0.12598210E+12</totfact>
</mgrwt>
</event>
<event>
 4    1  0.3130345E+006  0.2000225E+01  0.7546771E-02  0.2980577E+00
         22   -1    0    0    0    0  0.00000000000E+00  0.00000000000E+00  0.93096116330E+00  0.93096116330E+00  0.00000000000E+00 0.  1.
         22   -1    0    0    0    0 -0.00000000000E+00 -0.00000000000E+00 -0.42982862900E+01  0.42982862900E+01  0.00000000000E+00 0. -1.
          2    1    1    2  501    0 -0.14114132850E+01  0.14173236367E+01 -0.16506647815E+01  0.25933751128E+01  0.25500000000E-02 0.  1.
         -2    1    1    2    0  501  0.14114132850E+01 -0.14173236367E+01 -0.17166603451E+01  0.26358723405E+01  0.25500000000E-02 0. -1.
<mgrwt>
<rscale>  0 0.20002251E+01</rscale>
<asrwt>0</asrwt>
<pdfrwt beam="1">0</pdfrwt>
<pdfrwt beam="2">0</pdfrwt>
<totfact> 0.47186117E+12</totfact>
</mgrwt>
</event>
<event>
 4    1  0.3130345E+006  0.2289917E+01  0.7546771E-02  0.2809080E+00
         22   -1    0    0    0    0  0.00000000000E+00  0.00000000000E+00  0.17405439972E+00  0.17405439972E+00  0.00000000000E+00 0.  1.
         22   -1    0    0    0    0 -0.00000000000E+00 -0.00000000000E+00 -0.34643033735E+02  0.34643033735E+02  0.00000000000E+00 0. -1.
          2    1    1    2  501    0 -0.72605525473E+00  0.21717636097E+01 -0.23519959912E+02  0.23631170816E+02  0.25500000000E-02 0. -1.
         -2    1    1    2    0  501  0.72605525473E+00 -0.21717636097E+01 -0.10949019424E+02  0.11185917319E+02  0.25500000000E-02 0.  1.
<mgrwt>
<rscale>  0 0.22899170E+01</rscale>
<asrwt>0</asrwt>
<pdfrwt beam="1">0</pdfrwt>
<pdfrwt beam="2">0</pdfrwt>
<totfact> 0.24240358E+12</totfact>
</mgrwt>
</event>
<event>
 4    1  0.3130345E+006  0.2188290E+01  0.7546771E-02  0.2864258E+00
         22   -1    0    0    0    0  0.00000000000E+00  0.00000000000E+00  0.15663394368E+01  0.15663394368E+01  0.00000000000E+00 0.  1.
         22   -1    0    0    0    0 -0.00000000000E+00 -0.00000000000E+00 -0.35954046882E+01  0.35954046882E+01  0.00000000000E+00 0. -1.
          2    1    1    2  501    0  0.19856148447E+01 -0.91974987045E+00 -0.15990482985E-01  0.21883483118E+01  0.25500000000E-02 0.  1.
         -2    1    1    2    0  501 -0.19856148447E+01  0.91974987045E+00 -0.20130747685E+01  0.29733958132E+01  0.25500000000E-02 0. -1.
<mgrwt>
<rscale>  0 0.21882899E+01</rscale>
<asrwt>0</asrwt>
<pdfrwt beam="1">0</pdfrwt>
<pdfrwt beam="2">0</pdfrwt>
<totfact> 0.32071629E+12</totfact>
</mgrwt>
</event>
<event>
 4    1  0.3130345E+006  0.2525128E+01  0.7546771E-02  0.2697555E+00
         22   -1    0    0    0    0  0.00000000000E+00  0.00000000000E+00  0.80469774701E+01  0.80469774701E+01  0.00000000000E+00 0. -1.
         22   -1    0    0    0    0 -0.00000000000E+00 -0.00000000000E+00 -0.16167254704E+01  0.16167254704E+01  0.00000000000E+00 0.  1.
          2    1    1    2  501    0 -0.49870666615E-02 -0.25251214350E+01 -0.23511855609E+00  0.25360501514E+01  0.25500000000E-02 0.  1.
         -2    1    1    2    0  501  0.49870666615E-02  0.25251214350E+01  0.66653705559E+01  0.71276527891E+01  0.25500000000E-02 0. -1.
<mgrwt>
<rscale>  0 0.25251276E+01</rscale>
<asrwt>0</asrwt>
<pdfrwt beam="1">0</pdfrwt>
<pdfrwt beam="2">0</pdfrwt>
<totfact> 0.11885970E+12</totfact>
</mgrwt>
</event>
<event>
 4    1  0.3130345E+006  0.2407827E+01  0.7546771E-02  0.2750616E+00
         22   -1    0    0    0    0  0.00000000000E+00  0.00000000000E+00  0.27102335668E+01  0.27102335668E+01  0.00000000000E+00 0.  1.
         22   -1    0    0    0    0 -0.00000000000E+00 -0.00000000000E+00 -0.27422656657E+01  0.27422656657E+01  0.00000000000E+00 0. -1.
          2    1    1    2  501    0 -0.20732650867E+01 -0.12244164773E+01 -0.12945333701E+01  0.27337605927E+01  0.25500000000E-02 0. -1.
         -2    1    1    2    0  501  0.20732650867E+01  0.12244164773E+01  0.12625012712E+01  0.27187386398E+01  0.25500000000E-02 0.  1.
<mgrwt>
<rscale>  0 0.24078269E+01</rscale>
<asrwt>0</asrwt>
<pdfrwt beam="1">0</pdfrwt>
<pdfrwt beam="2">0</pdfrwt>
<totfact> 0.23329298E+12</totfact>
</mgrwt>
</event>
<event>
 4    1  0.3130345E+006  0.2810053E+01  0.7546771E-02  0.2585841E+00
         22   -1    0    0    0    0  0.00000000000E+00  0.00000000000E+00  0.12882251767E+02  0.12882251767E+02  0.00000000000E+00 0.  1.
         22   -1    0    0    0    0 -0.00000000000E+00 -0.00000000000E+00 -0.17978110325E+01  0.17978110325E+01  0.00000000000E+00 0. -1.
          2    1    1    2  501    0  0.17820181532E+01  0.21727409453E+01 -0.41654718850E+00  0.28407586973E+01  0.25500000000E-02 0. -1.
         -2    1    1    2    0  501 -0.17820181532E+01 -0.21727409453E+01  0.11500987923E+02  0.11839304102E+02  0.25500000000E-02 0.  1.
<mgrwt>
<rscale>  0 0.28100531E+01</rscale>
<asrwt>0</asrwt>
<pdfrwt beam="1">0</pdfrwt>
<pdfrwt beam="2">0</pdfrwt>
<totfact> 0.59455779E+11</totfact>
</mgrwt>
</event>
<event>
 4    1  0.3130345E+006  0.2409074E+01  0.7546771E-02  0.2750026E+00
         22   -1    0    0    0    0  0.00000000000E+00  0.00000000000E+00  0.39345782788E+00  0.39345782788E+00  0.00000000000E+00 0. -1.
         22   -1    0    0    0    0 -0.00000000000E+00 -0.00000000000E+00 -0.18443041553E+02  0.18443041553E+02  0.00000000000E+00 0.  1.
          2    1    1    2  501    0  0.82278289649E+00 -0.22642128308E+01 -0.13239095784E+02  0.13456496391E+02  0.25500000000E-02 0.  1.
         -2    1    1    2    0  501 -0.82278289649E+00  0.22642128308E+01 -0.48104879410E+01  0.53800029898E+01  0.25500000000E-02 0. -1.
<mgrwt>
<rscale>  0 0.24090741E+01</rscale>
<asrwt>0</asrwt>
<pdfrwt beam="1">0</pdfrwt>
<pdfrwt beam="2">0</pdfrwt>
<totfact> 0.21565783E+12</totfact>
</mgrwt>
</event>
<event>
 4    1  0.3130345E+006  0.3194111E+01  0.7546771E-02  0.2464183E+00
         22   -1    0    0    0    0  0.00000000000E+00  0.00000000000E+00  0.43104999252E+02  0.43104999252E+02  0.00000000000E+00 0. -1.
         22   -1    0    0    0    0 -0.00000000000E+00 -0.00000000000E+00 -0.62980455061E+00  0.62980455061E+00  0.00000000000E+00 0.  1.
          2    1    1    2  501    0 -0.26383595006E+01 -0.18003882349E+01  0.39610832490E+01  0.50884698740E+01  0.25500000000E-02 0.  1.
         -2    1    1    2    0  501  0.26383595006E+01  0.18003882349E+01  0.38514111452E+02  0.38646333928E+02  0.25500000000E-02 0. -1.
<mgrwt>
<rscale>  0 0.31941110E+01</rscale>
<asrwt>0</asrwt>
<pdfrwt beam="1">0</pdfrwt>
<pdfrwt beam="2">0</pdfrwt>
<totfact> 0.43098849E+11</totfact>
</mgrwt>
</event>
<event>
 4    1  0.3130345E+006  0.2415773E+01  0.7546771E-02  0.2746869E+00
         22   -1    0    0    0    0  0.00000000000E+00  0.00000000000E+00  0.83645683125E-01  0.83645683125E-01  0.00000000000E+00 0. -1.
         22   -1    0    0    0    0 -0.00000000000E+00 -0.00000000000E+00 -0.11365060238E+03  0.11365060238E+03  0.00000000000E+00 0.  1.
          2    1    1    2  501    0  0.23940418342E+01  0.32328876178E+00 -0.92119018671E+02  0.92150689413E+02  0.25500000000E-02 0.  1.
         -2    1    1    2    0  501 -0.23940418342E+01 -0.32328876178E+00 -0.21447938023E+02  0.21583558647E+02  0.25500000000E-02 0. -1.
<mgrwt>
<rscale>  0 0.24157728E+01</rscale>
<asrwt>0</asrwt>
<pdfrwt beam="1">0</pdfrwt>
<pdfrwt beam="2">0</pdfrwt>
<totfact> 0.11013936E+12</totfact>
</mgrwt>
</event>
<event>
 4    1  0.3130345E+006  0.2039129E+01  0.7546771E-02  0.2954803E+00
         22   -1    0    0    0    0  0.00000000000E+00  0.00000000000E+00  0.87713933002E+00  0.87713933002E+00  0.00000000000E+00 0.  1.
         22   -1    0    0    0    0 -0.00000000000E+00 -0.00000000000E+00 -0.50425956625E+01  0.50425956625E+01  0.00000000000E+00 0. -1.
          2    1    1    2  501    0 -0.19248787225E+01 -0.67296656697E+00 -0.13582215627E+01  0.24500641650E+01  0.25500000000E-02 0.  1.
         -2    1    1    2    0  501  0.19248787225E+01  0.67296656697E+00 -0.28072347698E+01  0.34696708276E+01  0.25500000000E-02 0. -1.
<mgrwt>
<rscale>  0 0.20391294E+01</rscale>
<asrwt>0</asrwt>
<pdfrwt beam="1">0</pdfrwt>
<pdfrwt beam="2">0</pdfrwt>
<totfact> 0.41816330E+12</totfact>
</mgrwt>
</event>
<event>
 4    1  0.3130345E+006  0.2753432E+01  0.7546771E-02  0.2606352E+00
         22   -1    0    0    0    0  0.00000000000E+00  0.00000000000E+00  0.39863965435E+01  0.39863965435E+01  0.00000000000E+00 0. -1.
         22   -1    0    0    0    0 -0.00000000000E+00 -0.00000000000E+00 -0.19061936420E+01  0.19061936420E+01  0.00000000000E+00 0.  1.
          2    1    1    2  501    0 -0.62486633785E+00  0.26815896330E+01  0.11813158947E+01  0.29961466329E+01  0.25500000000E-02 0.  1.
         -2    1    1    2    0  501  0.62486633785E+00 -0.26815896330E+01  0.89888700690E+00  0.28964435527E+01  0.25500000000E-02 0. -1.
<mgrwt>
<rscale>  0 0.27534319E+01</rscale>
<asrwt>0</asrwt>
<pdfrwt beam="1">0</pdfrwt>
<pdfrwt beam="2">0</pdfrwt>
<totfact> 0.22649381E+12</totfact>
</mgrwt>
</event>
<event>
 4    1  0.3130345E+006  0.2080828E+01  0.7546771E-02  0.2928224E+00
         22   -1    0    0    0    0  0.00000000000E+00  0.00000000000E+00  0.50541669159E+00  0.50541669159E+00  0.00000000000E+00 0. -1.
         22   -1    0    0    0    0 -0.00000000000E+00 -0.00000000000E+00 -0.10940378661E+02  0.10940378661E+02  0.00000000000E+00 0.  1.
          2    1    1    2  501    0  0.89059139027E+00  0.18806073108E+01 -0.78830776571E+01  0.81530826521E+01  0.25500000000E-02 0.  1.
         -2    1    1    2    0  501 -0.89059139027E+00 -0.18806073108E+01 -0.25518843122E+01  0.32927127004E+01  0.25500000000E-02 0. -1.
<mgrwt>
<rscale>  0 0.20808276E+01</rscale>
<asrwt>0</asrwt>
<pdfrwt beam="1">0</pdfrwt>
<pdfrwt beam="2">0</pdfrwt>
<totfact> 0.30878098E+12</totfact>
</mgrwt>
</event>
<event>
 4    1  0.3130345E+006  0.2424894E+01  0.7546771E-02  0.2742597E+00
         22   -1    0    0    0    0  0.00000000000E+00  0.00000000000E+00  0.10591795237E+00  0.10591795237E+00  0.00000000000E+00 0.  1.
         22   -1    0    0    0    0 -0.00000000000E+00 -0.00000000000E+00 -0.57716982233E+02  0.57716982233E+02  0.00000000000E+00 0. -1.
          2    1    1    2  501    0 -0.62495353161E+00 -0.23429764065E+01 -0.23159367773E+02  0.23285970616E+02  0.25500000000E-02 0.  1.
         -2    1    1    2    0  501  0.62495353161E+00  0.23429764065E+01 -0.34451696507E+02  0.34536929569E+02  0.25500000000E-02 0. -1.
<mgrwt>
<rscale>  0 0.24248942E+01</rscale>
<asrwt>0</asrwt>
<pdfrwt beam="1">0</pdfrwt>
<pdfrwt beam="2">0</pdfrwt>
<totfact> 0.21578585E+12</totfact>
</mgrwt>
</event>
<event>
 4    1  0.3130345E+006  0.4263840E+01  0.7546771E-02  0.2229530E+00
         22   -1    0    0    0    0  0.00000000000E+00  0.00000000000E+00  0.13728046022E+02  0.13728046022E+02  0.00000000000E+00 0.  1.
         22   -1    0    0    0    0 -0.00000000000E+00 -0.00000000000E+00 -0.28141117204E+01  0.28141117204E+01  0.00000000000E+00 0. -1.
          2    1    1    2  501    0 -0.30424098814E+01  0.29873177770E+01 -0.56106092277E+00  0.43005954528E+01  0.25500000000E-02 0. -1.
         -2    1    1    2    0  501  0.30424098814E+01 -0.29873177770E+01  0.11474995225E+02  0.12241562290E+02  0.25500000000E-02 0.  1.
<mgrwt>
<rscale>  0 0.42638400E+01</rscale>
<asrwt>0</asrwt>
<pdfrwt beam="1">0</pdfrwt>
<pdfrwt beam="2">0</pdfrwt>
<totfact> 0.32700818E+11</totfact>
</mgrwt>
</event>
<event>
 4    1  0.3130345E+006  0.2724303E+01  0.7546771E-02  0.2617206E+00
         22   -1    0    0    0    0  0.00000000000E+00  0.00000000000E+00  0.84512362136E+00  0.84512362136E+00  0.00000000000E+00 0. -1.
         22   -1    0    0    0    0 -0.00000000000E+00 -0.00000000000E+00 -0.22095609695E+02  0.22095609695E+02  0.00000000000E+00 0.  1.
          2    1    1    2  501    0  0.80128572665E+00 -0.26037970228E+01 -0.19528998175E+02  0.19718103204E+02  0.25500000000E-02 0.  1.
         -2    1    1    2    0  501 -0.80128572665E+00  0.26037970228E+01 -0.17214878985E+01  0.32226301120E+01  0.25500000000E-02 0. -1.
<mgrwt>
<rscale>  0 0.27243025E+01</rscale>
<asrwt>0</asrwt>
<pdfrwt beam="1">0</pdfrwt>
<pdfrwt beam="2">0</pdfrwt>
<totfact> 0.72459818E+11</totfact>
</mgrwt>
</event>
<event>
 4    1  0.3130345E+006  0.2916670E+01  0.7546771E-02  0.2549187E+00
         22   -1    0    0    0    0  0.00000000000E+00  0.00000000000E+00  0.17244344951E+01  0.17244344951E+01  0.00000000000E+00 0. -1.
         22   -1    0    0    0    0 -0.00000000000E+00 -0.00000000000E+00 -0.33601472634E+02  0.33601472634E+02  0.00000000000E+00 0.  1.
          2    1    1    2  501    0 -0.26593261372E+01  0.11978916078E+01 -0.32253440840E+02  0.32385049210E+02  0.25500000000E-02 0.  1.
         -2    1    1    2    0  501  0.26593261372E+01 -0.11978916078E+01  0.37640270071E+00  0.29408579196E+01  0.25500000000E-02 0. -1.
<mgrwt>
<rscale>  0 0.29166704E+01</rscale>
<asrwt>0</asrwt>
<pdfrwt beam="1">0</pdfrwt>
<pdfrwt beam="2">0</pdfrwt>
<totfact> 0.18809639E+11</totfact>
</mgrwt>
</event>
<event>
 4    1  0.3130345E+006  0.3480600E+01  0.7546771E-02  0.2389137E+00
         22   -1    0    0    0    0  0.00000000000E+00  0.00000000000E+00  0.11786212655E+02  0.11786212655E+02  0.00000000000E+00 0.  1.
         22   -1    0    0    0    0 -0.00000000000E+00 -0.00000000000E+00 -0.10292495631E+01  0.10292495631E+01  0.00000000000E+00 0. -1.
          2    1    1    2  501    0  0.28558293142E+01 -0.19896763646E+01  0.51430620891E+01  0.62101261873E+01  0.25500000000E-02 0.  1.
         -2    1    1    2    0  501 -0.28558293142E+01  0.19896763646E+01  0.56139010027E+01  0.66053360307E+01  0.25500000000E-02 0. -1.
<mgrwt>
<rscale>  0 0.34806005E+01</rscale>
<asrwt>0</asrwt>
<pdfrwt beam="1">0</pdfrwt>
<pdfrwt beam="2">0</pdfrwt>
<totfact> 0.12575809E+12</totfact>
</mgrwt>
</event>
<event>
 4    1  0.3130345E+006  0.2048827E+01  0.7546771E-02  0.2948528E+00
         22   -1    0    0    0    0  0.00000000000E+00  0.00000000000E+00  0.19970069437E+01  0.19970069437E+01  0.00000000000E+00 0. -1.
         22   -1    0    0    0    0 -0.00000000000E+00 -0.00000000000E+00 -0.21863000158E+01  0.21863000158E+01  0.00000000000E+00 0.  1.
          2    1    1    2  501    0  0.20471074888E+01  0.83877960271E-01 -0.50539057678E+00  0.21102394937E+01  0.25500000000E-02 0.  1.
         -2    1    1    2    0  501 -0.20471074888E+01 -0.83877960271E-01  0.31609750462E+00  0.20730674658E+01  0.25500000000E-02 0. -1.
<mgrwt>
<rscale>  0 0.20488268E+01</rscale>
<asrwt>0</asrwt>
<pdfrwt beam="1">0</pdfrwt>
<pdfrwt beam="2">0</pdfrwt>
<totfact> 0.43281354E+12</totfact>
</mgrwt>
</event>
<event>
 4    1  0.3130345E+006  0.2337089E+01  0.7546771E-02  0.2785022E+00
         22   -1    0    0    0    0  0.00000000000E+00  0.00000000000E+00  0.53531215812E+01  0.53531215812E+01  0.00000000000E+00 0. -1.
         22   -1    0    0    0    0 -0.00000000000E+00 -0.00000000000E+00 -0.23354087441E+01  0.23354087441E+01  0.00000000000E+00 0.  1.
          2    1    1    2  501    0 -0.10405430425E+01  0.20926651404E+01 -0.13758840091E+01  0.27120177953E+01  0.25500000000E-02 0.  1.
         -2    1    1    2    0  501  0.10405430425E+01 -0.20926651404E+01  0.43935968462E+01  0.49765125301E+01  0.25500000000E-02 0. -1.
<mgrwt>
<rscale>  0 0.23370887E+01</rscale>
<asrwt>0</asrwt>
<pdfrwt beam="1">0</pdfrwt>
<pdfrwt beam="2">0</pdfrwt>
<totfact> 0.12635430E+12</totfact>
</mgrwt>
</event>
<event>
 4    1  0.3130345E+006  0.2692898E+01  0.7546771E-02  0.2629148E+00
         22   -1    0    0    0    0  0.00000000000E+00  0.00000000000E+00  0.18193271125E+02  0.18193271125E+02  0.00000000000E+00 0.  1.
         22   -1    0    0    0    0 -0.00000000000E+00 -0.00000000000E+00 -0.44909138129E+00  0.44909138129E+00  0.00000000000E+00 0. -1.
          2    1    1    2  501    0 -0.64336615748E+00 -0.26149140546E+01  0.57464112104E+01  0.63460967396E+01  0.25500000000E-02 0. -1.
         -2    1    1    2    0  501  0.64336615748E+00  0.26149140546E+01  0.11997768533E+02  0.12296265766E+02  0.25500000000E-02 0.  1.
<mgrwt>
<rscale>  0 0.26928984E+01</rscale>
<asrwt>0</asrwt>
<pdfrwt beam="1">0</pdfrwt>
<pdfrwt beam="2">0</pdfrwt>
<totfact> 0.18898658E+12</totfact>
</mgrwt>
</event>
<event>
 4    1  0.3130345E+006  0.2052328E+01  0.7546771E-02  0.2946276E+00
         22   -1    0    0    0    0  0.00000000000E+00  0.00000000000E+00  0.20730640094E+02  0.20730640094E+02  0.00000000000E+00 0. -1.
         22   -1    0    0    0    0 -0.00000000000E+00 -0.00000000000E+00 -0.49044064585E+00  0.49044064585E+00  0.00000000000E+00 0.  1.
          2    1    1    2  501    0  0.17444324949E+00 -0.20448996071E+01  0.19996076985E+01  0.28653939172E+01  0.25500000000E-02 0.  1.
         -2    1    1    2    0  501 -0.17444324949E+00  0.20448996071E+01  0.18240591750E+02  0.18355686823E+02  0.25500000000E-02 0. -1.
<mgrwt>
<rscale>  0 0.20523283E+01</rscale>
<asrwt>0</asrwt>
<pdfrwt beam="1">0</pdfrwt>
<pdfrwt beam="2">0</pdfrwt>
<totfact> 0.14542040E+12</totfact>
</mgrwt>
</event>
<event>
 4    1  0.3130345E+006  0.2375476E+01  0.7546771E-02  0.2766111E+00
         22   -1    0    0    0    0  0.00000000000E+00  0.00000000000E+00  0.40047405098E+00  0.40047405098E+00  0.00000000000E+00 0. -1.
         22   -1    0    0    0    0 -0.00000000000E+00 -0.00000000000E+00 -0.47304946393E+02  0.47304946393E+02  0.00000000000E+00 0.  1.
          2    1    1    2  501    0  0.22719689654E+01  0.69356898330E+00 -0.43439246482E+02  0.43504149484E+02  0.25500000000E-02 0.  1.
         -2    1    1    2    0  501 -0.22719689654E+01 -0.69356898330E+00 -0.34652258599E+01  0.42012709597E+01  0.25500000000E-02 0. -1.
<mgrwt>
<rscale>  0 0.23754763E+01</rscale>
<asrwt>0</asrwt>
<pdfrwt beam="1">0</pdfrwt>
<pdfrwt beam="2">0</pdfrwt>
<totfact> 0.63629339E+11</totfact>
</mgrwt>
</event>
<event>
 4    1  0.3130345E+006  0.2619547E+01  0.7546771E-02  0.2658062E+00
         22   -1    0    0    0    0  0.00000000000E+00  0.00000000000E+00  0.81403326980E+00  0.81403326980E+00  0.00000000000E+00 0. -1.
         22   -1    0    0    0    0 -0.00000000000E+00 -0.00000000000E+00 -0.12386189575E+02  0.12386189575E+02  0.00000000000E+00 0.  1.
          2    1    1    2  501    0  0.24377446306E+01 -0.95886539926E+00 -0.95163399071E+01  0.98702965238E+01  0.25500000000E-02 0.  1.
         -2    1    1    2    0  501 -0.24377446306E+01  0.95886539926E+00 -0.20558163979E+01  0.33299263208E+01  0.25500000000E-02 0. -1.
<mgrwt>
<rscale>  0 0.26195473E+01</rscale>
<asrwt>0</asrwt>
<pdfrwt beam="1">0</pdfrwt>
<pdfrwt beam="2">0</pdfrwt>
<totfact> 0.15466440E+12</totfact>
</mgrwt>
</event>
<event>
 4    1  0.3130345E+006  0.2123324E+01  0.7546771E-02  0.2902181E+00
         22   -1    0    0    0    0  0.00000000000E+00  0.00000000000E+00  0.17082744830E+00  0.17082744830E+00  0.00000000000E+00 0. -1.
         22   -1    0    0    0    0 -0.00000000000E+00 -0.00000000000E+00 -0.26416528718E+02  0.26416528718E+02  0.00000000000E+00 0.  1.
          2    1    1    2  501    0  0.10035894444E+01  0.18711781742E+01 -0.13526577633E+02  0.13692217077E+02  0.25500000000E-02 0. -1.
         -2    1    1    2    0  501 -0.10035894444E+01 -0.18711781742E+01 -0.12719123637E+02  0.12895139089E+02  0.25500000000E-02 0.  1.
<mgrwt>
<rscale>  0 0.21233243E+01</rscale>
<asrwt>0</asrwt>
<pdfrwt beam="1">0</pdfrwt>
<pdfrwt beam="2">0</pdfrwt>
<totfact> 0.34971297E+12</totfact>
</mgrwt>
</event>
<event>
 4    1  0.3130345E+006  0.3142369E+01  0.7546771E-02  0.2479019E+00
         22   -1    0    0    0    0  0.00000000000E+00  0.00000000000E+00  0.79536380914E+01  0.79536380914E+01  0.00000000000E+00 0.  1.
         22   -1    0    0    0    0 -0.00000000000E+00 -0.00000000000E+00 -0.20762480750E+01  0.20762480750E+01  0.00000000000E+00 0. -1.
          2    1    1    2  501    0  0.30315127500E+01 -0.82728904057E+00 -0.24112649618E+00  0.31516067648E+01  0.25500000000E-02 0. -1.
         -2    1    1    2    0  501 -0.30315127500E+01  0.82728904057E+00  0.61185165126E+01  0.68782794017E+01  0.25500000000E-02 0.  1.
<mgrwt>
<rscale>  0 0.31423690E+01</rscale>
<asrwt>0</asrwt>
<pdfrwt beam="1">0</pdfrwt>
<pdfrwt beam="2">0</pdfrwt>
<totfact> 0.90284601E+11</totfact>
</mgrwt>
</event>
<event>
 4    1  0.3130345E+006  0.2677428E+01  0.7546771E-02  0.2635125E+00
         22   -1    0    0    0    0  0.00000000000E+00  0.00000000000E+00  0.19603660827E+02  0.19603660827E+02  0.00000000000E+00 0.  1.
         22   -1    0    0    0    0 -0.00000000000E+00 -0.00000000000E+00 -0.58844128544E+00  0.58844128544E+00  0.00000000000E+00 0. -1.
          2    1    1    2  501    0 -0.17465225508E+01  0.20293523078E+01  0.32957415541E+01  0.42462372406E+01  0.25500000000E-02 0. -1.
         -2    1    1    2    0  501  0.17465225508E+01 -0.20293523078E+01  0.15719477988E+02  0.15945864872E+02  0.25500000000E-02 0.  1.
<mgrwt>
<rscale>  0 0.26774276E+01</rscale>
<asrwt>0</asrwt>
<pdfrwt beam="1">0</pdfrwt>
<pdfrwt beam="2">0</pdfrwt>
<totfact> 0.12691524E+12</totfact>
</mgrwt>
</event>
<event>
 4    1  0.3130345E+006  0.2381082E+01  0.7546771E-02  0.2763397E+00
         22   -1    0    0    0    0  0.00000000000E+00  0.00000000000E+00  0.87862240767E+00  0.87862240767E+00  0.00000000000E+00 0.  1.
         22   -1    0    0    0    0 -0.00000000000E+00 -0.00000000000E+00 -0.64712546916E+01  0.64712546916E+01  0.00000000000E+00 0. -1.
          2    1    1    2  501    0  0.67778586641E+00  0.22825760819E+01 -0.25999397843E+01  0.35255128187E+01  0.25500000000E-02 0. -1.
         -2    1    1    2    0  501 -0.67778586641E+00 -0.22825760819E+01 -0.29926924996E+01  0.38243642805E+01  0.25500000000E-02 0.  1.
<mgrwt>
<rscale>  0 0.23810825E+01</rscale>
<asrwt>0</asrwt>
<pdfrwt beam="1">0</pdfrwt>
<pdfrwt beam="2">0</pdfrwt>
<totfact> 0.31028948E+12</totfact>
</mgrwt>
</event>
<event>
 4    1  0.3130345E+006  0.2120550E+01  0.7546771E-02  0.2903850E+00
         22   -1    0    0    0    0  0.00000000000E+00  0.00000000000E+00  0.22468956275E+00  0.22468956275E+00  0.00000000000E+00 0. -1.
         22   -1    0    0    0    0 -0.00000000000E+00 -0.00000000000E+00 -0.31425307155E+02  0.31425307155E+02  0.00000000000E+00 0.  1.
          2    1    1    2  501    0 -0.21008585475E+01  0.28830167882E+00 -0.25136809470E+02  0.25226096039E+02  0.25500000000E-02 0.  1.
         -2    1    1    2    0  501  0.21008585475E+01 -0.28830167882E+00 -0.60638081218E+01  0.64239006791E+01  0.25500000000E-02 0. -1.
<mgrwt>
<rscale>  0 0.21205497E+01</rscale>
<asrwt>0</asrwt>
<pdfrwt beam="1">0</pdfrwt>
<pdfrwt beam="2">0</pdfrwt>
<totfact> 0.20658064E+12</totfact>
</mgrwt>
</event>
<event>
 4    1  0.3130345E+006  0.2306172E+01  0.7546771E-02  0.2800684E+00
         22   -1    0    0    0    0  0.00000000000E+00  0.00000000000E+00  0.33207423505E+01  0.33207423505E+01  0.00000000000E+00 0.  1.
         22   -1    0    0    0    0 -0.00000000000E+00 -0.00000000000E+00 -0.51618860300E+01  0.51618860300E+01  0.00000000000E+00 0. -1.
          2    1    1    2  501    0 -0.23021872600E+01 -0.13549093742E+00 -0.44429824386E+01  0.50058489217E+01  0.25500000000E-02 0. -1.
         -2    1    1    2    0  501  0.23021872600E+01  0.13549093742E+00  0.26018387591E+01  0.34767794588E+01  0.25500000000E-02 0.  1.
<mgrwt>
<rscale>  0 0.23061723E+01</rscale>
<asrwt>0</asrwt>
<pdfrwt beam="1">0</pdfrwt>
<pdfrwt beam="2">0</pdfrwt>
<totfact> 0.87507881E+11</totfact>
</mgrwt>
</event>
<event>
 4    1  0.3130345E+006  0.2423757E+01  0.7546771E-02  0.2743128E+00
         22   -1    0    0    0    0  0.00000000000E+00  0.00000000000E+00  0.41064049509E+00  0.41064049509E+00  0.00000000000E+00 0.  1.
         22   -1    0    0    0    0 -0.00000000000E+00 -0.00000000000E+00 -0.14493718972E+02  0.14493718972E+02  0.00000000000E+00 0. -1.
          2    1    1    2  501    0  0.21392961656E-01  0.24236612485E+01 -0.61933013705E+01  0.66506826623E+01  0.25500000000E-02 0. -1.
         -2    1    1    2    0  501 -0.21392961656E-01 -0.24236612485E+01 -0.78897771064E+01  0.82536768048E+01  0.25500000000E-02 0.  1.
<mgrwt>
<rscale>  0 0.24237570E+01</rscale>
<asrwt>0</asrwt>
<pdfrwt beam="1">0</pdfrwt>
<pdfrwt beam="2">0</pdfrwt>
<totfact> 0.27679056E+12</totfact>
</mgrwt>
</event>
<event>
 4    1  0.3130345E+006  0.6468682E+01  0.7546771E-02  0.1980041E+00
         22   -1    0    0    0    0  0.00000000000E+00  0.00000000000E+00  0.35119964473E+01  0.35119964473E+01  0.00000000000E+00 0.  1.
         22   -1    0    0    0    0 -0.00000000000E+00 -0.00000000000E+00 -0.12324189708E+02  0.12324189708E+02  0.00000000000E+00 0. -1.
          2    1    1    2  501    0  0.53327902741E+01 -0.36613097744E+01 -0.29625066562E+01  0.71147939930E+01  0.25500000000E-02 0.  1.
         -2    1    1    2    0  501 -0.53327902741E+01  0.36613097744E+01 -0.58496866042E+01  0.87213921619E+01  0.25500000000E-02 0. -1.
<mgrwt>
<rscale>  0 0.64686821E+01</rscale>
<asrwt>0</asrwt>
<pdfrwt beam="1">0</pdfrwt>
<pdfrwt beam="2">0</pdfrwt>
<totfact> 0.28796858E+11</totfact>
</mgrwt>
</event>
<event>
 4    1  0.3130345E+006  0.2250945E+01  0.7546771E-02  0.2829677E+00
         22   -1    0    0    0    0  0.00000000000E+00  0.00000000000E+00  0.44196001349E+01  0.44196001349E+01  0.00000000000E+00 0.  1.
         22   -1    0    0    0    0 -0.00000000000E+00 -0.00000000000E+00 -0.18599784575E+01  0.18599784575E+01  0.00000000000E+00 0. -1.
          2    1    1    2  501    0  0.21598936997E+01 -0.63372390313E+00 -0.66491729118E+00  0.23470978433E+01  0.25500000000E-02 0. -1.
         -2    1    1    2    0  501 -0.21598936997E+01  0.63372390313E+00  0.32245389686E+01  0.39324807491E+01  0.25500000000E-02 0.  1.
<mgrwt>
<rscale>  0 0.22509450E+01</rscale>
<asrwt>0</asrwt>
<pdfrwt beam="1">0</pdfrwt>
<pdfrwt beam="2">0</pdfrwt>
<totfact> 0.20633353E+12</totfact>
</mgrwt>
</event>
<event>
 4    1  0.3130345E+006  0.2023275E+01  0.7546771E-02  0.2965190E+00
         22   -1    0    0    0    0  0.00000000000E+00  0.00000000000E+00  0.29876451490E+00  0.29876451490E+00  0.00000000000E+00 0. -1.
         22   -1    0    0    0    0 -0.00000000000E+00 -0.00000000000E+00 -0.19851536164E+02  0.19851536164E+02  0.00000000000E+00 0.  1.
          2    1    1    2  501    0  0.18106687140E+01 -0.90283595913E+00 -0.15384015302E+02  0.15516493395E+02  0.25500000000E-02 0.  1.
         -2    1    1    2    0  501 -0.18106687140E+01  0.90283595913E+00 -0.41687563475E+01  0.46338072844E+01  0.25500000000E-02 0. -1.
<mgrwt>
<rscale>  0 0.20232747E+01</rscale>
<asrwt>0</asrwt>
<pdfrwt beam="1">0</pdfrwt>
<pdfrwt beam="2">0</pdfrwt>
<totfact> 0.26807846E+12</totfact>
</mgrwt>
</event>
<event>
 4    1  0.3130345E+006  0.2327212E+01  0.7546771E-02  0.2789982E+00
         22   -1    0    0    0    0  0.00000000000E+00  0.00000000000E+00  0.30141451826E+00  0.30141451826E+00  0.00000000000E+00 0.  1.
         22   -1    0    0    0    0 -0.00000000000E+00 -0.00000000000E+00 -0.20640103731E+02  0.20640103731E+02  0.00000000000E+00 0. -1.
          2    1    1    2  501    0  0.12535523203E+00 -0.23238323152E+01 -0.13936570435E+02  0.14129540422E+02  0.25500000000E-02 0. -1.
         -2    1    1    2    0  501 -0.12535523203E+00  0.23238323152E+01 -0.64021187779E+01  0.68119778268E+01  0.25500000000E-02 0.  1.
<mgrwt>
<rscale>  0 0.23272123E+01</rscale>
<asrwt>0</asrwt>
<pdfrwt beam="1">0</pdfrwt>
<pdfrwt beam="2">0</pdfrwt>
<totfact> 0.25286381E+12</totfact>
</mgrwt>
</event>
<event>
 4    1  0.3130345E+006  0.2159411E+01  0.7546771E-02  0.2880844E+00
         22   -1    0    0    0    0  0.00000000000E+00  0.00000000000E+00  0.28017338832E+01  0.28017338832E+01  0.00000000000E+00 0.  1.
         22   -1    0    0    0    0 -0.00000000000E+00 -0.00000000000E+00 -0.20214188136E+01  0.20214188136E+01  0.00000000000E+00 0. -1.
          2    1    1    2  501    0 -0.45546141137E+00 -0.21108304848E+01 -0.62340546006E+00  0.22475967839E+01  0.25500000000E-02 0. -1.
         -2    1    1    2    0  501  0.45546141137E+00  0.21108304848E+01  0.14037205296E+01  0.25755559129E+01  0.25500000000E-02 0.  1.
<mgrwt>
<rscale>  0 0.21594112E+01</rscale>
<asrwt>0</asrwt>
<pdfrwt beam="1">0</pdfrwt>
<pdfrwt beam="2">0</pdfrwt>
<totfact> 0.31984267E+12</totfact>
</mgrwt>
</event>
<event>
 4    1  0.3130345E+006  0.2267346E+01  0.7546771E-02  0.2820927E+00
         22   -1    0    0    0    0  0.00000000000E+00  0.00000000000E+00  0.20527976666E+00  0.20527976666E+00  0.00000000000E+00 0. -1.
         22   -1    0    0    0    0 -0.00000000000E+00 -0.00000000000E+00 -0.26532594593E+02  0.26532594593E+02  0.00000000000E+00 0.  1.
          2    1    1    2  501    0  0.32603521148E+00 -0.22437808604E+01 -0.16331144993E+02  0.16487788051E+02  0.25500000000E-02 0.  1.
         -2    1    1    2    0  501 -0.32603521148E+00  0.22437808604E+01 -0.99961698328E+01  0.10250086309E+02  0.25500000000E-02 0. -1.
<mgrwt>
<rscale>  0 0.22673460E+01</rscale>
<asrwt>0</asrwt>
<pdfrwt beam="1">0</pdfrwt>
<pdfrwt beam="2">0</pdfrwt>
<totfact> 0.28338571E+12</totfact>
</mgrwt>
</event>
<event>
 4    1  0.3130345E+006  0.2549535E+01  0.7546771E-02  0.2687086E+00
         22   -1    0    0    0    0  0.00000000000E+00  0.00000000000E+00  0.59160564928E+02  0.59160564928E+02  0.00000000000E+00 0. -1.
         22   -1    0    0    0    0 -0.00000000000E+00 -0.00000000000E+00 -0.10987296731E+00  0.10987296731E+00  0.00000000000E+00 0.  1.
          2    1    1    2  501    0  0.23887019538E+01  0.89119371719E+00  0.29477352321E+02  0.29587403226E+02  0.25500000000E-02 0. -1.
         -2    1    1    2    0  501 -0.23887019538E+01 -0.89119371719E+00  0.29573339639E+02  0.29683034669E+02  0.25500000000E-02 0.  1.
<mgrwt>
<rscale>  0 0.25495352E+01</rscale>
<asrwt>0</asrwt>
<pdfrwt beam="1">0</pdfrwt>
<pdfrwt beam="2">0</pdfrwt>
<totfact> 0.20047696E+12</totfact>
</mgrwt>
</event>
<event>
 4    1  0.3130345E+006  0.2123046E+01  0.7546771E-02  0.2902348E+00
         22   -1    0    0    0    0  0.00000000000E+00  0.00000000000E+00  0.64641196432E+00  0.64641196432E+00  0.00000000000E+00 0. -1.
         22   -1    0    0    0    0 -0.00000000000E+00 -0.00000000000E+00 -0.17712730900E+02  0.17712730900E+02  0.00000000000E+00 0.  1.
          2    1    1    2  501    0 -0.10855220642E+01 -0.18245431469E+01 -0.15681080237E+02  0.15824146099E+02  0.25500000000E-02 0.  1.
         -2    1    1    2    0  501  0.10855220642E+01  0.18245431469E+01 -0.13852386983E+01  0.25349967654E+01  0.25500000000E-02 0. -1.
<mgrwt>
<rscale>  0 0.21230455E+01</rscale>
<asrwt>0</asrwt>
<pdfrwt beam="1">0</pdfrwt>
<pdfrwt beam="2">0</pdfrwt>
<totfact> 0.12941936E+12</totfact>
</mgrwt>
</event>
<event>
 4    1  0.3130345E+006  0.2068799E+01  0.7546771E-02  0.2935784E+00
         22   -1    0    0    0    0  0.00000000000E+00  0.00000000000E+00  0.32984641584E+00  0.32984641584E+00  0.00000000000E+00 0.  1.
         22   -1    0    0    0    0 -0.00000000000E+00 -0.00000000000E+00 -0.17780848802E+02  0.17780848802E+02  0.00000000000E+00 0. -1.
          2    1    1    2  501    0 -0.11384737674E+01 -0.17273683770E+01 -0.13432999739E+02  0.13591372724E+02  0.25500000000E-02 0. -1.
         -2    1    1    2    0  501  0.11384737674E+01  0.17273683770E+01 -0.40180026467E+01  0.45193224935E+01  0.25500000000E-02 0.  1.
<mgrwt>
<rscale>  0 0.20687993E+01</rscale>
<asrwt>0</asrwt>
<pdfrwt beam="1">0</pdfrwt>
<pdfrwt beam="2">0</pdfrwt>
<totfact> 0.27512240E+12</totfact>
</mgrwt>
</event>
<event>
 4    1  0.3130345E+006  0.2891961E+01  0.7546771E-02  0.2557464E+00
         22   -1    0    0    0    0  0.00000000000E+00  0.00000000000E+00  0.27326109876E+01  0.27326109876E+01  0.00000000000E+00 0. -1.
         22   -1    0    0    0    0 -0.00000000000E+00 -0.00000000000E+00 -0.41840258899E+01  0.41840258899E+01  0.00000000000E+00 0.  1.
          2    1    1    2  501    0 -0.28139589776E+01 -0.66713270324E+00 -0.25177132574E+01  0.38343601449E+01  0.25500000000E-02 0.  1.
         -2    1    1    2    0  501  0.28139589776E+01  0.66713270324E+00  0.10662983552E+01  0.30822767326E+01  0.25500000000E-02 0. -1.
<mgrwt>
<rscale>  0 0.28919609E+01</rscale>
<asrwt>0</asrwt>
<pdfrwt beam="1">0</pdfrwt>
<pdfrwt beam="2">0</pdfrwt>
<totfact> 0.14084736E+12</totfact>
</mgrwt>
</event>
<event>
 4    1  0.3130345E+006  0.3731696E+01  0.7546771E-02  0.2331716E+00
         22   -1    0    0    0    0  0.00000000000E+00  0.00000000000E+00  0.11640201712E+01  0.11640201712E+01  0.00000000000E+00 0.  1.
         22   -1    0    0    0    0 -0.00000000000E+00 -0.00000000000E+00 -0.13474641320E+02  0.13474641320E+02  0.00000000000E+00 0. -1.
          2    1    1    2  501    0 -0.27861167914E+01 -0.24825600126E+01 -0.86065725363E+01  0.93807594744E+01  0.25500000000E-02 0. -1.
         -2    1    1    2    0  501  0.27861167914E+01  0.24825600126E+01 -0.37040486124E+01  0.52579020166E+01  0.25500000000E-02 0.  1.
<mgrwt>
<rscale>  0 0.37316963E+01</rscale>
<asrwt>0</asrwt>
<pdfrwt beam="1">0</pdfrwt>
<pdfrwt beam="2">0</pdfrwt>
<totfact> 0.92763512E+11</totfact>
</mgrwt>
</event>
<event>
 4    1  0.3130345E+006  0.2123172E+01  0.7546771E-02  0.2902272E+00
         22   -1    0    0    0    0  0.00000000000E+00  0.00000000000E+00  0.11636194807E+03  0.11636194807E+03  0.00000000000E+00 0. -1.
         22   -1    0    0    0    0 -0.00000000000E+00 -0.00000000000E+00 -0.38748528374E-01  0.38748528374E-01  0.00000000000E+00 0.  1.
          2    1    1    2  501    0 -0.12975962332E+01  0.16805049562E+01  0.57297086526E+02  0.57336410629E+02  0.25500000000E-02 0.  1.
         -2    1    1    2    0  501  0.12975962332E+01 -0.16805049562E+01  0.59026113020E+02  0.59064285974E+02  0.25500000000E-02 0. -1.
<mgrwt>
<rscale>  0 0.21231720E+01</rscale>
<asrwt>0</asrwt>
<pdfrwt beam="1">0</pdfrwt>
<pdfrwt beam="2">0</pdfrwt>
<totfact> 0.24842165E+12</totfact>
</mgrwt>
</event>
<event>
 4    1  0.3130345E+006  0.3815655E+01  0.7546771E-02  0.2313981E+00
         22   -1    0    0    0    0  0.00000000000E+00  0.00000000000E+00  0.30016686039E+02  0.30016686039E+02  0.00000000000E+00 0.  1.
         22   -1    0    0    0    0 -0.00000000000E+00 -0.00000000000E+00 -0.43587528387E+01  0.43587528387E+01  0.00000000000E+00 0. -1.
          2    1    1    2  501    0  0.35784113236E+01  0.13244567629E+01 -0.33742405103E+01  0.50935958656E+01  0.25500000000E-02 0. -1.
         -2    1    1    2    0  501 -0.35784113236E+01 -0.13244567629E+01  0.29032173710E+02  0.29281843012E+02  0.25500000000E-02 0.  1.
<mgrwt>
<rscale>  0 0.38156546E+01</rscale>
<asrwt>0</asrwt>
<pdfrwt beam="1">0</pdfrwt>
<pdfrwt beam="2">0</pdfrwt>
<totfact> 0.73700507E+10</totfact>
</mgrwt>
</event>
<event>
 4    1  0.3130345E+006  0.2601477E+01  0.7546771E-02  0.2665415E+00
         22   -1    0    0    0    0  0.00000000000E+00  0.00000000000E+00  0.10651452490E+03  0.10651452490E+03  0.00000000000E+00 0. -1.
         22   -1    0    0    0    0 -0.00000000000E+00 -0.00000000000E+00 -0.11394234538E+00  0.11394234538E+00  0.00000000000E+00 0.  1.
          2    1    1    2  501    0 -0.12895776627E+01  0.22593510643E+01  0.17740512432E+02  0.17930238861E+02  0.25500000000E-02 0. -1.
         -2    1    1    2    0  501  0.12895776627E+01 -0.22593510643E+01  0.88660070128E+02  0.88698228389E+02  0.25500000000E-02 0.  1.
<mgrwt>
<rscale>  0 0.26014773E+01</rscale>
<asrwt>0</asrwt>
<pdfrwt beam="1">0</pdfrwt>
<pdfrwt beam="2">0</pdfrwt>
<totfact> 0.85800561E+11</totfact>
</mgrwt>
</event>
<event>
 4    1  0.3130345E+006  0.2533522E+01  0.7546771E-02  0.2693933E+00
         22   -1    0    0    0    0  0.00000000000E+00  0.00000000000E+00  0.44448473550E+01  0.44448473550E+01  0.00000000000E+00 0. -1.
         22   -1    0    0    0    0 -0.00000000000E+00 -0.00000000000E+00 -0.15478689801E+01  0.15478689801E+01  0.00000000000E+00 0.  1.
          2    1    1    2  501    0 -0.60008083524E+00 -0.24614286012E+01  0.22243668655E+01  0.33714302933E+01  0.25500000000E-02 0. -1.
         -2    1    1    2    0  501  0.60008083524E+00  0.24614286012E+01  0.67261150943E+00  0.26212860418E+01  0.25500000000E-02 0.  1.
<mgrwt>
<rscale>  0 0.25335221E+01</rscale>
<asrwt>0</asrwt>
<pdfrwt beam="1">0</pdfrwt>
<pdfrwt beam="2">0</pdfrwt>
<totfact> 0.25332769E+12</totfact>
</mgrwt>
</event>
<event>
 4    1  0.3130345E+006  0.2030039E+01  0.7546771E-02  0.2960739E+00
         22   -1    0    0    0    0  0.00000000000E+00  0.00000000000E+00  0.51759044566E+02  0.51759044566E+02  0.00000000000E+00 0. -1.
         22   -1    0    0    0    0 -0.00000000000E+00 -0.00000000000E+00 -0.86064316096E-01  0.86064316096E-01  0.00000000000E+00 0.  1.
          2    1    1    2  501    0  0.29143962507E+00  0.20090082888E+01  0.18743115912E+02  0.18852730623E+02  0.25500000000E-02 0.  1.
         -2    1    1    2    0  501 -0.29143962507E+00 -0.20090082888E+01  0.32929864338E+02  0.32992378259E+02  0.25500000000E-02 0. -1.
<mgrwt>
<rscale>  0 0.20300389E+01</rscale>
<asrwt>0</asrwt>
<pdfrwt beam="1">0</pdfrwt>
<pdfrwt beam="2">0</pdfrwt>
<totfact> 0.31374075E+12</totfact>
</mgrwt>
</event>
<event>
 4    1  0.3130345E+006  0.2962948E+01  0.7546771E-02  0.2534020E+00
         22   -1    0    0    0    0  0.00000000000E+00  0.00000000000E+00  0.39312429411E+01  0.39312429411E+01  0.00000000000E+00 0.  1.
         22   -1    0    0    0    0 -0.00000000000E+00 -0.00000000000E+00 -0.23730980844E+01  0.23730980844E+01  0.00000000000E+00 0. -1.
          2    1    1    2  501    0  0.15970535727E+01  0.24956911080E+01  0.13593665197E-01  0.29629791614E+01  0.25500000000E-02 0. -1.
         -2    1    1    2    0  501 -0.15970535727E+01 -0.24956911080E+01  0.15445511916E+01  0.33413618641E+01  0.25500000000E-02 0.  1.
<mgrwt>
<rscale>  0 0.29629480E+01</rscale>
<asrwt>0</asrwt>
<pdfrwt beam="1">0</pdfrwt>
<pdfrwt beam="2">0</pdfrwt>
<totfact> 0.17860719E+12</totfact>
</mgrwt>
</event>
<event>
 4    1  0.3130345E+006  0.2603778E+01  0.7546771E-02  0.2664473E+00
         22   -1    0    0    0    0  0.00000000000E+00  0.00000000000E+00  0.33932719787E+01  0.33932719787E+01  0.00000000000E+00 0.  1.
         22   -1    0    0    0    0 -0.00000000000E+00 -0.00000000000E+00 -0.20355166476E+01  0.20355166476E+01  0.00000000000E+00 0. -1.
          2    1    1    2  501    0 -0.29246925232E+00  0.25872988014E+01  0.31022789589E+00  0.26221939671E+01  0.25500000000E-02 0.  1.
         -2    1    1    2    0  501  0.29246925232E+00 -0.25872988014E+01  0.10475274352E+01  0.28065946592E+01  0.25500000000E-02 0. -1.
<mgrwt>
<rscale>  0 0.26037780E+01</rscale>
<asrwt>0</asrwt>
<pdfrwt beam="1">0</pdfrwt>
<pdfrwt beam="2">0</pdfrwt>
<totfact> 0.25363833E+12</totfact>
</mgrwt>
</event>
<event>
 4    1  0.3130345E+006  0.3390466E+01  0.7546771E-02  0.2411545E+00
         22   -1    0    0    0    0  0.00000000000E+00  0.00000000000E+00  0.34568920654E+02  0.34568920654E+02  0.00000000000E+00 0. -1.
         22   -1    0    0    0    0 -0.00000000000E+00 -0.00000000000E+00 -0.37325382115E+00  0.37325382115E+00  0.00000000000E+00 0.  1.
          2    1    1    2  501    0 -0.10673141321E+01  0.32180883861E+01  0.11327067209E+02  0.11823608179E+02  0.25500000000E-02 0.  1.
         -2    1    1    2    0  501  0.10673141321E+01 -0.32180883861E+01  0.22868599624E+02  0.23118566296E+02  0.25500000000E-02 0. -1.
<mgrwt>
<rscale>  0 0.33904659E+01</rscale>
<asrwt>0</asrwt>
<pdfrwt beam="1">0</pdfrwt>
<pdfrwt beam="2">0</pdfrwt>
<totfact> 0.10352002E+12</totfact>
</mgrwt>
</event>
<event>
 4    1  0.3130345E+006  0.2305905E+01  0.7546771E-02  0.2800821E+00
         22   -1    0    0    0    0  0.00000000000E+00  0.00000000000E+00  0.15741599439E+02  0.15741599439E+02  0.00000000000E+00 0. -1.
         22   -1    0    0    0    0 -0.00000000000E+00 -0.00000000000E+00 -0.61695532745E+00  0.61695532745E+00  0.00000000000E+00 0.  1.
          2    1    1    2  501    0 -0.22464298343E+01 -0.52033183896E+00  0.20602467301E+01  0.30922185101E+01  0.25500000000E-02 0.  1.
         -2    1    1    2    0  501  0.22464298343E+01  0.52033183896E+00  0.13064397381E+02  0.13266336256E+02  0.25500000000E-02 0. -1.
<mgrwt>
<rscale>  0 0.23059052E+01</rscale>
<asrwt>0</asrwt>
<pdfrwt beam="1">0</pdfrwt>
<pdfrwt beam="2">0</pdfrwt>
<totfact> 0.15787905E+12</totfact>
</mgrwt>
</event>
<event>
 4    1  0.3130345E+006  0.2872134E+01  0.7546771E-02  0.2564199E+00
         22   -1    0    0    0    0  0.00000000000E+00  0.00000000000E+00  0.50662638515E+00  0.50662638515E+00  0.00000000000E+00 0.  1.
         22   -1    0    0    0    0 -0.00000000000E+00 -0.00000000000E+00 -0.17985783854E+02  0.17985783854E+02  0.00000000000E+00 0. -1.
          2    1    1    2  501    0 -0.26917733725E+01  0.10017502851E+01 -0.11584956019E+02  0.11935675933E+02  0.25500000000E-02 0. -1.
         -2    1    1    2    0  501  0.26917733725E+01 -0.10017502851E+01 -0.58942014501E+01  0.65567343060E+01  0.25500000000E-02 0.  1.
<mgrwt>
<rscale>  0 0.28721341E+01</rscale>
<asrwt>0</asrwt>
<pdfrwt beam="1">0</pdfrwt>
<pdfrwt beam="2">0</pdfrwt>
<totfact> 0.16731600E+12</totfact>
</mgrwt>
</event>
<event>
 4    1  0.3130345E+006  0.2153560E+01  0.7546771E-02  0.2884257E+00
         22   -1    0    0    0    0  0.00000000000E+00  0.00000000000E+00  0.11581773737E+01  0.11581773737E+01  0.00000000000E+00 0.  1.
         22   -1    0    0    0    0 -0.00000000000E+00 -0.00000000000E+00 -0.61425698154E+01  0.61425698154E+01  0.00000000000E+00 0. -1.
          2    1    1    2  501    0 -0.20155135983E+01  0.75862879641E+00 -0.46458810840E+01  0.51207450888E+01  0.25500000000E-02 0. -1.
         -2    1    1    2    0  501  0.20155135983E+01 -0.75862879641E+00 -0.33851135770E+00  0.21800021003E+01  0.25500000000E-02 0.  1.
<mgrwt>
<rscale>  0 0.21535597E+01</rscale>
<asrwt>0</asrwt>
<pdfrwt beam="1">0</pdfrwt>
<pdfrwt beam="2">0</pdfrwt>
<totfact> 0.24083118E+12</totfact>
</mgrwt>
</event>
<event>
 4    1  0.3130345E+006  0.2643631E+01  0.7546771E-02  0.2648406E+00
         22   -1    0    0    0    0  0.00000000000E+00  0.00000000000E+00  0.23055324209E+02  0.23055324209E+02  0.00000000000E+00 0.  1.
         22   -1    0    0    0    0 -0.00000000000E+00 -0.00000000000E+00 -0.13052111478E+01  0.13052111478E+01  0.00000000000E+00 0. -1.
          2    1    1    2  501    0  0.26169127745E+01 -0.37489252027E+00  0.20251937006E+00  0.26513765234E+01  0.25500000000E-02 0. -1.
         -2    1    1    2    0  501 -0.26169127745E+01  0.37489252027E+00  0.21547593691E+02  0.21709158833E+02  0.25500000000E-02 0.  1.
<mgrwt>
<rscale>  0 0.26436307E+01</rscale>
<asrwt>0</asrwt>
<pdfrwt beam="1">0</pdfrwt>
<pdfrwt beam="2">0</pdfrwt>
<totfact> 0.41799991E+11</totfact>
</mgrwt>
</event>
<event>
 4    1  0.3130345E+006  0.3120548E+01  0.7546771E-02  0.2485406E+00
         22   -1    0    0    0    0  0.00000000000E+00  0.00000000000E+00  0.16645701912E+01  0.16645701912E+01  0.00000000000E+00 0. -1.
         22   -1    0    0    0    0 -0.00000000000E+00 -0.00000000000E+00 -0.18764727277E+02  0.18764727277E+02  0.00000000000E+00 0.  1.
          2    1    1    2  501    0 -0.23656533047E+01 -0.20350668930E+01 -0.17024188255E+02  0.17307824966E+02  0.25500000000E-02 0.  1.
         -2    1    1    2    0  501  0.23656533047E+01  0.20350668930E+01 -0.75968831121E-01  0.31214725023E+01  0.25500000000E-02 0. -1.
<mgrwt>
<rscale>  0 0.31205479E+01</rscale>
<asrwt>0</asrwt>
<pdfrwt beam="1">0</pdfrwt>
<pdfrwt beam="2">0</pdfrwt>
<totfact> 0.40872279E+11</totfact>
</mgrwt>
</event>
<event>
 4    1  0.3130345E+006  0.2313032E+01  0.7546771E-02  0.2797175E+00
         22   -1    0    0    0    0  0.00000000000E+00  0.00000000000E+00  0.71799080891E+00  0.71799080891E+00  0.00000000000E+00 0. -1.
         22   -1    0    0    0    0 -0.00000000000E+00 -0.00000000000E+00 -0.14521090301E+02  0.14521090301E+02  0.00000000000E+00 0.  1.
          2    1    1    2  501    0  0.20079237239E+01 -0.11481945081E+01 -0.12218052283E+02  0.12435068010E+02  0.25500000000E-02 0.  1.
         -2    1    1    2    0  501 -0.20079237239E+01  0.11481945081E+01 -0.15850472090E+01  0.28040131002E+01  0.25500000000E-02 0. -1.
<mgrwt>
<rscale>  0 0.23130315E+01</rscale>
<asrwt>0</asrwt>
<pdfrwt beam="1">0</pdfrwt>
<pdfrwt beam="2">0</pdfrwt>
<totfact> 0.14681409E+12</totfact>
</mgrwt>
</event>
<event>
 4    1  0.3130345E+006  0.4025096E+01  0.7546771E-02  0.2272523E+00
         22   -1    0    0    0    0  0.00000000000E+00  0.00000000000E+00  0.17399536102E+02  0.17399536102E+02  0.00000000000E+00 0.  1.
         22   -1    0    0    0    0 -0.00000000000E+00 -0.00000000000E+00 -0.10170479900E+02  0.10170479900E+02  0.00000000000E+00 0. -1.
          2    1    1    2  501    0 -0.38180745552E+01  0.12742452543E+01 -0.95243044027E+01  0.10339911757E+02  0.25500000000E-02 0. -1.
         -2    1    1    2    0  501  0.38180745552E+01 -0.12742452543E+01  0.16753360605E+02  0.17230104246E+02  0.25500000000E-02 0.  1.
<mgrwt>
<rscale>  0 0.40250964E+01</rscale>
<asrwt>0</asrwt>
<pdfrwt beam="1">0</pdfrwt>
<pdfrwt beam="2">0</pdfrwt>
<totfact> 0.53119879E+10</totfact>
</mgrwt>
</event>
<event>
 4    1  0.3130345E+006  0.2391394E+01  0.7546771E-02  0.2758437E+00
         22   -1    0    0    0    0  0.00000000000E+00  0.00000000000E+00  0.42266547793E+01  0.42266547793E+01  0.00000000000E+00 0.  1.
         22   -1    0    0    0    0 -0.00000000000E+00 -0.00000000000E+00 -0.18112110850E+01  0.18112110850E+01  0.00000000000E+00 0. -1.
          2    1    1    2  501    0  0.15033701750E+01  0.18597413199E+01 -0.31069237365E+00  0.24114924660E+01  0.25500000000E-02 0. -1.
         -2    1    1    2    0  501 -0.15033701750E+01 -0.18597413199E+01  0.27261360680E+01  0.36263733983E+01  0.25500000000E-02 0.  1.
<mgrwt>
<rscale>  0 0.23913942E+01</rscale>
<asrwt>0</asrwt>
<pdfrwt beam="1">0</pdfrwt>
<pdfrwt beam="2">0</pdfrwt>
<totfact> 0.22426932E+12</totfact>
</mgrwt>
</event>
<event>
 4    1  0.3130345E+006  0.2422107E+01  0.7546771E-02  0.2743900E+00
         22   -1    0    0    0    0  0.00000000000E+00  0.00000000000E+00  0.50495195091E+02  0.50495195091E+02  0.00000000000E+00 0.  1.
         22   -1    0    0    0    0 -0.00000000000E+00 -0.00000000000E+00 -0.14810425800E+00  0.14810425800E+00  0.00000000000E+00 0. -1.
          2    1    1    2  501    0  0.19820543847E+01  0.13921400119E+01  0.36929542009E+02  0.37008886404E+02  0.25500000000E-02 0.  1.
         -2    1    1    2    0  501 -0.19820543847E+01 -0.13921400119E+01  0.13417548824E+02  0.13634412945E+02  0.25500000000E-02 0. -1.
<mgrwt>
<rscale>  0 0.24221065E+01</rscale>
<asrwt>0</asrwt>
<pdfrwt beam="1">0</pdfrwt>
<pdfrwt beam="2">0</pdfrwt>
<totfact> 0.17762049E+12</totfact>
</mgrwt>
</event>
<event>
 4    1  0.3130345E+006  0.2271786E+01  0.7546771E-02  0.2818579E+00
         22   -1    0    0    0    0  0.00000000000E+00  0.00000000000E+00  0.10720426933E+01  0.10720426933E+01  0.00000000000E+00 0. -1.
         22   -1    0    0    0    0 -0.00000000000E+00 -0.00000000000E+00 -0.67273977013E+01  0.67273977013E+01  0.00000000000E+00 0.  1.
          2    1    1    2  501    0 -0.20827932488E+00  0.22622165648E+01 -0.49073342564E+01  0.54076741831E+01  0.25500000000E-02 0.  1.
         -2    1    1    2    0  501  0.20827932488E+00 -0.22622165648E+01 -0.74802075157E+00  0.23917662115E+01  0.25500000000E-02 0. -1.
<mgrwt>
<rscale>  0 0.22717858E+01</rscale>
<asrwt>0</asrwt>
<pdfrwt beam="1">0</pdfrwt>
<pdfrwt beam="2">0</pdfrwt>
<totfact> 0.23605200E+12</totfact>
</mgrwt>
</event>
<event>
 4    1  0.3130345E+006  0.2079977E+01  0.7546771E-02  0.2928756E+00
         22   -1    0    0    0    0  0.00000000000E+00  0.00000000000E+00  0.20258661332E+01  0.20258661332E+01  0.00000000000E+00 0.  1.
         22   -1    0    0    0    0 -0.00000000000E+00 -0.00000000000E+00 -0.21377810693E+01  0.21377810693E+01  0.00000000000E+00 0. -1.
          2    1    1    2  501    0  0.19914470008E+00  0.20704204583E+01 -0.12345244146E+00  0.20836378029E+01  0.25500000000E-02 0. -1.
         -2    1    1    2    0  501 -0.19914470008E+00 -0.20704204583E+01  0.11537505418E-01  0.20800093996E+01  0.25500000000E-02 0.  1.
<mgrwt>
<rscale>  0 0.20799774E+01</rscale>
<asrwt>0</asrwt>
<pdfrwt beam="1">0</pdfrwt>
<pdfrwt beam="2">0</pdfrwt>
<totfact> 0.43691004E+12</totfact>
</mgrwt>
</event>
<event>
 4    1  0.3130345E+006  0.2588367E+01  0.7546771E-02  0.2670809E+00
         22   -1    0    0    0    0  0.00000000000E+00  0.00000000000E+00  0.45341906748E+00  0.45341906748E+00  0.00000000000E+00 0.  1.
         22   -1    0    0    0    0 -0.00000000000E+00 -0.00000000000E+00 -0.16945194731E+02  0.16945194731E+02  0.00000000000E+00 0. -1.
          2    1    1    2  501    0  0.10794563278E+01  0.23525328884E+01 -0.11358518342E+02  0.11649703103E+02  0.25500000000E-02 0. -1.
         -2    1    1    2    0  501 -0.10794563278E+01 -0.23525328884E+01 -0.51332573207E+01  0.57489106949E+01  0.25500000000E-02 0.  1.
<mgrwt>
<rscale>  0 0.25883669E+01</rscale>
<asrwt>0</asrwt>
<pdfrwt beam="1">0</pdfrwt>
<pdfrwt beam="2">0</pdfrwt>
<totfact> 0.20416533E+12</totfact>
</mgrwt>
</event>
<event>
 4    1  0.3130345E+006  0.7751440E+01  0.7546771E-02  0.1890973E+00
         22   -1    0    0    0    0  0.00000000000E+00  0.00000000000E+00  0.16732594907E+02  0.16732594907E+02  0.00000000000E+00 0. -1.
         22   -1    0    0    0    0 -0.00000000000E+00 -0.00000000000E+00 -0.35911341126E+01  0.35911341126E+01  0.00000000000E+00 0.  1.
          2    1    1    2  501    0 -0.77381177274E+01  0.45425073289E+00  0.64860145060E+01  0.10107086641E+02  0.25500000000E-02 0.  1.
         -2    1    1    2    0  501  0.77381177274E+01 -0.45425073289E+00  0.66554462879E+01  0.10216642378E+02  0.25500000000E-02 0. -1.
<mgrwt>
<rscale>  0 0.77514396E+01</rscale>
<asrwt>0</asrwt>
<pdfrwt beam="1">0</pdfrwt>
<pdfrwt beam="2">0</pdfrwt>
<totfact> 0.19268775E+11</totfact>
</mgrwt>
</event>
<event>
 4    1  0.3130345E+006  0.2212785E+01  0.7546771E-02  0.2850516E+00
         22   -1    0    0    0    0  0.00000000000E+00  0.00000000000E+00  0.90914942010E+00  0.90914942010E+00  0.00000000000E+00 0.  1.
         22   -1    0    0    0    0 -0.00000000000E+00 -0.00000000000E+00 -0.16041045896E+02  0.16041045896E+02  0.00000000000E+00 0. -1.
          2    1    1    2  501    0 -0.90330378466E+00 -0.20200131776E+01 -0.14473305044E+02  0.14641481358E+02  0.25500000000E-02 0. -1.
         -2    1    1    2    0  501  0.90330378466E+00  0.20200131776E+01 -0.65859143274E+00  0.23087139587E+01  0.25500000000E-02 0.  1.
<mgrwt>
<rscale>  0 0.22127850E+01</rscale>
<asrwt>0</asrwt>
<pdfrwt beam="1">0</pdfrwt>
<pdfrwt beam="2">0</pdfrwt>
<totfact> 0.99282430E+11</totfact>
</mgrwt>
</event>
<event>
 4    1  0.3130345E+006  0.2103135E+01  0.7546771E-02  0.2914426E+00
         22   -1    0    0    0    0  0.00000000000E+00  0.00000000000E+00  0.78026456141E+02  0.78026456141E+02  0.00000000000E+00 0. -1.
         22   -1    0    0    0    0 -0.00000000000E+00 -0.00000000000E+00 -0.16831318678E+00  0.16831318678E+00  0.00000000000E+00 0.  1.
          2    1    1    2  501    0  0.18847579556E+01  0.93319857563E+00  0.70893423903E+01  0.73947247523E+01  0.25500000000E-02 0.  1.
         -2    1    1    2    0  501 -0.18847579556E+01 -0.93319857563E+00  0.70768800563E+02  0.70800044575E+02  0.25500000000E-02 0. -1.
<mgrwt>
<rscale>  0 0.21031354E+01</rscale>
<asrwt>0</asrwt>
<pdfrwt beam="1">0</pdfrwt>
<pdfrwt beam="2">0</pdfrwt>
<totfact> 0.85824920E+11</totfact>
</mgrwt>
</event>
<event>
 4    1  0.3130345E+006  0.2421398E+01  0.7546771E-02  0.2744231E+00
         22   -1    0    0    0    0  0.00000000000E+00  0.00000000000E+00  0.19053412095E+02  0.19053412095E+02  0.00000000000E+00 0.  1.
         22   -1    0    0    0    0 -0.00000000000E+00 -0.00000000000E+00 -0.31302234962E+00  0.31302234962E+00  0.00000000000E+00 0. -1.
          2    1    1    2  501    0  0.16160068023E+01 -0.18032425998E+01  0.81102441992E+01  0.84639960617E+01  0.25500000000E-02 0. -1.
         -2    1    1    2    0  501 -0.16160068023E+01  0.18032425998E+01  0.10630145546E+02  0.10902438383E+02  0.25500000000E-02 0.  1.
<mgrwt>
<rscale>  0 0.24213980E+01</rscale>
<asrwt>0</asrwt>
<pdfrwt beam="1">0</pdfrwt>
<pdfrwt beam="2">0</pdfrwt>
<totfact> 0.26778541E+12</totfact>
</mgrwt>
</event>
<event>
 4    1  0.3130345E+006  0.2119693E+01  0.7546771E-02  0.2904366E+00
         22   -1    0    0    0    0  0.00000000000E+00  0.00000000000E+00  0.98325424959E+00  0.98325424959E+00  0.00000000000E+00 0. -1.
         22   -1    0    0    0    0 -0.00000000000E+00 -0.00000000000E+00 -0.54979354193E+01  0.54979354193E+01  0.00000000000E+00 0.  1.
          2    1    1    2  501    0  0.16967296590E+01  0.12705119406E+01 -0.35889370027E+01  0.41681611580E+01  0.25500000000E-02 0. -1.
         -2    1    1    2    0  501 -0.16967296590E+01 -0.12705119406E+01 -0.92574416700E+00  0.23130285109E+01  0.25500000000E-02 0.  1.
<mgrwt>
<rscale>  0 0.21196931E+01</rscale>
<asrwt>0</asrwt>
<pdfrwt beam="1">0</pdfrwt>
<pdfrwt beam="2">0</pdfrwt>
<totfact> 0.33133742E+12</totfact>
</mgrwt>
</event>
<event>
 4    1  0.3130345E+006  0.2096046E+01  0.7546771E-02  0.2918780E+00
         22   -1    0    0    0    0  0.00000000000E+00  0.00000000000E+00  0.18198325673E+02  0.18198325673E+02  0.00000000000E+00 0. -1.
         22   -1    0    0    0    0 -0.00000000000E+00 -0.00000000000E+00 -0.34303867357E+00  0.34303867357E+00  0.00000000000E+00 0.  1.
          2    1    1    2  501    0  0.13898009467E+01  0.15690306109E+01  0.38818394481E+01  0.44115856257E+01  0.25500000000E-02 0. -1.
         -2    1    1    2    0  501 -0.13898009467E+01 -0.15690306109E+01  0.13973447551E+02  0.14129778720E+02  0.25500000000E-02 0.  1.
<mgrwt>
<rscale>  0 0.20960463E+01</rscale>
<asrwt>0</asrwt>
<pdfrwt beam="1">0</pdfrwt>
<pdfrwt beam="2">0</pdfrwt>
<totfact> 0.25579953E+12</totfact>
</mgrwt>
</event>
<event>
 4    1  0.3130345E+006  0.2287206E+01  0.7546771E-02  0.2810491E+00
         22   -1    0    0    0    0  0.00000000000E+00  0.00000000000E+00  0.72680525476E+00  0.72680525476E+00  0.00000000000E+00 0. -1.
         22   -1    0    0    0    0 -0.00000000000E+00 -0.00000000000E+00 -0.13790627317E+02  0.13790627317E+02  0.00000000000E+00 0.  1.
          2    1    1    2  501    0 -0.14141623095E+01  0.17976232292E+01 -0.11550800730E+02  0.11775071479E+02  0.25500000000E-02 0.  1.
         -2    1    1    2    0  501  0.14141623095E+01 -0.17976232292E+01 -0.15130213318E+01  0.27423610930E+01  0.25500000000E-02 0. -1.
<mgrwt>
<rscale>  0 0.22872059E+01</rscale>
<asrwt>0</asrwt>
<pdfrwt beam="1">0</pdfrwt>
<pdfrwt beam="2">0</pdfrwt>
<totfact> 0.15426370E+12</totfact>
</mgrwt>
</event>
<event>
 4    1  0.3130345E+006  0.2211120E+01  0.7546771E-02  0.2851441E+00
         22   -1    0    0    0    0  0.00000000000E+00  0.00000000000E+00  0.18501225384E+02  0.18501225384E+02  0.00000000000E+00 0.  1.
         22   -1    0    0    0    0 -0.00000000000E+00 -0.00000000000E+00 -0.28725146376E+00  0.28725146376E+00  0.00000000000E+00 0. -1.
          2    1    1    2  501    0 -0.14197353197E+01 -0.16951095611E+01  0.64489814121E+01  0.68175077967E+01  0.25500000000E-02 0.  1.
         -2    1    1    2    0  501  0.14197353197E+01  0.16951095611E+01  0.11764992508E+02  0.11970969051E+02  0.25500000000E-02 0. -1.
<mgrwt>
<rscale>  0 0.22111199E+01</rscale>
<asrwt>0</asrwt>
<pdfrwt beam="1">0</pdfrwt>
<pdfrwt beam="2">0</pdfrwt>
<totfact> 0.30583548E+12</totfact>
</mgrwt>
</event>
<event>
 4    1  0.3130345E+006  0.2118898E+01  0.7546771E-02  0.2904846E+00
         22   -1    0    0    0    0  0.00000000000E+00  0.00000000000E+00  0.15247943726E+02  0.15247943726E+02  0.00000000000E+00 0.  1.
         22   -1    0    0    0    0 -0.00000000000E+00 -0.00000000000E+00 -0.42219831695E+00  0.42219831695E+00  0.00000000000E+00 0. -1.
          2    1    1    2  501    0 -0.15462016983E+01  0.14487861072E+01  0.31029886415E+01  0.37574280949E+01  0.25500000000E-02 0. -1.
         -2    1    1    2    0  501  0.15462016983E+01 -0.14487861072E+01  0.11722756767E+02  0.11912713948E+02  0.25500000000E-02 0.  1.
<mgrwt>
<rscale>  0 0.21188977E+01</rscale>
<asrwt>0</asrwt>
<pdfrwt beam="1">0</pdfrwt>
<pdfrwt beam="2">0</pdfrwt>
<totfact> 0.25202818E+12</totfact>
</mgrwt>
</event>
<event>
 4    1  0.3130345E+006  0.3228043E+01  0.7546771E-02  0.2454684E+00
         22   -1    0    0    0    0  0.00000000000E+00  0.00000000000E+00  0.32905178614E+02  0.32905178614E+02  0.00000000000E+00 0.  1.
         22   -1    0    0    0    0 -0.00000000000E+00 -0.00000000000E+00 -0.33587760805E+00  0.33587760805E+00  0.00000000000E+00 0. -1.
          2    1    1    2  501    0 -0.31714006011E+01 -0.60205921138E+00  0.12310641394E+02  0.12726828163E+02  0.25500000000E-02 0. -1.
         -2    1    1    2    0  501  0.31714006011E+01  0.60205921138E+00  0.20258659612E+02  0.20514228059E+02  0.25500000000E-02 0.  1.
<mgrwt>
<rscale>  0 0.32280433E+01</rscale>
<asrwt>0</asrwt>
<pdfrwt beam="1">0</pdfrwt>
<pdfrwt beam="2">0</pdfrwt>
<totfact> 0.12416825E+12</totfact>
</mgrwt>
</event>
<event>
 4    1  0.3130345E+006  0.2127622E+01  0.7546771E-02  0.2899603E+00
         22   -1    0    0    0    0  0.00000000000E+00  0.00000000000E+00  0.12545514550E+00  0.12545514550E+00  0.00000000000E+00 0.  1.
         22   -1    0    0    0    0 -0.00000000000E+00 -0.00000000000E+00 -0.36124517414E+02  0.36124517414E+02  0.00000000000E+00 0. -1.
          2    1    1    2  501    0 -0.21200226856E+01  0.17964331816E+00 -0.18615379235E+02  0.18736571684E+02  0.25500000000E-02 0. -1.
         -2    1    1    2    0  501  0.21200226856E+01 -0.17964331816E+00 -0.17383683033E+02  0.17513400875E+02  0.25500000000E-02 0.  1.
<mgrwt>
<rscale>  0 0.21276218E+01</rscale>
<asrwt>0</asrwt>
<pdfrwt beam="1">0</pdfrwt>
<pdfrwt beam="2">0</pdfrwt>
<totfact> 0.33051005E+12</totfact>
</mgrwt>
</event>
<event>
 4    1  0.3130345E+006  0.4159834E+01  0.7546771E-02  0.2247745E+00
         22   -1    0    0    0    0  0.00000000000E+00  0.00000000000E+00  0.23798867660E+02  0.23798867660E+02  0.00000000000E+00 0.  1.
         22   -1    0    0    0    0 -0.00000000000E+00 -0.00000000000E+00 -0.90113141070E+00  0.90113141070E+00  0.00000000000E+00 0. -1.
          2    1    1    2  501    0  0.40265638486E+01  0.10445077360E+01  0.60215733274E+01  0.73187133212E+01  0.25500000000E-02 0.  1.
         -2    1    1    2    0  501 -0.40265638486E+01 -0.10445077360E+01  0.16876162922E+02  0.17381285749E+02  0.25500000000E-02 0. -1.
<mgrwt>
<rscale>  0 0.41598341E+01</rscale>
<asrwt>0</asrwt>
<pdfrwt beam="1">0</pdfrwt>
<pdfrwt beam="2">0</pdfrwt>
<totfact> 0.61356747E+11</totfact>
</mgrwt>
</event>
<event>
 4    1  0.3130345E+006  0.2955077E+01  0.7546771E-02  0.2536569E+00
         22   -1    0    0    0    0  0.00000000000E+00  0.00000000000E+00  0.14419121089E+01  0.14419121089E+01  0.00000000000E+00 0. -1.
         22   -1    0    0    0    0 -0.00000000000E+00 -0.00000000000E+00 -0.67725704038E+01  0.67725704038E+01  0.00000000000E+00 0.  1.
          2    1    1    2  501    0  0.12737535969E+01  0.26664628769E+01 -0.40011505176E+01  0.49741013728E+01  0.25500000000E-02 0.  1.
         -2    1    1    2    0  501 -0.12737535969E+01 -0.26664628769E+01 -0.13295077772E+01  0.32403811399E+01  0.25500000000E-02 0. -1.
<mgrwt>
<rscale>  0 0.29550768E+01</rscale>
<asrwt>0</asrwt>
<pdfrwt beam="1">0</pdfrwt>
<pdfrwt beam="2">0</pdfrwt>
<totfact> 0.16671279E+12</totfact>
</mgrwt>
</event>
<event>
 4    1  0.3130345E+006  0.2865981E+01  0.7546771E-02  0.2566306E+00
         22   -1    0    0    0    0  0.00000000000E+00  0.00000000000E+00  0.48194405384E+01  0.48194405384E+01  0.00000000000E+00 0. -1.
         22   -1    0    0    0    0 -0.00000000000E+00 -0.00000000000E+00 -0.17520779630E+01  0.17520779630E+01  0.00000000000E+00 0.  1.
          2    1    1    2  501    0 -0.28095499697E+01 -0.56592449590E+00  0.99117900161E+00  0.30325375320E+01  0.25500000000E-02 0. -1.
         -2    1    1    2    0  501  0.28095499697E+01  0.56592449590E+00  0.20761835738E+01  0.35389809694E+01  0.25500000000E-02 0.  1.
<mgrwt>
<rscale>  0 0.28659812E+01</rscale>
<asrwt>0</asrwt>
<pdfrwt beam="1">0</pdfrwt>
<pdfrwt beam="2">0</pdfrwt>
<totfact> 0.19958703E+12</totfact>
</mgrwt>
</event>
<event>
 4    1  0.3130345E+006  0.2866823E+01  0.7546771E-02  0.2566017E+00
         22   -1    0    0    0    0  0.00000000000E+00  0.00000000000E+00  0.10774944725E+02  0.10774944725E+02  0.00000000000E+00 0.  1.
         22   -1    0    0    0    0 -0.00000000000E+00 -0.00000000000E+00 -0.76333516538E+00  0.76333516538E+00  0.00000000000E+00 0. -1.
          2    1    1    2  501    0  0.11013131524E+01 -0.26468430266E+01  0.48471665936E+01  0.56314917345E+01  0.25500000000E-02 0. -1.
         -2    1    1    2    0  501 -0.11013131524E+01  0.26468430266E+01  0.51644429664E+01  0.59067881563E+01  0.25500000000E-02 0.  1.
<mgrwt>
<rscale>  0 0.28668232E+01</rscale>
<asrwt>0</asrwt>
<pdfrwt beam="1">0</pdfrwt>
<pdfrwt beam="2">0</pdfrwt>
<totfact> 0.19717187E+12</totfact>
</mgrwt>
</event>
<event>
 4    1  0.3130345E+006  0.2909991E+01  0.7546771E-02  0.2551412E+00
         22   -1    0    0    0    0  0.00000000000E+00  0.00000000000E+00  0.93534683998E+00  0.93534683998E+00  0.00000000000E+00 0. -1.
         22   -1    0    0    0    0 -0.00000000000E+00 -0.00000000000E+00 -0.98538954073E+01  0.98538954073E+01  0.00000000000E+00 0.  1.
          2    1    1    2  501    0 -0.27217609723E+00 -0.28972332323E+01 -0.29216760263E+01  0.41236194702E+01  0.25500000000E-02 0. -1.
         -2    1    1    2    0  501  0.27217609723E+00  0.28972332323E+01 -0.59968725410E+01  0.66656227770E+01  0.25500000000E-02 0.  1.
<mgrwt>
<rscale>  0 0.29099908E+01</rscale>
<asrwt>0</asrwt>
<pdfrwt beam="1">0</pdfrwt>
<pdfrwt beam="2">0</pdfrwt>
<totfact> 0.17433904E+12</totfact>
</mgrwt>
</event>
<event>
 4    1  0.3130345E+006  0.2812896E+01  0.7546771E-02  0.2584831E+00
         22   -1    0    0    0    0  0.00000000000E+00  0.00000000000E+00  0.18277668169E+01  0.18277668169E+01  0.00000000000E+00 0. -1.
         22   -1    0    0    0    0 -0.00000000000E+00 -0.00000000000E+00 -0.88897043627E+01  0.88897043627E+01  0.00000000000E+00 0.  1.
          2    1    1    2  501    0 -0.84579125718E+00  0.26827252589E+01 -0.73692351256E+01  0.78878394066E+01  0.25500000000E-02 0.  1.
         -2    1    1    2    0  501  0.84579125718E+00 -0.26827252589E+01  0.30729757982E+00  0.28296317729E+01  0.25500000000E-02 0. -1.
<mgrwt>
<rscale>  0 0.28128960E+01</rscale>
<asrwt>0</asrwt>
<pdfrwt beam="1">0</pdfrwt>
<pdfrwt beam="2">0</pdfrwt>
<totfact> 0.91515808E+11</totfact>
</mgrwt>
</event>
<event>
 4    1  0.3130345E+006  0.3391692E+01  0.7546771E-02  0.2411233E+00
         22   -1    0    0    0    0  0.00000000000E+00  0.00000000000E+00  0.60536642929E+01  0.60536642929E+01  0.00000000000E+00 0. -1.
         22   -1    0    0    0    0 -0.00000000000E+00 -0.00000000000E+00 -0.23124398123E+01  0.23124398123E+01  0.00000000000E+00 0.  1.
          2    1    1    2  501    0  0.13237957467E+01  0.31226800999E+01  0.10458163678E+00  0.33933037009E+01  0.25500000000E-02 0.  1.
         -2    1    1    2    0  501 -0.13237957467E+01 -0.31226800999E+01  0.36366428439E+01  0.49728004043E+01  0.25500000000E-02 0. -1.
<mgrwt>
<rscale>  0 0.33916917E+01</rscale>
<asrwt>0</asrwt>
<pdfrwt beam="1">0</pdfrwt>
<pdfrwt beam="2">0</pdfrwt>
<totfact> 0.11043684E+12</totfact>
</mgrwt>
</event>
<event>
 4    1  0.3130345E+006  0.2011050E+01  0.7546771E-02  0.2973307E+00
         22   -1    0    0    0    0  0.00000000000E+00  0.00000000000E+00  0.53644871836E+01  0.53644871836E+01  0.00000000000E+00 0.  1.
         22   -1    0    0    0    0 -0.00000000000E+00 -0.00000000000E+00 -0.25440077278E+01  0.25440077278E+01  0.00000000000E+00 0. -1.
          2    1    1    2  501    0  0.55880642340E+00 -0.19318517370E+01 -0.19067445628E+01  0.27712807658E+01  0.25500000000E-02 0. -1.
         -2    1    1    2    0  501 -0.55880642340E+00  0.19318517370E+01  0.47272240186E+01  0.51372141456E+01  0.25500000000E-02 0.  1.
<mgrwt>
<rscale>  0 0.20110500E+01</rscale>
<asrwt>0</asrwt>
<pdfrwt beam="1">0</pdfrwt>
<pdfrwt beam="2">0</pdfrwt>
<totfact> 0.11409553E+12</totfact>
</mgrwt>
</event>
<event>
 4    1  0.3130345E+006  0.2615404E+01  0.7546771E-02  0.2659740E+00
         22   -1    0    0    0    0  0.00000000000E+00  0.00000000000E+00  0.17645930641E+02  0.17645930641E+02  0.00000000000E+00 0. -1.
         22   -1    0    0    0    0 -0.00000000000E+00 -0.00000000000E+00 -0.85127079692E+01  0.85127079692E+01  0.00000000000E+00 0.  1.
          2    1    1    2  501    0  0.25227211085E+01  0.69007834203E+00 -0.82114413180E+01  0.86178944604E+01  0.25500000000E-02 0.  1.
         -2    1    1    2    0  501 -0.25227211085E+01 -0.69007834203E+00  0.17344663990E+02  0.17540744150E+02  0.25500000000E-02 0. -1.
<mgrwt>
<rscale>  0 0.26154037E+01</rscale>
<asrwt>0</asrwt>
<pdfrwt beam="1">0</pdfrwt>
<pdfrwt beam="2">0</pdfrwt>
<totfact> 0.64715199E+10</totfact>
</mgrwt>
</event>
<event>
 4    1  0.3130345E+006  0.2064778E+01  0.7546771E-02  0.2938330E+00
         22   -1    0    0    0    0  0.00000000000E+00  0.00000000000E+00  0.52430755023E+01  0.52430755023E+01  0.00000000000E+00 0. -1.
         22   -1    0    0    0    0 -0.00000000000E+00 -0.00000000000E+00 -0.98325054658E+00  0.98325054658E+00  0.00000000000E+00 0.  1.
          2    1    1    2  501    0  0.59257380606E+00  0.19779176483E+01  0.83498162711E+00  0.22272186151E+01  0.25500000000E-02 0.  1.
         -2    1    1    2    0  501 -0.59257380606E+00 -0.19779176483E+01  0.34248433286E+01  0.39991074338E+01  0.25500000000E-02 0. -1.
<mgrwt>
<rscale>  0 0.20647781E+01</rscale>
<asrwt>0</asrwt>
<pdfrwt beam="1">0</pdfrwt>
<pdfrwt beam="2">0</pdfrwt>
<totfact> 0.35052781E+12</totfact>
</mgrwt>
</event>
<event>
 4    1  0.3130345E+006  0.3788802E+01  0.7546771E-02  0.2319580E+00
         22   -1    0    0    0    0  0.00000000000E+00  0.00000000000E+00  0.15929624872E+01  0.15929624872E+01  0.00000000000E+00 0. -1.
         22   -1    0    0    0    0 -0.00000000000E+00 -0.00000000000E+00 -0.11542286607E+02  0.11542286607E+02  0.00000000000E+00 0.  1.
          2    1    1    2  501    0  0.35185886871E+01  0.14051853702E+01 -0.80499667013E+01  0.88970209997E+01  0.25500000000E-02 0.  1.
         -2    1    1    2    0  501 -0.35185886871E+01 -0.14051853702E+01 -0.18993574180E+01  0.42382280941E+01  0.25500000000E-02 0. -1.
<mgrwt>
<rscale>  0 0.37888018E+01</rscale>
<asrwt>0</asrwt>
<pdfrwt beam="1">0</pdfrwt>
<pdfrwt beam="2">0</pdfrwt>
<totfact> 0.78162355E+11</totfact>
</mgrwt>
</event>
<event>
 4    1  0.3130345E+006  0.3388641E+01  0.7546771E-02  0.2412010E+00
         22   -1    0    0    0    0  0.00000000000E+00  0.00000000000E+00  0.16735842830E+01  0.16735842830E+01  0.00000000000E+00 0.  1.
         22   -1    0    0    0    0 -0.00000000000E+00 -0.00000000000E+00 -0.15263479566E+02  0.15263479566E+02  0.00000000000E+00 0. -1.
          2    1    1    2  501    0 -0.19792319011E+01  0.27505496854E+01 -0.13078112999E+02  0.13509993657E+02  0.25500000000E-02 0. -1.
         -2    1    1    2    0  501  0.19792319011E+01 -0.27505496854E+01 -0.51178228352E+00  0.34270701917E+01  0.25500000000E-02 0.  1.
<mgrwt>
<rscale>  0 0.33886412E+01</rscale>
<asrwt>0</asrwt>
<pdfrwt beam="1">0</pdfrwt>
<pdfrwt beam="2">0</pdfrwt>
<totfact> 0.52443666E+11</totfact>
</mgrwt>
</event>
<event>
 4    1  0.3130345E+006  0.5242234E+01  0.7546771E-02  0.2095153E+00
         22   -1    0    0    0    0  0.00000000000E+00  0.00000000000E+00  0.23233620618E+02  0.23233620618E+02  0.00000000000E+00 0.  1.
         22   -1    0    0    0    0 -0.00000000000E+00 -0.00000000000E+00 -0.21238361291E+01  0.21238361291E+01  0.00000000000E+00 0. -1.
          2    1    1    2  501    0 -0.18189348087E+01  0.49165518906E+01  0.21154159021E+01  0.56529635832E+01  0.25500000000E-02 0. -1.
         -2    1    1    2    0  501  0.18189348087E+01 -0.49165518906E+01  0.18994368587E+02  0.19704493164E+02  0.25500000000E-02 0.  1.
<mgrwt>
<rscale>  0 0.52422336E+01</rscale>
<asrwt>0</asrwt>
<pdfrwt beam="1">0</pdfrwt>
<pdfrwt beam="2">0</pdfrwt>
<totfact> 0.23614079E+11</totfact>
</mgrwt>
</event>
<event>
 4    1  0.3130345E+006  0.2351511E+01  0.7546771E-02  0.2777849E+00
         22   -1    0    0    0    0  0.00000000000E+00  0.00000000000E+00  0.32127838676E+01  0.32127838676E+01  0.00000000000E+00 0.  1.
         22   -1    0    0    0    0 -0.00000000000E+00 -0.00000000000E+00 -0.36261787742E+01  0.36261787742E+01  0.00000000000E+00 0. -1.
          2    1    1    2  501    0  0.10110116451E+01 -0.21230757634E+01 -0.26851994952E+01  0.35692993816E+01  0.25500000000E-02 0. -1.
         -2    1    1    2    0  501 -0.10110116451E+01  0.21230757634E+01  0.22718045886E+01  0.32696632602E+01  0.25500000000E-02 0.  1.
<mgrwt>
<rscale>  0 0.23515105E+01</rscale>
<asrwt>0</asrwt>
<pdfrwt beam="1">0</pdfrwt>
<pdfrwt beam="2">0</pdfrwt>
<totfact> 0.13794562E+12</totfact>
</mgrwt>
</event>
<event>
 4    1  0.3130345E+006  0.3313705E+01  0.7546771E-02  0.2431468E+00
         22   -1    0    0    0    0  0.00000000000E+00  0.00000000000E+00  0.44936845422E+01  0.44936845422E+01  0.00000000000E+00 0. -1.
         22   -1    0    0    0    0 -0.00000000000E+00 -0.00000000000E+00 -0.25269013727E+01  0.25269013727E+01  0.00000000000E+00 0.  1.
          2    1    1    2  501    0  0.10029255656E+01  0.31582867101E+01  0.34593793125E+00  0.33317134012E+01  0.25500000000E-02 0.  1.
         -2    1    1    2    0  501 -0.10029255656E+01 -0.31582867101E+01  0.16208452382E+01  0.36888725136E+01  0.25500000000E-02 0. -1.
<mgrwt>
<rscale>  0 0.33137050E+01</rscale>
<asrwt>0</asrwt>
<pdfrwt beam="1">0</pdfrwt>
<pdfrwt beam="2">0</pdfrwt>
<totfact> 0.14182906E+12</totfact>
</mgrwt>
</event>
<event>
 4    1  0.3130345E+006  0.5441286E+01  0.7546771E-02  0.2073743E+00
         22   -1    0    0    0    0  0.00000000000E+00  0.00000000000E+00  0.13934696200E+02  0.13934696200E+02  0.00000000000E+00 0. -1.
         22   -1    0    0    0    0 -0.00000000000E+00 -0.00000000000E+00 -0.25302447194E+01  0.25302447194E+01  0.00000000000E+00 0.  1.
          2    1    1    2  501    0 -0.85082534605E+00  0.53743540719E+01  0.24065275849E+01  0.59497031001E+01  0.25500000000E-02 0.  1.
         -2    1    1    2    0  501  0.85082534605E+00 -0.53743540719E+01  0.89979238957E+01  0.10515237819E+02  0.25500000000E-02 0. -1.
<mgrwt>
<rscale>  0 0.54412859E+01</rscale>
<asrwt>0</asrwt>
<pdfrwt beam="1">0</pdfrwt>
<pdfrwt beam="2">0</pdfrwt>
<totfact> 0.36341004E+11</totfact>
</mgrwt>
</event>
<event>
 4    1  0.3130345E+006  0.2305709E+01  0.7546771E-02  0.2800922E+00
         22   -1    0    0    0    0  0.00000000000E+00  0.00000000000E+00  0.95598599494E-01  0.95598599494E-01  0.00000000000E+00 0.  1.
         22   -1    0    0    0    0 -0.00000000000E+00 -0.00000000000E+00 -0.59326474583E+02  0.59326474583E+02  0.00000000000E+00 0. -1.
          2    1    1    2  501    0 -0.15258858801E+01  0.17285721379E+01 -0.37051171635E+02  0.37122844926E+02  0.25500000000E-02 0. -1.
         -2    1    1    2    0  501  0.15258858801E+01 -0.17285721379E+01 -0.22179704348E+02  0.22299228256E+02  0.25500000000E-02 0.  1.
<mgrwt>
<rscale>  0 0.23057094E+01</rscale>
<asrwt>0</asrwt>
<pdfrwt beam="1">0</pdfrwt>
<pdfrwt beam="2">0</pdfrwt>
<totfact> 0.23299424E+12</totfact>
</mgrwt>
</event>
<event>
 4    1  0.3130345E+006  0.5692580E+01  0.7546771E-02  0.2048406E+00
         22   -1    0    0    0    0  0.00000000000E+00  0.00000000000E+00  0.10019036809E+02  0.10019036809E+02  0.00000000000E+00 0.  1.
         22   -1    0    0    0    0 -0.00000000000E+00 -0.00000000000E+00 -0.33091278515E+01  0.33091278515E+01  0.00000000000E+00 0. -1.
          2    1    1    2  501    0  0.56411681642E+01 -0.76333465435E+00  0.43564665294E+01  0.71682818845E+01  0.25500000000E-02 0.  1.
         -2    1    1    2    0  501 -0.56411681642E+01  0.76333465435E+00  0.23534424284E+01  0.61598827763E+01  0.25500000000E-02 0. -1.
<mgrwt>
<rscale>  0 0.56925798E+01</rscale>
<asrwt>0</asrwt>
<pdfrwt beam="1">0</pdfrwt>
<pdfrwt beam="2">0</pdfrwt>
<totfact> 0.39715528E+11</totfact>
</mgrwt>
</event>
<event>
 4    1  0.3130345E+006  0.2362629E+01  0.7546771E-02  0.2772375E+00
         22   -1    0    0    0    0  0.00000000000E+00  0.00000000000E+00  0.11951334094E+02  0.11951334094E+02  0.00000000000E+00 0. -1.
         22   -1    0    0    0    0 -0.00000000000E+00 -0.00000000000E+00 -0.65840555957E+00  0.65840555957E+00  0.00000000000E+00 0.  1.
          2    1    1    2  501    0  0.90867689535E+00 -0.21808983379E+01  0.22475833634E+01  0.32609275886E+01  0.25500000000E-02 0.  1.
         -2    1    1    2    0  501 -0.90867689535E+00  0.21808983379E+01  0.90453451714E+01  0.93488120653E+01  0.25500000000E-02 0. -1.
<mgrwt>
<rscale>  0 0.23626294E+01</rscale>
<asrwt>0</asrwt>
<pdfrwt beam="1">0</pdfrwt>
<pdfrwt beam="2">0</pdfrwt>
<totfact> 0.20558565E+12</totfact>
</mgrwt>
</event>
<event>
 4    1  0.3130345E+006  0.2029833E+01  0.7546771E-02  0.2960874E+00
         22   -1    0    0    0    0  0.00000000000E+00  0.00000000000E+00  0.10703994856E+02  0.10703994856E+02  0.00000000000E+00 0. -1.
         22   -1    0    0    0    0 -0.00000000000E+00 -0.00000000000E+00 -0.42349061165E+00  0.42349061165E+00  0.00000000000E+00 0.  1.
          2    1    1    2  501    0  0.16406330200E+01  0.11952145347E+01  0.34612442116E+01  0.40125344216E+01  0.25500000000E-02 0.  1.
         -2    1    1    2    0  501 -0.16406330200E+01 -0.11952145347E+01  0.68192600325E+01  0.71149510458E+01  0.25500000000E-02 0. -1.
<mgrwt>
<rscale>  0 0.20298327E+01</rscale>
<asrwt>0</asrwt>
<pdfrwt beam="1">0</pdfrwt>
<pdfrwt beam="2">0</pdfrwt>
<totfact> 0.38707799E+12</totfact>
</mgrwt>
</event>
<event>
 4    1  0.3130345E+006  0.2056824E+01  0.7546771E-02  0.2943396E+00
         22   -1    0    0    0    0  0.00000000000E+00  0.00000000000E+00  0.59486037977E+01  0.59486037977E+01  0.00000000000E+00 0.  1.
         22   -1    0    0    0    0 -0.00000000000E+00 -0.00000000000E+00 -0.25890143621E+01  0.25890143621E+01  0.00000000000E+00 0. -1.
          2    1    1    2  501    0 -0.17640994772E+01 -0.10575772368E+01 -0.19557395233E+01  0.28382107327E+01  0.25500000000E-02 0. -1.
         -2    1    1    2    0  501  0.17640994772E+01  0.10575772368E+01  0.53153289589E+01  0.56994074272E+01  0.25500000000E-02 0.  1.
<mgrwt>
<rscale>  0 0.20568235E+01</rscale>
<asrwt>0</asrwt>
<pdfrwt beam="1">0</pdfrwt>
<pdfrwt beam="2">0</pdfrwt>
<totfact> 0.98872466E+11</totfact>
</mgrwt>
</event>
<event>
 4    1  0.3130345E+006  0.2782465E+01  0.7546771E-02  0.2595740E+00
         22   -1    0    0    0    0  0.00000000000E+00  0.00000000000E+00  0.98542248168E+01  0.98542248168E+01  0.00000000000E+00 0. -1.
         22   -1    0    0    0    0 -0.00000000000E+00 -0.00000000000E+00 -0.18003388375E+01  0.18003388375E+01  0.00000000000E+00 0.  1.
          2    1    1    2  501    0 -0.24991228910E+01  0.12233120307E+01 -0.34779701853E+00  0.28041178323E+01  0.25500000000E-02 0.  1.
         -2    1    1    2    0  501  0.24991228910E+01 -0.12233120307E+01  0.84016829979E+01  0.88504458220E+01  0.25500000000E-02 0. -1.
<mgrwt>
<rscale>  0 0.27824655E+01</rscale>
<asrwt>0</asrwt>
<pdfrwt beam="1">0</pdfrwt>
<pdfrwt beam="2">0</pdfrwt>
<totfact> 0.82231901E+11</totfact>
</mgrwt>
</event>
<event>
 4    1  0.3130345E+006  0.2173965E+01  0.7546771E-02  0.2872433E+00
         22   -1    0    0    0    0  0.00000000000E+00  0.00000000000E+00  0.23785674924E+01  0.23785674924E+01  0.00000000000E+00 0. -1.
         22   -1    0    0    0    0 -0.00000000000E+00 -0.00000000000E+00 -0.21210624288E+01  0.21210624288E+01  0.00000000000E+00 0.  1.
          2    1    1    2  501    0 -0.65277434579E+00 -0.20736451346E+01  0.69444963160E+00  0.22821887047E+01  0.25500000000E-02 0.  1.
         -2    1    1    2    0  501  0.65277434579E+00  0.20736451346E+01 -0.43694456800E+00  0.22174412165E+01  0.25500000000E-02 0. -1.
<mgrwt>
<rscale>  0 0.21739653E+01</rscale>
<asrwt>0</asrwt>
<pdfrwt beam="1">0</pdfrwt>
<pdfrwt beam="2">0</pdfrwt>
<totfact> 0.36602440E+12</totfact>
</mgrwt>
</event>
<event>
 4    1  0.3130345E+006  0.4428845E+01  0.7546771E-02  0.2202120E+00
         22   -1    0    0    0    0  0.00000000000E+00  0.00000000000E+00  0.10066533771E+01  0.10066533771E+01  0.00000000000E+00 0. -1.
         22   -1    0    0    0    0 -0.00000000000E+00 -0.00000000000E+00 -0.27020827711E+02  0.27020827711E+02  0.00000000000E+00 0.  1.
          2    1    1    2  501    0  0.13271709193E+01 -0.42253138755E+01 -0.56064433900E+01  0.71447095101E+01  0.25500000000E-02 0. -1.
         -2    1    1    2    0  501 -0.13271709193E+01  0.42253138755E+01 -0.20407730944E+02  0.20882771578E+02  0.25500000000E-02 0.  1.
<mgrwt>
<rscale>  0 0.44288448E+01</rscale>
<asrwt>0</asrwt>
<pdfrwt beam="1">0</pdfrwt>
<pdfrwt beam="2">0</pdfrwt>
<totfact> 0.46066061E+11</totfact>
</mgrwt>
</event>
<event>
 4    1  0.3130345E+006  0.3597017E+01  0.7546771E-02  0.2361650E+00
         22   -1    0    0    0    0  0.00000000000E+00  0.00000000000E+00  0.10886203421E+02  0.10886203421E+02  0.00000000000E+00 0.  1.
         22   -1    0    0    0    0 -0.00000000000E+00 -0.00000000000E+00 -0.51678462567E+01  0.51678462567E+01  0.00000000000E+00 0. -1.
          2    1    1    2  501    0  0.22028940753E+01  0.28435506408E+01 -0.41845772759E+01  0.55180808289E+01  0.25500000000E-02 0. -1.
         -2    1    1    2    0  501 -0.22028940753E+01 -0.28435506408E+01  0.99029344405E+01  0.10535968849E+02  0.25500000000E-02 0.  1.
<mgrwt>
<rscale>  0 0.35970167E+01</rscale>
<asrwt>0</asrwt>
<pdfrwt beam="1">0</pdfrwt>
<pdfrwt beam="2">0</pdfrwt>
<totfact> 0.21242351E+11</totfact>
</mgrwt>
</event>
<event>
 4    1  0.3130345E+006  0.2089053E+01  0.7546771E-02  0.2923103E+00
         22   -1    0    0    0    0  0.00000000000E+00  0.00000000000E+00  0.12985110592E+02  0.12985110592E+02  0.00000000000E+00 0. -1.
         22   -1    0    0    0    0 -0.00000000000E+00 -0.00000000000E+00 -0.34431812800E+00  0.34431812800E+00  0.00000000000E+00 0.  1.
          2    1    1    2  501    0 -0.16060662106E+01  0.13359220223E+01  0.52900128549E+01  0.56875635231E+01  0.25500000000E-02 0.  1.
         -2    1    1    2    0  501  0.16060662106E+01 -0.13359220223E+01  0.73507796092E+01  0.76418651969E+01  0.25500000000E-02 0. -1.
<mgrwt>
<rscale>  0 0.20890531E+01</rscale>
<asrwt>0</asrwt>
<pdfrwt beam="1">0</pdfrwt>
<pdfrwt beam="2">0</pdfrwt>
<totfact> 0.38608561E+12</totfact>
</mgrwt>
</event>
<event>
 4    1  0.3130345E+006  0.5000341E+01  0.7546771E-02  0.2122963E+00
         22   -1    0    0    0    0  0.00000000000E+00  0.00000000000E+00  0.17886277403E+01  0.17886277403E+01  0.00000000000E+00 0. -1.
         22   -1    0    0    0    0 -0.00000000000E+00 -0.00000000000E+00 -0.14030256216E+02  0.14030256216E+02  0.00000000000E+00 0.  1.
          2    1    1    2  501    0 -0.26372064061E+01 -0.42483584450E+01 -0.65983922223E+01  0.82790212904E+01  0.25500000000E-02 0.  1.
         -2    1    1    2    0  501  0.26372064061E+01  0.42483584450E+01 -0.56432362535E+01  0.75398626659E+01  0.25500000000E-02 0. -1.
<mgrwt>
<rscale>  0 0.50003413E+01</rscale>
<asrwt>0</asrwt>
<pdfrwt beam="1">0</pdfrwt>
<pdfrwt beam="2">0</pdfrwt>
<totfact> 0.53871056E+11</totfact>
</mgrwt>
</event>
<event>
 4    1  0.3130345E+006  0.4559039E+01  0.7546771E-02  0.2181675E+00
         22   -1    0    0    0    0  0.00000000000E+00  0.00000000000E+00  0.24007331740E+02  0.24007331740E+02  0.00000000000E+00 0.  1.
         22   -1    0    0    0    0 -0.00000000000E+00 -0.00000000000E+00 -0.10079800241E+01  0.10079800241E+01  0.00000000000E+00 0. -1.
          2    1    1    2  501    0  0.12334841313E+01  0.43890025943E+01  0.68016576132E+01  0.81882464340E+01  0.25500000000E-02 0. -1.
         -2    1    1    2    0  501 -0.12334841313E+01 -0.43890025943E+01  0.16197694103E+02  0.16827065330E+02  0.25500000000E-02 0.  1.
<mgrwt>
<rscale>  0 0.45590386E+01</rscale>
<asrwt>0</asrwt>
<pdfrwt beam="1">0</pdfrwt>
<pdfrwt beam="2">0</pdfrwt>
<totfact> 0.53403678E+11</totfact>
</mgrwt>
</event>
<event>
 4    1  0.3130345E+006  0.2820189E+01  0.7546771E-02  0.2582249E+00
         22   -1    0    0    0    0  0.00000000000E+00  0.00000000000E+00  0.19976157028E+01  0.19976157028E+01  0.00000000000E+00 0. -1.
         22   -1    0    0    0    0 -0.00000000000E+00 -0.00000000000E+00 -0.40080986122E+01  0.40080986122E+01  0.00000000000E+00 0.  1.
          2    1    1    2  501    0  0.19289707499E+00 -0.28135836396E+01 -0.12499511556E+01  0.30847765838E+01  0.25500000000E-02 0.  1.
         -2    1    1    2    0  501 -0.19289707499E+00  0.28135836396E+01 -0.76053175384E+00  0.29209377312E+01  0.25500000000E-02 0. -1.
<mgrwt>
<rscale>  0 0.28201895E+01</rscale>
<asrwt>0</asrwt>
<pdfrwt beam="1">0</pdfrwt>
<pdfrwt beam="2">0</pdfrwt>
<totfact> 0.21318017E+12</totfact>
</mgrwt>
</event>
<event>
 4    1  0.3130345E+006  0.2291184E+01  0.7546771E-02  0.2808421E+00
         22   -1    0    0    0    0  0.00000000000E+00  0.00000000000E+00  0.50516821013E+01  0.50516821013E+01  0.00000000000E+00 0. -1.
         22   -1    0    0    0    0 -0.00000000000E+00 -0.00000000000E+00 -0.13461951649E+01  0.13461951649E+01  0.00000000000E+00 0.  1.
          2    1    1    2  501    0 -0.18550831998E+01 -0.13446871281E+01  0.32502446979E+00  0.23141228488E+01  0.25500000000E-02 0.  1.
         -2    1    1    2    0  501  0.18550831998E+01  0.13446871281E+01  0.33804624667E+01  0.40837544174E+01  0.25500000000E-02 0. -1.
<mgrwt>
<rscale>  0 0.22911839E+01</rscale>
<asrwt>0</asrwt>
<pdfrwt beam="1">0</pdfrwt>
<pdfrwt beam="2">0</pdfrwt>
<totfact> 0.25566516E+12</totfact>
</mgrwt>
</event>
<event>
 4    1  0.3130345E+006  0.2177435E+01  0.7546771E-02  0.2870443E+00
         22   -1    0    0    0    0  0.00000000000E+00  0.00000000000E+00  0.82497599830E+00  0.82497599830E+00  0.00000000000E+00 0.  1.
         22   -1    0    0    0    0 -0.00000000000E+00 -0.00000000000E+00 -0.95480946041E+01  0.95480946041E+01  0.00000000000E+00 0. -1.
          2    1    1    2  501    0  0.54906526468E+00 -0.21070702085E+01 -0.76339661930E+01  0.79384295592E+01  0.25500000000E-02 0. -1.
         -2    1    1    2    0  501 -0.54906526468E+00  0.21070702085E+01 -0.10891524129E+01  0.24346410432E+01  0.25500000000E-02 0.  1.
<mgrwt>
<rscale>  0 0.21774352E+01</rscale>
<asrwt>0</asrwt>
<pdfrwt beam="1">0</pdfrwt>
<pdfrwt beam="2">0</pdfrwt>
<totfact> 0.20895828E+12</totfact>
</mgrwt>
</event>
<event>
 4    1  0.3130345E+006  0.2172498E+01  0.7546771E-02  0.2873276E+00
         22   -1    0    0    0    0  0.00000000000E+00  0.00000000000E+00  0.22908952307E+00  0.22908952307E+00  0.00000000000E+00 0. -1.
         22   -1    0    0    0    0 -0.00000000000E+00 -0.00000000000E+00 -0.23457879859E+02  0.23457879859E+02  0.00000000000E+00 0.  1.
          2    1    1    2  501    0 -0.19427937933E+01  0.97226162320E+00 -0.15746680570E+02  0.15895838948E+02  0.25500000000E-02 0.  1.
         -2    1    1    2    0  501  0.19427937933E+01 -0.97226162320E+00 -0.74821097660E+01  0.77911304340E+01  0.25500000000E-02 0. -1.
<mgrwt>
<rscale>  0 0.21724978E+01</rscale>
<asrwt>0</asrwt>
<pdfrwt beam="1">0</pdfrwt>
<pdfrwt beam="2">0</pdfrwt>
<totfact> 0.29283035E+12</totfact>
</mgrwt>
</event>
<event>
 4    1  0.3130345E+006  0.3277145E+01  0.7546771E-02  0.2441246E+00
         22   -1    0    0    0    0  0.00000000000E+00  0.00000000000E+00  0.10222867601E+02  0.10222867601E+02  0.00000000000E+00 0. -1.
         22   -1    0    0    0    0 -0.00000000000E+00 -0.00000000000E+00 -0.38084460794E+01  0.38084460794E+01  0.00000000000E+00 0.  1.
          2    1    1    2  501    0  0.18052516228E+01 -0.27350936350E+01 -0.27629090348E+01  0.42864138216E+01  0.25500000000E-02 0.  1.
         -2    1    1    2    0  501 -0.18052516228E+01  0.27350936350E+01  0.91773305567E+01  0.97448998590E+01  0.25500000000E-02 0. -1.
<mgrwt>
<rscale>  0 0.32771447E+01</rscale>
<asrwt>0</asrwt>
<pdfrwt beam="1">0</pdfrwt>
<pdfrwt beam="2">0</pdfrwt>
<totfact> 0.32867219E+11</totfact>
</mgrwt>
</event>
<event>
 4    1  0.3130345E+006  0.2234804E+01  0.7546771E-02  0.2838409E+00
         22   -1    0    0    0    0  0.00000000000E+00  0.00000000000E+00  0.50200345152E+01  0.50200345152E+01  0.00000000000E+00 0.  1.
         22   -1    0    0    0    0 -0.00000000000E+00 -0.00000000000E+00 -0.99968652208E+00  0.99968652208E+00  0.00000000000E+00 0. -1.
          2    1    1    2  501    0 -0.21260305795E+01 -0.68872132432E+00  0.22188012358E+01  0.31491948993E+01  0.25500000000E-02 0.  1.
         -2    1    1    2    0  501  0.21260305795E+01  0.68872132432E+00  0.18015467573E+01  0.28705261380E+01  0.25500000000E-02 0. -1.
<mgrwt>
<rscale>  0 0.22348042E+01</rscale>
<asrwt>0</asrwt>
<pdfrwt beam="1">0</pdfrwt>
<pdfrwt beam="2">0</pdfrwt>
<totfact> 0.36215083E+12</totfact>
</mgrwt>
</event>
<event>
 4    1  0.3130345E+006  0.2654433E+01  0.7546771E-02  0.2644127E+00
         22   -1    0    0    0    0  0.00000000000E+00  0.00000000000E+00  0.95622726634E+00  0.95622726634E+00  0.00000000000E+00 0.  1.
         22   -1    0    0    0    0 -0.00000000000E+00 -0.00000000000E+00 -0.81162152203E+01  0.81162152203E+01  0.00000000000E+00 0. -1.
          2    1    1    2  501    0  0.20326436358E+01 -0.17071513809E+01 -0.22031973138E+01  0.34496508365E+01  0.25500000000E-02 0.  1.
         -2    1    1    2    0  501 -0.20326436358E+01  0.17071513809E+01 -0.49567906402E+01  0.56227916501E+01  0.25500000000E-02 0. -1.
<mgrwt>
<rscale>  0 0.26544326E+01</rscale>
<asrwt>0</asrwt>
<pdfrwt beam="1">0</pdfrwt>
<pdfrwt beam="2">0</pdfrwt>
<totfact> 0.21481688E+12</totfact>
</mgrwt>
</event>
<event>
 4    1  0.3130345E+006  0.3124961E+01  0.7546771E-02  0.2484108E+00
         22   -1    0    0    0    0  0.00000000000E+00  0.00000000000E+00  0.59084021465E+02  0.59084021465E+02  0.00000000000E+00 0.  1.
         22   -1    0    0    0    0 -0.00000000000E+00 -0.00000000000E+00 -0.39431044685E+00  0.39431044685E+00  0.00000000000E+00 0. -1.
          2    1    1    2  501    0 -0.72008255803E+00 -0.30408642107E+01  0.66798056581E+01  0.73746311210E+01  0.25500000000E-02 0. -1.
         -2    1    1    2    0  501  0.72008255803E+00  0.30408642107E+01  0.52009905360E+02  0.52103700791E+02  0.25500000000E-02 0.  1.
<mgrwt>
<rscale>  0 0.31249609E+01</rscale>
<asrwt>0</asrwt>
<pdfrwt beam="1">0</pdfrwt>
<pdfrwt beam="2">0</pdfrwt>
<totfact> 0.48232032E+11</totfact>
</mgrwt>
</event>
<event>
 4    1  0.3130345E+006  0.8095057E+01  0.7546771E-02  0.1870837E+00
         22   -1    0    0    0    0  0.00000000000E+00  0.00000000000E+00  0.27153597452E+01  0.27153597452E+01  0.00000000000E+00 0.  1.
         22   -1    0    0    0    0 -0.00000000000E+00 -0.00000000000E+00 -0.28627077654E+02  0.28627077654E+02  0.00000000000E+00 0. -1.
          2    1    1    2  501    0  0.68755772217E+01 -0.42727484588E+01 -0.67467182497E+01  0.10537938848E+02  0.25500000000E-02 0.  1.
         -2    1    1    2    0  501 -0.68755772217E+01  0.42727484588E+01 -0.19164999659E+02  0.20804498551E+02  0.25500000000E-02 0. -1.
<mgrwt>
<rscale>  0 0.80950570E+01</rscale>
<asrwt>0</asrwt>
<pdfrwt beam="1">0</pdfrwt>
<pdfrwt beam="2">0</pdfrwt>
<totfact> 0.13633536E+11</totfact>
</mgrwt>
</event>
<event>
 4    1  0.3130345E+006  0.2115143E+01  0.7546771E-02  0.2907116E+00
         22   -1    0    0    0    0  0.00000000000E+00  0.00000000000E+00  0.47978825914E-01  0.47978825914E-01  0.00000000000E+00 0.  1.
         22   -1    0    0    0    0 -0.00000000000E+00 -0.00000000000E+00 -0.12751429071E+03  0.12751429071E+03  0.00000000000E+00 0. -1.
          2    1    1    2  501    0  0.21115617074E+01  0.12300470659E+00 -0.30668837548E+02  0.30741688732E+02  0.25500000000E-02 0.  1.
         -2    1    1    2    0  501 -0.21115617074E+01 -0.12300470659E+00 -0.96797474337E+02  0.96820580805E+02  0.25500000000E-02 0. -1.
<mgrwt>
<rscale>  0 0.21151429E+01</rscale>
<asrwt>0</asrwt>
<pdfrwt beam="1">0</pdfrwt>
<pdfrwt beam="2">0</pdfrwt>
<totfact> 0.17216096E+12</totfact>
</mgrwt>
</event>
<event>
 4    1  0.3130345E+006  0.3990560E+01  0.7546771E-02  0.2279103E+00
         22   -1    0    0    0    0  0.00000000000E+00  0.00000000000E+00  0.23261124810E+02  0.23261124810E+02  0.00000000000E+00 0.  1.
         22   -1    0    0    0    0 -0.00000000000E+00 -0.00000000000E+00 -0.70205439143E+00  0.70205439143E+00  0.00000000000E+00 0. -1.
          2    1    1    2  501    0 -0.27327053097E+01 -0.29080727012E+01  0.13168737306E+02  0.13760094981E+02  0.25500000000E-02 0. -1.
         -2    1    1    2    0  501  0.27327053097E+01  0.29080727012E+01  0.93903331121E+01  0.10203084220E+02  0.25500000000E-02 0.  1.
<mgrwt>
<rscale>  0 0.39905603E+01</rscale>
<asrwt>0</asrwt>
<pdfrwt beam="1">0</pdfrwt>
<pdfrwt beam="2">0</pdfrwt>
<totfact> 0.83881560E+11</totfact>
</mgrwt>
</event>
<event>
 4    1  0.3130345E+006  0.2960713E+01  0.7546771E-02  0.2534743E+00
         22   -1    0    0    0    0  0.00000000000E+00  0.00000000000E+00  0.66791972633E+02  0.66791972633E+02  0.00000000000E+00 0. -1.
         22   -1    0    0    0    0 -0.00000000000E+00 -0.00000000000E+00 -0.34137079766E+00  0.34137079766E+00  0.00000000000E+00 0.  1.
          2    1    1    2  501    0  0.13400575099E+01  0.26400873554E+01  0.68899396149E+01  0.74991392688E+01  0.25500000000E-02 0.  1.
         -2    1    1    2    0  501 -0.13400575099E+01 -0.26400873554E+01  0.59560662221E+02  0.59634204162E+02  0.25500000000E-02 0. -1.
<mgrwt>
<rscale>  0 0.29607131E+01</rscale>
<asrwt>0</asrwt>
<pdfrwt beam="1">0</pdfrwt>
<pdfrwt beam="2">0</pdfrwt>
<totfact> 0.48102426E+11</totfact>
</mgrwt>
</event>
<event>
 4    1  0.3130345E+006  0.2643130E+01  0.7546771E-02  0.2648605E+00
         22   -1    0    0    0    0  0.00000000000E+00  0.00000000000E+00  0.41273555047E+01  0.41273555047E+01  0.00000000000E+00 0.  1.
         22   -1    0    0    0    0 -0.00000000000E+00 -0.00000000000E+00 -0.21334192497E+01  0.21334192497E+01  0.00000000000E+00 0. -1.
          2    1    1    2  501    0 -0.18099324838E+01  0.19262074776E+01  0.24198515429E+01  0.35835483581E+01  0.25500000000E-02 0.  1.
         -2    1    1    2    0  501  0.18099324838E+01 -0.19262074776E+01 -0.42591528786E+00  0.26772263964E+01  0.25500000000E-02 0. -1.
<mgrwt>
<rscale>  0 0.26431302E+01</rscale>
<asrwt>0</asrwt>
<pdfrwt beam="1">0</pdfrwt>
<pdfrwt beam="2">0</pdfrwt>
<totfact> 0.19083967E+12</totfact>
</mgrwt>
</event>
<event>
 4    1  0.3130345E+006  0.2881074E+01  0.7546771E-02  0.2561152E+00
         22   -1    0    0    0    0  0.00000000000E+00  0.00000000000E+00  0.51511458645E+01  0.51511458645E+01  0.00000000000E+00 0. -1.
         22   -1    0    0    0    0 -0.00000000000E+00 -0.00000000000E+00 -0.23980739008E+01  0.23980739008E+01  0.00000000000E+00 0.  1.
          2    1    1    2  501    0 -0.20941378757E+01  0.19786776010E+01 -0.78536915078E+00  0.29861998755E+01  0.25500000000E-02 0.  1.
         -2    1    1    2    0  501  0.20941378757E+01 -0.19786776010E+01  0.35384411145E+01  0.45630198897E+01  0.25500000000E-02 0. -1.
<mgrwt>
<rscale>  0 0.28810736E+01</rscale>
<asrwt>0</asrwt>
<pdfrwt beam="1">0</pdfrwt>
<pdfrwt beam="2">0</pdfrwt>
<totfact> 0.12824801E+12</totfact>
</mgrwt>
</event>
<event>
 4    1  0.3130345E+006  0.2917837E+01  0.7546771E-02  0.2548799E+00
         22   -1    0    0    0    0  0.00000000000E+00  0.00000000000E+00  0.47453634490E+00  0.47453634490E+00  0.00000000000E+00 0. -1.
         22   -1    0    0    0    0 -0.00000000000E+00 -0.00000000000E+00 -0.18440743914E+02  0.18440743914E+02  0.00000000000E+00 0.  1.
          2    1    1    2  501    0 -0.68213894570E+00 -0.28369798762E+01 -0.10539639088E+02  0.10936076397E+02  0.25500000000E-02 0.  1.
         -2    1    1    2    0  501  0.68213894570E+00  0.28369798762E+01 -0.74265684812E+01  0.79792038618E+01  0.25500000000E-02 0. -1.
<mgrwt>
<rscale>  0 0.29178374E+01</rscale>
<asrwt>0</asrwt>
<pdfrwt beam="1">0</pdfrwt>
<pdfrwt beam="2">0</pdfrwt>
<totfact> 0.17464327E+12</totfact>
</mgrwt>
</event>
<event>
 4    1  0.3130345E+006  0.2155732E+01  0.7546771E-02  0.2882988E+00
         22   -1    0    0    0    0  0.00000000000E+00  0.00000000000E+00  0.16284580639E+00  0.16284580639E+00  0.00000000000E+00 0.  1.
         22   -1    0    0    0    0 -0.00000000000E+00 -0.00000000000E+00 -0.34205152735E+02  0.34205152735E+02  0.00000000000E+00 0. -1.
          2    1    1    2  501    0  0.21168147144E+01 -0.40775989964E+00 -0.24016155819E+02  0.24112712819E+02  0.25500000000E-02 0. -1.
         -2    1    1    2    0  501 -0.21168147144E+01  0.40775989964E+00 -0.10026151110E+02  0.10255285722E+02  0.25500000000E-02 0.  1.
<mgrwt>
<rscale>  0 0.21557317E+01</rscale>
<asrwt>0</asrwt>
<pdfrwt beam="1">0</pdfrwt>
<pdfrwt beam="2">0</pdfrwt>
<totfact> 0.26534403E+12</totfact>
</mgrwt>
</event>
<event>
 4    1  0.3130345E+006  0.3794203E+01  0.7546771E-02  0.2318448E+00
         22   -1    0    0    0    0  0.00000000000E+00  0.00000000000E+00  0.59745179410E+02  0.59745179410E+02  0.00000000000E+00 0. -1.
         22   -1    0    0    0    0 -0.00000000000E+00 -0.00000000000E+00 -0.51356252246E+00  0.51356252246E+00  0.00000000000E+00 0.  1.
          2    1    1    2  501    0  0.32021834577E+01  0.20351882077E+01  0.76644552354E+01  0.85521839606E+01  0.25500000000E-02 0.  1.
         -2    1    1    2    0  501 -0.32021834577E+01 -0.20351882077E+01  0.51567161652E+02  0.51706557972E+02  0.25500000000E-02 0. -1.
<mgrwt>
<rscale>  0 0.37942030E+01</rscale>
<asrwt>0</asrwt>
<pdfrwt beam="1">0</pdfrwt>
<pdfrwt beam="2">0</pdfrwt>
<totfact> 0.35276636E+11</totfact>
</mgrwt>
</event>
<event>
 4    1  0.3130345E+006  0.2021941E+01  0.7546771E-02  0.2966071E+00
         22   -1    0    0    0    0  0.00000000000E+00  0.00000000000E+00  0.23995621630E+01  0.23995621630E+01  0.00000000000E+00 0.  1.
         22   -1    0    0    0    0 -0.00000000000E+00 -0.00000000000E+00 -0.20730031986E+01  0.20730031986E+01  0.00000000000E+00 0. -1.
          2    1    1    2  501    0  0.19589361291E+01 -0.50080565300E+00 -0.78054538098E+00  0.21673704470E+01  0.25500000000E-02 0.  1.
         -2    1    1    2    0  501 -0.19589361291E+01  0.50080565300E+00  0.11071043454E+01  0.23051949146E+01  0.25500000000E-02 0. -1.
<mgrwt>
<rscale>  0 0.20219405E+01</rscale>
<asrwt>0</asrwt>
<pdfrwt beam="1">0</pdfrwt>
<pdfrwt beam="2">0</pdfrwt>
<totfact> 0.37203980E+12</totfact>
</mgrwt>
</event>
<event>
 4    1  0.3130345E+006  0.2889127E+01  0.7546771E-02  0.2558422E+00
         22   -1    0    0    0    0  0.00000000000E+00  0.00000000000E+00  0.18856751076E+02  0.18856751076E+02  0.00000000000E+00 0.  1.
         22   -1    0    0    0    0 -0.00000000000E+00 -0.00000000000E+00 -0.51842027888E+00  0.51842027888E+00  0.00000000000E+00 0. -1.
          2    1    1    2  501    0 -0.27443109683E+01 -0.90322082670E+00  0.54657165628E+01  0.61823227512E+01  0.25500000000E-02 0. -1.
         -2    1    1    2    0  501  0.27443109683E+01  0.90322082670E+00  0.12872614235E+02  0.13192848604E+02  0.25500000000E-02 0.  1.
<mgrwt>
<rscale>  0 0.28891274E+01</rscale>
<asrwt>0</asrwt>
<pdfrwt beam="1">0</pdfrwt>
<pdfrwt beam="2">0</pdfrwt>
<totfact> 0.15372309E+12</totfact>
</mgrwt>
</event>
<event>
 4    1  0.3130345E+006  0.2678883E+01  0.7546771E-02  0.2634560E+00
         22   -1    0    0    0    0  0.00000000000E+00  0.00000000000E+00  0.14139052753E+01  0.14139052753E+01  0.00000000000E+00 0.  1.
         22   -1    0    0    0    0 -0.00000000000E+00 -0.00000000000E+00 -0.68945314913E+01  0.68945314913E+01  0.00000000000E+00 0. -1.
          2    1    1    2  501    0 -0.66032159496E+00  0.25962247800E+01 -0.60655393496E+00  0.27466929016E+01  0.25500000000E-02 0.  1.
         -2    1    1    2    0  501  0.66032159496E+00 -0.25962247800E+01 -0.48740722810E+01  0.55617438651E+01  0.25500000000E-02 0. -1.
<mgrwt>
<rscale>  0 0.26788830E+01</rscale>
<asrwt>0</asrwt>
<pdfrwt beam="1">0</pdfrwt>
<pdfrwt beam="2">0</pdfrwt>
<totfact> 0.16691396E+12</totfact>
</mgrwt>
</event>
<event>
 4    1  0.3130345E+006  0.2083642E+01  0.7546771E-02  0.2926467E+00
         22   -1    0    0    0    0  0.00000000000E+00  0.00000000000E+00  0.76564396459E+01  0.76564396459E+01  0.00000000000E+00 0.  1.
         22   -1    0    0    0    0 -0.00000000000E+00 -0.00000000000E+00 -0.14007337135E+01  0.14007337135E+01  0.00000000000E+00 0. -1.
          2    1    1    2  501    0 -0.58820948079E+00  0.19988919048E+01 -0.36585159801E+00  0.21155172263E+01  0.25500000000E-02 0. -1.
         -2    1    1    2    0  501  0.58820948079E+00 -0.19988919048E+01  0.66215575304E+01  0.69416561332E+01  0.25500000000E-02 0.  1.
<mgrwt>
<rscale>  0 0.20836424E+01</rscale>
<asrwt>0</asrwt>
<pdfrwt beam="1">0</pdfrwt>
<pdfrwt beam="2">0</pdfrwt>
<totfact> 0.14880283E+12</totfact>
</mgrwt>
</event>
<event>
 4    1  0.3130345E+006  0.2452873E+01  0.7546771E-02  0.2729679E+00
         22   -1    0    0    0    0  0.00000000000E+00  0.00000000000E+00  0.14478610824E+01  0.14478610824E+01  0.00000000000E+00 0.  1.
         22   -1    0    0    0    0 -0.00000000000E+00 -0.00000000000E+00 -0.11283042774E+02  0.11283042774E+02  0.00000000000E+00 0. -1.
          2    1    1    2  501    0 -0.14069340600E+01  0.20092571471E+01 -0.99768403061E+01  0.10273944069E+02  0.25500000000E-02 0. -1.
         -2    1    1    2    0  501  0.14069340600E+01 -0.20092571471E+01  0.14165861449E+00  0.24569597876E+01  0.25500000000E-02 0.  1.
<mgrwt>
<rscale>  0 0.24528726E+01</rscale>
<asrwt>0</asrwt>
<pdfrwt beam="1">0</pdfrwt>
<pdfrwt beam="2">0</pdfrwt>
<totfact> 0.89686474E+11</totfact>
</mgrwt>
</event>
<event>
 4    1  0.3130345E+006  0.2149387E+01  0.7546771E-02  0.2886702E+00
         22   -1    0    0    0    0  0.00000000000E+00  0.00000000000E+00  0.48150235609E+02  0.48150235609E+02  0.00000000000E+00 0.  1.
         22   -1    0    0    0    0 -0.00000000000E+00 -0.00000000000E+00 -0.98725678329E-01  0.98725678329E-01  0.00000000000E+00 0. -1.
          2    1    1    2  501    0 -0.19357902545E+01  0.93411666950E+00  0.28073118906E+02  0.28155281378E+02  0.25500000000E-02 0.  1.
         -2    1    1    2    0  501  0.19357902545E+01 -0.93411666950E+00  0.19978391025E+02  0.20093679910E+02  0.25500000000E-02 0. -1.
<mgrwt>
<rscale>  0 0.21493870E+01</rscale>
<asrwt>0</asrwt>
<pdfrwt beam="1">0</pdfrwt>
<pdfrwt beam="2">0</pdfrwt>
<totfact> 0.29652028E+12</totfact>
</mgrwt>
</event>
<event>
 4    1  0.3130345E+006  0.4403627E+01  0.7546771E-02  0.2206197E+00
         22   -1    0    0    0    0  0.00000000000E+00  0.00000000000E+00  0.17575617908E+01  0.17575617908E+01  0.00000000000E+00 0.  1.
         22   -1    0    0    0    0 -0.00000000000E+00 -0.00000000000E+00 -0.19097399740E+02  0.19097399740E+02  0.00000000000E+00 0. -1.
          2    1    1    2  501    0  0.44034516433E+01  0.39168643460E-01 -0.15445816732E+02  0.16061294518E+02  0.25500000000E-02 0. -1.
         -2    1    1    2    0  501 -0.44034516433E+01 -0.39168643460E-01 -0.18940212168E+01  0.47936670128E+01  0.25500000000E-02 0.  1.
<mgrwt>
<rscale>  0 0.44036266E+01</rscale>
<asrwt>0</asrwt>
<pdfrwt beam="1">0</pdfrwt>
<pdfrwt beam="2">0</pdfrwt>
<totfact> 0.37558105E+11</totfact>
</mgrwt>
</event>
<event>
 4    1  0.3130345E+006  0.2660687E+01  0.7546771E-02  0.2641665E+00
         22   -1    0    0    0    0  0.00000000000E+00  0.00000000000E+00  0.79656671248E+01  0.79656671248E+01  0.00000000000E+00 0. -1.
         22   -1    0    0    0    0 -0.00000000000E+00 -0.00000000000E+00 -0.91084275845E+00  0.91084275845E+00  0.00000000000E+00 0.  1.
          2    1    1    2  501    0  0.56596353290E+00 -0.25997954262E+01  0.42190808631E+01  0.49879756225E+01  0.25500000000E-02 0. -1.
         -2    1    1    2    0  501 -0.56596353290E+00  0.25997954262E+01  0.28357435033E+01  0.38885342608E+01  0.25500000000E-02 0.  1.
<mgrwt>
<rscale>  0 0.26606874E+01</rscale>
<asrwt>0</asrwt>
<pdfrwt beam="1">0</pdfrwt>
<pdfrwt beam="2">0</pdfrwt>
<totfact> 0.23223405E+12</totfact>
</mgrwt>
</event>
<event>
 4    1  0.3130345E+006  0.2138418E+01  0.7546771E-02  0.2893172E+00
         22   -1    0    0    0    0  0.00000000000E+00  0.00000000000E+00  0.11292843305E+01  0.11292843305E+01  0.00000000000E+00 0.  1.
         22   -1    0    0    0    0 -0.00000000000E+00 -0.00000000000E+00 -0.40510847073E+01  0.40510847073E+01  0.00000000000E+00 0. -1.
          2    1    1    2  501    0  0.13382934038E+01  0.16678720645E+01 -0.15149698697E+01  0.26206805731E+01  0.25500000000E-02 0. -1.
         -2    1    1    2    0  501 -0.13382934038E+01 -0.16678720645E+01 -0.14068305071E+01  0.25596884647E+01  0.25500000000E-02 0.  1.
<mgrwt>
<rscale>  0 0.21384183E+01</rscale>
<asrwt>0</asrwt>
<pdfrwt beam="1">0</pdfrwt>
<pdfrwt beam="2">0</pdfrwt>
<totfact> 0.40580372E+12</totfact>
</mgrwt>
</event>
<event>
 4    1  0.3130345E+006  0.3462998E+01  0.7546771E-02  0.2393433E+00
         22   -1    0    0    0    0  0.00000000000E+00  0.00000000000E+00  0.28383812903E+01  0.28383812903E+01  0.00000000000E+00 0.  1.
         22   -1    0    0    0    0 -0.00000000000E+00 -0.00000000000E+00 -0.46903129574E+01  0.46903129574E+01  0.00000000000E+00 0. -1.
          2    1    1    2  501    0  0.76889058507E+00  0.33765598083E+01 -0.21115417232E+01  0.40559787749E+01  0.25500000000E-02 0. -1.
         -2    1    1    2    0  501 -0.76889058507E+00 -0.33765598083E+01  0.25961005608E+00  0.34727154728E+01  0.25500000000E-02 0.  1.
<mgrwt>
<rscale>  0 0.34629980E+01</rscale>
<asrwt>0</asrwt>
<pdfrwt beam="1">0</pdfrwt>
<pdfrwt beam="2">0</pdfrwt>
<totfact> 0.11775595E+12</totfact>
</mgrwt>
</event>
<event>
 4    1  0.3130345E+006  0.2408488E+01  0.7546771E-02  0.2750303E+00
         22   -1    0    0    0    0  0.00000000000E+00  0.00000000000E+00  0.94286630489E+00  0.94286630489E+00  0.00000000000E+00 0.  1.
         22   -1    0    0    0    0 -0.00000000000E+00 -0.00000000000E+00 -0.63396738338E+01  0.63396738338E+01  0.00000000000E+00 0. -1.
          2    1    1    2  501    0  0.80844313141E+00  0.22687499318E+01 -0.33243735873E+01  0.41051519826E+01  0.25500000000E-02 0. -1.
         -2    1    1    2    0  501 -0.80844313141E+00 -0.22687499318E+01 -0.20724339416E+01  0.31773881561E+01  0.25500000000E-02 0.  1.
<mgrwt>
<rscale>  0 0.24084877E+01</rscale>
<asrwt>0</asrwt>
<pdfrwt beam="1">0</pdfrwt>
<pdfrwt beam="2">0</pdfrwt>
<totfact> 0.29340576E+12</totfact>
</mgrwt>
</event>
<event>
 4    1  0.3130345E+006  0.2477905E+01  0.7546771E-02  0.2718352E+00
         22   -1    0    0    0    0  0.00000000000E+00  0.00000000000E+00  0.64730772666E+01  0.64730772666E+01  0.00000000000E+00 0. -1.
         22   -1    0    0    0    0 -0.00000000000E+00 -0.00000000000E+00 -0.11215377170E+01  0.11215377170E+01  0.00000000000E+00 0.  1.
          2    1    1    2  501    0 -0.24749925616E+01  0.12008125405E+00  0.41671245424E+01  0.48481894705E+01  0.25500000000E-02 0. -1.
         -2    1    1    2    0  501  0.24749925616E+01 -0.12008125405E+00  0.11844150071E+01  0.27464255131E+01  0.25500000000E-02 0.  1.
<mgrwt>
<rscale>  0 0.24779052E+01</rscale>
<asrwt>0</asrwt>
<pdfrwt beam="1">0</pdfrwt>
<pdfrwt beam="2">0</pdfrwt>
<totfact> 0.23473536E+12</totfact>
</mgrwt>
</event>
<event>
 4    1  0.3130345E+006  0.2210491E+01  0.7546771E-02  0.2851791E+00
         22   -1    0    0    0    0  0.00000000000E+00  0.00000000000E+00  0.82995425413E+00  0.82995425413E+00  0.00000000000E+00 0. -1.
         22   -1    0    0    0    0 -0.00000000000E+00 -0.00000000000E+00 -0.12756730432E+02  0.12756730432E+02  0.00000000000E+00 0.  1.
          2    1    1    2  501    0 -0.19095883627E+01 -0.11134334753E+01 -0.10948457174E+02  0.11169377011E+02  0.25500000000E-02 0.  1.
         -2    1    1    2    0  501  0.19095883627E+01  0.11134334753E+01 -0.97831900321E+00  0.24173076746E+01  0.25500000000E-02 0. -1.
<mgrwt>
<rscale>  0 0.22104905E+01</rscale>
<asrwt>0</asrwt>
<pdfrwt beam="1">0</pdfrwt>
<pdfrwt beam="2">0</pdfrwt>
<totfact> 0.14593427E+12</totfact>
</mgrwt>
</event>
<event>
 4    1  0.3130345E+006  0.2119725E+01  0.7546771E-02  0.2904347E+00
         22   -1    0    0    0    0  0.00000000000E+00  0.00000000000E+00  0.65688179239E+00  0.65688179239E+00  0.00000000000E+00 0. -1.
         22   -1    0    0    0    0 -0.00000000000E+00 -0.00000000000E+00 -0.14159508911E+02  0.14159508911E+02  0.00000000000E+00 0.  1.
          2    1    1    2  501    0  0.52627465835E+00 -0.20533543003E+01 -0.12077567864E+02  0.12262172764E+02  0.25500000000E-02 0.  1.
         -2    1    1    2    0  501 -0.52627465835E+00  0.20533543003E+01 -0.14250592555E+01  0.25542179396E+01  0.25500000000E-02 0. -1.
<mgrwt>
<rscale>  0 0.21197253E+01</rscale>
<asrwt>0</asrwt>
<pdfrwt beam="1">0</pdfrwt>
<pdfrwt beam="2">0</pdfrwt>
<totfact> 0.16750918E+12</totfact>
</mgrwt>
</event>
<event>
 4    1  0.3130345E+006  0.2713645E+01  0.7546771E-02  0.2621230E+00
         22   -1    0    0    0    0  0.00000000000E+00  0.00000000000E+00  0.36212525583E+00  0.36212525583E+00  0.00000000000E+00 0. -1.
         22   -1    0    0    0    0 -0.00000000000E+00 -0.00000000000E+00 -0.91411286640E+02  0.91411286640E+02  0.00000000000E+00 0.  1.
          2    1    1    2  501    0 -0.27103729403E+01  0.13319129325E+00 -0.85986726213E+02  0.86029535351E+02  0.25500000000E-02 0.  1.
         -2    1    1    2    0  501  0.27103729403E+01 -0.13319129325E+00 -0.50624351710E+01  0.57438765446E+01  0.25500000000E-02 0. -1.
<mgrwt>
<rscale>  0 0.27136448E+01</rscale>
<asrwt>0</asrwt>
<pdfrwt beam="1">0</pdfrwt>
<pdfrwt beam="2">0</pdfrwt>
<totfact> 0.29271866E+11</totfact>
</mgrwt>
</event>
<event>
 4    1  0.3130345E+006  0.2865090E+01  0.7546771E-02  0.2566612E+00
         22   -1    0    0    0    0  0.00000000000E+00  0.00000000000E+00  0.83864688867E+00  0.83864688867E+00  0.00000000000E+00 0. -1.
         22   -1    0    0    0    0 -0.00000000000E+00 -0.00000000000E+00 -0.10367530993E+02  0.10367530993E+02  0.00000000000E+00 0.  1.
          2    1    1    2  501    0 -0.40045823273E+00  0.28369640062E+01 -0.34397945316E+01  0.44767091139E+01  0.25500000000E-02 0. -1.
         -2    1    1    2    0  501  0.40045823273E+00 -0.28369640062E+01 -0.60890895732E+01  0.67294687682E+01  0.25500000000E-02 0.  1.
<mgrwt>
<rscale>  0 0.28650895E+01</rscale>
<asrwt>0</asrwt>
<pdfrwt beam="1">0</pdfrwt>
<pdfrwt beam="2">0</pdfrwt>
<totfact> 0.18563925E+12</totfact>
</mgrwt>
</event>
<event>
 4    1  0.3130345E+006  0.2354111E+01  0.7546771E-02  0.2776565E+00
         22   -1    0    0    0    0  0.00000000000E+00  0.00000000000E+00  0.13264780874E+02  0.13264780874E+02  0.00000000000E+00 0.  1.
         22   -1    0    0    0    0 -0.00000000000E+00 -0.00000000000E+00 -0.55129278174E+00  0.55129278174E+00  0.00000000000E+00 0. -1.
          2    1    1    2  501    0  0.20248136219E+01  0.12008168593E+01  0.29572413615E+01  0.37798299308E+01  0.25500000000E-02 0. -1.
         -2    1    1    2    0  501 -0.20248136219E+01 -0.12008168593E+01  0.97562467312E+01  0.10036243725E+02  0.25500000000E-02 0.  1.
<mgrwt>
<rscale>  0 0.23541108E+01</rscale>
<asrwt>0</asrwt>
<pdfrwt beam="1">0</pdfrwt>
<pdfrwt beam="2">0</pdfrwt>
<totfact> 0.22130639E+12</totfact>
</mgrwt>
</event>
<event>
 4    1  0.3130345E+006  0.2422043E+01  0.7546771E-02  0.2743929E+00
         22   -1    0    0    0    0  0.00000000000E+00  0.00000000000E+00  0.15290383594E+02  0.15290383594E+02  0.00000000000E+00 0. -1.
         22   -1    0    0    0    0 -0.00000000000E+00 -0.00000000000E+00 -0.12918924412E+01  0.12918924412E+01  0.00000000000E+00 0.  1.
          2    1    1    2  501    0  0.79563028603E+00 -0.22876318652E+01  0.47406581809E-01  0.24225071701E+01  0.25500000000E-02 0.  1.
         -2    1    1    2    0  501 -0.79563028603E+00  0.22876318652E+01  0.13951084571E+02  0.14159768865E+02  0.25500000000E-02 0. -1.
<mgrwt>
<rscale>  0 0.24220433E+01</rscale>
<asrwt>0</asrwt>
<pdfrwt beam="1">0</pdfrwt>
<pdfrwt beam="2">0</pdfrwt>
<totfact> 0.70476076E+11</totfact>
</mgrwt>
</event>
<event>
 4    1  0.3130345E+006  0.3030353E+01  0.7546771E-02  0.2512674E+00
         22   -1    0    0    0    0  0.00000000000E+00  0.00000000000E+00  0.49780045627E+00  0.49780045627E+00  0.00000000000E+00 0. -1.
         22   -1    0    0    0    0 -0.00000000000E+00 -0.00000000000E+00 -0.34854344000E+02  0.34854344000E+02  0.00000000000E+00 0.  1.
          2    1    1    2  501    0  0.14531907719E+01 -0.26591855938E+01 -0.29305832288E+02  0.29462091644E+02  0.25500000000E-02 0.  1.
         -2    1    1    2    0  501 -0.14531907719E+01  0.26591855938E+01 -0.50507112564E+01  0.58900528130E+01  0.25500000000E-02 0. -1.
<mgrwt>
<rscale>  0 0.30303528E+01</rscale>
<asrwt>0</asrwt>
<pdfrwt beam="1">0</pdfrwt>
<pdfrwt beam="2">0</pdfrwt>
<totfact> 0.74049128E+11</totfact>
</mgrwt>
</event>
<event>
 4    1  0.3130345E+006  0.2170777E+01  0.7546771E-02  0.2874266E+00
         22   -1    0    0    0    0  0.00000000000E+00  0.00000000000E+00  0.18340886553E+01  0.18340886553E+01  0.00000000000E+00 0. -1.
         22   -1    0    0    0    0 -0.00000000000E+00 -0.00000000000E+00 -0.28237598102E+01  0.28237598102E+01  0.00000000000E+00 0.  1.
          2    1    1    2  501    0 -0.21664975100E+01 -0.13622261577E+00 -0.11939915545E+01  0.24774766187E+01  0.25500000000E-02 0.  1.
         -2    1    1    2    0  501  0.21664975100E+01  0.13622261577E+00  0.20432039959E+00  0.21803718467E+01  0.25500000000E-02 0. -1.
<mgrwt>
<rscale>  0 0.21707774E+01</rscale>
<asrwt>0</asrwt>
<pdfrwt beam="1">0</pdfrwt>
<pdfrwt beam="2">0</pdfrwt>
<totfact> 0.35466443E+12</totfact>
</mgrwt>
</event>
<event>
 4    1  0.3130345E+006  0.2873726E+01  0.7546771E-02  0.2563655E+00
         22   -1    0    0    0    0  0.00000000000E+00  0.00000000000E+00  0.25131435874E+01  0.25131435874E+01  0.00000000000E+00 0. -1.
         22   -1    0    0    0    0 -0.00000000000E+00 -0.00000000000E+00 -0.37496556151E+01  0.37496556151E+01  0.00000000000E+00 0.  1.
          2    1    1    2  501    0  0.25272645093E+01  0.13679283351E+01  0.48282676117E+00  0.29140044636E+01  0.25500000000E-02 0.  1.
         -2    1    1    2    0  501 -0.25272645093E+01 -0.13679283351E+01 -0.17193387889E+01  0.33487947389E+01  0.25500000000E-02 0. -1.
<mgrwt>
<rscale>  0 0.28737259E+01</rscale>
<asrwt>0</asrwt>
<pdfrwt beam="1">0</pdfrwt>
<pdfrwt beam="2">0</pdfrwt>
<totfact> 0.17664067E+12</totfact>
</mgrwt>
</event>
<event>
 4    1  0.3130345E+006  0.2174836E+01  0.7546771E-02  0.2871933E+00
         22   -1    0    0    0    0  0.00000000000E+00  0.00000000000E+00  0.45347178127E+01  0.45347178127E+01  0.00000000000E+00 0.  1.
         22   -1    0    0    0    0 -0.00000000000E+00 -0.00000000000E+00 -0.11205150064E+01  0.11205150064E+01  0.00000000000E+00 0. -1.
          2    1    1    2  501    0 -0.21661442132E+01 -0.19422856172E+00  0.24505999974E+01  0.32764847529E+01  0.25500000000E-02 0.  1.
         -2    1    1    2    0  501  0.21661442132E+01  0.19422856172E+00  0.96360280892E+00  0.23787480662E+01  0.25500000000E-02 0. -1.
<mgrwt>
<rscale>  0 0.21748361E+01</rscale>
<asrwt>0</asrwt>
<pdfrwt beam="1">0</pdfrwt>
<pdfrwt beam="2">0</pdfrwt>
<totfact> 0.35846836E+12</totfact>
</mgrwt>
</event>
<event>
 4    1  0.3130345E+006  0.2573756E+01  0.7546771E-02  0.2676880E+00
         22   -1    0    0    0    0  0.00000000000E+00  0.00000000000E+00  0.81809004788E+01  0.81809004788E+01  0.00000000000E+00 0. -1.
         22   -1    0    0    0    0 -0.00000000000E+00 -0.00000000000E+00 -0.83999633389E+00  0.83999633389E+00  0.00000000000E+00 0.  1.
          2    1    1    2  501    0  0.21313528606E+01 -0.14427563774E+01  0.28141020801E+01  0.38135794210E+01  0.25500000000E-02 0.  1.
         -2    1    1    2    0  501 -0.21313528606E+01  0.14427563774E+01  0.45268020648E+01  0.52073173916E+01  0.25500000000E-02 0. -1.
<mgrwt>
<rscale>  0 0.25737555E+01</rscale>
<asrwt>0</asrwt>
<pdfrwt beam="1">0</pdfrwt>
<pdfrwt beam="2">0</pdfrwt>
<totfact> 0.24664561E+12</totfact>
</mgrwt>
</event>
<event>
 4    1  0.3130345E+006  0.2301306E+01  0.7546771E-02  0.2803186E+00
         22   -1    0    0    0    0  0.00000000000E+00  0.00000000000E+00  0.52357523499E+01  0.52357523499E+01  0.00000000000E+00 0. -1.
         22   -1    0    0    0    0 -0.00000000000E+00 -0.00000000000E+00 -0.10613297298E+01  0.10613297298E+01  0.00000000000E+00 0.  1.
          2    1    1    2  501    0  0.56413787856E+00 -0.22310878579E+01  0.14050472139E+01  0.26963250456E+01  0.25500000000E-02 0.  1.
         -2    1    1    2    0  501 -0.56413787856E+00  0.22310878579E+01  0.27693754062E+01  0.36007570341E+01  0.25500000000E-02 0. -1.
<mgrwt>
<rscale>  0 0.23013064E+01</rscale>
<asrwt>0</asrwt>
<pdfrwt beam="1">0</pdfrwt>
<pdfrwt beam="2">0</pdfrwt>
<totfact> 0.32177536E+12</totfact>
</mgrwt>
</event>
<event>
 4    1  0.3130345E+006  0.2029551E+01  0.7546771E-02  0.2961059E+00
         22   -1    0    0    0    0  0.00000000000E+00  0.00000000000E+00  0.41034683441E+00  0.41034683441E+00  0.00000000000E+00 0. -1.
         22   -1    0    0    0    0 -0.00000000000E+00 -0.00000000000E+00 -0.13674440657E+02  0.13674440657E+02  0.00000000000E+00 0.  1.
          2    1    1    2  501    0  0.20082444557E+01  0.29330130976E+00 -0.10263675105E+02  0.10462413900E+02  0.25500000000E-02 0.  1.
         -2    1    1    2    0  501 -0.20082444557E+01 -0.29330130976E+00 -0.30004187175E+01  0.36223735913E+01  0.25500000000E-02 0. -1.
<mgrwt>
<rscale>  0 0.20295512E+01</rscale>
<asrwt>0</asrwt>
<pdfrwt beam="1">0</pdfrwt>
<pdfrwt beam="2">0</pdfrwt>
<totfact> 0.29749454E+12</totfact>
</mgrwt>
</event>
<event>
 4    1  0.3130345E+006  0.2082937E+01  0.7546771E-02  0.2926907E+00
         22   -1    0    0    0    0  0.00000000000E+00  0.00000000000E+00  0.29118728707E+02  0.29118728707E+02  0.00000000000E+00 0.  1.
         22   -1    0    0    0    0 -0.00000000000E+00 -0.00000000000E+00 -0.18260832105E+00  0.18260832105E+00  0.00000000000E+00 0. -1.
          2    1    1    2  501    0 -0.20729664860E+01 -0.20354715236E+00  0.81826380064E+01  0.84435888544E+01  0.25500000000E-02 0. -1.
         -2    1    1    2    0  501  0.20729664860E+01  0.20354715236E+00  0.20753482379E+02  0.20857748173E+02  0.25500000000E-02 0.  1.
<mgrwt>
<rscale>  0 0.20829373E+01</rscale>
<asrwt>0</asrwt>
<pdfrwt beam="1">0</pdfrwt>
<pdfrwt beam="2">0</pdfrwt>
<totfact> 0.28693512E+12</totfact>
</mgrwt>
</event>
<event>
 4    1  0.3130345E+006  0.2107446E+01  0.7546771E-02  0.2911792E+00
         22   -1    0    0    0    0  0.00000000000E+00  0.00000000000E+00  0.22175862477E+02  0.22175862477E+02  0.00000000000E+00 0.  1.
         22   -1    0    0    0    0 -0.00000000000E+00 -0.00000000000E+00 -0.35358991928E+00  0.35358991928E+00  0.00000000000E+00 0. -1.
          2    1    1    2  501    0 -0.17590306443E+01 -0.11606601548E+01  0.34936063593E+01  0.40800260660E+01  0.25500000000E-02 0. -1.
         -2    1    1    2    0  501  0.17590306443E+01  0.11606601548E+01  0.18328666198E+02  0.18449426330E+02  0.25500000000E-02 0.  1.
<mgrwt>
<rscale>  0 0.21074457E+01</rscale>
<asrwt>0</asrwt>
<pdfrwt beam="1">0</pdfrwt>
<pdfrwt beam="2">0</pdfrwt>
<totfact> 0.19321436E+12</totfact>
</mgrwt>
</event>
<event>
 4    1  0.3130345E+006  0.2110977E+01  0.7546771E-02  0.2909642E+00
         22   -1    0    0    0    0  0.00000000000E+00  0.00000000000E+00  0.97183916192E+00  0.97183916192E+00  0.00000000000E+00 0.  1.
         22   -1    0    0    0    0 -0.00000000000E+00 -0.00000000000E+00 -0.64330097481E+01  0.64330097481E+01  0.00000000000E+00 0. -1.
          2    1    1    2  501    0  0.10719230964E+01  0.18185708673E+01 -0.47148049429E+01  0.51658117732E+01  0.25500000000E-02 0.  1.
         -2    1    1    2    0  501 -0.10719230964E+01 -0.18185708673E+01 -0.74636564331E+00  0.22390371368E+01  0.25500000000E-02 0. -1.
<mgrwt>
<rscale>  0 0.21109774E+01</rscale>
<asrwt>0</asrwt>
<pdfrwt beam="1">0</pdfrwt>
<pdfrwt beam="2">0</pdfrwt>
<totfact> 0.27853332E+12</totfact>
</mgrwt>
</event>
<event>
 4    1  0.3130345E+006  0.9142200E+01  0.7546771E-02  0.1816657E+00
         22   -1    0    0    0    0  0.00000000000E+00  0.00000000000E+00  0.93334824760E+01  0.93334824760E+01  0.00000000000E+00 0.  1.
         22   -1    0    0    0    0 -0.00000000000E+00 -0.00000000000E+00 -0.12456829470E+02  0.12456829470E+02  0.00000000000E+00 0. -1.
          2    1    1    2  501    0  0.78319348303E+01 -0.47159944965E+01 -0.73384730607E+01  0.11723182189E+02  0.25500000000E-02 0.  1.
         -2    1    1    2    0  501 -0.78319348303E+01  0.47159944965E+01  0.42151260667E+01  0.10067129757E+02  0.25500000000E-02 0. -1.
<mgrwt>
<rscale>  0 0.91421996E+01</rscale>
<asrwt>0</asrwt>
<pdfrwt beam="1">0</pdfrwt>
<pdfrwt beam="2">0</pdfrwt>
<totfact> 0.88889260E+10</totfact>
</mgrwt>
</event>
<event>
 4    1  0.3130345E+006  0.2182172E+01  0.7546771E-02  0.2867737E+00
         22   -1    0    0    0    0  0.00000000000E+00  0.00000000000E+00  0.19077652850E+00  0.19077652850E+00  0.00000000000E+00 0. -1.
         22   -1    0    0    0    0 -0.00000000000E+00 -0.00000000000E+00 -0.32190507786E+02  0.32190507786E+02  0.00000000000E+00 0.  1.
          2    1    1    2  501    0  0.16941912280E+01  0.13753491680E+01 -0.23672947359E+02  0.23773310926E+02  0.25500000000E-02 0.  1.
         -2    1    1    2    0  501 -0.16941912280E+01 -0.13753491680E+01 -0.83267838990E+01  0.86079733883E+01  0.25500000000E-02 0. -1.
<mgrwt>
<rscale>  0 0.21821723E+01</rscale>
<asrwt>0</asrwt>
<pdfrwt beam="1">0</pdfrwt>
<pdfrwt beam="2">0</pdfrwt>
<totfact> 0.24045707E+12</totfact>
</mgrwt>
</event>
<event>
 4    1  0.3130345E+006  0.4326975E+01  0.7546771E-02  0.2218834E+00
         22   -1    0    0    0    0  0.00000000000E+00  0.00000000000E+00  0.60220378684E+01  0.60220378684E+01  0.00000000000E+00 0.  1.
         22   -1    0    0    0    0 -0.00000000000E+00 -0.00000000000E+00 -0.69521780280E+01  0.69521780280E+01  0.00000000000E+00 0. -1.
          2    1    1    2  501    0 -0.33708845950E+01 -0.27129038738E+01 -0.52882564827E+01  0.68328891042E+01  0.25500000000E-02 0. -1.
         -2    1    1    2    0  501  0.33708845950E+01  0.27129038738E+01  0.43581163230E+01  0.61413267922E+01  0.25500000000E-02 0.  1.
<mgrwt>
<rscale>  0 0.43269755E+01</rscale>
<asrwt>0</asrwt>
<pdfrwt beam="1">0</pdfrwt>
<pdfrwt beam="2">0</pdfrwt>
<totfact> 0.30407308E+11</totfact>
</mgrwt>
</event>
<event>
 4    1  0.3130345E+006  0.2089658E+01  0.7546771E-02  0.2922728E+00
         22   -1    0    0    0    0  0.00000000000E+00  0.00000000000E+00  0.18929080399E+01  0.18929080399E+01  0.00000000000E+00 0. -1.
         22   -1    0    0    0    0 -0.00000000000E+00 -0.00000000000E+00 -0.26424500764E+01  0.26424500764E+01  0.00000000000E+00 0.  1.
          2    1    1    2  501    0 -0.65789615177E+00  0.19833906821E+01 -0.11829047328E+01  0.24012363594E+01  0.25500000000E-02 0.  1.
         -2    1    1    2    0  501  0.65789615177E+00 -0.19833906821E+01  0.43336269622E+00  0.21341217569E+01  0.25500000000E-02 0. -1.
<mgrwt>
<rscale>  0 0.20896585E+01</rscale>
<asrwt>0</asrwt>
<pdfrwt beam="1">0</pdfrwt>
<pdfrwt beam="2">0</pdfrwt>
<totfact> 0.36945221E+12</totfact>
</mgrwt>
</event>
<event>
 4    1  0.3130345E+006  0.2567944E+01  0.7546771E-02  0.2679313E+00
         22   -1    0    0    0    0  0.00000000000E+00  0.00000000000E+00  0.14447814767E+02  0.14447814767E+02  0.00000000000E+00 0.  1.
         22   -1    0    0    0    0 -0.00000000000E+00 -0.00000000000E+00 -0.12604721688E+01  0.12604721688E+01  0.00000000000E+00 0. -1.
          2    1    1    2  501    0 -0.13119788555E+00  0.25645892829E+01  0.32070317811E+00  0.25878925994E+01  0.25500000000E-02 0. -1.
         -2    1    1    2    0  501  0.13119788555E+00 -0.25645892829E+01  0.12866639421E+02  0.13120394337E+02  0.25500000000E-02 0.  1.
<mgrwt>
<rscale>  0 0.25679442E+01</rscale>
<asrwt>0</asrwt>
<pdfrwt beam="1">0</pdfrwt>
<pdfrwt beam="2">0</pdfrwt>
<totfact> 0.77730962E+11</totfact>
</mgrwt>
</event>
<event>
 4    1  0.3130345E+006  0.2111431E+01  0.7546771E-02  0.2909367E+00
         22   -1    0    0    0    0  0.00000000000E+00  0.00000000000E+00  0.18267952655E+02  0.18267952655E+02  0.00000000000E+00 0. -1.
         22   -1    0    0    0    0 -0.00000000000E+00 -0.00000000000E+00 -0.82411869790E+00  0.82411869790E+00  0.00000000000E+00 0.  1.
          2    1    1    2  501    0 -0.65479769390E+00 -0.20073305445E+01  0.71305172042E+00  0.22285836742E+01  0.25500000000E-02 0.  1.
         -2    1    1    2    0  501  0.65479769390E+00  0.20073305445E+01  0.16730782237E+02  0.16863487679E+02  0.25500000000E-02 0. -1.
<mgrwt>
<rscale>  0 0.21114314E+01</rscale>
<asrwt>0</asrwt>
<pdfrwt beam="1">0</pdfrwt>
<pdfrwt beam="2">0</pdfrwt>
<totfact> 0.94526123E+11</totfact>
</mgrwt>
</event>
<event>
 4    1  0.3130345E+006  0.2612655E+01  0.7546771E-02  0.2660855E+00
         22   -1    0    0    0    0  0.00000000000E+00  0.00000000000E+00  0.75032239642E+02  0.75032239642E+02  0.00000000000E+00 0.  1.
         22   -1    0    0    0    0 -0.00000000000E+00 -0.00000000000E+00 -0.14108390873E+00  0.14108390873E+00  0.00000000000E+00 0. -1.
          2    1    1    2  501    0 -0.24874786961E+01  0.79900621039E+00  0.15045078366E+02  0.15270243965E+02  0.25500000000E-02 0. -1.
         -2    1    1    2    0  501  0.24874786961E+01 -0.79900621039E+00  0.59846077367E+02  0.59903079586E+02  0.25500000000E-02 0.  1.
<mgrwt>
<rscale>  0 0.26126553E+01</rscale>
<asrwt>0</asrwt>
<pdfrwt beam="1">0</pdfrwt>
<pdfrwt beam="2">0</pdfrwt>
<totfact> 0.11019185E+12</totfact>
</mgrwt>
</event>
<event>
 4    1  0.3130345E+006  0.2129514E+01  0.7546771E-02  0.2898471E+00
         22   -1    0    0    0    0  0.00000000000E+00  0.00000000000E+00  0.72580246171E+02  0.72580246171E+02  0.00000000000E+00 0.  1.
         22   -1    0    0    0    0 -0.00000000000E+00 -0.00000000000E+00 -0.74236096488E-01  0.74236096488E-01  0.00000000000E+00 0. -1.
          2    1    1    2  501    0 -0.21068201508E+01  0.31005509643E+00  0.21796882039E+02  0.21900659771E+02  0.25500000000E-02 0. -1.
         -2    1    1    2    0  501  0.21068201508E+01 -0.31005509643E+00  0.50709128036E+02  0.50753822496E+02  0.25500000000E-02 0.  1.
<mgrwt>
<rscale>  0 0.21295145E+01</rscale>
<asrwt>0</asrwt>
<pdfrwt beam="1">0</pdfrwt>
<pdfrwt beam="2">0</pdfrwt>
<totfact> 0.23473162E+12</totfact>
</mgrwt>
</event>
<event>
 4    1  0.3130345E+006  0.2530918E+01  0.7546771E-02  0.2695054E+00
         22   -1    0    0    0    0  0.00000000000E+00  0.00000000000E+00  0.16966843024E+02  0.16966843024E+02  0.00000000000E+00 0.  1.
         22   -1    0    0    0    0 -0.00000000000E+00 -0.00000000000E+00 -0.47660989559E+00  0.47660989559E+00  0.00000000000E+00 0. -1.
          2    1    1    2  501    0 -0.14811166092E+01 -0.20522749266E+01  0.42685628524E+01  0.49624766107E+01  0.25500000000E-02 0.  1.
         -2    1    1    2    0  501  0.14811166092E+01  0.20522749266E+01  0.12221670276E+02  0.12480976309E+02  0.25500000000E-02 0. -1.
<mgrwt>
<rscale>  0 0.25309179E+01</rscale>
<asrwt>0</asrwt>
<pdfrwt beam="1">0</pdfrwt>
<pdfrwt beam="2">0</pdfrwt>
<totfact> 0.19268914E+12</totfact>
</mgrwt>
</event>
<event>
 4    1  0.3130345E+006  0.4377494E+01  0.7546771E-02  0.2210464E+00
         22   -1    0    0    0    0  0.00000000000E+00  0.00000000000E+00  0.13826309862E+01  0.13826309862E+01  0.00000000000E+00 0. -1.
         22   -1    0    0    0    0 -0.00000000000E+00 -0.00000000000E+00 -0.13938872111E+02  0.13938872111E+02  0.00000000000E+00 0.  1.
          2    1    1    2  501    0  0.40008461786E+01 -0.17764221329E+01 -0.56997147912E+01  0.71867378512E+01  0.25500000000E-02 0.  1.
         -2    1    1    2    0  501 -0.40008461786E+01  0.17764221329E+01 -0.68565263336E+01  0.81347652459E+01  0.25500000000E-02 0. -1.
<mgrwt>
<rscale>  0 0.43774938E+01</rscale>
<asrwt>0</asrwt>
<pdfrwt beam="1">0</pdfrwt>
<pdfrwt beam="2">0</pdfrwt>
<totfact> 0.73049314E+11</totfact>
</mgrwt>
</event>
<event>
 4    1  0.3130345E+006  0.2259492E+01  0.7546771E-02  0.2825102E+00
         22   -1    0    0    0    0  0.00000000000E+00  0.00000000000E+00  0.15910368636E+01  0.15910368636E+01  0.00000000000E+00 0. -1.
         22   -1    0    0    0    0 -0.00000000000E+00 -0.00000000000E+00 -0.32649813992E+01  0.32649813992E+01  0.00000000000E+00 0.  1.
          2    1    1    2  501    0  0.21920227248E+01  0.54802545820E+00 -0.11555003063E+01  0.25378106686E+01  0.25500000000E-02 0. -1.
         -2    1    1    2    0  501 -0.21920227248E+01 -0.54802545820E+00 -0.51844422927E+00  0.23182075943E+01  0.25500000000E-02 0.  1.
<mgrwt>
<rscale>  0 0.22594915E+01</rscale>
<asrwt>0</asrwt>
<pdfrwt beam="1">0</pdfrwt>
<pdfrwt beam="2">0</pdfrwt>
<totfact> 0.35267193E+12</totfact>
</mgrwt>
</event>
<event>
 4    1  0.3130345E+006  0.2349361E+01  0.7546771E-02  0.2778913E+00
         22   -1    0    0    0    0  0.00000000000E+00  0.00000000000E+00  0.38856433995E+02  0.38856433995E+02  0.00000000000E+00 0. -1.
         22   -1    0    0    0    0 -0.00000000000E+00 -0.00000000000E+00 -0.14208953982E+00  0.14208953982E+00  0.00000000000E+00 0.  1.
          2    1    1    2  501    0 -0.23471690752E+01 -0.10142712436E+00  0.19025622692E+02  0.19170128206E+02  0.25500000000E-02 0.  1.
         -2    1    1    2    0  501  0.23471690752E+01  0.10142712436E+00  0.19688721763E+02  0.19828395329E+02  0.25500000000E-02 0. -1.
<mgrwt>
<rscale>  0 0.23493609E+01</rscale>
<asrwt>0</asrwt>
<pdfrwt beam="1">0</pdfrwt>
<pdfrwt beam="2">0</pdfrwt>
<totfact> 0.26196991E+12</totfact>
</mgrwt>
</event>
<event>
 4    1  0.3130345E+006  0.2796515E+01  0.7546771E-02  0.2590677E+00
         22   -1    0    0    0    0  0.00000000000E+00  0.00000000000E+00  0.69400162215E+01  0.69400162215E+01  0.00000000000E+00 0.  1.
         22   -1    0    0    0    0 -0.00000000000E+00 -0.00000000000E+00 -0.11272186513E+01  0.11272186513E+01  0.00000000000E+00 0. -1.
          2    1    1    2  501    0 -0.16884489942E+01 -0.22292668621E+01  0.29773208060E+01  0.40847198720E+01  0.25500000000E-02 0. -1.
         -2    1    1    2    0  501  0.16884489942E+01  0.22292668621E+01  0.28354767642E+01  0.39825150008E+01  0.25500000000E-02 0.  1.
<mgrwt>
<rscale>  0 0.27965152E+01</rscale>
<asrwt>0</asrwt>
<pdfrwt beam="1">0</pdfrwt>
<pdfrwt beam="2">0</pdfrwt>
<totfact> 0.21475440E+12</totfact>
</mgrwt>
</event>
<event>
 4    1  0.3130345E+006  0.2215868E+01  0.7546771E-02  0.2848807E+00
         22   -1    0    0    0    0  0.00000000000E+00  0.00000000000E+00  0.84043037388E+00  0.84043037388E+00  0.00000000000E+00 0.  1.
         22   -1    0    0    0    0 -0.00000000000E+00 -0.00000000000E+00 -0.64931238663E+01  0.64931238663E+01  0.00000000000E+00 0. -1.
          2    1    1    2  501    0 -0.72619453075E+00  0.20934912111E+01 -0.39872067426E+01  0.45615664040E+01  0.25500000000E-02 0.  1.
         -2    1    1    2    0  501  0.72619453075E+00 -0.20934912111E+01 -0.16654867498E+01  0.27719878361E+01  0.25500000000E-02 0. -1.
<mgrwt>
<rscale>  0 0.22158679E+01</rscale>
<asrwt>0</asrwt>
<pdfrwt beam="1">0</pdfrwt>
<pdfrwt beam="2">0</pdfrwt>
<totfact> 0.32508043E+12</totfact>
</mgrwt>
</event>
<event>
 4    1  0.3130345E+006  0.2156092E+01  0.7546771E-02  0.2882778E+00
         22   -1    0    0    0    0  0.00000000000E+00  0.00000000000E+00  0.37762464702E+02  0.37762464702E+02  0.00000000000E+00 0. -1.
         22   -1    0    0    0    0 -0.00000000000E+00 -0.00000000000E+00 -0.17393849925E+00  0.17393849925E+00  0.00000000000E+00 0.  1.
          2    1    1    2  501    0  0.21443193912E+01  0.22499109473E+00  0.85399870308E+01  0.88079572905E+01  0.25500000000E-02 0.  1.
         -2    1    1    2    0  501 -0.21443193912E+01 -0.22499109473E+00  0.29048539172E+02  0.29128445911E+02  0.25500000000E-02 0. -1.
<mgrwt>
<rscale>  0 0.21560921E+01</rscale>
<asrwt>0</asrwt>
<pdfrwt beam="1">0</pdfrwt>
<pdfrwt beam="2">0</pdfrwt>
<totfact> 0.21705722E+12</totfact>
</mgrwt>
</event>
<event>
 4    1  0.3130345E+006  0.2141549E+01  0.7546771E-02  0.2891318E+00
         22   -1    0    0    0    0  0.00000000000E+00  0.00000000000E+00  0.63334672165E+01  0.63334672165E+01  0.00000000000E+00 0.  1.
         22   -1    0    0    0    0 -0.00000000000E+00 -0.00000000000E+00 -0.56378830485E+01  0.56378830485E+01  0.00000000000E+00 0. -1.
          2    1    1    2  501    0 -0.20432684662E+01  0.64131225899E+00 -0.52402788617E+01  0.56609854698E+01  0.25500000000E-02 0. -1.
         -2    1    1    2    0  501  0.20432684662E+01 -0.64131225899E+00  0.59358630297E+01  0.63103647952E+01  0.25500000000E-02 0.  1.
<mgrwt>
<rscale>  0 0.21415494E+01</rscale>
<asrwt>0</asrwt>
<pdfrwt beam="1">0</pdfrwt>
<pdfrwt beam="2">0</pdfrwt>
<totfact> 0.36755539E+11</totfact>
</mgrwt>
</event>
<event>
 4    1  0.3130345E+006  0.2324851E+01  0.7546771E-02  0.2791174E+00
         22   -1    0    0    0    0  0.00000000000E+00  0.00000000000E+00  0.24004645104E+01  0.24004645104E+01  0.00000000000E+00 0. -1.
         22   -1    0    0    0    0 -0.00000000000E+00 -0.00000000000E+00 -0.23692447246E+01  0.23692447246E+01  0.00000000000E+00 0.  1.
          2    1    1    2  501    0 -0.13934399619E+01  0.18609812100E+01  0.54699250579E+00  0.23883327439E+01  0.25500000000E-02 0. -1.
         -2    1    1    2    0  501  0.13934399619E+01 -0.18609812100E+01 -0.51577272007E+00  0.23813764912E+01  0.25500000000E-02 0.  1.
<mgrwt>
<rscale>  0 0.23248511E+01</rscale>
<asrwt>0</asrwt>
<pdfrwt beam="1">0</pdfrwt>
<pdfrwt beam="2">0</pdfrwt>
<totfact> 0.31851851E+12</totfact>
</mgrwt>
</event>
<event>
 4    1  0.3130345E+006  0.2126241E+01  0.7546771E-02  0.2900430E+00
         22   -1    0    0    0    0  0.00000000000E+00  0.00000000000E+00  0.99185920690E-01  0.99185920690E-01  0.00000000000E+00 0. -1.
         22   -1    0    0    0    0 -0.00000000000E+00 -0.00000000000E+00 -0.47583231340E+02  0.47583231340E+02  0.00000000000E+00 0.  1.
          2    1    1    2  501    0 -0.19586408294E+01  0.82741780054E+00 -0.28633723816E+02  0.28712558928E+02  0.25500000000E-02 0. -1.
         -2    1    1    2    0  501  0.19586408294E+01 -0.82741780054E+00 -0.18850321603E+02  0.18969858333E+02  0.25500000000E-02 0.  1.
<mgrwt>
<rscale>  0 0.21262410E+01</rscale>
<asrwt>0</asrwt>
<pdfrwt beam="1">0</pdfrwt>
<pdfrwt beam="2">0</pdfrwt>
<totfact> 0.29962416E+12</totfact>
</mgrwt>
</event>
<event>
 4    1  0.3130345E+006  0.2522937E+01  0.7546771E-02  0.2698503E+00
         22   -1    0    0    0    0  0.00000000000E+00  0.00000000000E+00  0.30091683291E+00  0.30091683291E+00  0.00000000000E+00 0.  1.
         22   -1    0    0    0    0 -0.00000000000E+00 -0.00000000000E+00 -0.23565245062E+02  0.23565245062E+02  0.00000000000E+00 0. -1.
          2    1    1    2  501    0  0.23786285709E+01  0.84103027551E+00 -0.15450302694E+02  0.15654937421E+02  0.25500000000E-02 0. -1.
         -2    1    1    2    0  501 -0.23786285709E+01 -0.84103027551E+00 -0.78140255349E+01  0.82112244742E+01  0.25500000000E-02 0.  1.
<mgrwt>
<rscale>  0 0.25229372E+01</rscale>
<asrwt>0</asrwt>
<pdfrwt beam="1">0</pdfrwt>
<pdfrwt beam="2">0</pdfrwt>
<totfact> 0.21457140E+12</totfact>
</mgrwt>
</event>
<event>
 4    1  0.3130345E+006  0.3417587E+01  0.7546771E-02  0.2404694E+00
         22   -1    0    0    0    0  0.00000000000E+00  0.00000000000E+00  0.57016938326E+00  0.57016938326E+00  0.00000000000E+00 0. -1.
         22   -1    0    0    0    0 -0.00000000000E+00 -0.00000000000E+00 -0.20723406960E+02  0.20723406960E+02  0.00000000000E+00 0.  1.
          2    1    1    2  501    0 -0.24411975691E+01 -0.23917462372E+01 -0.11218644129E+02  0.11727654421E+02  0.25500000000E-02 0. -1.
         -2    1    1    2    0  501  0.24411975691E+01  0.23917462372E+01 -0.89345934479E+01  0.95659219219E+01  0.25500000000E-02 0.  1.
<mgrwt>
<rscale>  0 0.34175872E+01</rscale>
<asrwt>0</asrwt>
<pdfrwt beam="1">0</pdfrwt>
<pdfrwt beam="2">0</pdfrwt>
<totfact> 0.12272454E+12</totfact>
</mgrwt>
</event>
<event>
 4    1  0.3130345E+006  0.2161147E+01  0.7546771E-02  0.2879836E+00
         22   -1    0    0    0    0  0.00000000000E+00  0.00000000000E+00  0.44790853096E+01  0.44790853096E+01  0.00000000000E+00 0.  1.
         22   -1    0    0    0    0 -0.00000000000E+00 -0.00000000000E+00 -0.11226627617E+01  0.11226627617E+01  0.00000000000E+00 0. -1.
          2    1    1    2  501    0  0.36312969200E+00 -0.21304190956E+01  0.24254918034E+01  0.32486251995E+01  0.25500000000E-02 0.  1.
         -2    1    1    2    0  501 -0.36312969200E+00  0.21304190956E+01  0.93093074444E+00  0.23531228717E+01  0.25500000000E-02 0. -1.
<mgrwt>
<rscale>  0 0.21611467E+01</rscale>
<asrwt>0</asrwt>
<pdfrwt beam="1">0</pdfrwt>
<pdfrwt beam="2">0</pdfrwt>
<totfact> 0.36293324E+12</totfact>
</mgrwt>
</event>
<event>
 4    1  0.3130345E+006  0.2244422E+01  0.7546771E-02  0.2833192E+00
         22   -1    0    0    0    0  0.00000000000E+00  0.00000000000E+00  0.10644377267E+02  0.10644377267E+02  0.00000000000E+00 0.  1.
         22   -1    0    0    0    0 -0.00000000000E+00 -0.00000000000E+00 -0.83802937956E+00  0.83802937956E+00  0.00000000000E+00 0. -1.
          2    1    1    2  501    0  0.17557280760E+01  0.13981565016E+01  0.11153507762E+01  0.25062794210E+01  0.25500000000E-02 0. -1.
         -2    1    1    2    0  501 -0.17557280760E+01 -0.13981565016E+01  0.86909971113E+01  0.89761272256E+01  0.25500000000E-02 0.  1.
<mgrwt>
<rscale>  0 0.22444218E+01</rscale>
<asrwt>0</asrwt>
<pdfrwt beam="1">0</pdfrwt>
<pdfrwt beam="2">0</pdfrwt>
<totfact> 0.17994015E+12</totfact>
</mgrwt>
</event>
<event>
 4    1  0.3130345E+006  0.2921076E+01  0.7546771E-02  0.2547725E+00
         22   -1    0    0    0    0  0.00000000000E+00  0.00000000000E+00  0.31932975857E+01  0.31932975857E+01  0.00000000000E+00 0.  1.
         22   -1    0    0    0    0 -0.00000000000E+00 -0.00000000000E+00 -0.28562143494E+01  0.28562143494E+01  0.00000000000E+00 0. -1.
          2    1    1    2  501    0  0.14884372767E+01 -0.25134102969E+01 -0.59950169330E+00  0.29819600316E+01  0.25500000000E-02 0.  1.
         -2    1    1    2    0  501 -0.14884372767E+01  0.25134102969E+01  0.93658492959E+00  0.30675519034E+01  0.25500000000E-02 0. -1.
<mgrwt>
<rscale>  0 0.29210757E+01</rscale>
<asrwt>0</asrwt>
<pdfrwt beam="1">0</pdfrwt>
<pdfrwt beam="2">0</pdfrwt>
<totfact> 0.18370371E+12</totfact>
</mgrwt>
</event>
<event>
 4    1  0.3130345E+006  0.2034681E+01  0.7546771E-02  0.2957701E+00
         22   -1    0    0    0    0  0.00000000000E+00  0.00000000000E+00  0.32047071651E+01  0.32047071651E+01  0.00000000000E+00 0.  1.
         22   -1    0    0    0    0 -0.00000000000E+00 -0.00000000000E+00 -0.12919166231E+01  0.12919166231E+01  0.00000000000E+00 0. -1.
          2    1    1    2  501    0  0.87944381888E+00  0.18348022976E+01  0.93767434660E+00  0.22403483177E+01  0.25500000000E-02 0. -1.
         -2    1    1    2    0  501 -0.87944381888E+00 -0.18348022976E+01  0.97511619544E+00  0.22562754705E+01  0.25500000000E-02 0.  1.
<mgrwt>
<rscale>  0 0.20346812E+01</rscale>
<asrwt>0</asrwt>
<pdfrwt beam="1">0</pdfrwt>
<pdfrwt beam="2">0</pdfrwt>
<totfact> 0.45792823E+12</totfact>
</mgrwt>
</event>
<event>
 4    1  0.3130345E+006  0.2501358E+01  0.7546771E-02  0.2707932E+00
         22   -1    0    0    0    0  0.00000000000E+00  0.00000000000E+00  0.12161914924E+01  0.12161914924E+01  0.00000000000E+00 0.  1.
         22   -1    0    0    0    0 -0.00000000000E+00 -0.00000000000E+00 -0.52013444795E+01  0.52013444795E+01  0.00000000000E+00 0. -1.
          2    1    1    2  501    0 -0.23890923730E+01 -0.74096226949E+00 -0.16573638985E+01  0.30006081127E+01  0.25500000000E-02 0. -1.
         -2    1    1    2    0  501  0.23890923730E+01  0.74096226949E+00 -0.23277890887E+01  0.34169278593E+01  0.25500000000E-02 0.  1.
<mgrwt>
<rscale>  0 0.25013584E+01</rscale>
<asrwt>0</asrwt>
<pdfrwt beam="1">0</pdfrwt>
<pdfrwt beam="2">0</pdfrwt>
<totfact> 0.27749336E+12</totfact>
</mgrwt>
</event>
<event>
 4    1  0.3130345E+006  0.2996275E+01  0.7546771E-02  0.2523358E+00
         22   -1    0    0    0    0  0.00000000000E+00  0.00000000000E+00  0.12608273718E+01  0.12608273718E+01  0.00000000000E+00 0. -1.
         22   -1    0    0    0    0 -0.00000000000E+00 -0.00000000000E+00 -0.80791615586E+01  0.80791615586E+01  0.00000000000E+00 0.  1.
          2    1    1    2  501    0  0.29954891991E+01  0.68565818038E-01 -0.50178716534E+01  0.58443732979E+01  0.25500000000E-02 0. -1.
         -2    1    1    2    0  501 -0.29954891991E+01 -0.68565818038E-01 -0.18004625334E+01  0.34956156325E+01  0.25500000000E-02 0.  1.
<mgrwt>
<rscale>  0 0.29962749E+01</rscale>
<asrwt>0</asrwt>
<pdfrwt beam="1">0</pdfrwt>
<pdfrwt beam="2">0</pdfrwt>
<totfact> 0.15742993E+12</totfact>
</mgrwt>
</event>
<event>
 4    1  0.3130345E+006  0.3374972E+01  0.7546771E-02  0.2415503E+00
         22   -1    0    0    0    0  0.00000000000E+00  0.00000000000E+00  0.72771740058E+00  0.72771740058E+00  0.00000000000E+00 0.  1.
         22   -1    0    0    0    0 -0.00000000000E+00 -0.00000000000E+00 -0.31918442586E+02  0.31918442586E+02  0.00000000000E+00 0. -1.
          2    1    1    2  501    0 -0.15935953117E+01 -0.29750429382E+01 -0.27247990576E+02  0.27456209196E+02  0.25500000000E-02 0. -1.
         -2    1    1    2    0  501  0.15935953117E+01  0.29750429382E+01 -0.39427346093E+01  0.51899507901E+01  0.25500000000E-02 0.  1.
<mgrwt>
<rscale>  0 0.33749716E+01</rscale>
<asrwt>0</asrwt>
<pdfrwt beam="1">0</pdfrwt>
<pdfrwt beam="2">0</pdfrwt>
<totfact> 0.53924899E+11</totfact>
</mgrwt>
</event>
<event>
 4    1  0.3130345E+006  0.3038370E+01  0.7546771E-02  0.2510192E+00
         22   -1    0    0    0    0  0.00000000000E+00  0.00000000000E+00  0.96362227899E+01  0.96362227899E+01  0.00000000000E+00 0.  1.
         22   -1    0    0    0    0 -0.00000000000E+00 -0.00000000000E+00 -0.10567396075E+01  0.10567396075E+01  0.00000000000E+00 0. -1.
          2    1    1    2  501    0  0.25455922722E+01  0.16588079774E+01  0.59238716298E+01  0.66576231127E+01  0.25500000000E-02 0.  1.
         -2    1    1    2    0  501 -0.25455922722E+01 -0.16588079774E+01  0.26556115526E+01  0.40353392847E+01  0.25500000000E-02 0. -1.
<mgrwt>
<rscale>  0 0.30383697E+01</rscale>
<asrwt>0</asrwt>
<pdfrwt beam="1">0</pdfrwt>
<pdfrwt beam="2">0</pdfrwt>
<totfact> 0.15581865E+12</totfact>
</mgrwt>
</event>
<event>
 4    1  0.3130345E+006  0.5462578E+01  0.7546771E-02  0.2071526E+00
         22   -1    0    0    0    0  0.00000000000E+00  0.00000000000E+00  0.13053186094E+02  0.13053186094E+02  0.00000000000E+00 0. -1.
         22   -1    0    0    0    0 -0.00000000000E+00 -0.00000000000E+00 -0.22917843577E+01  0.22917843577E+01  0.00000000000E+00 0.  1.
          2    1    1    2  501    0  0.50633287747E+01  0.20499894892E+01  0.49956984732E+01  0.74024836997E+01  0.25500000000E-02 0. -1.
         -2    1    1    2    0  501 -0.50633287747E+01 -0.20499894892E+01  0.57657032634E+01  0.79424867523E+01  0.25500000000E-02 0.  1.
<mgrwt>
<rscale>  0 0.54625783E+01</rscale>
<asrwt>0</asrwt>
<pdfrwt beam="1">0</pdfrwt>
<pdfrwt beam="2">0</pdfrwt>
<totfact> 0.44170028E+11</totfact>
</mgrwt>
</event>
<event>
 4    1  0.3130345E+006  0.2894534E+01  0.7546771E-02  0.2556596E+00
         22   -1    0    0    0    0  0.00000000000E+00  0.00000000000E+00  0.22289772868E+01  0.22289772868E+01  0.00000000000E+00 0. -1.
         22   -1    0    0    0    0 -0.00000000000E+00 -0.00000000000E+00 -0.40688059216E+01  0.40688059216E+01  0.00000000000E+00 0.  1.
          2    1    1    2  501    0 -0.11138972025E+01  0.26716202356E+01 -0.17890629024E+01  0.34028038780E+01  0.25500000000E-02 0. -1.
         -2    1    1    2    0  501  0.11138972025E+01 -0.26716202356E+01 -0.50765732398E-01  0.28949793303E+01  0.25500000000E-02 0.  1.
<mgrwt>
<rscale>  0 0.28945342E+01</rscale>
<asrwt>0</asrwt>
<pdfrwt beam="1">0</pdfrwt>
<pdfrwt beam="2">0</pdfrwt>
<totfact> 0.18446413E+12</totfact>
</mgrwt>
</event>
<event>
 4    1  0.3130345E+006  0.2723351E+01  0.7546771E-02  0.2617564E+00
         22   -1    0    0    0    0  0.00000000000E+00  0.00000000000E+00  0.57243534009E+01  0.57243534009E+01  0.00000000000E+00 0. -1.
         22   -1    0    0    0    0 -0.00000000000E+00 -0.00000000000E+00 -0.13826356915E+01  0.13826356915E+01  0.00000000000E+00 0.  1.
          2    1    1    2  501    0 -0.23717756526E+01 -0.13383990867E+01  0.12794477116E+01  0.30089241949E+01  0.25500000000E-02 0.  1.
         -2    1    1    2    0  501  0.23717756526E+01  0.13383990867E+01  0.30622699979E+01  0.40980648975E+01  0.25500000000E-02 0. -1.
<mgrwt>
<rscale>  0 0.27233506E+01</rscale>
<asrwt>0</asrwt>
<pdfrwt beam="1">0</pdfrwt>
<pdfrwt beam="2">0</pdfrwt>
<totfact> 0.21377094E+12</totfact>
</mgrwt>
</event>
<event>
 4    1  0.3130345E+006  0.3647672E+01  0.7546771E-02  0.2350167E+00
         22   -1    0    0    0    0  0.00000000000E+00  0.00000000000E+00  0.21417756491E+02  0.21417756491E+02  0.00000000000E+00 0.  1.
         22   -1    0    0    0    0 -0.00000000000E+00 -0.00000000000E+00 -0.68493018924E+00  0.68493018924E+00  0.00000000000E+00 0. -1.
          2    1    1    2  501    0  0.97699835941E+00 -0.35143961466E+01  0.69963591678E+01  0.78901555230E+01  0.25500000000E-02 0. -1.
         -2    1    1    2    0  501 -0.97699835941E+00  0.35143961466E+01  0.13736467134E+02  0.14212531157E+02  0.25500000000E-02 0.  1.
<mgrwt>
<rscale>  0 0.36476722E+01</rscale>
<asrwt>0</asrwt>
<pdfrwt beam="1">0</pdfrwt>
<pdfrwt beam="2">0</pdfrwt>
<totfact> 0.95674663E+11</totfact>
</mgrwt>
</event>
<event>
 4    1  0.3130345E+006  0.2606756E+01  0.7546771E-02  0.2663257E+00
         22   -1    0    0    0    0  0.00000000000E+00  0.00000000000E+00  0.19235549458E+02  0.19235549458E+02  0.00000000000E+00 0.  1.
         22   -1    0    0    0    0 -0.00000000000E+00 -0.00000000000E+00 -0.42190509815E+00  0.42190509815E+00  0.00000000000E+00 0. -1.
          2    1    1    2  501    0  0.25988492736E+01 -0.20285941784E+00  0.54423039263E+01  0.60343887859E+01  0.25500000000E-02 0. -1.
         -2    1    1    2    0  501 -0.25988492736E+01  0.20285941784E+00  0.13371340434E+02  0.13623065771E+02  0.25500000000E-02 0.  1.
<mgrwt>
<rscale>  0 0.26067558E+01</rscale>
<asrwt>0</asrwt>
<pdfrwt beam="1">0</pdfrwt>
<pdfrwt beam="2">0</pdfrwt>
<totfact> 0.18919942E+12</totfact>
</mgrwt>
</event>
<event>
 4    1  0.3130345E+006  0.3410683E+01  0.7546771E-02  0.2406429E+00
         22   -1    0    0    0    0  0.00000000000E+00  0.00000000000E+00  0.26985746667E+01  0.26985746667E+01  0.00000000000E+00 0. -1.
         22   -1    0    0    0    0 -0.00000000000E+00 -0.00000000000E+00 -0.54935664215E+01  0.54935664215E+01  0.00000000000E+00 0.  1.
          2    1    1    2  501    0  0.32450018999E+01 -0.10501031130E+01 -0.32981675347E+01  0.47445410176E+01  0.25500000000E-02 0.  1.
         -2    1    1    2    0  501 -0.32450018999E+01  0.10501031130E+01  0.50317577988E+00  0.34476000705E+01  0.25500000000E-02 0. -1.
<mgrwt>
<rscale>  0 0.34106833E+01</rscale>
<asrwt>0</asrwt>
<pdfrwt beam="1">0</pdfrwt>
<pdfrwt beam="2">0</pdfrwt>
<totfact> 0.10357107E+12</totfact>
</mgrwt>
</event>
<event>
 4    1  0.3130345E+006  0.4193325E+01  0.7546771E-02  0.2241796E+00
         22   -1    0    0    0    0  0.00000000000E+00  0.00000000000E+00  0.36639399997E+01  0.36639399997E+01  0.00000000000E+00 0.  1.
         22   -1    0    0    0    0 -0.00000000000E+00 -0.00000000000E+00 -0.85069378193E+01  0.85069378193E+01  0.00000000000E+00 0. -1.
          2    1    1    2  501    0  0.97323236232E+00  0.40788213370E+01 -0.64390364162E+01  0.76840849294E+01  0.25500000000E-02 0. -1.
         -2    1    1    2    0  501 -0.97323236232E+00 -0.40788213370E+01  0.15960385966E+01  0.44867928897E+01  0.25500000000E-02 0.  1.
<mgrwt>
<rscale>  0 0.41933246E+01</rscale>
<asrwt>0</asrwt>
<pdfrwt beam="1">0</pdfrwt>
<pdfrwt beam="2">0</pdfrwt>
<totfact> 0.42942216E+11</totfact>
</mgrwt>
</event>
<event>
 4    1  0.3130345E+006  0.2416344E+01  0.7546771E-02  0.2746601E+00
         22   -1    0    0    0    0  0.00000000000E+00  0.00000000000E+00  0.24689500908E+01  0.24689500908E+01  0.00000000000E+00 0. -1.
         22   -1    0    0    0    0 -0.00000000000E+00 -0.00000000000E+00 -0.24364575961E+01  0.24364575961E+01  0.00000000000E+00 0.  1.
          2    1    1    2  501    0 -0.22061294201E+01 -0.98575131958E+00 -0.40420681137E+00  0.24499188418E+01  0.25500000000E-02 0.  1.
         -2    1    1    2    0  501  0.22061294201E+01  0.98575131958E+00  0.43669930609E+00  0.24554888452E+01  0.25500000000E-02 0. -1.
<mgrwt>
<rscale>  0 0.24163442E+01</rscale>
<asrwt>0</asrwt>
<pdfrwt beam="1">0</pdfrwt>
<pdfrwt beam="2">0</pdfrwt>
<totfact> 0.29841345E+12</totfact>
</mgrwt>
</event>
<event>
 4    1  0.3130345E+006  0.2648212E+01  0.7546771E-02  0.2646587E+00
         22   -1    0    0    0    0  0.00000000000E+00  0.00000000000E+00  0.12098616272E+01  0.12098616272E+01  0.00000000000E+00 0.  1.
         22   -1    0    0    0    0 -0.00000000000E+00 -0.00000000000E+00 -0.63077974436E+01  0.63077974436E+01  0.00000000000E+00 0. -1.
          2    1    1    2  501    0 -0.21236107952E+01 -0.15821810657E+01 -0.36190777185E+01  0.44845010614E+01  0.25500000000E-02 0. -1.
         -2    1    1    2    0  501  0.21236107952E+01  0.15821810657E+01 -0.14788580979E+01  0.30331580095E+01  0.25500000000E-02 0.  1.
<mgrwt>
<rscale>  0 0.26482119E+01</rscale>
<asrwt>0</asrwt>
<pdfrwt beam="1">0</pdfrwt>
<pdfrwt beam="2">0</pdfrwt>
<totfact> 0.22196380E+12</totfact>
</mgrwt>
</event>
<event>
 4    1  0.3130345E+006  0.3115183E+01  0.7546771E-02  0.2486988E+00
         22   -1    0    0    0    0  0.00000000000E+00  0.00000000000E+00  0.12901599195E+02  0.12901599195E+02  0.00000000000E+00 0.  1.
         22   -1    0    0    0    0 -0.00000000000E+00 -0.00000000000E+00 -0.14722846798E+01  0.14722846798E+01  0.00000000000E+00 0. -1.
          2    1    1    2  501    0 -0.24802113566E+01 -0.18849171068E+01  0.68839594904E+00  0.31903379692E+01  0.25500000000E-02 0. -1.
         -2    1    1    2    0  501  0.24802113566E+01  0.18849171068E+01  0.10740918566E+02  0.11183545905E+02  0.25500000000E-02 0.  1.
<mgrwt>
<rscale>  0 0.31151834E+01</rscale>
<asrwt>0</asrwt>
<pdfrwt beam="1">0</pdfrwt>
<pdfrwt beam="2">0</pdfrwt>
<totfact> 0.74710692E+11</totfact>
</mgrwt>
</event>
<event>
 4    1  0.3130345E+006  0.3403937E+01  0.7546771E-02  0.2408130E+00
         22   -1    0    0    0    0  0.00000000000E+00  0.00000000000E+00  0.88631724971E+00  0.88631724971E+00  0.00000000000E+00 0. -1.
         22   -1    0    0    0    0 -0.00000000000E+00 -0.00000000000E+00 -0.19784004409E+02  0.19784004409E+02  0.00000000000E+00 0.  1.
          2    1    1    2  501    0 -0.33613250115E+01 -0.53691489556E+00 -0.15468271190E+02  0.15838377554E+02  0.25500000000E-02 0.  1.
         -2    1    1    2    0  501  0.33613250115E+01  0.53691489556E+00 -0.34294159697E+01  0.48319441050E+01  0.25500000000E-02 0. -1.
<mgrwt>
<rscale>  0 0.34039374E+01</rscale>
<asrwt>0</asrwt>
<pdfrwt beam="1">0</pdfrwt>
<pdfrwt beam="2">0</pdfrwt>
<totfact> 0.78801803E+11</totfact>
</mgrwt>
</event>
<event>
 4    1  0.3130345E+006  0.2928608E+01  0.7546771E-02  0.2545233E+00
         22   -1    0    0    0    0  0.00000000000E+00  0.00000000000E+00  0.11301226872E+01  0.11301226872E+01  0.00000000000E+00 0. -1.
         22   -1    0    0    0    0 -0.00000000000E+00 -0.00000000000E+00 -0.75928635586E+01  0.75928635586E+01  0.00000000000E+00 0.  1.
          2    1    1    2  501    0 -0.97518758126E+00  0.27614752638E+01 -0.31357499917E+01  0.42906492474E+01  0.25500000000E-02 0.  1.
         -2    1    1    2    0  501  0.97518758126E+00 -0.27614752638E+01 -0.33269908797E+01  0.44323369984E+01  0.25500000000E-02 0. -1.
<mgrwt>
<rscale>  0 0.29286077E+01</rscale>
<asrwt>0</asrwt>
<pdfrwt beam="1">0</pdfrwt>
<pdfrwt beam="2">0</pdfrwt>
<totfact> 0.19226761E+12</totfact>
</mgrwt>
</event>
<event>
 4    1  0.3130345E+006  0.3020892E+01  0.7546771E-02  0.2515619E+00
         22   -1    0    0    0    0  0.00000000000E+00  0.00000000000E+00  0.13447843635E+01  0.13447843635E+01  0.00000000000E+00 0.  1.
         22   -1    0    0    0    0 -0.00000000000E+00 -0.00000000000E+00 -0.74025088703E+01  0.74025088703E+01  0.00000000000E+00 0. -1.
          2    1    1    2  501    0 -0.26067180263E+01 -0.15266976676E+01 -0.42909855025E+01  0.52476992789E+01  0.25500000000E-02 0. -1.
         -2    1    1    2    0  501  0.26067180263E+01  0.15266976676E+01 -0.17667390044E+01  0.34995939548E+01  0.25500000000E-02 0.  1.
<mgrwt>
<rscale>  0 0.30208924E+01</rscale>
<asrwt>0</asrwt>
<pdfrwt beam="1">0</pdfrwt>
<pdfrwt beam="2">0</pdfrwt>
<totfact> 0.16238591E+12</totfact>
</mgrwt>
</event>
<event>
 4    1  0.3130345E+006  0.2055820E+01  0.7546771E-02  0.2944038E+00
         22   -1    0    0    0    0  0.00000000000E+00  0.00000000000E+00  0.41216475796E+00  0.41216475796E+00  0.00000000000E+00 0.  1.
         22   -1    0    0    0    0 -0.00000000000E+00 -0.00000000000E+00 -0.10480870492E+02  0.10480870492E+02  0.00000000000E+00 0. -1.
          2    1    1    2  501    0  0.20488289440E+01  0.16937422124E+00 -0.58354357129E+01  0.61869785946E+01  0.25500000000E-02 0. -1.
         -2    1    1    2    0  501 -0.20488289440E+01 -0.16937422124E+00 -0.42332700207E+01  0.47060566549E+01  0.25500000000E-02 0.  1.
<mgrwt>
<rscale>  0 0.20558196E+01</rscale>
<asrwt>0</asrwt>
<pdfrwt beam="1">0</pdfrwt>
<pdfrwt beam="2">0</pdfrwt>
<totfact> 0.40941538E+12</totfact>
</mgrwt>
</event>
<event>
 4    1  0.3130345E+006  0.4710461E+01  0.7546771E-02  0.2159237E+00
         22   -1    0    0    0    0  0.00000000000E+00  0.00000000000E+00  0.16683683374E+02  0.16683683374E+02  0.00000000000E+00 0.  1.
         22   -1    0    0    0    0 -0.00000000000E+00 -0.00000000000E+00 -0.14162050043E+01  0.14162050043E+01  0.00000000000E+00 0. -1.
          2    1    1    2  501    0  0.46719500220E+01  0.60110128122E+00  0.54002812770E+01  0.71659949854E+01  0.25500000000E-02 0. -1.
         -2    1    1    2    0  501 -0.46719500220E+01 -0.60110128122E+00  0.98671970931E+01  0.10933893393E+02  0.25500000000E-02 0.  1.
<mgrwt>
<rscale>  0 0.47104614E+01</rscale>
<asrwt>0</asrwt>
<pdfrwt beam="1">0</pdfrwt>
<pdfrwt beam="2">0</pdfrwt>
<totfact> 0.56951530E+11</totfact>
</mgrwt>
</event>
<event>
 4    1  0.3130345E+006  0.3460530E+01  0.7546771E-02  0.2394038E+00
         22   -1    0    0    0    0  0.00000000000E+00  0.00000000000E+00  0.90736189511E+01  0.90736189511E+01  0.00000000000E+00 0. -1.
         22   -1    0    0    0    0 -0.00000000000E+00 -0.00000000000E+00 -0.13205702274E+01  0.13205702274E+01  0.00000000000E+00 0.  1.
          2    1    1    2  501    0 -0.16489849682E+01 -0.30423855549E+01  0.37501654562E+01  0.51028432018E+01  0.25500000000E-02 0. -1.
         -2    1    1    2    0  501  0.16489849682E+01  0.30423855549E+01  0.40028832674E+01  0.52913459767E+01  0.25500000000E-02 0.  1.
<mgrwt>
<rscale>  0 0.34605300E+01</rscale>
<asrwt>0</asrwt>
<pdfrwt beam="1">0</pdfrwt>
<pdfrwt beam="2">0</pdfrwt>
<totfact> 0.12981134E+12</totfact>
</mgrwt>
</event>
<event>
 4    1  0.3130345E+006  0.2460384E+01  0.7546771E-02  0.2726257E+00
         22   -1    0    0    0    0  0.00000000000E+00  0.00000000000E+00  0.11262399532E+00  0.11262399532E+00  0.00000000000E+00 0. -1.
         22   -1    0    0    0    0 -0.00000000000E+00 -0.00000000000E+00 -0.54387518984E+02  0.54387518984E+02  0.00000000000E+00 0.  1.
          2    1    1    2  501    0  0.24537520680E+01 -0.18051029491E+00 -0.30088765137E+02  0.30189191396E+02  0.25500000000E-02 0. -1.
         -2    1    1    2    0  501 -0.24537520680E+01  0.18051029491E+00 -0.24186129852E+02  0.24310951583E+02  0.25500000000E-02 0.  1.
<mgrwt>
<rscale>  0 0.24603841E+01</rscale>
<asrwt>0</asrwt>
<pdfrwt beam="1">0</pdfrwt>
<pdfrwt beam="2">0</pdfrwt>
<totfact> 0.21818508E+12</totfact>
</mgrwt>
</event>
<event>
 4    1  0.3130345E+006  0.2289563E+01  0.7546771E-02  0.2809264E+00
         22   -1    0    0    0    0  0.00000000000E+00  0.00000000000E+00  0.15782186202E+01  0.15782186202E+01  0.00000000000E+00 0.  1.
         22   -1    0    0    0    0 -0.00000000000E+00 -0.00000000000E+00 -0.47361959991E+01  0.47361959991E+01  0.00000000000E+00 0. -1.
          2    1    1    2  501    0  0.23459199114E+00 -0.22775116276E+01 -0.33044902557E+01  0.40201685249E+01  0.25500000000E-02 0. -1.
         -2    1    1    2    0  501 -0.23459199114E+00  0.22775116276E+01  0.14651287677E+00  0.22942460944E+01  0.25500000000E-02 0.  1.
<mgrwt>
<rscale>  0 0.22895631E+01</rscale>
<asrwt>0</asrwt>
<pdfrwt beam="1">0</pdfrwt>
<pdfrwt beam="2">0</pdfrwt>
<totfact> 0.22982277E+12</totfact>
</mgrwt>
</event>
<event>
 4    1  0.3130345E+006  0.2381143E+01  0.7546771E-02  0.2763368E+00
         22   -1    0    0    0    0  0.00000000000E+00  0.00000000000E+00  0.11396413773E+02  0.11396413773E+02  0.00000000000E+00 0. -1.
         22   -1    0    0    0    0 -0.00000000000E+00 -0.00000000000E+00 -0.61362381014E+00  0.61362381014E+00  0.00000000000E+00 0.  1.
          2    1    1    2  501    0 -0.16477584773E+00  0.23754334595E+01  0.27792140384E+01  0.36597639779E+01  0.25500000000E-02 0.  1.
         -2    1    1    2    0  501  0.16477584773E+00 -0.23754334595E+01  0.80035759242E+01  0.83502736050E+01  0.25500000000E-02 0. -1.
<mgrwt>
<rscale>  0 0.23811429E+01</rscale>
<asrwt>0</asrwt>
<pdfrwt beam="1">0</pdfrwt>
<pdfrwt beam="2">0</pdfrwt>
<totfact> 0.23594723E+12</totfact>
</mgrwt>
</event>
<event>
 4    1  0.3130345E+006  0.3481554E+01  0.7546771E-02  0.2388905E+00
         22   -1    0    0    0    0  0.00000000000E+00  0.00000000000E+00  0.66458449765E+00  0.66458449765E+00  0.00000000000E+00 0. -1.
         22   -1    0    0    0    0 -0.00000000000E+00 -0.00000000000E+00 -0.19183905924E+02  0.19183905924E+02  0.00000000000E+00 0.  1.
          2    1    1    2  501    0  0.28296585471E+01  0.20283602493E+01 -0.70568826359E+01  0.78689778138E+01  0.25500000000E-02 0. -1.
         -2    1    1    2    0  501 -0.28296585471E+01 -0.20283602493E+01 -0.11462438790E+02  0.11979512607E+02  0.25500000000E-02 0.  1.
<mgrwt>
<rscale>  0 0.34815541E+01</rscale>
<asrwt>0</asrwt>
<pdfrwt beam="1">0</pdfrwt>
<pdfrwt beam="2">0</pdfrwt>
<totfact> 0.11359124E+12</totfact>
</mgrwt>
</event>
<event>
 4    1  0.3130345E+006  0.3891516E+01  0.7546771E-02  0.2298524E+00
         22   -1    0    0    0    0  0.00000000000E+00  0.00000000000E+00  0.27660905938E+02  0.27660905938E+02  0.00000000000E+00 0.  1.
         22   -1    0    0    0    0 -0.00000000000E+00 -0.00000000000E+00 -0.74867316727E+00  0.74867316727E+00  0.00000000000E+00 0. -1.
          2    1    1    2  501    0 -0.21198413173E+01 -0.32634589063E+01  0.60924994471E+01  0.72292770911E+01  0.25500000000E-02 0. -1.
         -2    1    1    2    0  501  0.21198413173E+01  0.32634589063E+01  0.20819733323E+02  0.21180302014E+02  0.25500000000E-02 0.  1.
<mgrwt>
<rscale>  0 0.38915161E+01</rscale>
<asrwt>0</asrwt>
<pdfrwt beam="1">0</pdfrwt>
<pdfrwt beam="2">0</pdfrwt>
<totfact> 0.62658069E+11</totfact>
</mgrwt>
</event>
<event>
 4    1  0.3130345E+006  0.5127740E+01  0.7546771E-02  0.2108058E+00
         22   -1    0    0    0    0  0.00000000000E+00  0.00000000000E+00  0.26932762890E+02  0.26932762890E+02  0.00000000000E+00 0. -1.
         22   -1    0    0    0    0 -0.00000000000E+00 -0.00000000000E+00 -0.10063503276E+01  0.10063503276E+01  0.00000000000E+00 0.  1.
          2    1    1    2  501    0 -0.49006500536E+01  0.15090849136E+01  0.10548126205E+02  0.11728456044E+02  0.25500000000E-02 0. -1.
         -2    1    1    2    0  501  0.49006500536E+01 -0.15090849136E+01  0.15378286357E+02  0.16210657174E+02  0.25500000000E-02 0.  1.
<mgrwt>
<rscale>  0 0.51277397E+01</rscale>
<asrwt>0</asrwt>
<pdfrwt beam="1">0</pdfrwt>
<pdfrwt beam="2">0</pdfrwt>
<totfact> 0.46272867E+11</totfact>
</mgrwt>
</event>
<event>
 4    1  0.3130345E+006  0.6123606E+01  0.7546771E-02  0.2008777E+00
         22   -1    0    0    0    0  0.00000000000E+00  0.00000000000E+00  0.11180305678E+03  0.11180305678E+03  0.00000000000E+00 0. -1.
         22   -1    0    0    0    0 -0.00000000000E+00 -0.00000000000E+00 -0.98151947187E+00  0.98151947187E+00  0.00000000000E+00 0.  1.
          2    1    1    2  501    0  0.12422438028E+01  0.59962798100E+01  0.96569585811E+01  0.11434832608E+02  0.25500000000E-02 0.  1.
         -2    1    1    2    0  501 -0.12422438028E+01 -0.59962798100E+01  0.10116457872E+03  0.10134974364E+03  0.25500000000E-02 0. -1.
<mgrwt>
<rscale>  0 0.61236058E+01</rscale>
<asrwt>0</asrwt>
<pdfrwt beam="1">0</pdfrwt>
<pdfrwt beam="2">0</pdfrwt>
<totfact> 0.71249318E+10</totfact>
</mgrwt>
</event>
<event>
 4    1  0.3130345E+006  0.2348323E+01  0.7546771E-02  0.2779427E+00
         22   -1    0    0    0    0  0.00000000000E+00  0.00000000000E+00  0.16566115947E+02  0.16566115947E+02  0.00000000000E+00 0.  1.
         22   -1    0    0    0    0 -0.00000000000E+00 -0.00000000000E+00 -0.35305388754E+00  0.35305388754E+00  0.00000000000E+00 0. -1.
          2    1    1    2  501    0 -0.77259098338E+00  0.22175926502E+01  0.60846123355E+01  0.65220493532E+01  0.25500000000E-02 0. -1.
         -2    1    1    2    0  501  0.77259098338E+00 -0.22175926502E+01  0.10128449724E+02  0.10397120481E+02  0.25500000000E-02 0.  1.
<mgrwt>
<rscale>  0 0.23483229E+01</rscale>
<asrwt>0</asrwt>
<pdfrwt beam="1">0</pdfrwt>
<pdfrwt beam="2">0</pdfrwt>
<totfact> 0.27824865E+12</totfact>
</mgrwt>
</event>
<event>
 4    1  0.3130345E+006  0.2010059E+01  0.7546771E-02  0.2973970E+00
         22   -1    0    0    0    0  0.00000000000E+00  0.00000000000E+00  0.17241146709E+00  0.17241146709E+00  0.00000000000E+00 0.  1.
         22   -1    0    0    0    0 -0.00000000000E+00 -0.00000000000E+00 -0.24556090905E+02  0.24556090905E+02  0.00000000000E+00 0. -1.
          2    1    1    2  501    0 -0.67744416811E+00 -0.18924586807E+01 -0.14834551894E+02  0.14970112454E+02  0.25500000000E-02 0. -1.
         -2    1    1    2    0  501  0.67744416811E+00  0.18924586807E+01 -0.95491275432E+01  0.97583899183E+01  0.25500000000E-02 0.  1.
<mgrwt>
<rscale>  0 0.20100589E+01</rscale>
<asrwt>0</asrwt>
<pdfrwt beam="1">0</pdfrwt>
<pdfrwt beam="2">0</pdfrwt>
<totfact> 0.37955745E+12</totfact>
</mgrwt>
</event>
<event>
 4    1  0.3130345E+006  0.3515196E+01  0.7546771E-02  0.2380803E+00
         22   -1    0    0    0    0  0.00000000000E+00  0.00000000000E+00  0.75242760278E+01  0.75242760278E+01  0.00000000000E+00 0.  1.
         22   -1    0    0    0    0 -0.00000000000E+00 -0.00000000000E+00 -0.18688700785E+01  0.18688700785E+01  0.00000000000E+00 0. -1.
          2    1    1    2  501    0  0.10087615847E+01  0.33673424645E+01  0.11921725657E+01  0.37118562926E+01  0.25500000000E-02 0. -1.
         -2    1    1    2    0  501 -0.10087615847E+01 -0.33673424645E+01  0.44632333837E+01  0.56812898137E+01  0.25500000000E-02 0.  1.
<mgrwt>
<rscale>  0 0.35151958E+01</rscale>
<asrwt>0</asrwt>
<pdfrwt beam="1">0</pdfrwt>
<pdfrwt beam="2">0</pdfrwt>
<totfact> 0.10899756E+12</totfact>
</mgrwt>
</event>
<event>
 4    1  0.3130345E+006  0.3645030E+01  0.7546771E-02  0.2350759E+00
         22   -1    0    0    0    0  0.00000000000E+00  0.00000000000E+00  0.41841803026E+01  0.41841803026E+01  0.00000000000E+00 0. -1.
         22   -1    0    0    0    0 -0.00000000000E+00 -0.00000000000E+00 -0.17413738553E+02  0.17413738553E+02  0.00000000000E+00 0.  1.
          2    1    1    2  501    0 -0.26312226061E+01  0.25224795586E+01 -0.16379645421E+02  0.16780316628E+02  0.25500000000E-02 0.  1.
         -2    1    1    2    0  501  0.26312226061E+01 -0.25224795586E+01  0.31500871711E+01  0.48176022267E+01  0.25500000000E-02 0. -1.
<mgrwt>
<rscale>  0 0.36450298E+01</rscale>
<asrwt>0</asrwt>
<pdfrwt beam="1">0</pdfrwt>
<pdfrwt beam="2">0</pdfrwt>
<totfact> 0.15323534E+11</totfact>
</mgrwt>
</event>
<event>
 4    1  0.3130345E+006  0.3411673E+01  0.7546771E-02  0.2406180E+00
         22   -1    0    0    0    0  0.00000000000E+00  0.00000000000E+00  0.22324829054E+02  0.22324829054E+02  0.00000000000E+00 0.  1.
         22   -1    0    0    0    0 -0.00000000000E+00 -0.00000000000E+00 -0.53494729722E+00  0.53494729722E+00  0.00000000000E+00 0. -1.
          2    1    1    2  501    0  0.32862680090E+01  0.91648786541E+00  0.12715816927E+02  0.13165542680E+02  0.25500000000E-02 0. -1.
         -2    1    1    2    0  501 -0.32862680090E+01 -0.91648786541E+00  0.90740648294E+01  0.96942336709E+01  0.25500000000E-02 0.  1.
<mgrwt>
<rscale>  0 0.34116732E+01</rscale>
<asrwt>0</asrwt>
<pdfrwt beam="1">0</pdfrwt>
<pdfrwt beam="2">0</pdfrwt>
<totfact> 0.12016912E+12</totfact>
</mgrwt>
</event>
<event>
 4    1  0.3130345E+006  0.2773263E+01  0.7546771E-02  0.2599082E+00
         22   -1    0    0    0    0  0.00000000000E+00  0.00000000000E+00  0.25013986638E+02  0.25013986638E+02  0.00000000000E+00 0.  1.
         22   -1    0    0    0    0 -0.00000000000E+00 -0.00000000000E+00 -0.33804188715E+00  0.33804188715E+00  0.00000000000E+00 0. -1.
          2    1    1    2  501    0 -0.20948400983E+01  0.18173128805E+01  0.85257658252E+01  0.89654710167E+01  0.25500000000E-02 0. -1.
         -2    1    1    2    0  501  0.20948400983E+01 -0.18173128805E+01  0.16150178925E+02  0.16386557508E+02  0.25500000000E-02 0.  1.
<mgrwt>
<rscale>  0 0.27732630E+01</rscale>
<asrwt>0</asrwt>
<pdfrwt beam="1">0</pdfrwt>
<pdfrwt beam="2">0</pdfrwt>
<totfact> 0.17468322E+12</totfact>
</mgrwt>
</event>
<event>
 4    1  0.3130345E+006  0.3242033E+01  0.7546771E-02  0.2450818E+00
         22   -1    0    0    0    0  0.00000000000E+00  0.00000000000E+00  0.45849195892E+01  0.45849195892E+01  0.00000000000E+00 0. -1.
         22   -1    0    0    0    0 -0.00000000000E+00 -0.00000000000E+00 -0.70290134906E+01  0.70290134906E+01  0.00000000000E+00 0.  1.
          2    1    1    2  501    0 -0.32408013843E+01 -0.89330858234E-01 -0.59889136203E+01  0.68101296954E+01  0.25500000000E-02 0.  1.
         -2    1    1    2    0  501  0.32408013843E+01  0.89330858234E-01  0.35448197188E+01  0.48038033844E+01  0.25500000000E-02 0. -1.
<mgrwt>
<rscale>  0 0.32420333E+01</rscale>
<asrwt>0</asrwt>
<pdfrwt beam="1">0</pdfrwt>
<pdfrwt beam="2">0</pdfrwt>
<totfact> 0.41464026E+11</totfact>
</mgrwt>
</event>
<event>
 4    1  0.3130345E+006  0.2135943E+01  0.7546771E-02  0.2894641E+00
         22   -1    0    0    0    0  0.00000000000E+00  0.00000000000E+00  0.11270848197E+01  0.11270848197E+01  0.00000000000E+00 0. -1.
         22   -1    0    0    0    0 -0.00000000000E+00 -0.00000000000E+00 -0.47468290326E+01  0.47468290326E+01  0.00000000000E+00 0.  1.
          2    1    1    2  501    0  0.88889340758E+00  0.19421934745E+01 -0.29368943500E+01  0.36314737928E+01  0.25500000000E-02 0.  1.
         -2    1    1    2    0  501 -0.88889340758E+00 -0.19421934745E+01 -0.68284986290E+00  0.22424400594E+01  0.25500000000E-02 0. -1.
<mgrwt>
<rscale>  0 0.21359432E+01</rscale>
<asrwt>0</asrwt>
<pdfrwt beam="1">0</pdfrwt>
<pdfrwt beam="2">0</pdfrwt>
<totfact> 0.33735306E+12</totfact>
</mgrwt>
</event>
<event>
 4    1  0.3130345E+006  0.2262637E+01  0.7546771E-02  0.2823427E+00
         22   -1    0    0    0    0  0.00000000000E+00  0.00000000000E+00  0.63642983478E+01  0.63642983478E+01  0.00000000000E+00 0.  1.
         22   -1    0    0    0    0 -0.00000000000E+00 -0.00000000000E+00 -0.91696444599E+00  0.91696444599E+00  0.00000000000E+00 0. -1.
          2    1    1    2  501    0  0.83013244486E+00  0.21048518481E+01  0.14481830411E+01  0.26864031346E+01  0.25500000000E-02 0. -1.
         -2    1    1    2    0  501 -0.83013244486E+00 -0.21048518481E+01  0.39991508608E+01  0.45948596592E+01  0.25500000000E-02 0.  1.
<mgrwt>
<rscale>  0 0.22626373E+01</rscale>
<asrwt>0</asrwt>
<pdfrwt beam="1">0</pdfrwt>
<pdfrwt beam="2">0</pdfrwt>
<totfact> 0.30147415E+12</totfact>
</mgrwt>
</event>
<event>
 4    1  0.3130345E+006  0.4479781E+01  0.7546771E-02  0.2194003E+00
         22   -1    0    0    0    0  0.00000000000E+00  0.00000000000E+00  0.22995263277E+02  0.22995263277E+02  0.00000000000E+00 0. -1.
         22   -1    0    0    0    0 -0.00000000000E+00 -0.00000000000E+00 -0.19456585832E+01  0.19456585832E+01  0.00000000000E+00 0.  1.
          2    1    1    2  501    0 -0.20848365500E+01 -0.39650834979E+01  0.12642578198E+01  0.46547593840E+01  0.25500000000E-02 0.  1.
         -2    1    1    2    0  501  0.20848365500E+01  0.39650834979E+01  0.19785346874E+02  0.20286162476E+02  0.25500000000E-02 0. -1.
<mgrwt>
<rscale>  0 0.44797809E+01</rscale>
<asrwt>0</asrwt>
<pdfrwt beam="1">0</pdfrwt>
<pdfrwt beam="2">0</pdfrwt>
<totfact> 0.26476339E+11</totfact>
</mgrwt>
</event>
<event>
 4    1  0.3130345E+006  0.3808002E+01  0.7546771E-02  0.2315570E+00
         22   -1    0    0    0    0  0.00000000000E+00  0.00000000000E+00  0.17183737301E+02  0.17183737301E+02  0.00000000000E+00 0. -1.
         22   -1    0    0    0    0 -0.00000000000E+00 -0.00000000000E+00 -0.17048056886E+01  0.17048056886E+01  0.00000000000E+00 0.  1.
          2    1    1    2  501    0  0.36021117973E+01 -0.12351764213E+01  0.10280237796E+01  0.39443262525E+01  0.25500000000E-02 0.  1.
         -2    1    1    2    0  501 -0.36021117973E+01  0.12351764213E+01  0.14450907833E+02  0.14944216737E+02  0.25500000000E-02 0. -1.
<mgrwt>
<rscale>  0 0.38080017E+01</rscale>
<asrwt>0</asrwt>
<pdfrwt beam="1">0</pdfrwt>
<pdfrwt beam="2">0</pdfrwt>
<totfact> 0.44349560E+11</totfact>
</mgrwt>
</event>
<event>
 4    1  0.3130345E+006  0.2047737E+01  0.7546771E-02  0.2949230E+00
         22   -1    0    0    0    0  0.00000000000E+00  0.00000000000E+00  0.95077668850E+01  0.95077668850E+01  0.00000000000E+00 0. -1.
         22   -1    0    0    0    0 -0.00000000000E+00 -0.00000000000E+00 -0.44450463175E+01  0.44450463175E+01  0.00000000000E+00 0.  1.
          2    1    1    2  501    0 -0.95128830618E+00 -0.18133591597E+01 -0.40899122146E+01  0.45739052580E+01  0.25500000000E-02 0.  1.
         -2    1    1    2    0  501  0.95128830618E+00  0.18133591597E+01  0.91526327821E+01  0.93789079445E+01  0.25500000000E-02 0. -1.
<mgrwt>
<rscale>  0 0.20477371E+01</rscale>
<asrwt>0</asrwt>
<pdfrwt beam="1">0</pdfrwt>
<pdfrwt beam="2">0</pdfrwt>
<totfact> 0.29907077E+11</totfact>
</mgrwt>
</event>
<event>
 4    1  0.3130345E+006  0.2416863E+01  0.7546771E-02  0.2746357E+00
         22   -1    0    0    0    0  0.00000000000E+00  0.00000000000E+00  0.61722288389E+01  0.61722288389E+01  0.00000000000E+00 0.  1.
         22   -1    0    0    0    0 -0.00000000000E+00 -0.00000000000E+00 -0.96203362170E+00  0.96203362170E+00  0.00000000000E+00 0. -1.
          2    1    1    2  501    0 -0.31150083792E+00  0.23967037659E+01  0.30602261724E+01  0.38995143855E+01  0.25500000000E-02 0.  1.
         -2    1    1    2    0  501  0.31150083792E+00 -0.23967037659E+01  0.21499690448E+01  0.32347480751E+01  0.25500000000E-02 0. -1.
<mgrwt>
<rscale>  0 0.24168633E+01</rscale>
<asrwt>0</asrwt>
<pdfrwt beam="1">0</pdfrwt>
<pdfrwt beam="2">0</pdfrwt>
<totfact> 0.29604145E+12</totfact>
</mgrwt>
</event>
<event>
 4    1  0.3130345E+006  0.2380907E+01  0.7546771E-02  0.2763482E+00
         22   -1    0    0    0    0  0.00000000000E+00  0.00000000000E+00  0.13395402786E+02  0.13395402786E+02  0.00000000000E+00 0. -1.
         22   -1    0    0    0    0 -0.00000000000E+00 -0.00000000000E+00 -0.14523781761E+01  0.14523781761E+01  0.00000000000E+00 0.  1.
          2    1    1    2  501    0  0.12082448104E+01  0.20515494632E+01 -0.27791765409E+00  0.23970722657E+01  0.25500000000E-02 0.  1.
         -2    1    1    2    0  501 -0.12082448104E+01 -0.20515494632E+01  0.12220942264E+02  0.12450708696E+02  0.25500000000E-02 0. -1.
<mgrwt>
<rscale>  0 0.23809068E+01</rscale>
<asrwt>0</asrwt>
<pdfrwt beam="1">0</pdfrwt>
<pdfrwt beam="2">0</pdfrwt>
<totfact> 0.72477395E+11</totfact>
</mgrwt>
</event>
<event>
 4    1  0.3130345E+006  0.2208450E+01  0.7546771E-02  0.2852927E+00
         22   -1    0    0    0    0  0.00000000000E+00  0.00000000000E+00  0.15102125294E+00  0.15102125294E+00  0.00000000000E+00 0.  1.
         22   -1    0    0    0    0 -0.00000000000E+00 -0.00000000000E+00 -0.33599954005E+02  0.33599954005E+02  0.00000000000E+00 0. -1.
          2    1    1    2  501    0 -0.14519501149E+01  0.16640574870E+01 -0.20049995812E+02  0.20171256406E+02  0.25500000000E-02 0.  1.
         -2    1    1    2    0  501  0.14519501149E+01 -0.16640574870E+01 -0.13398936941E+02  0.13579718852E+02  0.25500000000E-02 0. -1.
<mgrwt>
<rscale>  0 0.22084504E+01</rscale>
<asrwt>0</asrwt>
<pdfrwt beam="1">0</pdfrwt>
<pdfrwt beam="2">0</pdfrwt>
<totfact> 0.29524834E+12</totfact>
</mgrwt>
</event>
<event>
 4    1  0.3130345E+006  0.2387729E+01  0.7546771E-02  0.2760196E+00
         22   -1    0    0    0    0  0.00000000000E+00  0.00000000000E+00  0.39467355123E+02  0.39467355123E+02  0.00000000000E+00 0. -1.
         22   -1    0    0    0    0 -0.00000000000E+00 -0.00000000000E+00 -0.20869377790E+00  0.20869377790E+00  0.00000000000E+00 0.  1.
          2    1    1    2  501    0 -0.23213774536E+01 -0.55897410455E+00  0.30635665735E+02  0.30728574111E+02  0.25500000000E-02 0. -1.
         -2    1    1    2    0  501  0.23213774536E+01  0.55897410455E+00  0.86229956098E+01  0.89474747902E+01  0.25500000000E-02 0.  1.
<mgrwt>
<rscale>  0 0.23877294E+01</rscale>
<asrwt>0</asrwt>
<pdfrwt beam="1">0</pdfrwt>
<pdfrwt beam="2">0</pdfrwt>
<totfact> 0.16732426E+12</totfact>
</mgrwt>
</event>
<event>
 4    1  0.3130345E+006  0.2028695E+01  0.7546771E-02  0.2961621E+00
         22   -1    0    0    0    0  0.00000000000E+00  0.00000000000E+00  0.26019932040E+01  0.26019932040E+01  0.00000000000E+00 0. -1.
         22   -1    0    0    0    0 -0.00000000000E+00 -0.00000000000E+00 -0.19661533642E+01  0.19661533642E+01  0.00000000000E+00 0.  1.
          2    1    1    2  501    0  0.74057492055E+00  0.18886886562E+01 -0.69206916408E+00  0.21434930098E+01  0.25500000000E-02 0.  1.
         -2    1    1    2    0  501 -0.74057492055E+00 -0.18886886562E+01  0.13279090038E+01  0.24246535583E+01  0.25500000000E-02 0. -1.
<mgrwt>
<rscale>  0 0.20286948E+01</rscale>
<asrwt>0</asrwt>
<pdfrwt beam="1">0</pdfrwt>
<pdfrwt beam="2">0</pdfrwt>
<totfact> 0.35998405E+12</totfact>
</mgrwt>
</event>
<event>
 4    1  0.3130345E+006  0.2977544E+01  0.7546771E-02  0.2529324E+00
         22   -1    0    0    0    0  0.00000000000E+00  0.00000000000E+00  0.44425885461E+00  0.44425885461E+00  0.00000000000E+00 0. -1.
         22   -1    0    0    0    0 -0.00000000000E+00 -0.00000000000E+00 -0.29637290035E+02  0.29637290035E+02  0.00000000000E+00 0.  1.
          2    1    1    2  501    0  0.29767997601E+01  0.66524484276E-01 -0.23192795433E+02  0.23383146256E+02  0.25500000000E-02 0.  1.
         -2    1    1    2    0  501 -0.29767997601E+01 -0.66524484276E-01 -0.60002357474E+01  0.66984026339E+01  0.25500000000E-02 0. -1.
<mgrwt>
<rscale>  0 0.29775441E+01</rscale>
<asrwt>0</asrwt>
<pdfrwt beam="1">0</pdfrwt>
<pdfrwt beam="2">0</pdfrwt>
<totfact> 0.10360760E+12</totfact>
</mgrwt>
</event>
<event>
 4    1  0.3130345E+006  0.2016883E+01  0.7546771E-02  0.2969422E+00
         22   -1    0    0    0    0  0.00000000000E+00  0.00000000000E+00  0.32229609476E+01  0.32229609476E+01  0.00000000000E+00 0. -1.
         22   -1    0    0    0    0 -0.00000000000E+00 -0.00000000000E+00 -0.67466262357E+01  0.67466262357E+01  0.00000000000E+00 0.  1.
          2    1    1    2  501    0  0.18377086161E+01  0.83104587455E+00 -0.62562351897E+01  0.65733017163E+01  0.25500000000E-02 0.  1.
         -2    1    1    2    0  501 -0.18377086161E+01 -0.83104587455E+00  0.27325699016E+01  0.33962854669E+01  0.25500000000E-02 0. -1.
<mgrwt>
<rscale>  0 0.20168829E+01</rscale>
<asrwt>0</asrwt>
<pdfrwt beam="1">0</pdfrwt>
<pdfrwt beam="2">0</pdfrwt>
<totfact> 0.65895859E+11</totfact>
</mgrwt>
</event>
<event>
 4    1  0.3130345E+006  0.2641953E+01  0.7546771E-02  0.2649073E+00
         22   -1    0    0    0    0  0.00000000000E+00  0.00000000000E+00  0.67682349905E+00  0.67682349905E+00  0.00000000000E+00 0. -1.
         22   -1    0    0    0    0 -0.00000000000E+00 -0.00000000000E+00 -0.10808794699E+02  0.10808794699E+02  0.00000000000E+00 0.  1.
          2    1    1    2  501    0 -0.65926869538E+00 -0.25583735041E+01 -0.62962340131E+01  0.68280655716E+01  0.25500000000E-02 0.  1.
         -2    1    1    2    0  501  0.65926869538E+00  0.25583735041E+01 -0.38357371868E+01  0.46575526264E+01  0.25500000000E-02 0. -1.
<mgrwt>
<rscale>  0 0.26419532E+01</rscale>
<asrwt>0</asrwt>
<pdfrwt beam="1">0</pdfrwt>
<pdfrwt beam="2">0</pdfrwt>
<totfact> 0.22517007E+12</totfact>
</mgrwt>
</event>
<event>
 4    1  0.3130345E+006  0.2415626E+01  0.7546771E-02  0.2746938E+00
         22   -1    0    0    0    0  0.00000000000E+00  0.00000000000E+00  0.42956123511E+01  0.42956123511E+01  0.00000000000E+00 0. -1.
         22   -1    0    0    0    0 -0.00000000000E+00 -0.00000000000E+00 -0.14987499855E+01  0.14987499855E+01  0.00000000000E+00 0.  1.
          2    1    1    2  501    0  0.22012024797E+01  0.99496350820E+00  0.51191980806E+00  0.24692738065E+01  0.25500000000E-02 0.  1.
         -2    1    1    2    0  501 -0.22012024797E+01 -0.99496350820E+00  0.22849425576E+01  0.33250885301E+01  0.25500000000E-02 0. -1.
<mgrwt>
<rscale>  0 0.24156265E+01</rscale>
<asrwt>0</asrwt>
<pdfrwt beam="1">0</pdfrwt>
<pdfrwt beam="2">0</pdfrwt>
<totfact> 0.27371122E+12</totfact>
</mgrwt>
</event>
<event>
 4    1  0.3130345E+006  0.2319901E+01  0.7546771E-02  0.2793680E+00
         22   -1    0    0    0    0  0.00000000000E+00  0.00000000000E+00  0.93946539074E-01  0.93946539074E-01  0.00000000000E+00 0.  1.
         22   -1    0    0    0    0 -0.00000000000E+00 -0.00000000000E+00 -0.96739385668E+02  0.96739385668E+02  0.00000000000E+00 0. -1.
          2    1    1    2  501    0 -0.23160639414E+01 -0.13334794929E+00 -0.79241929674E+02  0.79275881318E+02  0.25500000000E-02 0. -1.
         -2    1    1    2    0  501  0.23160639414E+01  0.13334794929E+00 -0.17403509455E+02  0.17557450889E+02  0.25500000000E-02 0.  1.
<mgrwt>
<rscale>  0 0.23199009E+01</rscale>
<asrwt>0</asrwt>
<pdfrwt beam="1">0</pdfrwt>
<pdfrwt beam="2">0</pdfrwt>
<totfact> 0.12168307E+12</totfact>
</mgrwt>
</event>
<event>
 4    1  0.3130345E+006  0.2005709E+01  0.7546771E-02  0.2976885E+00
         22   -1    0    0    0    0  0.00000000000E+00  0.00000000000E+00  0.27100115346E+02  0.27100115346E+02  0.00000000000E+00 0.  1.
         22   -1    0    0    0    0 -0.00000000000E+00 -0.00000000000E+00 -0.16137712006E+00  0.16137712006E+00  0.00000000000E+00 0. -1.
          2    1    1    2  501    0 -0.19445867627E+01 -0.49136995784E+00  0.17328046564E+02  0.17443740033E+02  0.25500000000E-02 0.  1.
         -2    1    1    2    0  501  0.19445867627E+01  0.49136995784E+00  0.96106916623E+01  0.98177524334E+01  0.25500000000E-02 0. -1.
<mgrwt>
<rscale>  0 0.20057090E+01</rscale>
<asrwt>0</asrwt>
<pdfrwt beam="1">0</pdfrwt>
<pdfrwt beam="2">0</pdfrwt>
<totfact> 0.36070924E+12</totfact>
</mgrwt>
</event>
<event>
 4    1  0.3130345E+006  0.3588796E+01  0.7546771E-02  0.2363540E+00
         22   -1    0    0    0    0  0.00000000000E+00  0.00000000000E+00  0.60052744378E+01  0.60052744378E+01  0.00000000000E+00 0. -1.
         22   -1    0    0    0    0 -0.00000000000E+00 -0.00000000000E+00 -0.28422294827E+01  0.28422294827E+01  0.00000000000E+00 0.  1.
          2    1    1    2  501    0  0.21591360905E+01  0.28666324260E+01 -0.60999711420E+00  0.36402682737E+01  0.25500000000E-02 0.  1.
         -2    1    1    2    0  501 -0.21591360905E+01 -0.28666324260E+01  0.37730420693E+01  0.52072356469E+01  0.25500000000E-02 0. -1.
<mgrwt>
<rscale>  0 0.35887960E+01</rscale>
<asrwt>0</asrwt>
<pdfrwt beam="1">0</pdfrwt>
<pdfrwt beam="2">0</pdfrwt>
<totfact> 0.87698927E+11</totfact>
</mgrwt>
</event>
<event>
 4    1  0.3130345E+006  0.3385180E+01  0.7546771E-02  0.2412892E+00
         22   -1    0    0    0    0  0.00000000000E+00  0.00000000000E+00  0.13092579897E+01  0.13092579897E+01  0.00000000000E+00 0.  1.
         22   -1    0    0    0    0 -0.00000000000E+00 -0.00000000000E+00 -0.11351166841E+02  0.11351166841E+02  0.00000000000E+00 0. -1.
          2    1    1    2  501    0 -0.27154542844E+01  0.20213228249E+01 -0.80497005587E+01  0.87325324803E+01  0.25500000000E-02 0.  1.
         -2    1    1    2    0  501  0.27154542844E+01 -0.20213228249E+01 -0.19922082928E+01  0.39278923506E+01  0.25500000000E-02 0. -1.
<mgrwt>
<rscale>  0 0.33851801E+01</rscale>
<asrwt>0</asrwt>
<pdfrwt beam="1">0</pdfrwt>
<pdfrwt beam="2">0</pdfrwt>
<totfact> 0.99944990E+11</totfact>
</mgrwt>
</event>
<event>
 4    1  0.3130345E+006  0.2256789E+01  0.7546771E-02  0.2826545E+00
         22   -1    0    0    0    0  0.00000000000E+00  0.00000000000E+00  0.25626476210E+01  0.25626476210E+01  0.00000000000E+00 0.  1.
         22   -1    0    0    0    0 -0.00000000000E+00 -0.00000000000E+00 -0.30824459603E+01  0.30824459603E+01  0.00000000000E+00 0. -1.
          2    1    1    2  501    0  0.13921498099E+01 -0.17762349611E+01 -0.19421952838E+01  0.29774520572E+01  0.25500000000E-02 0. -1.
         -2    1    1    2    0  501 -0.13921498099E+01  0.17762349611E+01  0.14223969446E+01  0.26676415240E+01  0.25500000000E-02 0.  1.
<mgrwt>
<rscale>  0 0.22567894E+01</rscale>
<asrwt>0</asrwt>
<pdfrwt beam="1">0</pdfrwt>
<pdfrwt beam="2">0</pdfrwt>
<totfact> 0.21723533E+12</totfact>
</mgrwt>
</event>
<event>
 4    1  0.3130345E+006  0.2271419E+01  0.7546771E-02  0.2818772E+00
         22   -1    0    0    0    0  0.00000000000E+00  0.00000000000E+00  0.34557549348E+01  0.34557549348E+01  0.00000000000E+00 0.  1.
         22   -1    0    0    0    0 -0.00000000000E+00 -0.00000000000E+00 -0.16340712390E+02  0.16340712390E+02  0.00000000000E+00 0. -1.
          2    1    1    2  501    0  0.21864879328E+01 -0.61531221228E+00 -0.15877706581E+02  0.16039355079E+02  0.25500000000E-02 0. -1.
         -2    1    1    2    0  501 -0.21864879328E+01  0.61531221228E+00  0.29927491251E+01  0.37571122458E+01  0.25500000000E-02 0.  1.
<mgrwt>
<rscale>  0 0.22714192E+01</rscale>
<asrwt>0</asrwt>
<pdfrwt beam="1">0</pdfrwt>
<pdfrwt beam="2">0</pdfrwt>
<totfact> 0.20754823E+11</totfact>
</mgrwt>
</event>
<event>
 4    1  0.3130345E+006  0.2361462E+01  0.7546771E-02  0.2772948E+00
         22   -1    0    0    0    0  0.00000000000E+00  0.00000000000E+00  0.28745548557E+01  0.28745548557E+01  0.00000000000E+00 0. -1.
         22   -1    0    0    0    0 -0.00000000000E+00 -0.00000000000E+00 -0.19776256960E+01  0.19776256960E+01  0.00000000000E+00 0.  1.
          2    1    1    2  501    0  0.14081106286E+01 -0.18957112055E+01  0.11361878942E+00  0.23641937841E+01  0.25500000000E-02 0. -1.
         -2    1    1    2    0  501 -0.14081106286E+01  0.18957112055E+01  0.78331037026E+00  0.24879867676E+01  0.25500000000E-02 0.  1.
<mgrwt>
<rscale>  0 0.23614621E+01</rscale>
<asrwt>0</asrwt>
<pdfrwt beam="1">0</pdfrwt>
<pdfrwt beam="2">0</pdfrwt>
<totfact> 0.31839045E+12</totfact>
</mgrwt>
</event>
<event>
 4    1  0.3130345E+006  0.2662344E+01  0.7546771E-02  0.2641014E+00
         22   -1    0    0    0    0  0.00000000000E+00  0.00000000000E+00  0.36717235810E+00  0.36717235810E+00  0.00000000000E+00 0. -1.
         22   -1    0    0    0    0 -0.00000000000E+00 -0.00000000000E+00 -0.19441520254E+02  0.19441520254E+02  0.00000000000E+00 0.  1.
          2    1    1    2  501    0 -0.24475546110E+01  0.10476369496E+01 -0.10368702118E+02  0.10705048195E+02  0.25500000000E-02 0.  1.
         -2    1    1    2    0  501  0.24475546110E+01 -0.10476369496E+01 -0.87056457775E+01  0.91036444163E+01  0.25500000000E-02 0. -1.
<mgrwt>
<rscale>  0 0.26623436E+01</rscale>
<asrwt>0</asrwt>
<pdfrwt beam="1">0</pdfrwt>
<pdfrwt beam="2">0</pdfrwt>
<totfact> 0.21830942E+12</totfact>
</mgrwt>
</event>
<event>
 4    1  0.3130345E+006  0.2158771E+01  0.7546771E-02  0.2881217E+00
         22   -1    0    0    0    0  0.00000000000E+00  0.00000000000E+00  0.10357347671E+01  0.10357347671E+01  0.00000000000E+00 0. -1.
         22   -1    0    0    0    0 -0.00000000000E+00 -0.00000000000E+00 -0.96898109702E+01  0.96898109702E+01  0.00000000000E+00 0.  1.
          2    1    1    2  501    0  0.98735389560E+00 -0.19197440664E+01 -0.82519356314E+01  0.85296385130E+01  0.25500000000E-02 0. -1.
         -2    1    1    2    0  501 -0.98735389560E+00  0.19197440664E+01 -0.40214057175E+00  0.21959072243E+01  0.25500000000E-02 0.  1.
<mgrwt>
<rscale>  0 0.21587708E+01</rscale>
<asrwt>0</asrwt>
<pdfrwt beam="1">0</pdfrwt>
<pdfrwt beam="2">0</pdfrwt>
<totfact> 0.15835808E+12</totfact>
</mgrwt>
</event>
<event>
 4    1  0.3130345E+006  0.2582908E+01  0.7546771E-02  0.2673070E+00
         22   -1    0    0    0    0  0.00000000000E+00  0.00000000000E+00  0.91742555545E+00  0.91742555545E+00  0.00000000000E+00 0.  1.
         22   -1    0    0    0    0 -0.00000000000E+00 -0.00000000000E+00 -0.82103107198E+01  0.82103107198E+01  0.00000000000E+00 0. -1.
          2    1    1    2  501    0 -0.10168595591E+01 -0.23743220591E+01 -0.51893957535E+01  0.57966579502E+01  0.25500000000E-02 0. -1.
         -2    1    1    2    0  501  0.10168595591E+01  0.23743220591E+01 -0.21034894109E+01  0.33310783250E+01  0.25500000000E-02 0.  1.
<mgrwt>
<rscale>  0 0.25829083E+01</rscale>
<asrwt>0</asrwt>
<pdfrwt beam="1">0</pdfrwt>
<pdfrwt beam="2">0</pdfrwt>
<totfact> 0.22211037E+12</totfact>
</mgrwt>
</event>
<event>
 4    1  0.3130345E+006  0.5475872E+01  0.7546771E-02  0.2070148E+00
         22   -1    0    0    0    0  0.00000000000E+00  0.00000000000E+00  0.74993476337E+01  0.74993476337E+01  0.00000000000E+00 0.  1.
         22   -1    0    0    0    0 -0.00000000000E+00 -0.00000000000E+00 -0.32847478771E+02  0.32847478771E+02  0.00000000000E+00 0. -1.
          2    1    1    2  501    0 -0.16980379848E+00 -0.54732375832E+01 -0.31579843896E+02  0.32051079700E+02  0.25500000000E-02 0. -1.
         -2    1    1    2    0  501  0.16980379848E+00  0.54732375832E+01  0.62317127586E+01  0.82957467042E+01  0.25500000000E-02 0.  1.
<mgrwt>
<rscale>  0 0.54758716E+01</rscale>
<asrwt>0</asrwt>
<pdfrwt beam="1">0</pdfrwt>
<pdfrwt beam="2">0</pdfrwt>
<totfact> 0.34458595E+10</totfact>
</mgrwt>
</event>
<event>
 4    1  0.3130345E+006  0.2057301E+01  0.7546771E-02  0.2943091E+00
         22   -1    0    0    0    0  0.00000000000E+00  0.00000000000E+00  0.19756198421E+01  0.19756198421E+01  0.00000000000E+00 0.  1.
         22   -1    0    0    0    0 -0.00000000000E+00 -0.00000000000E+00 -0.21719963162E+01  0.21719963162E+01  0.00000000000E+00 0. -1.
          2    1    1    2  501    0 -0.11482635496E+00  0.20540920211E+01 -0.34043800260E+00  0.20852778374E+01  0.25500000000E-02 0. -1.
         -2    1    1    2    0  501  0.11482635496E+00 -0.20540920211E+01  0.14406152852E+00  0.20623383208E+01  0.25500000000E-02 0.  1.
<mgrwt>
<rscale>  0 0.20573006E+01</rscale>
<asrwt>0</asrwt>
<pdfrwt beam="1">0</pdfrwt>
<pdfrwt beam="2">0</pdfrwt>
<totfact> 0.44159017E+12</totfact>
</mgrwt>
</event>
<event>
 4    1  0.3130345E+006  0.2818123E+01  0.7546771E-02  0.2582979E+00
         22   -1    0    0    0    0  0.00000000000E+00  0.00000000000E+00  0.12710378625E+02  0.12710378625E+02  0.00000000000E+00 0. -1.
         22   -1    0    0    0    0 -0.00000000000E+00 -0.00000000000E+00 -0.83037818317E+00  0.83037818317E+00  0.00000000000E+00 0.  1.
          2    1    1    2  501    0  0.22432434680E+01 -0.17057748902E+01  0.93084698927E+01  0.97257096132E+01  0.25500000000E-02 0.  1.
         -2    1    1    2    0  501 -0.22432434680E+01  0.17057748902E+01  0.25715305490E+01  0.38150471950E+01  0.25500000000E-02 0. -1.
<mgrwt>
<rscale>  0 0.28181227E+01</rscale>
<asrwt>0</asrwt>
<pdfrwt beam="1">0</pdfrwt>
<pdfrwt beam="2">0</pdfrwt>
<totfact> 0.14650818E+12</totfact>
</mgrwt>
</event>
<event>
 4    1  0.3130345E+006  0.2101058E+01  0.7546771E-02  0.2915699E+00
         22   -1    0    0    0    0  0.00000000000E+00  0.00000000000E+00  0.53592084599E+00  0.53592084599E+00  0.00000000000E+00 0.  1.
         22   -1    0    0    0    0 -0.00000000000E+00 -0.00000000000E+00 -0.19894311067E+02  0.19894311067E+02  0.00000000000E+00 0. -1.
          2    1    1    2  501    0 -0.83972819237E+00  0.19259528074E+01 -0.17498637995E+02  0.17624323415E+02  0.25500000000E-02 0. -1.
         -2    1    1    2    0  501  0.83972819237E+00 -0.19259528074E+01 -0.18597522253E+01  0.28059084973E+01  0.25500000000E-02 0.  1.
<mgrwt>
<rscale>  0 0.21010579E+01</rscale>
<asrwt>0</asrwt>
<pdfrwt beam="1">0</pdfrwt>
<pdfrwt beam="2">0</pdfrwt>
<totfact> 0.13849760E+12</totfact>
</mgrwt>
</event>
<event>
 4    1  0.3130345E+006  0.2210350E+01  0.7546771E-02  0.2851869E+00
         22   -1    0    0    0    0  0.00000000000E+00  0.00000000000E+00  0.13884416583E+00  0.13884416583E+00  0.00000000000E+00 0.  1.
         22   -1    0    0    0    0 -0.00000000000E+00 -0.00000000000E+00 -0.38077442858E+02  0.38077442858E+02  0.00000000000E+00 0. -1.
          2    1    1    2  501    0 -0.21241860549E+01  0.61112518655E+00 -0.24233016400E+02  0.24333613187E+02  0.25500000000E-02 0.  1.
         -2    1    1    2    0  501  0.21241860549E+01 -0.61112518655E+00 -0.13705582292E+02  0.13882673836E+02  0.25500000000E-02 0. -1.
<mgrwt>
<rscale>  0 0.22103499E+01</rscale>
<asrwt>0</asrwt>
<pdfrwt beam="1">0</pdfrwt>
<pdfrwt beam="2">0</pdfrwt>
<totfact> 0.27591315E+12</totfact>
</mgrwt>
</event>
<event>
 4    1  0.3130345E+006  0.2553840E+01  0.7546771E-02  0.2685259E+00
         22   -1    0    0    0    0  0.00000000000E+00  0.00000000000E+00  0.39302112054E+00  0.39302112054E+00  0.00000000000E+00 0.  1.
         22   -1    0    0    0    0 -0.00000000000E+00 -0.00000000000E+00 -0.22354746786E+02  0.22354746786E+02  0.00000000000E+00 0. -1.
          2    1    1    2  501    0  0.24650037125E+01  0.66772076111E+00 -0.16754290556E+02  0.16947812628E+02  0.25500000000E-02 0. -1.
         -2    1    1    2    0  501 -0.24650037125E+01 -0.66772076111E+00 -0.52074351090E+01  0.57999552786E+01  0.25500000000E-02 0.  1.
<mgrwt>
<rscale>  0 0.25538404E+01</rscale>
<asrwt>0</asrwt>
<pdfrwt beam="1">0</pdfrwt>
<pdfrwt beam="2">0</pdfrwt>
<totfact> 0.16984911E+12</totfact>
</mgrwt>
</event>
<event>
 4    1  0.3130345E+006  0.2084417E+01  0.7546771E-02  0.2925985E+00
         22   -1    0    0    0    0  0.00000000000E+00  0.00000000000E+00  0.87251750685E+01  0.87251750685E+01  0.00000000000E+00 0.  1.
         22   -1    0    0    0    0 -0.00000000000E+00 -0.00000000000E+00 -0.91121671680E+00  0.91121671680E+00  0.00000000000E+00 0. -1.
          2    1    1    2  501    0 -0.14911938071E+01  0.14564090347E+01  0.66221380085E+00  0.21870802151E+01  0.25500000000E-02 0. -1.
         -2    1    1    2    0  501  0.14911938071E+01 -0.14564090347E+01  0.71517445508E+01  0.74493115702E+01  0.25500000000E-02 0.  1.
<mgrwt>
<rscale>  0 0.20844166E+01</rscale>
<asrwt>0</asrwt>
<pdfrwt beam="1">0</pdfrwt>
<pdfrwt beam="2">0</pdfrwt>
<totfact> 0.20801870E+12</totfact>
</mgrwt>
</event>
<event>
 4    1  0.3130345E+006  0.2405331E+01  0.7546771E-02  0.2751797E+00
         22   -1    0    0    0    0  0.00000000000E+00  0.00000000000E+00  0.65975437009E+01  0.65975437009E+01  0.00000000000E+00 0. -1.
         22   -1    0    0    0    0 -0.00000000000E+00 -0.00000000000E+00 -0.21222316965E+01  0.21222316965E+01  0.00000000000E+00 0.  1.
          2    1    1    2  501    0  0.17279449517E-01 -0.24052671428E+01 -0.11021048688E+01  0.26457986038E+01  0.25500000000E-02 0.  1.
         -2    1    1    2    0  501 -0.17279449517E-01  0.24052671428E+01  0.55774168733E+01  0.60739767936E+01  0.25500000000E-02 0. -1.
<mgrwt>
<rscale>  0 0.24053306E+01</rscale>
<asrwt>0</asrwt>
<pdfrwt beam="1">0</pdfrwt>
<pdfrwt beam="2">0</pdfrwt>
<totfact> 0.11010142E+12</totfact>
</mgrwt>
</event>
<event>
 4    1  0.3130345E+006  0.2551146E+01  0.7546771E-02  0.2686402E+00
         22   -1    0    0    0    0  0.00000000000E+00  0.00000000000E+00  0.80597328015E+01  0.80597328015E+01  0.00000000000E+00 0. -1.
         22   -1    0    0    0    0 -0.00000000000E+00 -0.00000000000E+00 -0.88866886392E+00  0.88866886392E+00  0.00000000000E+00 0.  1.
          2    1    1    2  501    0  0.19059911405E+01 -0.16957404229E+01  0.22334479305E+01  0.33906686612E+01  0.25500000000E-02 0.  1.
         -2    1    1    2    0  501 -0.19059911405E+01  0.16957404229E+01  0.49376160071E+01  0.55577330042E+01  0.25500000000E-02 0. -1.
<mgrwt>
<rscale>  0 0.25511457E+01</rscale>
<asrwt>0</asrwt>
<pdfrwt beam="1">0</pdfrwt>
<pdfrwt beam="2">0</pdfrwt>
<totfact> 0.23550373E+12</totfact>
</mgrwt>
</event>
<event>
 4    1  0.3130345E+006  0.3722769E+01  0.7546771E-02  0.2333642E+00
         22   -1    0    0    0    0  0.00000000000E+00  0.00000000000E+00  0.15926342740E+01  0.15926342740E+01  0.00000000000E+00 0. -1.
         22   -1    0    0    0    0 -0.00000000000E+00 -0.00000000000E+00 -0.12402295289E+02  0.12402295289E+02  0.00000000000E+00 0.  1.
          2    1    1    2  501    0  0.10552426523E+01 -0.35700787368E+01 -0.92270135316E+01  0.99497127827E+01  0.25500000000E-02 0. -1.
         -2    1    1    2    0  501 -0.10552426523E+01  0.35700787368E+01 -0.15826474836E+01  0.40452167806E+01  0.25500000000E-02 0.  1.
<mgrwt>
<rscale>  0 0.37227686E+01</rscale>
<asrwt>0</asrwt>
<pdfrwt beam="1">0</pdfrwt>
<pdfrwt beam="2">0</pdfrwt>
<totfact> 0.71622506E+11</totfact>
</mgrwt>
</event>
<event>
 4    1  0.3130345E+006  0.2003765E+01  0.7546771E-02  0.2978191E+00
         22   -1    0    0    0    0  0.00000000000E+00  0.00000000000E+00  0.22583041116E+01  0.22583041116E+01  0.00000000000E+00 0. -1.
         22   -1    0    0    0    0 -0.00000000000E+00 -0.00000000000E+00 -0.18781852091E+01  0.18781852091E+01  0.00000000000E+00 0.  1.
          2    1    1    2  501    0  0.20001769057E+01 -0.11983740102E+00 -0.28781780095E+00  0.20243305674E+01  0.25500000000E-02 0. -1.
         -2    1    1    2    0  501 -0.20001769057E+01  0.11983740102E+00  0.66793670347E+00  0.21121587533E+01  0.25500000000E-02 0.  1.
<mgrwt>
<rscale>  0 0.20037652E+01</rscale>
<asrwt>0</asrwt>
<pdfrwt beam="1">0</pdfrwt>
<pdfrwt beam="2">0</pdfrwt>
<totfact> 0.44748974E+12</totfact>
</mgrwt>
</event>
<event>
 4    1  0.3130345E+006  0.2161660E+01  0.7546771E-02  0.2879538E+00
         22   -1    0    0    0    0  0.00000000000E+00  0.00000000000E+00  0.96843593220E+01  0.96843593220E+01  0.00000000000E+00 0.  1.
         22   -1    0    0    0    0 -0.00000000000E+00 -0.00000000000E+00 -0.48283719507E+00  0.48283719507E+00  0.00000000000E+00 0. -1.
          2    1    1    2  501    0  0.21472605855E+01  0.24907371731E+00  0.47336787995E+01  0.52038915456E+01  0.25500000000E-02 0. -1.
         -2    1    1    2    0  501 -0.21472605855E+01 -0.24907371731E+00  0.44678433274E+01  0.49633049714E+01  0.25500000000E-02 0.  1.
<mgrwt>
<rscale>  0 0.21616596E+01</rscale>
<asrwt>0</asrwt>
<pdfrwt beam="1">0</pdfrwt>
<pdfrwt beam="2">0</pdfrwt>
<totfact> 0.37693871E+12</totfact>
</mgrwt>
</event>
<event>
 4    1  0.3130345E+006  0.4892612E+01  0.7546771E-02  0.2136044E+00
         22   -1    0    0    0    0  0.00000000000E+00  0.00000000000E+00  0.21450363567E+01  0.21450363567E+01  0.00000000000E+00 0. -1.
         22   -1    0    0    0    0 -0.00000000000E+00 -0.00000000000E+00 -0.11380853193E+02  0.11380853193E+02  0.00000000000E+00 0.  1.
          2    1    1    2  501    0 -0.82137907796E+00 -0.48231712152E+01 -0.36748521423E+01  0.61190022823E+01  0.25500000000E-02 0.  1.
         -2    1    1    2    0  501  0.82137907796E+00  0.48231712152E+01 -0.55609646936E+01  0.74068872671E+01  0.25500000000E-02 0. -1.
<mgrwt>
<rscale>  0 0.48926118E+01</rscale>
<asrwt>0</asrwt>
<pdfrwt beam="1">0</pdfrwt>
<pdfrwt beam="2">0</pdfrwt>
<totfact> 0.56378417E+11</totfact>
</mgrwt>
</event>
<event>
 4    1  0.3130345E+006  0.2055255E+01  0.7546771E-02  0.2944400E+00
         22   -1    0    0    0    0  0.00000000000E+00  0.00000000000E+00  0.46916924975E+02  0.46916924975E+02  0.00000000000E+00 0. -1.
         22   -1    0    0    0    0 -0.00000000000E+00 -0.00000000000E+00 -0.92210271253E-01  0.92210271253E-01  0.00000000000E+00 0.  1.
          2    1    1    2  501    0 -0.95342617498E+00 -0.18207263159E+01  0.19800611206E+02  0.19906990642E+02  0.25500000000E-02 0.  1.
         -2    1    1    2    0  501  0.95342617498E+00  0.18207263159E+01  0.27024103498E+02  0.27102144604E+02  0.25500000000E-02 0. -1.
<mgrwt>
<rscale>  0 0.20552548E+01</rscale>
<asrwt>0</asrwt>
<pdfrwt beam="1">0</pdfrwt>
<pdfrwt beam="2">0</pdfrwt>
<totfact> 0.33086680E+12</totfact>
</mgrwt>
</event>
<event>
 4    1  0.3130345E+006  0.2414101E+01  0.7546771E-02  0.2747656E+00
         22   -1    0    0    0    0  0.00000000000E+00  0.00000000000E+00  0.54786386582E+02  0.54786386582E+02  0.00000000000E+00 0.  1.
         22   -1    0    0    0    0 -0.00000000000E+00 -0.00000000000E+00 -0.32787497325E+00  0.32787497325E+00  0.00000000000E+00 0. -1.
          2    1    1    2  501    0 -0.36899820852E+00 -0.23857319211E+01  0.45793166178E+01  0.51766807576E+01  0.25500000000E-02 0. -1.
         -2    1    1    2    0  501  0.36899820852E+00  0.23857319211E+01  0.49879194991E+02  0.49937580798E+02  0.25500000000E-02 0.  1.
<mgrwt>
<rscale>  0 0.24141009E+01</rscale>
<asrwt>0</asrwt>
<pdfrwt beam="1">0</pdfrwt>
<pdfrwt beam="2">0</pdfrwt>
<totfact> 0.65627138E+11</totfact>
</mgrwt>
</event>
<event>
 4    1  0.3130345E+006  0.3291139E+01  0.7546771E-02  0.2437481E+00
         22   -1    0    0    0    0  0.00000000000E+00  0.00000000000E+00  0.62832618663E+00  0.62832618663E+00  0.00000000000E+00 0.  1.
         22   -1    0    0    0    0 -0.00000000000E+00 -0.00000000000E+00 -0.38363117474E+02  0.38363117474E+02  0.00000000000E+00 0. -1.
          2    1    1    2  501    0  0.23600425605E+00  0.32826648028E+01 -0.33334235149E+02  0.33496310628E+02  0.25500000000E-02 0. -1.
         -2    1    1    2    0  501 -0.23600425605E+00 -0.32826648028E+01 -0.44005561382E+01  0.54951330325E+01  0.25500000000E-02 0.  1.
<mgrwt>
<rscale>  0 0.32911385E+01</rscale>
<asrwt>0</asrwt>
<pdfrwt beam="1">0</pdfrwt>
<pdfrwt beam="2">0</pdfrwt>
<totfact> 0.50278936E+11</totfact>
</mgrwt>
</event>
<event>
 4    1  0.3130345E+006  0.2492128E+01  0.7546771E-02  0.2712011E+00
         22   -1    0    0    0    0  0.00000000000E+00  0.00000000000E+00  0.28656442256E+02  0.28656442256E+02  0.00000000000E+00 0. -1.
         22   -1    0    0    0    0 -0.00000000000E+00 -0.00000000000E+00 -0.23681231396E+00  0.23681231396E+00  0.00000000000E+00 0.  1.
          2    1    1    2  501    0 -0.24717424101E+01 -0.31809360347E+00  0.10002790561E+02  0.10308565351E+02  0.25500000000E-02 0. -1.
         -2    1    1    2    0  501  0.24717424101E+01  0.31809360347E+00  0.18416839381E+02  0.18584689219E+02  0.25500000000E-02 0.  1.
<mgrwt>
<rscale>  0 0.24921277E+01</rscale>
<asrwt>0</asrwt>
<pdfrwt beam="1">0</pdfrwt>
<pdfrwt beam="2">0</pdfrwt>
<totfact> 0.21911249E+12</totfact>
</mgrwt>
</event>
<event>
 4    1  0.3130345E+006  0.2011191E+01  0.7546771E-02  0.2973213E+00
         22   -1    0    0    0    0  0.00000000000E+00  0.00000000000E+00  0.11297769749E+01  0.11297769749E+01  0.00000000000E+00 0. -1.
         22   -1    0    0    0    0 -0.00000000000E+00 -0.00000000000E+00 -0.61199542313E+01  0.61199542313E+01  0.00000000000E+00 0.  1.
          2    1    1    2  501    0 -0.19885878591E+01  0.30067072310E+00 -0.48302067816E+01  0.52321877463E+01  0.25500000000E-02 0.  1.
         -2    1    1    2    0  501  0.19885878591E+01 -0.30067072310E+00 -0.15997047477E+00  0.20175434598E+01  0.25500000000E-02 0. -1.
<mgrwt>
<rscale>  0 0.20111915E+01</rscale>
<asrwt>0</asrwt>
<pdfrwt beam="1">0</pdfrwt>
<pdfrwt beam="2">0</pdfrwt>
<totfact> 0.24885408E+12</totfact>
</mgrwt>
</event>
<event>
 4    1  0.3130345E+006  0.2433611E+01  0.7546771E-02  0.2738543E+00
         22   -1    0    0    0    0  0.00000000000E+00  0.00000000000E+00  0.13197133377E+01  0.13197133377E+01  0.00000000000E+00 0. -1.
         22   -1    0    0    0    0 -0.00000000000E+00 -0.00000000000E+00 -0.96710380130E+01  0.96710380130E+01  0.00000000000E+00 0.  1.
          2    1    1    2  501    0 -0.14453798337E+01 -0.19578900428E+01 -0.81988109536E+01  0.85523659790E+01  0.25500000000E-02 0.  1.
         -2    1    1    2    0  501  0.14453798337E+01  0.19578900428E+01 -0.15251372172E+00  0.24383853718E+01  0.25500000000E-02 0. -1.
<mgrwt>
<rscale>  0 0.24336111E+01</rscale>
<asrwt>0</asrwt>
<pdfrwt beam="1">0</pdfrwt>
<pdfrwt beam="2">0</pdfrwt>
<totfact> 0.12027299E+12</totfact>
</mgrwt>
</event>
<event>
 4    1  0.3130345E+006  0.2169390E+01  0.7546771E-02  0.2875065E+00
         22   -1    0    0    0    0  0.00000000000E+00  0.00000000000E+00  0.11201662509E+01  0.11201662509E+01  0.00000000000E+00 0.  1.
         22   -1    0    0    0    0 -0.00000000000E+00 -0.00000000000E+00 -0.45951169108E+01  0.45951169108E+01  0.00000000000E+00 0. -1.
          2    1    1    2  501    0 -0.11232375008E+01 -0.18559592153E+01 -0.25739597487E+01  0.33662326691E+01  0.25500000000E-02 0. -1.
         -2    1    1    2    0  501  0.11232375008E+01  0.18559592153E+01 -0.90099091120E+00  0.23490504926E+01  0.25500000000E-02 0.  1.
<mgrwt>
<rscale>  0 0.21693901E+01</rscale>
<asrwt>0</asrwt>
<pdfrwt beam="1">0</pdfrwt>
<pdfrwt beam="2">0</pdfrwt>
<totfact> 0.35303583E+12</totfact>
</mgrwt>
</event>
<event>
 4    1  0.3130345E+006  0.2891770E+01  0.7546771E-02  0.2557529E+00
         22   -1    0    0    0    0  0.00000000000E+00  0.00000000000E+00  0.49938234051E+00  0.49938234051E+00  0.00000000000E+00 0.  1.
         22   -1    0    0    0    0 -0.00000000000E+00 -0.00000000000E+00 -0.18660628620E+02  0.18660628620E+02  0.00000000000E+00 0. -1.
          2    1    1    2  501    0 -0.26084259255E+01  0.12483744851E+01 -0.60114682285E+01  0.66708381354E+01  0.25500000000E-02 0. -1.
         -2    1    1    2    0  501  0.26084259255E+01 -0.12483744851E+01 -0.12149778051E+02  0.12489172825E+02  0.25500000000E-02 0.  1.
<mgrwt>
<rscale>  0 0.28917696E+01</rscale>
<asrwt>0</asrwt>
<pdfrwt beam="1">0</pdfrwt>
<pdfrwt beam="2">0</pdfrwt>
<totfact> 0.16245654E+12</totfact>
</mgrwt>
</event>
<event>
 4    1  0.3130345E+006  0.2366852E+01  0.7546771E-02  0.2770309E+00
         22   -1    0    0    0    0  0.00000000000E+00  0.00000000000E+00  0.70360637965E+01  0.70360637965E+01  0.00000000000E+00 0. -1.
         22   -1    0    0    0    0 -0.00000000000E+00 -0.00000000000E+00 -0.13253460044E+01  0.13253460044E+01  0.00000000000E+00 0.  1.
          2    1    1    2  501    0  0.13557882790E+01  0.19400562423E+01  0.21367974549E+00  0.23764775650E+01  0.25500000000E-02 0.  1.
         -2    1    1    2    0  501 -0.13557882790E+01 -0.19400562423E+01  0.54970380466E+01  0.59849322360E+01  0.25500000000E-02 0. -1.
<mgrwt>
<rscale>  0 0.23668516E+01</rscale>
<asrwt>0</asrwt>
<pdfrwt beam="1">0</pdfrwt>
<pdfrwt beam="2">0</pdfrwt>
<totfact> 0.17546588E+12</totfact>
</mgrwt>
</event>
<event>
 4    1  0.3130345E+006  0.2134821E+01  0.7546771E-02  0.2895308E+00
         22   -1    0    0    0    0  0.00000000000E+00  0.00000000000E+00  0.32763230095E+02  0.32763230095E+02  0.00000000000E+00 0.  1.
         22   -1    0    0    0    0 -0.00000000000E+00 -0.00000000000E+00 -0.42849786719E+00  0.42849786719E+00  0.00000000000E+00 0. -1.
          2    1    1    2  501    0  0.13361801704E+01  0.16649554676E+01  0.25287277590E+01  0.33093692357E+01  0.25500000000E-02 0. -1.
         -2    1    1    2    0  501 -0.13361801704E+01 -0.16649554676E+01  0.29806004469E+02  0.29882358726E+02  0.25500000000E-02 0.  1.
<mgrwt>
<rscale>  0 0.21348210E+01</rscale>
<asrwt>0</asrwt>
<pdfrwt beam="1">0</pdfrwt>
<pdfrwt beam="2">0</pdfrwt>
<totfact> 0.94931015E+11</totfact>
</mgrwt>
</event>
<event>
 4    1  0.3130345E+006  0.4657237E+01  0.7546771E-02  0.2166890E+00
         22   -1    0    0    0    0  0.00000000000E+00  0.00000000000E+00  0.76175965396E+01  0.76175965396E+01  0.00000000000E+00 0. -1.
         22   -1    0    0    0    0 -0.00000000000E+00 -0.00000000000E+00 -0.28480481819E+01  0.28480481819E+01  0.00000000000E+00 0.  1.
          2    1    1    2  501    0  0.43448712070E+01 -0.16768848938E+01  0.23020138762E+01  0.51951056910E+01  0.25500000000E-02 0. -1.
         -2    1    1    2    0  501 -0.43448712070E+01  0.16768848938E+01  0.24675344815E+01  0.52705390305E+01  0.25500000000E-02 0.  1.
<mgrwt>
<rscale>  0 0.46572369E+01</rscale>
<asrwt>0</asrwt>
<pdfrwt beam="1">0</pdfrwt>
<pdfrwt beam="2">0</pdfrwt>
<totfact> 0.65848706E+11</totfact>
</mgrwt>
</event>
<event>
 4    1  0.3130345E+006  0.2224296E+01  0.7546771E-02  0.2844158E+00
         22   -1    0    0    0    0  0.00000000000E+00  0.00000000000E+00  0.25665823756E+00  0.25665823756E+00  0.00000000000E+00 0.  1.
         22   -1    0    0    0    0 -0.00000000000E+00 -0.00000000000E+00 -0.57654509017E+02  0.57654509017E+02  0.00000000000E+00 0. -1.
          2    1    1    2  501    0  0.44584996521E+00 -0.21791524092E+01 -0.52323088497E+02  0.52370345462E+02  0.25500000000E-02 0. -1.
         -2    1    1    2    0  501 -0.44584996521E+00  0.21791524092E+01 -0.50747622821E+01  0.55408217925E+01  0.25500000000E-02 0.  1.
<mgrwt>
<rscale>  0 0.22242963E+01</rscale>
<asrwt>0</asrwt>
<pdfrwt beam="1">0</pdfrwt>
<pdfrwt beam="2">0</pdfrwt>
<totfact> 0.80679564E+11</totfact>
</mgrwt>
</event>
<event>
 4    1  0.3130345E+006  0.2163501E+01  0.7546771E-02  0.2878470E+00
         22   -1    0    0    0    0  0.00000000000E+00  0.00000000000E+00  0.25204406202E+01  0.25204406202E+01  0.00000000000E+00 0. -1.
         22   -1    0    0    0    0 -0.00000000000E+00 -0.00000000000E+00 -0.21626128074E+01  0.21626128074E+01  0.00000000000E+00 0.  1.
          2    1    1    2  501    0  0.19583542013E+01 -0.91955281043E+00 -0.70115657646E+00  0.22742813362E+01  0.25500000000E-02 0.  1.
         -2    1    1    2    0  501 -0.19583542013E+01  0.91955281043E+00  0.10589843892E+01  0.24087720914E+01  0.25500000000E-02 0. -1.
<mgrwt>
<rscale>  0 0.21635006E+01</rscale>
<asrwt>0</asrwt>
<pdfrwt beam="1">0</pdfrwt>
<pdfrwt beam="2">0</pdfrwt>
<totfact> 0.33457193E+12</totfact>
</mgrwt>
</event>
<event>
 4    1  0.3130345E+006  0.2312368E+01  0.7546771E-02  0.2797514E+00
         22   -1    0    0    0    0  0.00000000000E+00  0.00000000000E+00  0.37085058583E+02  0.37085058583E+02  0.00000000000E+00 0. -1.
         22   -1    0    0    0    0 -0.00000000000E+00 -0.00000000000E+00 -0.14418614237E+00  0.14418614237E+00  0.00000000000E+00 0.  1.
          2    1    1    2  501    0  0.42880373228E-01 -0.23119685738E+01  0.18553947080E+02  0.18697486359E+02  0.25500000000E-02 0.  1.
         -2    1    1    2    0  501 -0.42880373228E-01  0.23119685738E+01  0.18386925361E+02  0.18531758366E+02  0.25500000000E-02 0. -1.
<mgrwt>
<rscale>  0 0.23123676E+01</rscale>
<asrwt>0</asrwt>
<pdfrwt beam="1">0</pdfrwt>
<pdfrwt beam="2">0</pdfrwt>
<totfact> 0.27377063E+12</totfact>
</mgrwt>
</event>
<event>
 4    1  0.3130345E+006  0.3494043E+01  0.7546771E-02  0.2385882E+00
         22   -1    0    0    0    0  0.00000000000E+00  0.00000000000E+00  0.52217372841E+01  0.52217372841E+01  0.00000000000E+00 0.  1.
         22   -1    0    0    0    0 -0.00000000000E+00 -0.00000000000E+00 -0.30575022362E+01  0.30575022362E+01  0.00000000000E+00 0. -1.
          2    1    1    2  501    0 -0.29164328269E+01  0.19242521800E+01 -0.92604215074E+00  0.36146766734E+01  0.25500000000E-02 0. -1.
         -2    1    1    2    0  501  0.29164328269E+01 -0.19242521800E+01  0.30902771986E+01  0.46645628469E+01  0.25500000000E-02 0.  1.
<mgrwt>
<rscale>  0 0.34940426E+01</rscale>
<asrwt>0</asrwt>
<pdfrwt beam="1">0</pdfrwt>
<pdfrwt beam="2">0</pdfrwt>
<totfact> 0.95081824E+11</totfact>
</mgrwt>
</event>
<event>
 4    1  0.3130345E+006  0.2459844E+01  0.7546771E-02  0.2726503E+00
         22   -1    0    0    0    0  0.00000000000E+00  0.00000000000E+00  0.27551305376E+02  0.27551305376E+02  0.00000000000E+00 0. -1.
         22   -1    0    0    0    0 -0.00000000000E+00 -0.00000000000E+00 -0.25593321729E+00  0.25593321729E+00  0.00000000000E+00 0.  1.
          2    1    1    2  501    0  0.21825932305E+01 -0.11345088753E+01  0.84105457697E+01  0.87628825305E+01  0.25500000000E-02 0.  1.
         -2    1    1    2    0  501 -0.21825932305E+01  0.11345088753E+01  0.18884826389E+02  0.19044356063E+02  0.25500000000E-02 0. -1.
<mgrwt>
<rscale>  0 0.24598435E+01</rscale>
<asrwt>0</asrwt>
<pdfrwt beam="1">0</pdfrwt>
<pdfrwt beam="2">0</pdfrwt>
<totfact> 0.21117144E+12</totfact>
</mgrwt>
</event>
<event>
 4    1  0.3130345E+006  0.2244093E+01  0.7546771E-02  0.2833370E+00
         22   -1    0    0    0    0  0.00000000000E+00  0.00000000000E+00  0.59027841765E+01  0.59027841765E+01  0.00000000000E+00 0. -1.
         22   -1    0    0    0    0 -0.00000000000E+00 -0.00000000000E+00 -0.99828567070E+00  0.99828567070E+00  0.00000000000E+00 0.  1.
          2    1    1    2  501    0  0.20776650936E+01 -0.84808993262E+00  0.11365780502E+01  0.25155049079E+01  0.25500000000E-02 0.  1.
         -2    1    1    2    0  501 -0.20776650936E+01  0.84808993262E+00  0.37679204556E+01  0.43855649393E+01  0.25500000000E-02 0. -1.
<mgrwt>
<rscale>  0 0.22440934E+01</rscale>
<asrwt>0</asrwt>
<pdfrwt beam="1">0</pdfrwt>
<pdfrwt beam="2">0</pdfrwt>
<totfact> 0.29928434E+12</totfact>
</mgrwt>
</event>
<event>
 4    1  0.3130345E+006  0.2071678E+01  0.7546771E-02  0.2933967E+00
         22   -1    0    0    0    0  0.00000000000E+00  0.00000000000E+00  0.50024240471E+01  0.50024240471E+01  0.00000000000E+00 0.  1.
         22   -1    0    0    0    0 -0.00000000000E+00 -0.00000000000E+00 -0.11122841717E+01  0.11122841717E+01  0.00000000000E+00 0. -1.
          2    1    1    2  501    0 -0.10221531014E+01 -0.18019557338E+01  0.34070353958E+01  0.39874475696E+01  0.25500000000E-02 0.  1.
         -2    1    1    2    0  501  0.10221531014E+01  0.18019557338E+01  0.48310447953E+00  0.21272606493E+01  0.25500000000E-02 0. -1.
<mgrwt>
<rscale>  0 0.20716776E+01</rscale>
<asrwt>0</asrwt>
<pdfrwt beam="1">0</pdfrwt>
<pdfrwt beam="2">0</pdfrwt>
<totfact> 0.32188280E+12</totfact>
</mgrwt>
</event>
<event>
 4    1  0.3130345E+006  0.2053584E+01  0.7546771E-02  0.2945470E+00
         22   -1    0    0    0    0  0.00000000000E+00  0.00000000000E+00  0.45280470052E+01  0.45280470052E+01  0.00000000000E+00 0. -1.
         22   -1    0    0    0    0 -0.00000000000E+00 -0.00000000000E+00 -0.24984340667E+01  0.24984340667E+01  0.00000000000E+00 0.  1.
          2    1    1    2  501    0 -0.25979927076E+00 -0.20370827650E+01 -0.17675945620E+01  0.27095385014E+01  0.25500000000E-02 0.  1.
         -2    1    1    2    0  501  0.25979927076E+00  0.20370827650E+01  0.37972075005E+01  0.43169425705E+01  0.25500000000E-02 0. -1.
<mgrwt>
<rscale>  0 0.20535843E+01</rscale>
<asrwt>0</asrwt>
<pdfrwt beam="1">0</pdfrwt>
<pdfrwt beam="2">0</pdfrwt>
<totfact> 0.14240914E+12</totfact>
</mgrwt>
</event>
<event>
 4    1  0.3130345E+006  0.2296971E+01  0.7546771E-02  0.2805423E+00
         22   -1    0    0    0    0  0.00000000000E+00  0.00000000000E+00  0.28137923649E+01  0.28137923649E+01  0.00000000000E+00 0. -1.
         22   -1    0    0    0    0 -0.00000000000E+00 -0.00000000000E+00 -0.19312835484E+01  0.19312835484E+01  0.00000000000E+00 0.  1.
          2    1    1    2  501    0 -0.16088330251E+01  0.16394277529E+01  0.36502595821E-01  0.22972605429E+01  0.25500000000E-02 0.  1.
         -2    1    1    2    0  501  0.16088330251E+01 -0.16394277529E+01  0.84600622071E+00  0.24478153704E+01  0.25500000000E-02 0. -1.
<mgrwt>
<rscale>  0 0.22969705E+01</rscale>
<asrwt>0</asrwt>
<pdfrwt beam="1">0</pdfrwt>
<pdfrwt beam="2">0</pdfrwt>
<totfact> 0.33550216E+12</totfact>
</mgrwt>
</event>
<event>
 4    1  0.3130345E+006  0.3316706E+01  0.7546771E-02  0.2430674E+00
         22   -1    0    0    0    0  0.00000000000E+00  0.00000000000E+00  0.11869007492E+01  0.11869007492E+01  0.00000000000E+00 0.  1.
         22   -1    0    0    0    0 -0.00000000000E+00 -0.00000000000E+00 -0.14754980385E+02  0.14754980385E+02  0.00000000000E+00 0. -1.
          2    1    1    2  501    0  0.21838046663E+01  0.24963028615E+01 -0.11644703595E+02  0.12107834617E+02  0.25500000000E-02 0. -1.
         -2    1    1    2    0  501 -0.21838046663E+01 -0.24963028615E+01 -0.19233760401E+01  0.38340465165E+01  0.25500000000E-02 0.  1.
<mgrwt>
<rscale>  0 0.33167058E+01</rscale>
<asrwt>0</asrwt>
<pdfrwt beam="1">0</pdfrwt>
<pdfrwt beam="2">0</pdfrwt>
<totfact> 0.81153849E+11</totfact>
</mgrwt>
</event>
<event>
 4    1  0.3130345E+006  0.2209260E+01  0.7546771E-02  0.2852476E+00
         22   -1    0    0    0    0  0.00000000000E+00  0.00000000000E+00  0.21150314881E+02  0.21150314881E+02  0.00000000000E+00 0. -1.
         22   -1    0    0    0    0 -0.00000000000E+00 -0.00000000000E+00 -0.71841324271E+00  0.71841324271E+00  0.00000000000E+00 0.  1.
          2    1    1    2  501    0  0.17583327462E+01  0.13375677486E+01  0.12073342030E+01  0.25176345860E+01  0.25500000000E-02 0.  1.
         -2    1    1    2    0  501 -0.17583327462E+01 -0.13375677486E+01  0.19224567435E+02  0.19351093538E+02  0.25500000000E-02 0. -1.
<mgrwt>
<rscale>  0 0.22092596E+01</rscale>
<asrwt>0</asrwt>
<pdfrwt beam="1">0</pdfrwt>
<pdfrwt beam="2">0</pdfrwt>
<totfact> 0.92057970E+11</totfact>
</mgrwt>
</event>
<event>
 4    1  0.3130345E+006  0.2771154E+01  0.7546771E-02  0.2599850E+00
         22   -1    0    0    0    0  0.00000000000E+00  0.00000000000E+00  0.20635501103E+02  0.20635501103E+02  0.00000000000E+00 0. -1.
         22   -1    0    0    0    0 -0.00000000000E+00 -0.00000000000E+00 -0.17642084552E+01  0.17642084552E+01  0.00000000000E+00 0.  1.
          2    1    1    2  501    0 -0.71452684791E+00  0.26774497583E+01 -0.51308634520E+00  0.28182529916E+01  0.25500000000E-02 0.  1.
         -2    1    1    2    0  501  0.71452684791E+00 -0.26774497583E+01  0.19384378993E+02  0.19581456566E+02  0.25500000000E-02 0. -1.
<mgrwt>
<rscale>  0 0.27711536E+01</rscale>
<asrwt>0</asrwt>
<pdfrwt beam="1">0</pdfrwt>
<pdfrwt beam="2">0</pdfrwt>
<totfact> 0.33952364E+11</totfact>
</mgrwt>
</event>
<event>
 4    1  0.3130345E+006  0.3349028E+01  0.7546771E-02  0.2422201E+00
         22   -1    0    0    0    0  0.00000000000E+00  0.00000000000E+00  0.31308095217E+00  0.31308095217E+00  0.00000000000E+00 0. -1.
         22   -1    0    0    0    0 -0.00000000000E+00 -0.00000000000E+00 -0.52085328321E+02  0.52085328321E+02  0.00000000000E+00 0.  1.
          2    1    1    2  501    0  0.18478802037E+01 -0.27930845008E+01 -0.40524768534E+02  0.40662917425E+02  0.25500000000E-02 0.  1.
         -2    1    1    2    0  501 -0.18478802037E+01  0.27930845008E+01 -0.11247478835E+02  0.11735491848E+02  0.25500000000E-02 0. -1.
<mgrwt>
<rscale>  0 0.33490280E+01</rscale>
<asrwt>0</asrwt>
<pdfrwt beam="1">0</pdfrwt>
<pdfrwt beam="2">0</pdfrwt>
<totfact> 0.73911737E+11</totfact>
</mgrwt>
</event>
<event>
 4    1  0.3130345E+006  0.5844447E+01  0.7546771E-02  0.2033925E+00
         22   -1    0    0    0    0  0.00000000000E+00  0.00000000000E+00  0.80459703859E+01  0.80459703859E+01  0.00000000000E+00 0. -1.
         22   -1    0    0    0    0 -0.00000000000E+00 -0.00000000000E+00 -0.93659752256E+01  0.93659752256E+01  0.00000000000E+00 0.  1.
          2    1    1    2  501    0 -0.53758998196E+01  0.22928707854E+01 -0.70973120696E+01  0.91939871886E+01  0.25500000000E-02 0.  1.
         -2    1    1    2    0  501  0.53758998196E+01 -0.22928707854E+01  0.57773072299E+01  0.82179584229E+01  0.25500000000E-02 0. -1.
<mgrwt>
<rscale>  0 0.58444471E+01</rscale>
<asrwt>0</asrwt>
<pdfrwt beam="1">0</pdfrwt>
<pdfrwt beam="2">0</pdfrwt>
<totfact> 0.15028895E+11</totfact>
</mgrwt>
</event>
<event>
 4    1  0.3130345E+006  0.2013112E+01  0.7546771E-02  0.2971931E+00
         22   -1    0    0    0    0  0.00000000000E+00  0.00000000000E+00  0.71660555566E+00  0.71660555566E+00  0.00000000000E+00 0. -1.
         22   -1    0    0    0    0 -0.00000000000E+00 -0.00000000000E+00 -0.20725406282E+02  0.20725406282E+02  0.00000000000E+00 0.  1.
          2    1    1    2  501    0 -0.14775773862E+01  0.13672520153E+01 -0.19146420315E+02  0.19251961728E+02  0.25500000000E-02 0.  1.
         -2    1    1    2    0  501  0.14775773862E+01 -0.13672520153E+01 -0.86238041138E+00  0.21900501094E+01  0.25500000000E-02 0. -1.
<mgrwt>
<rscale>  0 0.20131119E+01</rscale>
<asrwt>0</asrwt>
<pdfrwt beam="1">0</pdfrwt>
<pdfrwt beam="2">0</pdfrwt>
<totfact> 0.94687364E+11</totfact>
</mgrwt>
</event>
<event>
 4    1  0.3130345E+006  0.2441672E+01  0.7546771E-02  0.2734817E+00
         22   -1    0    0    0    0  0.00000000000E+00  0.00000000000E+00  0.76739388371E+00  0.76739388371E+00  0.00000000000E+00 0.  1.
         22   -1    0    0    0    0 -0.00000000000E+00 -0.00000000000E+00 -0.78660484127E+01  0.78660484127E+01  0.00000000000E+00 0. -1.
          2    1    1    2  501    0 -0.14960646359E+01 -0.19296496285E+01 -0.40291911279E+01  0.47112784604E+01  0.25500000000E-02 0.  1.
         -2    1    1    2    0  501  0.14960646359E+01  0.19296496285E+01 -0.30694634011E+01  0.39221638360E+01  0.25500000000E-02 0. -1.
<mgrwt>
<rscale>  0 0.24416723E+01</rscale>
<asrwt>0</asrwt>
<pdfrwt beam="1">0</pdfrwt>
<pdfrwt beam="2">0</pdfrwt>
<totfact> 0.28655781E+12</totfact>
</mgrwt>
</event>
<event>
 4    1  0.3130345E+006  0.2589123E+01  0.7546771E-02  0.2670496E+00
         22   -1    0    0    0    0  0.00000000000E+00  0.00000000000E+00  0.15620857600E+01  0.15620857600E+01  0.00000000000E+00 0.  1.
         22   -1    0    0    0    0 -0.00000000000E+00 -0.00000000000E+00 -0.43112179455E+01  0.43112179455E+01  0.00000000000E+00 0. -1.
          2    1    1    2  501    0 -0.91935989610E+00  0.24203984783E+01 -0.15735966719E+01  0.30298126015E+01  0.25500000000E-02 0. -1.
         -2    1    1    2    0  501  0.91935989610E+00 -0.24203984783E+01 -0.11755355136E+01  0.28434911040E+01  0.25500000000E-02 0.  1.
<mgrwt>
<rscale>  0 0.25891230E+01</rscale>
<asrwt>0</asrwt>
<pdfrwt beam="1">0</pdfrwt>
<pdfrwt beam="2">0</pdfrwt>
<totfact> 0.25986637E+12</totfact>
</mgrwt>
</event>
<event>
 4    1  0.3130345E+006  0.2130014E+01  0.7546771E-02  0.2898173E+00
         22   -1    0    0    0    0  0.00000000000E+00  0.00000000000E+00  0.49962264183E+02  0.49962264183E+02  0.00000000000E+00 0.  1.
         22   -1    0    0    0    0 -0.00000000000E+00 -0.00000000000E+00 -0.40316798801E+00  0.40316798801E+00  0.00000000000E+00 0. -1.
          2    1    1    2  501    0 -0.18178193567E+01  0.11101729391E+01  0.26135411745E+01  0.33715805109E+01  0.25500000000E-02 0. -1.
         -2    1    1    2    0  501  0.18178193567E+01 -0.11101729391E+01  0.46945555021E+02  0.46993851661E+02  0.25500000000E-02 0.  1.
<mgrwt>
<rscale>  0 0.21300135E+01</rscale>
<asrwt>0</asrwt>
<pdfrwt beam="1">0</pdfrwt>
<pdfrwt beam="2">0</pdfrwt>
<totfact> 0.58764734E+11</totfact>
</mgrwt>
</event>
<event>
 4    1  0.3130345E+006  0.2162927E+01  0.7546771E-02  0.2878802E+00
         22   -1    0    0    0    0  0.00000000000E+00  0.00000000000E+00  0.34137464491E+01  0.34137464491E+01  0.00000000000E+00 0.  1.
         22   -1    0    0    0    0 -0.00000000000E+00 -0.00000000000E+00 -0.43582458929E+01  0.43582458929E+01  0.00000000000E+00 0. -1.
          2    1    1    2  501    0  0.86433465636E+00  0.19827186842E+01 -0.36897930584E+01  0.42770114677E+01  0.25500000000E-02 0. -1.
         -2    1    1    2    0  501 -0.86433465636E+00 -0.19827186842E+01  0.27452936146E+01  0.34949808743E+01  0.25500000000E-02 0.  1.
<mgrwt>
<rscale>  0 0.21629272E+01</rscale>
<asrwt>0</asrwt>
<pdfrwt beam="1">0</pdfrwt>
<pdfrwt beam="2">0</pdfrwt>
<totfact> 0.10348393E+12</totfact>
</mgrwt>
</event>
<event>
 4    1  0.3130345E+006  0.2438526E+01  0.7546771E-02  0.2736268E+00
         22   -1    0    0    0    0  0.00000000000E+00  0.00000000000E+00  0.11676996171E+01  0.11676996171E+01  0.00000000000E+00 0. -1.
         22   -1    0    0    0    0 -0.00000000000E+00 -0.00000000000E+00 -0.67718626931E+01  0.67718626931E+01  0.00000000000E+00 0.  1.
          2    1    1    2  501    0  0.79139197817E+00 -0.23065340705E+01 -0.47790337097E+01  0.53652185773E+01  0.25500000000E-02 0.  1.
         -2    1    1    2    0  501 -0.79139197817E+00  0.23065340705E+01 -0.82512936631E+00  0.25743437329E+01  0.25500000000E-02 0. -1.
<mgrwt>
<rscale>  0 0.24385256E+01</rscale>
<asrwt>0</asrwt>
<pdfrwt beam="1">0</pdfrwt>
<pdfrwt beam="2">0</pdfrwt>
<totfact> 0.21238540E+12</totfact>
</mgrwt>
</event>
<event>
 4    1  0.3130345E+006  0.2723637E+01  0.7546771E-02  0.2617457E+00
         22   -1    0    0    0    0  0.00000000000E+00  0.00000000000E+00  0.58500118664E+00  0.58500118664E+00  0.00000000000E+00 0. -1.
         22   -1    0    0    0    0 -0.00000000000E+00 -0.00000000000E+00 -0.18738149459E+02  0.18738149459E+02  0.00000000000E+00 0.  1.
          2    1    1    2  501    0  0.12464927599E+01  0.24216617686E+01 -0.14569847578E+02  0.14822235150E+02  0.25500000000E-02 0. -1.
         -2    1    1    2    0  501 -0.12464927599E+01 -0.24216617686E+01 -0.35833006946E+01  0.45009154949E+01  0.25500000000E-02 0.  1.
<mgrwt>
<rscale>  0 0.27236366E+01</rscale>
<asrwt>0</asrwt>
<pdfrwt beam="1">0</pdfrwt>
<pdfrwt beam="2">0</pdfrwt>
<totfact> 0.13514522E+12</totfact>
</mgrwt>
</event>
<event>
 4    1  0.3130345E+006  0.3320934E+01  0.7546771E-02  0.2429557E+00
         22   -1    0    0    0    0  0.00000000000E+00  0.00000000000E+00  0.68476325610E+00  0.68476325610E+00  0.00000000000E+00 0. -1.
         22   -1    0    0    0    0 -0.00000000000E+00 -0.00000000000E+00 -0.18682034477E+02  0.18682034477E+02  0.00000000000E+00 0.  1.
          2    1    1    2  501    0  0.11642317818E+01 -0.31101709651E+01 -0.12594597957E+02  0.13025072103E+02  0.25500000000E-02 0.  1.
         -2    1    1    2    0  501 -0.11642317818E+01  0.31101709651E+01 -0.54026732632E+01  0.63417256299E+01  0.25500000000E-02 0. -1.
<mgrwt>
<rscale>  0 0.33209344E+01</rscale>
<asrwt>0</asrwt>
<pdfrwt beam="1">0</pdfrwt>
<pdfrwt beam="2">0</pdfrwt>
<totfact> 0.11348171E+12</totfact>
</mgrwt>
</event>
<event>
 4    1  0.3130345E+006  0.3056509E+01  0.7546771E-02  0.2504619E+00
         22   -1    0    0    0    0  0.00000000000E+00  0.00000000000E+00  0.17101147553E+02  0.17101147553E+02  0.00000000000E+00 0. -1.
         22   -1    0    0    0    0 -0.00000000000E+00 -0.00000000000E+00 -0.92767947429E+00  0.92767947429E+00  0.00000000000E+00 0.  1.
          2    1    1    2  501    0  0.10811348493E+01  0.28589136271E+01  0.23068270916E+01  0.38293207521E+01  0.25500000000E-02 0.  1.
         -2    1    1    2    0  501 -0.10811348493E+01 -0.28589136271E+01  0.13866640987E+02  0.14199506275E+02  0.25500000000E-02 0. -1.
<mgrwt>
<rscale>  0 0.30565088E+01</rscale>
<asrwt>0</asrwt>
<pdfrwt beam="1">0</pdfrwt>
<pdfrwt beam="2">0</pdfrwt>
<totfact> 0.89651431E+11</totfact>
</mgrwt>
</event>
<event>
 4    1  0.3130345E+006  0.2618926E+01  0.7546771E-02  0.2658313E+00
         22   -1    0    0    0    0  0.00000000000E+00  0.00000000000E+00  0.79770069663E+01  0.79770069663E+01  0.00000000000E+00 0.  1.
         22   -1    0    0    0    0 -0.00000000000E+00 -0.00000000000E+00 -0.10526018205E+01  0.10526018205E+01  0.00000000000E+00 0. -1.
          2    1    1    2  501    0  0.21419575889E+01  0.15069126286E+01  0.15300468385E+01  0.30331201449E+01  0.25500000000E-02 0. -1.
         -2    1    1    2    0  501 -0.21419575889E+01 -0.15069126286E+01  0.53943583072E+01  0.59964886419E+01  0.25500000000E-02 0.  1.
<mgrwt>
<rscale>  0 0.26189262E+01</rscale>
<asrwt>0</asrwt>
<pdfrwt beam="1">0</pdfrwt>
<pdfrwt beam="2">0</pdfrwt>
<totfact> 0.19654881E+12</totfact>
</mgrwt>
</event>
<event>
 4    1  0.3130345E+006  0.2966726E+01  0.7546771E-02  0.2532800E+00
         22   -1    0    0    0    0  0.00000000000E+00  0.00000000000E+00  0.35980037905E+01  0.35980037905E+01  0.00000000000E+00 0.  1.
         22   -1    0    0    0    0 -0.00000000000E+00 -0.00000000000E+00 -0.36471583904E+01  0.36471583904E+01  0.00000000000E+00 0. -1.
          2    1    1    2  501    0  0.30093923181E+00 -0.29514223315E+01 -0.21033326757E+01  0.36366843481E+01  0.25500000000E-02 0.  1.
         -2    1    1    2    0  501 -0.30093923181E+00  0.29514223315E+01  0.20541780759E+01  0.36084778329E+01  0.25500000000E-02 0. -1.
<mgrwt>
<rscale>  0 0.29667263E+01</rscale>
<asrwt>0</asrwt>
<pdfrwt beam="1">0</pdfrwt>
<pdfrwt beam="2">0</pdfrwt>
<totfact> 0.11999211E+12</totfact>
</mgrwt>
</event>
<event>
 4    1  0.3130345E+006  0.3781542E+01  0.7546771E-02  0.2321105E+00
         22   -1    0    0    0    0  0.00000000000E+00  0.00000000000E+00  0.23701598044E+02  0.23701598044E+02  0.00000000000E+00 0.  1.
         22   -1    0    0    0    0 -0.00000000000E+00 -0.00000000000E+00 -0.90839494846E+00  0.90839494846E+00  0.00000000000E+00 0. -1.
          2    1    1    2  501    0  0.72782091957E+00  0.37108392470E+01  0.42658531664E+01  0.57006632024E+01  0.25500000000E-02 0. -1.
         -2    1    1    2    0  501 -0.72782091957E+00 -0.37108392470E+01  0.18527349929E+02  0.18909329790E+02  0.25500000000E-02 0.  1.
<mgrwt>
<rscale>  0 0.37815417E+01</rscale>
<asrwt>0</asrwt>
<pdfrwt beam="1">0</pdfrwt>
<pdfrwt beam="2">0</pdfrwt>
<totfact> 0.61111752E+11</totfact>
</mgrwt>
</event>
<event>
 4    1  0.3130345E+006  0.2719393E+01  0.7546771E-02  0.2619056E+00
         22   -1    0    0    0    0  0.00000000000E+00  0.00000000000E+00  0.12427258818E+01  0.12427258818E+01  0.00000000000E+00 0. -1.
         22   -1    0    0    0    0 -0.00000000000E+00 -0.00000000000E+00 -0.67292049118E+01  0.67292049118E+01  0.00000000000E+00 0.  1.
          2    1    1    2  501    0 -0.16871896289E+00 -0.27141526100E+01 -0.40989923252E+01  0.49190278575E+01  0.25500000000E-02 0.  1.
         -2    1    1    2    0  501  0.16871896289E+00  0.27141526100E+01 -0.13874867049E+01  0.30529029361E+01  0.25500000000E-02 0. -1.
<mgrwt>
<rscale>  0 0.27193928E+01</rscale>
<asrwt>0</asrwt>
<pdfrwt beam="1">0</pdfrwt>
<pdfrwt beam="2">0</pdfrwt>
<totfact> 0.19926171E+12</totfact>
</mgrwt>
</event>
<event>
 4    1  0.3130345E+006  0.2751065E+01  0.7546771E-02  0.2607226E+00
         22   -1    0    0    0    0  0.00000000000E+00  0.00000000000E+00  0.10486309407E+01  0.10486309407E+01  0.00000000000E+00 0. -1.
         22   -1    0    0    0    0 -0.00000000000E+00 -0.00000000000E+00 -0.15544142873E+02  0.15544142873E+02  0.00000000000E+00 0.  1.
          2    1    1    2  501    0  0.14290912595E+00  0.27473498662E+01 -0.13319925446E+02  0.13601057852E+02  0.25500000000E-02 0.  1.
         -2    1    1    2    0  501 -0.14290912595E+00 -0.27473498662E+01 -0.11755864862E+01  0.29917159616E+01  0.25500000000E-02 0. -1.
<mgrwt>
<rscale>  0 0.27510654E+01</rscale>
<asrwt>0</asrwt>
<pdfrwt beam="1">0</pdfrwt>
<pdfrwt beam="2">0</pdfrwt>
<totfact> 0.87698957E+11</totfact>
</mgrwt>
</event>
<event>
 4    1  0.3130345E+006  0.2417922E+01  0.7546771E-02  0.2745860E+00
         22   -1    0    0    0    0  0.00000000000E+00  0.00000000000E+00  0.15474555863E+01  0.15474555863E+01  0.00000000000E+00 0. -1.
         22   -1    0    0    0    0 -0.00000000000E+00 -0.00000000000E+00 -0.75603059281E+01  0.75603059281E+01  0.00000000000E+00 0.  1.
          2    1    1    2  501    0  0.23507987807E+01  0.56575953952E+00 -0.62274060172E+01  0.66803391358E+01  0.25500000000E-02 0.  1.
         -2    1    1    2    0  501 -0.23507987807E+01 -0.56575953952E+00  0.21455567540E+00  0.24274223786E+01  0.25500000000E-02 0. -1.
<mgrwt>
<rscale>  0 0.24179217E+01</rscale>
<asrwt>0</asrwt>
<pdfrwt beam="1">0</pdfrwt>
<pdfrwt beam="2">0</pdfrwt>
<totfact> 0.13472843E+12</totfact>
</mgrwt>
</event>
<event>
 4    1  0.3130345E+006  0.8798177E+01  0.7546771E-02  0.1833387E+00
         22   -1    0    0    0    0  0.00000000000E+00  0.00000000000E+00  0.34923992629E+02  0.34923992629E+02  0.00000000000E+00 0. -1.
         22   -1    0    0    0    0 -0.00000000000E+00 -0.00000000000E+00 -0.27140874549E+01  0.27140874549E+01  0.00000000000E+00 0.  1.
          2    1    1    2  501    0 -0.74856383284E+01 -0.46231091372E+01  0.80468266209E+01  0.11923059358E+02  0.25500000000E-02 0.  1.
         -2    1    1    2    0  501  0.74856383284E+01  0.46231091372E+01  0.24163078553E+02  0.25715020726E+02  0.25500000000E-02 0. -1.
<mgrwt>
<rscale>  0 0.87981774E+01</rscale>
<asrwt>0</asrwt>
<pdfrwt beam="1">0</pdfrwt>
<pdfrwt beam="2">0</pdfrwt>
<totfact> 0.10579211E+11</totfact>
</mgrwt>
</event>
<event>
 4    1  0.3130345E+006  0.4669472E+01  0.7546771E-02  0.2165084E+00
         22   -1    0    0    0    0  0.00000000000E+00  0.00000000000E+00  0.10433202796E+02  0.10433202796E+02  0.00000000000E+00 0. -1.
         22   -1    0    0    0    0 -0.00000000000E+00 -0.00000000000E+00 -0.31608590027E+01  0.31608590027E+01  0.00000000000E+00 0.  1.
          2    1    1    2  501    0 -0.42679732336E+01  0.18942975856E+01  0.75926666162E+01  0.89136160852E+01  0.25500000000E-02 0. -1.
         -2    1    1    2    0  501  0.42679732336E+01 -0.18942975856E+01 -0.32032282281E+00  0.46804457137E+01  0.25500000000E-02 0.  1.
<mgrwt>
<rscale>  0 0.46694716E+01</rscale>
<asrwt>0</asrwt>
<pdfrwt beam="1">0</pdfrwt>
<pdfrwt beam="2">0</pdfrwt>
<totfact> 0.39897052E+11</totfact>
</mgrwt>
</event>
<event>
 4    1  0.3130345E+006  0.2542286E+01  0.7546771E-02  0.2690176E+00
         22   -1    0    0    0    0  0.00000000000E+00  0.00000000000E+00  0.47125661003E+01  0.47125661003E+01  0.00000000000E+00 0. -1.
         22   -1    0    0    0    0 -0.00000000000E+00 -0.00000000000E+00 -0.13992139815E+01  0.13992139815E+01  0.00000000000E+00 0.  1.
          2    1    1    2  501    0 -0.97804175462E+00  0.23466248791E+01  0.12264949406E+01  0.28226778667E+01  0.25500000000E-02 0.  1.
         -2    1    1    2    0  501  0.97804175462E+00 -0.23466248791E+01  0.20868571782E+01  0.32891022152E+01  0.25500000000E-02 0. -1.
<mgrwt>
<rscale>  0 0.25422865E+01</rscale>
<asrwt>0</asrwt>
<pdfrwt beam="1">0</pdfrwt>
<pdfrwt beam="2">0</pdfrwt>
<totfact> 0.26553376E+12</totfact>
</mgrwt>
</event>
<event>
 4    1  0.3130345E+006  0.3425295E+01  0.7546771E-02  0.2402764E+00
         22   -1    0    0    0    0  0.00000000000E+00  0.00000000000E+00  0.20796637331E+02  0.20796637331E+02  0.00000000000E+00 0.  1.
         22   -1    0    0    0    0 -0.00000000000E+00 -0.00000000000E+00 -0.56445730566E+00  0.56445730566E+00  0.00000000000E+00 0. -1.
          2    1    1    2  501    0  0.33776572199E+01 -0.56927364339E+00  0.10360885905E+02  0.10912405968E+02  0.25500000000E-02 0. -1.
         -2    1    1    2    0  501 -0.33776572199E+01  0.56927364339E+00  0.98712941196E+01  0.10448688668E+02  0.25500000000E-02 0.  1.
<mgrwt>
<rscale>  0 0.34252952E+01</rscale>
<asrwt>0</asrwt>
<pdfrwt beam="1">0</pdfrwt>
<pdfrwt beam="2">0</pdfrwt>
<totfact> 0.12358477E+12</totfact>
</mgrwt>
</event>
<event>
 4    1  0.3130345E+006  0.2159041E+01  0.7546771E-02  0.2881060E+00
         22   -1    0    0    0    0  0.00000000000E+00  0.00000000000E+00  0.15905846369E+00  0.15905846369E+00  0.00000000000E+00 0. -1.
         22   -1    0    0    0    0 -0.00000000000E+00 -0.00000000000E+00 -0.31746845739E+02  0.31746845739E+02  0.00000000000E+00 0.  1.
          2    1    1    2  501    0 -0.21409933708E+01 -0.27856662129E+00 -0.20216822492E+02  0.20331782267E+02  0.25500000000E-02 0.  1.
         -2    1    1    2    0  501  0.21409933708E+01  0.27856662129E+00 -0.11370964783E+02  0.11574121935E+02  0.25500000000E-02 0. -1.
<mgrwt>
<rscale>  0 0.21590411E+01</rscale>
<asrwt>0</asrwt>
<pdfrwt beam="1">0</pdfrwt>
<pdfrwt beam="2">0</pdfrwt>
<totfact> 0.29970632E+12</totfact>
</mgrwt>
</event>
<event>
 4    1  0.3130345E+006  0.2341199E+01  0.7546771E-02  0.2782969E+00
         22   -1    0    0    0    0  0.00000000000E+00  0.00000000000E+00  0.15126156804E+02  0.15126156804E+02  0.00000000000E+00 0. -1.
         22   -1    0    0    0    0 -0.00000000000E+00 -0.00000000000E+00 -0.62229366190E+00  0.62229366190E+00  0.00000000000E+00 0.  1.
          2    1    1    2  501    0 -0.15945122870E+01 -0.17142743361E+01  0.21628902144E+01  0.31873667054E+01  0.25500000000E-02 0.  1.
         -2    1    1    2    0  501  0.15945122870E+01  0.17142743361E+01  0.12340972928E+02  0.12561083760E+02  0.25500000000E-02 0. -1.
<mgrwt>
<rscale>  0 0.23411989E+01</rscale>
<asrwt>0</asrwt>
<pdfrwt beam="1">0</pdfrwt>
<pdfrwt beam="2">0</pdfrwt>
<totfact> 0.16422095E+12</totfact>
</mgrwt>
</event>
<event>
 4    1  0.3130345E+006  0.2080450E+01  0.7546771E-02  0.2928460E+00
         22   -1    0    0    0    0  0.00000000000E+00  0.00000000000E+00  0.15492985794E+02  0.15492985794E+02  0.00000000000E+00 0.  1.
         22   -1    0    0    0    0 -0.00000000000E+00 -0.00000000000E+00 -0.95511695347E+00  0.95511695347E+00  0.00000000000E+00 0. -1.
          2    1    1    2  501    0 -0.19942930430E+01  0.59250408712E+00  0.35142673645E+00  0.21099225314E+01  0.25500000000E-02 0. -1.
         -2    1    1    2    0  501  0.19942930430E+01 -0.59250408712E+00  0.14186442104E+02  0.14338180216E+02  0.25500000000E-02 0.  1.
<mgrwt>
<rscale>  0 0.20804500E+01</rscale>
<asrwt>0</asrwt>
<pdfrwt beam="1">0</pdfrwt>
<pdfrwt beam="2">0</pdfrwt>
<totfact> 0.97958984E+11</totfact>
</mgrwt>
</event>
<event>
 4    1  0.3130345E+006  0.2009094E+01  0.7546771E-02  0.2974615E+00
         22   -1    0    0    0    0  0.00000000000E+00  0.00000000000E+00  0.72939585243E+00  0.72939585243E+00  0.00000000000E+00 0.  1.
         22   -1    0    0    0    0 -0.00000000000E+00 -0.00000000000E+00 -0.11938120481E+02  0.11938120481E+02  0.00000000000E+00 0. -1.
          2    1    1    2  501    0  0.19552942163E+01 -0.46182020407E+00 -0.96536602592E+00  0.22289888828E+01  0.25500000000E-02 0.  1.
         -2    1    1    2    0  501 -0.19552942163E+01  0.46182020407E+00 -0.10243358603E+02  0.10438527451E+02  0.25500000000E-02 0. -1.
<mgrwt>
<rscale>  0 0.20090943E+01</rscale>
<asrwt>0</asrwt>
<pdfrwt beam="1">0</pdfrwt>
<pdfrwt beam="2">0</pdfrwt>
<totfact> 0.18326147E+12</totfact>
</mgrwt>
</event>
<event>
 4    1  0.3130345E+006  0.2051457E+01  0.7546771E-02  0.2946836E+00
         22   -1    0    0    0    0  0.00000000000E+00  0.00000000000E+00  0.17750241001E+01  0.17750241001E+01  0.00000000000E+00 0.  1.
         22   -1    0    0    0    0 -0.00000000000E+00 -0.00000000000E+00 -0.25570163640E+01  0.25570163640E+01  0.00000000000E+00 0. -1.
          2    1    1    2  501    0 -0.13752575231E+01 -0.15222142844E+01  0.19331083990E+00  0.20605448711E+01  0.25500000000E-02 0. -1.
         -2    1    1    2    0  501  0.13752575231E+01  0.15222142844E+01 -0.97530310374E+00  0.22714955930E+01  0.25500000000E-02 0.  1.
<mgrwt>
<rscale>  0 0.20514571E+01</rscale>
<asrwt>0</asrwt>
<pdfrwt beam="1">0</pdfrwt>
<pdfrwt beam="2">0</pdfrwt>
<totfact> 0.41346009E+12</totfact>
</mgrwt>
</event>
<event>
 4    1  0.3130345E+006  0.3280865E+01  0.7546771E-02  0.2440242E+00
         22   -1    0    0    0    0  0.00000000000E+00  0.00000000000E+00  0.13812384661E+00  0.13812384661E+00  0.00000000000E+00 0.  1.
         22   -1    0    0    0    0 -0.00000000000E+00 -0.00000000000E+00 -0.78017983050E+02  0.78017983050E+02  0.00000000000E+00 0. -1.
          2    1    1    2  501    0 -0.78407168920E+00  0.31857966247E+01 -0.37632149869E+02  0.37774896145E+02  0.25500000000E-02 0. -1.
         -2    1    1    2    0  501  0.78407168920E+00 -0.31857966247E+01 -0.40247709335E+02  0.40381210751E+02  0.25500000000E-02 0.  1.
<mgrwt>
<rscale>  0 0.32808650E+01</rscale>
<asrwt>0</asrwt>
<pdfrwt beam="1">0</pdfrwt>
<pdfrwt beam="2">0</pdfrwt>
<totfact> 0.10695462E+12</totfact>
</mgrwt>
</event>
<event>
 4    1  0.3130345E+006  0.3917272E+01  0.7546771E-02  0.2293393E+00
         22   -1    0    0    0    0  0.00000000000E+00  0.00000000000E+00  0.14568187330E+01  0.14568187330E+01  0.00000000000E+00 0.  1.
         22   -1    0    0    0    0 -0.00000000000E+00 -0.00000000000E+00 -0.33547968192E+02  0.33547968192E+02  0.00000000000E+00 0. -1.
          2    1    1    2  501    0 -0.30704021014E+01  0.24326211044E+01 -0.30542211550E+02  0.30792396908E+02  0.25500000000E-02 0. -1.
         -2    1    1    2    0  501  0.30704021014E+01 -0.24326211044E+01 -0.15489379088E+01  0.42123900164E+01  0.25500000000E-02 0.  1.
<mgrwt>
<rscale>  0 0.39172721E+01</rscale>
<asrwt>0</asrwt>
<pdfrwt beam="1">0</pdfrwt>
<pdfrwt beam="2">0</pdfrwt>
<totfact> 0.22889677E+11</totfact>
</mgrwt>
</event>
<event>
 4    1  0.3130345E+006  0.2823704E+01  0.7546771E-02  0.2581008E+00
         22   -1    0    0    0    0  0.00000000000E+00  0.00000000000E+00  0.44356987858E+01  0.44356987858E+01  0.00000000000E+00 0. -1.
         22   -1    0    0    0    0 -0.00000000000E+00 -0.00000000000E+00 -0.71490726456E+01  0.71490726456E+01  0.00000000000E+00 0.  1.
          2    1    1    2  501    0 -0.34975970406E+00  0.28019579815E+01 -0.63682369120E+01  0.69661860620E+01  0.25500000000E-02 0.  1.
         -2    1    1    2    0  501  0.34975970406E+00 -0.28019579815E+01  0.36548630522E+01  0.46185853693E+01  0.25500000000E-02 0. -1.
<mgrwt>
<rscale>  0 0.28237045E+01</rscale>
<asrwt>0</asrwt>
<pdfrwt beam="1">0</pdfrwt>
<pdfrwt beam="2">0</pdfrwt>
<totfact> 0.42250369E+11</totfact>
</mgrwt>
</event>
<event>
 4    1  0.3130345E+006  0.2245238E+01  0.7546771E-02  0.2832752E+00
         22   -1    0    0    0    0  0.00000000000E+00  0.00000000000E+00  0.14059008424E+02  0.14059008424E+02  0.00000000000E+00 0.  1.
         22   -1    0    0    0    0 -0.00000000000E+00 -0.00000000000E+00 -0.82974253129E+01  0.82974253129E+01  0.00000000000E+00 0. -1.
          2    1    1    2  501    0  0.22138182229E+01  0.37429281677E+00 -0.80532290483E+01  0.83603582964E+01  0.25500000000E-02 0. -1.
         -2    1    1    2    0  501 -0.22138182229E+01 -0.37429281677E+00  0.13814812159E+02  0.13996075440E+02  0.25500000000E-02 0.  1.
<mgrwt>
<rscale>  0 0.22452378E+01</rscale>
<asrwt>0</asrwt>
<pdfrwt beam="1">0</pdfrwt>
<pdfrwt beam="2">0</pdfrwt>
<totfact> 0.88325411E+10</totfact>
</mgrwt>
</event>
<event>
 4    1  0.3130345E+006  0.2205277E+01  0.7546771E-02  0.2854697E+00
         22   -1    0    0    0    0  0.00000000000E+00  0.00000000000E+00  0.13245215077E+02  0.13245215077E+02  0.00000000000E+00 0.  1.
         22   -1    0    0    0    0 -0.00000000000E+00 -0.00000000000E+00 -0.36717030230E+00  0.36717030230E+00  0.00000000000E+00 0. -1.
          2    1    1    2  501    0 -0.61076743994E+00  0.21190096207E+01  0.64455570673E+01  0.68123748464E+01  0.25500000000E-02 0. -1.
         -2    1    1    2    0  501  0.61076743994E+00 -0.21190096207E+01  0.64324877079E+01  0.68000105334E+01  0.25500000000E-02 0.  1.
<mgrwt>
<rscale>  0 0.22052767E+01</rscale>
<asrwt>0</asrwt>
<pdfrwt beam="1">0</pdfrwt>
<pdfrwt beam="2">0</pdfrwt>
<totfact> 0.35058550E+12</totfact>
</mgrwt>
</event>
<event>
 4    1  0.3130345E+006  0.3564204E+01  0.7546771E-02  0.2369239E+00
         22   -1    0    0    0    0  0.00000000000E+00  0.00000000000E+00  0.24557990896E+00  0.24557990896E+00  0.00000000000E+00 0.  1.
         22   -1    0    0    0    0 -0.00000000000E+00 -0.00000000000E+00 -0.55525194847E+02  0.55525194847E+02  0.00000000000E+00 0. -1.
          2    1    1    2  501    0  0.23735657900E+01  0.26588955730E+01 -0.20348271611E+02  0.20658066325E+02  0.25500000000E-02 0.  1.
         -2    1    1    2    0  501 -0.23735657900E+01 -0.26588955730E+01 -0.34931343327E+02  0.35112708431E+02  0.25500000000E-02 0. -1.
<mgrwt>
<rscale>  0 0.35642035E+01</rscale>
<asrwt>0</asrwt>
<pdfrwt beam="1">0</pdfrwt>
<pdfrwt beam="2">0</pdfrwt>
<totfact> 0.89125661E+11</totfact>
</mgrwt>
</event>
<event>
 4    1  0.3130345E+006  0.2972377E+01  0.7546771E-02  0.2530982E+00
         22   -1    0    0    0    0  0.00000000000E+00  0.00000000000E+00  0.93572780301E+01  0.93572780301E+01  0.00000000000E+00 0.  1.
         22   -1    0    0    0    0 -0.00000000000E+00 -0.00000000000E+00 -0.14024361342E+01  0.14024361342E+01  0.00000000000E+00 0. -1.
          2    1    1    2  501    0  0.13084775106E+01 -0.26688775662E+01  0.90217638284E+00  0.31062758389E+01  0.25500000000E-02 0. -1.
         -2    1    1    2    0  501 -0.13084775106E+01  0.26688775662E+01  0.70526655130E+01  0.76534383254E+01  0.25500000000E-02 0.  1.
<mgrwt>
<rscale>  0 0.29723774E+01</rscale>
<asrwt>0</asrwt>
<pdfrwt beam="1">0</pdfrwt>
<pdfrwt beam="2">0</pdfrwt>
<totfact> 0.11672664E+12</totfact>
</mgrwt>
</event>
<event>
 4    1  0.3130345E+006  0.2090630E+01  0.7546771E-02  0.2922125E+00
         22   -1    0    0    0    0  0.00000000000E+00  0.00000000000E+00  0.18470908927E+02  0.18470908927E+02  0.00000000000E+00 0.  1.
         22   -1    0    0    0    0 -0.00000000000E+00 -0.00000000000E+00 -0.26212124873E+00  0.26212124873E+00  0.00000000000E+00 0. -1.
          2    1    1    2  501    0 -0.12274824038E+01  0.16923402753E+01  0.61833431832E+01  0.65272098237E+01  0.25500000000E-02 0. -1.
         -2    1    1    2    0  501  0.12274824038E+01 -0.16923402753E+01  0.12025444495E+02  0.12205820352E+02  0.25500000000E-02 0.  1.
<mgrwt>
<rscale>  0 0.20906303E+01</rscale>
<asrwt>0</asrwt>
<pdfrwt beam="1">0</pdfrwt>
<pdfrwt beam="2">0</pdfrwt>
<totfact> 0.33953766E+12</totfact>
</mgrwt>
</event>
<event>
 4    1  0.3130345E+006  0.2410208E+01  0.7546771E-02  0.2749490E+00
         22   -1    0    0    0    0  0.00000000000E+00  0.00000000000E+00  0.28805354587E+02  0.28805354587E+02  0.00000000000E+00 0. -1.
         22   -1    0    0    0    0 -0.00000000000E+00 -0.00000000000E+00 -0.10984312202E+01  0.10984312202E+01  0.00000000000E+00 0.  1.
          2    1    1    2  501    0 -0.85646137325E+00  0.22529030982E+01  0.34366698803E+00  0.24345866086E+01  0.25500000000E-02 0.  1.
         -2    1    1    2    0  501  0.85646137325E+00 -0.22529030982E+01  0.27363256379E+02  0.27469199198E+02  0.25500000000E-02 0. -1.
<mgrwt>
<rscale>  0 0.24102085E+01</rscale>
<asrwt>0</asrwt>
<pdfrwt beam="1">0</pdfrwt>
<pdfrwt beam="2">0</pdfrwt>
<totfact> 0.38441748E+11</totfact>
</mgrwt>
</event>
<event>
 4    1  0.3130345E+006  0.2715081E+01  0.7546771E-02  0.2620686E+00
         22   -1    0    0    0    0  0.00000000000E+00  0.00000000000E+00  0.84605258509E+01  0.84605258509E+01  0.00000000000E+00 0. -1.
         22   -1    0    0    0    0 -0.00000000000E+00 -0.00000000000E+00 -0.88513521943E+00  0.88513521943E+00  0.00000000000E+00 0.  1.
          2    1    1    2  501    0 -0.27126103142E+01  0.11577170210E+00  0.32035066062E+01  0.41992998086E+01  0.25500000000E-02 0.  1.
         -2    1    1    2    0  501  0.27126103142E+01 -0.11577170210E+00  0.43718840252E+01  0.51463612617E+01  0.25500000000E-02 0. -1.
<mgrwt>
<rscale>  0 0.27150809E+01</rscale>
<asrwt>0</asrwt>
<pdfrwt beam="1">0</pdfrwt>
<pdfrwt beam="2">0</pdfrwt>
<totfact> 0.22316405E+12</totfact>
</mgrwt>
</event>
<event>
 4    1  0.3130345E+006  0.2148640E+01  0.7546771E-02  0.2887140E+00
         22   -1    0    0    0    0  0.00000000000E+00  0.00000000000E+00  0.95044546229E+00  0.95044546229E+00  0.00000000000E+00 0. -1.
         22   -1    0    0    0    0 -0.00000000000E+00 -0.00000000000E+00 -0.13407831293E+02  0.13407831293E+02  0.00000000000E+00 0.  1.
          2    1    1    2  501    0 -0.23044433697E+00 -0.21362448803E+01 -0.11961774858E+02  0.12153218135E+02  0.25500000000E-02 0.  1.
         -2    1    1    2    0  501  0.23044433697E+00  0.21362448803E+01 -0.49561097307E+00  0.22050586206E+01  0.25500000000E-02 0. -1.
<mgrwt>
<rscale>  0 0.21486399E+01</rscale>
<asrwt>0</asrwt>
<pdfrwt beam="1">0</pdfrwt>
<pdfrwt beam="2">0</pdfrwt>
<totfact> 0.11765384E+12</totfact>
</mgrwt>
</event>
<event>
 4    1  0.3130345E+006  0.2385823E+01  0.7546771E-02  0.2761112E+00
         22   -1    0    0    0    0  0.00000000000E+00  0.00000000000E+00  0.23015519867E+00  0.23015519867E+00  0.00000000000E+00 0. -1.
         22   -1    0    0    0    0 -0.00000000000E+00 -0.00000000000E+00 -0.75198080826E+02  0.75198080826E+02  0.00000000000E+00 0.  1.
          2    1    1    2  501    0  0.23339860367E+01  0.49462363165E+00 -0.68379892903E+02  0.68421501761E+02  0.25500000000E-02 0.  1.
         -2    1    1    2    0  501 -0.23339860367E+01 -0.49462363165E+00 -0.65880327241E+01  0.70067342630E+01  0.25500000000E-02 0. -1.
<mgrwt>
<rscale>  0 0.23858227E+01</rscale>
<asrwt>0</asrwt>
<pdfrwt beam="1">0</pdfrwt>
<pdfrwt beam="2">0</pdfrwt>
<totfact> 0.63680804E+11</totfact>
</mgrwt>
</event>
<event>
 4    1  0.3130345E+006  0.2421881E+01  0.7546771E-02  0.2744005E+00
         22   -1    0    0    0    0  0.00000000000E+00  0.00000000000E+00  0.16999344080E+01  0.16999344080E+01  0.00000000000E+00 0. -1.
         22   -1    0    0    0    0 -0.00000000000E+00 -0.00000000000E+00 -0.79686230592E+01  0.79686230592E+01  0.00000000000E+00 0.  1.
          2    1    1    2  501    0  0.73970289108E+00  0.23061527511E+01 -0.67745201495E+01  0.71944166293E+01  0.25500000000E-02 0.  1.
         -2    1    1    2    0  501 -0.73970289108E+00 -0.23061527511E+01  0.50583149824E+00  0.24741408378E+01  0.25500000000E-02 0. -1.
<mgrwt>
<rscale>  0 0.24218810E+01</rscale>
<asrwt>0</asrwt>
<pdfrwt beam="1">0</pdfrwt>
<pdfrwt beam="2">0</pdfrwt>
<totfact> 0.11350290E+12</totfact>
</mgrwt>
</event>
<event>
 4    1  0.3130345E+006  0.2875382E+01  0.7546771E-02  0.2563090E+00
         22   -1    0    0    0    0  0.00000000000E+00  0.00000000000E+00  0.95216428213E+02  0.95216428213E+02  0.00000000000E+00 0. -1.
         22   -1    0    0    0    0 -0.00000000000E+00 -0.00000000000E+00 -0.12497834930E+00  0.12497834930E+00  0.00000000000E+00 0.  1.
          2    1    1    2  501    0  0.28651519646E+01  0.24231723882E+00  0.21209020318E+02  0.21403045642E+02  0.25500000000E-02 0.  1.
         -2    1    1    2    0  501 -0.28651519646E+01 -0.24231723882E+00  0.73882429546E+02  0.73938360920E+02  0.25500000000E-02 0. -1.
<mgrwt>
<rscale>  0 0.28753817E+01</rscale>
<asrwt>0</asrwt>
<pdfrwt beam="1">0</pdfrwt>
<pdfrwt beam="2">0</pdfrwt>
<totfact> 0.90694878E+11</totfact>
</mgrwt>
</event>
<event>
 4    1  0.3130345E+006  0.2602373E+01  0.7546771E-02  0.2665048E+00
         22   -1    0    0    0    0  0.00000000000E+00  0.00000000000E+00  0.90618527980E+01  0.90618527980E+01  0.00000000000E+00 0. -1.
         22   -1    0    0    0    0 -0.00000000000E+00 -0.00000000000E+00 -0.80801362979E+00  0.80801362979E+00  0.00000000000E+00 0.  1.
          2    1    1    2  501    0  0.26021789700E+01 -0.31672579892E-01  0.27746968407E+01  0.38041145625E+01  0.25500000000E-02 0. -1.
         -2    1    1    2    0  501 -0.26021789700E+01  0.31672579892E-01  0.54791423275E+01  0.60657518653E+01  0.25500000000E-02 0.  1.
<mgrwt>
<rscale>  0 0.26023730E+01</rscale>
<asrwt>0</asrwt>
<pdfrwt beam="1">0</pdfrwt>
<pdfrwt beam="2">0</pdfrwt>
<totfact> 0.22791093E+12</totfact>
</mgrwt>
</event>
<event>
 4    1  0.3130345E+006  0.2045714E+01  0.7546771E-02  0.2950536E+00
         22   -1    0    0    0    0  0.00000000000E+00  0.00000000000E+00  0.33400095335E+02  0.33400095335E+02  0.00000000000E+00 0. -1.
         22   -1    0    0    0    0 -0.00000000000E+00 -0.00000000000E+00 -0.12530385554E+00  0.12530385554E+00  0.00000000000E+00 0.  1.
          2    1    1    2  501    0 -0.10713676548E+01  0.17427306746E+01  0.16757642369E+02  0.16882047362E+02  0.25500000000E-02 0.  1.
         -2    1    1    2    0  501  0.10713676548E+01 -0.17427306746E+01  0.16517149111E+02  0.16643351829E+02  0.25500000000E-02 0. -1.
<mgrwt>
<rscale>  0 0.20457139E+01</rscale>
<asrwt>0</asrwt>
<pdfrwt beam="1">0</pdfrwt>
<pdfrwt beam="2">0</pdfrwt>
<totfact> 0.36605362E+12</totfact>
</mgrwt>
</event>
<event>
 4    1  0.3130345E+006  0.3609024E+01  0.7546771E-02  0.2358903E+00
         22   -1    0    0    0    0  0.00000000000E+00  0.00000000000E+00  0.16571232380E+02  0.16571232380E+02  0.00000000000E+00 0.  1.
         22   -1    0    0    0    0 -0.00000000000E+00 -0.00000000000E+00 -0.82415202919E+00  0.82415202919E+00  0.00000000000E+00 0. -1.
          2    1    1    2  501    0  0.32814759565E+01  0.15023197861E+01  0.60022714432E+01  0.70037360154E+01  0.25500000000E-02 0.  1.
         -2    1    1    2    0  501 -0.32814759565E+01 -0.15023197861E+01  0.97448089080E+01  0.10391648394E+02  0.25500000000E-02 0. -1.
<mgrwt>
<rscale>  0 0.36090242E+01</rscale>
<asrwt>0</asrwt>
<pdfrwt beam="1">0</pdfrwt>
<pdfrwt beam="2">0</pdfrwt>
<totfact> 0.10666410E+12</totfact>
</mgrwt>
</event>
<event>
 4    1  0.3130345E+006  0.3060413E+01  0.7546771E-02  0.2503427E+00
         22   -1    0    0    0    0  0.00000000000E+00  0.00000000000E+00  0.13630887827E+02  0.13630887827E+02  0.00000000000E+00 0. -1.
         22   -1    0    0    0    0 -0.00000000000E+00 -0.00000000000E+00 -0.98824825831E+00  0.98824825831E+00  0.00000000000E+00 0.  1.
          2    1    1    2  501    0 -0.75578804105E+00  0.29656201421E+01  0.22864383541E+01  0.38201996335E+01  0.25500000000E-02 0. -1.
         -2    1    1    2    0  501  0.75578804105E+00 -0.29656201421E+01  0.10356201215E+02  0.10798936452E+02  0.25500000000E-02 0.  1.
<mgrwt>
<rscale>  0 0.30604125E+01</rscale>
<asrwt>0</asrwt>
<pdfrwt beam="1">0</pdfrwt>
<pdfrwt beam="2">0</pdfrwt>
<totfact> 0.11028796E+12</totfact>
</mgrwt>
</event>
<event>
 4    1  0.3130345E+006  0.2332168E+01  0.7546771E-02  0.2787488E+00
         22   -1    0    0    0    0  0.00000000000E+00  0.00000000000E+00  0.22873992402E+01  0.22873992402E+01  0.00000000000E+00 0.  1.
         22   -1    0    0    0    0 -0.00000000000E+00 -0.00000000000E+00 -0.38965173485E+01  0.38965173485E+01  0.00000000000E+00 0. -1.
          2    1    1    2  501    0 -0.23094304681E+01 -0.32485779850E+00  0.11257724799E+01  0.25896663598E+01  0.25500000000E-02 0.  1.
         -2    1    1    2    0  501  0.23094304681E+01  0.32485779850E+00 -0.27348905882E+01  0.35942502289E+01  0.25500000000E-02 0. -1.
<mgrwt>
<rscale>  0 0.23321681E+01</rscale>
<asrwt>0</asrwt>
<pdfrwt beam="1">0</pdfrwt>
<pdfrwt beam="2">0</pdfrwt>
<totfact> 0.18834980E+12</totfact>
</mgrwt>
</event>
<event>
 4    1  0.3130345E+006  0.3107571E+01  0.7546771E-02  0.2489242E+00
         22   -1    0    0    0    0  0.00000000000E+00  0.00000000000E+00  0.74188726978E+00  0.74188726978E+00  0.00000000000E+00 0. -1.
         22   -1    0    0    0    0 -0.00000000000E+00 -0.00000000000E+00 -0.13720035662E+02  0.13720035662E+02  0.00000000000E+00 0.  1.
          2    1    1    2  501    0  0.30952482485E+01  0.27646237995E+00 -0.81261480171E+01  0.87000736357E+01  0.25500000000E-02 0.  1.
         -2    1    1    2    0  501 -0.30952482485E+01 -0.27646237995E+00 -0.48520003747E+01  0.57618492957E+01  0.25500000000E-02 0. -1.
<mgrwt>
<rscale>  0 0.31075713E+01</rscale>
<asrwt>0</asrwt>
<pdfrwt beam="1">0</pdfrwt>
<pdfrwt beam="2">0</pdfrwt>
<totfact> 0.15166492E+12</totfact>
</mgrwt>
</event>
<event>
 4    1  0.3130345E+006  0.2056096E+01  0.7546771E-02  0.2943861E+00
         22   -1    0    0    0    0  0.00000000000E+00  0.00000000000E+00  0.71860616734E+01  0.71860616734E+01  0.00000000000E+00 0. -1.
         22   -1    0    0    0    0 -0.00000000000E+00 -0.00000000000E+00 -0.69965259539E+00  0.69965259539E+00  0.00000000000E+00 0.  1.
          2    1    1    2  501    0 -0.20033669461E+01 -0.46265191127E+00  0.48162000981E+01  0.52367275850E+01  0.25500000000E-02 0. -1.
         -2    1    1    2    0  501  0.20033669461E+01  0.46265191127E+00  0.16702089799E+01  0.26489866838E+01  0.25500000000E-02 0.  1.
<mgrwt>
<rscale>  0 0.20560964E+01</rscale>
<asrwt>0</asrwt>
<pdfrwt beam="1">0</pdfrwt>
<pdfrwt beam="2">0</pdfrwt>
<totfact> 0.35469186E+12</totfact>
</mgrwt>
</event>
<event>
 4    1  0.3130345E+006  0.2604222E+01  0.7546771E-02  0.2664292E+00
         22   -1    0    0    0    0  0.00000000000E+00  0.00000000000E+00  0.26345921763E+01  0.26345921763E+01  0.00000000000E+00 0.  1.
         22   -1    0    0    0    0 -0.00000000000E+00 -0.00000000000E+00 -0.42196781462E+01  0.42196781462E+01  0.00000000000E+00 0. -1.
          2    1    1    2  501    0 -0.24760825875E+00  0.25924229400E+01 -0.29326590872E+01  0.39220482371E+01  0.25500000000E-02 0. -1.
         -2    1    1    2    0  501  0.24760825875E+00 -0.25924229400E+01  0.13475731173E+01  0.29322220855E+01  0.25500000000E-02 0.  1.
<mgrwt>
<rscale>  0 0.26042222E+01</rscale>
<asrwt>0</asrwt>
<pdfrwt beam="1">0</pdfrwt>
<pdfrwt beam="2">0</pdfrwt>
<totfact> 0.14550745E+12</totfact>
</mgrwt>
</event>
<event>
 4    1  0.3130345E+006  0.2330860E+01  0.7546771E-02  0.2788146E+00
         22   -1    0    0    0    0  0.00000000000E+00  0.00000000000E+00  0.30504313553E+00  0.30504313553E+00  0.00000000000E+00 0.  1.
         22   -1    0    0    0    0 -0.00000000000E+00 -0.00000000000E+00 -0.24504502950E+02  0.24504502950E+02  0.00000000000E+00 0. -1.
          2    1    1    2  501    0  0.21956379996E+01  0.78235290675E+00 -0.18583317960E+02  0.18728924560E+02  0.25500000000E-02 0. -1.
         -2    1    1    2    0  501 -0.21956379996E+01 -0.78235290675E+00 -0.56161418545E+01  0.60806215248E+01  0.25500000000E-02 0.  1.
<mgrwt>
<rscale>  0 0.23308601E+01</rscale>
<asrwt>0</asrwt>
<pdfrwt beam="1">0</pdfrwt>
<pdfrwt beam="2">0</pdfrwt>
<totfact> 0.20117065E+12</totfact>
</mgrwt>
</event>
<event>
 4    1  0.3130345E+006  0.2376443E+01  0.7546771E-02  0.2765642E+00
         22   -1    0    0    0    0  0.00000000000E+00  0.00000000000E+00  0.12602517334E+02  0.12602517334E+02  0.00000000000E+00 0. -1.
         22   -1    0    0    0    0 -0.00000000000E+00 -0.00000000000E+00 -0.70649878065E+00  0.70649878065E+00  0.00000000000E+00 0.  1.
          2    1    1    2  501    0  0.23757444578E+01 -0.57555744416E-01  0.19237500685E+01  0.30574981964E+01  0.25500000000E-02 0.  1.
         -2    1    1    2    0  501 -0.23757444578E+01  0.57555744416E-01  0.99722684844E+01  0.10251517918E+02  0.25500000000E-02 0. -1.
<mgrwt>
<rscale>  0 0.23764429E+01</rscale>
<asrwt>0</asrwt>
<pdfrwt beam="1">0</pdfrwt>
<pdfrwt beam="2">0</pdfrwt>
<totfact> 0.17788260E+12</totfact>
</mgrwt>
</event>
<event>
 4    1  0.3130345E+006  0.2144236E+01  0.7546771E-02  0.2889732E+00
         22   -1    0    0    0    0  0.00000000000E+00  0.00000000000E+00  0.12615760280E+01  0.12615760280E+01  0.00000000000E+00 0. -1.
         22   -1    0    0    0    0 -0.00000000000E+00 -0.00000000000E+00 -0.64900193729E+01  0.64900193729E+01  0.00000000000E+00 0.  1.
          2    1    1    2  501    0  0.20859090828E+01  0.49671585822E+00 -0.51806122253E+01  0.56068255615E+01  0.25500000000E-02 0.  1.
         -2    1    1    2    0  501 -0.20859090828E+01 -0.49671585822E+00 -0.47831119569E-01  0.21447698394E+01  0.25500000000E-02 0. -1.
<mgrwt>
<rscale>  0 0.21442364E+01</rscale>
<asrwt>0</asrwt>
<pdfrwt beam="1">0</pdfrwt>
<pdfrwt beam="2">0</pdfrwt>
<totfact> 0.20448669E+12</totfact>
</mgrwt>
</event>
<event>
 4    1  0.3130345E+006  0.2271270E+01  0.7546771E-02  0.2818851E+00
         22   -1    0    0    0    0  0.00000000000E+00  0.00000000000E+00  0.62552028739E+00  0.62552028739E+00  0.00000000000E+00 0. -1.
         22   -1    0    0    0    0 -0.00000000000E+00 -0.00000000000E+00 -0.13151273907E+02  0.13151273907E+02  0.00000000000E+00 0.  1.
          2    1    1    2  501    0  0.22266765168E+01  0.44785473677E+00 -0.10469381906E+02  0.10712918658E+02  0.25500000000E-02 0.  1.
         -2    1    1    2    0  501 -0.22266765168E+01 -0.44785473677E+00 -0.20563717136E+01  0.30638755364E+01  0.25500000000E-02 0. -1.
<mgrwt>
<rscale>  0 0.22712703E+01</rscale>
<asrwt>0</asrwt>
<pdfrwt beam="1">0</pdfrwt>
<pdfrwt beam="2">0</pdfrwt>
<totfact> 0.19384613E+12</totfact>
</mgrwt>
</event>
<event>
 4    1  0.3130345E+006  0.2354932E+01  0.7546771E-02  0.2776160E+00
         22   -1    0    0    0    0  0.00000000000E+00  0.00000000000E+00  0.19146585346E+02  0.19146585346E+02  0.00000000000E+00 0. -1.
         22   -1    0    0    0    0 -0.00000000000E+00 -0.00000000000E+00 -0.30369120636E+00  0.30369120636E+00  0.00000000000E+00 0.  1.
          2    1    1    2  501    0  0.18140111805E+01  0.15016858065E+01  0.73299041680E+01  0.76989089122E+01  0.25500000000E-02 0. -1.
         -2    1    1    2    0  501 -0.18140111805E+01 -0.15016858065E+01  0.11512989972E+02  0.11751367640E+02  0.25500000000E-02 0.  1.
<mgrwt>
<rscale>  0 0.23549317E+01</rscale>
<asrwt>0</asrwt>
<pdfrwt beam="1">0</pdfrwt>
<pdfrwt beam="2">0</pdfrwt>
<totfact> 0.27535270E+12</totfact>
</mgrwt>
</event>
<event>
 4    1  0.3130345E+006  0.3461526E+01  0.7546771E-02  0.2393794E+00
         22   -1    0    0    0    0  0.00000000000E+00  0.00000000000E+00  0.12873748653E+02  0.12873748653E+02  0.00000000000E+00 0.  1.
         22   -1    0    0    0    0 -0.00000000000E+00 -0.00000000000E+00 -0.93399363768E+00  0.93399363768E+00  0.00000000000E+00 0. -1.
          2    1    1    2  501    0  0.28185943092E+01  0.20093977032E+01  0.55626256004E+01  0.65517145147E+01  0.25500000000E-02 0.  1.
         -2    1    1    2    0  501 -0.28185943092E+01 -0.20093977032E+01  0.63771294153E+01  0.72560277763E+01  0.25500000000E-02 0. -1.
<mgrwt>
<rscale>  0 0.34615256E+01</rscale>
<asrwt>0</asrwt>
<pdfrwt beam="1">0</pdfrwt>
<pdfrwt beam="2">0</pdfrwt>
<totfact> 0.12615280E+12</totfact>
</mgrwt>
</event>
<event>
 4    1  0.3130345E+006  0.2709079E+01  0.7546771E-02  0.2622963E+00
         22   -1    0    0    0    0  0.00000000000E+00  0.00000000000E+00  0.15989577522E+02  0.15989577522E+02  0.00000000000E+00 0. -1.
         22   -1    0    0    0    0 -0.00000000000E+00 -0.00000000000E+00 -0.85512108032E+00  0.85512108032E+00  0.00000000000E+00 0.  1.
          2    1    1    2  501    0 -0.11726955900E+00  0.27065382767E+01  0.18348198405E+01  0.32719523136E+01  0.25500000000E-02 0.  1.
         -2    1    1    2    0  501  0.11726955900E+00 -0.27065382767E+01  0.13299636601E+02  0.13572746289E+02  0.25500000000E-02 0. -1.
<mgrwt>
<rscale>  0 0.27090788E+01</rscale>
<asrwt>0</asrwt>
<pdfrwt beam="1">0</pdfrwt>
<pdfrwt beam="2">0</pdfrwt>
<totfact> 0.10689000E+12</totfact>
</mgrwt>
</event>
<event>
 4    1  0.3130345E+006  0.2004402E+01  0.7546771E-02  0.2977763E+00
         22   -1    0    0    0    0  0.00000000000E+00  0.00000000000E+00  0.22935289694E+02  0.22935289694E+02  0.00000000000E+00 0.  1.
         22   -1    0    0    0    0 -0.00000000000E+00 -0.00000000000E+00 -0.22297157647E+00  0.22297157647E+00  0.00000000000E+00 0. -1.
          2    1    1    2  501    0  0.11375594534E+01 -0.16503274521E+01  0.59949639540E+01  0.63211724800E+01  0.25500000000E-02 0. -1.
         -2    1    1    2    0  501 -0.11375594534E+01  0.16503274521E+01  0.16717354164E+02  0.16837088791E+02  0.25500000000E-02 0.  1.
<mgrwt>
<rscale>  0 0.20044023E+01</rscale>
<asrwt>0</asrwt>
<pdfrwt beam="1">0</pdfrwt>
<pdfrwt beam="2">0</pdfrwt>
<totfact> 0.31046912E+12</totfact>
</mgrwt>
</event>
<event>
 4    1  0.3130345E+006  0.6662105E+01  0.7546771E-02  0.1964947E+00
         22   -1    0    0    0    0  0.00000000000E+00  0.00000000000E+00  0.16943123828E+02  0.16943123828E+02  0.00000000000E+00 0. -1.
         22   -1    0    0    0    0 -0.00000000000E+00 -0.00000000000E+00 -0.27163354664E+01  0.27163354664E+01  0.00000000000E+00 0.  1.
          2    1    1    2  501    0  0.64146049964E+01 -0.17990208993E+01  0.52580782523E+01  0.84871094529E+01  0.25500000000E-02 0. -1.
         -2    1    1    2    0  501 -0.64146049964E+01  0.17990208993E+01  0.89687101092E+01  0.11172349842E+02  0.25500000000E-02 0.  1.
<mgrwt>
<rscale>  0 0.66621048E+01</rscale>
<asrwt>0</asrwt>
<pdfrwt beam="1">0</pdfrwt>
<pdfrwt beam="2">0</pdfrwt>
<totfact> 0.26297904E+11</totfact>
</mgrwt>
</event>
<event>
 4    1  0.3130345E+006  0.3092613E+01  0.7546771E-02  0.2493700E+00
         22   -1    0    0    0    0  0.00000000000E+00  0.00000000000E+00  0.53159376208E+00  0.53159376208E+00  0.00000000000E+00 0.  1.
         22   -1    0    0    0    0 -0.00000000000E+00 -0.00000000000E+00 -0.18164845026E+02  0.18164845026E+02  0.00000000000E+00 0. -1.
          2    1    1    2  501    0  0.29689860149E+01 -0.86566286292E+00 -0.97293980254E+01  0.10209086276E+02  0.25500000000E-02 0.  1.
         -2    1    1    2    0  501 -0.29689860149E+01  0.86566286292E+00 -0.79038532388E+01  0.84873525125E+01  0.25500000000E-02 0. -1.
<mgrwt>
<rscale>  0 0.30926132E+01</rscale>
<asrwt>0</asrwt>
<pdfrwt beam="1">0</pdfrwt>
<pdfrwt beam="2">0</pdfrwt>
<totfact> 0.15652920E+12</totfact>
</mgrwt>
</event>
<event>
 4    1  0.3130345E+006  0.2247830E+01  0.7546771E-02  0.2831354E+00
         22   -1    0    0    0    0  0.00000000000E+00  0.00000000000E+00  0.70555276979E+01  0.70555276979E+01  0.00000000000E+00 0.  1.
         22   -1    0    0    0    0 -0.00000000000E+00 -0.00000000000E+00 -0.11918192422E+01  0.11918192422E+01  0.00000000000E+00 0. -1.
          2    1    1    2  501    0 -0.13410772986E+01  0.18039522572E+01  0.32668087402E+00  0.22714442460E+01  0.25500000000E-02 0. -1.
         -2    1    1    2    0  501  0.13410772986E+01 -0.18039522572E+01  0.55370275816E+01  0.59759026941E+01  0.25500000000E-02 0.  1.
<mgrwt>
<rscale>  0 0.22478297E+01</rscale>
<asrwt>0</asrwt>
<pdfrwt beam="1">0</pdfrwt>
<pdfrwt beam="2">0</pdfrwt>
<totfact> 0.19753103E+12</totfact>
</mgrwt>
</event>
<event>
 4    1  0.3130345E+006  0.2031369E+01  0.7546771E-02  0.2959867E+00
         22   -1    0    0    0    0  0.00000000000E+00  0.00000000000E+00  0.44822088564E+00  0.44822088564E+00  0.00000000000E+00 0.  1.
         22   -1    0    0    0    0 -0.00000000000E+00 -0.00000000000E+00 -0.15814625661E+02  0.15814625661E+02  0.00000000000E+00 0. -1.
          2    1    1    2  501    0 -0.16449779072E+01 -0.11918484778E+01 -0.12939529844E+02  0.13098011078E+02  0.25500000000E-02 0. -1.
         -2    1    1    2    0  501  0.16449779072E+01  0.11918484778E+01 -0.24268749311E+01  0.31648354686E+01  0.25500000000E-02 0.  1.
<mgrwt>
<rscale>  0 0.20313694E+01</rscale>
<asrwt>0</asrwt>
<pdfrwt beam="1">0</pdfrwt>
<pdfrwt beam="2">0</pdfrwt>
<totfact> 0.22523247E+12</totfact>
</mgrwt>
</event>
<event>
 4    1  0.3130345E+006  0.2207930E+01  0.7546771E-02  0.2853216E+00
         22   -1    0    0    0    0  0.00000000000E+00  0.00000000000E+00  0.11402573508E+00  0.11402573508E+00  0.00000000000E+00 0.  1.
         22   -1    0    0    0    0 -0.00000000000E+00 -0.00000000000E+00 -0.52261471209E+02  0.52261471209E+02  0.00000000000E+00 0. -1.
          2    1    1    2  501    0 -0.16785585043E+01 -0.14343608069E+01 -0.14903549110E+02  0.15066211606E+02  0.25500000000E-02 0.  1.
         -2    1    1    2    0  501  0.16785585043E+01  0.14343608069E+01 -0.37243896364E+02  0.37309285338E+02  0.25500000000E-02 0. -1.
<mgrwt>
<rscale>  0 0.22079303E+01</rscale>
<asrwt>0</asrwt>
<pdfrwt beam="1">0</pdfrwt>
<pdfrwt beam="2">0</pdfrwt>
<totfact> 0.22688524E+12</totfact>
</mgrwt>
</event>
<event>
 4    1  0.3130345E+006  0.2307873E+01  0.7546771E-02  0.2799812E+00
         22   -1    0    0    0    0  0.00000000000E+00  0.00000000000E+00  0.69861128121E+01  0.69861128121E+01  0.00000000000E+00 0.  1.
         22   -1    0    0    0    0 -0.00000000000E+00 -0.00000000000E+00 -0.84551446751E+00  0.84551446751E+00  0.00000000000E+00 0. -1.
          2    1    1    2  501    0  0.22423630449E+01 -0.54596483023E+00  0.18426451889E+01  0.29532384624E+01  0.25500000000E-02 0. -1.
         -2    1    1    2    0  501 -0.22423630449E+01  0.54596483023E+00  0.42979531557E+01  0.48783888172E+01  0.25500000000E-02 0.  1.
<mgrwt>
<rscale>  0 0.23078726E+01</rscale>
<asrwt>0</asrwt>
<pdfrwt beam="1">0</pdfrwt>
<pdfrwt beam="2">0</pdfrwt>
<totfact> 0.29583254E+12</totfact>
</mgrwt>
</event>
<event>
 4    1  0.3130345E+006  0.3439537E+01  0.7546771E-02  0.2399218E+00
         22   -1    0    0    0    0  0.00000000000E+00  0.00000000000E+00  0.15373559580E+01  0.15373559580E+01  0.00000000000E+00 0.  1.
         22   -1    0    0    0    0 -0.00000000000E+00 -0.00000000000E+00 -0.20777850485E+02  0.20777850485E+02  0.00000000000E+00 0. -1.
          2    1    1    2  501    0 -0.20550402130E+01 -0.27581191740E+01 -0.18473783798E+02  0.18791250783E+02  0.25500000000E-02 0. -1.
         -2    1    1    2    0  501  0.20550402130E+01  0.27581191740E+01 -0.76671072946E+00  0.35239556609E+01  0.25500000000E-02 0.  1.
<mgrwt>
<rscale>  0 0.34395375E+01</rscale>
<asrwt>0</asrwt>
<pdfrwt beam="1">0</pdfrwt>
<pdfrwt beam="2">0</pdfrwt>
<totfact> 0.39450688E+11</totfact>
</mgrwt>
</event>
<event>
 4    1  0.3130345E+006  0.1125333E+02  0.7546771E-02  0.1731251E+00
         22   -1    0    0    0    0  0.00000000000E+00  0.00000000000E+00  0.32443497457E+02  0.32443497457E+02  0.00000000000E+00 0. -1.
         22   -1    0    0    0    0 -0.00000000000E+00 -0.00000000000E+00 -0.68289610435E+01  0.68289610435E+01  0.00000000000E+00 0.  1.
          2    1    1    2  501    0 -0.98756248178E+01 -0.53953224202E+01 -0.45332441199E-01  0.11253423083E+02  0.25500000000E-02 0.  1.
         -2    1    1    2    0  501  0.98756248178E+01  0.53953224202E+01  0.25659868855E+02  0.28019035417E+02  0.25500000000E-02 0. -1.
<mgrwt>
<rscale>  0 0.11253332E+02</rscale>
<asrwt>0</asrwt>
<pdfrwt beam="1">0</pdfrwt>
<pdfrwt beam="2">0</pdfrwt>
<totfact> 0.39161768E+10</totfact>
</mgrwt>
</event>
<event>
 4    1  0.3130345E+006  0.2561262E+01  0.7546771E-02  0.2682123E+00
         22   -1    0    0    0    0  0.00000000000E+00  0.00000000000E+00  0.26882291305E+00  0.26882291305E+00  0.00000000000E+00 0.  1.
         22   -1    0    0    0    0 -0.00000000000E+00 -0.00000000000E+00 -0.26153083070E+02  0.26153083070E+02  0.00000000000E+00 0. -1.
          2    1    1    2  501    0  0.14287084947E+01  0.21257583317E+01 -0.16359661073E+02  0.16558942399E+02  0.25500000000E-02 0.  1.
         -2    1    1    2    0  501 -0.14287084947E+01 -0.21257583317E+01 -0.95245990842E+01  0.98629635843E+01  0.25500000000E-02 0. -1.
<mgrwt>
<rscale>  0 0.25612620E+01</rscale>
<asrwt>0</asrwt>
<pdfrwt beam="1">0</pdfrwt>
<pdfrwt beam="2">0</pdfrwt>
<totfact> 0.21349931E+12</totfact>
</mgrwt>
</event>
<event>
 4    1  0.3130345E+006  0.2991165E+01  0.7546771E-02  0.2524979E+00
         22   -1    0    0    0    0  0.00000000000E+00  0.00000000000E+00  0.13939600200E+01  0.13939600200E+01  0.00000000000E+00 0.  1.
         22   -1    0    0    0    0 -0.00000000000E+00 -0.00000000000E+00 -0.65858153083E+01  0.65858153083E+01  0.00000000000E+00 0. -1.
          2    1    1    2  501    0  0.18078141814E+00  0.29856958158E+01 -0.32319666356E+01  0.44037116461E+01  0.25500000000E-02 0. -1.
         -2    1    1    2    0  501 -0.18078141814E+00 -0.29856958158E+01 -0.19598886527E+01  0.35760636822E+01  0.25500000000E-02 0.  1.
<mgrwt>
<rscale>  0 0.29911650E+01</rscale>
<asrwt>0</asrwt>
<pdfrwt beam="1">0</pdfrwt>
<pdfrwt beam="2">0</pdfrwt>
<totfact> 0.17920733E+12</totfact>
</mgrwt>
</event>
<event>
 4    1  0.3130345E+006  0.2329969E+01  0.7546771E-02  0.2788594E+00
         22   -1    0    0    0    0  0.00000000000E+00  0.00000000000E+00  0.13021024200E+01  0.13021024200E+01  0.00000000000E+00 0.  1.
         22   -1    0    0    0    0 -0.00000000000E+00 -0.00000000000E+00 -0.47231390465E+01  0.47231390465E+01  0.00000000000E+00 0. -1.
          2    1    1    2  501    0  0.21013578859E+01  0.10065000264E+01 -0.27422138371E+01  0.35984011030E+01  0.25500000000E-02 0. -1.
         -2    1    1    2    0  501 -0.21013578859E+01 -0.10065000264E+01 -0.67882278936E+00  0.24268403634E+01  0.25500000000E-02 0.  1.
<mgrwt>
<rscale>  0 0.23299686E+01</rscale>
<asrwt>0</asrwt>
<pdfrwt beam="1">0</pdfrwt>
<pdfrwt beam="2">0</pdfrwt>
<totfact> 0.28762814E+12</totfact>
</mgrwt>
</event>
<event>
 4    1  0.3130345E+006  0.7962609E+01  0.7546771E-02  0.1878443E+00
         22   -1    0    0    0    0  0.00000000000E+00  0.00000000000E+00  0.39584811989E+01  0.39584811989E+01  0.00000000000E+00 0. -1.
         22   -1    0    0    0    0 -0.00000000000E+00 -0.00000000000E+00 -0.20024446989E+02  0.20024446989E+02  0.00000000000E+00 0.  1.
          2    1    1    2  501    0  0.78969581243E+01  0.10203850591E+01 -0.13397416008E+02  0.15585053592E+02  0.25500000000E-02 0.  1.
         -2    1    1    2    0  501 -0.78969581243E+01 -0.10203850591E+01 -0.26685497826E+01  0.83978745960E+01  0.25500000000E-02 0. -1.
<mgrwt>
<rscale>  0 0.79626089E+01</rscale>
<asrwt>0</asrwt>
<pdfrwt beam="1">0</pdfrwt>
<pdfrwt beam="2">0</pdfrwt>
<totfact> 0.13750135E+11</totfact>
</mgrwt>
</event>
<event>
 4    1  0.3130345E+006  0.3378006E+01  0.7546771E-02  0.2414725E+00
         22   -1    0    0    0    0  0.00000000000E+00  0.00000000000E+00  0.35189630220E+01  0.35189630220E+01  0.00000000000E+00 0. -1.
         22   -1    0    0    0    0 -0.00000000000E+00 -0.00000000000E+00 -0.32964638422E+01  0.32964638422E+01  0.00000000000E+00 0.  1.
          2    1    1    2  501    0  0.30296279043E+01  0.14940788021E+01 -0.32396648349E+00  0.33935051923E+01  0.25500000000E-02 0. -1.
         -2    1    1    2    0  501 -0.30296279043E+01 -0.14940788021E+01  0.54646566334E+00  0.34219216719E+01  0.25500000000E-02 0.  1.
<mgrwt>
<rscale>  0 0.33780058E+01</rscale>
<asrwt>0</asrwt>
<pdfrwt beam="1">0</pdfrwt>
<pdfrwt beam="2">0</pdfrwt>
<totfact> 0.13865892E+12</totfact>
</mgrwt>
</event>
<event>
 4    1  0.3130345E+006  0.2088358E+01  0.7546771E-02  0.2923534E+00
         22   -1    0    0    0    0  0.00000000000E+00  0.00000000000E+00  0.16308772281E+01  0.16308772281E+01  0.00000000000E+00 0. -1.
         22   -1    0    0    0    0 -0.00000000000E+00 -0.00000000000E+00 -0.67700003937E+01  0.67700003937E+01  0.00000000000E+00 0.  1.
          2    1    1    2  501    0 -0.20311214169E+01 -0.48557143595E+00 -0.58367289539E+01  0.61990842238E+01  0.25500000000E-02 0.  1.
         -2    1    1    2    0  501  0.20311214169E+01  0.48557143595E+00  0.69760578831E+00  0.22017933981E+01  0.25500000000E-02 0. -1.
<mgrwt>
<rscale>  0 0.20883583E+01</rscale>
<asrwt>0</asrwt>
<pdfrwt beam="1">0</pdfrwt>
<pdfrwt beam="2">0</pdfrwt>
<totfact> 0.14473096E+12</totfact>
</mgrwt>
</event>
<event>
 4    1  0.3130345E+006  0.2067992E+01  0.7546771E-02  0.2936294E+00
         22   -1    0    0    0    0  0.00000000000E+00  0.00000000000E+00  0.74031777314E+00  0.74031777314E+00  0.00000000000E+00 0.  1.
         22   -1    0    0    0    0 -0.00000000000E+00 -0.00000000000E+00 -0.14987078068E+02  0.14987078068E+02  0.00000000000E+00 0. -1.
          2    1    1    2  501    0  0.12543168426E+01 -0.16441640767E+01 -0.13288011282E+02  0.13447967750E+02  0.25500000000E-02 0. -1.
         -2    1    1    2    0  501 -0.12543168426E+01  0.16441640767E+01 -0.95874901249E+00  0.22794280915E+01  0.25500000000E-02 0.  1.
<mgrwt>
<rscale>  0 0.20679924E+01</rscale>
<asrwt>0</asrwt>
<pdfrwt beam="1">0</pdfrwt>
<pdfrwt beam="2">0</pdfrwt>
<totfact> 0.13638518E+12</totfact>
</mgrwt>
</event>
<event>
 4    1  0.3130345E+006  0.4814174E+01  0.7546771E-02  0.2145860E+00
         22   -1    0    0    0    0  0.00000000000E+00  0.00000000000E+00  0.11513360984E+02  0.11513360984E+02  0.00000000000E+00 0.  1.
         22   -1    0    0    0    0 -0.00000000000E+00 -0.00000000000E+00 -0.30902055393E+01  0.30902055393E+01  0.00000000000E+00 0. -1.
          2    1    1    2  501    0  0.14606134541E+01 -0.45872515245E+01 -0.99508024120E-01  0.48152026500E+01  0.25500000000E-02 0. -1.
         -2    1    1    2    0  501 -0.14606134541E+01  0.45872515245E+01  0.85226634684E+01  0.97883638729E+01  0.25500000000E-02 0.  1.
<mgrwt>
<rscale>  0 0.48141744E+01</rscale>
<asrwt>0</asrwt>
<pdfrwt beam="1">0</pdfrwt>
<pdfrwt beam="2">0</pdfrwt>
<totfact> 0.36344243E+11</totfact>
</mgrwt>
</event>
<event>
 4    1  0.3130345E+006  0.2094207E+01  0.7546771E-02  0.2919914E+00
         22   -1    0    0    0    0  0.00000000000E+00  0.00000000000E+00  0.99487498071E+01  0.99487498071E+01  0.00000000000E+00 0. -1.
         22   -1    0    0    0    0 -0.00000000000E+00 -0.00000000000E+00 -0.55856055046E+00  0.55856055046E+00  0.00000000000E+00 0.  1.
          2    1    1    2  501    0 -0.20929434819E+01  0.72687281163E-01  0.71070649078E+01  0.74091884822E+01  0.25500000000E-02 0. -1.
         -2    1    1    2    0  501  0.20929434819E+01 -0.72687281163E-01  0.22831243488E+01  0.30981218753E+01  0.25500000000E-02 0.  1.
<mgrwt>
<rscale>  0 0.20942069E+01</rscale>
<asrwt>0</asrwt>
<pdfrwt beam="1">0</pdfrwt>
<pdfrwt beam="2">0</pdfrwt>
<totfact> 0.30947153E+12</totfact>
</mgrwt>
</event>
<event>
 4    1  0.3130345E+006  0.2897500E+01  0.7546771E-02  0.2555598E+00
         22   -1    0    0    0    0  0.00000000000E+00  0.00000000000E+00  0.20558526973E+00  0.20558526973E+00  0.00000000000E+00 0. -1.
         22   -1    0    0    0    0 -0.00000000000E+00 -0.00000000000E+00 -0.41217625162E+02  0.41217625162E+02  0.00000000000E+00 0.  1.
          2    1    1    2  501    0  0.28240969411E+01 -0.64805631688E+00 -0.22496059587E+02  0.22681891543E+02  0.25500000000E-02 0.  1.
         -2    1    1    2    0  501 -0.28240969411E+01  0.64805631688E+00 -0.18515980305E+02  0.18741318889E+02  0.25500000000E-02 0. -1.
<mgrwt>
<rscale>  0 0.28975001E+01</rscale>
<asrwt>0</asrwt>
<pdfrwt beam="1">0</pdfrwt>
<pdfrwt beam="2">0</pdfrwt>
<totfact> 0.16083338E+12</totfact>
</mgrwt>
</event>
<event>
 4    1  0.3130345E+006  0.2676096E+01  0.7546771E-02  0.2635642E+00
         22   -1    0    0    0    0  0.00000000000E+00  0.00000000000E+00  0.24587775587E+02  0.24587775587E+02  0.00000000000E+00 0.  1.
         22   -1    0    0    0    0 -0.00000000000E+00 -0.00000000000E+00 -0.13955344672E+01  0.13955344672E+01  0.00000000000E+00 0. -1.
          2    1    1    2  501    0  0.26682149049E+01  0.20521604919E+00  0.39462360558E-01  0.26763871517E+01  0.25500000000E-02 0. -1.
         -2    1    1    2    0  501 -0.26682149049E+01 -0.20521604919E+00  0.23152778759E+02  0.23306922902E+02  0.25500000000E-02 0.  1.
<mgrwt>
<rscale>  0 0.26760962E+01</rscale>
<asrwt>0</asrwt>
<pdfrwt beam="1">0</pdfrwt>
<pdfrwt beam="2">0</pdfrwt>
<totfact> 0.35698309E+11</totfact>
</mgrwt>
</event>
<event>
 4    1  0.3130345E+006  0.2742501E+01  0.7546771E-02  0.2610400E+00
         22   -1    0    0    0    0  0.00000000000E+00  0.00000000000E+00  0.39998972194E+02  0.39998972194E+02  0.00000000000E+00 0. -1.
         22   -1    0    0    0    0 -0.00000000000E+00 -0.00000000000E+00 -0.18804031095E+00  0.18804031095E+00  0.00000000000E+00 0.  1.
          2    1    1    2  501    0 -0.15993816297E+01  0.22278422512E+01  0.19982299071E+02  0.20169620357E+02  0.25500000000E-02 0. -1.
         -2    1    1    2    0  501  0.15993816297E+01 -0.22278422512E+01  0.19828632812E+02  0.20017392148E+02  0.25500000000E-02 0.  1.
<mgrwt>
<rscale>  0 0.27425005E+01</rscale>
<asrwt>0</asrwt>
<pdfrwt beam="1">0</pdfrwt>
<pdfrwt beam="2">0</pdfrwt>
<totfact> 0.18472113E+12</totfact>
</mgrwt>
</event>
<event>
 4    1  0.3130345E+006  0.3506976E+01  0.7546771E-02  0.2382770E+00
         22   -1    0    0    0    0  0.00000000000E+00  0.00000000000E+00  0.13601513715E+01  0.13601513715E+01  0.00000000000E+00 0. -1.
         22   -1    0    0    0    0 -0.00000000000E+00 -0.00000000000E+00 -0.90665444671E+01  0.90665444671E+01  0.00000000000E+00 0.  1.
          2    1    1    2  501    0 -0.31777111725E+01  0.14835857509E+01 -0.35835451660E+01  0.50140480088E+01  0.25500000000E-02 0. -1.
         -2    1    1    2    0  501  0.31777111725E+01 -0.14835857509E+01 -0.41228479296E+01  0.54126478298E+01  0.25500000000E-02 0.  1.
<mgrwt>
<rscale>  0 0.35069761E+01</rscale>
<asrwt>0</asrwt>
<pdfrwt beam="1">0</pdfrwt>
<pdfrwt beam="2">0</pdfrwt>
<totfact> 0.12560186E+12</totfact>
</mgrwt>
</event>
<event>
 4    1  0.3130345E+006  0.2215642E+01  0.7546771E-02  0.2848932E+00
         22   -1    0    0    0    0  0.00000000000E+00  0.00000000000E+00  0.22639295758E+00  0.22639295758E+00  0.00000000000E+00 0. -1.
         22   -1    0    0    0    0 -0.00000000000E+00 -0.00000000000E+00 -0.29278410625E+02  0.29278410625E+02  0.00000000000E+00 0.  1.
          2    1    1    2  501    0  0.11615067464E+01  0.18867874420E+01 -0.22039473819E+02  0.22150563819E+02  0.25500000000E-02 0.  1.
         -2    1    1    2    0  501 -0.11615067464E+01 -0.18867874420E+01 -0.70125438476E+01  0.73542397629E+01  0.25500000000E-02 0. -1.
<mgrwt>
<rscale>  0 0.22156424E+01</rscale>
<asrwt>0</asrwt>
<pdfrwt beam="1">0</pdfrwt>
<pdfrwt beam="2">0</pdfrwt>
<totfact> 0.22419584E+12</totfact>
</mgrwt>
</event>
<event>
 4    1  0.3130345E+006  0.2581169E+01  0.7546771E-02  0.2673792E+00
         22   -1    0    0    0    0  0.00000000000E+00  0.00000000000E+00  0.12232998610E+01  0.12232998610E+01  0.00000000000E+00 0. -1.
         22   -1    0    0    0    0 -0.00000000000E+00 -0.00000000000E+00 -0.84788224823E+01  0.84788224823E+01  0.00000000000E+00 0.  1.
          2    1    1    2  501    0 -0.21776037165E+01  0.13858100556E+01 -0.65289261378E+01  0.70206346203E+01  0.25500000000E-02 0.  1.
         -2    1    1    2    0  501  0.21776037165E+01 -0.13858100556E+01 -0.72659648349E+00  0.26814877230E+01  0.25500000000E-02 0. -1.
<mgrwt>
<rscale>  0 0.25811691E+01</rscale>
<asrwt>0</asrwt>
<pdfrwt beam="1">0</pdfrwt>
<pdfrwt beam="2">0</pdfrwt>
<totfact> 0.15378120E+12</totfact>
</mgrwt>
</event>
<event>
 4    1  0.3130345E+006  0.2197524E+01  0.7546771E-02  0.2859044E+00
         22   -1    0    0    0    0  0.00000000000E+00  0.00000000000E+00  0.60234097165E+00  0.60234097165E+00  0.00000000000E+00 0.  1.
         22   -1    0    0    0    0 -0.00000000000E+00 -0.00000000000E+00 -0.80182283619E+01  0.80182283619E+01  0.00000000000E+00 0. -1.
          2    1    1    2  501    0 -0.77475393531E-01 -0.21961560282E+01 -0.36600129848E+01  0.42690520362E+01  0.25500000000E-02 0. -1.
         -2    1    1    2    0  501  0.77475393531E-01  0.21961560282E+01 -0.37558744055E+01  0.43515172973E+01  0.25500000000E-02 0.  1.
<mgrwt>
<rscale>  0 0.21975237E+01</rscale>
<asrwt>0</asrwt>
<pdfrwt beam="1">0</pdfrwt>
<pdfrwt beam="2">0</pdfrwt>
<totfact> 0.36858209E+12</totfact>
</mgrwt>
</event>
<event>
 4    1  0.3130345E+006  0.2652675E+01  0.7546771E-02  0.2644821E+00
         22   -1    0    0    0    0  0.00000000000E+00  0.00000000000E+00  0.34535917027E+01  0.34535917027E+01  0.00000000000E+00 0.  1.
         22   -1    0    0    0    0 -0.00000000000E+00 -0.00000000000E+00 -0.43775738914E+01  0.43775738914E+01  0.00000000000E+00 0. -1.
          2    1    1    2  501    0 -0.20932454664E+01 -0.16294177067E+01 -0.33248152177E+01  0.42533611861E+01  0.25500000000E-02 0. -1.
         -2    1    1    2    0  501  0.20932454664E+01  0.16294177067E+01  0.24008330290E+01  0.35778044079E+01  0.25500000000E-02 0.  1.
<mgrwt>
<rscale>  0 0.26526751E+01</rscale>
<asrwt>0</asrwt>
<pdfrwt beam="1">0</pdfrwt>
<pdfrwt beam="2">0</pdfrwt>
<totfact> 0.10156051E+12</totfact>
</mgrwt>
</event>
<event>
 4    1  0.3130345E+006  0.2050015E+01  0.7546771E-02  0.2947763E+00
         22   -1    0    0    0    0  0.00000000000E+00  0.00000000000E+00  0.44520699996E+00  0.44520699996E+00  0.00000000000E+00 0.  1.
         22   -1    0    0    0    0 -0.00000000000E+00 -0.00000000000E+00 -0.10192102073E+02  0.10192102073E+02  0.00000000000E+00 0. -1.
          2    1    1    2  501    0  0.20491333085E+01  0.60063210790E-01 -0.63186650185E+01  0.66428976377E+01  0.25500000000E-02 0.  1.
         -2    1    1    2    0  501 -0.20491333085E+01 -0.60063210790E-01 -0.34282300546E+01  0.39944114354E+01  0.25500000000E-02 0. -1.
<mgrwt>
<rscale>  0 0.20500150E+01</rscale>
<asrwt>0</asrwt>
<pdfrwt beam="1">0</pdfrwt>
<pdfrwt beam="2">0</pdfrwt>
<totfact> 0.38827462E+12</totfact>
</mgrwt>
</event>
<event>
 4    1  0.3130345E+006  0.4166210E+01  0.7546771E-02  0.2246606E+00
         22   -1    0    0    0    0  0.00000000000E+00  0.00000000000E+00  0.19066706348E+01  0.19066706348E+01  0.00000000000E+00 0.  1.
         22   -1    0    0    0    0 -0.00000000000E+00 -0.00000000000E+00 -0.94047554375E+01  0.94047554375E+01  0.00000000000E+00 0. -1.
          2    1    1    2  501    0 -0.26821365973E+01 -0.31880160454E+01 -0.47613353965E+01  0.63267388356E+01  0.25500000000E-02 0. -1.
         -2    1    1    2    0  501  0.26821365973E+01  0.31880160454E+01 -0.27367494062E+01  0.49846872367E+01  0.25500000000E-02 0.  1.
<mgrwt>
<rscale>  0 0.41662105E+01</rscale>
<asrwt>0</asrwt>
<pdfrwt beam="1">0</pdfrwt>
<pdfrwt beam="2">0</pdfrwt>
<totfact> 0.81426286E+11</totfact>
</mgrwt>
</event>
<event>
 4    1  0.3130345E+006  0.2092356E+01  0.7546771E-02  0.2921058E+00
         22   -1    0    0    0    0  0.00000000000E+00  0.00000000000E+00  0.76954025283E+00  0.76954025283E+00  0.00000000000E+00 0.  1.
         22   -1    0    0    0    0 -0.00000000000E+00 -0.00000000000E+00 -0.86842908160E+01  0.86842908160E+01  0.00000000000E+00 0. -1.
          2    1    1    2  501    0 -0.20923110227E+01 -0.13473465753E-01 -0.67334202084E+01  0.70510212845E+01  0.25500000000E-02 0. -1.
         -2    1    1    2    0  501  0.20923110227E+01  0.13473465753E-01 -0.11813303548E+01  0.24028097843E+01  0.25500000000E-02 0.  1.
<mgrwt>
<rscale>  0 0.20923560E+01</rscale>
<asrwt>0</asrwt>
<pdfrwt beam="1">0</pdfrwt>
<pdfrwt beam="2">0</pdfrwt>
<totfact> 0.25357978E+12</totfact>
</mgrwt>
</event>
<event>
 4    1  0.3130345E+006  0.3814218E+01  0.7546771E-02  0.2314279E+00
         22   -1    0    0    0    0  0.00000000000E+00  0.00000000000E+00  0.97466377139E+00  0.97466377139E+00  0.00000000000E+00 0. -1.
         22   -1    0    0    0    0 -0.00000000000E+00 -0.00000000000E+00 -0.26760637591E+02  0.26760637591E+02  0.00000000000E+00 0.  1.
          2    1    1    2  501    0 -0.31783165731E+01 -0.21086865023E+01 -0.22114964248E+02  0.22441477340E+02  0.25500000000E-02 0.  1.
         -2    1    1    2    0  501  0.31783165731E+01  0.21086865023E+01 -0.36710095716E+01  0.52938240225E+01  0.25500000000E-02 0. -1.
<mgrwt>
<rscale>  0 0.38142183E+01</rscale>
<asrwt>0</asrwt>
<pdfrwt beam="1">0</pdfrwt>
<pdfrwt beam="2">0</pdfrwt>
<totfact> 0.48385558E+11</totfact>
</mgrwt>
</event>
<event>
 4    1  0.3130345E+006  0.2001482E+01  0.7546771E-02  0.2979729E+00
         22   -1    0    0    0    0  0.00000000000E+00  0.00000000000E+00  0.11057238738E+02  0.11057238738E+02  0.00000000000E+00 0.  1.
         22   -1    0    0    0    0 -0.00000000000E+00 -0.00000000000E+00 -0.58962632066E+00  0.58962632066E+00  0.00000000000E+00 0. -1.
          2    1    1    2  501    0 -0.26959061222E+00 -0.19832406594E+01  0.16178359493E+01  0.25735816040E+01  0.25500000000E-02 0. -1.
         -2    1    1    2    0  501  0.26959061222E+00  0.19832406594E+01  0.88497764676E+01  0.90732834542E+01  0.25500000000E-02 0.  1.
<mgrwt>
<rscale>  0 0.20014817E+01</rscale>
<asrwt>0</asrwt>
<pdfrwt beam="1">0</pdfrwt>
<pdfrwt beam="2">0</pdfrwt>
<totfact> 0.25606705E+12</totfact>
</mgrwt>
</event>
<event>
 4    1  0.3130345E+006  0.2249869E+01  0.7546771E-02  0.2830256E+00
         22   -1    0    0    0    0  0.00000000000E+00  0.00000000000E+00  0.16836444283E+02  0.16836444283E+02  0.00000000000E+00 0.  1.
         22   -1    0    0    0    0 -0.00000000000E+00 -0.00000000000E+00 -0.30146520560E+00  0.30146520560E+00  0.00000000000E+00 0. -1.
          2    1    1    2  501    0  0.81738838697E+00 -0.20961342068E+01  0.87125687186E+01  0.89983755516E+01  0.25500000000E-02 0. -1.
         -2    1    1    2    0  501 -0.81738838697E+00  0.20961342068E+01  0.78224103590E+01  0.81395339372E+01  0.25500000000E-02 0.  1.
<mgrwt>
<rscale>  0 0.22498686E+01</rscale>
<asrwt>0</asrwt>
<pdfrwt beam="1">0</pdfrwt>
<pdfrwt beam="2">0</pdfrwt>
<totfact> 0.32564259E+12</totfact>
</mgrwt>
</event>
<event>
 4    1  0.3130345E+006  0.2304036E+01  0.7546771E-02  0.2801781E+00
         22   -1    0    0    0    0  0.00000000000E+00  0.00000000000E+00  0.35053571479E+01  0.35053571479E+01  0.00000000000E+00 0. -1.
         22   -1    0    0    0    0 -0.00000000000E+00 -0.00000000000E+00 -0.15821259897E+01  0.15821259897E+01  0.00000000000E+00 0.  1.
          2    1    1    2  501    0  0.15051197056E+01  0.17444746969E+01  0.43539813165E+00  0.23448145624E+01  0.25500000000E-02 0.  1.
         -2    1    1    2    0  501 -0.15051197056E+01 -0.17444746969E+01  0.14878330265E+01  0.27426685753E+01  0.25500000000E-02 0. -1.
<mgrwt>
<rscale>  0 0.23040364E+01</rscale>
<asrwt>0</asrwt>
<pdfrwt beam="1">0</pdfrwt>
<pdfrwt beam="2">0</pdfrwt>
<totfact> 0.32661477E+12</totfact>
</mgrwt>
</event>
<event>
 4    1  0.3130345E+006  0.2336308E+01  0.7546771E-02  0.2785412E+00
         22   -1    0    0    0    0  0.00000000000E+00  0.00000000000E+00  0.88404855560E+00  0.88404855560E+00  0.00000000000E+00 0.  1.
         22   -1    0    0    0    0 -0.00000000000E+00 -0.00000000000E+00 -0.66059218161E+01  0.66059218161E+01  0.00000000000E+00 0. -1.
          2    1    1    2  501    0 -0.12754017853E+01  0.19574678562E+01 -0.38182636865E+01  0.44763237377E+01  0.25500000000E-02 0. -1.
         -2    1    1    2    0  501  0.12754017853E+01 -0.19574678562E+01 -0.19036095740E+01  0.30136466341E+01  0.25500000000E-02 0.  1.
<mgrwt>
<rscale>  0 0.23363083E+01</rscale>
<asrwt>0</asrwt>
<pdfrwt beam="1">0</pdfrwt>
<pdfrwt beam="2">0</pdfrwt>
<totfact> 0.30063648E+12</totfact>
</mgrwt>
</event>
<event>
 4    1  0.3130345E+006  0.2871569E+01  0.7546771E-02  0.2564392E+00
         22   -1    0    0    0    0  0.00000000000E+00  0.00000000000E+00  0.78623151921E+00  0.78623151921E+00  0.00000000000E+00 0. -1.
         22   -1    0    0    0    0 -0.00000000000E+00 -0.00000000000E+00 -0.10842944069E+02  0.10842944069E+02  0.00000000000E+00 0.  1.
          2    1    1    2  501    0  0.23585413648E+01 -0.16380430537E+01 -0.60805438527E+01  0.67245016516E+01  0.25500000000E-02 0.  1.
         -2    1    1    2    0  501 -0.23585413648E+01  0.16380430537E+01 -0.39761686976E+01  0.49046739371E+01  0.25500000000E-02 0. -1.
<mgrwt>
<rscale>  0 0.28715691E+01</rscale>
<asrwt>0</asrwt>
<pdfrwt beam="1">0</pdfrwt>
<pdfrwt beam="2">0</pdfrwt>
<totfact> 0.18920539E+12</totfact>
</mgrwt>
</event>
<event>
 4    1  0.3130345E+006  0.2132774E+01  0.7546771E-02  0.2896526E+00
         22   -1    0    0    0    0  0.00000000000E+00  0.00000000000E+00  0.18262319641E+01  0.18262319641E+01  0.00000000000E+00 0.  1.
         22   -1    0    0    0    0 -0.00000000000E+00 -0.00000000000E+00 -0.56452322673E+01  0.56452322673E+01  0.00000000000E+00 0. -1.
          2    1    1    2  501    0  0.58892781465E+00  0.20498493889E+01 -0.47020275419E+01  0.51631180497E+01  0.25500000000E-02 0. -1.
         -2    1    1    2    0  501 -0.58892781465E+00 -0.20498493889E+01  0.88302723873E+00  0.23083461817E+01  0.25500000000E-02 0.  1.
<mgrwt>
<rscale>  0 0.21327740E+01</rscale>
<asrwt>0</asrwt>
<pdfrwt beam="1">0</pdfrwt>
<pdfrwt beam="2">0</pdfrwt>
<totfact> 0.15772078E+12</totfact>
</mgrwt>
</event>
<event>
 4    1  0.3130345E+006  0.2062148E+01  0.7546771E-02  0.2940001E+00
         22   -1    0    0    0    0  0.00000000000E+00  0.00000000000E+00  0.19366758403E+01  0.19366758403E+01  0.00000000000E+00 0. -1.
         22   -1    0    0    0    0 -0.00000000000E+00 -0.00000000000E+00 -0.33455587235E+01  0.33455587235E+01  0.00000000000E+00 0.  1.
          2    1    1    2  501    0  0.89904197555E+00  0.18558477730E+01  0.84389864295E+00  0.22281424668E+01  0.25500000000E-02 0. -1.
         -2    1    1    2    0  501 -0.89904197555E+00 -0.18558477730E+01 -0.22527815261E+01  0.30540920970E+01  0.25500000000E-02 0.  1.
<mgrwt>
<rscale>  0 0.20621479E+01</rscale>
<asrwt>0</asrwt>
<pdfrwt beam="1">0</pdfrwt>
<pdfrwt beam="2">0</pdfrwt>
<totfact> 0.27315096E+12</totfact>
</mgrwt>
</event>
<event>
 4    1  0.3130345E+006  0.7708888E+01  0.7546771E-02  0.1893561E+00
         22   -1    0    0    0    0  0.00000000000E+00  0.00000000000E+00  0.65689918026E+02  0.65689918026E+02  0.00000000000E+00 0. -1.
         22   -1    0    0    0    0 -0.00000000000E+00 -0.00000000000E+00 -0.10287685414E+01  0.10287685414E+01  0.00000000000E+00 0.  1.
          2    1    1    2  501    0 -0.49005287137E+01  0.59507788852E+01  0.20743822505E+02  0.22129914813E+02  0.25500000000E-02 0.  1.
         -2    1    1    2    0  501  0.49005287137E+01 -0.59507788852E+01  0.43917326981E+02  0.44588771755E+02  0.25500000000E-02 0. -1.
<mgrwt>
<rscale>  0 0.77088882E+01</rscale>
<asrwt>0</asrwt>
<pdfrwt beam="1">0</pdfrwt>
<pdfrwt beam="2">0</pdfrwt>
<totfact> 0.14106348E+11</totfact>
</mgrwt>
</event>
<event>
 4    1  0.3130345E+006  0.2809013E+01  0.7546771E-02  0.2586212E+00
         22   -1    0    0    0    0  0.00000000000E+00  0.00000000000E+00  0.56588464697E+01  0.56588464697E+01  0.00000000000E+00 0. -1.
         22   -1    0    0    0    0 -0.00000000000E+00 -0.00000000000E+00 -0.18335190261E+01  0.18335190261E+01  0.00000000000E+00 0.  1.
          2    1    1    2  501    0 -0.17293645716E+01 -0.22135590659E+01  0.79294602467E-01  0.28101316155E+01  0.25500000000E-02 0.  1.
         -2    1    1    2    0  501  0.17293645716E+01  0.22135590659E+01  0.37460328411E+01  0.46822338802E+01  0.25500000000E-02 0. -1.
<mgrwt>
<rscale>  0 0.28090126E+01</rscale>
<asrwt>0</asrwt>
<pdfrwt beam="1">0</pdfrwt>
<pdfrwt beam="2">0</pdfrwt>
<totfact> 0.15655940E+12</totfact>
</mgrwt>
</event>
<event>
 4    1  0.3130345E+006  0.2896764E+01  0.7546771E-02  0.2555845E+00
         22   -1    0    0    0    0  0.00000000000E+00  0.00000000000E+00  0.21642528952E+02  0.21642528952E+02  0.00000000000E+00 0.  1.
         22   -1    0    0    0    0 -0.00000000000E+00 -0.00000000000E+00 -0.40445489525E+00  0.40445489525E+00  0.00000000000E+00 0. -1.
          2    1    1    2  501    0  0.41078332590E+00  0.28674892278E+01  0.12861338937E+02  0.13183523170E+02  0.25500000000E-02 0.  1.
         -2    1    1    2    0  501 -0.41078332590E+00 -0.28674892278E+01  0.83767351196E+01  0.88634606774E+01  0.25500000000E-02 0. -1.
<mgrwt>
<rscale>  0 0.28967644E+01</rscale>
<asrwt>0</asrwt>
<pdfrwt beam="1">0</pdfrwt>
<pdfrwt beam="2">0</pdfrwt>
<totfact> 0.17126578E+12</totfact>
</mgrwt>
</event>
<event>
 4    1  0.3130345E+006  0.2424007E+01  0.7546771E-02  0.2743011E+00
         22   -1    0    0    0    0  0.00000000000E+00  0.00000000000E+00  0.90849561871E+00  0.90849561871E+00  0.00000000000E+00 0.  1.
         22   -1    0    0    0    0 -0.00000000000E+00 -0.00000000000E+00 -0.75368725314E+01  0.75368725314E+01  0.00000000000E+00 0. -1.
          2    1    1    2  501    0 -0.15109999530E+00 -0.24192916763E+01 -0.49046820386E+01  0.54709885602E+01  0.25500000000E-02 0. -1.
         -2    1    1    2    0  501  0.15109999530E+00  0.24192916763E+01 -0.17236948740E+01  0.29743795899E+01  0.25500000000E-02 0.  1.
<mgrwt>
<rscale>  0 0.24240070E+01</rscale>
<asrwt>0</asrwt>
<pdfrwt beam="1">0</pdfrwt>
<pdfrwt beam="2">0</pdfrwt>
<totfact> 0.24890662E+12</totfact>
</mgrwt>
</event>
<event>
 4    1  0.3130345E+006  0.2167661E+01  0.7546771E-02  0.2876063E+00
         22   -1    0    0    0    0  0.00000000000E+00  0.00000000000E+00  0.24014260317E+02  0.24014260317E+02  0.00000000000E+00 0.  1.
         22   -1    0    0    0    0 -0.00000000000E+00 -0.00000000000E+00 -0.22104887390E+00  0.22104887390E+00  0.00000000000E+00 0. -1.
          2    1    1    2  501    0 -0.16742604328E+01  0.13768085579E+01  0.77903006831E+01  0.80862563054E+01  0.25500000000E-02 0. -1.
         -2    1    1    2    0  501  0.16742604328E+01 -0.13768085579E+01  0.16002910760E+02  0.16149052885E+02  0.25500000000E-02 0.  1.
<mgrwt>
<rscale>  0 0.21676615E+01</rscale>
<asrwt>0</asrwt>
<pdfrwt beam="1">0</pdfrwt>
<pdfrwt beam="2">0</pdfrwt>
<totfact> 0.29589988E+12</totfact>
</mgrwt>
</event>
<event>
 4    1  0.3130345E+006  0.2225996E+01  0.7546771E-02  0.2843225E+00
         22   -1    0    0    0    0  0.00000000000E+00  0.00000000000E+00  0.11277078678E+02  0.11277078678E+02  0.00000000000E+00 0.  1.
         22   -1    0    0    0    0 -0.00000000000E+00 -0.00000000000E+00 -0.69339335237E+00  0.69339335237E+00  0.00000000000E+00 0. -1.
          2    1    1    2  501    0 -0.49992696861E+00 -0.21691295766E+01  0.16693328026E+01  0.27823961979E+01  0.25500000000E-02 0. -1.
         -2    1    1    2    0  501  0.49992696861E+00  0.21691295766E+01  0.89143525228E+01  0.91880758321E+01  0.25500000000E-02 0.  1.
<mgrwt>
<rscale>  0 0.22259956E+01</rscale>
<asrwt>0</asrwt>
<pdfrwt beam="1">0</pdfrwt>
<pdfrwt beam="2">0</pdfrwt>
<totfact> 0.20805823E+12</totfact>
</mgrwt>
</event>
<event>
 4    1  0.3130345E+006  0.3862328E+01  0.7546771E-02  0.2304409E+00
         22   -1    0    0    0    0  0.00000000000E+00  0.00000000000E+00  0.10924930338E+02  0.10924930338E+02  0.00000000000E+00 0. -1.
         22   -1    0    0    0    0 -0.00000000000E+00 -0.00000000000E+00 -0.23298768662E+01  0.23298768662E+01  0.00000000000E+00 0.  1.
          2    1    1    2  501    0  0.20871046366E+01  0.32498560251E+01  0.33608196387E-01  0.38624740726E+01  0.25500000000E-02 0.  1.
         -2    1    1    2    0  501 -0.20871046366E+01 -0.32498560251E+01  0.85614452759E+01  0.93923331320E+01  0.25500000000E-02 0. -1.
<mgrwt>
<rscale>  0 0.38623279E+01</rscale>
<asrwt>0</asrwt>
<pdfrwt beam="1">0</pdfrwt>
<pdfrwt beam="2">0</pdfrwt>
<totfact> 0.53833144E+11</totfact>
</mgrwt>
</event>
<event>
 4    1  0.3130345E+006  0.2565558E+01  0.7546771E-02  0.2680315E+00
         22   -1    0    0    0    0  0.00000000000E+00  0.00000000000E+00  0.17152014546E+02  0.17152014546E+02  0.00000000000E+00 0.  1.
         22   -1    0    0    0    0 -0.00000000000E+00 -0.00000000000E+00 -0.56590616587E+00  0.56590616587E+00  0.00000000000E+00 0. -1.
          2    1    1    2  501    0  0.15234997498E+01 -0.20642265849E+01  0.32669415277E+01  0.41539133752E+01  0.25500000000E-02 0. -1.
         -2    1    1    2    0  501 -0.15234997498E+01  0.20642265849E+01  0.13319166852E+02  0.13564007336E+02  0.25500000000E-02 0.  1.
<mgrwt>
<rscale>  0 0.25655583E+01</rscale>
<asrwt>0</asrwt>
<pdfrwt beam="1">0</pdfrwt>
<pdfrwt beam="2">0</pdfrwt>
<totfact> 0.15658700E+12</totfact>
</mgrwt>
</event>
<event>
 4    1  0.3130345E+006  0.2400276E+01  0.7546771E-02  0.2754197E+00
         22   -1    0    0    0    0  0.00000000000E+00  0.00000000000E+00  0.63080996176E+01  0.63080996176E+01  0.00000000000E+00 0. -1.
         22   -1    0    0    0    0 -0.00000000000E+00 -0.00000000000E+00 -0.40748390268E+01  0.40748390268E+01  0.00000000000E+00 0.  1.
          2    1    1    2  501    0 -0.17598225785E+01 -0.16322815305E+01 -0.34561763540E+01  0.42079068425E+01  0.25500000000E-02 0.  1.
         -2    1    1    2    0  501  0.17598225785E+01  0.16322815305E+01  0.56894369449E+01  0.61750318019E+01  0.25500000000E-02 0. -1.
<mgrwt>
<rscale>  0 0.24002760E+01</rscale>
<asrwt>0</asrwt>
<pdfrwt beam="1">0</pdfrwt>
<pdfrwt beam="2">0</pdfrwt>
<totfact> 0.54222613E+11</totfact>
</mgrwt>
</event>
<event>
 4    1  0.3130345E+006  0.2945240E+01  0.7546771E-02  0.2539773E+00
         22   -1    0    0    0    0  0.00000000000E+00  0.00000000000E+00  0.42617251487E+00  0.42617251487E+00  0.00000000000E+00 0. -1.
         22   -1    0    0    0    0 -0.00000000000E+00 -0.00000000000E+00 -0.20502182941E+02  0.20502182941E+02  0.00000000000E+00 0.  1.
          2    1    1    2  501    0 -0.25211830234E+01  0.15225205988E+01 -0.91492594331E+01  0.96116277232E+01  0.25500000000E-02 0. -1.
         -2    1    1    2    0  501  0.25211830234E+01 -0.15225205988E+01 -0.10926750993E+02  0.11316727733E+02  0.25500000000E-02 0.  1.
<mgrwt>
<rscale>  0 0.29452401E+01</rscale>
<asrwt>0</asrwt>
<pdfrwt beam="1">0</pdfrwt>
<pdfrwt beam="2">0</pdfrwt>
<totfact> 0.17277386E+12</totfact>
</mgrwt>
</event>
<event>
 4    1  0.3130345E+006  0.4958903E+01  0.7546771E-02  0.2127941E+00
         22   -1    0    0    0    0  0.00000000000E+00  0.00000000000E+00  0.24480632299E+01  0.24480632299E+01  0.00000000000E+00 0.  1.
         22   -1    0    0    0    0 -0.00000000000E+00 -0.00000000000E+00 -0.12901679501E+02  0.12901679501E+02  0.00000000000E+00 0. -1.
          2    1    1    2  501    0 -0.75373105358E+00  0.49012855852E+01 -0.88382543738E+01  0.10134370122E+02  0.25500000000E-02 0. -1.
         -2    1    1    2    0  501  0.75373105358E+00 -0.49012855852E+01 -0.16153618972E+01  0.52153726090E+01  0.25500000000E-02 0.  1.
<mgrwt>
<rscale>  0 0.49589028E+01</rscale>
<asrwt>0</asrwt>
<pdfrwt beam="1">0</pdfrwt>
<pdfrwt beam="2">0</pdfrwt>
<totfact> 0.41499819E+11</totfact>
</mgrwt>
</event>
<event>
 4    1  0.3130345E+006  0.2214992E+01  0.7546771E-02  0.2849292E+00
         22   -1    0    0    0    0  0.00000000000E+00  0.00000000000E+00  0.44409453652E+01  0.44409453652E+01  0.00000000000E+00 0.  1.
         22   -1    0    0    0    0 -0.00000000000E+00 -0.00000000000E+00 -0.14349696522E+01  0.14349696522E+01  0.00000000000E+00 0. -1.
          2    1    1    2  501    0 -0.11158098736E+01 -0.19134139039E+01  0.93643125910E-01  0.22169709017E+01  0.25500000000E-02 0.  1.
         -2    1    1    2    0  501  0.11158098736E+01  0.19134139039E+01  0.29123325871E+01  0.36589441157E+01  0.25500000000E-02 0. -1.
<mgrwt>
<rscale>  0 0.22149923E+01</rscale>
<asrwt>0</asrwt>
<pdfrwt beam="1">0</pdfrwt>
<pdfrwt beam="2">0</pdfrwt>
<totfact> 0.27666703E+12</totfact>
</mgrwt>
</event>
<event>
 4    1  0.3130345E+006  0.2654257E+01  0.7546771E-02  0.2644197E+00
         22   -1    0    0    0    0  0.00000000000E+00  0.00000000000E+00  0.24429240686E+01  0.24429240686E+01  0.00000000000E+00 0.  1.
         22   -1    0    0    0    0 -0.00000000000E+00 -0.00000000000E+00 -0.33596367612E+01  0.33596367612E+01  0.00000000000E+00 0. -1.
          2    1    1    2  501    0  0.26464987567E+01 -0.20277584402E+00 -0.15501478226E+01  0.30737661730E+01  0.25500000000E-02 0. -1.
         -2    1    1    2    0  501 -0.26464987567E+01  0.20277584402E+00  0.63343512998E+00  0.27287946567E+01  0.25500000000E-02 0.  1.
<mgrwt>
<rscale>  0 0.26542570E+01</rscale>
<asrwt>0</asrwt>
<pdfrwt beam="1">0</pdfrwt>
<pdfrwt beam="2">0</pdfrwt>
<totfact> 0.20766117E+12</totfact>
</mgrwt>
</event>
<event>
 4    1  0.3130345E+006  0.2010428E+01  0.7546771E-02  0.2973723E+00
         22   -1    0    0    0    0  0.00000000000E+00  0.00000000000E+00  0.20292261639E+02  0.20292261639E+02  0.00000000000E+00 0. -1.
         22   -1    0    0    0    0 -0.00000000000E+00 -0.00000000000E+00 -0.26209995431E+00  0.26209995431E+00  0.00000000000E+00 0.  1.
          2    1    1    2  501    0  0.19402988219E+01  0.52636077712E+00  0.49796899488E+01  0.53702079731E+01  0.25500000000E-02 0.  1.
         -2    1    1    2    0  501 -0.19402988219E+01 -0.52636077712E+00  0.15050471736E+02  0.15184153620E+02  0.25500000000E-02 0. -1.
<mgrwt>
<rscale>  0 0.20104282E+01</rscale>
<asrwt>0</asrwt>
<pdfrwt beam="1">0</pdfrwt>
<pdfrwt beam="2">0</pdfrwt>
<totfact> 0.30203997E+12</totfact>
</mgrwt>
</event>
<event>
 4    1  0.3130345E+006  0.2473823E+01  0.7546771E-02  0.2720184E+00
         22   -1    0    0    0    0  0.00000000000E+00  0.00000000000E+00  0.48587226047E+00  0.48587226047E+00  0.00000000000E+00 0. -1.
         22   -1    0    0    0    0 -0.00000000000E+00 -0.00000000000E+00 -0.13860807938E+02  0.13860807938E+02  0.00000000000E+00 0.  1.
          2    1    1    2  501    0 -0.11550203549E+01  0.21876296611E+01 -0.88548024757E+01  0.91938745337E+01  0.25500000000E-02 0.  1.
         -2    1    1    2    0  501  0.11550203549E+01 -0.21876296611E+01 -0.45201332019E+01  0.51528056649E+01  0.25500000000E-02 0. -1.
<mgrwt>
<rscale>  0 0.24738234E+01</rscale>
<asrwt>0</asrwt>
<pdfrwt beam="1">0</pdfrwt>
<pdfrwt beam="2">0</pdfrwt>
<totfact> 0.24187529E+12</totfact>
</mgrwt>
</event>
<event>
 4    1  0.3130345E+006  0.2397099E+01  0.7546771E-02  0.2755711E+00
         22   -1    0    0    0    0  0.00000000000E+00  0.00000000000E+00  0.53210228449E+01  0.53210228449E+01  0.00000000000E+00 0. -1.
         22   -1    0    0    0    0 -0.00000000000E+00 -0.00000000000E+00 -0.10939603697E+01  0.10939603697E+01  0.00000000000E+00 0.  1.
          2    1    1    2  501    0 -0.23479101312E+01 -0.48310883583E+00  0.17496798961E+01  0.29677369110E+01  0.25500000000E-02 0. -1.
         -2    1    1    2    0  501  0.23479101312E+01  0.48310883583E+00  0.24773825792E+01  0.34472463036E+01  0.25500000000E-02 0.  1.
<mgrwt>
<rscale>  0 0.23970988E+01</rscale>
<asrwt>0</asrwt>
<pdfrwt beam="1">0</pdfrwt>
<pdfrwt beam="2">0</pdfrwt>
<totfact> 0.30492970E+12</totfact>
</mgrwt>
</event>
<event>
 4    1  0.3130345E+006  0.2016500E+01  0.7546771E-02  0.2969676E+00
         22   -1    0    0    0    0  0.00000000000E+00  0.00000000000E+00  0.11144027865E+02  0.11144027865E+02  0.00000000000E+00 0.  1.
         22   -1    0    0    0    0 -0.00000000000E+00 -0.00000000000E+00 -0.37277207731E+00  0.37277207731E+00  0.00000000000E+00 0. -1.
          2    1    1    2  501    0 -0.11537871411E+01  0.16537964101E+01  0.62233012108E+01  0.65418462070E+01  0.25500000000E-02 0.  1.
         -2    1    1    2    0  501  0.11537871411E+01 -0.16537964101E+01  0.45479545772E+01  0.49749537357E+01  0.25500000000E-02 0. -1.
<mgrwt>
<rscale>  0 0.20165004E+01</rscale>
<asrwt>0</asrwt>
<pdfrwt beam="1">0</pdfrwt>
<pdfrwt beam="2">0</pdfrwt>
<totfact> 0.42549468E+12</totfact>
</mgrwt>
</event>
<event>
 4    1  0.3130345E+006  0.3048631E+01  0.7546771E-02  0.2507032E+00
         22   -1    0    0    0    0  0.00000000000E+00  0.00000000000E+00  0.18789545799E+01  0.18789545799E+01  0.00000000000E+00 0.  1.
         22   -1    0    0    0    0 -0.00000000000E+00 -0.00000000000E+00 -0.54483352375E+01  0.54483352375E+01  0.00000000000E+00 0. -1.
          2    1    1    2  501    0  0.69605754412E+00 -0.29681047779E+01 -0.28966399846E+01  0.42053147065E+01  0.25500000000E-02 0. -1.
         -2    1    1    2    0  501 -0.69605754412E+00  0.29681047779E+01 -0.67274067304E+00  0.31219751109E+01  0.25500000000E-02 0.  1.
<mgrwt>
<rscale>  0 0.30486306E+01</rscale>
<asrwt>0</asrwt>
<pdfrwt beam="1">0</pdfrwt>
<pdfrwt beam="2">0</pdfrwt>
<totfact> 0.15920234E+12</totfact>
</mgrwt>
</event>
<event>
 4    1  0.3130345E+006  0.2332166E+01  0.7546771E-02  0.2787489E+00
         22   -1    0    0    0    0  0.00000000000E+00  0.00000000000E+00  0.11349527058E+02  0.11349527058E+02  0.00000000000E+00 0. -1.
         22   -1    0    0    0    0 -0.00000000000E+00 -0.00000000000E+00 -0.79200181432E+00  0.79200181432E+00  0.00000000000E+00 0.  1.
          2    1    1    2  501    0 -0.22467970284E+01  0.62521650825E+00  0.14637478378E+01  0.27534626935E+01  0.25500000000E-02 0.  1.
         -2    1    1    2    0  501  0.22467970284E+01 -0.62521650825E+00  0.90937774056E+01  0.93880661787E+01  0.25500000000E-02 0. -1.
<mgrwt>
<rscale>  0 0.23321662E+01</rscale>
<asrwt>0</asrwt>
<pdfrwt beam="1">0</pdfrwt>
<pdfrwt beam="2">0</pdfrwt>
<totfact> 0.17750038E+12</totfact>
</mgrwt>
</event>
<event>
 4    1  0.3130345E+006  0.2301820E+01  0.7546771E-02  0.2802921E+00
         22   -1    0    0    0    0  0.00000000000E+00  0.00000000000E+00  0.91038723078E+00  0.91038723078E+00  0.00000000000E+00 0.  1.
         22   -1    0    0    0    0 -0.00000000000E+00 -0.00000000000E+00 -0.10107508466E+02  0.10107508466E+02  0.00000000000E+00 0. -1.
          2    1    1    2  501    0  0.44642916909E+00  0.22581116865E+01 -0.81865697373E+01  0.85040165780E+01  0.25500000000E-02 0. -1.
         -2    1    1    2    0  501 -0.44642916909E+00 -0.22581116865E+01 -0.10105514980E+01  0.25138791189E+01  0.25500000000E-02 0.  1.
<mgrwt>
<rscale>  0 0.23018197E+01</rscale>
<asrwt>0</asrwt>
<pdfrwt beam="1">0</pdfrwt>
<pdfrwt beam="2">0</pdfrwt>
<totfact> 0.17434477E+12</totfact>
</mgrwt>
</event>
<event>
 4    1  0.3130345E+006  0.2351560E+01  0.7546771E-02  0.2777825E+00
         22   -1    0    0    0    0  0.00000000000E+00  0.00000000000E+00  0.22076414644E+01  0.22076414644E+01  0.00000000000E+00 0.  1.
         22   -1    0    0    0    0 -0.00000000000E+00 -0.00000000000E+00 -0.27728099710E+01  0.27728099710E+01  0.00000000000E+00 0. -1.
          2    1    1    2  501    0  0.17420729045E+01 -0.15795600488E+01 -0.10566982314E+01  0.25780701323E+01  0.25500000000E-02 0. -1.
         -2    1    1    2    0  501 -0.17420729045E+01  0.15795600488E+01  0.49152972490E+00  0.24023813031E+01  0.25500000000E-02 0.  1.
<mgrwt>
<rscale>  0 0.23515600E+01</rscale>
<asrwt>0</asrwt>
<pdfrwt beam="1">0</pdfrwt>
<pdfrwt beam="2">0</pdfrwt>
<totfact> 0.29231763E+12</totfact>
</mgrwt>
</event>
<event>
 4    1  0.3130345E+006  0.5845809E+01  0.7546771E-02  0.2033798E+00
         22   -1    0    0    0    0  0.00000000000E+00  0.00000000000E+00  0.28222080601E+01  0.28222080601E+01  0.00000000000E+00 0. -1.
         22   -1    0    0    0    0 -0.00000000000E+00 -0.00000000000E+00 -0.19422886945E+02  0.19422886945E+02  0.00000000000E+00 0.  1.
          2    1    1    2  501    0 -0.20865619868E+01  0.54607451590E+01 -0.15125740117E+02  0.16216087666E+02  0.25500000000E-02 0.  1.
         -2    1    1    2    0  501  0.20865619868E+01 -0.54607451590E+01 -0.14749387676E+01  0.60290073384E+01  0.25500000000E-02 0. -1.
<mgrwt>
<rscale>  0 0.58458092E+01</rscale>
<asrwt>0</asrwt>
<pdfrwt beam="1">0</pdfrwt>
<pdfrwt beam="2">0</pdfrwt>
<totfact> 0.21229114E+11</totfact>
</mgrwt>
</event>
<event>
 4    1  0.3130345E+006  0.6480031E+01  0.7546771E-02  0.1979137E+00
         22   -1    0    0    0    0  0.00000000000E+00  0.00000000000E+00  0.19573530348E+02  0.19573530348E+02  0.00000000000E+00 0. -1.
         22   -1    0    0    0    0 -0.00000000000E+00 -0.00000000000E+00 -0.25228955068E+01  0.25228955068E+01  0.00000000000E+00 0.  1.
          2    1    1    2  501    0  0.48468099096E+01 -0.43010723470E+01  0.42510215286E+01  0.77499664627E+01  0.25500000000E-02 0.  1.
         -2    1    1    2    0  501 -0.48468099096E+01  0.43010723470E+01  0.12799613313E+02  0.14346459392E+02  0.25500000000E-02 0. -1.
<mgrwt>
<rscale>  0 0.64800306E+01</rscale>
<asrwt>0</asrwt>
<pdfrwt beam="1">0</pdfrwt>
<pdfrwt beam="2">0</pdfrwt>
<totfact> 0.23959283E+11</totfact>
</mgrwt>
</event>
<event>
 4    1  0.3130345E+006  0.2281737E+01  0.7546771E-02  0.2813348E+00
         22   -1    0    0    0    0  0.00000000000E+00  0.00000000000E+00  0.74736199111E+01  0.74736199111E+01  0.00000000000E+00 0.  1.
         22   -1    0    0    0    0 -0.00000000000E+00 -0.00000000000E+00 -0.69703179894E+00  0.69703179894E+00  0.00000000000E+00 0. -1.
          2    1    1    2  501    0 -0.73497099075E+00 -0.21601233932E+01  0.32897863929E+01  0.40036254126E+01  0.25500000000E-02 0.  1.
         -2    1    1    2    0  501  0.73497099075E+00  0.21601233932E+01  0.34868017192E+01  0.41670262974E+01  0.25500000000E-02 0. -1.
<mgrwt>
<rscale>  0 0.22817366E+01</rscale>
<asrwt>0</asrwt>
<pdfrwt beam="1">0</pdfrwt>
<pdfrwt beam="2">0</pdfrwt>
<totfact> 0.33986851E+12</totfact>
</mgrwt>
</event>
<event>
 4    1  0.3130345E+006  0.2839415E+01  0.7546771E-02  0.2575499E+00
         22   -1    0    0    0    0  0.00000000000E+00  0.00000000000E+00  0.17058596166E+02  0.17058596166E+02  0.00000000000E+00 0. -1.
         22   -1    0    0    0    0 -0.00000000000E+00 -0.00000000000E+00 -0.47270131197E+00  0.47270131197E+00  0.00000000000E+00 0.  1.
          2    1    1    2  501    0  0.28280450528E+01 -0.25382989383E+00  0.84061919814E+01  0.88727864037E+01  0.25500000000E-02 0.  1.
         -2    1    1    2    0  501 -0.28280450528E+01  0.25382989383E+00  0.81797028724E+01  0.86585110740E+01  0.25500000000E-02 0. -1.
<mgrwt>
<rscale>  0 0.28394145E+01</rscale>
<asrwt>0</asrwt>
<pdfrwt beam="1">0</pdfrwt>
<pdfrwt beam="2">0</pdfrwt>
<totfact> 0.19319726E+12</totfact>
</mgrwt>
</event>
<event>
 4    1  0.3130345E+006  0.2554444E+01  0.7546771E-02  0.2685003E+00
         22   -1    0    0    0    0  0.00000000000E+00  0.00000000000E+00  0.17568270685E+01  0.17568270685E+01  0.00000000000E+00 0.  1.
         22   -1    0    0    0    0 -0.00000000000E+00 -0.00000000000E+00 -0.75067695997E+01  0.75067695997E+01  0.00000000000E+00 0. -1.
          2    1    1    2  501    0 -0.99654085521E+00 -0.23520386967E+01 -0.61672042326E+01  0.66752973159E+01  0.25500000000E-02 0. -1.
         -2    1    1    2    0  501  0.99654085521E+00  0.23520386967E+01  0.41726170140E+00  0.25882993523E+01  0.25500000000E-02 0.  1.
<mgrwt>
<rscale>  0 0.25544444E+01</rscale>
<asrwt>0</asrwt>
<pdfrwt beam="1">0</pdfrwt>
<pdfrwt beam="2">0</pdfrwt>
<totfact> 0.11739037E+12</totfact>
</mgrwt>
</event>
<event>
 4    1  0.3130345E+006  0.2898110E+01  0.7546771E-02  0.2555393E+00
         22   -1    0    0    0    0  0.00000000000E+00  0.00000000000E+00  0.44793569516E+01  0.44793569516E+01  0.00000000000E+00 0.  1.
         22   -1    0    0    0    0 -0.00000000000E+00 -0.00000000000E+00 -0.40676467530E+01  0.40676467530E+01  0.00000000000E+00 0. -1.
          2    1    1    2  501    0  0.22565177477E+01 -0.18185599076E+01 -0.29316988798E+01  0.41223654990E+01  0.25500000000E-02 0. -1.
         -2    1    1    2    0  501 -0.22565177477E+01  0.18185599076E+01  0.33434090783E+01  0.44246382056E+01  0.25500000000E-02 0.  1.
<mgrwt>
<rscale>  0 0.28981096E+01</rscale>
<asrwt>0</asrwt>
<pdfrwt beam="1">0</pdfrwt>
<pdfrwt beam="2">0</pdfrwt>
<totfact> 0.81556464E+11</totfact>
</mgrwt>
</event>
<event>
 4    1  0.3130345E+006  0.2086260E+01  0.7546771E-02  0.2924837E+00
         22   -1    0    0    0    0  0.00000000000E+00  0.00000000000E+00  0.10285310581E+01  0.10285310581E+01  0.00000000000E+00 0.  1.
         22   -1    0    0    0    0 -0.00000000000E+00 -0.00000000000E+00 -0.25488719194E+02  0.25488719194E+02  0.00000000000E+00 0. -1.
          2    1    1    2  501    0  0.18413404881E+01  0.98078540079E+00 -0.24338171970E+02  0.24427425082E+02  0.25500000000E-02 0. -1.
         -2    1    1    2    0  501 -0.18413404881E+01 -0.98078540079E+00 -0.12201616619E+00  0.20898251704E+01  0.25500000000E-02 0.  1.
<mgrwt>
<rscale>  0 0.20862601E+01</rscale>
<asrwt>0</asrwt>
<pdfrwt beam="1">0</pdfrwt>
<pdfrwt beam="2">0</pdfrwt>
<totfact> 0.48386704E+11</totfact>
</mgrwt>
</event>
<event>
 4    1  0.3130345E+006  0.3248620E+01  0.7546771E-02  0.2449009E+00
         22   -1    0    0    0    0  0.00000000000E+00  0.00000000000E+00  0.43260340099E+01  0.43260340099E+01  0.00000000000E+00 0. -1.
         22   -1    0    0    0    0 -0.00000000000E+00 -0.00000000000E+00 -0.41959325549E+01  0.41959325549E+01  0.00000000000E+00 0.  1.
          2    1    1    2  501    0 -0.31153004353E+01  0.92110033488E+00 -0.26917570509E+01  0.42188962007E+01  0.25500000000E-02 0.  1.
         -2    1    1    2    0  501  0.31153004353E+01 -0.92110033488E+00  0.28218585059E+01  0.43030703641E+01  0.25500000000E-02 0. -1.
<mgrwt>
<rscale>  0 0.32486196E+01</rscale>
<asrwt>0</asrwt>
<pdfrwt beam="1">0</pdfrwt>
<pdfrwt beam="2">0</pdfrwt>
<totfact> 0.81926387E+11</totfact>
</mgrwt>
</event>
<event>
 4    1  0.3130345E+006  0.2226382E+01  0.7546771E-02  0.2843013E+00
         22   -1    0    0    0    0  0.00000000000E+00  0.00000000000E+00  0.19941082146E+02  0.19941082146E+02  0.00000000000E+00 0. -1.
         22   -1    0    0    0    0 -0.00000000000E+00 -0.00000000000E+00 -0.60980596408E+00  0.60980596408E+00  0.00000000000E+00 0.  1.
          2    1    1    2  501    0  0.13009619089E+01 -0.18067286643E+01  0.17570384489E+01  0.28361877526E+01  0.25500000000E-02 0.  1.
         -2    1    1    2    0  501 -0.13009619089E+01  0.18067286643E+01  0.17574237733E+02  0.17714700358E+02  0.25500000000E-02 0. -1.
<mgrwt>
<rscale>  0 0.22263820E+01</rscale>
<asrwt>0</asrwt>
<pdfrwt beam="1">0</pdfrwt>
<pdfrwt beam="2">0</pdfrwt>
<totfact> 0.11932096E+12</totfact>
</mgrwt>
</event>
<event>
 4    1  0.3130345E+006  0.2902888E+01  0.7546771E-02  0.2553788E+00
         22   -1    0    0    0    0  0.00000000000E+00  0.00000000000E+00  0.10586435268E+02  0.10586435268E+02  0.00000000000E+00 0. -1.
         22   -1    0    0    0    0 -0.00000000000E+00 -0.00000000000E+00 -0.85090847989E+00  0.85090847989E+00  0.00000000000E+00 0.  1.
          2    1    1    2  501    0 -0.10638223706E+01  0.27009322900E+01  0.63205084736E+01  0.69552560800E+01  0.25500000000E-02 0. -1.
         -2    1    1    2    0  501  0.10638223706E+01 -0.27009322900E+01  0.34150183143E+01  0.44820876677E+01  0.25500000000E-02 0.  1.
<mgrwt>
<rscale>  0 0.29028882E+01</rscale>
<asrwt>0</asrwt>
<pdfrwt beam="1">0</pdfrwt>
<pdfrwt beam="2">0</pdfrwt>
<totfact> 0.17802685E+12</totfact>
</mgrwt>
</event>
<event>
 4    1  0.3130345E+006  0.3298699E+01  0.7546771E-02  0.2435458E+00
         22   -1    0    0    0    0  0.00000000000E+00  0.00000000000E+00  0.61874825441E+01  0.61874825441E+01  0.00000000000E+00 0. -1.
         22   -1    0    0    0    0 -0.00000000000E+00 -0.00000000000E+00 -0.18144288095E+01  0.18144288095E+01  0.00000000000E+00 0.  1.
          2    1    1    2  501    0  0.32955871600E+01  0.14323099940E+00  0.28882310783E+01  0.43844378331E+01  0.25500000000E-02 0. -1.
         -2    1    1    2    0  501 -0.32955871600E+01 -0.14323099940E+00  0.14848226563E+01  0.36174735205E+01  0.25500000000E-02 0.  1.
<mgrwt>
<rscale>  0 0.32986992E+01</rscale>
<asrwt>0</asrwt>
<pdfrwt beam="1">0</pdfrwt>
<pdfrwt beam="2">0</pdfrwt>
<totfact> 0.14248950E+12</totfact>
</mgrwt>
</event>
<event>
 4    1  0.3130345E+006  0.2228161E+01  0.7546771E-02  0.2842037E+00
         22   -1    0    0    0    0  0.00000000000E+00  0.00000000000E+00  0.18666270171E+01  0.18666270171E+01  0.00000000000E+00 0.  1.
         22   -1    0    0    0    0 -0.00000000000E+00 -0.00000000000E+00 -0.41576676865E+01  0.41576676865E+01  0.00000000000E+00 0. -1.
          2    1    1    2  501    0  0.21350456441E+01 -0.63739839256E+00 -0.29535261051E+01  0.36997323645E+01  0.25500000000E-02 0. -1.
         -2    1    1    2    0  501 -0.21350456441E+01  0.63739839256E+00  0.66248543562E+00  0.23245623391E+01  0.25500000000E-02 0.  1.
<mgrwt>
<rscale>  0 0.22281614E+01</rscale>
<asrwt>0</asrwt>
<pdfrwt beam="1">0</pdfrwt>
<pdfrwt beam="2">0</pdfrwt>
<totfact> 0.22083001E+12</totfact>
</mgrwt>
</event>
<event>
 4    1  0.3130345E+006  0.2457659E+01  0.7546771E-02  0.2727497E+00
         22   -1    0    0    0    0  0.00000000000E+00  0.00000000000E+00  0.30948878966E+00  0.30948878966E+00  0.00000000000E+00 0. -1.
         22   -1    0    0    0    0 -0.00000000000E+00 -0.00000000000E+00 -0.19922287434E+02  0.19922287434E+02  0.00000000000E+00 0.  1.
          2    1    1    2  501    0  0.48119592184E+00 -0.24100890800E+01 -0.11250423933E+02  0.11515733761E+02  0.25500000000E-02 0. -1.
         -2    1    1    2    0  501 -0.48119592184E+00  0.24100890800E+01 -0.83623747117E+01  0.87160424626E+01  0.25500000000E-02 0.  1.
<mgrwt>
<rscale>  0 0.24576585E+01</rscale>
<asrwt>0</asrwt>
<pdfrwt beam="1">0</pdfrwt>
<pdfrwt beam="2">0</pdfrwt>
<totfact> 0.25656673E+12</totfact>
</mgrwt>
</event>
<event>
 4    1  0.3130345E+006  0.2036444E+01  0.7546771E-02  0.2956551E+00
         22   -1    0    0    0    0  0.00000000000E+00  0.00000000000E+00  0.10592502313E+00  0.10592502313E+00  0.00000000000E+00 0.  1.
         22   -1    0    0    0    0 -0.00000000000E+00 -0.00000000000E+00 -0.61957090373E+02  0.61957090373E+02  0.00000000000E+00 0. -1.
          2    1    1    2  501    0  0.17413224773E+01  0.10558856317E+01 -0.49752521073E+02  0.49794180965E+02  0.25500000000E-02 0. -1.
         -2    1    1    2    0  501 -0.17413224773E+01 -0.10558856317E+01 -0.12098644277E+02  0.12268834430E+02  0.25500000000E-02 0.  1.
<mgrwt>
<rscale>  0 0.20364442E+01</rscale>
<asrwt>0</asrwt>
<pdfrwt beam="1">0</pdfrwt>
<pdfrwt beam="2">0</pdfrwt>
<totfact> 0.19622343E+12</totfact>
</mgrwt>
</event>
<event>
 4    1  0.3130345E+006  0.2657155E+01  0.7546771E-02  0.2643054E+00
         22   -1    0    0    0    0  0.00000000000E+00  0.00000000000E+00  0.53565928303E+01  0.53565928303E+01  0.00000000000E+00 0.  1.
         22   -1    0    0    0    0 -0.00000000000E+00 -0.00000000000E+00 -0.13184626331E+01  0.13184626331E+01  0.00000000000E+00 0. -1.
          2    1    1    2  501    0  0.23273589185E+01  0.12821339020E+01  0.20751467566E+01  0.33714547961E+01  0.25500000000E-02 0.  1.
         -2    1    1    2    0  501 -0.23273589185E+01 -0.12821339020E+01  0.19629834407E+01  0.33036006673E+01  0.25500000000E-02 0. -1.
<mgrwt>
<rscale>  0 0.26571551E+01</rscale>
<asrwt>0</asrwt>
<pdfrwt beam="1">0</pdfrwt>
<pdfrwt beam="2">0</pdfrwt>
<totfact> 0.24428309E+12</totfact>
</mgrwt>
</event>
<event>
 4    1  0.3130345E+006  0.6173513E+01  0.7546771E-02  0.2004468E+00
         22   -1    0    0    0    0  0.00000000000E+00  0.00000000000E+00  0.41345578681E+01  0.41345578681E+01  0.00000000000E+00 0. -1.
         22   -1    0    0    0    0 -0.00000000000E+00 -0.00000000000E+00 -0.20578378589E+02  0.20578378589E+02  0.00000000000E+00 0.  1.
          2    1    1    2  501    0 -0.61172268425E+01 -0.83174258964E+00 -0.17402817385E+02  0.18465381648E+02  0.25500000000E-02 0.  1.
         -2    1    1    2    0  501  0.61172268425E+01  0.83174258964E+00  0.95899666456E+00  0.62475548084E+01  0.25500000000E-02 0. -1.
<mgrwt>
<rscale>  0 0.61735133E+01</rscale>
<asrwt>0</asrwt>
<pdfrwt beam="1">0</pdfrwt>
<pdfrwt beam="2">0</pdfrwt>
<totfact> 0.12626152E+11</totfact>
</mgrwt>
</event>
<event>
 4    1  0.3130345E+006  0.2503598E+01  0.7546771E-02  0.2706946E+00
         22   -1    0    0    0    0  0.00000000000E+00  0.00000000000E+00  0.26404486089E+01  0.26404486089E+01  0.00000000000E+00 0.  1.
         22   -1    0    0    0    0 -0.00000000000E+00 -0.00000000000E+00 -0.25052813247E+01  0.25052813247E+01  0.00000000000E+00 0. -1.
          2    1    1    2  501    0  0.68368517544E+00 -0.24084370984E+01 -0.52174228703E+00  0.25573846392E+01  0.25500000000E-02 0. -1.
         -2    1    1    2    0  501 -0.68368517544E+00  0.24084370984E+01  0.65690957118E+00  0.25883452944E+01  0.25500000000E-02 0.  1.
<mgrwt>
<rscale>  0 0.25035976E+01</rscale>
<asrwt>0</asrwt>
<pdfrwt beam="1">0</pdfrwt>
<pdfrwt beam="2">0</pdfrwt>
<totfact> 0.26718516E+12</totfact>
</mgrwt>
</event>
<event>
 4    1  0.3130345E+006  0.9452466E+01  0.7546771E-02  0.1802355E+00
         22   -1    0    0    0    0  0.00000000000E+00  0.00000000000E+00  0.12894535591E+02  0.12894535591E+02  0.00000000000E+00 0.  1.
         22   -1    0    0    0    0 -0.00000000000E+00 -0.00000000000E+00 -0.81149114066E+01  0.81149114066E+01  0.00000000000E+00 0. -1.
          2    1    1    2  501    0  0.61696149134E+01  0.71613515593E+01 -0.16255807989E+01  0.95912263957E+01  0.25500000000E-02 0. -1.
         -2    1    1    2    0  501 -0.61696149134E+01 -0.71613515593E+01  0.64052049835E+01  0.11418220602E+02  0.25500000000E-02 0.  1.
<mgrwt>
<rscale>  0 0.94524659E+01</rscale>
<asrwt>0</asrwt>
<pdfrwt beam="1">0</pdfrwt>
<pdfrwt beam="2">0</pdfrwt>
<totfact> 0.10086297E+11</totfact>
</mgrwt>
</event>
<event>
 4    1  0.3130345E+006  0.2584579E+01  0.7546771E-02  0.2672377E+00
         22   -1    0    0    0    0  0.00000000000E+00  0.00000000000E+00  0.11299040376E+02  0.11299040376E+02  0.00000000000E+00 0. -1.
         22   -1    0    0    0    0 -0.00000000000E+00 -0.00000000000E+00 -0.63942449966E+00  0.63942449966E+00  0.00000000000E+00 0.  1.
          2    1    1    2  501    0 -0.68877145718E+00 -0.24911108789E+01  0.36905909275E+01  0.45056084414E+01  0.25500000000E-02 0.  1.
         -2    1    1    2    0  501  0.68877145718E+00  0.24911108789E+01  0.69690249485E+01  0.74328564339E+01  0.25500000000E-02 0. -1.
<mgrwt>
<rscale>  0 0.25845785E+01</rscale>
<asrwt>0</asrwt>
<pdfrwt beam="1">0</pdfrwt>
<pdfrwt beam="2">0</pdfrwt>
<totfact> 0.22755615E+12</totfact>
</mgrwt>
</event>
<event>
 4    1  0.3130345E+006  0.2163384E+01  0.7546771E-02  0.2878537E+00
         22   -1    0    0    0    0  0.00000000000E+00  0.00000000000E+00  0.15952648507E+00  0.15952648507E+00  0.00000000000E+00 0. -1.
         22   -1    0    0    0    0 -0.00000000000E+00 -0.00000000000E+00 -0.35102807909E+02  0.35102807909E+02  0.00000000000E+00 0.  1.
          2    1    1    2  501    0 -0.16859812576E+01 -0.13556144101E+01 -0.24616483970E+02  0.24711364042E+02  0.25500000000E-02 0. -1.
         -2    1    1    2    0  501  0.16859812576E+01  0.13556144101E+01 -0.10326797454E+02  0.10550970353E+02  0.25500000000E-02 0.  1.
<mgrwt>
<rscale>  0 0.21633839E+01</rscale>
<asrwt>0</asrwt>
<pdfrwt beam="1">0</pdfrwt>
<pdfrwt beam="2">0</pdfrwt>
<totfact> 0.26260200E+12</totfact>
</mgrwt>
</event>
<event>
 4    1  0.3130345E+006  0.3582067E+01  0.7546771E-02  0.2365093E+00
         22   -1    0    0    0    0  0.00000000000E+00  0.00000000000E+00  0.74594684260E+01  0.74594684260E+01  0.00000000000E+00 0. -1.
         22   -1    0    0    0    0 -0.00000000000E+00 -0.00000000000E+00 -0.25777691302E+01  0.25777691302E+01  0.00000000000E+00 0.  1.
          2    1    1    2  501    0 -0.33469982038E+01 -0.12762457795E+01 -0.45393421726E+00  0.36107150320E+01  0.25500000000E-02 0.  1.
         -2    1    1    2    0  501  0.33469982038E+01  0.12762457795E+01  0.53356335130E+01  0.64265225242E+01  0.25500000000E-02 0. -1.
<mgrwt>
<rscale>  0 0.35820674E+01</rscale>
<asrwt>0</asrwt>
<pdfrwt beam="1">0</pdfrwt>
<pdfrwt beam="2">0</pdfrwt>
<totfact> 0.75846165E+11</totfact>
</mgrwt>
</event>
<event>
 4    1  0.3130345E+006  0.2737732E+01  0.7546771E-02  0.2612176E+00
         22   -1    0    0    0    0  0.00000000000E+00  0.00000000000E+00  0.17228037773E+01  0.17228037773E+01  0.00000000000E+00 0. -1.
         22   -1    0    0    0    0 -0.00000000000E+00 -0.00000000000E+00 -0.43587252682E+01  0.43587252682E+01  0.00000000000E+00 0.  1.
          2    1    1    2  501    0 -0.25429681541E+01 -0.10141418718E+01 -0.11864261304E+01  0.29837533803E+01  0.25500000000E-02 0.  1.
         -2    1    1    2    0  501  0.25429681541E+01  0.10141418718E+01 -0.14494953605E+01  0.30977756652E+01  0.25500000000E-02 0. -1.
<mgrwt>
<rscale>  0 0.27377321E+01</rscale>
<asrwt>0</asrwt>
<pdfrwt beam="1">0</pdfrwt>
<pdfrwt beam="2">0</pdfrwt>
<totfact> 0.22914760E+12</totfact>
</mgrwt>
</event>
<event>
 4    1  0.3130345E+006  0.5995841E+01  0.7546771E-02  0.2020061E+00
         22   -1    0    0    0    0  0.00000000000E+00  0.00000000000E+00  0.31220949789E+02  0.31220949789E+02  0.00000000000E+00 0.  1.
         22   -1    0    0    0    0 -0.00000000000E+00 -0.00000000000E+00 -0.43382269827E+01  0.43382269827E+01  0.00000000000E+00 0. -1.
          2    1    1    2  501    0  0.51590709621E-01  0.59956185763E+01 -0.17970526904E+01  0.62593536877E+01  0.25500000000E-02 0. -1.
         -2    1    1    2    0  501 -0.51590709621E-01 -0.59956185763E+01  0.28679775497E+02  0.29299823084E+02  0.25500000000E-02 0.  1.
<mgrwt>
<rscale>  0 0.59958411E+01</rscale>
<asrwt>0</asrwt>
<pdfrwt beam="1">0</pdfrwt>
<pdfrwt beam="2">0</pdfrwt>
<totfact> 0.70484197E+10</totfact>
</mgrwt>
</event>
<event>
 4    1  0.3130345E+006  0.2607210E+01  0.7546771E-02  0.2663072E+00
         22   -1    0    0    0    0  0.00000000000E+00  0.00000000000E+00  0.34686052874E+02  0.34686052874E+02  0.00000000000E+00 0. -1.
         22   -1    0    0    0    0 -0.00000000000E+00 -0.00000000000E+00 -0.45353143554E+00  0.45353143554E+00  0.00000000000E+00 0.  1.
          2    1    1    2  501    0  0.19988607870E+01 -0.16739452305E+01  0.38758797359E+01  0.46711869273E+01  0.25500000000E-02 0.  1.
         -2    1    1    2    0  501 -0.19988607870E+01  0.16739452305E+01  0.30356641702E+02  0.30468397382E+02  0.25500000000E-02 0. -1.
<mgrwt>
<rscale>  0 0.26072099E+01</rscale>
<asrwt>0</asrwt>
<pdfrwt beam="1">0</pdfrwt>
<pdfrwt beam="2">0</pdfrwt>
<totfact> 0.82766947E+11</totfact>
</mgrwt>
</event>
<event>
 4    1  0.3130345E+006  0.2960814E+01  0.7546771E-02  0.2534710E+00
         22   -1    0    0    0    0  0.00000000000E+00  0.00000000000E+00  0.15629394229E+00  0.15629394229E+00  0.00000000000E+00 0. -1.
         22   -1    0    0    0    0 -0.00000000000E+00 -0.00000000000E+00 -0.73060976027E+02  0.73060976027E+02  0.00000000000E+00 0.  1.
          2    1    1    2  501    0 -0.20450107049E+01 -0.21411086451E+01 -0.54096577311E+02  0.54177542379E+02  0.25500000000E-02 0.  1.
         -2    1    1    2    0  501  0.20450107049E+01  0.21411086451E+01 -0.18808104775E+02  0.19039727591E+02  0.25500000000E-02 0. -1.
<mgrwt>
<rscale>  0 0.29608143E+01</rscale>
<asrwt>0</asrwt>
<pdfrwt beam="1">0</pdfrwt>
<pdfrwt beam="2">0</pdfrwt>
<totfact> 0.10197517E+12</totfact>
</mgrwt>
</event>
<event>
 4    1  0.3130345E+006  0.2587158E+01  0.7546771E-02  0.2671309E+00
         22   -1    0    0    0    0  0.00000000000E+00  0.00000000000E+00  0.59800566661E+01  0.59800566661E+01  0.00000000000E+00 0. -1.
         22   -1    0    0    0    0 -0.00000000000E+00 -0.00000000000E+00 -0.17191516043E+01  0.17191516043E+01  0.00000000000E+00 0.  1.
          2    1    1    2  501    0  0.45924735038E-01  0.25867492616E+01 -0.14352594821E+00  0.25911362419E+01  0.25500000000E-02 0.  1.
         -2    1    1    2    0  501 -0.45924735038E-01 -0.25867492616E+01  0.44044310100E+01  0.51080720285E+01  0.25500000000E-02 0. -1.
<mgrwt>
<rscale>  0 0.25871582E+01</rscale>
<asrwt>0</asrwt>
<pdfrwt beam="1">0</pdfrwt>
<pdfrwt beam="2">0</pdfrwt>
<totfact> 0.15792591E+12</totfact>
</mgrwt>
</event>
<event>
 4    1  0.3130345E+006  0.2224835E+01  0.7546771E-02  0.2843862E+00
         22   -1    0    0    0    0  0.00000000000E+00  0.00000000000E+00  0.38589511882E+02  0.38589511882E+02  0.00000000000E+00 0.  1.
         22   -1    0    0    0    0 -0.00000000000E+00 -0.00000000000E+00 -0.13738549535E+00  0.13738549535E+00  0.00000000000E+00 0. -1.
          2    1    1    2  501    0 -0.22125136474E+01 -0.23381121380E+00  0.14238439527E+02  0.14411212683E+02  0.25500000000E-02 0. -1.
         -2    1    1    2    0  501  0.22125136474E+01  0.23381121380E+00  0.24213686859E+02  0.24315684694E+02  0.25500000000E-02 0.  1.
<mgrwt>
<rscale>  0 0.22248350E+01</rscale>
<asrwt>0</asrwt>
<pdfrwt beam="1">0</pdfrwt>
<pdfrwt beam="2">0</pdfrwt>
<totfact> 0.27438584E+12</totfact>
</mgrwt>
</event>
<event>
 4    1  0.3130345E+006  0.3401390E+01  0.7546771E-02  0.2408774E+00
         22   -1    0    0    0    0  0.00000000000E+00  0.00000000000E+00  0.95233628082E+01  0.95233628082E+01  0.00000000000E+00 0.  1.
         22   -1    0    0    0    0 -0.00000000000E+00 -0.00000000000E+00 -0.18196528069E+01  0.18196528069E+01  0.00000000000E+00 0. -1.
          2    1    1    2  501    0 -0.26834114454E+01 -0.20901557518E+01  0.58212967433E+00  0.34508447535E+01  0.25500000000E-02 0. -1.
         -2    1    1    2    0  501  0.26834114454E+01  0.20901557518E+01  0.71215803270E+01  0.78921708616E+01  0.25500000000E-02 0.  1.
<mgrwt>
<rscale>  0 0.34013901E+01</rscale>
<asrwt>0</asrwt>
<pdfrwt beam="1">0</pdfrwt>
<pdfrwt beam="2">0</pdfrwt>
<totfact> 0.84650971E+11</totfact>
</mgrwt>
</event>
<event>
 4    1  0.3130345E+006  0.2744521E+01  0.7546771E-02  0.2609650E+00
         22   -1    0    0    0    0  0.00000000000E+00  0.00000000000E+00  0.53360539535E+02  0.53360539535E+02  0.00000000000E+00 0. -1.
         22   -1    0    0    0    0 -0.00000000000E+00 -0.00000000000E+00 -0.44920513374E+00  0.44920513374E+00  0.00000000000E+00 0.  1.
          2    1    1    2  501    0  0.88879995563E+00  0.25966172308E+01  0.41756509388E+01  0.49968443712E+01  0.25500000000E-02 0.  1.
         -2    1    1    2    0  501 -0.88879995563E+00 -0.25966172308E+01  0.48735683463E+02  0.48812900298E+02  0.25500000000E-02 0. -1.
<mgrwt>
<rscale>  0 0.27445205E+01</rscale>
<asrwt>0</asrwt>
<pdfrwt beam="1">0</pdfrwt>
<pdfrwt beam="2">0</pdfrwt>
<totfact> 0.47694346E+11</totfact>
</mgrwt>
</event>
<event>
 4    1  0.3130345E+006  0.2015708E+01  0.7546771E-02  0.2970203E+00
         22   -1    0    0    0    0  0.00000000000E+00  0.00000000000E+00  0.22940350793E+01  0.22940350793E+01  0.00000000000E+00 0.  1.
         22   -1    0    0    0    0 -0.00000000000E+00 -0.00000000000E+00 -0.21646094077E+01  0.21646094077E+01  0.00000000000E+00 0. -1.
          2    1    1    2  501    0  0.20152448945E+01  0.43110524844E-01 -0.88574711414E+00  0.22017322623E+01  0.25500000000E-02 0. -1.
         -2    1    1    2    0  501 -0.20152448945E+01 -0.43110524844E-01  0.10151727858E+01  0.22569122246E+01  0.25500000000E-02 0.  1.
<mgrwt>
<rscale>  0 0.20157076E+01</rscale>
<asrwt>0</asrwt>
<pdfrwt beam="1">0</pdfrwt>
<pdfrwt beam="2">0</pdfrwt>
<totfact> 0.37283064E+12</totfact>
</mgrwt>
</event>
<event>
 4    1  0.3130345E+006  0.2214749E+01  0.7546771E-02  0.2849427E+00
         22   -1    0    0    0    0  0.00000000000E+00  0.00000000000E+00  0.15794636781E+01  0.15794636781E+01  0.00000000000E+00 0. -1.
         22   -1    0    0    0    0 -0.00000000000E+00 -0.00000000000E+00 -0.31623083378E+01  0.31623083378E+01  0.00000000000E+00 0.  1.
          2    1    1    2  501    0  0.21465017193E+01 -0.54556227592E+00 -0.47381026918E+00  0.22648643451E+01  0.25500000000E-02 0. -1.
         -2    1    1    2    0  501 -0.21465017193E+01  0.54556227592E+00 -0.11090343906E+01  0.24769076708E+01  0.25500000000E-02 0.  1.
<mgrwt>
<rscale>  0 0.22147493E+01</rscale>
<asrwt>0</asrwt>
<pdfrwt beam="1">0</pdfrwt>
<pdfrwt beam="2">0</pdfrwt>
<totfact> 0.36919640E+12</totfact>
</mgrwt>
</event>
<event>
 4    1  0.3130345E+006  0.2505783E+01  0.7546771E-02  0.2705986E+00
         22   -1    0    0    0    0  0.00000000000E+00  0.00000000000E+00  0.13332655342E+01  0.13332655342E+01  0.00000000000E+00 0. -1.
         22   -1    0    0    0    0 -0.00000000000E+00 -0.00000000000E+00 -0.61093805390E+01  0.61093805390E+01  0.00000000000E+00 0.  1.
          2    1    1    2  501    0  0.79583053071E+00 -0.23760460456E+01 -0.41694187737E+01  0.48644630184E+01  0.25500000000E-02 0. -1.
         -2    1    1    2    0  501 -0.79583053071E+00  0.23760460456E+01 -0.60669623112E+00  0.25781830548E+01  0.25500000000E-02 0.  1.
<mgrwt>
<rscale>  0 0.25057828E+01</rscale>
<asrwt>0</asrwt>
<pdfrwt beam="1">0</pdfrwt>
<pdfrwt beam="2">0</pdfrwt>
<totfact> 0.20627157E+12</totfact>
</mgrwt>
</event>
<event>
 4    1  0.3130345E+006  0.2390323E+01  0.7546771E-02  0.2758951E+00
         22   -1    0    0    0    0  0.00000000000E+00  0.00000000000E+00  0.56489691078E+01  0.56489691078E+01  0.00000000000E+00 0. -1.
         22   -1    0    0    0    0 -0.00000000000E+00 -0.00000000000E+00 -0.11092083433E+01  0.11092083433E+01  0.00000000000E+00 0.  1.
          2    1    1    2  501    0  0.18298461535E+01  0.15379535726E+01  0.12667162891E+01  0.27052199165E+01  0.25500000000E-02 0.  1.
         -2    1    1    2    0  501 -0.18298461535E+01 -0.15379535726E+01  0.32730444754E+01  0.40529575346E+01  0.25500000000E-02 0. -1.
<mgrwt>
<rscale>  0 0.23903231E+01</rscale>
<asrwt>0</asrwt>
<pdfrwt beam="1">0</pdfrwt>
<pdfrwt beam="2">0</pdfrwt>
<totfact> 0.27956754E+12</totfact>
</mgrwt>
</event>
<event>
 4    1  0.3130345E+006  0.7049905E+01  0.7546771E-02  0.1936619E+00
         22   -1    0    0    0    0  0.00000000000E+00  0.00000000000E+00  0.28126442429E+02  0.28126442429E+02  0.00000000000E+00 0. -1.
         22   -1    0    0    0    0 -0.00000000000E+00 -0.00000000000E+00 -0.28349965107E+01  0.28349965107E+01  0.00000000000E+00 0.  1.
          2    1    1    2  501    0  0.63660445238E+01  0.30289652956E+01  0.31443308551E+01  0.77193248843E+01  0.25500000000E-02 0.  1.
         -2    1    1    2    0  501 -0.63660445238E+01 -0.30289652956E+01  0.22147115063E+02  0.23242114055E+02  0.25500000000E-02 0. -1.
<mgrwt>
<rscale>  0 0.70499050E+01</rscale>
<asrwt>0</asrwt>
<pdfrwt beam="1">0</pdfrwt>
<pdfrwt beam="2">0</pdfrwt>
<totfact> 0.13258917E+11</totfact>
</mgrwt>
</event>
<event>
 4    1  0.3130345E+006  0.2054027E+01  0.7546771E-02  0.2945186E+00
         22   -1    0    0    0    0  0.00000000000E+00  0.00000000000E+00  0.67912357833E+00  0.67912357833E+00  0.00000000000E+00 0. -1.
         22   -1    0    0    0    0 -0.00000000000E+00 -0.00000000000E+00 -0.71336625179E+01  0.71336625179E+01  0.00000000000E+00 0.  1.
          2    1    1    2  501    0 -0.35189449928E+00  0.20236574641E+01 -0.46310461137E+01  0.50661241478E+01  0.25500000000E-02 0.  1.
         -2    1    1    2    0  501  0.35189449928E+00 -0.20236574641E+01 -0.18234928259E+01  0.27466619485E+01  0.25500000000E-02 0. -1.
<mgrwt>
<rscale>  0 0.20540267E+01</rscale>
<asrwt>0</asrwt>
<pdfrwt beam="1">0</pdfrwt>
<pdfrwt beam="2">0</pdfrwt>
<totfact> 0.37011198E+12</totfact>
</mgrwt>
</event>
<event>
 4    1  0.3130345E+006  0.3816792E+01  0.7546771E-02  0.2313745E+00
         22   -1    0    0    0    0  0.00000000000E+00  0.00000000000E+00  0.73789347078E+01  0.73789347078E+01  0.00000000000E+00 0. -1.
         22   -1    0    0    0    0 -0.00000000000E+00 -0.00000000000E+00 -0.20836439242E+01  0.20836439242E+01  0.00000000000E+00 0.  1.
          2    1    1    2  501    0 -0.18246753421E+01  0.33523799464E+01  0.15635820652E+01  0.41246438375E+01  0.25500000000E-02 0.  1.
         -2    1    1    2    0  501  0.18246753421E+01 -0.33523799464E+01  0.37317087184E+01  0.53379347945E+01  0.25500000000E-02 0. -1.
<mgrwt>
<rscale>  0 0.38167916E+01</rscale>
<asrwt>0</asrwt>
<pdfrwt beam="1">0</pdfrwt>
<pdfrwt beam="2">0</pdfrwt>
<totfact> 0.98379119E+11</totfact>
</mgrwt>
</event>
<event>
 4    1  0.3130345E+006  0.4662361E+01  0.7546771E-02  0.2166132E+00
         22   -1    0    0    0    0  0.00000000000E+00  0.00000000000E+00  0.33703154902E+01  0.33703154902E+01  0.00000000000E+00 0. -1.
         22   -1    0    0    0    0 -0.00000000000E+00 -0.00000000000E+00 -0.26382795275E+02  0.26382795275E+02  0.00000000000E+00 0.  1.
          2    1    1    2  501    0 -0.11920841452E+01  0.45073871875E+01 -0.24437149362E+02  0.24877939612E+02  0.25500000000E-02 0.  1.
         -2    1    1    2    0  501  0.11920841452E+01 -0.45073871875E+01  0.14246695775E+01  0.48751711534E+01  0.25500000000E-02 0. -1.
<mgrwt>
<rscale>  0 0.46623610E+01</rscale>
<asrwt>0</asrwt>
<pdfrwt beam="1">0</pdfrwt>
<pdfrwt beam="2">0</pdfrwt>
<totfact> 0.11746696E+11</totfact>
</mgrwt>
</event>
<event>
 4    1  0.3130345E+006  0.2455398E+01  0.7546771E-02  0.2728526E+00
         22   -1    0    0    0    0  0.00000000000E+00  0.00000000000E+00  0.62282022503E+01  0.62282022503E+01  0.00000000000E+00 0. -1.
         22   -1    0    0    0    0 -0.00000000000E+00 -0.00000000000E+00 -0.11436515988E+01  0.11436515988E+01  0.00000000000E+00 0.  1.
          2    1    1    2  501    0  0.13366790930E+01  0.20596745949E+01  0.10977984694E+01  0.26896353686E+01  0.25500000000E-02 0.  1.
         -2    1    1    2    0  501 -0.13366790930E+01 -0.20596745949E+01  0.39867521822E+01  0.46822184805E+01  0.25500000000E-02 0. -1.
<mgrwt>
<rscale>  0 0.24553975E+01</rscale>
<asrwt>0</asrwt>
<pdfrwt beam="1">0</pdfrwt>
<pdfrwt beam="2">0</pdfrwt>
<totfact> 0.24034985E+12</totfact>
</mgrwt>
</event>
<event>
 4    1  0.3130345E+006  0.2324857E+01  0.7546771E-02  0.2791171E+00
         22   -1    0    0    0    0  0.00000000000E+00  0.00000000000E+00  0.70548440987E+00  0.70548440987E+00  0.00000000000E+00 0.  1.
         22   -1    0    0    0    0 -0.00000000000E+00 -0.00000000000E+00 -0.77119118876E+01  0.77119118876E+01  0.00000000000E+00 0. -1.
          2    1    1    2  501    0 -0.63774102346E+00  0.22356748455E+01 -0.31624262957E+01  0.39250353127E+01  0.25500000000E-02 0.  1.
         -2    1    1    2    0  501  0.63774102346E+00 -0.22356748455E+01 -0.38440011820E+01  0.44923609848E+01  0.25500000000E-02 0. -1.
<mgrwt>
<rscale>  0 0.23248574E+01</rscale>
<asrwt>0</asrwt>
<pdfrwt beam="1">0</pdfrwt>
<pdfrwt beam="2">0</pdfrwt>
<totfact> 0.32286674E+12</totfact>
</mgrwt>
</event>
<event>
 4    1  0.3130345E+006  0.2186942E+01  0.7546771E-02  0.2865023E+00
         22   -1    0    0    0    0  0.00000000000E+00  0.00000000000E+00  0.69988628318E+01  0.69988628318E+01  0.00000000000E+00 0. -1.
         22   -1    0    0    0    0 -0.00000000000E+00 -0.00000000000E+00 -0.11899373796E+01  0.11899373796E+01  0.00000000000E+00 0.  1.
          2    1    1    2  501    0  0.10102338926E+01 -0.19396229282E+01  0.23297758528E+00  0.21993168664E+01  0.25500000000E-02 0.  1.
         -2    1    1    2    0  501 -0.10102338926E+01  0.19396229282E+01  0.55759478669E+01  0.59894833449E+01  0.25500000000E-02 0. -1.
<mgrwt>
<rscale>  0 0.21869422E+01</rscale>
<asrwt>0</asrwt>
<pdfrwt beam="1">0</pdfrwt>
<pdfrwt beam="2">0</pdfrwt>
<totfact> 0.19980474E+12</totfact>
</mgrwt>
</event>
<event>
 4    1  0.3130345E+006  0.4002042E+01  0.7546771E-02  0.2276904E+00
         22   -1    0    0    0    0  0.00000000000E+00  0.00000000000E+00  0.55502790256E+01  0.55502790256E+01  0.00000000000E+00 0. -1.
         22   -1    0    0    0    0 -0.00000000000E+00 -0.00000000000E+00 -0.65814891763E+01  0.65814891763E+01  0.00000000000E+00 0.  1.
          2    1    1    2  501    0  0.20404082060E+01  0.34428283459E+01 -0.50611576617E+01  0.64522597628E+01  0.25500000000E-02 0.  1.
         -2    1    1    2    0  501 -0.20404082060E+01 -0.34428283459E+01  0.40299475111E+01  0.56795084392E+01  0.25500000000E-02 0. -1.
<mgrwt>
<rscale>  0 0.40020419E+01</rscale>
<asrwt>0</asrwt>
<pdfrwt beam="1">0</pdfrwt>
<pdfrwt beam="2">0</pdfrwt>
<totfact> 0.35771527E+11</totfact>
</mgrwt>
</event>
<event>
 4    1  0.3130345E+006  0.4854954E+01  0.7546771E-02  0.2140725E+00
         22   -1    0    0    0    0  0.00000000000E+00  0.00000000000E+00  0.21166767528E+01  0.21166767528E+01  0.00000000000E+00 0.  1.
         22   -1    0    0    0    0 -0.00000000000E+00 -0.00000000000E+00 -0.24172439161E+02  0.24172439161E+02  0.00000000000E+00 0. -1.
          2    1    1    2  501    0  0.40954690338E+00  0.48376490071E+01 -0.20681073939E+02  0.21243290761E+02  0.25500000000E-02 0. -1.
         -2    1    1    2    0  501 -0.40954690338E+00 -0.48376490071E+01 -0.13746884690E+01  0.50458251527E+01  0.25500000000E-02 0.  1.
<mgrwt>
<rscale>  0 0.48549545E+01</rscale>
<asrwt>0</asrwt>
<pdfrwt beam="1">0</pdfrwt>
<pdfrwt beam="2">0</pdfrwt>
<totfact> 0.22554458E+11</totfact>
</mgrwt>
</event>
<event>
 4    1  0.3130345E+006  0.4115632E+01  0.7546771E-02  0.2255721E+00
         22   -1    0    0    0    0  0.00000000000E+00  0.00000000000E+00  0.16138623966E+01  0.16138623966E+01  0.00000000000E+00 0.  1.
         22   -1    0    0    0    0 -0.00000000000E+00 -0.00000000000E+00 -0.10862477954E+02  0.10862477954E+02  0.00000000000E+00 0. -1.
          2    1    1    2  501    0  0.37918107988E+01  0.16001844560E+01 -0.57707810364E+01  0.70880420216E+01  0.25500000000E-02 0. -1.
         -2    1    1    2    0  501 -0.37918107988E+01 -0.16001844560E+01 -0.34778345214E+01  0.53882983295E+01  0.25500000000E-02 0.  1.
<mgrwt>
<rscale>  0 0.41156319E+01</rscale>
<asrwt>0</asrwt>
<pdfrwt beam="1">0</pdfrwt>
<pdfrwt beam="2">0</pdfrwt>
<totfact> 0.82896136E+11</totfact>
</mgrwt>
</event>
<event>
 4    1  0.3130345E+006  0.4133324E+01  0.7546771E-02  0.2252511E+00
         22   -1    0    0    0    0  0.00000000000E+00  0.00000000000E+00  0.84936629466E+01  0.84936629466E+01  0.00000000000E+00 0.  1.
         22   -1    0    0    0    0 -0.00000000000E+00 -0.00000000000E+00 -0.20258700437E+01  0.20258700437E+01  0.00000000000E+00 0. -1.
          2    1    1    2  501    0 -0.40318909040E+01  0.91006580899E+00  0.27897644643E+01  0.49866979362E+01  0.25500000000E-02 0.  1.
         -2    1    1    2    0  501  0.40318909040E+01 -0.91006580899E+00  0.36780284386E+01  0.55328350541E+01  0.25500000000E-02 0. -1.
<mgrwt>
<rscale>  0 0.41333244E+01</rscale>
<asrwt>0</asrwt>
<pdfrwt beam="1">0</pdfrwt>
<pdfrwt beam="2">0</pdfrwt>
<totfact> 0.85834711E+11</totfact>
</mgrwt>
</event>
<event>
 4    1  0.3130345E+006  0.2719039E+01  0.7546771E-02  0.2619190E+00
         22   -1    0    0    0    0  0.00000000000E+00  0.00000000000E+00  0.27442928027E+02  0.27442928027E+02  0.00000000000E+00 0. -1.
         22   -1    0    0    0    0 -0.00000000000E+00 -0.00000000000E+00 -0.52425285727E+00  0.52425285727E+00  0.00000000000E+00 0.  1.
          2    1    1    2  501    0 -0.44707568200E+00 -0.26820304610E+01  0.37096292106E+01  0.45994042486E+01  0.25500000000E-02 0.  1.
         -2    1    1    2    0  501  0.44707568200E+00  0.26820304610E+01  0.23209045959E+02  0.23367776635E+02  0.25500000000E-02 0. -1.
<mgrwt>
<rscale>  0 0.27190385E+01</rscale>
<asrwt>0</asrwt>
<pdfrwt beam="1">0</pdfrwt>
<pdfrwt beam="2">0</pdfrwt>
<totfact> 0.94772545E+11</totfact>
</mgrwt>
</event>
<event>
 4    1  0.3130345E+006  0.2445075E+01  0.7546771E-02  0.2733251E+00
         22   -1    0    0    0    0  0.00000000000E+00  0.00000000000E+00  0.63768207072E+01  0.63768207072E+01  0.00000000000E+00 0.  1.
         22   -1    0    0    0    0 -0.00000000000E+00 -0.00000000000E+00 -0.46513839578E+01  0.46513839578E+01  0.00000000000E+00 0. -1.
          2    1    1    2  501    0  0.17681912812E+01  0.16887528488E+01 -0.40644426667E+01  0.47432148681E+01  0.25500000000E-02 0. -1.
         -2    1    1    2    0  501 -0.17681912812E+01 -0.16887528488E+01  0.57898794161E+01  0.62849897969E+01  0.25500000000E-02 0.  1.
<mgrwt>
<rscale>  0 0.24450753E+01</rscale>
<asrwt>0</asrwt>
<pdfrwt beam="1">0</pdfrwt>
<pdfrwt beam="2">0</pdfrwt>
<totfact> 0.45791726E+11</totfact>
</mgrwt>
</event>
<event>
 4    1  0.3130345E+006  0.5014938E+01  0.7546771E-02  0.2121225E+00
         22   -1    0    0    0    0  0.00000000000E+00  0.00000000000E+00  0.10734402485E+02  0.10734402485E+02  0.00000000000E+00 0. -1.
         22   -1    0    0    0    0 -0.00000000000E+00 -0.00000000000E+00 -0.24578261855E+01  0.24578261855E+01  0.00000000000E+00 0.  1.
          2    1    1    2  501    0 -0.49089402848E+01 -0.10256243061E+01  0.55646394870E+01  0.74909825163E+01  0.25500000000E-02 0. -1.
         -2    1    1    2    0  501  0.49089402848E+01  0.10256243061E+01  0.27119368130E+01  0.57012461547E+01  0.25500000000E-02 0.  1.
<mgrwt>
<rscale>  0 0.50149383E+01</rscale>
<asrwt>0</asrwt>
<pdfrwt beam="1">0</pdfrwt>
<pdfrwt beam="2">0</pdfrwt>
<totfact> 0.51683247E+11</totfact>
</mgrwt>
</event>
<event>
 4    1  0.3130345E+006  0.2606990E+01  0.7546771E-02  0.2663162E+00
         22   -1    0    0    0    0  0.00000000000E+00  0.00000000000E+00  0.46834362629E+01  0.46834362629E+01  0.00000000000E+00 0.  1.
         22   -1    0    0    0    0 -0.00000000000E+00 -0.00000000000E+00 -0.16288057443E+01  0.16288057443E+01  0.00000000000E+00 0. -1.
          2    1    1    2  501    0 -0.20203175973E+01 -0.16476366449E+01  0.25696360564E+01  0.36605225955E+01  0.25500000000E-02 0.  1.
         -2    1    1    2    0  501  0.20203175973E+01  0.16476366449E+01  0.48499446217E+00  0.26517194117E+01  0.25500000000E-02 0. -1.
<mgrwt>
<rscale>  0 0.26069899E+01</rscale>
<asrwt>0</asrwt>
<pdfrwt beam="1">0</pdfrwt>
<pdfrwt beam="2">0</pdfrwt>
<totfact> 0.22457930E+12</totfact>
</mgrwt>
</event>
<event>
 4    1  0.3130345E+006  0.4733186E+01  0.7546771E-02  0.2156266E+00
         22   -1    0    0    0    0  0.00000000000E+00  0.00000000000E+00  0.16837153747E+02  0.16837153747E+02  0.00000000000E+00 0. -1.
         22   -1    0    0    0    0 -0.00000000000E+00 -0.00000000000E+00 -0.62081105449E+01  0.62081105449E+01  0.00000000000E+00 0.  1.
          2    1    1    2  501    0 -0.15316665713E+01  0.44785089322E+01 -0.48989248469E+01  0.68119392173E+01  0.25500000000E-02 0.  1.
         -2    1    1    2    0  501  0.15316665713E+01 -0.44785089322E+01  0.15527968049E+02  0.16233325074E+02  0.25500000000E-02 0. -1.
<mgrwt>
<rscale>  0 0.47331862E+01</rscale>
<asrwt>0</asrwt>
<pdfrwt beam="1">0</pdfrwt>
<pdfrwt beam="2">0</pdfrwt>
<totfact> 0.10010576E+11</totfact>
</mgrwt>
</event>
<event>
 4    1  0.3130345E+006  0.2058597E+01  0.7546771E-02  0.2942263E+00
         22   -1    0    0    0    0  0.00000000000E+00  0.00000000000E+00  0.37690830296E-01  0.37690830296E-01  0.00000000000E+00 0. -1.
         22   -1    0    0    0    0 -0.00000000000E+00 -0.00000000000E+00 -0.11979174002E+03  0.11979174002E+03  0.00000000000E+00 0.  1.
          2    1    1    2  501    0 -0.19170321829E+01 -0.75020276378E+00 -0.74723385889E+02  0.74751737249E+02  0.25500000000E-02 0.  1.
         -2    1    1    2    0  501  0.19170321829E+01  0.75020276378E+00 -0.45030663304E+02  0.45077693604E+02  0.25500000000E-02 0. -1.
<mgrwt>
<rscale>  0 0.20585974E+01</rscale>
<asrwt>0</asrwt>
<pdfrwt beam="1">0</pdfrwt>
<pdfrwt beam="2">0</pdfrwt>
<totfact> 0.24559727E+12</totfact>
</mgrwt>
</event>
<event>
 4    1  0.3130345E+006  0.2055165E+01  0.7546771E-02  0.2944458E+00
         22   -1    0    0    0    0  0.00000000000E+00  0.00000000000E+00  0.13444795183E+01  0.13444795183E+01  0.00000000000E+00 0.  1.
         22   -1    0    0    0    0 -0.00000000000E+00 -0.00000000000E+00 -0.32717044140E+01  0.32717044140E+01  0.00000000000E+00 0. -1.
          2    1    1    2  501    0 -0.12489041097E+01  0.16321561950E+01 -0.14240331551E+01  0.25003144301E+01  0.25500000000E-02 0. -1.
         -2    1    1    2    0  501  0.12489041097E+01 -0.16321561950E+01 -0.50319174047E+00  0.21158695022E+01  0.25500000000E-02 0.  1.
<mgrwt>
<rscale>  0 0.20551647E+01</rscale>
<asrwt>0</asrwt>
<pdfrwt beam="1">0</pdfrwt>
<pdfrwt beam="2">0</pdfrwt>
<totfact> 0.42697731E+12</totfact>
</mgrwt>
</event>
<event>
 4    1  0.3130345E+006  0.2755381E+01  0.7546771E-02  0.2605633E+00
         22   -1    0    0    0    0  0.00000000000E+00  0.00000000000E+00  0.11265754162E+01  0.11265754162E+01  0.00000000000E+00 0.  1.
         22   -1    0    0    0    0 -0.00000000000E+00 -0.00000000000E+00 -0.79933361448E+01  0.79933361448E+01  0.00000000000E+00 0. -1.
          2    1    1    2  501    0 -0.19226159374E+01 -0.19737440257E+01 -0.16271080262E+01  0.31999382108E+01  0.25500000000E-02 0. -1.
         -2    1    1    2    0  501  0.19226159374E+01  0.19737440257E+01 -0.52396527024E+01  0.59199733501E+01  0.25500000000E-02 0.  1.
<mgrwt>
<rscale>  0 0.27553809E+01</rscale>
<asrwt>0</asrwt>
<pdfrwt beam="1">0</pdfrwt>
<pdfrwt beam="2">0</pdfrwt>
<totfact> 0.18141433E+12</totfact>
</mgrwt>
</event>
<event>
 4    1  0.3130345E+006  0.2229612E+01  0.7546771E-02  0.2841243E+00
         22   -1    0    0    0    0  0.00000000000E+00  0.00000000000E+00  0.18566398438E+02  0.18566398438E+02  0.00000000000E+00 0.  1.
         22   -1    0    0    0    0 -0.00000000000E+00 -0.00000000000E+00 -0.28529421150E+00  0.28529421150E+00  0.00000000000E+00 0. -1.
          2    1    1    2  501    0 -0.18356940534E+01 -0.12654611181E+01  0.68031742743E+01  0.71592144268E+01  0.25500000000E-02 0. -1.
         -2    1    1    2    0  501  0.18356940534E+01  0.12654611181E+01  0.11477929952E+02  0.11692478223E+02  0.25500000000E-02 0.  1.
<mgrwt>
<rscale>  0 0.22296123E+01</rscale>
<asrwt>0</asrwt>
<pdfrwt beam="1">0</pdfrwt>
<pdfrwt beam="2">0</pdfrwt>
<totfact> 0.30684521E+12</totfact>
</mgrwt>
</event>
<event>
 4    1  0.3130345E+006  0.2045565E+01  0.7546771E-02  0.2950632E+00
         22   -1    0    0    0    0  0.00000000000E+00  0.00000000000E+00  0.46225599587E+02  0.46225599587E+02  0.00000000000E+00 0.  1.
         22   -1    0    0    0    0 -0.00000000000E+00 -0.00000000000E+00 -0.95264520670E-01  0.95264520670E-01  0.00000000000E+00 0. -1.
          2    1    1    2  501    0 -0.18642833927E+01 -0.84188985376E+00  0.28233862187E+02  0.28307866602E+02  0.25500000000E-02 0.  1.
         -2    1    1    2    0  501  0.18642833927E+01  0.84188985376E+00  0.17896472880E+02  0.18012997506E+02  0.25500000000E-02 0. -1.
<mgrwt>
<rscale>  0 0.20455653E+01</rscale>
<asrwt>0</asrwt>
<pdfrwt beam="1">0</pdfrwt>
<pdfrwt beam="2">0</pdfrwt>
<totfact> 0.32542702E+12</totfact>
</mgrwt>
</event>
<event>
 4    1  0.3130345E+006  0.3271836E+01  0.7546771E-02  0.2442681E+00
         22   -1    0    0    0    0  0.00000000000E+00  0.00000000000E+00  0.38302702920E+01  0.38302702920E+01  0.00000000000E+00 0. -1.
         22   -1    0    0    0    0 -0.00000000000E+00 -0.00000000000E+00 -0.29884101983E+01  0.29884101983E+01  0.00000000000E+00 0.  1.
          2    1    1    2  501    0  0.79490467691E+00  0.31738038076E+01 -0.44681775394E+00  0.33022048183E+01  0.25500000000E-02 0. -1.
         -2    1    1    2    0  501 -0.79490467691E+00 -0.31738038076E+01  0.12886778477E+01  0.35164756720E+01  0.25500000000E-02 0.  1.
<mgrwt>
<rscale>  0 0.32718360E+01</rscale>
<asrwt>0</asrwt>
<pdfrwt beam="1">0</pdfrwt>
<pdfrwt beam="2">0</pdfrwt>
<totfact> 0.14078371E+12</totfact>
</mgrwt>
</event>
<event>
 4    1  0.3130345E+006  0.2525991E+01  0.7546771E-02  0.2697181E+00
         22   -1    0    0    0    0  0.00000000000E+00  0.00000000000E+00  0.31434550142E+01  0.31434550142E+01  0.00000000000E+00 0.  1.
         22   -1    0    0    0    0 -0.00000000000E+00 -0.00000000000E+00 -0.20551548464E+01  0.20551548464E+01  0.00000000000E+00 0. -1.
          2    1    1    2  501    0 -0.22697335054E+01  0.11085720916E+01  0.83278318094E+00  0.26597286698E+01  0.25500000000E-02 0. -1.
         -2    1    1    2    0  501  0.22697335054E+01 -0.11085720916E+01  0.25551698685E+00  0.25388811908E+01  0.25500000000E-02 0.  1.
<mgrwt>
<rscale>  0 0.25259907E+01</rscale>
<asrwt>0</asrwt>
<pdfrwt beam="1">0</pdfrwt>
<pdfrwt beam="2">0</pdfrwt>
<totfact> 0.27432305E+12</totfact>
</mgrwt>
</event>
<event>
 4    1  0.3130345E+006  0.2681625E+01  0.7546771E-02  0.2633497E+00
         22   -1    0    0    0    0  0.00000000000E+00  0.00000000000E+00  0.89107775990E+01  0.89107775990E+01  0.00000000000E+00 0. -1.
         22   -1    0    0    0    0 -0.00000000000E+00 -0.00000000000E+00 -0.21069093109E+01  0.21069093109E+01  0.00000000000E+00 0.  1.
          2    1    1    2  501    0  0.20790297929E+01 -0.16937366568E+01 -0.92511502616E+00  0.28367151878E+01  0.25500000000E-02 0.  1.
         -2    1    1    2    0  501 -0.20790297929E+01  0.16937366568E+01  0.77289833143E+01  0.81809717221E+01  0.25500000000E-02 0. -1.
<mgrwt>
<rscale>  0 0.26816255E+01</rscale>
<asrwt>0</asrwt>
<pdfrwt beam="1">0</pdfrwt>
<pdfrwt beam="2">0</pdfrwt>
<totfact> 0.77417404E+11</totfact>
</mgrwt>
</event>
<event>
 4    1  0.3130345E+006  0.2199554E+01  0.7546771E-02  0.2857903E+00
         22   -1    0    0    0    0  0.00000000000E+00  0.00000000000E+00  0.80802420229E+01  0.80802420229E+01  0.00000000000E+00 0. -1.
         22   -1    0    0    0    0 -0.00000000000E+00 -0.00000000000E+00 -0.62464544967E+00  0.62464544967E+00  0.00000000000E+00 0.  1.
          2    1    1    2  501    0 -0.62308628984E+00 -0.21094532460E+01  0.46140096748E+01  0.51114695836E+01  0.25500000000E-02 0.  1.
         -2    1    1    2    0  501  0.62308628984E+00  0.21094532460E+01  0.28415868984E+01  0.35934178890E+01  0.25500000000E-02 0. -1.
<mgrwt>
<rscale>  0 0.21995536E+01</rscale>
<asrwt>0</asrwt>
<pdfrwt beam="1">0</pdfrwt>
<pdfrwt beam="2">0</pdfrwt>
<totfact> 0.35045012E+12</totfact>
</mgrwt>
</event>
<event>
 4    1  0.3130345E+006  0.2366745E+01  0.7546771E-02  0.2770362E+00
         22   -1    0    0    0    0  0.00000000000E+00  0.00000000000E+00  0.50555332334E+00  0.50555332334E+00  0.00000000000E+00 0.  1.
         22   -1    0    0    0    0 -0.00000000000E+00 -0.00000000000E+00 -0.40097439876E+02  0.40097439876E+02  0.00000000000E+00 0. -1.
          2    1    1    2  501    0 -0.60847325027E+00  0.22871891590E+01 -0.37066248958E+02  0.37141732489E+02  0.25500000000E-02 0. -1.
         -2    1    1    2    0  501  0.60847325027E+00 -0.22871891590E+01 -0.25256375950E+01  0.34612607109E+01  0.25500000000E-02 0.  1.
<mgrwt>
<rscale>  0 0.23667447E+01</rscale>
<asrwt>0</asrwt>
<pdfrwt beam="1">0</pdfrwt>
<pdfrwt beam="2">0</pdfrwt>
<totfact> 0.60714160E+11</totfact>
</mgrwt>
</event>
<event>
 4    1  0.3130345E+006  0.2494573E+01  0.7546771E-02  0.2710928E+00
         22   -1    0    0    0    0  0.00000000000E+00  0.00000000000E+00  0.15091037575E+00  0.15091037575E+00  0.00000000000E+00 0.  1.
         22   -1    0    0    0    0 -0.00000000000E+00 -0.00000000000E+00 -0.50588025674E+02  0.50588025674E+02  0.00000000000E+00 0. -1.
          2    1    1    2  501    0  0.91620324431E+00 -0.23202278929E+01 -0.14310492849E+02  0.14526289889E+02  0.25500000000E-02 0.  1.
         -2    1    1    2    0  501 -0.91620324431E+00  0.23202278929E+01 -0.36126622450E+02  0.36212646161E+02  0.25500000000E-02 0. -1.
<mgrwt>
<rscale>  0 0.24945726E+01</rscale>
<asrwt>0</asrwt>
<pdfrwt beam="1">0</pdfrwt>
<pdfrwt beam="2">0</pdfrwt>
<totfact> 0.17353212E+12</totfact>
</mgrwt>
</event>
<event>
 4    1  0.3130345E+006  0.2688824E+01  0.7546771E-02  0.2630716E+00
         22   -1    0    0    0    0  0.00000000000E+00  0.00000000000E+00  0.61483705229E+01  0.61483705229E+01  0.00000000000E+00 0. -1.
         22   -1    0    0    0    0 -0.00000000000E+00 -0.00000000000E+00 -0.11759018793E+01  0.11759018793E+01  0.00000000000E+00 0.  1.
          2    1    1    2  501    0 -0.14808284023E+01  0.22443067973E+01  0.24720676332E+01  0.36525183974E+01  0.25500000000E-02 0.  1.
         -2    1    1    2    0  501  0.14808284023E+01 -0.22443067973E+01  0.25004010103E+01  0.36717540049E+01  0.25500000000E-02 0. -1.
<mgrwt>
<rscale>  0 0.26888236E+01</rscale>
<asrwt>0</asrwt>
<pdfrwt beam="1">0</pdfrwt>
<pdfrwt beam="2">0</pdfrwt>
<totfact> 0.23642720E+12</totfact>
</mgrwt>
</event>
<event>
 4    1  0.3130345E+006  0.3746406E+01  0.7546771E-02  0.2328559E+00
         22   -1    0    0    0    0  0.00000000000E+00  0.00000000000E+00  0.23809824939E+02  0.23809824939E+02  0.00000000000E+00 0.  1.
         22   -1    0    0    0    0 -0.00000000000E+00 -0.00000000000E+00 -0.11456171046E+01  0.11456171046E+01  0.00000000000E+00 0. -1.
          2    1    1    2  501    0 -0.19698135762E+01  0.31867521752E+01  0.26384155041E+01  0.45822262958E+01  0.25500000000E-02 0. -1.
         -2    1    1    2    0  501  0.19698135762E+01 -0.31867521752E+01  0.20025792330E+02  0.20373215748E+02  0.25500000000E-02 0.  1.
<mgrwt>
<rscale>  0 0.37464065E+01</rscale>
<asrwt>0</asrwt>
<pdfrwt beam="1">0</pdfrwt>
<pdfrwt beam="2">0</pdfrwt>
<totfact> 0.46614908E+11</totfact>
</mgrwt>
</event>
<event>
 4    1  0.3130345E+006  0.2051869E+01  0.7546771E-02  0.2946571E+00
         22   -1    0    0    0    0  0.00000000000E+00  0.00000000000E+00  0.15605072206E+02  0.15605072206E+02  0.00000000000E+00 0.  1.
         22   -1    0    0    0    0 -0.00000000000E+00 -0.00000000000E+00 -0.29691921528E+00  0.29691921528E+00  0.00000000000E+00 0. -1.
          2    1    1    2  501    0  0.19816658830E+01  0.53212825166E+00  0.52509152561E+01  0.56375772879E+01  0.25500000000E-02 0. -1.
         -2    1    1    2    0  501 -0.19816658830E+01 -0.53212825166E+00  0.10057237735E+02  0.10264414134E+02  0.25500000000E-02 0.  1.
<mgrwt>
<rscale>  0 0.20518691E+01</rscale>
<asrwt>0</asrwt>
<pdfrwt beam="1">0</pdfrwt>
<pdfrwt beam="2">0</pdfrwt>
<totfact> 0.36378733E+12</totfact>
</mgrwt>
</event>
<event>
 4    1  0.3130345E+006  0.2027902E+01  0.7546771E-02  0.2962142E+00
         22   -1    0    0    0    0  0.00000000000E+00  0.00000000000E+00  0.68153386915E+00  0.68153386915E+00  0.00000000000E+00 0. -1.
         22   -1    0    0    0    0 -0.00000000000E+00 -0.00000000000E+00 -0.11300639115E+02  0.11300639115E+02  0.00000000000E+00 0.  1.
          2    1    1    2  501    0 -0.33495451189E+00 -0.20000467399E+01 -0.93995224396E+01  0.96157896235E+01  0.25500000000E-02 0.  1.
         -2    1    1    2    0  501  0.33495451189E+00  0.20000467399E+01 -0.12195828066E+01  0.23663833611E+01  0.25500000000E-02 0. -1.
<mgrwt>
<rscale>  0 0.20279024E+01</rscale>
<asrwt>0</asrwt>
<pdfrwt beam="1">0</pdfrwt>
<pdfrwt beam="2">0</pdfrwt>
<totfact> 0.21162184E+12</totfact>
</mgrwt>
</event>
<event>
 4    1  0.3130345E+006  0.4134020E+01  0.7546771E-02  0.2252386E+00
         22   -1    0    0    0    0  0.00000000000E+00  0.00000000000E+00  0.58828742533E+00  0.58828742533E+00  0.00000000000E+00 0.  1.
         22   -1    0    0    0    0 -0.00000000000E+00 -0.00000000000E+00 -0.29788861632E+02  0.29788861632E+02  0.00000000000E+00 0. -1.
          2    1    1    2  501    0  0.26098003058E+01  0.32060964814E+01 -0.12209245360E+02  0.12890143174E+02  0.25500000000E-02 0. -1.
         -2    1    1    2    0  501 -0.26098003058E+01 -0.32060964814E+01 -0.16991328846E+02  0.17487005883E+02  0.25500000000E-02 0.  1.
<mgrwt>
<rscale>  0 0.41340197E+01</rscale>
<asrwt>0</asrwt>
<pdfrwt beam="1">0</pdfrwt>
<pdfrwt beam="2">0</pdfrwt>
<totfact> 0.74956978E+11</totfact>
</mgrwt>
</event>
<event>
 4    1  0.3130345E+006  0.2451197E+01  0.7546771E-02  0.2730445E+00
         22   -1    0    0    0    0  0.00000000000E+00  0.00000000000E+00  0.62582733024E+00  0.62582733024E+00  0.00000000000E+00 0.  1.
         22   -1    0    0    0    0 -0.00000000000E+00 -0.00000000000E+00 -0.18534400213E+02  0.18534400213E+02  0.00000000000E+00 0. -1.
          2    1    1    2  501    0 -0.24506870580E+01 -0.49908514016E-01 -0.15605451237E+02  0.15796786785E+02  0.25500000000E-02 0. -1.
         -2    1    1    2    0  501  0.24506870580E+01  0.49908514016E-01 -0.23031216453E+01  0.33634407578E+01  0.25500000000E-02 0.  1.
<mgrwt>
<rscale>  0 0.24511965E+01</rscale>
<asrwt>0</asrwt>
<pdfrwt beam="1">0</pdfrwt>
<pdfrwt beam="2">0</pdfrwt>
<totfact> 0.12691509E+12</totfact>
</mgrwt>
</event>
<event>
 4    1  0.3130345E+006  0.2421889E+01  0.7546771E-02  0.2744001E+00
         22   -1    0    0    0    0  0.00000000000E+00  0.00000000000E+00  0.30630699285E+01  0.30630699285E+01  0.00000000000E+00 0.  1.
         22   -1    0    0    0    0 -0.00000000000E+00 -0.00000000000E+00 -0.62338721352E+01  0.62338721352E+01  0.00000000000E+00 0. -1.
          2    1    1    2  501    0 -0.22317565184E+00  0.24115831710E+01 -0.54545920190E+01  0.59680919361E+01  0.25500000000E-02 0. -1.
         -2    1    1    2    0  501  0.22317565184E+00 -0.24115831710E+01  0.22837898123E+01  0.33288501275E+01  0.25500000000E-02 0.  1.
<mgrwt>
<rscale>  0 0.24218892E+01</rscale>
<asrwt>0</asrwt>
<pdfrwt beam="1">0</pdfrwt>
<pdfrwt beam="2">0</pdfrwt>
<totfact> 0.76860764E+11</totfact>
</mgrwt>
</event>
<event>
 4    1  0.3130345E+006  0.4893995E+01  0.7546771E-02  0.2135874E+00
         22   -1    0    0    0    0  0.00000000000E+00  0.00000000000E+00  0.33212193551E+01  0.33212193551E+01  0.00000000000E+00 0. -1.
         22   -1    0    0    0    0 -0.00000000000E+00 -0.00000000000E+00 -0.77292269749E+01  0.77292269749E+01  0.00000000000E+00 0.  1.
          2    1    1    2  501    0  0.84506263169E+00  0.48204819036E+01 -0.36339039184E+01  0.60956083229E+01  0.25500000000E-02 0. -1.
         -2    1    1    2    0  501 -0.84506263169E+00 -0.48204819036E+01 -0.77410370136E+00  0.49548380072E+01  0.25500000000E-02 0.  1.
<mgrwt>
<rscale>  0 0.48939946E+01</rscale>
<asrwt>0</asrwt>
<pdfrwt beam="1">0</pdfrwt>
<pdfrwt beam="2">0</pdfrwt>
<totfact> 0.54068279E+11</totfact>
</mgrwt>
</event>
<event>
 4    1  0.3130345E+006  0.3572466E+01  0.7546771E-02  0.2367317E+00
         22   -1    0    0    0    0  0.00000000000E+00  0.00000000000E+00  0.59985459859E+01  0.59985459859E+01  0.00000000000E+00 0.  1.
         22   -1    0    0    0    0 -0.00000000000E+00 -0.00000000000E+00 -0.21319694764E+01  0.21319694764E+01  0.00000000000E+00 0. -1.
          2    1    1    2  501    0  0.97512099755E+00 -0.34368078392E+01  0.17492803409E+01  0.39777502809E+01  0.25500000000E-02 0. -1.
         -2    1    1    2    0  501 -0.97512099755E+00  0.34368078392E+01  0.21172961687E+01  0.41527651814E+01  0.25500000000E-02 0.  1.
<mgrwt>
<rscale>  0 0.35724663E+01</rscale>
<asrwt>0</asrwt>
<pdfrwt beam="1">0</pdfrwt>
<pdfrwt beam="2">0</pdfrwt>
<totfact> 0.12268249E+12</totfact>
</mgrwt>
</event>
<event>
 4    1  0.3130345E+006  0.2486745E+01  0.7546771E-02  0.2714403E+00
         22   -1    0    0    0    0  0.00000000000E+00  0.00000000000E+00  0.93917964391E+01  0.93917964391E+01  0.00000000000E+00 0. -1.
         22   -1    0    0    0    0 -0.00000000000E+00 -0.00000000000E+00 -0.69557872620E+00  0.69557872620E+00  0.00000000000E+00 0.  1.
          2    1    1    2  501    0  0.23928690796E+01  0.67681098164E+00  0.31826184343E+01  0.40389308162E+01  0.25500000000E-02 0. -1.
         -2    1    1    2    0  501 -0.23928690796E+01 -0.67681098164E+00  0.55135992786E+01  0.60484443491E+01  0.25500000000E-02 0.  1.
<mgrwt>
<rscale>  0 0.24867453E+01</rscale>
<asrwt>0</asrwt>
<pdfrwt beam="1">0</pdfrwt>
<pdfrwt beam="2">0</pdfrwt>
<totfact> 0.25879531E+12</totfact>
</mgrwt>
</event>
<event>
 4    1  0.3130345E+006  0.4816959E+01  0.7546771E-02  0.2145507E+00
         22   -1    0    0    0    0  0.00000000000E+00  0.00000000000E+00  0.15380188431E+01  0.15380188431E+01  0.00000000000E+00 0. -1.
         22   -1    0    0    0    0 -0.00000000000E+00 -0.00000000000E+00 -0.15755207578E+02  0.15755207578E+02  0.00000000000E+00 0.  1.
          2    1    1    2  501    0  0.13847468155E+01 -0.46136275477E+01 -0.53270319511E+01  0.71819467279E+01  0.25500000000E-02 0. -1.
         -2    1    1    2    0  501 -0.13847468155E+01  0.46136275477E+01 -0.88901567843E+01  0.10111279694E+02  0.25500000000E-02 0.  1.
<mgrwt>
<rscale>  0 0.48169585E+01</rscale>
<asrwt>0</asrwt>
<pdfrwt beam="1">0</pdfrwt>
<pdfrwt beam="2">0</pdfrwt>
<totfact> 0.55589446E+11</totfact>
</mgrwt>
</event>
<event>
 4    1  0.3130345E+006  0.3762279E+01  0.7546771E-02  0.2325177E+00
         22   -1    0    0    0    0  0.00000000000E+00  0.00000000000E+00  0.18780886191E+02  0.18780886191E+02  0.00000000000E+00 0. -1.
         22   -1    0    0    0    0 -0.00000000000E+00 -0.00000000000E+00 -0.82829689952E+00  0.82829689952E+00  0.00000000000E+00 0.  1.
          2    1    1    2  501    0 -0.18108693209E+01 -0.32978009770E+01  0.11919090756E+02  0.12498778737E+02  0.25500000000E-02 0. -1.
         -2    1    1    2    0  501  0.18108693209E+01  0.32978009770E+01  0.60334985361E+01  0.71104043534E+01  0.25500000000E-02 0.  1.
<mgrwt>
<rscale>  0 0.37622793E+01</rscale>
<asrwt>0</asrwt>
<pdfrwt beam="1">0</pdfrwt>
<pdfrwt beam="2">0</pdfrwt>
<totfact> 0.90814184E+11</totfact>
</mgrwt>
</event>
<event>
 4    1  0.3130345E+006  0.2328503E+01  0.7546771E-02  0.2789332E+00
         22   -1    0    0    0    0  0.00000000000E+00  0.00000000000E+00  0.75666548134E+00  0.75666548134E+00  0.00000000000E+00 0.  1.
         22   -1    0    0    0    0 -0.00000000000E+00 -0.00000000000E+00 -0.10950114425E+02  0.10950114425E+02  0.00000000000E+00 0. -1.
          2    1    1    2  501    0  0.23253319409E+01  0.12146000977E+00 -0.85378920924E+01  0.88497191511E+01  0.25500000000E-02 0. -1.
         -2    1    1    2    0  501 -0.23253319409E+01 -0.12146000977E+00 -0.16555568515E+01  0.28570607555E+01  0.25500000000E-02 0.  1.
<mgrwt>
<rscale>  0 0.23285033E+01</rscale>
<asrwt>0</asrwt>
<pdfrwt beam="1">0</pdfrwt>
<pdfrwt beam="2">0</pdfrwt>
<totfact> 0.19527835E+12</totfact>
</mgrwt>
</event>
<event>
 4    1  0.3130345E+006  0.2077688E+01  0.7546771E-02  0.2930189E+00
         22   -1    0    0    0    0  0.00000000000E+00  0.00000000000E+00  0.15130740996E+01  0.15130740996E+01  0.00000000000E+00 0. -1.
         22   -1    0    0    0    0 -0.00000000000E+00 -0.00000000000E+00 -0.28552766741E+01  0.28552766741E+01  0.00000000000E+00 0.  1.
          2    1    1    2  501    0  0.20617662194E+01  0.25671408900E+00 -0.73288282412E+00  0.22031581431E+01  0.25500000000E-02 0.  1.
         -2    1    1    2    0  501 -0.20617662194E+01 -0.25671408900E+00 -0.60931975044E+00  0.21651926306E+01  0.25500000000E-02 0. -1.
<mgrwt>
<rscale>  0 0.20776883E+01</rscale>
<asrwt>0</asrwt>
<pdfrwt beam="1">0</pdfrwt>
<pdfrwt beam="2">0</pdfrwt>
<totfact> 0.43705262E+12</totfact>
</mgrwt>
</event>
<event>
 4    1  0.3130345E+006  0.2282147E+01  0.7546771E-02  0.2813133E+00
         22   -1    0    0    0    0  0.00000000000E+00  0.00000000000E+00  0.22098518966E+00  0.22098518966E+00  0.00000000000E+00 0. -1.
         22   -1    0    0    0    0 -0.00000000000E+00 -0.00000000000E+00 -0.28866140099E+02  0.28866140099E+02  0.00000000000E+00 0.  1.
          2    1    1    2  501    0  0.11185384486E+01  0.19892357553E+01 -0.80918975497E+01  0.84075561020E+01  0.25500000000E-02 0. -1.
         -2    1    1    2    0  501 -0.11185384486E+01 -0.19892357553E+01 -0.20553257360E+02  0.20679569187E+02  0.25500000000E-02 0.  1.
<mgrwt>
<rscale>  0 0.22821467E+01</rscale>
<asrwt>0</asrwt>
<pdfrwt beam="1">0</pdfrwt>
<pdfrwt beam="2">0</pdfrwt>
<totfact> 0.23452911E+12</totfact>
</mgrwt>
</event>
<event>
 4    1  0.3130345E+006  0.2118511E+01  0.7546771E-02  0.2905080E+00
         22   -1    0    0    0    0  0.00000000000E+00  0.00000000000E+00  0.18303377623E+01  0.18303377623E+01  0.00000000000E+00 0.  1.
         22   -1    0    0    0    0 -0.00000000000E+00 -0.00000000000E+00 -0.71090786175E+01  0.71090786175E+01  0.00000000000E+00 0. -1.
          2    1    1    2  501    0 -0.85477187017E+00  0.19384131042E+01 -0.62570224018E+01  0.66059379464E+01  0.25500000000E-02 0. -1.
         -2    1    1    2    0  501  0.85477187017E+00 -0.19384131042E+01  0.97828154654E+00  0.23334784335E+01  0.25500000000E-02 0.  1.
<mgrwt>
<rscale>  0 0.21185105E+01</rscale>
<asrwt>0</asrwt>
<pdfrwt beam="1">0</pdfrwt>
<pdfrwt beam="2">0</pdfrwt>
<totfact> 0.11949839E+12</totfact>
</mgrwt>
</event>
<event>
 4    1  0.3130345E+006  0.2685773E+01  0.7546771E-02  0.2631893E+00
         22   -1    0    0    0    0  0.00000000000E+00  0.00000000000E+00  0.27319110884E+01  0.27319110884E+01  0.00000000000E+00 0. -1.
         22   -1    0    0    0    0 -0.00000000000E+00 -0.00000000000E+00 -0.31649124101E+01  0.31649124101E+01  0.00000000000E+00 0.  1.
          2    1    1    2  501    0  0.46111809090E+00 -0.26458911376E+01 -0.14167718180E+01  0.30365471662E+01  0.25500000000E-02 0.  1.
         -2    1    1    2    0  501 -0.46111809090E+00  0.26458911376E+01  0.98377049630E+00  0.28602763324E+01  0.25500000000E-02 0. -1.
<mgrwt>
<rscale>  0 0.26857729E+01</rscale>
<asrwt>0</asrwt>
<pdfrwt beam="1">0</pdfrwt>
<pdfrwt beam="2">0</pdfrwt>
<totfact> 0.19551797E+12</totfact>
</mgrwt>
</event>
<event>
 4    1  0.3130345E+006  0.2407254E+01  0.7546771E-02  0.2750887E+00
         22   -1    0    0    0    0  0.00000000000E+00  0.00000000000E+00  0.26781848986E+00  0.26781848986E+00  0.00000000000E+00 0. -1.
         22   -1    0    0    0    0 -0.00000000000E+00 -0.00000000000E+00 -0.21638598244E+02  0.21638598244E+02  0.00000000000E+00 0.  1.
          2    1    1    2  501    0 -0.19629363795E+01 -0.13934654861E+01 -0.10600889196E+02  0.10870773824E+02  0.25500000000E-02 0. -1.
         -2    1    1    2    0  501  0.19629363795E+01  0.13934654861E+01 -0.10769890558E+02  0.11035642910E+02  0.25500000000E-02 0.  1.
<mgrwt>
<rscale>  0 0.24072540E+01</rscale>
<asrwt>0</asrwt>
<pdfrwt beam="1">0</pdfrwt>
<pdfrwt beam="2">0</pdfrwt>
<totfact> 0.27210839E+12</totfact>
</mgrwt>
</event>
<event>
 4    1  0.3130345E+006  0.3704864E+01  0.7546771E-02  0.2337529E+00
         22   -1    0    0    0    0  0.00000000000E+00  0.00000000000E+00  0.11194496466E+01  0.11194496466E+01  0.00000000000E+00 0. -1.
         22   -1    0    0    0    0 -0.00000000000E+00 -0.00000000000E+00 -0.12738149884E+02  0.12738149884E+02  0.00000000000E+00 0.  1.
          2    1    1    2  501    0  0.87862150911E+00  0.35991718847E+01 -0.71497978381E+01  0.80526784141E+01  0.25500000000E-02 0. -1.
         -2    1    1    2    0  501 -0.87862150911E+00 -0.35991718847E+01 -0.44689023989E+01  0.58049211162E+01  0.25500000000E-02 0.  1.
<mgrwt>
<rscale>  0 0.37048644E+01</rscale>
<asrwt>0</asrwt>
<pdfrwt beam="1">0</pdfrwt>
<pdfrwt beam="2">0</pdfrwt>
<totfact> 0.10390971E+12</totfact>
</mgrwt>
</event>
<event>
 4    1  0.3130345E+006  0.3299838E+01  0.7546771E-02  0.2435154E+00
         22   -1    0    0    0    0  0.00000000000E+00  0.00000000000E+00  0.14622568314E+02  0.14622568314E+02  0.00000000000E+00 0. -1.
         22   -1    0    0    0    0 -0.00000000000E+00 -0.00000000000E+00 -0.48280362070E+01  0.48280362070E+01  0.00000000000E+00 0.  1.
          2    1    1    2  501    0  0.27240024281E+01  0.18624546608E+01 -0.40466396853E+01  0.52215156648E+01  0.25500000000E-02 0.  1.
         -2    1    1    2    0  501 -0.27240024281E+01 -0.18624546608E+01  0.13841171792E+02  0.14229088856E+02  0.25500000000E-02 0. -1.
<mgrwt>
<rscale>  0 0.32998383E+01</rscale>
<asrwt>0</asrwt>
<pdfrwt beam="1">0</pdfrwt>
<pdfrwt beam="2">0</pdfrwt>
<totfact> 0.16054591E+11</totfact>
</mgrwt>
</event>
<event>
 4    1  0.3130345E+006  0.5345398E+01  0.7546771E-02  0.2083900E+00
         22   -1    0    0    0    0  0.00000000000E+00  0.00000000000E+00  0.21848192302E+02  0.21848192302E+02  0.00000000000E+00 0.  1.
         22   -1    0    0    0    0 -0.00000000000E+00 -0.00000000000E+00 -0.15451797626E+01  0.15451797626E+01  0.00000000000E+00 0. -1.
          2    1    1    2  501    0  0.39255010225E+01  0.36281840630E+01  0.55670691056E+01  0.77178716498E+01  0.25500000000E-02 0. -1.
         -2    1    1    2    0  501 -0.39255010225E+01 -0.36281840630E+01  0.14735943434E+02  0.15675500415E+02  0.25500000000E-02 0.  1.
<mgrwt>
<rscale>  0 0.53453984E+01</rscale>
<asrwt>0</asrwt>
<pdfrwt beam="1">0</pdfrwt>
<pdfrwt beam="2">0</pdfrwt>
<totfact> 0.36832392E+11</totfact>
</mgrwt>
</event>
