<event>
 4    1  0.1733759E+006  0.2208230E+01  0.7546771E-02  0.2853050E+00
         22   -1    0    0    0    0  0.00000000000E+00  0.00000000000E+00  0.41147732908E+01  0.41147732908E+01  0.00000000000E+00 0.  1.
         22   -1    0    0    0    0 -0.00000000000E+00 -0.00000000000E+00 -0.42545393339E+01  0.42545393339E+01  0.00000000000E+00 0. -1.
          4    1    1    2  501    0  0.12880781349E+01 -0.12665832786E+01 -0.36242760320E+01  0.42440140480E+01  0.12700000000E+01 0. -1.
         -4    1    1    2    0  501 -0.12880781349E+01  0.12665832786E+01  0.34845099890E+01  0.41252985766E+01  0.12700000000E+01 0.  1.
<mgrwt>
<rscale>  0 0.22082297E+01</rscale>
<asrwt>0</asrwt>
<pdfrwt beam="1">0</pdfrwt>
<pdfrwt beam="2">0</pdfrwt>
<totfact> 0.85490906E+11</totfact>
</mgrwt>
</event>
<event>
 4    1  0.1733759E+006  0.2101660E+01  0.7546771E-02  0.2915329E+00
         22   -1    0    0    0    0  0.00000000000E+00  0.00000000000E+00  0.51203546111E+01  0.51203546111E+01  0.00000000000E+00 0. -1.
         22   -1    0    0    0    0 -0.00000000000E+00 -0.00000000000E+00 -0.60143421523E+01  0.60143421523E+01  0.00000000000E+00 0.  1.
          4    1    1    2  501    0  0.79878880979E+00 -0.14717378694E+01 -0.55996372170E+01  0.59810461360E+01  0.12700000000E+01 0.  1.
         -4    1    1    2    0  501 -0.79878880979E+00  0.14717378694E+01  0.47056496757E+01  0.51536506274E+01  0.12700000000E+01 0. -1.
<mgrwt>
<rscale>  0 0.21016603E+01</rscale>
<asrwt>0</asrwt>
<pdfrwt beam="1">0</pdfrwt>
<pdfrwt beam="2">0</pdfrwt>
<totfact> 0.43821079E+11</totfact>
</mgrwt>
</event>
<event>
 4    1  0.1733759E+006  0.2590361E+01  0.7546771E-02  0.2669985E+00
         22   -1    0    0    0    0  0.00000000000E+00  0.00000000000E+00  0.97162137413E+01  0.97162137413E+01  0.00000000000E+00 0.  1.
         22   -1    0    0    0    0 -0.00000000000E+00 -0.00000000000E+00 -0.43695018757E+01  0.43695018757E+01  0.00000000000E+00 0. -1.
          4    1    1    2  501    0 -0.22267828274E+01  0.37216603260E+00 -0.37890219341E+01  0.45898427569E+01  0.12700000000E+01 0. -1.
         -4    1    1    2    0  501  0.22267828274E+01 -0.37216603260E+00  0.91357337997E+01  0.94958728601E+01  0.12700000000E+01 0.  1.
<mgrwt>
<rscale>  0 0.25903608E+01</rscale>
<asrwt>0</asrwt>
<pdfrwt beam="1">0</pdfrwt>
<pdfrwt beam="2">0</pdfrwt>
<totfact> 0.29731155E+11</totfact>
</mgrwt>
</event>
<event>
 4    1  0.1733759E+006  0.2530628E+01  0.7546771E-02  0.2695179E+00
         22   -1    0    0    0    0  0.00000000000E+00  0.00000000000E+00  0.16982018688E+02  0.16982018688E+02  0.00000000000E+00 0.  1.
         22   -1    0    0    0    0 -0.00000000000E+00 -0.00000000000E+00 -0.73499701641E+01  0.73499701641E+01  0.00000000000E+00 0. -1.
          4    1    1    2  501    0  0.13020170059E+01  0.17595253664E+01 -0.70337567266E+01  0.74751462519E+01  0.12700000000E+01 0. -1.
         -4    1    1    2    0  501 -0.13020170059E+01 -0.17595253664E+01  0.16665805251E+02  0.16856842600E+02  0.12700000000E+01 0.  1.
<mgrwt>
<rscale>  0 0.25306279E+01</rscale>
<asrwt>0</asrwt>
<pdfrwt beam="1">0</pdfrwt>
<pdfrwt beam="2">0</pdfrwt>
<totfact> 0.80952715E+10</totfact>
</mgrwt>
</event>
<event>
 4    1  0.1733759E+006  0.2072932E+01  0.7546771E-02  0.2933177E+00
         22   -1    0    0    0    0  0.00000000000E+00  0.00000000000E+00  0.11071572303E+01  0.11071572303E+01  0.00000000000E+00 0.  1.
         22   -1    0    0    0    0 -0.00000000000E+00 -0.00000000000E+00 -0.38816912852E+01  0.38816912852E+01  0.00000000000E+00 0. -1.
          4    1    1    2  501    0  0.12378264343E+01  0.10732815076E+01 -0.14166197728E+01  0.25107487044E+01  0.12700000000E+01 0. -1.
         -4    1    1    2    0  501 -0.12378264343E+01 -0.10732815076E+01 -0.13579142822E+01  0.24780998111E+01  0.12700000000E+01 0. -1.
<mgrwt>
<rscale>  0 0.20729321E+01</rscale>
<asrwt>0</asrwt>
<pdfrwt beam="1">0</pdfrwt>
<pdfrwt beam="2">0</pdfrwt>
<totfact> 0.43648185E+12</totfact>
</mgrwt>
</event>
<event>
 4    1  0.1733759E+006  0.2177663E+01  0.7546771E-02  0.2870313E+00
         22   -1    0    0    0    0  0.00000000000E+00  0.00000000000E+00  0.10065305465E+02  0.10065305465E+02  0.00000000000E+00 0.  1.
         22   -1    0    0    0    0 -0.00000000000E+00 -0.00000000000E+00 -0.47151009109E+00  0.47151009109E+00  0.00000000000E+00 0. -1.
          4    1    1    2  501    0  0.16430737229E+01  0.65545766389E+00  0.46502509368E+01  0.51348855667E+01  0.12700000000E+01 0. -1.
         -4    1    1    2    0  501 -0.16430737229E+01 -0.65545766389E+00  0.49435444367E+01  0.54019299889E+01  0.12700000000E+01 0. -1.
<mgrwt>
<rscale>  0 0.21776630E+01</rscale>
<asrwt>0</asrwt>
<pdfrwt beam="1">0</pdfrwt>
<pdfrwt beam="2">0</pdfrwt>
<totfact> 0.36950983E+12</totfact>
</mgrwt>
</event>
<event>
 4    1  0.1733759E+006  0.2101550E+01  0.7546771E-02  0.2915397E+00
         22   -1    0    0    0    0  0.00000000000E+00  0.00000000000E+00  0.24705644657E+01  0.24705644657E+01  0.00000000000E+00 0.  1.
         22   -1    0    0    0    0 -0.00000000000E+00 -0.00000000000E+00 -0.17948300662E+01  0.17948300662E+01  0.00000000000E+00 0. -1.
          4    1    1    2  501    0 -0.15658824417E+01  0.59298107779E+00  0.20301388807E+00  0.21113334693E+01  0.12700000000E+01 0.  1.
         -4    1    1    2    0  501  0.15658824417E+01 -0.59298107779E+00  0.47272051145E+00  0.21540610627E+01  0.12700000000E+01 0. -1.
<mgrwt>
<rscale>  0 0.21015505E+01</rscale>
<asrwt>0</asrwt>
<pdfrwt beam="1">0</pdfrwt>
<pdfrwt beam="2">0</pdfrwt>
<totfact> 0.42486657E+12</totfact>
</mgrwt>
</event>
<event>
 4    1  0.1733759E+006  0.2195319E+01  0.7546771E-02  0.2860285E+00
         22   -1    0    0    0    0  0.00000000000E+00  0.00000000000E+00  0.39537200297E+02  0.39537200297E+02  0.00000000000E+00 0. -1.
         22   -1    0    0    0    0 -0.00000000000E+00 -0.00000000000E+00 -0.16356970310E+00  0.16356970310E+00  0.00000000000E+00 0.  1.
          4    1    1    2  501    0 -0.15660350418E+01  0.86836681785E+00  0.96672579988E+01  0.99133901314E+01  0.12700000000E+01 0.  1.
         -4    1    1    2    0  501  0.15660350418E+01 -0.86836681785E+00  0.29706372596E+02  0.29787379869E+02  0.12700000000E+01 0. -1.
<mgrwt>
<rscale>  0 0.21953193E+01</rscale>
<asrwt>0</asrwt>
<pdfrwt beam="1">0</pdfrwt>
<pdfrwt beam="2">0</pdfrwt>
<totfact> 0.21901342E+12</totfact>
</mgrwt>
</event>
<event>
 4    1  0.1733759E+006  0.2348224E+01  0.7546771E-02  0.2779476E+00
         22   -1    0    0    0    0  0.00000000000E+00  0.00000000000E+00  0.87297041345E+01  0.87297041345E+01  0.00000000000E+00 0.  1.
         22   -1    0    0    0    0 -0.00000000000E+00 -0.00000000000E+00 -0.92711789122E+00  0.92711789122E+00  0.00000000000E+00 0. -1.
          4    1    1    2  501    0  0.59409132284E+00  0.18836960203E+01  0.11755260969E+01  0.26260268089E+01  0.12700000000E+01 0. -1.
         -4    1    1    2    0  501 -0.59409132284E+00 -0.18836960203E+01  0.66270601463E+01  0.70307952168E+01  0.12700000000E+01 0.  1.
<mgrwt>
<rscale>  0 0.23482238E+01</rscale>
<asrwt>0</asrwt>
<pdfrwt beam="1">0</pdfrwt>
<pdfrwt beam="2">0</pdfrwt>
<totfact> 0.20383891E+12</totfact>
</mgrwt>
</event>
<event>
 4    1  0.1733759E+006  0.2848860E+01  0.7546771E-02  0.2572213E+00
         22   -1    0    0    0    0  0.00000000000E+00  0.00000000000E+00  0.70933679221E+00  0.70933679221E+00  0.00000000000E+00 0. -1.
         22   -1    0    0    0    0 -0.00000000000E+00 -0.00000000000E+00 -0.14653340838E+02  0.14653340838E+02  0.00000000000E+00 0.  1.
          4    1    1    2  501    0 -0.12429731767E+01 -0.22266839169E+01 -0.10568116678E+02  0.10945368596E+02  0.12700000000E+01 0.  1.
         -4    1    1    2    0  501  0.12429731767E+01  0.22266839169E+01 -0.33758873681E+01  0.44173090345E+01  0.12700000000E+01 0. -1.
<mgrwt>
<rscale>  0 0.28488600E+01</rscale>
<asrwt>0</asrwt>
<pdfrwt beam="1">0</pdfrwt>
<pdfrwt beam="2">0</pdfrwt>
<totfact> 0.14720596E+12</totfact>
</mgrwt>
</event>
<event>
 4    1  0.1733759E+006  0.2396524E+01  0.7546771E-02  0.2755985E+00
         22   -1    0    0    0    0  0.00000000000E+00  0.00000000000E+00  0.32233218992E+01  0.32233218992E+01  0.00000000000E+00 0. -1.
         22   -1    0    0    0    0 -0.00000000000E+00 -0.00000000000E+00 -0.17924768409E+01  0.17924768409E+01  0.00000000000E+00 0. -1.
          4    1    1    2  501    0  0.18854898348E+00 -0.20235801309E+01  0.90894306590E+00  0.25631045164E+01  0.12700000000E+01 0. -1.
         -4    1    1    2    0  501 -0.18854898348E+00  0.20235801309E+01  0.52190199234E+00  0.24526942237E+01  0.12700000000E+01 0. -1.
<mgrwt>
<rscale>  0 0.23965240E+01</rscale>
<asrwt>0</asrwt>
<pdfrwt beam="1">0</pdfrwt>
<pdfrwt beam="2">0</pdfrwt>
<totfact> 0.31202707E+12</totfact>
</mgrwt>
</event>
<event>
 4    1  0.1733759E+006  0.2904571E+01  0.7546771E-02  0.2553224E+00
         22   -1    0    0    0    0  0.00000000000E+00  0.00000000000E+00  0.45161326401E+00  0.45161326401E+00  0.00000000000E+00 0. -1.
         22   -1    0    0    0    0 -0.00000000000E+00 -0.00000000000E+00 -0.18954360233E+02  0.18954360233E+02  0.00000000000E+00 0. -1.
          4    1    1    2  501    0  0.11695599543E+01  0.23357577287E+01 -0.10416870784E+02  0.10814237449E+02  0.12700000000E+01 0. -1.
         -4    1    1    2    0  501 -0.11695599543E+01 -0.23357577287E+01 -0.80858761842E+01  0.85917360481E+01  0.12700000000E+01 0. -1.
<mgrwt>
<rscale>  0 0.29045713E+01</rscale>
<asrwt>0</asrwt>
<pdfrwt beam="1">0</pdfrwt>
<pdfrwt beam="2">0</pdfrwt>
<totfact> 0.17847485E+12</totfact>
</mgrwt>
</event>
<event>
 4    1  0.1733759E+006  0.2020928E+01  0.7546771E-02  0.2966741E+00
         22   -1    0    0    0    0  0.00000000000E+00  0.00000000000E+00  0.37048697313E+02  0.37048697313E+02  0.00000000000E+00 0.  1.
         22   -1    0    0    0    0 -0.00000000000E+00 -0.00000000000E+00 -0.14364030012E+00  0.14364030012E+00  0.00000000000E+00 0.  1.
          4    1    1    2  501    0 -0.11464193506E+01 -0.10756264100E+01  0.27420162307E+02  0.27494534920E+02  0.12700000000E+01 0.  1.
         -4    1    1    2    0  501  0.11464193506E+01  0.10756264100E+01  0.94848947057E+01  0.96978026934E+01  0.12700000000E+01 0.  1.
<mgrwt>
<rscale>  0 0.20209279E+01</rscale>
<asrwt>0</asrwt>
<pdfrwt beam="1">0</pdfrwt>
<pdfrwt beam="2">0</pdfrwt>
<totfact> 0.27525262E+12</totfact>
</mgrwt>
</event>
<event>
 4    1  0.1733759E+006  0.2214804E+01  0.7546771E-02  0.2849396E+00
         22   -1    0    0    0    0  0.00000000000E+00  0.00000000000E+00  0.15172121775E+01  0.15172121775E+01  0.00000000000E+00 0. -1.
         22   -1    0    0    0    0 -0.00000000000E+00 -0.00000000000E+00 -0.36616014156E+01  0.36616014156E+01  0.00000000000E+00 0.  1.
          4    1    1    2  501    0  0.18139153201E+01 -0.46555977720E-01 -0.19579660226E+01  0.29561778014E+01  0.12700000000E+01 0.  1.
         -4    1    1    2    0  501 -0.18139153201E+01  0.46555977720E-01 -0.18642321544E+00  0.22226357918E+01  0.12700000000E+01 0. -1.
<mgrwt>
<rscale>  0 0.22148039E+01</rscale>
<asrwt>0</asrwt>
<pdfrwt beam="1">0</pdfrwt>
<pdfrwt beam="2">0</pdfrwt>
<totfact> 0.32565382E+12</totfact>
</mgrwt>
</event>
<event>
 4    1  0.1733759E+006  0.2946834E+01  0.7546771E-02  0.2539253E+00
         22   -1    0    0    0    0  0.00000000000E+00  0.00000000000E+00  0.37726672937E+01  0.37726672937E+01  0.00000000000E+00 0.  1.
         22   -1    0    0    0    0 -0.00000000000E+00 -0.00000000000E+00 -0.29776994683E+01  0.29776994683E+01  0.00000000000E+00 0. -1.
          4    1    1    2  501    0  0.97526073964E+00  0.24738223123E+01 -0.12105903622E+01  0.31858059213E+01  0.12700000000E+01 0. -1.
         -4    1    1    2    0  501 -0.97526073964E+00 -0.24738223123E+01  0.20055581876E+01  0.35645608407E+01  0.12700000000E+01 0.  1.
<mgrwt>
<rscale>  0 0.29468340E+01</rscale>
<asrwt>0</asrwt>
<pdfrwt beam="1">0</pdfrwt>
<pdfrwt beam="2">0</pdfrwt>
<totfact> 0.14391475E+12</totfact>
</mgrwt>
</event>
<event>
 4    1  0.1733759E+006  0.2354756E+01  0.7546771E-02  0.2776246E+00
         22   -1    0    0    0    0  0.00000000000E+00  0.00000000000E+00  0.18748591015E+01  0.18748591015E+01  0.00000000000E+00 0. -1.
         22   -1    0    0    0    0 -0.00000000000E+00 -0.00000000000E+00 -0.45629583311E+01  0.45629583311E+01  0.00000000000E+00 0. -1.
          4    1    1    2  501    0 -0.11979993379E+01  0.15801186223E+01 -0.32534027757E+01  0.40161557359E+01  0.12700000000E+01 0. -1.
         -4    1    1    2    0  501  0.11979993379E+01 -0.15801186223E+01  0.56530354611E+00  0.24216616968E+01  0.12700000000E+01 0. -1.
<mgrwt>
<rscale>  0 0.23547563E+01</rscale>
<asrwt>0</asrwt>
<pdfrwt beam="1">0</pdfrwt>
<pdfrwt beam="2">0</pdfrwt>
<totfact> 0.19688453E+12</totfact>
</mgrwt>
</event>
<event>
 4    1  0.1733759E+006  0.2105655E+01  0.7546771E-02  0.2912885E+00
         22   -1    0    0    0    0  0.00000000000E+00  0.00000000000E+00  0.25220985730E+00  0.25220985730E+00  0.00000000000E+00 0.  1.
         22   -1    0    0    0    0 -0.00000000000E+00 -0.00000000000E+00 -0.89553425949E+02  0.89553425949E+02  0.00000000000E+00 0.  1.
          4    1    1    2  501    0  0.10956463654E+01  0.12729659264E+01 -0.84905565522E+02  0.84931671594E+02  0.12700000000E+01 0.  1.
         -4    1    1    2    0  501 -0.10956463654E+01 -0.12729659264E+01 -0.43956505694E+01  0.48739642116E+01  0.12700000000E+01 0.  1.
<mgrwt>
<rscale>  0 0.21056551E+01</rscale>
<asrwt>0</asrwt>
<pdfrwt beam="1">0</pdfrwt>
<pdfrwt beam="2">0</pdfrwt>
<totfact> 0.45183360E+11</totfact>
</mgrwt>
</event>
<event>
 4    1  0.1733759E+006  0.3478299E+01  0.7546771E-02  0.2389696E+00
         22   -1    0    0    0    0  0.00000000000E+00  0.00000000000E+00  0.18546768146E+02  0.18546768146E+02  0.00000000000E+00 0.  1.
         22   -1    0    0    0    0 -0.00000000000E+00 -0.00000000000E+00 -0.11791229116E+01  0.11791229116E+01  0.00000000000E+00 0. -1.
          4    1    1    2  501    0  0.23758036456E+01  0.22002777185E+01  0.20913531137E+01  0.40586109504E+01  0.12700000000E+01 0. -1.
         -4    1    1    2    0  501 -0.23758036456E+01 -0.22002777185E+01  0.15276292120E+02  0.15667280107E+02  0.12700000000E+01 0.  1.
<mgrwt>
<rscale>  0 0.34782992E+01</rscale>
<asrwt>0</asrwt>
<pdfrwt beam="1">0</pdfrwt>
<pdfrwt beam="2">0</pdfrwt>
<totfact> 0.61632572E+11</totfact>
</mgrwt>
</event>
<event>
 4    1  0.1733759E+006  0.2342869E+01  0.7546771E-02  0.2782137E+00
         22   -1    0    0    0    0  0.00000000000E+00  0.00000000000E+00  0.21435328303E+01  0.21435328303E+01  0.00000000000E+00 0. -1.
         22   -1    0    0    0    0 -0.00000000000E+00 -0.00000000000E+00 -0.28957705541E+01  0.28957705541E+01  0.00000000000E+00 0.  1.
          4    1    1    2  501    0  0.19434784381E+01  0.31468531623E+00  0.48091725339E+00  0.23917183555E+01  0.12700000000E+01 0. -1.
         -4    1    1    2    0  501 -0.19434784381E+01 -0.31468531623E+00 -0.12331549772E+01  0.26475850289E+01  0.12700000000E+01 0. -1.
<mgrwt>
<rscale>  0 0.23428690E+01</rscale>
<asrwt>0</asrwt>
<pdfrwt beam="1">0</pdfrwt>
<pdfrwt beam="2">0</pdfrwt>
<totfact> 0.28754895E+12</totfact>
</mgrwt>
</event>
<event>
 4    1  0.1733759E+006  0.5150028E+01  0.7546771E-02  0.2105510E+00
         22   -1    0    0    0    0  0.00000000000E+00  0.00000000000E+00  0.10051104091E+01  0.10051104091E+01  0.00000000000E+00 0.  1.
         22   -1    0    0    0    0 -0.00000000000E+00 -0.00000000000E+00 -0.26418106557E+02  0.26418106557E+02  0.00000000000E+00 0. -1.
          4    1    1    2  501    0  0.32459024056E+01 -0.37913071192E+01 -0.13169846926E+02  0.14140992191E+02  0.12700000000E+01 0. -1.
         -4    1    1    2    0  501 -0.32459024056E+01  0.37913071192E+01 -0.12243149223E+02  0.13282224775E+02  0.12700000000E+01 0.  1.
<mgrwt>
<rscale>  0 0.51500284E+01</rscale>
<asrwt>0</asrwt>
<pdfrwt beam="1">0</pdfrwt>
<pdfrwt beam="2">0</pdfrwt>
<totfact> 0.47483718E+11</totfact>
</mgrwt>
</event>
<event>
 4    1  0.1733759E+006  0.6822345E+01  0.7546771E-02  0.1952943E+00
         22   -1    0    0    0    0  0.00000000000E+00  0.00000000000E+00  0.69182236560E+00  0.69182236560E+00  0.00000000000E+00 0. -1.
         22   -1    0    0    0    0 -0.00000000000E+00 -0.00000000000E+00 -0.67922616774E+02  0.67922616774E+02  0.00000000000E+00 0.  1.
          4    1    1    2  501    0  0.24289607964E+01 -0.62475311909E+01 -0.30273115628E+02  0.31032336785E+02  0.12700000000E+01 0. -1.
         -4    1    1    2    0  501 -0.24289607964E+01  0.62475311909E+01 -0.36957678781E+02  0.37582102355E+02  0.12700000000E+01 0.  1.
<mgrwt>
<rscale>  0 0.68223454E+01</rscale>
<asrwt>0</asrwt>
<pdfrwt beam="1">0</pdfrwt>
<pdfrwt beam="2">0</pdfrwt>
<totfact> 0.21184512E+11</totfact>
</mgrwt>
</event>
<event>
 4    1  0.1733759E+006  0.2269167E+01  0.7546771E-02  0.2819963E+00
         22   -1    0    0    0    0  0.00000000000E+00  0.00000000000E+00  0.58382656487E+01  0.58382656487E+01  0.00000000000E+00 0.  1.
         22   -1    0    0    0    0 -0.00000000000E+00 -0.00000000000E+00 -0.10675015437E+01  0.10675015437E+01  0.00000000000E+00 0. -1.
          4    1    1    2  501    0 -0.18063808459E+01  0.52269138422E+00  0.94586103680E+00  0.24584082542E+01  0.12700000000E+01 0. -1.
         -4    1    1    2    0  501  0.18063808459E+01 -0.52269138422E+00  0.38249030682E+01  0.44473589382E+01  0.12700000000E+01 0.  1.
<mgrwt>
<rscale>  0 0.22691668E+01</rscale>
<asrwt>0</asrwt>
<pdfrwt beam="1">0</pdfrwt>
<pdfrwt beam="2">0</pdfrwt>
<totfact> 0.28086552E+12</totfact>
</mgrwt>
</event>
<event>
 4    1  0.1733759E+006  0.2608692E+01  0.7546771E-02  0.2662468E+00
         22   -1    0    0    0    0  0.00000000000E+00  0.00000000000E+00  0.22633926031E+01  0.22633926031E+01  0.00000000000E+00 0. -1.
         22   -1    0    0    0    0 -0.00000000000E+00 -0.00000000000E+00 -0.31609865939E+01  0.31609865939E+01  0.00000000000E+00 0. -1.
          4    1    1    2  501    0 -0.18646384447E+01 -0.13097693349E+01 -0.10480586987E+01  0.28113518592E+01  0.12700000000E+01 0. -1.
         -4    1    1    2    0  501  0.18646384447E+01  0.13097693349E+01  0.15046470795E+00  0.26130273379E+01  0.12700000000E+01 0. -1.
<mgrwt>
<rscale>  0 0.26086917E+01</rscale>
<asrwt>0</asrwt>
<pdfrwt beam="1">0</pdfrwt>
<pdfrwt beam="2">0</pdfrwt>
<totfact> 0.24369408E+12</totfact>
</mgrwt>
</event>
<event>
 4    1  0.1733759E+006  0.2150195E+01  0.7546771E-02  0.2886227E+00
         22   -1    0    0    0    0  0.00000000000E+00  0.00000000000E+00  0.29794243101E+02  0.29794243101E+02  0.00000000000E+00 0.  1.
         22   -1    0    0    0    0 -0.00000000000E+00 -0.00000000000E+00 -0.20037933177E+01  0.20037933177E+01  0.00000000000E+00 0.  1.
          4    1    1    2  501    0 -0.77071854176E+00  0.15544879455E+01 -0.13757723662E+01  0.25526632067E+01  0.12700000000E+01 0.  1.
         -4    1    1    2    0  501  0.77071854176E+00 -0.15544879455E+01  0.29166222149E+02  0.29245373212E+02  0.12700000000E+01 0.  1.
<mgrwt>
<rscale>  0 0.21501953E+01</rscale>
<asrwt>0</asrwt>
<pdfrwt beam="1">0</pdfrwt>
<pdfrwt beam="2">0</pdfrwt>
<totfact> 0.18439774E+11</totfact>
</mgrwt>
</event>
<event>
 4    1  0.1733759E+006  0.2188142E+01  0.7546771E-02  0.2864342E+00
         22   -1    0    0    0    0  0.00000000000E+00  0.00000000000E+00  0.41451880929E+01  0.41451880929E+01  0.00000000000E+00 0. -1.
         22   -1    0    0    0    0 -0.00000000000E+00 -0.00000000000E+00 -0.12706429737E+01  0.12706429737E+01  0.00000000000E+00 0. -1.
          4    1    1    2  501    0 -0.13986136337E+01  0.11040579680E+01  0.62057775987E+00  0.22744407773E+01  0.12700000000E+01 0. -1.
         -4    1    1    2    0  501  0.13986136337E+01 -0.11040579680E+01  0.22539673594E+01  0.31413902894E+01  0.12700000000E+01 0. -1.
<mgrwt>
<rscale>  0 0.21881417E+01</rscale>
<asrwt>0</asrwt>
<pdfrwt beam="1">0</pdfrwt>
<pdfrwt beam="2">0</pdfrwt>
<totfact> 0.34506001E+12</totfact>
</mgrwt>
</event>
<event>
 4    1  0.1733759E+006  0.3115676E+01  0.7546771E-02  0.2486843E+00
         22   -1    0    0    0    0  0.00000000000E+00  0.00000000000E+00  0.96944457771E+02  0.96944457771E+02  0.00000000000E+00 0. -1.
         22   -1    0    0    0    0 -0.00000000000E+00 -0.00000000000E+00 -0.20377495083E+00  0.20377495083E+00  0.00000000000E+00 0.  1.
          4    1    1    2  501    0 -0.17873339575E+01  0.22135887762E+01  0.13728962584E+02  0.14078062778E+02  0.12700000000E+01 0.  1.
         -4    1    1    2    0  501  0.17873339575E+01 -0.22135887762E+01  0.83011720236E+02  0.83070169944E+02  0.12700000000E+01 0. -1.
<mgrwt>
<rscale>  0 0.31156762E+01</rscale>
<asrwt>0</asrwt>
<pdfrwt beam="1">0</pdfrwt>
<pdfrwt beam="2">0</pdfrwt>
<totfact> 0.51334077E+11</totfact>
</mgrwt>
</event>
<event>
 4    1  0.1733759E+006  0.2092506E+01  0.7546771E-02  0.2920965E+00
         22   -1    0    0    0    0  0.00000000000E+00  0.00000000000E+00  0.17059285856E+01  0.17059285856E+01  0.00000000000E+00 0. -1.
         22   -1    0    0    0    0 -0.00000000000E+00 -0.00000000000E+00 -0.28448499216E+01  0.28448499216E+01  0.00000000000E+00 0.  1.
          4    1    1    2  501    0 -0.15916618215E+01 -0.48196751700E+00 -0.12809653868E+01  0.24534572267E+01  0.12700000000E+01 0.  1.
         -4    1    1    2    0  501  0.15916618215E+01  0.48196751700E+00  0.14204405075E+00  0.20973212805E+01  0.12700000000E+01 0. -1.
<mgrwt>
<rscale>  0 0.20925057E+01</rscale>
<asrwt>0</asrwt>
<pdfrwt beam="1">0</pdfrwt>
<pdfrwt beam="2">0</pdfrwt>
<totfact> 0.38225954E+12</totfact>
</mgrwt>
</event>
<event>
 4    1  0.1733759E+006  0.2178571E+01  0.7546771E-02  0.2869793E+00
         22   -1    0    0    0    0  0.00000000000E+00  0.00000000000E+00  0.11183091234E+01  0.11183091234E+01  0.00000000000E+00 0. -1.
         22   -1    0    0    0    0 -0.00000000000E+00 -0.00000000000E+00 -0.92580748975E+01  0.92580748975E+01  0.00000000000E+00 0.  1.
          4    1    1    2  501    0 -0.14772336107E+01  0.97521825554E+00 -0.78879939159E+01  0.81833133757E+01  0.12700000000E+01 0.  1.
         -4    1    1    2    0  501  0.14772336107E+01 -0.97521825554E+00 -0.25177185822E+00  0.21930706453E+01  0.12700000000E+01 0. -1.
<mgrwt>
<rscale>  0 0.21785706E+01</rscale>
<asrwt>0</asrwt>
<pdfrwt beam="1">0</pdfrwt>
<pdfrwt beam="2">0</pdfrwt>
<totfact> 0.15327524E+12</totfact>
</mgrwt>
</event>
<event>
 4    1  0.1733759E+006  0.3297933E+01  0.7546771E-02  0.2435663E+00
         22   -1    0    0    0    0  0.00000000000E+00  0.00000000000E+00  0.12455480175E+01  0.12455480175E+01  0.00000000000E+00 0.  1.
         22   -1    0    0    0    0 -0.00000000000E+00 -0.00000000000E+00 -0.97740154881E+01  0.97740154881E+01  0.00000000000E+00 0. -1.
          4    1    1    2  501    0  0.22645861287E+01 -0.20334966215E+01 -0.24653798330E+01  0.41175789689E+01  0.12700000000E+01 0. -1.
         -4    1    1    2    0  501 -0.22645861287E+01  0.20334966215E+01 -0.60630876376E+01  0.69019845367E+01  0.12700000000E+01 0.  1.
<mgrwt>
<rscale>  0 0.32979325E+01</rscale>
<asrwt>0</asrwt>
<pdfrwt beam="1">0</pdfrwt>
<pdfrwt beam="2">0</pdfrwt>
<totfact> 0.12689170E+12</totfact>
</mgrwt>
</event>
<event>
 4    1  0.1733759E+006  0.2327199E+01  0.7546771E-02  0.2789989E+00
         22   -1    0    0    0    0  0.00000000000E+00  0.00000000000E+00  0.66858058513E+01  0.66858058513E+01  0.00000000000E+00 0. -1.
         22   -1    0    0    0    0 -0.00000000000E+00 -0.00000000000E+00 -0.16977939542E+01  0.16977939542E+01  0.00000000000E+00 0.  1.
          4    1    1    2  501    0  0.15747169301E+01 -0.11503136886E+01 -0.53710097367E+00  0.23883744364E+01  0.12700000000E+01 0.  1.
         -4    1    1    2    0  501 -0.15747169301E+01  0.11503136886E+01  0.55251128707E+01  0.59952253691E+01  0.12700000000E+01 0. -1.
<mgrwt>
<rscale>  0 0.23271990E+01</rscale>
<asrwt>0</asrwt>
<pdfrwt beam="1">0</pdfrwt>
<pdfrwt beam="2">0</pdfrwt>
<totfact> 0.14026201E+12</totfact>
</mgrwt>
</event>
<event>
 4    1  0.1733759E+006  0.2415332E+01  0.7546771E-02  0.2747076E+00
         22   -1    0    0    0    0  0.00000000000E+00  0.00000000000E+00  0.10916331450E+02  0.10916331450E+02  0.00000000000E+00 0. -1.
         22   -1    0    0    0    0 -0.00000000000E+00 -0.00000000000E+00 -0.10825977794E+01  0.10825977794E+01  0.00000000000E+00 0. -1.
          4    1    1    2  501    0  0.99779522876E+00  0.17959213921E+01  0.64770681299E+00  0.25006705262E+01  0.12700000000E+01 0. -1.
         -4    1    1    2    0  501 -0.99779522876E+00 -0.17959213921E+01  0.91860268572E+01  0.94982587029E+01  0.12700000000E+01 0. -1.
<mgrwt>
<rscale>  0 0.24153321E+01</rscale>
<asrwt>0</asrwt>
<pdfrwt beam="1">0</pdfrwt>
<pdfrwt beam="2">0</pdfrwt>
<totfact> 0.13030049E+12</totfact>
</mgrwt>
</event>
<event>
 4    1  0.1733759E+006  0.2588581E+01  0.7546771E-02  0.2670720E+00
         22   -1    0    0    0    0  0.00000000000E+00  0.00000000000E+00  0.32188532694E+01  0.32188532694E+01  0.00000000000E+00 0.  1.
         22   -1    0    0    0    0 -0.00000000000E+00 -0.00000000000E+00 -0.20825970705E+01  0.20825970705E+01  0.00000000000E+00 0.  1.
          4    1    1    2  501    0  0.12210464087E+01  0.18965486355E+01  0.51372892528E+00  0.26390658324E+01  0.12700000000E+01 0.  1.
         -4    1    1    2    0  501 -0.12210464087E+01 -0.18965486355E+01  0.62252727369E+00  0.26623845075E+01  0.12700000000E+01 0.  1.
<mgrwt>
<rscale>  0 0.25885809E+01</rscale>
<asrwt>0</asrwt>
<pdfrwt beam="1">0</pdfrwt>
<pdfrwt beam="2">0</pdfrwt>
<totfact> 0.26275377E+12</totfact>
</mgrwt>
</event>
<event>
 4    1  0.1733759E+006  0.2442311E+01  0.7546771E-02  0.2734523E+00
         22   -1    0    0    0    0  0.00000000000E+00  0.00000000000E+00  0.28360939473E+02  0.28360939473E+02  0.00000000000E+00 0. -1.
         22   -1    0    0    0    0 -0.00000000000E+00 -0.00000000000E+00 -0.23299501908E+00  0.23299501908E+00  0.00000000000E+00 0. -1.
          4    1    1    2  501    0  0.19676198129E+01  0.69314916123E+00  0.96039109855E+01  0.99095907941E+01  0.12700000000E+01 0. -1.
         -4    1    1    2    0  501 -0.19676198129E+01 -0.69314916123E+00  0.18524033469E+02  0.18684343698E+02  0.12700000000E+01 0. -1.
<mgrwt>
<rscale>  0 0.24423111E+01</rscale>
<asrwt>0</asrwt>
<pdfrwt beam="1">0</pdfrwt>
<pdfrwt beam="2">0</pdfrwt>
<totfact> 0.22608594E+12</totfact>
</mgrwt>
</event>
<event>
 4    1  0.1733759E+006  0.3199278E+01  0.7546771E-02  0.2462725E+00
         22   -1    0    0    0    0  0.00000000000E+00  0.00000000000E+00  0.21048375650E+02  0.21048375650E+02  0.00000000000E+00 0. -1.
         22   -1    0    0    0    0 -0.00000000000E+00 -0.00000000000E+00 -0.12782283707E+01  0.12782283707E+01  0.00000000000E+00 0. -1.
          4    1    1    2  501    0 -0.53903621807E+00 -0.28865069913E+01  0.10981437289E+01  0.33824994168E+01  0.12700000000E+01 0. -1.
         -4    1    1    2    0  501  0.53903621807E+00  0.28865069913E+01  0.18672003550E+02  0.18944104604E+02  0.12700000000E+01 0. -1.
<mgrwt>
<rscale>  0 0.31992785E+01</rscale>
<asrwt>0</asrwt>
<pdfrwt beam="1">0</pdfrwt>
<pdfrwt beam="2">0</pdfrwt>
<totfact> 0.47990213E+11</totfact>
</mgrwt>
</event>
<event>
 4    1  0.1733759E+006  0.3312673E+01  0.7546771E-02  0.2431742E+00
         22   -1    0    0    0    0  0.00000000000E+00  0.00000000000E+00  0.17549513250E+02  0.17549513250E+02  0.00000000000E+00 0.  1.
         22   -1    0    0    0    0 -0.00000000000E+00 -0.00000000000E+00 -0.63341161119E+00  0.63341161119E+00  0.00000000000E+00 0. -1.
          4    1    1    2  501    0  0.24120875693E+01  0.18822157034E+01  0.94865507922E+01  0.10048305744E+02  0.12700000000E+01 0.  1.
         -4    1    1    2    0  501 -0.24120875693E+01 -0.18822157034E+01  0.74295508467E+01  0.81346191171E+01  0.12700000000E+01 0. -1.
<mgrwt>
<rscale>  0 0.33126730E+01</rscale>
<asrwt>0</asrwt>
<pdfrwt beam="1">0</pdfrwt>
<pdfrwt beam="2">0</pdfrwt>
<totfact> 0.13397491E+12</totfact>
</mgrwt>
</event>
<event>
 4    1  0.1733759E+006  0.2164306E+01  0.7546771E-02  0.2878003E+00
         22   -1    0    0    0    0  0.00000000000E+00  0.00000000000E+00  0.13569017579E+01  0.13569017579E+01  0.00000000000E+00 0. -1.
         22   -1    0    0    0    0 -0.00000000000E+00 -0.00000000000E+00 -0.42866769835E+01  0.42866769835E+01  0.00000000000E+00 0. -1.
          4    1    1    2  501    0 -0.12036821575E+01 -0.12737625234E+01 -0.27099344533E+01  0.34681358744E+01  0.12700000000E+01 0. -1.
         -4    1    1    2    0  501  0.12036821575E+01  0.12737625234E+01 -0.21984077223E+00  0.21754428670E+01  0.12700000000E+01 0. -1.
<mgrwt>
<rscale>  0 0.21643063E+01</rscale>
<asrwt>0</asrwt>
<pdfrwt beam="1">0</pdfrwt>
<pdfrwt beam="2">0</pdfrwt>
<totfact> 0.30759424E+12</totfact>
</mgrwt>
</event>
<event>
 4    1  0.1733759E+006  0.2090895E+01  0.7546771E-02  0.2921962E+00
         22   -1    0    0    0    0  0.00000000000E+00  0.00000000000E+00  0.90620914846E+00  0.90620914846E+00  0.00000000000E+00 0. -1.
         22   -1    0    0    0    0 -0.00000000000E+00 -0.00000000000E+00 -0.49114300235E+01  0.49114300235E+01  0.00000000000E+00 0.  1.
          4    1    1    2  501    0 -0.15391636250E+01  0.62443281389E+00 -0.23900037683E+01  0.31755249985E+01  0.12700000000E+01 0.  1.
         -4    1    1    2    0  501  0.15391636250E+01 -0.62443281389E+00 -0.16152171067E+01  0.26421141734E+01  0.12700000000E+01 0. -1.
<mgrwt>
<rscale>  0 0.20908948E+01</rscale>
<asrwt>0</asrwt>
<pdfrwt beam="1">0</pdfrwt>
<pdfrwt beam="2">0</pdfrwt>
<totfact> 0.41568625E+12</totfact>
</mgrwt>
</event>
<event>
 4    1  0.1733759E+006  0.2015902E+01  0.7546771E-02  0.2970074E+00
         22   -1    0    0    0    0  0.00000000000E+00  0.00000000000E+00  0.21961186305E+00  0.21961186305E+00  0.00000000000E+00 0. -1.
         22   -1    0    0    0    0 -0.00000000000E+00 -0.00000000000E+00 -0.18555873253E+02  0.18555873253E+02  0.00000000000E+00 0.  1.
          4    1    1    2  501    0 -0.15040552781E+01 -0.43448462439E+00 -0.96609599883E+01  0.98690428647E+01  0.12700000000E+01 0. -1.
         -4    1    1    2    0  501  0.15040552781E+01  0.43448462439E+00 -0.86753014015E+01  0.89064422512E+01  0.12700000000E+01 0. -1.
<mgrwt>
<rscale>  0 0.20159016E+01</rscale>
<asrwt>0</asrwt>
<pdfrwt beam="1">0</pdfrwt>
<pdfrwt beam="2">0</pdfrwt>
<totfact> 0.41145067E+12</totfact>
</mgrwt>
</event>
<event>
 4    1  0.1733759E+006  0.2210181E+01  0.7546771E-02  0.2851963E+00
         22   -1    0    0    0    0  0.00000000000E+00  0.00000000000E+00  0.23823834149E+00  0.23823834149E+00  0.00000000000E+00 0. -1.
         22   -1    0    0    0    0 -0.00000000000E+00 -0.00000000000E+00 -0.42531275483E+02  0.42531275483E+02  0.00000000000E+00 0.  1.
          4    1    1    2  501    0 -0.16092221260E+00 -0.18016946244E+01 -0.36536142295E+02  0.36602931485E+02  0.12700000000E+01 0.  1.
         -4    1    1    2    0  501  0.16092221260E+00  0.18016946244E+01 -0.57568948458E+01  0.61665823390E+01  0.12700000000E+01 0. -1.
<mgrwt>
<rscale>  0 0.22101809E+01</rscale>
<asrwt>0</asrwt>
<pdfrwt beam="1">0</pdfrwt>
<pdfrwt beam="2">0</pdfrwt>
<totfact> 0.13094878E+12</totfact>
</mgrwt>
</event>
<event>
 4    1  0.1733759E+006  0.2013716E+01  0.7546771E-02  0.2971529E+00
         22   -1    0    0    0    0  0.00000000000E+00  0.00000000000E+00  0.89491320806E+00  0.89491320806E+00  0.00000000000E+00 0. -1.
         22   -1    0    0    0    0 -0.00000000000E+00 -0.00000000000E+00 -0.45327178008E+01  0.45327178008E+01  0.00000000000E+00 0.  1.
          4    1    1    2  501    0 -0.44936248447E+00 -0.14967380801E+01 -0.18681808903E+01  0.27468438910E+01  0.12700000000E+01 0.  1.
         -4    1    1    2    0  501  0.44936248447E+00  0.14967380801E+01 -0.17696237024E+01  0.26807871178E+01  0.12700000000E+01 0. -1.
<mgrwt>
<rscale>  0 0.20137158E+01</rscale>
<asrwt>0</asrwt>
<pdfrwt beam="1">0</pdfrwt>
<pdfrwt beam="2">0</pdfrwt>
<totfact> 0.46361622E+12</totfact>
</mgrwt>
</event>
<event>
 4    1  0.1733759E+006  0.2081166E+01  0.7546771E-02  0.2928012E+00
         22   -1    0    0    0    0  0.00000000000E+00  0.00000000000E+00  0.53886093964E+00  0.53886093964E+00  0.00000000000E+00 0.  1.
         22   -1    0    0    0    0 -0.00000000000E+00 -0.00000000000E+00 -0.34172201593E+02  0.34172201593E+02  0.00000000000E+00 0.  1.
          4    1    1    2  501    0  0.38762765471E+00  0.16025287459E+01 -0.31994432977E+02  0.32062049140E+02  0.12700000000E+01 0.  1.
         -4    1    1    2    0  501 -0.38762765471E+00 -0.16025287459E+01 -0.16389076768E+01  0.26490133924E+01  0.12700000000E+01 0.  1.
<mgrwt>
<rscale>  0 0.20811664E+01</rscale>
<asrwt>0</asrwt>
<pdfrwt beam="1">0</pdfrwt>
<pdfrwt beam="2">0</pdfrwt>
<totfact> 0.69440753E+11</totfact>
</mgrwt>
</event>
<event>
 4    1  0.1733759E+006  0.2661463E+01  0.7546771E-02  0.2641360E+00
         22   -1    0    0    0    0  0.00000000000E+00  0.00000000000E+00  0.45328821769E+00  0.45328821769E+00  0.00000000000E+00 0. -1.
         22   -1    0    0    0    0 -0.00000000000E+00 -0.00000000000E+00 -0.15628847324E+02  0.15628847324E+02  0.00000000000E+00 0.  1.
          4    1    1    2  501    0  0.21861319518E+01  0.83145071252E+00 -0.76827949882E+01  0.81307270295E+01  0.12700000000E+01 0. -1.
         -4    1    1    2    0  501 -0.21861319518E+01 -0.83145071252E+00 -0.74927641184E+01  0.79514085124E+01  0.12700000000E+01 0. -1.
<mgrwt>
<rscale>  0 0.26614626E+01</rscale>
<asrwt>0</asrwt>
<pdfrwt beam="1">0</pdfrwt>
<pdfrwt beam="2">0</pdfrwt>
<totfact> 0.22568308E+12</totfact>
</mgrwt>
</event>
<event>
 4    1  0.1733759E+006  0.3533483E+01  0.7546771E-02  0.2376455E+00
         22   -1    0    0    0    0  0.00000000000E+00  0.00000000000E+00  0.28412971550E+00  0.28412971550E+00  0.00000000000E+00 0. -1.
         22   -1    0    0    0    0 -0.00000000000E+00 -0.00000000000E+00 -0.44811549694E+02  0.44811549694E+02  0.00000000000E+00 0.  1.
          4    1    1    2  501    0 -0.32956334419E+01  0.10679025879E+00 -0.19124542702E+02  0.19448229676E+02  0.12700000000E+01 0. -1.
         -4    1    1    2    0  501  0.32956334419E+01 -0.10679025879E+00 -0.25402877276E+02  0.25647449734E+02  0.12700000000E+01 0. -1.
<mgrwt>
<rscale>  0 0.35334833E+01</rscale>
<asrwt>0</asrwt>
<pdfrwt beam="1">0</pdfrwt>
<pdfrwt beam="2">0</pdfrwt>
<totfact> 0.10043761E+12</totfact>
</mgrwt>
</event>
<event>
 4    1  0.1733759E+006  0.3597959E+01  0.7546771E-02  0.2361434E+00
         22   -1    0    0    0    0  0.00000000000E+00  0.00000000000E+00  0.21028398324E+01  0.21028398324E+01  0.00000000000E+00 0. -1.
         22   -1    0    0    0    0 -0.00000000000E+00 -0.00000000000E+00 -0.62289239179E+01  0.62289239179E+01  0.00000000000E+00 0. -1.
          4    1    1    2  501    0  0.33421875341E+01 -0.40272616703E+00 -0.25134625873E+01  0.43889406532E+01  0.12700000000E+01 0. -1.
         -4    1    1    2    0  501 -0.33421875341E+01  0.40272616703E+00 -0.16126214982E+01  0.39428230972E+01  0.12700000000E+01 0. -1.
<mgrwt>
<rscale>  0 0.35979586E+01</rscale>
<asrwt>0</asrwt>
<pdfrwt beam="1">0</pdfrwt>
<pdfrwt beam="2">0</pdfrwt>
<totfact> 0.11918250E+12</totfact>
</mgrwt>
</event>
<event>
 4    1  0.1733759E+006  0.3679556E+01  0.7546771E-02  0.2343080E+00
         22   -1    0    0    0    0  0.00000000000E+00  0.00000000000E+00  0.13233683744E+02  0.13233683744E+02  0.00000000000E+00 0. -1.
         22   -1    0    0    0    0 -0.00000000000E+00 -0.00000000000E+00 -0.12605932836E+01  0.12605932836E+01  0.00000000000E+00 0. -1.
          4    1    1    2  501    0 -0.90338471706E+00  0.33331862397E+01  0.28408124722E+01  0.46485858020E+01  0.12700000000E+01 0. -1.
         -4    1    1    2    0  501  0.90338471706E+00 -0.33331862397E+01  0.91322779878E+01  0.98456912252E+01  0.12700000000E+01 0. -1.
<mgrwt>
<rscale>  0 0.36795563E+01</rscale>
<asrwt>0</asrwt>
<pdfrwt beam="1">0</pdfrwt>
<pdfrwt beam="2">0</pdfrwt>
<totfact> 0.86558106E+11</totfact>
</mgrwt>
</event>
<event>
 4    1  0.1733759E+006  0.2064362E+01  0.7546771E-02  0.2938595E+00
         22   -1    0    0    0    0  0.00000000000E+00  0.00000000000E+00  0.38209372222E+01  0.38209372222E+01  0.00000000000E+00 0.  1.
         22   -1    0    0    0    0 -0.00000000000E+00 -0.00000000000E+00 -0.14835265698E+01  0.14835265698E+01  0.00000000000E+00 0. -1.
          4    1    1    2  501    0  0.15052686708E+01  0.61875340646E+00 -0.15260924362E+00  0.20699949590E+01  0.12700000000E+01 0. -1.
         -4    1    1    2    0  501 -0.15052686708E+01 -0.61875340646E+00  0.24900198960E+01  0.32344688330E+01  0.12700000000E+01 0.  1.
<mgrwt>
<rscale>  0 0.20643618E+01</rscale>
<asrwt>0</asrwt>
<pdfrwt beam="1">0</pdfrwt>
<pdfrwt beam="2">0</pdfrwt>
<totfact> 0.31785560E+12</totfact>
</mgrwt>
</event>
<event>
 4    1  0.1733759E+006  0.3317486E+01  0.7546771E-02  0.2430468E+00
         22   -1    0    0    0    0  0.00000000000E+00  0.00000000000E+00  0.44763850860E+02  0.44763850860E+02  0.00000000000E+00 0. -1.
         22   -1    0    0    0    0 -0.00000000000E+00 -0.00000000000E+00 -0.85682913883E+00  0.85682913883E+00  0.00000000000E+00 0.  1.
          4    1    1    2  501    0 -0.44797409266E+00 -0.30318525833E+01  0.26918504386E+01  0.42722089905E+01  0.12700000000E+01 0.  1.
         -4    1    1    2    0  501  0.44797409266E+00  0.30318525833E+01  0.41215171283E+02  0.41348471009E+02  0.12700000000E+01 0. -1.
<mgrwt>
<rscale>  0 0.33174856E+01</rscale>
<asrwt>0</asrwt>
<pdfrwt beam="1">0</pdfrwt>
<pdfrwt beam="2">0</pdfrwt>
<totfact> 0.28918102E+11</totfact>
</mgrwt>
</event>
<event>
 4    1  0.1733759E+006  0.3686712E+01  0.7546771E-02  0.2341504E+00
         22   -1    0    0    0    0  0.00000000000E+00  0.00000000000E+00  0.51725185486E+01  0.51725185486E+01  0.00000000000E+00 0. -1.
         22   -1    0    0    0    0 -0.00000000000E+00 -0.00000000000E+00 -0.47188640457E+01  0.47188640457E+01  0.00000000000E+00 0.  1.
          4    1    1    2  501    0 -0.28307496212E+01  0.19914312281E+01 -0.30654926521E+01  0.47946936247E+01  0.12700000000E+01 0.  1.
         -4    1    1    2    0  501  0.28307496212E+01 -0.19914312281E+01  0.35191471550E+01  0.50966889696E+01  0.12700000000E+01 0. -1.
<mgrwt>
<rscale>  0 0.36867115E+01</rscale>
<asrwt>0</asrwt>
<pdfrwt beam="1">0</pdfrwt>
<pdfrwt beam="2">0</pdfrwt>
<totfact> 0.57740108E+11</totfact>
</mgrwt>
</event>
<event>
 4    1  0.1733759E+006  0.2975351E+01  0.7546771E-02  0.2530027E+00
         22   -1    0    0    0    0  0.00000000000E+00  0.00000000000E+00  0.26925975233E+02  0.26925975233E+02  0.00000000000E+00 0. -1.
         22   -1    0    0    0    0 -0.00000000000E+00 -0.00000000000E+00 -0.37774780632E+00  0.37774780632E+00  0.00000000000E+00 0.  1.
          4    1    1    2  501    0 -0.23197685103E+01 -0.13632632497E+01  0.83588390726E+01  0.88725928156E+01  0.12700000000E+01 0. -1.
         -4    1    1    2    0  501  0.23197685103E+01  0.13632632497E+01  0.18189388355E+02  0.18431130224E+02  0.12700000000E+01 0.  1.
<mgrwt>
<rscale>  0 0.29753508E+01</rscale>
<asrwt>0</asrwt>
<pdfrwt beam="1">0</pdfrwt>
<pdfrwt beam="2">0</pdfrwt>
<totfact> 0.14048071E+12</totfact>
</mgrwt>
</event>
<event>
 4    1  0.1733759E+006  0.3745868E+01  0.7546771E-02  0.2328674E+00
         22   -1    0    0    0    0  0.00000000000E+00  0.00000000000E+00  0.32984984379E+01  0.32984984379E+01  0.00000000000E+00 0.  1.
         22   -1    0    0    0    0 -0.00000000000E+00 -0.00000000000E+00 -0.17269304392E+02  0.17269304392E+02  0.00000000000E+00 0. -1.
          4    1    1    2  501    0  0.69148485108E+00 -0.34554997043E+01 -0.15913298057E+02  0.16348228790E+02  0.12700000000E+01 0. -1.
         -4    1    1    2    0  501 -0.69148485108E+00  0.34554997043E+01  0.19424921034E+01  0.42195740398E+01  0.12700000000E+01 0.  1.
<mgrwt>
<rscale>  0 0.37458683E+01</rscale>
<asrwt>0</asrwt>
<pdfrwt beam="1">0</pdfrwt>
<pdfrwt beam="2">0</pdfrwt>
<totfact> 0.20471843E+11</totfact>
</mgrwt>
</event>
<event>
 4    1  0.1733759E+006  0.4714805E+01  0.7546771E-02  0.2158667E+00
         22   -1    0    0    0    0  0.00000000000E+00  0.00000000000E+00  0.64261657707E+02  0.64261657707E+02  0.00000000000E+00 0.  1.
         22   -1    0    0    0    0 -0.00000000000E+00 -0.00000000000E+00 -0.78859593445E+01  0.78859593445E+01  0.00000000000E+00 0. -1.
          4    1    1    2  501    0  0.41641837786E+01 -0.18099898601E+01 -0.70858929911E+01  0.85111262073E+01  0.12700000000E+01 0. -1.
         -4    1    1    2    0  501 -0.41641837786E+01  0.18099898601E+01  0.63461591354E+02  0.63636490845E+02  0.12700000000E+01 0.  1.
<mgrwt>
<rscale>  0 0.47148054E+01</rscale>
<asrwt>0</asrwt>
<pdfrwt beam="1">0</pdfrwt>
<pdfrwt beam="2">0</pdfrwt>
<totfact> 0.13452985E+10</totfact>
</mgrwt>
</event>
<event>
 4    1  0.1733759E+006  0.7555064E+01  0.7546771E-02  0.1903099E+00
         22   -1    0    0    0    0  0.00000000000E+00  0.00000000000E+00  0.79139508910E+00  0.79139508910E+00  0.00000000000E+00 0.  1.
         22   -1    0    0    0    0 -0.00000000000E+00 -0.00000000000E+00 -0.14885083237E+03  0.14885083237E+03  0.00000000000E+00 0. -1.
          4    1    1    2  501    0 -0.38919437577E+01 -0.63497142203E+01 -0.12774782270E+03  0.12797103266E+03  0.12700000000E+01 0. -1.
         -4    1    1    2    0  501  0.38919437577E+01  0.63497142203E+01 -0.20311614579E+02  0.21671194792E+02  0.12700000000E+01 0.  1.
<mgrwt>
<rscale>  0 0.75550643E+01</rscale>
<asrwt>0</asrwt>
<pdfrwt beam="1">0</pdfrwt>
<pdfrwt beam="2">0</pdfrwt>
<totfact> 0.60060565E+10</totfact>
</mgrwt>
</event>
<event>
 4    1  0.1733759E+006  0.2762540E+01  0.7546771E-02  0.2603001E+00
         22   -1    0    0    0    0  0.00000000000E+00  0.00000000000E+00  0.23196634434E+01  0.23196634434E+01  0.00000000000E+00 0. -1.
         22   -1    0    0    0    0 -0.00000000000E+00 -0.00000000000E+00 -0.74206883417E+01  0.74206883417E+01  0.00000000000E+00 0.  1.
          4    1    1    2  501    0  0.69235815404E+00 -0.23535854966E+01 -0.61840973407E+01  0.67730852957E+01  0.12700000000E+01 0.  1.
         -4    1    1    2    0  501 -0.69235815404E+00  0.23535854966E+01  0.10830724425E+01  0.29672664893E+01  0.12700000000E+01 0. -1.
<mgrwt>
<rscale>  0 0.27625395E+01</rscale>
<asrwt>0</asrwt>
<pdfrwt beam="1">0</pdfrwt>
<pdfrwt beam="2">0</pdfrwt>
<totfact> 0.86280043E+11</totfact>
</mgrwt>
</event>
<event>
 4    1  0.1733759E+006  0.2299424E+01  0.7546771E-02  0.2804156E+00
         22   -1    0    0    0    0  0.00000000000E+00  0.00000000000E+00  0.36926964219E+01  0.36926964219E+01  0.00000000000E+00 0. -1.
         22   -1    0    0    0    0 -0.00000000000E+00 -0.00000000000E+00 -0.14804461660E+01  0.14804461660E+01  0.00000000000E+00 0.  1.
          4    1    1    2  501    0  0.11470966487E+01  0.15357793767E+01  0.63744606182E+00  0.23861446932E+01  0.12700000000E+01 0.  1.
         -4    1    1    2    0  501 -0.11470966487E+01 -0.15357793767E+01  0.15748041941E+01  0.27869978947E+01  0.12700000000E+01 0. -1.
<mgrwt>
<rscale>  0 0.22994236E+01</rscale>
<asrwt>0</asrwt>
<pdfrwt beam="1">0</pdfrwt>
<pdfrwt beam="2">0</pdfrwt>
<totfact> 0.33167164E+12</totfact>
</mgrwt>
</event>
<event>
 4    1  0.1733759E+006  0.2230792E+01  0.7546771E-02  0.2840598E+00
         22   -1    0    0    0    0  0.00000000000E+00  0.00000000000E+00  0.24188067151E+02  0.24188067151E+02  0.00000000000E+00 0. -1.
         22   -1    0    0    0    0 -0.00000000000E+00 -0.00000000000E+00 -0.80554999285E+00  0.80554999285E+00  0.00000000000E+00 0.  1.
          4    1    1    2  501    0  0.15707874331E+01  0.94665625030E+00  0.90775115369E+00  0.24084109643E+01  0.12700000000E+01 0.  1.
         -4    1    1    2    0  501 -0.15707874331E+01 -0.94665625030E+00  0.22474766004E+02  0.22585206179E+02  0.12700000000E+01 0. -1.
<mgrwt>
<rscale>  0 0.22307916E+01</rscale>
<asrwt>0</asrwt>
<pdfrwt beam="1">0</pdfrwt>
<pdfrwt beam="2">0</pdfrwt>
<totfact> 0.68299756E+11</totfact>
</mgrwt>
</event>
<event>
 4    1  0.1733759E+006  0.2084685E+01  0.7546771E-02  0.2925817E+00
         22   -1    0    0    0    0  0.00000000000E+00  0.00000000000E+00  0.63760957921E+01  0.63760957921E+01  0.00000000000E+00 0. -1.
         22   -1    0    0    0    0 -0.00000000000E+00 -0.00000000000E+00 -0.99313178930E+00  0.99313178930E+00  0.00000000000E+00 0.  1.
          4    1    1    2  501    0  0.84231370144E+00 -0.14225047037E+01  0.62779641853E+00  0.21771633716E+01  0.12700000000E+01 0.  1.
         -4    1    1    2    0  501 -0.84231370144E+00  0.14225047037E+01  0.47551675842E+01  0.51920642097E+01  0.12700000000E+01 0. -1.
<mgrwt>
<rscale>  0 0.20846851E+01</rscale>
<asrwt>0</asrwt>
<pdfrwt beam="1">0</pdfrwt>
<pdfrwt beam="2">0</pdfrwt>
<totfact> 0.27461987E+12</totfact>
</mgrwt>
</event>
<event>
 4    1  0.1733759E+006  0.5500757E+01  0.7546771E-02  0.2067583E+00
         22   -1    0    0    0    0  0.00000000000E+00  0.00000000000E+00  0.37472278965E+01  0.37472278965E+01  0.00000000000E+00 0.  1.
         22   -1    0    0    0    0 -0.00000000000E+00 -0.00000000000E+00 -0.41635435864E+02  0.41635435864E+02  0.00000000000E+00 0. -1.
          4    1    1    2  501    0  0.47627198603E+01 -0.24417056518E+01 -0.39316549070E+02  0.39699488129E+02  0.12700000000E+01 0. -1.
         -4    1    1    2    0  501 -0.47627198603E+01  0.24417056518E+01  0.14283411019E+01  0.56831756317E+01  0.12700000000E+01 0.  1.
<mgrwt>
<rscale>  0 0.55007569E+01</rscale>
<asrwt>0</asrwt>
<pdfrwt beam="1">0</pdfrwt>
<pdfrwt beam="2">0</pdfrwt>
<totfact> 0.57782072E+10</totfact>
</mgrwt>
</event>
<event>
 4    1  0.1733759E+006  0.2663272E+01  0.7546771E-02  0.2640650E+00
         22   -1    0    0    0    0  0.00000000000E+00  0.00000000000E+00  0.56659798948E+01  0.56659798948E+01  0.00000000000E+00 0. -1.
         22   -1    0    0    0    0 -0.00000000000E+00 -0.00000000000E+00 -0.21970481525E+01  0.21970481525E+01  0.00000000000E+00 0.  1.
          4    1    1    2  501    0 -0.15701571092E+01 -0.17362965580E+01 -0.84422304357E+00  0.27938739471E+01  0.12700000000E+01 0.  1.
         -4    1    1    2    0  501  0.15701571092E+01  0.17362965580E+01  0.43131547859E+01  0.50691541002E+01  0.12700000000E+01 0. -1.
<mgrwt>
<rscale>  0 0.26632723E+01</rscale>
<asrwt>0</asrwt>
<pdfrwt beam="1">0</pdfrwt>
<pdfrwt beam="2">0</pdfrwt>
<totfact> 0.12679322E+12</totfact>
</mgrwt>
</event>
<event>
 4    1  0.1733759E+006  0.4383276E+01  0.7546771E-02  0.2209516E+00
         22   -1    0    0    0    0  0.00000000000E+00  0.00000000000E+00  0.75176841411E+01  0.75176841411E+01  0.00000000000E+00 0.  1.
         22   -1    0    0    0    0 -0.00000000000E+00 -0.00000000000E+00 -0.59059997526E+02  0.59059997526E+02  0.00000000000E+00 0. -1.
          4    1    1    2  501    0 -0.35620978985E+01  0.22162273624E+01 -0.58331773161E+02  0.58496229496E+02  0.12700000000E+01 0. -1.
         -4    1    1    2    0  501  0.35620978985E+01 -0.22162273624E+01  0.67894597754E+01  0.80814521716E+01  0.12700000000E+01 0.  1.
<mgrwt>
<rscale>  0 0.43832756E+01</rscale>
<asrwt>0</asrwt>
<pdfrwt beam="1">0</pdfrwt>
<pdfrwt beam="2">0</pdfrwt>
<totfact> 0.15955702E+10</totfact>
</mgrwt>
</event>
<event>
 4    1  0.1733759E+006  0.2011759E+01  0.7546771E-02  0.2972834E+00
         22   -1    0    0    0    0  0.00000000000E+00  0.00000000000E+00  0.16676062041E+01  0.16676062041E+01  0.00000000000E+00 0.  1.
         22   -1    0    0    0    0 -0.00000000000E+00 -0.00000000000E+00 -0.50772216627E+01  0.50772216627E+01  0.00000000000E+00 0.  1.
          4    1    1    2  501    0 -0.14711735738E+01  0.51954108517E+00 -0.41413508553E+01  0.46041244043E+01  0.12700000000E+01 0.  1.
         -4    1    1    2    0  501  0.14711735738E+01 -0.51954108517E+00  0.73173539675E+00  0.21407034625E+01  0.12700000000E+01 0.  1.
<mgrwt>
<rscale>  0 0.20117591E+01</rscale>
<asrwt>0</asrwt>
<pdfrwt beam="1">0</pdfrwt>
<pdfrwt beam="2">0</pdfrwt>
<totfact> 0.19863522E+12</totfact>
</mgrwt>
</event>
<event>
 4    1  0.1733759E+006  0.2257792E+01  0.7546771E-02  0.2826009E+00
         22   -1    0    0    0    0  0.00000000000E+00  0.00000000000E+00  0.48887429273E+01  0.48887429273E+01  0.00000000000E+00 0. -1.
         22   -1    0    0    0    0 -0.00000000000E+00 -0.00000000000E+00 -0.22335299282E+01  0.22335299282E+01  0.00000000000E+00 0.  1.
          4    1    1    2  501    0 -0.14560355131E+01  0.11681982614E+01 -0.12726284015E+01  0.25917580214E+01  0.12700000000E+01 0.  1.
         -4    1    1    2    0  501  0.14560355131E+01 -0.11681982614E+01  0.39278414006E+01  0.45305148341E+01  0.12700000000E+01 0. -1.
<mgrwt>
<rscale>  0 0.22577924E+01</rscale>
<asrwt>0</asrwt>
<pdfrwt beam="1">0</pdfrwt>
<pdfrwt beam="2">0</pdfrwt>
<totfact> 0.14817105E+12</totfact>
</mgrwt>
</event>
<event>
 4    1  0.1733759E+006  0.2072222E+01  0.7546771E-02  0.2933624E+00
         22   -1    0    0    0    0  0.00000000000E+00  0.00000000000E+00  0.15771176646E+01  0.15771176646E+01  0.00000000000E+00 0.  1.
         22   -1    0    0    0    0 -0.00000000000E+00 -0.00000000000E+00 -0.27229368188E+01  0.27229368188E+01  0.00000000000E+00 0.  1.
          4    1    1    2  501    0  0.70840107765E+00  0.14762697516E+01 -0.59049502649E+00  0.21547131695E+01  0.12700000000E+01 0.  1.
         -4    1    1    2    0  501 -0.70840107765E+00 -0.14762697516E+01 -0.55532412766E+00  0.21453413139E+01  0.12700000000E+01 0.  1.
<mgrwt>
<rscale>  0 0.20722221E+01</rscale>
<asrwt>0</asrwt>
<pdfrwt beam="1">0</pdfrwt>
<pdfrwt beam="2">0</pdfrwt>
<totfact> 0.44039280E+12</totfact>
</mgrwt>
</event>
<event>
 4    1  0.1733759E+006  0.2908920E+01  0.7546771E-02  0.2551770E+00
         22   -1    0    0    0    0  0.00000000000E+00  0.00000000000E+00  0.32477281042E+01  0.32477281042E+01  0.00000000000E+00 0. -1.
         22   -1    0    0    0    0 -0.00000000000E+00 -0.00000000000E+00 -0.31324566010E+01  0.31324566010E+01  0.00000000000E+00 0. -1.
          4    1    1    2  501    0 -0.67479663179E+00 -0.25285496987E+01 -0.12508412766E+01  0.31664519533E+01  0.12700000000E+01 0. -1.
         -4    1    1    2    0  501  0.67479663179E+00  0.25285496987E+01  0.13661127799E+01  0.32137327519E+01  0.12700000000E+01 0. -1.
<mgrwt>
<rscale>  0 0.29089197E+01</rscale>
<asrwt>0</asrwt>
<pdfrwt beam="1">0</pdfrwt>
<pdfrwt beam="2">0</pdfrwt>
<totfact> 0.16169387E+12</totfact>
</mgrwt>
</event>
<event>
 4    1  0.1733759E+006  0.3875259E+01  0.7546771E-02  0.2301792E+00
         22   -1    0    0    0    0  0.00000000000E+00  0.00000000000E+00  0.90498531800E+00  0.90498531800E+00  0.00000000000E+00 0.  1.
         22   -1    0    0    0    0 -0.00000000000E+00 -0.00000000000E+00 -0.19637852569E+02  0.19637852569E+02  0.00000000000E+00 0. -1.
          4    1    1    2  501    0  0.14520845838E+01  0.33609794658E+01 -0.53228064177E+01  0.65840641528E+01  0.12700000000E+01 0.  1.
         -4    1    1    2    0  501 -0.14520845838E+01 -0.33609794658E+01 -0.13410060833E+02  0.13958773734E+02  0.12700000000E+01 0. -1.
<mgrwt>
<rscale>  0 0.38752590E+01</rscale>
<asrwt>0</asrwt>
<pdfrwt beam="1">0</pdfrwt>
<pdfrwt beam="2">0</pdfrwt>
<totfact> 0.77666233E+11</totfact>
</mgrwt>
</event>
<event>
 4    1  0.1733759E+006  0.2190988E+01  0.7546771E-02  0.2862731E+00
         22   -1    0    0    0    0  0.00000000000E+00  0.00000000000E+00  0.76415742498E+02  0.76415742498E+02  0.00000000000E+00 0.  1.
         22   -1    0    0    0    0 -0.00000000000E+00 -0.00000000000E+00 -0.85285519899E+00  0.85285519899E+00  0.00000000000E+00 0. -1.
          4    1    1    2  501    0 -0.13614195501E+01  0.11550165233E+01  0.59722647260E+00  0.22709262031E+01  0.12700000000E+01 0. -1.
         -4    1    1    2    0  501  0.13614195501E+01 -0.11550165233E+01  0.74965660827E+02  0.74997671494E+02  0.12700000000E+01 0.  1.
<mgrwt>
<rscale>  0 0.21909875E+01</rscale>
<asrwt>0</asrwt>
<pdfrwt beam="1">0</pdfrwt>
<pdfrwt beam="2">0</pdfrwt>
<totfact> 0.14224628E+11</totfact>
</mgrwt>
</event>
<event>
 4    1  0.1733759E+006  0.3000177E+01  0.7546771E-02  0.2522124E+00
         22   -1    0    0    0    0  0.00000000000E+00  0.00000000000E+00  0.51921415776E+01  0.51921415776E+01  0.00000000000E+00 0.  1.
         22   -1    0    0    0    0 -0.00000000000E+00 -0.00000000000E+00 -0.21105912053E+01  0.21105912053E+01  0.00000000000E+00 0. -1.
          4    1    1    2  501    0 -0.46371649811E+00  0.26782702387E+01 -0.24259370856E-02  0.30001783859E+01  0.12700000000E+01 0. -1.
         -4    1    1    2    0  501  0.46371649811E+00 -0.26782702387E+01  0.30839763095E+01  0.43025543970E+01  0.12700000000E+01 0.  1.
<mgrwt>
<rscale>  0 0.30001774E+01</rscale>
<asrwt>0</asrwt>
<pdfrwt beam="1">0</pdfrwt>
<pdfrwt beam="2">0</pdfrwt>
<totfact> 0.14734227E+12</totfact>
</mgrwt>
</event>
<event>
 4    1  0.1733759E+006  0.2086921E+01  0.7546771E-02  0.2924427E+00
         22   -1    0    0    0    0  0.00000000000E+00  0.00000000000E+00  0.14134336802E+01  0.14134336802E+01  0.00000000000E+00 0.  1.
         22   -1    0    0    0    0 -0.00000000000E+00 -0.00000000000E+00 -0.45850072204E+01  0.45850072204E+01  0.00000000000E+00 0.  1.
          4    1    1    2  501    0  0.11807727525E+01  0.11610828997E+01 -0.33033688744E+01  0.39073627569E+01  0.12700000000E+01 0.  1.
         -4    1    1    2    0  501 -0.11807727525E+01 -0.11610828997E+01  0.13179533421E+00  0.20910781437E+01  0.12700000000E+01 0.  1.
<mgrwt>
<rscale>  0 0.20869206E+01</rscale>
<asrwt>0</asrwt>
<pdfrwt beam="1">0</pdfrwt>
<pdfrwt beam="2">0</pdfrwt>
<totfact> 0.27109689E+12</totfact>
</mgrwt>
</event>
<event>
 4    1  0.1733759E+006  0.2469614E+01  0.7546771E-02  0.2722080E+00
         22   -1    0    0    0    0  0.00000000000E+00  0.00000000000E+00  0.11593650996E+02  0.11593650996E+02  0.00000000000E+00 0. -1.
         22   -1    0    0    0    0 -0.00000000000E+00 -0.00000000000E+00 -0.67983680293E+00  0.67983680293E+00  0.00000000000E+00 0.  1.
          4    1    1    2  501    0  0.21031172737E+01  0.25097666835E+00  0.25382924856E+01  0.35414573692E+01  0.12700000000E+01 0.  1.
         -4    1    1    2    0  501 -0.21031172737E+01 -0.25097666835E+00  0.83755217076E+01  0.87320304299E+01  0.12700000000E+01 0. -1.
<mgrwt>
<rscale>  0 0.24696136E+01</rscale>
<asrwt>0</asrwt>
<pdfrwt beam="1">0</pdfrwt>
<pdfrwt beam="2">0</pdfrwt>
<totfact> 0.20572957E+12</totfact>
</mgrwt>
</event>
<event>
 4    1  0.1733759E+006  0.3778565E+01  0.7546771E-02  0.2321732E+00
         22   -1    0    0    0    0  0.00000000000E+00  0.00000000000E+00  0.61381267898E+01  0.61381267898E+01  0.00000000000E+00 0.  1.
         22   -1    0    0    0    0 -0.00000000000E+00 -0.00000000000E+00 -0.39646443281E+01  0.39646443281E+01  0.00000000000E+00 0. -1.
          4    1    1    2  501    0 -0.11482334850E+00 -0.35568908627E+01 -0.21607264234E+01  0.43527342771E+01  0.12700000000E+01 0. -1.
         -4    1    1    2    0  501  0.11482334850E+00  0.35568908627E+01  0.43342088852E+01  0.57500368408E+01  0.12700000000E+01 0.  1.
<mgrwt>
<rscale>  0 0.37785655E+01</rscale>
<asrwt>0</asrwt>
<pdfrwt beam="1">0</pdfrwt>
<pdfrwt beam="2">0</pdfrwt>
<totfact> 0.57855828E+11</totfact>
</mgrwt>
</event>
<event>
 4    1  0.1733759E+006  0.4021196E+01  0.7546771E-02  0.2273261E+00
         22   -1    0    0    0    0  0.00000000000E+00  0.00000000000E+00  0.26021219018E+01  0.26021219018E+01  0.00000000000E+00 0.  1.
         22   -1    0    0    0    0 -0.00000000000E+00 -0.00000000000E+00 -0.74648508675E+01  0.74648508675E+01  0.00000000000E+00 0. -1.
          4    1    1    2  501    0 -0.25328069715E+01 -0.28534207477E+01 -0.44916719338E+01  0.60286928831E+01  0.12700000000E+01 0. -1.
         -4    1    1    2    0  501  0.25328069715E+01  0.28534207477E+01 -0.37105703184E+00  0.40382798861E+01  0.12700000000E+01 0.  1.
<mgrwt>
<rscale>  0 0.40211965E+01</rscale>
<asrwt>0</asrwt>
<pdfrwt beam="1">0</pdfrwt>
<pdfrwt beam="2">0</pdfrwt>
<totfact> 0.74955736E+11</totfact>
</mgrwt>
</event>
<event>
 4    1  0.1733759E+006  0.2621016E+01  0.7546771E-02  0.2657468E+00
         22   -1    0    0    0    0  0.00000000000E+00  0.00000000000E+00  0.32660723081E+02  0.32660723081E+02  0.00000000000E+00 0. -1.
         22   -1    0    0    0    0 -0.00000000000E+00 -0.00000000000E+00 -0.24642243015E+00  0.24642243015E+00  0.00000000000E+00 0. -1.
          4    1    1    2  501    0 -0.12818754476E+01  0.19009518526E+01  0.99107453157E+01  0.10251467959E+02  0.12700000000E+01 0. -1.
         -4    1    1    2    0  501  0.12818754476E+01 -0.19009518526E+01  0.22503555335E+02  0.22655677551E+02  0.12700000000E+01 0. -1.
<mgrwt>
<rscale>  0 0.26210156E+01</rscale>
<asrwt>0</asrwt>
<pdfrwt beam="1">0</pdfrwt>
<pdfrwt beam="2">0</pdfrwt>
<totfact> 0.17736920E+12</totfact>
</mgrwt>
</event>
<event>
 4    1  0.1733759E+006  0.3303453E+01  0.7546771E-02  0.2434191E+00
         22   -1    0    0    0    0  0.00000000000E+00  0.00000000000E+00  0.20296420243E+02  0.20296420243E+02  0.00000000000E+00 0. -1.
         22   -1    0    0    0    0 -0.00000000000E+00 -0.00000000000E+00 -0.72529675982E+00  0.72529675982E+00  0.00000000000E+00 0.  1.
          4    1    1    2  501    0 -0.14078856470E+01 -0.27051359781E+01  0.44395955753E+01  0.55337881715E+01  0.12700000000E+01 0.  1.
         -4    1    1    2    0  501  0.14078856470E+01  0.27051359781E+01  0.15131527908E+02  0.15487928832E+02  0.12700000000E+01 0. -1.
<mgrwt>
<rscale>  0 0.33034531E+01</rscale>
<asrwt>0</asrwt>
<pdfrwt beam="1">0</pdfrwt>
<pdfrwt beam="2">0</pdfrwt>
<totfact> 0.95883867E+11</totfact>
</mgrwt>
</event>
<event>
 4    1  0.1733759E+006  0.2100174E+01  0.7546771E-02  0.2916241E+00
         22   -1    0    0    0    0  0.00000000000E+00  0.00000000000E+00  0.11057666178E+01  0.11057666178E+01  0.00000000000E+00 0.  1.
         22   -1    0    0    0    0 -0.00000000000E+00 -0.00000000000E+00 -0.10721597088E+02  0.10721597088E+02  0.00000000000E+00 0.  1.
          4    1    1    2  501    0 -0.75068615374E+00 -0.14947575937E+01 -0.94941557640E+01  0.97236682191E+01  0.12700000000E+01 0.  1.
         -4    1    1    2    0  501  0.75068615374E+00  0.14947575937E+01 -0.12167470593E+00  0.21036954863E+01  0.12700000000E+01 0.  1.
<mgrwt>
<rscale>  0 0.21001738E+01</rscale>
<asrwt>0</asrwt>
<pdfrwt beam="1">0</pdfrwt>
<pdfrwt beam="2">0</pdfrwt>
<totfact> 0.12998558E+12</totfact>
</mgrwt>
</event>
<event>
 4    1  0.1733759E+006  0.2799708E+01  0.7546771E-02  0.2589532E+00
         22   -1    0    0    0    0  0.00000000000E+00  0.00000000000E+00  0.13157051839E+00  0.13157051839E+00  0.00000000000E+00 0. -1.
         22   -1    0    0    0    0 -0.00000000000E+00 -0.00000000000E+00 -0.59639658765E+02  0.59639658765E+02  0.00000000000E+00 0.  1.
          4    1    1    2  501    0 -0.24940977543E+01  0.70305941047E-01 -0.30735009795E+02  0.30862261642E+02  0.12700000000E+01 0. -1.
         -4    1    1    2    0  501  0.24940977543E+01 -0.70305941047E-01 -0.28773078452E+02  0.28908967642E+02  0.12700000000E+01 0.  1.
<mgrwt>
<rscale>  0 0.27997083E+01</rscale>
<asrwt>0</asrwt>
<pdfrwt beam="1">0</pdfrwt>
<pdfrwt beam="2">0</pdfrwt>
<totfact> 0.16239604E+12</totfact>
</mgrwt>
</event>
<event>
 4    1  0.1733759E+006  0.2195032E+01  0.7546771E-02  0.2860447E+00
         22   -1    0    0    0    0  0.00000000000E+00  0.00000000000E+00  0.77908688356E+01  0.77908688356E+01  0.00000000000E+00 0. -1.
         22   -1    0    0    0    0 -0.00000000000E+00 -0.00000000000E+00 -0.65084237844E+00  0.65084237844E+00  0.00000000000E+00 0. -1.
          4    1    1    2  501    0 -0.51683750162E-01 -0.17895789557E+01  0.45118355593E+01  0.50174519592E+01  0.12700000000E+01 0. -1.
         -4    1    1    2    0  501  0.51683750162E-01  0.17895789557E+01  0.26281908979E+01  0.34242592549E+01  0.12700000000E+01 0. -1.
<mgrwt>
<rscale>  0 0.21950317E+01</rscale>
<asrwt>0</asrwt>
<pdfrwt beam="1">0</pdfrwt>
<pdfrwt beam="2">0</pdfrwt>
<totfact> 0.34948315E+12</totfact>
</mgrwt>
</event>
<event>
 4    1  0.1733759E+006  0.3988921E+01  0.7546771E-02  0.2279417E+00
         22   -1    0    0    0    0  0.00000000000E+00  0.00000000000E+00  0.71370944577E+01  0.71370944577E+01  0.00000000000E+00 0.  1.
         22   -1    0    0    0    0 -0.00000000000E+00 -0.00000000000E+00 -0.23482463771E+01  0.23482463771E+01  0.00000000000E+00 0. -1.
          4    1    1    2  501    0 -0.37196010972E+01 -0.68056032939E+00  0.13275093990E+01  0.42040190162E+01  0.12700000000E+01 0. -1.
         -4    1    1    2    0  501  0.37196010972E+01  0.68056032939E+00  0.34613386816E+01  0.52813218187E+01  0.12700000000E+01 0.  1.
<mgrwt>
<rscale>  0 0.39889215E+01</rscale>
<asrwt>0</asrwt>
<pdfrwt beam="1">0</pdfrwt>
<pdfrwt beam="2">0</pdfrwt>
<totfact> 0.89126553E+11</totfact>
</mgrwt>
</event>
<event>
 4    1  0.1733759E+006  0.2672705E+01  0.7546771E-02  0.2636962E+00
         22   -1    0    0    0    0  0.00000000000E+00  0.00000000000E+00  0.36661118351E+01  0.36661118351E+01  0.00000000000E+00 0. -1.
         22   -1    0    0    0    0 -0.00000000000E+00 -0.00000000000E+00 -0.21956778775E+01  0.21956778775E+01  0.00000000000E+00 0.  1.
          4    1    1    2  501    0  0.20820018471E+01  0.10934902422E+01  0.17186314939E+01  0.31775850599E+01  0.12700000000E+01 0. -1.
         -4    1    1    2    0  501 -0.20820018471E+01 -0.10934902422E+01 -0.24819753634E+00  0.26842046528E+01  0.12700000000E+01 0.  1.
<mgrwt>
<rscale>  0 0.26727051E+01</rscale>
<asrwt>0</asrwt>
<pdfrwt beam="1">0</pdfrwt>
<pdfrwt beam="2">0</pdfrwt>
<totfact> 0.21217943E+12</totfact>
</mgrwt>
</event>
<event>
 4    1  0.1733759E+006  0.3935142E+01  0.7546771E-02  0.2289866E+00
         22   -1    0    0    0    0  0.00000000000E+00  0.00000000000E+00  0.71945740077E+00  0.71945740077E+00  0.00000000000E+00 0. -1.
         22   -1    0    0    0    0 -0.00000000000E+00 -0.00000000000E+00 -0.26657570045E+02  0.26657570045E+02  0.00000000000E+00 0.  1.
          4    1    1    2  501    0  0.18130259351E+00  0.37201570404E+01 -0.18976243565E+02  0.19379967979E+02  0.12700000000E+01 0.  1.
         -4    1    1    2    0  501 -0.18130259351E+00 -0.37201570404E+01 -0.69618690790E+01  0.79970594664E+01  0.12700000000E+01 0. -1.
<mgrwt>
<rscale>  0 0.39351416E+01</rscale>
<asrwt>0</asrwt>
<pdfrwt beam="1">0</pdfrwt>
<pdfrwt beam="2">0</pdfrwt>
<totfact> 0.68698455E+11</totfact>
</mgrwt>
</event>
<event>
 4    1  0.1733759E+006  0.2656068E+01  0.7546771E-02  0.2643482E+00
         22   -1    0    0    0    0  0.00000000000E+00  0.00000000000E+00  0.35676303403E+02  0.35676303403E+02  0.00000000000E+00 0. -1.
         22   -1    0    0    0    0 -0.00000000000E+00 -0.00000000000E+00 -0.40098473317E+00  0.40098473317E+00  0.00000000000E+00 0.  1.
          4    1    1    2  501    0  0.22040791674E+01 -0.76409045271E+00  0.47952172711E+01  0.54816792932E+01  0.12700000000E+01 0.  1.
         -4    1    1    2    0  501 -0.22040791674E+01  0.76409045271E+00  0.30480101399E+02  0.30595608843E+02  0.12700000000E+01 0. -1.
<mgrwt>
<rscale>  0 0.26560684E+01</rscale>
<asrwt>0</asrwt>
<pdfrwt beam="1">0</pdfrwt>
<pdfrwt beam="2">0</pdfrwt>
<totfact> 0.91701864E+11</totfact>
</mgrwt>
</event>
<event>
 4    1  0.1733759E+006  0.2015395E+01  0.7546771E-02  0.2970411E+00
         22   -1    0    0    0    0  0.00000000000E+00  0.00000000000E+00  0.13600242868E+00  0.13600242868E+00  0.00000000000E+00 0. -1.
         22   -1    0    0    0    0 -0.00000000000E+00 -0.00000000000E+00 -0.75722468922E+02  0.75722468922E+02  0.00000000000E+00 0.  1.
          4    1    1    2  501    0 -0.15312653584E+01 -0.32271265245E+00 -0.67309614365E+02  0.67339780241E+02  0.12700000000E+01 0.  1.
         -4    1    1    2    0  501  0.15312653584E+01  0.32271265245E+00 -0.82768521284E+01  0.85186911089E+01  0.12700000000E+01 0. -1.
<mgrwt>
<rscale>  0 0.20153950E+01</rscale>
<asrwt>0</asrwt>
<pdfrwt beam="1">0</pdfrwt>
<pdfrwt beam="2">0</pdfrwt>
<totfact> 0.11333115E+12</totfact>
</mgrwt>
</event>
<event>
 4    1  0.1733759E+006  0.2650482E+01  0.7546771E-02  0.2645689E+00
         22   -1    0    0    0    0  0.00000000000E+00  0.00000000000E+00  0.25980860921E+01  0.25980860921E+01  0.00000000000E+00 0.  1.
         22   -1    0    0    0    0 -0.00000000000E+00 -0.00000000000E+00 -0.41024991164E+01  0.41024991164E+01  0.00000000000E+00 0. -1.
          4    1    1    2  501    0 -0.34996076218E+00  0.22999305586E+01 -0.27083461298E+01  0.37894843803E+01  0.12700000000E+01 0. -1.
         -4    1    1    2    0  501  0.34996076218E+00 -0.22999305586E+01  0.12039331055E+01  0.29111008282E+01  0.12700000000E+01 0.  1.
<mgrwt>
<rscale>  0 0.26504817E+01</rscale>
<asrwt>0</asrwt>
<pdfrwt beam="1">0</pdfrwt>
<pdfrwt beam="2">0</pdfrwt>
<totfact> 0.15287983E+12</totfact>
</mgrwt>
</event>
<event>
 4    1  0.1733759E+006  0.2676923E+01  0.7546771E-02  0.2635321E+00
         22   -1    0    0    0    0  0.00000000000E+00  0.00000000000E+00  0.44486586012E+01  0.44486586012E+01  0.00000000000E+00 0.  1.
         22   -1    0    0    0    0 -0.00000000000E+00 -0.00000000000E+00 -0.19834923881E+01  0.19834923881E+01  0.00000000000E+00 0.  1.
          4    1    1    2  501    0  0.22532179354E+01  0.68994689177E+00 -0.16148439746E+00  0.26817895123E+01  0.12700000000E+01 0.  1.
         -4    1    1    2    0  501 -0.22532179354E+01 -0.68994689177E+00  0.26266506105E+01  0.37503614769E+01  0.12700000000E+01 0.  1.
<mgrwt>
<rscale>  0 0.26769232E+01</rscale>
<asrwt>0</asrwt>
<pdfrwt beam="1">0</pdfrwt>
<pdfrwt beam="2">0</pdfrwt>
<totfact> 0.19008049E+12</totfact>
</mgrwt>
</event>
<event>
 4    1  0.1733759E+006  0.2962104E+01  0.7546771E-02  0.2534293E+00
         22   -1    0    0    0    0  0.00000000000E+00  0.00000000000E+00  0.14612948070E+01  0.14612948070E+01  0.00000000000E+00 0. -1.
         22   -1    0    0    0    0 -0.00000000000E+00 -0.00000000000E+00 -0.12504445041E+02  0.12504445041E+02  0.00000000000E+00 0.  1.
          4    1    1    2  501    0  0.25749285813E+01  0.72862881472E+00 -0.10556154077E+02  0.10963870030E+02  0.12700000000E+01 0.  1.
         -4    1    1    2    0  501 -0.25749285813E+01 -0.72862881472E+00 -0.48699615774E+00  0.30018698183E+01  0.12700000000E+01 0. -1.
<mgrwt>
<rscale>  0 0.29621035E+01</rscale>
<asrwt>0</asrwt>
<pdfrwt beam="1">0</pdfrwt>
<pdfrwt beam="2">0</pdfrwt>
<totfact> 0.78292269E+11</totfact>
</mgrwt>
</event>
<event>
 4    1  0.1733759E+006  0.2000884E+01  0.7546771E-02  0.2980132E+00
         22   -1    0    0    0    0  0.00000000000E+00  0.00000000000E+00  0.83930153391E+00  0.83930153391E+00  0.00000000000E+00 0.  1.
         22   -1    0    0    0    0 -0.00000000000E+00 -0.00000000000E+00 -0.73453811930E+01  0.73453811930E+01  0.00000000000E+00 0.  1.
          4    1    1    2  501    0 -0.13307042154E+01 -0.78731390911E+00 -0.56761800923E+01  0.60185178691E+01  0.12700000000E+01 0.  1.
         -4    1    1    2    0  501  0.13307042154E+01  0.78731390911E+00 -0.82989956678E+00  0.21661648578E+01  0.12700000000E+01 0.  1.
<mgrwt>
<rscale>  0 0.20008840E+01</rscale>
<asrwt>0</asrwt>
<pdfrwt beam="1">0</pdfrwt>
<pdfrwt beam="2">0</pdfrwt>
<totfact> 0.28092443E+12</totfact>
</mgrwt>
</event>
<event>
 4    1  0.1733759E+006  0.3256283E+01  0.7546771E-02  0.2446911E+00
         22   -1    0    0    0    0  0.00000000000E+00  0.00000000000E+00  0.24104048026E+01  0.24104048026E+01  0.00000000000E+00 0. -1.
         22   -1    0    0    0    0 -0.00000000000E+00 -0.00000000000E+00 -0.44534660953E+01  0.44534660953E+01  0.00000000000E+00 0.  1.
          4    1    1    2  501    0  0.16898924731E+01 -0.24768406554E+01 -0.64200240506E+00  0.33189672025E+01  0.12700000000E+01 0.  1.
         -4    1    1    2    0  501 -0.16898924731E+01  0.24768406554E+01 -0.14010588877E+01  0.35449036954E+01  0.12700000000E+01 0.  1.
<mgrwt>
<rscale>  0 0.32562826E+01</rscale>
<asrwt>0</asrwt>
<pdfrwt beam="1">0</pdfrwt>
<pdfrwt beam="2">0</pdfrwt>
<totfact> 0.15142924E+12</totfact>
</mgrwt>
</event>
<event>
 4    1  0.1733759E+006  0.2069496E+01  0.7546771E-02  0.2935344E+00
         22   -1    0    0    0    0  0.00000000000E+00  0.00000000000E+00  0.13896964217E+02  0.13896964217E+02  0.00000000000E+00 0. -1.
         22   -1    0    0    0    0 -0.00000000000E+00 -0.00000000000E+00 -0.32348414189E+00  0.32348414189E+00  0.00000000000E+00 0. -1.
          4    1    1    2  501    0 -0.14642051226E+00 -0.16274133804E+01  0.83331101753E+01  0.85862412306E+01  0.12700000000E+01 0. -1.
         -4    1    1    2    0  501  0.14642051226E+00  0.16274133804E+01  0.52403698997E+01  0.56342071282E+01  0.12700000000E+01 0. -1.
<mgrwt>
<rscale>  0 0.20694959E+01</rscale>
<asrwt>0</asrwt>
<pdfrwt beam="1">0</pdfrwt>
<pdfrwt beam="2">0</pdfrwt>
<totfact> 0.38107812E+12</totfact>
</mgrwt>
</event>
<event>
 4    1  0.1733759E+006  0.3800871E+01  0.7546771E-02  0.2317055E+00
         22   -1    0    0    0    0  0.00000000000E+00  0.00000000000E+00  0.11706036204E+02  0.11706036204E+02  0.00000000000E+00 0.  1.
         22   -1    0    0    0    0 -0.00000000000E+00 -0.00000000000E+00 -0.20775916487E+01  0.20775916487E+01  0.00000000000E+00 0. -1.
          4    1    1    2  501    0  0.21481011336E+01  0.28669464542E+01  0.42295959426E+00  0.38243320031E+01  0.12700000000E+01 0. -1.
         -4    1    1    2    0  501 -0.21481011336E+01 -0.28669464542E+01  0.92054849611E+01  0.99592958496E+01  0.12700000000E+01 0.  1.
<mgrwt>
<rscale>  0 0.38008710E+01</rscale>
<asrwt>0</asrwt>
<pdfrwt beam="1">0</pdfrwt>
<pdfrwt beam="2">0</pdfrwt>
<totfact> 0.56531985E+11</totfact>
</mgrwt>
</event>
<event>
 4    1  0.1733759E+006  0.3257118E+01  0.7546771E-02  0.2446683E+00
         22   -1    0    0    0    0  0.00000000000E+00  0.00000000000E+00  0.84838191613E+02  0.84838191613E+02  0.00000000000E+00 0.  1.
         22   -1    0    0    0    0 -0.00000000000E+00 -0.00000000000E+00 -0.27448523614E+01  0.27448523614E+01  0.00000000000E+00 0. -1.
          4    1    1    2  501    0  0.21355054491E+01 -0.21060710312E+01 -0.17357163781E+01  0.36907357067E+01  0.12700000000E+01 0. -1.
         -4    1    1    2    0  501 -0.21355054491E+01  0.21060710312E+01  0.83829055629E+02  0.83892308267E+02  0.12700000000E+01 0.  1.
<mgrwt>
<rscale>  0 0.32571182E+01</rscale>
<asrwt>0</asrwt>
<pdfrwt beam="1">0</pdfrwt>
<pdfrwt beam="2">0</pdfrwt>
<totfact> 0.32069643E+10</totfact>
</mgrwt>
</event>
<event>
 4    1  0.1733759E+006  0.2171418E+01  0.7546771E-02  0.2873897E+00
         22   -1    0    0    0    0  0.00000000000E+00  0.00000000000E+00  0.78300362011E+00  0.78300362011E+00  0.00000000000E+00 0. -1.
         22   -1    0    0    0    0 -0.00000000000E+00 -0.00000000000E+00 -0.60899840483E+01  0.60899840483E+01  0.00000000000E+00 0.  1.
          4    1    1    2  501    0  0.14813789315E+00  0.17550528775E+01 -0.30172329148E+01  0.37173579193E+01  0.12700000000E+01 0. -1.
         -4    1    1    2    0  501 -0.14813789315E+00 -0.17550528775E+01 -0.22897475133E+01  0.31556297490E+01  0.12700000000E+01 0.  1.
<mgrwt>
<rscale>  0 0.21714178E+01</rscale>
<asrwt>0</asrwt>
<pdfrwt beam="1">0</pdfrwt>
<pdfrwt beam="2">0</pdfrwt>
<totfact> 0.38031903E+12</totfact>
</mgrwt>
</event>
<event>
 4    1  0.1733759E+006  0.5414098E+01  0.7546771E-02  0.2076594E+00
         22   -1    0    0    0    0  0.00000000000E+00  0.00000000000E+00  0.59009203288E+02  0.59009203288E+02  0.00000000000E+00 0.  1.
         22   -1    0    0    0    0 -0.00000000000E+00 -0.00000000000E+00 -0.49830962756E+00  0.49830962756E+00  0.00000000000E+00 0.  1.
          4    1    1    2  501    0 -0.82749733926E+00 -0.51975766507E+01  0.30923333185E+02  0.31393709405E+02  0.12700000000E+01 0.  1.
         -4    1    1    2    0  501  0.82749733926E+00  0.51975766507E+01  0.27587560475E+02  0.28113803510E+02  0.12700000000E+01 0.  1.
<mgrwt>
<rscale>  0 0.54140978E+01</rscale>
<asrwt>0</asrwt>
<pdfrwt beam="1">0</pdfrwt>
<pdfrwt beam="2">0</pdfrwt>
<totfact> 0.37108661E+11</totfact>
</mgrwt>
</event>
<event>
 4    1  0.1733759E+006  0.3791169E+01  0.7546771E-02  0.2319083E+00
         22   -1    0    0    0    0  0.00000000000E+00  0.00000000000E+00  0.25282750301E+01  0.25282750301E+01  0.00000000000E+00 0.  1.
         22   -1    0    0    0    0 -0.00000000000E+00 -0.00000000000E+00 -0.17253127192E+02  0.17253127192E+02  0.00000000000E+00 0. -1.
          4    1    1    2  501    0 -0.34903848593E+01  0.75978611906E+00 -0.15461340098E+02  0.15919359254E+02  0.12700000000E+01 0. -1.
         -4    1    1    2    0  501  0.34903848593E+01 -0.75978611906E+00  0.73648793609E+00  0.38620429687E+01  0.12700000000E+01 0.  1.
<mgrwt>
<rscale>  0 0.37911689E+01</rscale>
<asrwt>0</asrwt>
<pdfrwt beam="1">0</pdfrwt>
<pdfrwt beam="2">0</pdfrwt>
<totfact> 0.27954836E+11</totfact>
</mgrwt>
</event>
<event>
 4    1  0.1733759E+006  0.3007105E+01  0.7546771E-02  0.2519940E+00
         22   -1    0    0    0    0  0.00000000000E+00  0.00000000000E+00  0.57017172840E+01  0.57017172840E+01  0.00000000000E+00 0. -1.
         22   -1    0    0    0    0 -0.00000000000E+00 -0.00000000000E+00 -0.31584774045E+01  0.31584774045E+01  0.00000000000E+00 0.  1.
          4    1    1    2  501    0  0.15451105608E+01  0.22455318791E+01 -0.18542613963E+01  0.35328409801E+01  0.12700000000E+01 0.  1.
         -4    1    1    2    0  501 -0.15451105608E+01 -0.22455318791E+01  0.43975012757E+01  0.53273537084E+01  0.12700000000E+01 0. -1.
<mgrwt>
<rscale>  0 0.30071049E+01</rscale>
<asrwt>0</asrwt>
<pdfrwt beam="1">0</pdfrwt>
<pdfrwt beam="2">0</pdfrwt>
<totfact> 0.82463919E+11</totfact>
</mgrwt>
</event>
<event>
 4    1  0.1733759E+006  0.2720933E+01  0.7546771E-02  0.2618475E+00
         22   -1    0    0    0    0  0.00000000000E+00  0.00000000000E+00  0.24640038565E+00  0.24640038565E+00  0.00000000000E+00 0.  1.
         22   -1    0    0    0    0 -0.00000000000E+00 -0.00000000000E+00 -0.33513558596E+02  0.33513558596E+02  0.00000000000E+00 0. -1.
          4    1    1    2  501    0  0.20541601649E+01 -0.12533957461E+01 -0.22062840931E+02  0.22229989312E+02  0.12700000000E+01 0. -1.
         -4    1    1    2    0  501 -0.20541601649E+01  0.12533957461E+01 -0.11204317279E+02  0.11529969669E+02  0.12700000000E+01 0.  1.
<mgrwt>
<rscale>  0 0.27209327E+01</rscale>
<asrwt>0</asrwt>
<pdfrwt beam="1">0</pdfrwt>
<pdfrwt beam="2">0</pdfrwt>
<totfact> 0.17162187E+12</totfact>
</mgrwt>
</event>
<event>
 4    1  0.1733759E+006  0.2029364E+01  0.7546771E-02  0.2961182E+00
         22   -1    0    0    0    0  0.00000000000E+00  0.00000000000E+00  0.82880380170E+00  0.82880380170E+00  0.00000000000E+00 0.  1.
         22   -1    0    0    0    0 -0.00000000000E+00 -0.00000000000E+00 -0.56052434320E+01  0.56052434320E+01  0.00000000000E+00 0.  1.
          4    1    1    2  501    0  0.14091376814E+01 -0.72093548987E+00 -0.34720778845E+01  0.40216466555E+01  0.12700000000E+01 0.  1.
         -4    1    1    2    0  501 -0.14091376814E+01  0.72093548987E+00 -0.13043617458E+01  0.24124005782E+01  0.12700000000E+01 0.  1.
<mgrwt>
<rscale>  0 0.20293637E+01</rscale>
<asrwt>0</asrwt>
<pdfrwt beam="1">0</pdfrwt>
<pdfrwt beam="2">0</pdfrwt>
<totfact> 0.39344860E+12</totfact>
</mgrwt>
</event>
<event>
 4    1  0.1733759E+006  0.3001892E+01  0.7546771E-02  0.2521582E+00
         22   -1    0    0    0    0  0.00000000000E+00  0.00000000000E+00  0.11853150819E+02  0.11853150819E+02  0.00000000000E+00 0. -1.
         22   -1    0    0    0    0 -0.00000000000E+00 -0.00000000000E+00 -0.10611275247E+01  0.10611275247E+01  0.00000000000E+00 0.  1.
          4    1    1    2  501    0 -0.31897436052E+00  0.27012426386E+01  0.19576518477E+01  0.35838188001E+01  0.12700000000E+01 0.  1.
         -4    1    1    2    0  501  0.31897436052E+00 -0.27012426386E+01  0.88343714464E+01  0.93304595433E+01  0.12700000000E+01 0. -1.
<mgrwt>
<rscale>  0 0.30018921E+01</rscale>
<asrwt>0</asrwt>
<pdfrwt beam="1">0</pdfrwt>
<pdfrwt beam="2">0</pdfrwt>
<totfact> 0.12061382E+12</totfact>
</mgrwt>
</event>
<event>
 4    1  0.1733759E+006  0.2189502E+01  0.7546771E-02  0.2863572E+00
         22   -1    0    0    0    0  0.00000000000E+00  0.00000000000E+00  0.50320821196E+02  0.50320821196E+02  0.00000000000E+00 0.  1.
         22   -1    0    0    0    0 -0.00000000000E+00 -0.00000000000E+00 -0.20349424798E+00  0.20349424798E+00  0.00000000000E+00 0.  1.
          4    1    1    2  501    0  0.17653501712E+01 -0.25407984115E+00  0.66355716490E+01  0.69874694205E+01  0.12700000000E+01 0.  1.
         -4    1    1    2    0  501 -0.17653501712E+01  0.25407984115E+00  0.43481755299E+02  0.43536846024E+02  0.12700000000E+01 0.  1.
<mgrwt>
<rscale>  0 0.21895017E+01</rscale>
<asrwt>0</asrwt>
<pdfrwt beam="1">0</pdfrwt>
<pdfrwt beam="2">0</pdfrwt>
<totfact> 0.12525104E+12</totfact>
</mgrwt>
</event>
<event>
 4    1  0.1733759E+006  0.3001676E+01  0.7546771E-02  0.2521651E+00
         22   -1    0    0    0    0  0.00000000000E+00  0.00000000000E+00  0.40699793215E+01  0.40699793215E+01  0.00000000000E+00 0. -1.
         22   -1    0    0    0    0 -0.00000000000E+00 -0.00000000000E+00 -0.51114892762E+01  0.51114892762E+01  0.00000000000E+00 0.  1.
          4    1    1    2  501    0 -0.20372349612E+01  0.18018970997E+01 -0.39772461838E+01  0.49828251677E+01  0.12700000000E+01 0.  1.
         -4    1    1    2    0  501  0.20372349612E+01 -0.18018970997E+01  0.29357362291E+01  0.41986434299E+01  0.12700000000E+01 0. -1.
<mgrwt>
<rscale>  0 0.30016761E+01</rscale>
<asrwt>0</asrwt>
<pdfrwt beam="1">0</pdfrwt>
<pdfrwt beam="2">0</pdfrwt>
<totfact> 0.69721972E+11</totfact>
</mgrwt>
</event>
<event>
 4    1  0.1733759E+006  0.2946337E+01  0.7546771E-02  0.2539415E+00
         22   -1    0    0    0    0  0.00000000000E+00  0.00000000000E+00  0.28439402513E+01  0.28439402513E+01  0.00000000000E+00 0.  1.
         22   -1    0    0    0    0 -0.00000000000E+00 -0.00000000000E+00 -0.38733157896E+01  0.38733157896E+01  0.00000000000E+00 0. -1.
          4    1    1    2  501    0 -0.26153486933E+01  0.47744569790E+00 -0.20608824729E+01  0.35955722423E+01  0.12700000000E+01 0. -1.
         -4    1    1    2    0  501  0.26153486933E+01 -0.47744569790E+00  0.10315069347E+01  0.31216837986E+01  0.12700000000E+01 0.  1.
<mgrwt>
<rscale>  0 0.29463372E+01</rscale>
<asrwt>0</asrwt>
<pdfrwt beam="1">0</pdfrwt>
<pdfrwt beam="2">0</pdfrwt>
<totfact> 0.14721988E+12</totfact>
</mgrwt>
</event>
<event>
 4    1  0.1733759E+006  0.3445602E+01  0.7546771E-02  0.2397716E+00
         22   -1    0    0    0    0  0.00000000000E+00  0.00000000000E+00  0.15212602798E+01  0.15212602798E+01  0.00000000000E+00 0. -1.
         22   -1    0    0    0    0 -0.00000000000E+00 -0.00000000000E+00 -0.24512574500E+02  0.24512574500E+02  0.00000000000E+00 0.  1.
          4    1    1    2  501    0  0.81398925514E+00  0.30978536505E+01 -0.22242506421E+02  0.22507804594E+02  0.12700000000E+01 0.  1.
         -4    1    1    2    0  501 -0.81398925514E+00 -0.30978536505E+01 -0.74880779821E+00  0.35260301850E+01  0.12700000000E+01 0. -1.
<mgrwt>
<rscale>  0 0.34456024E+01</rscale>
<asrwt>0</asrwt>
<pdfrwt beam="1">0</pdfrwt>
<pdfrwt beam="2">0</pdfrwt>
<totfact> 0.32452676E+11</totfact>
</mgrwt>
</event>
<event>
 4    1  0.1733759E+006  0.3577033E+01  0.7546771E-02  0.2366258E+00
         22   -1    0    0    0    0  0.00000000000E+00  0.00000000000E+00  0.87686701228E+01  0.87686701228E+01  0.00000000000E+00 0.  1.
         22   -1    0    0    0    0 -0.00000000000E+00 -0.00000000000E+00 -0.20445013998E+01  0.20445013998E+01  0.00000000000E+00 0.  1.
          4    1    1    2  501    0 -0.14275514274E+01 -0.30239641613E+01  0.46925642029E+00  0.36076812379E+01  0.12700000000E+01 0.  1.
         -4    1    1    2    0  501  0.14275514274E+01  0.30239641613E+01  0.62549123028E+01  0.72054902846E+01  0.12700000000E+01 0.  1.
<mgrwt>
<rscale>  0 0.35770326E+01</rscale>
<asrwt>0</asrwt>
<pdfrwt beam="1">0</pdfrwt>
<pdfrwt beam="2">0</pdfrwt>
<totfact> 0.81731490E+11</totfact>
</mgrwt>
</event>
<event>
 4    1  0.1733759E+006  0.3357235E+01  0.7546771E-02  0.2420072E+00
         22   -1    0    0    0    0  0.00000000000E+00  0.00000000000E+00  0.95530728387E+00  0.95530728387E+00  0.00000000000E+00 0.  1.
         22   -1    0    0    0    0 -0.00000000000E+00 -0.00000000000E+00 -0.11822575038E+02  0.11822575038E+02  0.00000000000E+00 0.  1.
          4    1    1    2  501    0 -0.20057168827E+01 -0.23738627918E+01 -0.57229940964E+01  0.66350347547E+01  0.12700000000E+01 0.  1.
         -4    1    1    2    0  501  0.20057168827E+01  0.23738627918E+01 -0.51442736576E+01  0.61428475671E+01  0.12700000000E+01 0.  1.
<mgrwt>
<rscale>  0 0.33572347E+01</rscale>
<asrwt>0</asrwt>
<pdfrwt beam="1">0</pdfrwt>
<pdfrwt beam="2">0</pdfrwt>
<totfact> 0.13641865E+12</totfact>
</mgrwt>
</event>
<event>
 4    1  0.1733759E+006  0.2922705E+01  0.7546771E-02  0.2547185E+00
         22   -1    0    0    0    0  0.00000000000E+00  0.00000000000E+00  0.32551899414E+01  0.32551899414E+01  0.00000000000E+00 0.  1.
         22   -1    0    0    0    0 -0.00000000000E+00 -0.00000000000E+00 -0.13068955793E+02  0.13068955793E+02  0.00000000000E+00 0. -1.
          4    1    1    2  501    0  0.20732432771E+01  0.16220246867E+01 -0.12203635173E+02  0.12548741499E+02  0.12700000000E+01 0. -1.
         -4    1    1    2    0  501 -0.20732432771E+01 -0.16220246867E+01  0.23898693213E+01  0.37754042357E+01  0.12700000000E+01 0.  1.
<mgrwt>
<rscale>  0 0.29227045E+01</rscale>
<asrwt>0</asrwt>
<pdfrwt beam="1">0</pdfrwt>
<pdfrwt beam="2">0</pdfrwt>
<totfact> 0.29297959E+11</totfact>
</mgrwt>
</event>
<event>
 4    1  0.1733759E+006  0.2912129E+01  0.7546771E-02  0.2550699E+00
         22   -1    0    0    0    0  0.00000000000E+00  0.00000000000E+00  0.11748188226E+02  0.11748188226E+02  0.00000000000E+00 0.  1.
         22   -1    0    0    0    0 -0.00000000000E+00 -0.00000000000E+00 -0.72242609914E+00  0.72242609914E+00  0.00000000000E+00 0.  1.
          4    1    1    2  501    0  0.10309323342E+01 -0.24093101139E+01  0.56880868277E+01  0.63902134911E+01  0.12700000000E+01 0.  1.
         -4    1    1    2    0  501 -0.10309323342E+01  0.24093101139E+01  0.53376752988E+01  0.60804008336E+01  0.12700000000E+01 0.  1.
<mgrwt>
<rscale>  0 0.29121292E+01</rscale>
<asrwt>0</asrwt>
<pdfrwt beam="1">0</pdfrwt>
<pdfrwt beam="2">0</pdfrwt>
<totfact> 0.18895015E+12</totfact>
</mgrwt>
</event>
<event>
 4    1  0.1733759E+006  0.2054315E+01  0.7546771E-02  0.2945001E+00
         22   -1    0    0    0    0  0.00000000000E+00  0.00000000000E+00  0.21413970687E+01  0.21413970687E+01  0.00000000000E+00 0.  1.
         22   -1    0    0    0    0 -0.00000000000E+00 -0.00000000000E+00 -0.44975387785E+01  0.44975387785E+01  0.00000000000E+00 0.  1.
          4    1    1    2  501    0  0.15851072528E+01  0.30781007013E+00 -0.36661450671E+01  0.42024792319E+01  0.12700000000E+01 0.  1.
         -4    1    1    2    0  501 -0.15851072528E+01 -0.30781007013E+00  0.13100033572E+01  0.24364566153E+01  0.12700000000E+01 0.  1.
<mgrwt>
<rscale>  0 0.20543155E+01</rscale>
<asrwt>0</asrwt>
<pdfrwt beam="1">0</pdfrwt>
<pdfrwt beam="2">0</pdfrwt>
<totfact> 0.17169898E+12</totfact>
</mgrwt>
</event>
<event>
 4    1  0.1733759E+006  0.2411744E+01  0.7546771E-02  0.2748766E+00
         22   -1    0    0    0    0  0.00000000000E+00  0.00000000000E+00  0.27660765085E+02  0.27660765085E+02  0.00000000000E+00 0. -1.
         22   -1    0    0    0    0 -0.00000000000E+00 -0.00000000000E+00 -0.43266837205E+00  0.43266837205E+00  0.00000000000E+00 0. -1.
          4    1    1    2  501    0 -0.44205595880E+00 -0.20020480532E+01  0.35434995331E+01  0.42863619562E+01  0.12700000000E+01 0. -1.
         -4    1    1    2    0  501  0.44205595880E+00  0.20020480532E+01  0.23684597180E+02  0.23807071501E+02  0.12700000000E+01 0. -1.
<mgrwt>
<rscale>  0 0.24117442E+01</rscale>
<asrwt>0</asrwt>
<pdfrwt beam="1">0</pdfrwt>
<pdfrwt beam="2">0</pdfrwt>
<totfact> 0.11652341E+12</totfact>
</mgrwt>
</event>
<event>
 4    1  0.1733759E+006  0.2602496E+01  0.7546771E-02  0.2664998E+00
         22   -1    0    0    0    0  0.00000000000E+00  0.00000000000E+00  0.27731788691E+01  0.27731788691E+01  0.00000000000E+00 0.  1.
         22   -1    0    0    0    0 -0.00000000000E+00 -0.00000000000E+00 -0.36655803438E+01  0.36655803438E+01  0.00000000000E+00 0. -1.
          4    1    1    2  501    0  0.21846078443E+01  0.62255361848E+00 -0.23059767211E+01  0.34771415099E+01  0.12700000000E+01 0. -1.
         -4    1    1    2    0  501 -0.21846078443E+01 -0.62255361848E+00  0.14135752465E+01  0.29616177030E+01  0.12700000000E+01 0.  1.
<mgrwt>
<rscale>  0 0.26024958E+01</rscale>
<asrwt>0</asrwt>
<pdfrwt beam="1">0</pdfrwt>
<pdfrwt beam="2">0</pdfrwt>
<totfact> 0.16175247E+12</totfact>
</mgrwt>
</event>
<event>
 4    1  0.1733759E+006  0.4146110E+01  0.7546771E-02  0.2250206E+00
         22   -1    0    0    0    0  0.00000000000E+00  0.00000000000E+00  0.64587006988E+01  0.64587006988E+01  0.00000000000E+00 0. -1.
         22   -1    0    0    0    0 -0.00000000000E+00 -0.00000000000E+00 -0.34388074078E+01  0.34388074078E+01  0.00000000000E+00 0.  1.
          4    1    1    2  501    0  0.22252730594E+01 -0.32596756862E+01 -0.84277913150E+00  0.42308985373E+01  0.12700000000E+01 0.  1.
         -4    1    1    2    0  501 -0.22252730594E+01  0.32596756862E+01  0.38626724225E+01  0.56666095694E+01  0.12700000000E+01 0. -1.
<mgrwt>
<rscale>  0 0.41461097E+01</rscale>
<asrwt>0</asrwt>
<pdfrwt beam="1">0</pdfrwt>
<pdfrwt beam="2">0</pdfrwt>
<totfact> 0.64351165E+11</totfact>
</mgrwt>
</event>
<event>
 4    1  0.1733759E+006  0.2306279E+01  0.7546771E-02  0.2800629E+00
         22   -1    0    0    0    0  0.00000000000E+00  0.00000000000E+00  0.13533113325E+02  0.13533113325E+02  0.00000000000E+00 0.  1.
         22   -1    0    0    0    0 -0.00000000000E+00 -0.00000000000E+00 -0.15115942544E+01  0.15115942544E+01  0.00000000000E+00 0.  1.
          4    1    1    2  501    0 -0.18825120654E+01  0.40270651212E+00 -0.46016805543E+00  0.23517395372E+01  0.12700000000E+01 0.  1.
         -4    1    1    2    0  501  0.18825120654E+01 -0.40270651212E+00  0.12481687126E+02  0.12692968042E+02  0.12700000000E+01 0.  1.
<mgrwt>
<rscale>  0 0.23062793E+01</rscale>
<asrwt>0</asrwt>
<pdfrwt beam="1">0</pdfrwt>
<pdfrwt beam="2">0</pdfrwt>
<totfact> 0.68358345E+11</totfact>
</mgrwt>
</event>
<event>
 4    1  0.1733759E+006  0.2348548E+01  0.7546771E-02  0.2779315E+00
         22   -1    0    0    0    0  0.00000000000E+00  0.00000000000E+00  0.34479738404E+01  0.34479738404E+01  0.00000000000E+00 0.  1.
         22   -1    0    0    0    0 -0.00000000000E+00 -0.00000000000E+00 -0.94031819502E+01  0.94031819502E+01  0.00000000000E+00 0. -1.
          4    1    1    2  501    0  0.19751709472E+01  0.38459859978E-01 -0.88311542344E+01  0.91381050849E+01  0.12700000000E+01 0. -1.
         -4    1    1    2    0  501 -0.19751709472E+01 -0.38459859978E-01  0.28759461245E+01  0.37130507056E+01  0.12700000000E+01 0.  1.
<mgrwt>
<rscale>  0 0.23485484E+01</rscale>
<asrwt>0</asrwt>
<pdfrwt beam="1">0</pdfrwt>
<pdfrwt beam="2">0</pdfrwt>
<totfact> 0.40864887E+11</totfact>
</mgrwt>
</event>
<event>
 4    1  0.1733759E+006  0.2059728E+01  0.7546771E-02  0.2941542E+00
         22   -1    0    0    0    0  0.00000000000E+00  0.00000000000E+00  0.12633305005E+02  0.12633305005E+02  0.00000000000E+00 0. -1.
         22   -1    0    0    0    0 -0.00000000000E+00 -0.00000000000E+00 -0.15416405186E+01  0.15416405186E+01  0.00000000000E+00 0. -1.
          4    1    1    2  501    0 -0.12357262740E+01 -0.10500279604E+01 -0.72235160701E+00  0.21827207760E+01  0.12700000000E+01 0. -1.
         -4    1    1    2    0  501  0.12357262740E+01  0.10500279604E+01  0.11814016093E+02  0.11992224747E+02  0.12700000000E+01 0. -1.
<mgrwt>
<rscale>  0 0.20597277E+01</rscale>
<asrwt>0</asrwt>
<pdfrwt beam="1">0</pdfrwt>
<pdfrwt beam="2">0</pdfrwt>
<totfact> 0.72691996E+11</totfact>
</mgrwt>
</event>
<event>
 4    1  0.1733759E+006  0.3853610E+01  0.7546771E-02  0.2306182E+00
         22   -1    0    0    0    0  0.00000000000E+00  0.00000000000E+00  0.97010374597E+02  0.97010374597E+02  0.00000000000E+00 0.  1.
         22   -1    0    0    0    0 -0.00000000000E+00 -0.00000000000E+00 -0.32056371075E+00  0.32056371075E+00  0.00000000000E+00 0. -1.
          4    1    1    2  501    0 -0.30913283918E+01 -0.19186183463E+01  0.13168572320E+02  0.13720845620E+02  0.12700000000E+01 0. -1.
         -4    1    1    2    0  501  0.30913283918E+01  0.19186183463E+01  0.83521238567E+02  0.83610092688E+02  0.12700000000E+01 0.  1.
<mgrwt>
<rscale>  0 0.38536097E+01</rscale>
<asrwt>0</asrwt>
<pdfrwt beam="1">0</pdfrwt>
<pdfrwt beam="2">0</pdfrwt>
<totfact> 0.30890488E+11</totfact>
</mgrwt>
</event>
<event>
 4    1  0.1733759E+006  0.2038397E+01  0.7546771E-02  0.2955279E+00
         22   -1    0    0    0    0  0.00000000000E+00  0.00000000000E+00  0.33427606289E+01  0.33427606289E+01  0.00000000000E+00 0. -1.
         22   -1    0    0    0    0 -0.00000000000E+00 -0.00000000000E+00 -0.19611765741E+01  0.19611765741E+01  0.00000000000E+00 0. -1.
          4    1    1    2  501    0 -0.15359768532E+01  0.42771416402E+00  0.22956052189E+01  0.30699947265E+01  0.12700000000E+01 0. -1.
         -4    1    1    2    0  501  0.15359768532E+01 -0.42771416402E+00 -0.91402116410E+00  0.22339424765E+01  0.12700000000E+01 0. -1.
<mgrwt>
<rscale>  0 0.20383975E+01</rscale>
<asrwt>0</asrwt>
<pdfrwt beam="1">0</pdfrwt>
<pdfrwt beam="2">0</pdfrwt>
<totfact> 0.26946911E+12</totfact>
</mgrwt>
</event>
<event>
 4    1  0.1733759E+006  0.2088223E+01  0.7546771E-02  0.2923618E+00
         22   -1    0    0    0    0  0.00000000000E+00  0.00000000000E+00  0.22811353906E+01  0.22811353906E+01  0.00000000000E+00 0.  1.
         22   -1    0    0    0    0 -0.00000000000E+00 -0.00000000000E+00 -0.21485866648E+01  0.21485866648E+01  0.00000000000E+00 0.  1.
          4    1    1    2  501    0 -0.16573353457E+01  0.31878318783E-01 -0.66926952967E+00  0.21928516545E+01  0.12700000000E+01 0. -1.
         -4    1    1    2    0  501  0.16573353457E+01 -0.31878318783E-01  0.80181825545E+00  0.22368704009E+01  0.12700000000E+01 0. -1.
<mgrwt>
<rscale>  0 0.20882233E+01</rscale>
<asrwt>0</asrwt>
<pdfrwt beam="1">0</pdfrwt>
<pdfrwt beam="2">0</pdfrwt>
<totfact> 0.37853454E+12</totfact>
</mgrwt>
</event>
<event>
 4    1  0.1733759E+006  0.2134128E+01  0.7546771E-02  0.2895720E+00
         22   -1    0    0    0    0  0.00000000000E+00  0.00000000000E+00  0.44268546746E+00  0.44268546746E+00  0.00000000000E+00 0. -1.
         22   -1    0    0    0    0 -0.00000000000E+00 -0.00000000000E+00 -0.12536082899E+02  0.12536082899E+02  0.00000000000E+00 0. -1.
          4    1    1    2  501    0  0.34373868988E+00 -0.16803118144E+01 -0.87945592077E+01  0.90497942374E+01  0.12700000000E+01 0. -1.
         -4    1    1    2    0  501 -0.34373868988E+00  0.16803118144E+01 -0.32988382240E+01  0.39289741293E+01  0.12700000000E+01 0. -1.
<mgrwt>
<rscale>  0 0.21341284E+01</rscale>
<asrwt>0</asrwt>
<pdfrwt beam="1">0</pdfrwt>
<pdfrwt beam="2">0</pdfrwt>
<totfact> 0.30378504E+12</totfact>
</mgrwt>
</event>
<event>
 4    1  0.1733759E+006  0.2184345E+01  0.7546771E-02  0.2866499E+00
         22   -1    0    0    0    0  0.00000000000E+00  0.00000000000E+00  0.16971594340E+01  0.16971594340E+01  0.00000000000E+00 0. -1.
         22   -1    0    0    0    0 -0.00000000000E+00 -0.00000000000E+00 -0.28597215825E+01  0.28597215825E+01  0.00000000000E+00 0.  1.
          4    1    1    2  501    0 -0.35358166752E+00  0.17416788574E+01 -0.87750669768E+00  0.23540142825E+01  0.12700000000E+01 0.  1.
         -4    1    1    2    0  501  0.35358166752E+00 -0.17416788574E+01 -0.28505545085E+00  0.22028667340E+01  0.12700000000E+01 0. -1.
<mgrwt>
<rscale>  0 0.21843455E+01</rscale>
<asrwt>0</asrwt>
<pdfrwt beam="1">0</pdfrwt>
<pdfrwt beam="2">0</pdfrwt>
<totfact> 0.38221501E+12</totfact>
</mgrwt>
</event>
<event>
 4    1  0.1733759E+006  0.2426449E+01  0.7546771E-02  0.2741872E+00
         22   -1    0    0    0    0  0.00000000000E+00  0.00000000000E+00  0.13695981699E+02  0.13695981699E+02  0.00000000000E+00 0. -1.
         22   -1    0    0    0    0 -0.00000000000E+00 -0.00000000000E+00 -0.75799594886E+00  0.75799594886E+00  0.00000000000E+00 0.  1.
          4    1    1    2  501    0 -0.15201355683E+01 -0.14014068061E+01  0.17141472203E+01  0.29708506989E+01  0.12700000000E+01 0.  1.
         -4    1    1    2    0  501  0.15201355683E+01  0.14014068061E+01  0.11223838530E+02  0.11483126949E+02  0.12700000000E+01 0. -1.
<mgrwt>
<rscale>  0 0.24264487E+01</rscale>
<asrwt>0</asrwt>
<pdfrwt beam="1">0</pdfrwt>
<pdfrwt beam="2">0</pdfrwt>
<totfact> 0.14832165E+12</totfact>
</mgrwt>
</event>
<event>
 4    1  0.1733759E+006  0.2713527E+01  0.7546771E-02  0.2621275E+00
         22   -1    0    0    0    0  0.00000000000E+00  0.00000000000E+00  0.16831790948E+02  0.16831790948E+02  0.00000000000E+00 0. -1.
         22   -1    0    0    0    0 -0.00000000000E+00 -0.00000000000E+00 -0.80062868891E+00  0.80062868891E+00  0.00000000000E+00 0.  1.
          4    1    1    2  501    0 -0.65568791397E-01  0.23970878441E+01  0.20778469528E+01  0.34177005951E+01  0.12700000000E+01 0. -1.
         -4    1    1    2    0  501  0.65568791397E-01 -0.23970878441E+01  0.13953315306E+02  0.14214719041E+02  0.12700000000E+01 0. -1.
<mgrwt>
<rscale>  0 0.27135271E+01</rscale>
<asrwt>0</asrwt>
<pdfrwt beam="1">0</pdfrwt>
<pdfrwt beam="2">0</pdfrwt>
<totfact> 0.10812947E+12</totfact>
</mgrwt>
</event>
<event>
 4    1  0.1733759E+006  0.2873853E+01  0.7546771E-02  0.2563612E+00
         22   -1    0    0    0    0  0.00000000000E+00  0.00000000000E+00  0.94067421412E+00  0.94067421412E+00  0.00000000000E+00 0. -1.
         22   -1    0    0    0    0 -0.00000000000E+00 -0.00000000000E+00 -0.87894899550E+01  0.87894899550E+01  0.00000000000E+00 0. -1.
          4    1    1    2  501    0  0.84875498400E+00 -0.24342860748E+01 -0.37637805116E+01  0.47355123753E+01  0.12700000000E+01 0. -1.
         -4    1    1    2    0  501 -0.84875498400E+00  0.24342860748E+01 -0.40850352293E+01  0.49946517938E+01  0.12700000000E+01 0. -1.
<mgrwt>
<rscale>  0 0.28738535E+01</rscale>
<asrwt>0</asrwt>
<pdfrwt beam="1">0</pdfrwt>
<pdfrwt beam="2">0</pdfrwt>
<totfact> 0.19885611E+12</totfact>
</mgrwt>
</event>
<event>
 4    1  0.1733759E+006  0.3049915E+01  0.7546771E-02  0.2506638E+00
         22   -1    0    0    0    0  0.00000000000E+00  0.00000000000E+00  0.26030535913E+02  0.26030535913E+02  0.00000000000E+00 0. -1.
         22   -1    0    0    0    0 -0.00000000000E+00 -0.00000000000E+00 -0.11865560330E+01  0.11865560330E+01  0.00000000000E+00 0.  1.
          4    1    1    2  501    0 -0.27668931296E+01 -0.18271519332E+00  0.10457400539E+01  0.32242138100E+01  0.12700000000E+01 0.  1.
         -4    1    1    2    0  501  0.27668931296E+01  0.18271519332E+00  0.23798239826E+02  0.23992878136E+02  0.12700000000E+01 0. -1.
<mgrwt>
<rscale>  0 0.30499152E+01</rscale>
<asrwt>0</asrwt>
<pdfrwt beam="1">0</pdfrwt>
<pdfrwt beam="2">0</pdfrwt>
<totfact> 0.40014957E+11</totfact>
</mgrwt>
</event>
<event>
 4    1  0.1733759E+006  0.2252241E+01  0.7546771E-02  0.2828982E+00
         22   -1    0    0    0    0  0.00000000000E+00  0.00000000000E+00  0.16009626927E+00  0.16009626927E+00  0.00000000000E+00 0.  1.
         22   -1    0    0    0    0 -0.00000000000E+00 -0.00000000000E+00 -0.34264291107E+02  0.34264291107E+02  0.00000000000E+00 0. -1.
          4    1    1    2  501    0  0.18464884203E+01  0.22398451409E+00 -0.21774880462E+02  0.21891048575E+02  0.12700000000E+01 0. -1.
         -4    1    1    2    0  501 -0.18464884203E+01 -0.22398451409E+00 -0.12329314376E+02  0.12533338802E+02  0.12700000000E+01 0.  1.
<mgrwt>
<rscale>  0 0.22522408E+01</rscale>
<asrwt>0</asrwt>
<pdfrwt beam="1">0</pdfrwt>
<pdfrwt beam="2">0</pdfrwt>
<totfact> 0.26982667E+12</totfact>
</mgrwt>
</event>
<event>
 4    1  0.1733759E+006  0.2104221E+01  0.7546771E-02  0.2913762E+00
         22   -1    0    0    0    0  0.00000000000E+00  0.00000000000E+00  0.25434642479E+02  0.25434642479E+02  0.00000000000E+00 0.  1.
         22   -1    0    0    0    0 -0.00000000000E+00 -0.00000000000E+00 -0.29596652634E+00  0.29596652634E+00  0.00000000000E+00 0.  1.
          4    1    1    2  501    0 -0.27626889611E+00 -0.16548478657E+01  0.43133171368E+01  0.47992135485E+01  0.12700000000E+01 0.  1.
         -4    1    1    2    0  501  0.27626889611E+00  0.16548478657E+01  0.20825358816E+02  0.20931395457E+02  0.12700000000E+01 0.  1.
<mgrwt>
<rscale>  0 0.21042210E+01</rscale>
<asrwt>0</asrwt>
<pdfrwt beam="1">0</pdfrwt>
<pdfrwt beam="2">0</pdfrwt>
<totfact> 0.19853860E+12</totfact>
</mgrwt>
</event>
<event>
 4    1  0.1733759E+006  0.4475089E+01  0.7546771E-02  0.2194744E+00
         22   -1    0    0    0    0  0.00000000000E+00  0.00000000000E+00  0.16802982683E+03  0.16802982683E+03  0.00000000000E+00 0.  1.
         22   -1    0    0    0    0 -0.00000000000E+00 -0.00000000000E+00 -0.43720780336E+00  0.43720780336E+00  0.00000000000E+00 0. -1.
          4    1    1    2  501    0 -0.32521138421E+01  0.27995138635E+01  0.11955539580E+02  0.12765631553E+02  0.12700000000E+01 0. -1.
         -4    1    1    2    0  501  0.32521138421E+01 -0.27995138635E+01  0.15563707945E+03  0.15570140308E+03  0.12700000000E+01 0.  1.
<mgrwt>
<rscale>  0 0.44750891E+01</rscale>
<asrwt>0</asrwt>
<pdfrwt beam="1">0</pdfrwt>
<pdfrwt beam="2">0</pdfrwt>
<totfact> 0.98062474E+10</totfact>
</mgrwt>
</event>
<event>
 4    1  0.1733759E+006  0.7051642E+01  0.7546771E-02  0.1936498E+00
         22   -1    0    0    0    0  0.00000000000E+00  0.00000000000E+00  0.29318479773E+01  0.29318479773E+01  0.00000000000E+00 0. -1.
         22   -1    0    0    0    0 -0.00000000000E+00 -0.00000000000E+00 -0.39203866540E+02  0.39203866540E+02  0.00000000000E+00 0.  1.
          4    1    1    2  501    0 -0.58440265330E+00 -0.69116737816E+01 -0.34005244518E+02  0.34728695853E+02  0.12700000000E+01 0.  1.
         -4    1    1    2    0  501  0.58440265330E+00  0.69116737816E+01 -0.22667740450E+01  0.74070186644E+01  0.12700000000E+01 0. -1.
<mgrwt>
<rscale>  0 0.70516424E+01</rscale>
<asrwt>0</asrwt>
<pdfrwt beam="1">0</pdfrwt>
<pdfrwt beam="2">0</pdfrwt>
<totfact> 0.83278883E+10</totfact>
</mgrwt>
</event>
<event>
 4    1  0.1733759E+006  0.2350787E+01  0.7546771E-02  0.2778207E+00
         22   -1    0    0    0    0  0.00000000000E+00  0.00000000000E+00  0.17213922985E+01  0.17213922985E+01  0.00000000000E+00 0.  1.
         22   -1    0    0    0    0 -0.00000000000E+00 -0.00000000000E+00 -0.48066911852E+01  0.48066911852E+01  0.00000000000E+00 0. -1.
          4    1    1    2  501    0  0.42929559072E+00  0.19310626616E+01 -0.34237036245E+01  0.41530644367E+01  0.12700000000E+01 0. -1.
         -4    1    1    2    0  501 -0.42929559072E+00 -0.19310626616E+01  0.33840473785E+00  0.23750190470E+01  0.12700000000E+01 0.  1.
<mgrwt>
<rscale>  0 0.23507866E+01</rscale>
<asrwt>0</asrwt>
<pdfrwt beam="1">0</pdfrwt>
<pdfrwt beam="2">0</pdfrwt>
<totfact> 0.20433101E+12</totfact>
</mgrwt>
</event>
<event>
 4    1  0.1733759E+006  0.3774210E+01  0.7546771E-02  0.2322650E+00
         22   -1    0    0    0    0  0.00000000000E+00  0.00000000000E+00  0.23387498791E+01  0.23387498791E+01  0.00000000000E+00 0.  1.
         22   -1    0    0    0    0 -0.00000000000E+00 -0.00000000000E+00 -0.13634323165E+02  0.13634323165E+02  0.00000000000E+00 0. -1.
          4    1    1    2  501    0 -0.13521973027E+01  0.32868412523E+01 -0.11588398833E+02  0.12187520276E+02  0.12700000000E+01 0. -1.
         -4    1    1    2    0  501  0.13521973027E+01 -0.32868412523E+01  0.29282554666E+00  0.37855527686E+01  0.12700000000E+01 0.  1.
<mgrwt>
<rscale>  0 0.37742102E+01</rscale>
<asrwt>0</asrwt>
<pdfrwt beam="1">0</pdfrwt>
<pdfrwt beam="2">0</pdfrwt>
<totfact> 0.40900854E+11</totfact>
</mgrwt>
</event>
<event>
 4    1  0.1733759E+006  0.2504878E+01  0.7546771E-02  0.2706384E+00
         22   -1    0    0    0    0  0.00000000000E+00  0.00000000000E+00  0.28696452793E+02  0.28696452793E+02  0.00000000000E+00 0.  1.
         22   -1    0    0    0    0 -0.00000000000E+00 -0.00000000000E+00 -0.25156413040E+00  0.25156413040E+00  0.00000000000E+00 0. -1.
          4    1    1    2  501    0 -0.16720474011E+01  0.13659318524E+01  0.89867886873E+01  0.93293506338E+01  0.12700000000E+01 0. -1.
         -4    1    1    2    0  501  0.16720474011E+01 -0.13659318524E+01  0.19458099976E+02  0.19618666290E+02  0.12700000000E+01 0. -1.
<mgrwt>
<rscale>  0 0.25048777E+01</rscale>
<asrwt>0</asrwt>
<pdfrwt beam="1">0</pdfrwt>
<pdfrwt beam="2">0</pdfrwt>
<totfact> 0.20443198E+12</totfact>
</mgrwt>
</event>
<event>
 4    1  0.1733759E+006  0.3345648E+01  0.7546771E-02  0.2423080E+00
         22   -1    0    0    0    0  0.00000000000E+00  0.00000000000E+00  0.16467114453E+01  0.16467114453E+01  0.00000000000E+00 0.  1.
         22   -1    0    0    0    0 -0.00000000000E+00 -0.00000000000E+00 -0.68234011534E+01  0.68234011534E+01  0.00000000000E+00 0. -1.
          4    1    1    2  501    0  0.30791296567E+00 -0.30798777846E+01 -0.28497710090E+01  0.43948324617E+01  0.12700000000E+01 0.  1.
         -4    1    1    2    0  501 -0.30791296567E+00  0.30798777846E+01 -0.23269186991E+01  0.40752801370E+01  0.12700000000E+01 0.  1.
<mgrwt>
<rscale>  0 0.33456476E+01</rscale>
<asrwt>0</asrwt>
<pdfrwt beam="1">0</pdfrwt>
<pdfrwt beam="2">0</pdfrwt>
<totfact> 0.14180391E+12</totfact>
</mgrwt>
</event>
<event>
 4    1  0.1733759E+006  0.2358867E+01  0.7546771E-02  0.2774222E+00
         22   -1    0    0    0    0  0.00000000000E+00  0.00000000000E+00  0.63356610653E+00  0.63356610653E+00  0.00000000000E+00 0. -1.
         22   -1    0    0    0    0 -0.00000000000E+00 -0.00000000000E+00 -0.10457722030E+02  0.10457722030E+02  0.00000000000E+00 0.  1.
          4    1    1    2  501    0  0.31294907138E+00 -0.19630125508E+01 -0.71316926934E+01  0.75116773139E+01  0.12700000000E+01 0.  1.
         -4    1    1    2    0  501 -0.31294907138E+00  0.19630125508E+01 -0.26924632300E+01  0.35796108225E+01  0.12700000000E+01 0. -1.
<mgrwt>
<rscale>  0 0.23588674E+01</rscale>
<asrwt>0</asrwt>
<pdfrwt beam="1">0</pdfrwt>
<pdfrwt beam="2">0</pdfrwt>
<totfact> 0.25259744E+12</totfact>
</mgrwt>
</event>
<event>
 4    1  0.1733759E+006  0.2016241E+01  0.7546771E-02  0.2969849E+00
         22   -1    0    0    0    0  0.00000000000E+00  0.00000000000E+00  0.77674457588E+00  0.77674457588E+00  0.00000000000E+00 0. -1.
         22   -1    0    0    0    0 -0.00000000000E+00 -0.00000000000E+00 -0.61756330689E+01  0.61756330689E+01  0.00000000000E+00 0.  1.
          4    1    1    2  501    0 -0.65819883129E+00 -0.14209507161E+01 -0.40570666755E+01  0.45304543535E+01  0.12700000000E+01 0.  1.
         -4    1    1    2    0  501  0.65819883129E+00  0.14209507161E+01 -0.13418218175E+01  0.24219232913E+01  0.12700000000E+01 0. -1.
<mgrwt>
<rscale>  0 0.20162407E+01</rscale>
<asrwt>0</asrwt>
<pdfrwt beam="1">0</pdfrwt>
<pdfrwt beam="2">0</pdfrwt>
<totfact> 0.37745668E+12</totfact>
</mgrwt>
</event>
<event>
 4    1  0.1733759E+006  0.2798712E+01  0.7546771E-02  0.2589889E+00
         22   -1    0    0    0    0  0.00000000000E+00  0.00000000000E+00  0.26067634285E+02  0.26067634285E+02  0.00000000000E+00 0.  1.
         22   -1    0    0    0    0 -0.00000000000E+00 -0.00000000000E+00 -0.40882739621E+00  0.40882739621E+00  0.00000000000E+00 0. -1.
          4    1    1    2  501    0 -0.18593183712E+01 -0.16621746823E+01  0.60143351230E+01  0.66336276992E+01  0.12700000000E+01 0. -1.
         -4    1    1    2    0  501  0.18593183712E+01  0.16621746823E+01  0.19644471765E+02  0.19842833982E+02  0.12700000000E+01 0.  1.
<mgrwt>
<rscale>  0 0.27987121E+01</rscale>
<asrwt>0</asrwt>
<pdfrwt beam="1">0</pdfrwt>
<pdfrwt beam="2">0</pdfrwt>
<totfact> 0.13389860E+12</totfact>
</mgrwt>
</event>
<event>
 4    1  0.1733759E+006  0.2182118E+01  0.7546771E-02  0.2867768E+00
         22   -1    0    0    0    0  0.00000000000E+00  0.00000000000E+00  0.72004270402E+00  0.72004270402E+00  0.00000000000E+00 0.  1.
         22   -1    0    0    0    0 -0.00000000000E+00 -0.00000000000E+00 -0.71929958865E+01  0.71929958865E+01  0.00000000000E+00 0. -1.
          4    1    1    2  501    0 -0.12446551843E+01  0.12647421210E+01 -0.43599751617E+01  0.48755535656E+01  0.12700000000E+01 0. -1.
         -4    1    1    2    0  501  0.12446551843E+01 -0.12647421210E+01 -0.21129780208E+01  0.30374850249E+01  0.12700000000E+01 0.  1.
<mgrwt>
<rscale>  0 0.21821180E+01</rscale>
<asrwt>0</asrwt>
<pdfrwt beam="1">0</pdfrwt>
<pdfrwt beam="2">0</pdfrwt>
<totfact> 0.34292540E+12</totfact>
</mgrwt>
</event>
<event>
 4    1  0.1733759E+006  0.6923446E+01  0.7546771E-02  0.1945589E+00
         22   -1    0    0    0    0  0.00000000000E+00  0.00000000000E+00  0.19015041525E+02  0.19015041525E+02  0.00000000000E+00 0.  1.
         22   -1    0    0    0    0 -0.00000000000E+00 -0.00000000000E+00 -0.26220907145E+01  0.26220907145E+01  0.00000000000E+00 0.  1.
          4    1    1    2  501    0 -0.33769449470E+01 -0.59090985403E+01  0.60706897817E+01  0.92080061447E+01  0.12700000000E+01 0.  1.
         -4    1    1    2    0  501  0.33769449470E+01  0.59090985403E+01  0.10322261029E+02  0.12429126095E+02  0.12700000000E+01 0.  1.
<mgrwt>
<rscale>  0 0.69234459E+01</rscale>
<asrwt>0</asrwt>
<pdfrwt beam="1">0</pdfrwt>
<pdfrwt beam="2">0</pdfrwt>
<totfact> 0.23748110E+11</totfact>
</mgrwt>
</event>
<event>
 4    1  0.1733759E+006  0.2506397E+01  0.7546771E-02  0.2705716E+00
         22   -1    0    0    0    0  0.00000000000E+00  0.00000000000E+00  0.20753610780E+01  0.20753610780E+01  0.00000000000E+00 0. -1.
         22   -1    0    0    0    0 -0.00000000000E+00 -0.00000000000E+00 -0.30545017692E+01  0.30545017692E+01  0.00000000000E+00 0. -1.
          4    1    1    2  501    0  0.69188328643E+00 -0.20470528160E+01 -0.24599740123E+00  0.25184404768E+01  0.12700000000E+01 0. -1.
         -4    1    1    2    0  501 -0.69188328643E+00  0.20470528160E+01 -0.73314328992E+00  0.26114223705E+01  0.12700000000E+01 0. -1.
<mgrwt>
<rscale>  0 0.25063974E+01</rscale>
<asrwt>0</asrwt>
<pdfrwt beam="1">0</pdfrwt>
<pdfrwt beam="2">0</pdfrwt>
<totfact> 0.28048865E+12</totfact>
</mgrwt>
</event>
<event>
 4    1  0.1733759E+006  0.3070490E+01  0.7546771E-02  0.2500363E+00
         22   -1    0    0    0    0  0.00000000000E+00  0.00000000000E+00  0.65567707430E+00  0.65567707430E+00  0.00000000000E+00 0.  1.
         22   -1    0    0    0    0 -0.00000000000E+00 -0.00000000000E+00 -0.17585350516E+02  0.17585350516E+02  0.00000000000E+00 0. -1.
          4    1    1    2  501    0  0.14412274386E+01  0.23953854593E+01 -0.12359382289E+02  0.12735079057E+02  0.12700000000E+01 0. -1.
         -4    1    1    2    0  501 -0.14412274386E+01 -0.23953854593E+01 -0.45702911528E+01  0.55059485332E+01  0.12700000000E+01 0.  1.
<mgrwt>
<rscale>  0 0.30704899E+01</rscale>
<asrwt>0</asrwt>
<pdfrwt beam="1">0</pdfrwt>
<pdfrwt beam="2">0</pdfrwt>
<totfact> 0.12850358E+12</totfact>
</mgrwt>
</event>
<event>
 4    1  0.1733759E+006  0.5359906E+01  0.7546771E-02  0.2082345E+00
         22   -1    0    0    0    0  0.00000000000E+00  0.00000000000E+00  0.43233243442E+02  0.43233243442E+02  0.00000000000E+00 0.  1.
         22   -1    0    0    0    0 -0.00000000000E+00 -0.00000000000E+00 -0.66832156512E+00  0.66832156512E+00  0.00000000000E+00 0. -1.
          4    1    1    2  501    0  0.40992244920E+01  0.32112386669E+01  0.19623103567E+02  0.20341946535E+02  0.12700000000E+01 0. -1.
         -4    1    1    2    0  501 -0.40992244920E+01 -0.32112386669E+01  0.22941818310E+02  0.23559618473E+02  0.12700000000E+01 0.  1.
<mgrwt>
<rscale>  0 0.53599063E+01</rscale>
<asrwt>0</asrwt>
<pdfrwt beam="1">0</pdfrwt>
<pdfrwt beam="2">0</pdfrwt>
<totfact> 0.40138178E+11</totfact>
</mgrwt>
</event>
<event>
 4    1  0.1733759E+006  0.2527086E+01  0.7546771E-02  0.2696708E+00
         22   -1    0    0    0    0  0.00000000000E+00  0.00000000000E+00  0.31218765313E+02  0.31218765313E+02  0.00000000000E+00 0. -1.
         22   -1    0    0    0    0 -0.00000000000E+00 -0.00000000000E+00 -0.31405467071E+00  0.31405467071E+00  0.00000000000E+00 0.  1.
          4    1    1    2  501    0 -0.19593012070E+01 -0.96664536239E+00  0.61429217372E+01  0.66424131116E+01  0.12700000000E+01 0.  1.
         -4    1    1    2    0  501  0.19593012070E+01  0.96664536239E+00  0.24761788905E+02  0.24890406872E+02  0.12700000000E+01 0. -1.
<mgrwt>
<rscale>  0 0.25270862E+01</rscale>
<asrwt>0</asrwt>
<pdfrwt beam="1">0</pdfrwt>
<pdfrwt beam="2">0</pdfrwt>
<totfact> 0.14321235E+12</totfact>
</mgrwt>
</event>
<event>
 4    1  0.1733759E+006  0.2383085E+01  0.7546771E-02  0.2762431E+00
         22   -1    0    0    0    0  0.00000000000E+00  0.00000000000E+00  0.21964696048E+02  0.21964696048E+02  0.00000000000E+00 0.  1.
         22   -1    0    0    0    0 -0.00000000000E+00 -0.00000000000E+00 -0.36585088499E+00  0.36585088499E+00  0.00000000000E+00 0. -1.
          4    1    1    2  501    0  0.15771361173E+01 -0.12565172191E+01  0.47528711791E+01  0.53168485308E+01  0.12700000000E+01 0. -1.
         -4    1    1    2    0  501 -0.15771361173E+01  0.12565172191E+01  0.16845973984E+02  0.17013698402E+02  0.12700000000E+01 0.  1.
<mgrwt>
<rscale>  0 0.23830849E+01</rscale>
<asrwt>0</asrwt>
<pdfrwt beam="1">0</pdfrwt>
<pdfrwt beam="2">0</pdfrwt>
<totfact> 0.18820520E+12</totfact>
</mgrwt>
</event>
<event>
 4    1  0.1733759E+006  0.2741217E+01  0.7546771E-02  0.2610878E+00
         22   -1    0    0    0    0  0.00000000000E+00  0.00000000000E+00  0.18902623211E+02  0.18902623211E+02  0.00000000000E+00 0.  1.
         22   -1    0    0    0    0 -0.00000000000E+00 -0.00000000000E+00 -0.41496202424E+00  0.41496202424E+00  0.00000000000E+00 0. -1.
          4    1    1    2  501    0 -0.65941268662E+00  0.23380644109E+01  0.72638927178E+01  0.77639170331E+01  0.12700000000E+01 0. -1.
         -4    1    1    2    0  501  0.65941268662E+00 -0.23380644109E+01  0.11223768469E+02  0.11553668202E+02  0.12700000000E+01 0.  1.
<mgrwt>
<rscale>  0 0.27412169E+01</rscale>
<asrwt>0</asrwt>
<pdfrwt beam="1">0</pdfrwt>
<pdfrwt beam="2">0</pdfrwt>
<totfact> 0.19700314E+12</totfact>
</mgrwt>
</event>
<event>
 4    1  0.1733759E+006  0.2484146E+01  0.7546771E-02  0.2715561E+00
         22   -1    0    0    0    0  0.00000000000E+00  0.00000000000E+00  0.23857410235E+00  0.23857410235E+00  0.00000000000E+00 0.  1.
         22   -1    0    0    0    0 -0.00000000000E+00 -0.00000000000E+00 -0.25882572117E+02  0.25882572117E+02  0.00000000000E+00 0. -1.
          4    1    1    2  501    0 -0.37918625774E+00 -0.21010233547E+01 -0.13151491974E+02  0.13384047314E+02  0.12700000000E+01 0.  1.
         -4    1    1    2    0  501  0.37918625774E+00  0.21010233547E+01 -0.12492506040E+02  0.12737098905E+02  0.12700000000E+01 0. -1.
<mgrwt>
<rscale>  0 0.24841460E+01</rscale>
<asrwt>0</asrwt>
<pdfrwt beam="1">0</pdfrwt>
<pdfrwt beam="2">0</pdfrwt>
<totfact> 0.24723137E+12</totfact>
</mgrwt>
</event>
<event>
 4    1  0.1733759E+006  0.2270620E+01  0.7546771E-02  0.2819194E+00
         22   -1    0    0    0    0  0.00000000000E+00  0.00000000000E+00  0.27179727052E+02  0.27179727052E+02  0.00000000000E+00 0.  1.
         22   -1    0    0    0    0 -0.00000000000E+00 -0.00000000000E+00 -0.19246620210E+00  0.19246620210E+00  0.00000000000E+00 0.  1.
          4    1    1    2  501    0 -0.18754099945E+01  0.16016653997E+00  0.11849839860E+02  0.12065422524E+02  0.12700000000E+01 0.  1.
         -4    1    1    2    0  501  0.18754099945E+01 -0.16016653997E+00  0.15137420989E+02  0.15306770730E+02  0.12700000000E+01 0.  1.
<mgrwt>
<rscale>  0 0.22706202E+01</rscale>
<asrwt>0</asrwt>
<pdfrwt beam="1">0</pdfrwt>
<pdfrwt beam="2">0</pdfrwt>
<totfact> 0.29535873E+12</totfact>
</mgrwt>
</event>
<event>
 4    1  0.1733759E+006  0.2044267E+01  0.7546771E-02  0.2951471E+00
         22   -1    0    0    0    0  0.00000000000E+00  0.00000000000E+00  0.73923331732E+00  0.73923331732E+00  0.00000000000E+00 0.  1.
         22   -1    0    0    0    0 -0.00000000000E+00 -0.00000000000E+00 -0.59223210520E+01  0.59223210520E+01  0.00000000000E+00 0. -1.
          4    1    1    2  501    0 -0.39595715871E+00 -0.15522062988E+01 -0.33015816147E+01  0.38832290203E+01  0.12700000000E+01 0. -1.
         -4    1    1    2    0  501  0.39595715871E+00  0.15522062988E+01 -0.18815061199E+01  0.27783253490E+01  0.12700000000E+01 0.  1.
<mgrwt>
<rscale>  0 0.20442667E+01</rscale>
<asrwt>0</asrwt>
<pdfrwt beam="1">0</pdfrwt>
<pdfrwt beam="2">0</pdfrwt>
<totfact> 0.41972254E+12</totfact>
</mgrwt>
</event>
<event>
 4    1  0.1733759E+006  0.3607736E+01  0.7546771E-02  0.2359197E+00
         22   -1    0    0    0    0  0.00000000000E+00  0.00000000000E+00  0.10353536989E+01  0.10353536989E+01  0.00000000000E+00 0.  1.
         22   -1    0    0    0    0 -0.00000000000E+00 -0.00000000000E+00 -0.21280022216E+02  0.21280022216E+02  0.00000000000E+00 0. -1.
          4    1    1    2  501    0  0.33367084997E+01  0.51887910871E+00 -0.17260144172E+02  0.17633160125E+02  0.12700000000E+01 0. -1.
         -4    1    1    2    0  501 -0.33367084997E+01 -0.51887910871E+00 -0.29845243451E+01  0.46822157904E+01  0.12700000000E+01 0.  1.
<mgrwt>
<rscale>  0 0.36077360E+01</rscale>
<asrwt>0</asrwt>
<pdfrwt beam="1">0</pdfrwt>
<pdfrwt beam="2">0</pdfrwt>
<totfact> 0.60254063E+11</totfact>
</mgrwt>
</event>
<event>
 4    1  0.1733759E+006  0.2058881E+01  0.7546771E-02  0.2942082E+00
         22   -1    0    0    0    0  0.00000000000E+00  0.00000000000E+00  0.32927279782E+00  0.32927279782E+00  0.00000000000E+00 0.  1.
         22   -1    0    0    0    0 -0.00000000000E+00 -0.00000000000E+00 -0.18443244715E+02  0.18443244715E+02  0.00000000000E+00 0. -1.
          4    1    1    2  501    0  0.71998725772E+00  0.14517953043E+01 -0.14214969023E+02  0.14363298214E+02  0.12700000000E+01 0. -1.
         -4    1    1    2    0  501 -0.71998725772E+00 -0.14517953043E+01 -0.38990028938E+01  0.44092192986E+01  0.12700000000E+01 0.  1.
<mgrwt>
<rscale>  0 0.20588811E+01</rscale>
<asrwt>0</asrwt>
<pdfrwt beam="1">0</pdfrwt>
<pdfrwt beam="2">0</pdfrwt>
<totfact> 0.26342596E+12</totfact>
</mgrwt>
</event>
<event>
 4    1  0.1733759E+006  0.2268155E+01  0.7546771E-02  0.2820499E+00
         22   -1    0    0    0    0  0.00000000000E+00  0.00000000000E+00  0.72216540399E+00  0.72216540399E+00  0.00000000000E+00 0. -1.
         22   -1    0    0    0    0 -0.00000000000E+00 -0.00000000000E+00 -0.74301133553E+01  0.74301133553E+01  0.00000000000E+00 0. -1.
          4    1    1    2  501    0 -0.17631647072E+01 -0.65028926848E+00 -0.41816675742E+01  0.47571913582E+01  0.12700000000E+01 0. -1.
         -4    1    1    2    0  501  0.17631647072E+01  0.65028926848E+00 -0.25262803771E+01  0.33950874011E+01  0.12700000000E+01 0. -1.
<mgrwt>
<rscale>  0 0.22681547E+01</rscale>
<asrwt>0</asrwt>
<pdfrwt beam="1">0</pdfrwt>
<pdfrwt beam="2">0</pdfrwt>
<totfact> 0.32876269E+12</totfact>
</mgrwt>
</event>
<event>
 4    1  0.1733759E+006  0.2679609E+01  0.7546771E-02  0.2634279E+00
         22   -1    0    0    0    0  0.00000000000E+00  0.00000000000E+00  0.66039957995E+01  0.66039957995E+01  0.00000000000E+00 0.  1.
         22   -1    0    0    0    0 -0.00000000000E+00 -0.00000000000E+00 -0.21868198404E+01  0.21868198404E+01  0.00000000000E+00 0. -1.
          4    1    1    2  501    0 -0.22905842801E+01 -0.56623956004E+00 -0.90815377623E+00  0.28293191522E+01  0.12700000000E+01 0. -1.
         -4    1    1    2    0  501  0.22905842801E+01  0.56623956004E+00  0.53253297353E+01  0.59614964877E+01  0.12700000000E+01 0.  1.
<mgrwt>
<rscale>  0 0.26796088E+01</rscale>
<asrwt>0</asrwt>
<pdfrwt beam="1">0</pdfrwt>
<pdfrwt beam="2">0</pdfrwt>
<totfact> 0.10621858E+12</totfact>
</mgrwt>
</event>
<event>
 4    1  0.1733759E+006  0.6796582E+01  0.7546771E-02  0.1954843E+00
         22   -1    0    0    0    0  0.00000000000E+00  0.00000000000E+00  0.54642613799E+01  0.54642613799E+01  0.00000000000E+00 0.  1.
         22   -1    0    0    0    0 -0.00000000000E+00 -0.00000000000E+00 -0.12893487745E+02  0.12893487745E+02  0.00000000000E+00 0. -1.
          4    1    1    2  501    0  0.35906028693E+01 -0.56292277018E+01 -0.91008145353E+01  0.11358624859E+02  0.12700000000E+01 0. -1.
         -4    1    1    2    0  501 -0.35906028693E+01  0.56292277018E+01  0.16715881698E+01  0.69991242662E+01  0.12700000000E+01 0.  1.
<mgrwt>
<rscale>  0 0.67965825E+01</rscale>
<asrwt>0</asrwt>
<pdfrwt beam="1">0</pdfrwt>
<pdfrwt beam="2">0</pdfrwt>
<totfact> 0.16177249E+11</totfact>
</mgrwt>
</event>
<event>
 4    1  0.1733759E+006  0.2212552E+01  0.7546771E-02  0.2850645E+00
         22   -1    0    0    0    0  0.00000000000E+00  0.00000000000E+00  0.75630994726E+00  0.75630994726E+00  0.00000000000E+00 0.  1.
         22   -1    0    0    0    0 -0.00000000000E+00 -0.00000000000E+00 -0.73086233127E+01  0.73086233127E+01  0.00000000000E+00 0. -1.
          4    1    1    2  501    0  0.16982049669E+01  0.63133784128E+00 -0.46398894596E+01  0.51404242798E+01  0.12700000000E+01 0. -1.
         -4    1    1    2    0  501 -0.16982049669E+01 -0.63133784128E+00 -0.19124239059E+01  0.29245089802E+01  0.12700000000E+01 0. -1.
<mgrwt>
<rscale>  0 0.22125523E+01</rscale>
<asrwt>0</asrwt>
<pdfrwt beam="1">0</pdfrwt>
<pdfrwt beam="2">0</pdfrwt>
<totfact> 0.31817256E+12</totfact>
</mgrwt>
</event>
<event>
 4    1  0.1733759E+006  0.6829749E+01  0.7546771E-02  0.1952399E+00
         22   -1    0    0    0    0  0.00000000000E+00  0.00000000000E+00  0.27671070962E+02  0.27671070962E+02  0.00000000000E+00 0. -1.
         22   -1    0    0    0    0 -0.00000000000E+00 -0.00000000000E+00 -0.24449389179E+01  0.24449389179E+01  0.00000000000E+00 0.  1.
          4    1    1    2  501    0 -0.50385088959E+01  0.44323800600E+01  0.42219613396E+01  0.80293475727E+01  0.12700000000E+01 0.  1.
         -4    1    1    2    0  501  0.50385088959E+01 -0.44323800600E+01  0.21004170705E+02  0.22086662307E+02  0.12700000000E+01 0. -1.
<mgrwt>
<rscale>  0 0.68297485E+01</rscale>
<asrwt>0</asrwt>
<pdfrwt beam="1">0</pdfrwt>
<pdfrwt beam="2">0</pdfrwt>
<totfact> 0.16083063E+11</totfact>
</mgrwt>
</event>
<event>
 4    1  0.1733759E+006  0.2437334E+01  0.7546771E-02  0.2736819E+00
         22   -1    0    0    0    0  0.00000000000E+00  0.00000000000E+00  0.19394477628E+02  0.19394477628E+02  0.00000000000E+00 0. -1.
         22   -1    0    0    0    0 -0.00000000000E+00 -0.00000000000E+00 -0.52799625838E+00  0.52799625838E+00  0.00000000000E+00 0. -1.
          4    1    1    2  501    0  0.28783574761E+00  0.20603023032E+01  0.29785762166E+01  0.38487025446E+01  0.12700000000E+01 0. -1.
         -4    1    1    2    0  501 -0.28783574761E+00 -0.20603023032E+01  0.15887905153E+02  0.16073771342E+02  0.12700000000E+01 0. -1.
<mgrwt>
<rscale>  0 0.24373336E+01</rscale>
<asrwt>0</asrwt>
<pdfrwt beam="1">0</pdfrwt>
<pdfrwt beam="2">0</pdfrwt>
<totfact> 0.14539559E+12</totfact>
</mgrwt>
</event>
<event>
 4    1  0.1733759E+006  0.2288557E+01  0.7546771E-02  0.2809788E+00
         22   -1    0    0    0    0  0.00000000000E+00  0.00000000000E+00  0.27882431493E+00  0.27882431493E+00  0.00000000000E+00 0.  1.
         22   -1    0    0    0    0 -0.00000000000E+00 -0.00000000000E+00 -0.19727009635E+02  0.19727009635E+02  0.00000000000E+00 0.  1.
          4    1    1    2  501    0 -0.87517402643E+00  0.16907579271E+01 -0.11910886476E+02  0.12128755442E+02  0.12700000000E+01 0.  1.
         -4    1    1    2    0  501  0.87517402643E+00 -0.16907579271E+01 -0.75372988444E+01  0.78770785076E+01  0.12700000000E+01 0.  1.
<mgrwt>
<rscale>  0 0.22885567E+01</rscale>
<asrwt>0</asrwt>
<pdfrwt beam="1">0</pdfrwt>
<pdfrwt beam="2">0</pdfrwt>
<totfact> 0.29195590E+12</totfact>
</mgrwt>
</event>
<event>
 4    1  0.1733759E+006  0.3037523E+01  0.7546771E-02  0.2510454E+00
         22   -1    0    0    0    0  0.00000000000E+00  0.00000000000E+00  0.18780298297E+01  0.18780298297E+01  0.00000000000E+00 0.  1.
         22   -1    0    0    0    0 -0.00000000000E+00 -0.00000000000E+00 -0.12745692928E+02  0.12745692928E+02  0.00000000000E+00 0.  1.
          4    1    1    2  501    0  0.11351502979E+01  0.25149716599E+01 -0.11165814662E+02  0.11571601692E+02  0.12700000000E+01 0.  1.
         -4    1    1    2    0  501 -0.11351502979E+01 -0.25149716599E+01  0.29815156329E+00  0.30521210663E+01  0.12700000000E+01 0.  1.
<mgrwt>
<rscale>  0 0.30375234E+01</rscale>
<asrwt>0</asrwt>
<pdfrwt beam="1">0</pdfrwt>
<pdfrwt beam="2">0</pdfrwt>
<totfact> 0.57273113E+11</totfact>
</mgrwt>
</event>
<event>
 4    1  0.1733759E+006  0.2239694E+01  0.7546771E-02  0.2835751E+00
         22   -1    0    0    0    0  0.00000000000E+00  0.00000000000E+00  0.12741906402E+01  0.12741906402E+01  0.00000000000E+00 0. -1.
         22   -1    0    0    0    0 -0.00000000000E+00 -0.00000000000E+00 -0.74656218596E+01  0.74656218596E+01  0.00000000000E+00 0. -1.
          4    1    1    2  501    0  0.11627831176E+01  0.14322233324E+01 -0.61000914208E+01  0.64982569659E+01  0.12700000000E+01 0. -1.
         -4    1    1    2    0  501 -0.11627831176E+01 -0.14322233324E+01 -0.91339798535E-01  0.22415555338E+01  0.12700000000E+01 0. -1.
<mgrwt>
<rscale>  0 0.22396938E+01</rscale>
<asrwt>0</asrwt>
<pdfrwt beam="1">0</pdfrwt>
<pdfrwt beam="2">0</pdfrwt>
<totfact> 0.17099394E+12</totfact>
</mgrwt>
</event>
<event>
 4    1  0.1733759E+006  0.2104851E+01  0.7546771E-02  0.2913376E+00
         22   -1    0    0    0    0  0.00000000000E+00  0.00000000000E+00  0.11494011113E+03  0.11494011113E+03  0.00000000000E+00 0.  1.
         22   -1    0    0    0    0 -0.00000000000E+00 -0.00000000000E+00 -0.51226712388E-01  0.51226712388E-01  0.00000000000E+00 0.  1.
          4    1    1    2  501    0  0.95451740807E+00 -0.13807227851E+01  0.28837527223E+02  0.28914241737E+02  0.12700000000E+01 0.  1.
         -4    1    1    2    0  501 -0.95451740807E+00  0.13807227851E+01  0.86051357196E+02  0.86077096107E+02  0.12700000000E+01 0.  1.
<mgrwt>
<rscale>  0 0.21048513E+01</rscale>
<asrwt>0</asrwt>
<pdfrwt beam="1">0</pdfrwt>
<pdfrwt beam="2">0</pdfrwt>
<totfact> 0.18605945E+12</totfact>
</mgrwt>
</event>
<event>
 4    1  0.1733759E+006  0.2647161E+01  0.7546771E-02  0.2647004E+00
         22   -1    0    0    0    0  0.00000000000E+00  0.00000000000E+00  0.18620440236E+01  0.18620440236E+01  0.00000000000E+00 0. -1.
         22   -1    0    0    0    0 -0.00000000000E+00 -0.00000000000E+00 -0.41927595724E+01  0.41927595724E+01  0.00000000000E+00 0.  1.
          4    1    1    2  501    0  0.20316560826E+01 -0.11255824927E+01 -0.19647215789E+00  0.26544422568E+01  0.12700000000E+01 0.  1.
         -4    1    1    2    0  501 -0.20316560826E+01  0.11255824927E+01 -0.21342433909E+01  0.34003613392E+01  0.12700000000E+01 0.  1.
<mgrwt>
<rscale>  0 0.26471612E+01</rscale>
<asrwt>0</asrwt>
<pdfrwt beam="1">0</pdfrwt>
<pdfrwt beam="2">0</pdfrwt>
<totfact> 0.21928568E+12</totfact>
</mgrwt>
</event>
<event>
 4    1  0.1733759E+006  0.3241157E+01  0.7546771E-02  0.2451060E+00
         22   -1    0    0    0    0  0.00000000000E+00  0.00000000000E+00  0.32749937292E+01  0.32749937292E+01  0.00000000000E+00 0. -1.
         22   -1    0    0    0    0 -0.00000000000E+00 -0.00000000000E+00 -0.74984926795E+01  0.74984926795E+01  0.00000000000E+00 0.  1.
          4    1    1    2  501    0  0.30551317629E+00 -0.29662872840E+01 -0.61865802669E+01  0.69841874224E+01  0.12700000000E+01 0.  1.
         -4    1    1    2    0  501 -0.30551317629E+00  0.29662872840E+01  0.19630813165E+01  0.37892989863E+01  0.12700000000E+01 0. -1.
<mgrwt>
<rscale>  0 0.32411570E+01</rscale>
<asrwt>0</asrwt>
<pdfrwt beam="1">0</pdfrwt>
<pdfrwt beam="2">0</pdfrwt>
<totfact> 0.56997375E+11</totfact>
</mgrwt>
</event>
<event>
 4    1  0.1733759E+006  0.2393515E+01  0.7546771E-02  0.2757422E+00
         22   -1    0    0    0    0  0.00000000000E+00  0.00000000000E+00  0.21593645303E+02  0.21593645303E+02  0.00000000000E+00 0. -1.
         22   -1    0    0    0    0 -0.00000000000E+00 -0.00000000000E+00 -0.65593513312E+00  0.65593513312E+00  0.00000000000E+00 0.  1.
          4    1    1    2  501    0  0.19354346982E+01  0.60836558049E+00  0.18837840720E+01  0.30459084984E+01  0.12700000000E+01 0.  1.
         -4    1    1    2    0  501 -0.19354346982E+01 -0.60836558049E+00  0.19053926098E+02  0.19203671938E+02  0.12700000000E+01 0. -1.
<mgrwt>
<rscale>  0 0.23935154E+01</rscale>
<asrwt>0</asrwt>
<pdfrwt beam="1">0</pdfrwt>
<pdfrwt beam="2">0</pdfrwt>
<totfact> 0.99458581E+11</totfact>
</mgrwt>
</event>
<event>
 4    1  0.1733759E+006  0.2849900E+01  0.7546771E-02  0.2571852E+00
         22   -1    0    0    0    0  0.00000000000E+00  0.00000000000E+00  0.23793833785E+02  0.23793833785E+02  0.00000000000E+00 0. -1.
         22   -1    0    0    0    0 -0.00000000000E+00 -0.00000000000E+00 -0.34285919571E+00  0.34285919571E+00  0.00000000000E+00 0.  1.
          4    1    1    2  501    0 -0.25501297138E+01 -0.76601655015E-01  0.10923733294E+02  0.11289370153E+02  0.12700000000E+01 0. -1.
         -4    1    1    2    0  501  0.25501297138E+01  0.76601655015E-01  0.12527241295E+02  0.12847322827E+02  0.12700000000E+01 0.  1.
<mgrwt>
<rscale>  0 0.28498999E+01</rscale>
<asrwt>0</asrwt>
<pdfrwt beam="1">0</pdfrwt>
<pdfrwt beam="2">0</pdfrwt>
<totfact> 0.18310889E+12</totfact>
</mgrwt>
</event>
<event>
 4    1  0.1733759E+006  0.2092979E+01  0.7546771E-02  0.2920673E+00
         22   -1    0    0    0    0  0.00000000000E+00  0.00000000000E+00  0.17869637242E+00  0.17869637242E+00  0.00000000000E+00 0. -1.
         22   -1    0    0    0    0 -0.00000000000E+00 -0.00000000000E+00 -0.72068731529E+02  0.72068731529E+02  0.00000000000E+00 0. -1.
          4    1    1    2  501    0 -0.79906994095E+00 -0.14591597696E+01 -0.65288786633E+02  0.65322325587E+02  0.12700000000E+01 0. -1.
         -4    1    1    2    0  501  0.79906994095E+00  0.14591597696E+01 -0.66012485236E+01  0.69251023151E+01  0.12700000000E+01 0. -1.
<mgrwt>
<rscale>  0 0.20929787E+01</rscale>
<asrwt>0</asrwt>
<pdfrwt beam="1">0</pdfrwt>
<pdfrwt beam="2">0</pdfrwt>
<totfact> 0.89488532E+11</totfact>
</mgrwt>
</event>
<event>
 4    1  0.1733759E+006  0.2016327E+01  0.7546771E-02  0.2969791E+00
         22   -1    0    0    0    0  0.00000000000E+00  0.00000000000E+00  0.78227206487E+01  0.78227206487E+01  0.00000000000E+00 0. -1.
         22   -1    0    0    0    0 -0.00000000000E+00 -0.00000000000E+00 -0.13521626172E+01  0.13521626172E+01  0.00000000000E+00 0.  1.
          4    1    1    2  501    0 -0.10344621970E+01 -0.11758239976E+01 -0.36416081599E+00  0.20489478301E+01  0.12700000000E+01 0.  1.
         -4    1    1    2    0  501  0.10344621970E+01  0.11758239976E+01  0.68347188476E+01  0.71259354358E+01  0.12700000000E+01 0. -1.
<mgrwt>
<rscale>  0 0.20163269E+01</rscale>
<asrwt>0</asrwt>
<pdfrwt beam="1">0</pdfrwt>
<pdfrwt beam="2">0</pdfrwt>
<totfact> 0.15101103E+12</totfact>
</mgrwt>
</event>
<event>
 4    1  0.1733759E+006  0.3902580E+01  0.7546771E-02  0.2296312E+00
         22   -1    0    0    0    0  0.00000000000E+00  0.00000000000E+00  0.26451131437E+02  0.26451131437E+02  0.00000000000E+00 0.  1.
         22   -1    0    0    0    0 -0.00000000000E+00 -0.00000000000E+00 -0.57579077270E+00  0.57579077270E+00  0.00000000000E+00 0. -1.
          4    1    1    2  501    0  0.36723715181E+01 -0.36182423439E+00  0.12985156445E+02  0.13558923897E+02  0.12700000000E+01 0.  1.
         -4    1    1    2    0  501 -0.36723715181E+01  0.36182423439E+00  0.12890184220E+02  0.13467998313E+02  0.12700000000E+01 0. -1.
<mgrwt>
<rscale>  0 0.39025798E+01</rscale>
<asrwt>0</asrwt>
<pdfrwt beam="1">0</pdfrwt>
<pdfrwt beam="2">0</pdfrwt>
<totfact> 0.89307036E+11</totfact>
</mgrwt>
</event>
<event>
 4    1  0.1733759E+006  0.2045426E+01  0.7546771E-02  0.2950722E+00
         22   -1    0    0    0    0  0.00000000000E+00  0.00000000000E+00  0.13491081960E+00  0.13491081960E+00  0.00000000000E+00 0. -1.
         22   -1    0    0    0    0 -0.00000000000E+00 -0.00000000000E+00 -0.31816228432E+02  0.31816228432E+02  0.00000000000E+00 0. -1.
          4    1    1    2  501    0 -0.39901824881E+00  0.15529492809E+01 -0.13299707302E+02  0.13456076001E+02  0.12700000000E+01 0. -1.
         -4    1    1    2    0  501  0.39901824881E+00 -0.15529492809E+01 -0.18381610310E+02  0.18495063250E+02  0.12700000000E+01 0. -1.
<mgrwt>
<rscale>  0 0.20454259E+01</rscale>
<asrwt>0</asrwt>
<pdfrwt beam="1">0</pdfrwt>
<pdfrwt beam="2">0</pdfrwt>
<totfact> 0.35888382E+12</totfact>
</mgrwt>
</event>
<event>
 4    1  0.1733759E+006  0.2339296E+01  0.7546771E-02  0.2783919E+00
         22   -1    0    0    0    0  0.00000000000E+00  0.00000000000E+00  0.81941425386E+00  0.81941425386E+00  0.00000000000E+00 0. -1.
         22   -1    0    0    0    0 -0.00000000000E+00 -0.00000000000E+00 -0.12440760982E+02  0.12440760982E+02  0.00000000000E+00 0. -1.
          4    1    1    2  501    0 -0.17725607867E+01 -0.84701371372E+00 -0.10322987687E+02  0.10584723840E+02  0.12700000000E+01 0. -1.
         -4    1    1    2    0  501  0.17725607867E+01  0.84701371372E+00 -0.12983590409E+01  0.26754513961E+01  0.12700000000E+01 0. -1.
<mgrwt>
<rscale>  0 0.23392956E+01</rscale>
<asrwt>0</asrwt>
<pdfrwt beam="1">0</pdfrwt>
<pdfrwt beam="2">0</pdfrwt>
<totfact> 0.15268339E+12</totfact>
</mgrwt>
</event>
<event>
 4    1  0.1733759E+006  0.2370279E+01  0.7546771E-02  0.2768638E+00
         22   -1    0    0    0    0  0.00000000000E+00  0.00000000000E+00  0.20219243610E+02  0.20219243610E+02  0.00000000000E+00 0.  1.
         22   -1    0    0    0    0 -0.00000000000E+00 -0.00000000000E+00 -0.33875095661E+00  0.33875095661E+00  0.00000000000E+00 0. -1.
          4    1    1    2  501    0  0.19885450686E+01 -0.22585479579E+00  0.55824317840E+01  0.60647973174E+01  0.12700000000E+01 0. -1.
         -4    1    1    2    0  501 -0.19885450686E+01  0.22585479579E+00  0.14298060870E+02  0.14493197249E+02  0.12700000000E+01 0.  1.
<mgrwt>
<rscale>  0 0.23702789E+01</rscale>
<asrwt>0</asrwt>
<pdfrwt beam="1">0</pdfrwt>
<pdfrwt beam="2">0</pdfrwt>
<totfact> 0.22758579E+12</totfact>
</mgrwt>
</event>
<event>
 4    1  0.1733759E+006  0.2123144E+01  0.7546771E-02  0.2902289E+00
         22   -1    0    0    0    0  0.00000000000E+00  0.00000000000E+00  0.56234764591E+00  0.56234764591E+00  0.00000000000E+00 0.  1.
         22   -1    0    0    0    0 -0.00000000000E+00 -0.00000000000E+00 -0.83402394539E+01  0.83402394539E+01  0.00000000000E+00 0.  1.
          4    1    1    2  501    0  0.51535544407E+00 -0.16214957885E+01 -0.47667068056E+01  0.52181638147E+01  0.12700000000E+01 0.  1.
         -4    1    1    2    0  501 -0.51535544407E+00  0.16214957885E+01 -0.30111850023E+01  0.36844232851E+01  0.12700000000E+01 0.  1.
<mgrwt>
<rscale>  0 0.21231439E+01</rscale>
<asrwt>0</asrwt>
<pdfrwt beam="1">0</pdfrwt>
<pdfrwt beam="2">0</pdfrwt>
<totfact> 0.37996006E+12</totfact>
</mgrwt>
</event>
<event>
 4    1  0.1733759E+006  0.2308727E+01  0.7546771E-02  0.2799375E+00
         22   -1    0    0    0    0  0.00000000000E+00  0.00000000000E+00  0.13991426382E+01  0.13991426382E+01  0.00000000000E+00 0. -1.
         22   -1    0    0    0    0 -0.00000000000E+00 -0.00000000000E+00 -0.46626920389E+01  0.46626920389E+01  0.00000000000E+00 0. -1.
          4    1    1    2  501    0 -0.18168978703E+01  0.64513898320E+00 -0.29281921503E+01  0.37288780414E+01  0.12700000000E+01 0. -1.
         -4    1    1    2    0  501  0.18168978703E+01 -0.64513898320E+00 -0.33535725037E+00  0.23329566357E+01  0.12700000000E+01 0. -1.
<mgrwt>
<rscale>  0 0.23087274E+01</rscale>
<asrwt>0</asrwt>
<pdfrwt beam="1">0</pdfrwt>
<pdfrwt beam="2">0</pdfrwt>
<totfact> 0.26890325E+12</totfact>
</mgrwt>
</event>
<event>
 4    1  0.1733759E+006  0.2789252E+01  0.7546771E-02  0.2593288E+00
         22   -1    0    0    0    0  0.00000000000E+00  0.00000000000E+00  0.14701135907E+02  0.14701135907E+02  0.00000000000E+00 0. -1.
         22   -1    0    0    0    0 -0.00000000000E+00 -0.00000000000E+00 -0.54979406679E+00  0.54979406679E+00  0.00000000000E+00 0. -1.
          4    1    1    2  501    0 -0.83256548639E+00 -0.23396288938E+01  0.56000507667E+01  0.62562366675E+01  0.12700000000E+01 0. -1.
         -4    1    1    2    0  501  0.83256548639E+00  0.23396288938E+01  0.85512910731E+01  0.89946933059E+01  0.12700000000E+01 0. -1.
<mgrwt>
<rscale>  0 0.27892523E+01</rscale>
<asrwt>0</asrwt>
<pdfrwt beam="1">0</pdfrwt>
<pdfrwt beam="2">0</pdfrwt>
<totfact> 0.19568768E+12</totfact>
</mgrwt>
</event>
<event>
 4    1  0.1733759E+006  0.2791681E+01  0.7546771E-02  0.2592414E+00
         22   -1    0    0    0    0  0.00000000000E+00  0.00000000000E+00  0.82405795759E+01  0.82405795759E+01  0.00000000000E+00 0.  1.
         22   -1    0    0    0    0 -0.00000000000E+00 -0.00000000000E+00 -0.27441081815E+01  0.27441081815E+01  0.00000000000E+00 0. -1.
          4    1    1    2  501    0 -0.13259742269E+01  0.21029442609E+01 -0.16980347650E+01  0.32675379536E+01  0.12700000000E+01 0. -1.
         -4    1    1    2    0  501  0.13259742269E+01 -0.21029442609E+01  0.71945061595E+01  0.77171498038E+01  0.12700000000E+01 0.  1.
<mgrwt>
<rscale>  0 0.27916809E+01</rscale>
<asrwt>0</asrwt>
<pdfrwt beam="1">0</pdfrwt>
<pdfrwt beam="2">0</pdfrwt>
<totfact> 0.62570267E+11</totfact>
</mgrwt>
</event>
<event>
 4    1  0.1733759E+006  0.2483358E+01  0.7546771E-02  0.2715913E+00
         22   -1    0    0    0    0  0.00000000000E+00  0.00000000000E+00  0.11072527378E+02  0.11072527378E+02  0.00000000000E+00 0.  1.
         22   -1    0    0    0    0 -0.00000000000E+00 -0.00000000000E+00 -0.56313774817E+00  0.56313774817E+00  0.00000000000E+00 0.  1.
          4    1    1    2  501    0  0.77121062408E+00  0.19898246362E+01  0.46458455475E+01  0.52679169280E+01  0.12700000000E+01 0.  1.
         -4    1    1    2    0  501 -0.77121062408E+00 -0.19898246362E+01  0.58635440827E+01  0.63677481985E+01  0.12700000000E+01 0.  1.
<mgrwt>
<rscale>  0 0.24833582E+01</rscale>
<asrwt>0</asrwt>
<pdfrwt beam="1">0</pdfrwt>
<pdfrwt beam="2">0</pdfrwt>
<totfact> 0.26931319E+12</totfact>
</mgrwt>
</event>
<event>
 4    1  0.1733759E+006  0.2870416E+01  0.7546771E-02  0.2564787E+00
         22   -1    0    0    0    0  0.00000000000E+00  0.00000000000E+00  0.65701644666E+01  0.65701644666E+01  0.00000000000E+00 0. -1.
         22   -1    0    0    0    0 -0.00000000000E+00 -0.00000000000E+00 -0.52220599409E+01  0.52220599409E+01  0.00000000000E+00 0.  1.
          4    1    1    2  501    0 -0.43853925757E+00  0.25365469643E+01 -0.44655725688E+01  0.53085426955E+01  0.12700000000E+01 0.  1.
         -4    1    1    2    0  501  0.43853925757E+00 -0.25365469643E+01  0.58136770945E+01  0.64836817120E+01  0.12700000000E+01 0. -1.
<mgrwt>
<rscale>  0 0.28704159E+01</rscale>
<asrwt>0</asrwt>
<pdfrwt beam="1">0</pdfrwt>
<pdfrwt beam="2">0</pdfrwt>
<totfact> 0.38533338E+11</totfact>
</mgrwt>
</event>
<event>
 4    1  0.1733759E+006  0.3158325E+01  0.7546771E-02  0.2474398E+00
         22   -1    0    0    0    0  0.00000000000E+00  0.00000000000E+00  0.10641905923E+02  0.10641905923E+02  0.00000000000E+00 0.  1.
         22   -1    0    0    0    0 -0.00000000000E+00 -0.00000000000E+00 -0.11695679203E+01  0.11695679203E+01  0.00000000000E+00 0. -1.
          4    1    1    2  501    0  0.49881648958E+00 -0.28483854182E+01  0.73677967162E+01  0.80161989641E+01  0.12700000000E+01 0. -1.
         -4    1    1    2    0  501 -0.49881648958E+00  0.28483854182E+01  0.21045412860E+01  0.37952748788E+01  0.12700000000E+01 0.  1.
<mgrwt>
<rscale>  0 0.31583251E+01</rscale>
<asrwt>0</asrwt>
<pdfrwt beam="1">0</pdfrwt>
<pdfrwt beam="2">0</pdfrwt>
<totfact> 0.12302223E+12</totfact>
</mgrwt>
</event>
<event>
 4    1  0.1733759E+006  0.2566421E+01  0.7546771E-02  0.2679952E+00
         22   -1    0    0    0    0  0.00000000000E+00  0.00000000000E+00  0.26094232380E+02  0.26094232380E+02  0.00000000000E+00 0.  1.
         22   -1    0    0    0    0 -0.00000000000E+00 -0.00000000000E+00 -0.71322257661E+00  0.71322257661E+00  0.00000000000E+00 0.  1.
          4    1    1    2  501    0  0.79085780131E+00 -0.20852239460E+01  0.19165798521E+01  0.32030912095E+01  0.12700000000E+01 0.  1.
         -4    1    1    2    0  501 -0.79085780131E+00  0.20852239460E+01  0.23464429951E+02  0.23604363747E+02  0.12700000000E+01 0.  1.
<mgrwt>
<rscale>  0 0.25664207E+01</rscale>
<asrwt>0</asrwt>
<pdfrwt beam="1">0</pdfrwt>
<pdfrwt beam="2">0</pdfrwt>
<totfact> 0.71279113E+11</totfact>
</mgrwt>
</event>
<event>
 4    1  0.1733759E+006  0.2149137E+01  0.7546771E-02  0.2886848E+00
         22   -1    0    0    0    0  0.00000000000E+00  0.00000000000E+00  0.59737433154E+00  0.59737433154E+00  0.00000000000E+00 0.  1.
         22   -1    0    0    0    0 -0.00000000000E+00 -0.00000000000E+00 -0.99019232830E+01  0.99019232830E+01  0.00000000000E+00 0. -1.
          4    1    1    2  501    0  0.12437744647E+01  0.12078563354E+01 -0.21946784295E+01  0.30717104770E+01  0.12700000000E+01 0.  1.
         -4    1    1    2    0  501 -0.12437744647E+01 -0.12078563354E+01 -0.71098705220E+01  0.74275871375E+01  0.12700000000E+01 0. -1.
<mgrwt>
<rscale>  0 0.21491375E+01</rscale>
<asrwt>0</asrwt>
<pdfrwt beam="1">0</pdfrwt>
<pdfrwt beam="2">0</pdfrwt>
<totfact> 0.28846205E+12</totfact>
</mgrwt>
</event>
<event>
 4    1  0.1733759E+006  0.2659850E+01  0.7546771E-02  0.2641994E+00
         22   -1    0    0    0    0  0.00000000000E+00  0.00000000000E+00  0.20594353541E+01  0.20594353541E+01  0.00000000000E+00 0. -1.
         22   -1    0    0    0    0 -0.00000000000E+00 -0.00000000000E+00 -0.36852476774E+01  0.36852476774E+01  0.00000000000E+00 0. -1.
          4    1    1    2  501    0  0.16175017317E+01 -0.16868869322E+01 -0.15609350759E+01  0.30840424260E+01  0.12700000000E+01 0. -1.
         -4    1    1    2    0  501 -0.16175017317E+01  0.16868869322E+01 -0.64877247397E-01  0.26606406055E+01  0.12700000000E+01 0. -1.
<mgrwt>
<rscale>  0 0.26598495E+01</rscale>
<asrwt>0</asrwt>
<pdfrwt beam="1">0</pdfrwt>
<pdfrwt beam="2">0</pdfrwt>
<totfact> 0.22713911E+12</totfact>
</mgrwt>
</event>
<event>
 4    1  0.1733759E+006  0.2124048E+01  0.7546771E-02  0.2901746E+00
         22   -1    0    0    0    0  0.00000000000E+00  0.00000000000E+00  0.73903286810E+00  0.73903286810E+00  0.00000000000E+00 0.  1.
         22   -1    0    0    0    0 -0.00000000000E+00 -0.00000000000E+00 -0.61052373207E+01  0.61052373207E+01  0.00000000000E+00 0.  1.
          4    1    1    2  501    0  0.16779897134E+01 -0.28815172744E+00 -0.26512800100E+01  0.33971850977E+01  0.12700000000E+01 0.  1.
         -4    1    1    2    0  501 -0.16779897134E+01  0.28815172744E+00 -0.27149244426E+01  0.34470850911E+01  0.12700000000E+01 0.  1.
<mgrwt>
<rscale>  0 0.21240482E+01</rscale>
<asrwt>0</asrwt>
<pdfrwt beam="1">0</pdfrwt>
<pdfrwt beam="2">0</pdfrwt>
<totfact> 0.40492947E+12</totfact>
</mgrwt>
</event>
<event>
 4    1  0.1733759E+006  0.5454944E+01  0.7546771E-02  0.2072319E+00
         22   -1    0    0    0    0  0.00000000000E+00  0.00000000000E+00  0.17843741993E+01  0.17843741993E+01  0.00000000000E+00 0.  1.
         22   -1    0    0    0    0 -0.00000000000E+00 -0.00000000000E+00 -0.20181025758E+02  0.20181025758E+02  0.00000000000E+00 0. -1.
          4    1    1    2  501    0 -0.34744732195E+01 -0.40089331888E+01 -0.13775281113E+02  0.14816031155E+02  0.12700000000E+01 0. -1.
         -4    1    1    2    0  501  0.34744732195E+01  0.40089331888E+01 -0.46213704458E+01  0.71493688017E+01  0.12700000000E+01 0.  1.
<mgrwt>
<rscale>  0 0.54549436E+01</rscale>
<asrwt>0</asrwt>
<pdfrwt beam="1">0</pdfrwt>
<pdfrwt beam="2">0</pdfrwt>
<totfact> 0.34454889E+11</totfact>
</mgrwt>
</event>
<event>
 4    1  0.1733759E+006  0.2831202E+01  0.7546771E-02  0.2578372E+00
         22   -1    0    0    0    0  0.00000000000E+00  0.00000000000E+00  0.83385612930E+01  0.83385612930E+01  0.00000000000E+00 0. -1.
         22   -1    0    0    0    0 -0.00000000000E+00 -0.00000000000E+00 -0.12324022369E+01  0.12324022369E+01  0.00000000000E+00 0.  1.
          4    1    1    2  501    0  0.11943210956E+01  0.22307854213E+01  0.13085225982E+01  0.31189642295E+01  0.12700000000E+01 0.  1.
         -4    1    1    2    0  501 -0.11943210956E+01 -0.22307854213E+01  0.57976364579E+01  0.64519993004E+01  0.12700000000E+01 0. -1.
<mgrwt>
<rscale>  0 0.28312023E+01</rscale>
<asrwt>0</asrwt>
<pdfrwt beam="1">0</pdfrwt>
<pdfrwt beam="2">0</pdfrwt>
<totfact> 0.15557373E+12</totfact>
</mgrwt>
</event>
<event>
 4    1  0.1733759E+006  0.2022890E+01  0.7546771E-02  0.2965443E+00
         22   -1    0    0    0    0  0.00000000000E+00  0.00000000000E+00  0.24087759111E+00  0.24087759111E+00  0.00000000000E+00 0.  1.
         22   -1    0    0    0    0 -0.00000000000E+00 -0.00000000000E+00 -0.26958976720E+02  0.26958976720E+02  0.00000000000E+00 0.  1.
          4    1    1    2  501    0 -0.95680450711E+00 -0.12504843018E+01 -0.21629869152E+02  0.21724256613E+02  0.12700000000E+01 0.  1.
         -4    1    1    2    0  501  0.95680450711E+00  0.12504843018E+01 -0.50882299768E+01  0.54755976980E+01  0.12700000000E+01 0.  1.
<mgrwt>
<rscale>  0 0.20228905E+01</rscale>
<asrwt>0</asrwt>
<pdfrwt beam="1">0</pdfrwt>
<pdfrwt beam="2">0</pdfrwt>
<totfact> 0.23227688E+12</totfact>
</mgrwt>
</event>
<event>
 4    1  0.1733759E+006  0.2834008E+01  0.7546771E-02  0.2577389E+00
         22   -1    0    0    0    0  0.00000000000E+00  0.00000000000E+00  0.36546644581E+02  0.36546644581E+02  0.00000000000E+00 0.  1.
         22   -1    0    0    0    0 -0.00000000000E+00 -0.00000000000E+00 -0.36681165417E+00  0.36681165417E+00  0.00000000000E+00 0. -1.
          4    1    1    2  501    0  0.50969431372E+00 -0.24817157941E+01  0.64039771770E+01  0.70030368598E+01  0.12700000000E+01 0. -1.
         -4    1    1    2    0  501 -0.50969431372E+00  0.24817157941E+01  0.29775855750E+02  0.29910419375E+02  0.12700000000E+01 0.  1.
<mgrwt>
<rscale>  0 0.28340080E+01</rscale>
<asrwt>0</asrwt>
<pdfrwt beam="1">0</pdfrwt>
<pdfrwt beam="2">0</pdfrwt>
<totfact> 0.98266872E+11</totfact>
</mgrwt>
</event>
<event>
 4    1  0.1733759E+006  0.2589014E+01  0.7546771E-02  0.2670541E+00
         22   -1    0    0    0    0  0.00000000000E+00  0.00000000000E+00  0.43694400605E+02  0.43694400605E+02  0.00000000000E+00 0.  1.
         22   -1    0    0    0    0 -0.00000000000E+00 -0.00000000000E+00 -0.15418828941E+00  0.15418828941E+00  0.00000000000E+00 0.  1.
          4    1    1    2  501    0  0.22156801529E+01  0.42527252588E+00  0.23331480873E+02  0.23474688389E+02  0.12700000000E+01 0.  1.
         -4    1    1    2    0  501 -0.22156801529E+01 -0.42527252588E+00  0.20208731442E+02  0.20373900505E+02  0.12700000000E+01 0.  1.
<mgrwt>
<rscale>  0 0.25890143E+01</rscale>
<asrwt>0</asrwt>
<pdfrwt beam="1">0</pdfrwt>
<pdfrwt beam="2">0</pdfrwt>
<totfact> 0.20536800E+12</totfact>
</mgrwt>
</event>
<event>
 4    1  0.1733759E+006  0.2141254E+01  0.7546771E-02  0.2891493E+00
         22   -1    0    0    0    0  0.00000000000E+00  0.00000000000E+00  0.36776758597E+01  0.36776758597E+01  0.00000000000E+00 0. -1.
         22   -1    0    0    0    0 -0.00000000000E+00 -0.00000000000E+00 -0.21874300842E+01  0.21874300842E+01  0.00000000000E+00 0. -1.
          4    1    1    2  501    0  0.10238761991E+01 -0.13869914770E+01 -0.11780162483E+01  0.24439087768E+01  0.12700000000E+01 0. -1.
         -4    1    1    2    0  501 -0.10238761991E+01  0.13869914770E+01  0.26682620238E+01  0.34211971671E+01  0.12700000000E+01 0. -1.
<mgrwt>
<rscale>  0 0.21412538E+01</rscale>
<asrwt>0</asrwt>
<pdfrwt beam="1">0</pdfrwt>
<pdfrwt beam="2">0</pdfrwt>
<totfact> 0.21230771E+12</totfact>
</mgrwt>
</event>
<event>
 4    1  0.1733759E+006  0.2268078E+01  0.7546771E-02  0.2820539E+00
         22   -1    0    0    0    0  0.00000000000E+00  0.00000000000E+00  0.23507806522E+02  0.23507806522E+02  0.00000000000E+00 0.  1.
         22   -1    0    0    0    0 -0.00000000000E+00 -0.00000000000E+00 -0.21894662922E+00  0.21894662922E+00  0.00000000000E+00 0.  1.
          4    1    1    2  501    0 -0.22493032027E+00 -0.18656588300E+01  0.11368793443E+02  0.11592827131E+02  0.12700000000E+01 0.  1.
         -4    1    1    2    0  501  0.22493032027E+00  0.18656588300E+01  0.11920066450E+02  0.12133926021E+02  0.12700000000E+01 0.  1.
<mgrwt>
<rscale>  0 0.22680777E+01</rscale>
<asrwt>0</asrwt>
<pdfrwt beam="1">0</pdfrwt>
<pdfrwt beam="2">0</pdfrwt>
<totfact> 0.30720911E+12</totfact>
</mgrwt>
</event>
<event>
 4    1  0.1733759E+006  0.3175966E+01  0.7546771E-02  0.2469337E+00
         22   -1    0    0    0    0  0.00000000000E+00  0.00000000000E+00  0.11677714425E+02  0.11677714425E+02  0.00000000000E+00 0.  1.
         22   -1    0    0    0    0 -0.00000000000E+00 -0.00000000000E+00 -0.12518196467E+01  0.12518196467E+01  0.00000000000E+00 0. -1.
          4    1    1    2  501    0  0.20859356821E+01 -0.20304507685E+01  0.16135441553E+01  0.35623423101E+01  0.12700000000E+01 0. -1.
         -4    1    1    2    0  501 -0.20859356821E+01  0.20304507685E+01  0.88123506235E+01  0.93671917620E+01  0.12700000000E+01 0.  1.
<mgrwt>
<rscale>  0 0.31759657E+01</rscale>
<asrwt>0</asrwt>
<pdfrwt beam="1">0</pdfrwt>
<pdfrwt beam="2">0</pdfrwt>
<totfact> 0.10165187E+12</totfact>
</mgrwt>
</event>
<event>
 4    1  0.1733759E+006  0.2147234E+01  0.7546771E-02  0.2887966E+00
         22   -1    0    0    0    0  0.00000000000E+00  0.00000000000E+00  0.21015753509E+01  0.21015753509E+01  0.00000000000E+00 0.  1.
         22   -1    0    0    0    0 -0.00000000000E+00 -0.00000000000E+00 -0.45120657542E+01  0.45120657542E+01  0.00000000000E+00 0. -1.
          4    1    1    2  501    0  0.10522403591E+01 -0.13749566098E+01 -0.35755081619E+01  0.41707162536E+01  0.12700000000E+01 0. -1.
         -4    1    1    2    0  501 -0.10522403591E+01  0.13749566098E+01  0.11650177587E+01  0.24429248515E+01  0.12700000000E+01 0.  1.
<mgrwt>
<rscale>  0 0.21472344E+01</rscale>
<asrwt>0</asrwt>
<pdfrwt beam="1">0</pdfrwt>
<pdfrwt beam="2">0</pdfrwt>
<totfact> 0.17481308E+12</totfact>
</mgrwt>
</event>
<event>
 4    1  0.1733759E+006  0.2264539E+01  0.7546771E-02  0.2822416E+00
         22   -1    0    0    0    0  0.00000000000E+00  0.00000000000E+00  0.11676766914E+01  0.11676766914E+01  0.00000000000E+00 0.  1.
         22   -1    0    0    0    0 -0.00000000000E+00 -0.00000000000E+00 -0.56215847826E+01  0.56215847826E+01  0.00000000000E+00 0.  1.
          4    1    1    2  501    0 -0.73044989677E+00 -0.17267538084E+01 -0.38147248218E+01  0.44362440456E+01  0.12700000000E+01 0.  1.
         -4    1    1    2    0  501  0.73044989677E+00  0.17267538084E+01 -0.63918326935E+00  0.23530174284E+01  0.12700000000E+01 0.  1.
<mgrwt>
<rscale>  0 0.22645388E+01</rscale>
<asrwt>0</asrwt>
<pdfrwt beam="1">0</pdfrwt>
<pdfrwt beam="2">0</pdfrwt>
<totfact> 0.26512527E+12</totfact>
</mgrwt>
</event>
<event>
 4    1  0.1733759E+006  0.2412592E+01  0.7546771E-02  0.2748366E+00
         22   -1    0    0    0    0  0.00000000000E+00  0.00000000000E+00  0.42407164728E+00  0.42407164728E+00  0.00000000000E+00 0.  1.
         22   -1    0    0    0    0 -0.00000000000E+00 -0.00000000000E+00 -0.85125581995E+02  0.85125581995E+02  0.00000000000E+00 0. -1.
          4    1    1    2  501    0 -0.11813240579E+01 -0.16769532452E+01 -0.81525623399E+02  0.81561313558E+02  0.12700000000E+01 0. -1.
         -4    1    1    2    0  501  0.11813240579E+01  0.16769532452E+01 -0.31758869487E+01  0.39883400842E+01  0.12700000000E+01 0.  1.
<mgrwt>
<rscale>  0 0.24125917E+01</rscale>
<asrwt>0</asrwt>
<pdfrwt beam="1">0</pdfrwt>
<pdfrwt beam="2">0</pdfrwt>
<totfact> 0.27053246E+11</totfact>
</mgrwt>
</event>
<event>
 4    1  0.1733759E+006  0.4372304E+01  0.7546771E-02  0.2211316E+00
         22   -1    0    0    0    0  0.00000000000E+00  0.00000000000E+00  0.51819642450E+00  0.51819642450E+00  0.00000000000E+00 0. -1.
         22   -1    0    0    0    0 -0.00000000000E+00 -0.00000000000E+00 -0.40544402881E+02  0.40544402881E+02  0.00000000000E+00 0.  1.
          4    1    1    2  501    0 -0.19613273826E+01 -0.36955840284E+01 -0.26175784456E+02  0.26538438882E+02  0.12700000000E+01 0.  1.
         -4    1    1    2    0  501  0.19613273826E+01  0.36955840284E+01 -0.13850422001E+02  0.14524160424E+02  0.12700000000E+01 0. -1.
<mgrwt>
<rscale>  0 0.43723045E+01</rscale>
<asrwt>0</asrwt>
<pdfrwt beam="1">0</pdfrwt>
<pdfrwt beam="2">0</pdfrwt>
<totfact> 0.58202709E+11</totfact>
</mgrwt>
</event>
<event>
 4    1  0.1733759E+006  0.3015402E+01  0.7546771E-02  0.2517335E+00
         22   -1    0    0    0    0  0.00000000000E+00  0.00000000000E+00  0.10981931224E+00  0.10981931224E+00  0.00000000000E+00 0.  1.
         22   -1    0    0    0    0 -0.00000000000E+00 -0.00000000000E+00 -0.10915480123E+03  0.10915480123E+03  0.00000000000E+00 0.  1.
          4    1    1    2  501    0 -0.16714011837E+01  0.21647551005E+01 -0.81368977856E+02  0.81424831617E+02  0.12700000000E+01 0.  1.
         -4    1    1    2    0  501  0.16714011837E+01 -0.21647551005E+01 -0.27676004061E+02  0.27839788924E+02  0.12700000000E+01 0.  1.
<mgrwt>
<rscale>  0 0.30154016E+01</rscale>
<asrwt>0</asrwt>
<pdfrwt beam="1">0</pdfrwt>
<pdfrwt beam="2">0</pdfrwt>
<totfact> 0.86323848E+11</totfact>
</mgrwt>
</event>
<event>
 4    1  0.1733759E+006  0.2784235E+01  0.7546771E-02  0.2595100E+00
         22   -1    0    0    0    0  0.00000000000E+00  0.00000000000E+00  0.42288680470E+02  0.42288680470E+02  0.00000000000E+00 0. -1.
         22   -1    0    0    0    0 -0.00000000000E+00 -0.00000000000E+00 -0.28612407601E+00  0.28612407601E+00  0.00000000000E+00 0.  1.
          4    1    1    2  501    0 -0.24664235483E+01 -0.23625625793E+00  0.82406942391E+01  0.86983333852E+01  0.12700000000E+01 0.  1.
         -4    1    1    2    0  501  0.24664235483E+01  0.23625625793E+00  0.33761862155E+02  0.33876471161E+02  0.12700000000E+01 0. -1.
<mgrwt>
<rscale>  0 0.27842346E+01</rscale>
<asrwt>0</asrwt>
<pdfrwt beam="1">0</pdfrwt>
<pdfrwt beam="2">0</pdfrwt>
<totfact> 0.10748323E+12</totfact>
</mgrwt>
</event>
<event>
 4    1  0.1733759E+006  0.2024674E+01  0.7546771E-02  0.2964267E+00
         22   -1    0    0    0    0  0.00000000000E+00  0.00000000000E+00  0.13726718714E+02  0.13726718714E+02  0.00000000000E+00 0. -1.
         22   -1    0    0    0    0 -0.00000000000E+00 -0.00000000000E+00 -0.36799268449E+00  0.36799268449E+00  0.00000000000E+00 0.  1.
          4    1    1    2  501    0 -0.15752916043E+01  0.69714544824E-01  0.36198791693E+01  0.41476293177E+01  0.12700000000E+01 0.  1.
         -4    1    1    2    0  501  0.15752916043E+01 -0.69714544824E-01  0.97388468606E+01  0.99470820812E+01  0.12700000000E+01 0.  1.
<mgrwt>
<rscale>  0 0.20246737E+01</rscale>
<asrwt>0</asrwt>
<pdfrwt beam="1">0</pdfrwt>
<pdfrwt beam="2">0</pdfrwt>
<totfact> 0.33471919E+12</totfact>
</mgrwt>
</event>
<event>
 4    1  0.1733759E+006  0.2914598E+01  0.7546771E-02  0.2549876E+00
         22   -1    0    0    0    0  0.00000000000E+00  0.00000000000E+00  0.34655739566E+01  0.34655739566E+01  0.00000000000E+00 0. -1.
         22   -1    0    0    0    0 -0.00000000000E+00 -0.00000000000E+00 -0.25016383387E+01  0.25016383387E+01  0.00000000000E+00 0. -1.
          4    1    1    2  501    0  0.19059261538E+00  0.26164209959E+01  0.90553593825E+00  0.30520287856E+01  0.12700000000E+01 0. -1.
         -4    1    1    2    0  501 -0.19059261538E+00 -0.26164209959E+01  0.58399679613E-01  0.29151835097E+01  0.12700000000E+01 0. -1.
<mgrwt>
<rscale>  0 0.29145985E+01</rscale>
<asrwt>0</asrwt>
<pdfrwt beam="1">0</pdfrwt>
<pdfrwt beam="2">0</pdfrwt>
<totfact> 0.19478874E+12</totfact>
</mgrwt>
</event>
<event>
 4    1  0.1733759E+006  0.2484834E+01  0.7546771E-02  0.2715254E+00
         22   -1    0    0    0    0  0.00000000000E+00  0.00000000000E+00  0.15988019473E+02  0.15988019473E+02  0.00000000000E+00 0.  1.
         22   -1    0    0    0    0 -0.00000000000E+00 -0.00000000000E+00 -0.10101163181E+01  0.10101163181E+01  0.00000000000E+00 0.  1.
          4    1    1    2  501    0  0.81589435425E+00  0.19737826580E+01  0.80931996247E+00  0.26133121474E+01  0.12700000000E+01 0.  1.
         -4    1    1    2    0  501 -0.81589435425E+00 -0.19737826580E+01  0.14168583192E+02  0.14384823643E+02  0.12700000000E+01 0.  1.
<mgrwt>
<rscale>  0 0.24848343E+01</rscale>
<asrwt>0</asrwt>
<pdfrwt beam="1">0</pdfrwt>
<pdfrwt beam="2">0</pdfrwt>
<totfact> 0.88404505E+11</totfact>
</mgrwt>
</event>
<event>
 4    1  0.1733759E+006  0.2925161E+01  0.7546771E-02  0.2546372E+00
         22   -1    0    0    0    0  0.00000000000E+00  0.00000000000E+00  0.23664266709E+02  0.23664266709E+02  0.00000000000E+00 0.  1.
         22   -1    0    0    0    0 -0.00000000000E+00 -0.00000000000E+00 -0.46838042674E+00  0.46838042674E+00  0.00000000000E+00 0. -1.
          4    1    1    2  501    0  0.97718087307E+00  0.24471990196E+01  0.58361367605E+01  0.65281741542E+01  0.12700000000E+01 0. -1.
         -4    1    1    2    0  501 -0.97718087307E+00 -0.24471990196E+01  0.17359749522E+02  0.17604472981E+02  0.12700000000E+01 0.  1.
<mgrwt>
<rscale>  0 0.29251608E+01</rscale>
<asrwt>0</asrwt>
<pdfrwt beam="1">0</pdfrwt>
<pdfrwt beam="2">0</pdfrwt>
<totfact> 0.12977324E+12</totfact>
</mgrwt>
</event>
<event>
 4    1  0.1733759E+006  0.5864002E+01  0.7546771E-02  0.2032103E+00
         22   -1    0    0    0    0  0.00000000000E+00  0.00000000000E+00  0.91026500151E+02  0.91026500151E+02  0.00000000000E+00 0.  1.
         22   -1    0    0    0    0 -0.00000000000E+00 -0.00000000000E+00 -0.17253850768E+01  0.17253850768E+01  0.00000000000E+00 0. -1.
          4    1    1    2  501    0 -0.56147380508E+01 -0.11172912648E+01  0.36647355699E+01  0.69149699889E+01  0.12700000000E+01 0. -1.
         -4    1    1    2    0  501  0.56147380508E+01  0.11172912648E+01  0.85636379504E+02  0.85836915239E+02  0.12700000000E+01 0.  1.
<mgrwt>
<rscale>  0 0.58640023E+01</rscale>
<asrwt>0</asrwt>
<pdfrwt beam="1">0</pdfrwt>
<pdfrwt beam="2">0</pdfrwt>
<totfact> 0.49829444E+10</totfact>
</mgrwt>
</event>
<event>
 4    1  0.1733759E+006  0.2266104E+01  0.7546771E-02  0.2821585E+00
         22   -1    0    0    0    0  0.00000000000E+00  0.00000000000E+00  0.32185313091E+01  0.32185313091E+01  0.00000000000E+00 0.  1.
         22   -1    0    0    0    0 -0.00000000000E+00 -0.00000000000E+00 -0.19374211272E+01  0.19374211272E+01  0.00000000000E+00 0. -1.
          4    1    1    2  501    0  0.14834301161E+01 -0.11496800185E+01 -0.44241772633E+00  0.23088877189E+01  0.12700000000E+01 0. -1.
         -4    1    1    2    0  501 -0.14834301161E+01  0.11496800185E+01  0.17235279083E+01  0.28470647173E+01  0.12700000000E+01 0.  1.
<mgrwt>
<rscale>  0 0.22661044E+01</rscale>
<asrwt>0</asrwt>
<pdfrwt beam="1">0</pdfrwt>
<pdfrwt beam="2">0</pdfrwt>
<totfact> 0.28570081E+12</totfact>
</mgrwt>
</event>
<event>
 4    1  0.1733759E+006  0.3042556E+01  0.7546771E-02  0.2508901E+00
         22   -1    0    0    0    0  0.00000000000E+00  0.00000000000E+00  0.13113344593E+02  0.13113344593E+02  0.00000000000E+00 0.  1.
         22   -1    0    0    0    0 -0.00000000000E+00 -0.00000000000E+00 -0.86898486138E+00  0.86898486138E+00  0.00000000000E+00 0. -1.
          4    1    1    2  501    0  0.13035831162E+01 -0.24382207169E+01  0.30938327840E+01  0.43392338610E+01  0.12700000000E+01 0.  1.
         -4    1    1    2    0  501 -0.13035831162E+01  0.24382207169E+01  0.91505269479E+01  0.96430955937E+01  0.12700000000E+01 0. -1.
<mgrwt>
<rscale>  0 0.30425564E+01</rscale>
<asrwt>0</asrwt>
<pdfrwt beam="1">0</pdfrwt>
<pdfrwt beam="2">0</pdfrwt>
<totfact> 0.13391010E+12</totfact>
</mgrwt>
</event>
<event>
 4    1  0.1733759E+006  0.2388136E+01  0.7546771E-02  0.2760000E+00
         22   -1    0    0    0    0  0.00000000000E+00  0.00000000000E+00  0.17626539916E+02  0.17626539916E+02  0.00000000000E+00 0.  1.
         22   -1    0    0    0    0 -0.00000000000E+00 -0.00000000000E+00 -0.35950761969E+00  0.35950761969E+00  0.00000000000E+00 0. -1.
          4    1    1    2  501    0  0.12784187393E+01 -0.15671432984E+01  0.57896829296E+01  0.62628764171E+01  0.12700000000E+01 0. -1.
         -4    1    1    2    0  501 -0.12784187393E+01  0.15671432984E+01  0.11477349366E+02  0.11723171118E+02  0.12700000000E+01 0.  1.
<mgrwt>
<rscale>  0 0.23881358E+01</rscale>
<asrwt>0</asrwt>
<pdfrwt beam="1">0</pdfrwt>
<pdfrwt beam="2">0</pdfrwt>
<totfact> 0.25248815E+12</totfact>
</mgrwt>
</event>
<event>
 4    1  0.1733759E+006  0.3042541E+01  0.7546771E-02  0.2508905E+00
         22   -1    0    0    0    0  0.00000000000E+00  0.00000000000E+00  0.23887293425E+01  0.23887293425E+01  0.00000000000E+00 0. -1.
         22   -1    0    0    0    0 -0.00000000000E+00 -0.00000000000E+00 -0.39766902926E+01  0.39766902926E+01  0.00000000000E+00 0.  1.
          4    1    1    2  501    0  0.17837733264E+01 -0.21124177564E+01 -0.13021662211E+01  0.33094852961E+01  0.12700000000E+01 0.  1.
         -4    1    1    2    0  501 -0.17837733264E+01  0.21124177564E+01 -0.28579472903E+00  0.30559343390E+01  0.12700000000E+01 0. -1.
<mgrwt>
<rscale>  0 0.30425411E+01</rscale>
<asrwt>0</asrwt>
<pdfrwt beam="1">0</pdfrwt>
<pdfrwt beam="2">0</pdfrwt>
<totfact> 0.17486962E+12</totfact>
</mgrwt>
</event>
<event>
 4    1  0.1733759E+006  0.2622811E+01  0.7546771E-02  0.2656744E+00
         22   -1    0    0    0    0  0.00000000000E+00  0.00000000000E+00  0.12426089843E+01  0.12426089843E+01  0.00000000000E+00 0. -1.
         22   -1    0    0    0    0 -0.00000000000E+00 -0.00000000000E+00 -0.26669079493E+02  0.26669079493E+02  0.00000000000E+00 0. -1.
          4    1    1    2  501    0  0.93409472640E+00 -0.20961159354E+01 -0.25136423529E+02  0.25272889087E+02  0.12700000000E+01 0. -1.
         -4    1    1    2    0  501 -0.93409472640E+00  0.20961159354E+01 -0.29004697980E+00  0.26387993905E+01  0.12700000000E+01 0. -1.
<mgrwt>
<rscale>  0 0.26228105E+01</rscale>
<asrwt>0</asrwt>
<pdfrwt beam="1">0</pdfrwt>
<pdfrwt beam="2">0</pdfrwt>
<totfact> 0.36806847E+11</totfact>
</mgrwt>
</event>
<event>
 4    1  0.1733759E+006  0.2124489E+01  0.7546771E-02  0.2901481E+00
         22   -1    0    0    0    0  0.00000000000E+00  0.00000000000E+00  0.13442667464E+01  0.13442667464E+01  0.00000000000E+00 0. -1.
         22   -1    0    0    0    0 -0.00000000000E+00 -0.00000000000E+00 -0.42728423601E+01  0.42728423601E+01  0.00000000000E+00 0.  1.
          4    1    1    2  501    0 -0.14470017979E+01 -0.89818590958E+00 -0.27641661350E+01  0.34862682847E+01  0.12700000000E+01 0.  1.
         -4    1    1    2    0  501  0.14470017979E+01  0.89818590958E+00 -0.16440947876E+00  0.21308408218E+01  0.12700000000E+01 0. -1.
<mgrwt>
<rscale>  0 0.21244887E+01</rscale>
<asrwt>0</asrwt>
<pdfrwt beam="1">0</pdfrwt>
<pdfrwt beam="2">0</pdfrwt>
<totfact> 0.31210054E+12</totfact>
</mgrwt>
</event>
<event>
 4    1  0.1733759E+006  0.2119942E+01  0.7546771E-02  0.2904216E+00
         22   -1    0    0    0    0  0.00000000000E+00  0.00000000000E+00  0.28897041911E+01  0.28897041911E+01  0.00000000000E+00 0.  1.
         22   -1    0    0    0    0 -0.00000000000E+00 -0.00000000000E+00 -0.20598459683E+01  0.20598459683E+01  0.00000000000E+00 0. -1.
          4    1    1    2  501    0  0.12874570087E+01  0.11062133248E+01 -0.80996636739E+00  0.22694049849E+01  0.12700000000E+01 0. -1.
         -4    1    1    2    0  501 -0.12874570087E+01 -0.11062133248E+01  0.16398245903E+01  0.26801451745E+01  0.12700000000E+01 0. -1.
<mgrwt>
<rscale>  0 0.21199419E+01</rscale>
<asrwt>0</asrwt>
<pdfrwt beam="1">0</pdfrwt>
<pdfrwt beam="2">0</pdfrwt>
<totfact> 0.30185412E+12</totfact>
</mgrwt>
</event>
<event>
 4    1  0.1733759E+006  0.4194855E+01  0.7546771E-02  0.2241526E+00
         22   -1    0    0    0    0  0.00000000000E+00  0.00000000000E+00  0.88314426891E+01  0.88314426891E+01  0.00000000000E+00 0.  1.
         22   -1    0    0    0    0 -0.00000000000E+00 -0.00000000000E+00 -0.33182032888E+01  0.33182032888E+01  0.00000000000E+00 0.  1.
          4    1    1    2  501    0  0.15929660702E+01 -0.36669290776E+01 -0.10831248140E+01  0.43324322411E+01  0.12700000000E+01 0.  1.
         -4    1    1    2    0  501 -0.15929660702E+01  0.36669290776E+01  0.65963642142E+01  0.78172137368E+01  0.12700000000E+01 0.  1.
<mgrwt>
<rscale>  0 0.41948552E+01</rscale>
<asrwt>0</asrwt>
<pdfrwt beam="1">0</pdfrwt>
<pdfrwt beam="2">0</pdfrwt>
<totfact> 0.46107413E+11</totfact>
</mgrwt>
</event>
<event>
 4    1  0.1733759E+006  0.2051276E+01  0.7546771E-02  0.2946952E+00
         22   -1    0    0    0    0  0.00000000000E+00  0.00000000000E+00  0.55690176439E+00  0.55690176439E+00  0.00000000000E+00 0. -1.
         22   -1    0    0    0    0 -0.00000000000E+00 -0.00000000000E+00 -0.86925311334E+01  0.86925311334E+01  0.00000000000E+00 0.  1.
          4    1    1    2  501    0  0.33544883324E+00 -0.15755345780E+01 -0.23952756370E+01  0.31535821700E+01  0.12700000000E+01 0. -1.
         -4    1    1    2    0  501 -0.33544883324E+00  0.15755345780E+01 -0.57403537321E+01  0.60958507278E+01  0.12700000000E+01 0.  1.
<mgrwt>
<rscale>  0 0.20512765E+01</rscale>
<asrwt>0</asrwt>
<pdfrwt beam="1">0</pdfrwt>
<pdfrwt beam="2">0</pdfrwt>
<totfact> 0.36549061E+12</totfact>
</mgrwt>
</event>
<event>
 4    1  0.1733759E+006  0.2365531E+01  0.7546771E-02  0.2770955E+00
         22   -1    0    0    0    0  0.00000000000E+00  0.00000000000E+00  0.94537964677E+01  0.94537964677E+01  0.00000000000E+00 0. -1.
         22   -1    0    0    0    0 -0.00000000000E+00 -0.00000000000E+00 -0.81757395175E+01  0.81757395175E+01  0.00000000000E+00 0.  1.
          4    1    1    2  501    0 -0.98604997780E+00 -0.17350911318E+01 -0.78506614422E+01  0.81993061215E+01  0.12700000000E+01 0.  1.
         -4    1    1    2    0  501  0.98604997780E+00  0.17350911318E+01  0.91287183924E+01  0.94302298637E+01  0.12700000000E+01 0. -1.
<mgrwt>
<rscale>  0 0.23655308E+01</rscale>
<asrwt>0</asrwt>
<pdfrwt beam="1">0</pdfrwt>
<pdfrwt beam="2">0</pdfrwt>
<totfact> 0.14576579E+11</totfact>
</mgrwt>
</event>
<event>
 4    1  0.1733759E+006  0.2755050E+01  0.7546771E-02  0.2605755E+00
         22   -1    0    0    0    0  0.00000000000E+00  0.00000000000E+00  0.12329040992E+03  0.12329040992E+03  0.00000000000E+00 0. -1.
         22   -1    0    0    0    0 -0.00000000000E+00 -0.00000000000E+00 -0.87115726112E-01  0.87115726112E-01  0.00000000000E+00 0.  1.
          4    1    1    2  501    0  0.22319720452E+01  0.99784833537E+00  0.28192570280E+02  0.28326865684E+02  0.12700000000E+01 0.  1.
         -4    1    1    2    0  501 -0.22319720452E+01 -0.99784833537E+00  0.95010723917E+02  0.95050659965E+02  0.12700000000E+01 0. -1.
<mgrwt>
<rscale>  0 0.27550500E+01</rscale>
<asrwt>0</asrwt>
<pdfrwt beam="1">0</pdfrwt>
<pdfrwt beam="2">0</pdfrwt>
<totfact> 0.93679075E+11</totfact>
</mgrwt>
</event>
<event>
 4    1  0.1733759E+006  0.2240560E+01  0.7546771E-02  0.2835282E+00
         22   -1    0    0    0    0  0.00000000000E+00  0.00000000000E+00  0.82437181518E+01  0.82437181518E+01  0.00000000000E+00 0.  1.
         22   -1    0    0    0    0 -0.00000000000E+00 -0.00000000000E+00 -0.17767636019E+01  0.17767636019E+01  0.00000000000E+00 0. -1.
          4    1    1    2  501    0 -0.86385154979E+00 -0.16312484301E+01 -0.82841422287E+00  0.23888032706E+01  0.12700000000E+01 0. -1.
         -4    1    1    2    0  501  0.86385154979E+00  0.16312484301E+01  0.72953687727E+01  0.76316784832E+01  0.12700000000E+01 0.  1.
<mgrwt>
<rscale>  0 0.22405604E+01</rscale>
<asrwt>0</asrwt>
<pdfrwt beam="1">0</pdfrwt>
<pdfrwt beam="2">0</pdfrwt>
<totfact> 0.10354384E+12</totfact>
</mgrwt>
</event>
<event>
 4    1  0.1733759E+006  0.3040681E+01  0.7546771E-02  0.2509479E+00
         22   -1    0    0    0    0  0.00000000000E+00  0.00000000000E+00  0.41186767008E+01  0.41186767008E+01  0.00000000000E+00 0. -1.
         22   -1    0    0    0    0 -0.00000000000E+00 -0.00000000000E+00 -0.37914265969E+01  0.37914265969E+01  0.00000000000E+00 0. -1.
          4    1    1    2  501    0  0.23482325751E+00 -0.27527615233E+01 -0.23624081420E+01  0.38505467398E+01  0.12700000000E+01 0. -1.
         -4    1    1    2    0  501 -0.23482325751E+00  0.27527615233E+01  0.26896582460E+01  0.40595565579E+01  0.12700000000E+01 0. -1.
<mgrwt>
<rscale>  0 0.30406805E+01</rscale>
<asrwt>0</asrwt>
<pdfrwt beam="1">0</pdfrwt>
<pdfrwt beam="2">0</pdfrwt>
<totfact> 0.97805800E+11</totfact>
</mgrwt>
</event>
<event>
 4    1  0.1733759E+006  0.4003857E+01  0.7546771E-02  0.2276558E+00
         22   -1    0    0    0    0  0.00000000000E+00  0.00000000000E+00  0.16659274775E+01  0.16659274775E+01  0.00000000000E+00 0. -1.
         22   -1    0    0    0    0 -0.00000000000E+00 -0.00000000000E+00 -0.99866062228E+01  0.99866062228E+01  0.00000000000E+00 0. -1.
          4    1    1    2  501    0 -0.37310971263E+00 -0.37787251339E+01 -0.30482980490E+01  0.50321958915E+01  0.12700000000E+01 0. -1.
         -4    1    1    2    0  501  0.37310971263E+00  0.37787251339E+01 -0.52723806963E+01  0.66203378087E+01  0.12700000000E+01 0. -1.
<mgrwt>
<rscale>  0 0.40038575E+01</rscale>
<asrwt>0</asrwt>
<pdfrwt beam="1">0</pdfrwt>
<pdfrwt beam="2">0</pdfrwt>
<totfact> 0.88494664E+11</totfact>
</mgrwt>
</event>
<event>
 4    1  0.1733759E+006  0.2748509E+01  0.7546771E-02  0.2608171E+00
         22   -1    0    0    0    0  0.00000000000E+00  0.00000000000E+00  0.37183150039E+00  0.37183150039E+00  0.00000000000E+00 0. -1.
         22   -1    0    0    0    0 -0.00000000000E+00 -0.00000000000E+00 -0.20714635524E+02  0.20714635524E+02  0.00000000000E+00 0.  1.
          4    1    1    2  501    0  0.24245434580E+01  0.25098228929E+00 -0.87096703992E+01  0.91330532437E+01  0.12700000000E+01 0. -1.
         -4    1    1    2    0  501 -0.24245434580E+01 -0.25098228929E+00 -0.11633133624E+02  0.11953413780E+02  0.12700000000E+01 0.  1.
<mgrwt>
<rscale>  0 0.27485092E+01</rscale>
<asrwt>0</asrwt>
<pdfrwt beam="1">0</pdfrwt>
<pdfrwt beam="2">0</pdfrwt>
<totfact> 0.19886597E+12</totfact>
</mgrwt>
</event>
<event>
 4    1  0.1733759E+006  0.2395850E+01  0.7546771E-02  0.2756307E+00
         22   -1    0    0    0    0  0.00000000000E+00  0.00000000000E+00  0.89024991681E+00  0.89024991681E+00  0.00000000000E+00 0. -1.
         22   -1    0    0    0    0 -0.00000000000E+00 -0.00000000000E+00 -0.64553427213E+01  0.64553427213E+01  0.00000000000E+00 0. -1.
          4    1    1    2  501    0 -0.13820074155E+00  0.20268441570E+01 -0.29086211522E+01  0.37683117824E+01  0.12700000000E+01 0. -1.
         -4    1    1    2    0  501  0.13820074155E+00 -0.20268441570E+01 -0.26564716522E+01  0.35772808557E+01  0.12700000000E+01 0. -1.
<mgrwt>
<rscale>  0 0.23958499E+01</rscale>
<asrwt>0</asrwt>
<pdfrwt beam="1">0</pdfrwt>
<pdfrwt beam="2">0</pdfrwt>
<totfact> 0.30657527E+12</totfact>
</mgrwt>
</event>
<event>
 4    1  0.1733759E+006  0.3582737E+01  0.7546771E-02  0.2364938E+00
         22   -1    0    0    0    0  0.00000000000E+00  0.00000000000E+00  0.43766599297E+02  0.43766599297E+02  0.00000000000E+00 0.  1.
         22   -1    0    0    0    0 -0.00000000000E+00 -0.00000000000E+00 -0.49335428640E+00  0.49335428640E+00  0.00000000000E+00 0. -1.
          4    1    1    2  501    0 -0.22746188681E+01  0.24595151425E+01  0.75439378410E+01  0.83514671693E+01  0.12700000000E+01 0. -1.
         -4    1    1    2    0  501  0.22746188681E+01 -0.24595151425E+01  0.35729307170E+02  0.35908486414E+02  0.12700000000E+01 0.  1.
<mgrwt>
<rscale>  0 0.35827372E+01</rscale>
<asrwt>0</asrwt>
<pdfrwt beam="1">0</pdfrwt>
<pdfrwt beam="2">0</pdfrwt>
<totfact> 0.55690560E+11</totfact>
</mgrwt>
</event>
<event>
 4    1  0.1733759E+006  0.2238051E+01  0.7546771E-02  0.2836643E+00
         22   -1    0    0    0    0  0.00000000000E+00  0.00000000000E+00  0.30401544110E+00  0.30401544110E+00  0.00000000000E+00 0.  1.
         22   -1    0    0    0    0 -0.00000000000E+00 -0.00000000000E+00 -0.16524029637E+02  0.16524029637E+02  0.00000000000E+00 0.  1.
          4    1    1    2  501    0 -0.18370469556E+01 -0.14571391191E+00 -0.85649438987E+01  0.88525215644E+01  0.12700000000E+01 0.  1.
         -4    1    1    2    0  501  0.18370469556E+01  0.14571391191E+00 -0.76550702968E+01  0.79755235133E+01  0.12700000000E+01 0.  1.
<mgrwt>
<rscale>  0 0.22380514E+01</rscale>
<asrwt>0</asrwt>
<pdfrwt beam="1">0</pdfrwt>
<pdfrwt beam="2">0</pdfrwt>
<totfact> 0.33013763E+12</totfact>
</mgrwt>
</event>
<event>
 4    1  0.1733759E+006  0.4246796E+01  0.7546771E-02  0.2232463E+00
         22   -1    0    0    0    0  0.00000000000E+00  0.00000000000E+00  0.24915378424E+00  0.24915378424E+00  0.00000000000E+00 0.  1.
         22   -1    0    0    0    0 -0.00000000000E+00 -0.00000000000E+00 -0.73006509313E+02  0.73006509313E+02  0.00000000000E+00 0. -1.
          4    1    1    2  501    0  0.27893673355E+01  0.29396954290E+01 -0.39755105659E+02  0.39981291941E+02  0.12700000000E+01 0. -1.
         -4    1    1    2    0  501 -0.27893673355E+01 -0.29396954290E+01 -0.33002249870E+02  0.33274371156E+02  0.12700000000E+01 0.  1.
<mgrwt>
<rscale>  0 0.42467964E+01</rscale>
<asrwt>0</asrwt>
<pdfrwt beam="1">0</pdfrwt>
<pdfrwt beam="2">0</pdfrwt>
<totfact> 0.60679648E+11</totfact>
</mgrwt>
</event>
<event>
 4    1  0.1733759E+006  0.2087089E+01  0.7546771E-02  0.2924322E+00
         22   -1    0    0    0    0  0.00000000000E+00  0.00000000000E+00  0.42484837832E+01  0.42484837832E+01  0.00000000000E+00 0. -1.
         22   -1    0    0    0    0 -0.00000000000E+00 -0.00000000000E+00 -0.23075298630E+01  0.23075298630E+01  0.00000000000E+00 0. -1.
          4    1    1    2  501    0  0.10340007781E+01 -0.12937856682E+01 -0.14730682899E+01  0.25545780769E+01  0.12700000000E+01 0. -1.
         -4    1    1    2    0  501 -0.10340007781E+01  0.12937856682E+01  0.34140222101E+01  0.40014355693E+01  0.12700000000E+01 0. -1.
<mgrwt>
<rscale>  0 0.20870886E+01</rscale>
<asrwt>0</asrwt>
<pdfrwt beam="1">0</pdfrwt>
<pdfrwt beam="2">0</pdfrwt>
<totfact> 0.16838746E+12</totfact>
</mgrwt>
</event>
<event>
 4    1  0.1733759E+006  0.3683934E+01  0.7546771E-02  0.2342115E+00
         22   -1    0    0    0    0  0.00000000000E+00  0.00000000000E+00  0.85618882799E+00  0.85618882799E+00  0.00000000000E+00 0.  1.
         22   -1    0    0    0    0 -0.00000000000E+00 -0.00000000000E+00 -0.16368006575E+02  0.16368006575E+02  0.00000000000E+00 0. -1.
          4    1    1    2  501    0 -0.32835724085E+01  0.10847213715E+01 -0.92866394824E+01  0.99906476813E+01  0.12700000000E+01 0. -1.
         -4    1    1    2    0  501  0.32835724085E+01 -0.10847213715E+01 -0.62251782643E+01  0.72335477214E+01  0.12700000000E+01 0.  1.
<mgrwt>
<rscale>  0 0.36839338E+01</rscale>
<asrwt>0</asrwt>
<pdfrwt beam="1">0</pdfrwt>
<pdfrwt beam="2">0</pdfrwt>
<totfact> 0.10370122E+12</totfact>
</mgrwt>
</event>
<event>
 4    1  0.1733759E+006  0.2043459E+01  0.7546771E-02  0.2951994E+00
         22   -1    0    0    0    0  0.00000000000E+00  0.00000000000E+00  0.23513362557E+02  0.23513362557E+02  0.00000000000E+00 0.  1.
         22   -1    0    0    0    0 -0.00000000000E+00 -0.00000000000E+00 -0.18131777821E+00  0.18131777821E+00  0.00000000000E+00 0. -1.
          4    1    1    2  501    0 -0.13261167031E+01 -0.89679380938E+00  0.99671572112E+01  0.10174475295E+02  0.12700000000E+01 0. -1.
         -4    1    1    2    0  501  0.13261167031E+01  0.89679380938E+00  0.13364887568E+02  0.13520205041E+02  0.12700000000E+01 0.  1.
<mgrwt>
<rscale>  0 0.20434590E+01</rscale>
<asrwt>0</asrwt>
<pdfrwt beam="1">0</pdfrwt>
<pdfrwt beam="2">0</pdfrwt>
<totfact> 0.37899802E+12</totfact>
</mgrwt>
</event>
<event>
 4    1  0.1733759E+006  0.4082789E+01  0.7546771E-02  0.2261743E+00
         22   -1    0    0    0    0  0.00000000000E+00  0.00000000000E+00  0.27224643171E+01  0.27224643171E+01  0.00000000000E+00 0.  1.
         22   -1    0    0    0    0 -0.00000000000E+00 -0.00000000000E+00 -0.91705975756E+01  0.91705975756E+01  0.00000000000E+00 0.  1.
          4    1    1    2  501    0 -0.37815367480E+01  0.86962172743E+00 -0.66521897988E+01  0.78051772078E+01  0.12700000000E+01 0.  1.
         -4    1    1    2    0  501  0.37815367480E+01 -0.86962172743E+00  0.20405654028E+00  0.40878846849E+01  0.12700000000E+01 0.  1.
<mgrwt>
<rscale>  0 0.40827885E+01</rscale>
<asrwt>0</asrwt>
<pdfrwt beam="1">0</pdfrwt>
<pdfrwt beam="2">0</pdfrwt>
<totfact> 0.55517413E+11</totfact>
</mgrwt>
</event>
<event>
 4    1  0.1733759E+006  0.3311960E+01  0.7546771E-02  0.2431931E+00
         22   -1    0    0    0    0  0.00000000000E+00  0.00000000000E+00  0.29405565349E+01  0.29405565349E+01  0.00000000000E+00 0.  1.
         22   -1    0    0    0    0 -0.00000000000E+00 -0.00000000000E+00 -0.56911248111E+01  0.56911248111E+01  0.00000000000E+00 0. -1.
          4    1    1    2  501    0  0.13629484316E+01 -0.27383481585E+01 -0.39085963671E+01  0.51231049789E+01  0.12700000000E+01 0. -1.
         -4    1    1    2    0  501 -0.13629484316E+01  0.27383481585E+01  0.11580280908E+01  0.35085763671E+01  0.12700000000E+01 0.  1.
<mgrwt>
<rscale>  0 0.33119600E+01</rscale>
<asrwt>0</asrwt>
<pdfrwt beam="1">0</pdfrwt>
<pdfrwt beam="2">0</pdfrwt>
<totfact> 0.89848277E+11</totfact>
</mgrwt>
</event>
<event>
 4    1  0.1733759E+006  0.2435602E+01  0.7546771E-02  0.2737620E+00
         22   -1    0    0    0    0  0.00000000000E+00  0.00000000000E+00  0.10390750100E+01  0.10390750100E+01  0.00000000000E+00 0.  1.
         22   -1    0    0    0    0 -0.00000000000E+00 -0.00000000000E+00 -0.57091387356E+01  0.57091387356E+01  0.00000000000E+00 0.  1.
          4    1    1    2  501    0 -0.19449813574E+01 -0.73232698285E+00 -0.23235999859E+01  0.33661955061E+01  0.12700000000E+01 0.  1.
         -4    1    1    2    0  501  0.19449813574E+01  0.73232698285E+00 -0.23464637398E+01  0.33820182396E+01  0.12700000000E+01 0.  1.
<mgrwt>
<rscale>  0 0.24356016E+01</rscale>
<asrwt>0</asrwt>
<pdfrwt beam="1">0</pdfrwt>
<pdfrwt beam="2">0</pdfrwt>
<totfact> 0.29747774E+12</totfact>
</mgrwt>
</event>
<event>
 4    1  0.1733759E+006  0.9033526E+01  0.7546771E-02  0.1821839E+00
         22   -1    0    0    0    0  0.00000000000E+00  0.00000000000E+00  0.32806793224E+01  0.32806793224E+01  0.00000000000E+00 0.  1.
         22   -1    0    0    0    0 -0.00000000000E+00 -0.00000000000E+00 -0.24878324206E+02  0.24878324206E+02  0.00000000000E+00 0. -1.
          4    1    1    2  501    0 -0.87299487601E+01  0.19441393077E+01 -0.10619628372E+02  0.13942061890E+02  0.12700000000E+01 0. -1.
         -4    1    1    2    0  501  0.87299487601E+01 -0.19441393077E+01 -0.10978016512E+02  0.14216941638E+02  0.12700000000E+01 0.  1.
<mgrwt>
<rscale>  0 0.90335255E+01</rscale>
<asrwt>0</asrwt>
<pdfrwt beam="1">0</pdfrwt>
<pdfrwt beam="2">0</pdfrwt>
<totfact> 0.13056702E+11</totfact>
</mgrwt>
</event>
<event>
 4    1  0.1733759E+006  0.2066479E+01  0.7546771E-02  0.2937252E+00
         22   -1    0    0    0    0  0.00000000000E+00  0.00000000000E+00  0.16627832957E+01  0.16627832957E+01  0.00000000000E+00 0.  1.
         22   -1    0    0    0    0 -0.00000000000E+00 -0.00000000000E+00 -0.54231166212E+01  0.54231166212E+01  0.00000000000E+00 0.  1.
          4    1    1    2  501    0  0.80447640556E+00  0.14178339774E+01 -0.44507896424E+01  0.49071237926E+01  0.12700000000E+01 0.  1.
         -4    1    1    2    0  501 -0.80447640556E+00 -0.14178339774E+01  0.69045631694E+00  0.21787761244E+01  0.12700000000E+01 0.  1.
<mgrwt>
<rscale>  0 0.20664790E+01</rscale>
<asrwt>0</asrwt>
<pdfrwt beam="1">0</pdfrwt>
<pdfrwt beam="2">0</pdfrwt>
<totfact> 0.18432239E+12</totfact>
</mgrwt>
</event>
<event>
 4    1  0.1733759E+006  0.2471517E+01  0.7546771E-02  0.2721222E+00
         22   -1    0    0    0    0  0.00000000000E+00  0.00000000000E+00  0.29712992162E+02  0.29712992162E+02  0.00000000000E+00 0. -1.
         22   -1    0    0    0    0 -0.00000000000E+00 -0.00000000000E+00 -0.21116990417E+00  0.21116990417E+00  0.00000000000E+00 0.  1.
          4    1    1    2  501    0 -0.71774896168E+00  0.19950766075E+01  0.12316568607E+02  0.12562096023E+02  0.12700000000E+01 0.  1.
         -4    1    1    2    0  501  0.71774896168E+00 -0.19950766075E+01  0.17185253651E+02  0.17362066043E+02  0.12700000000E+01 0. -1.
<mgrwt>
<rscale>  0 0.24715166E+01</rscale>
<asrwt>0</asrwt>
<pdfrwt beam="1">0</pdfrwt>
<pdfrwt beam="2">0</pdfrwt>
<totfact> 0.23782572E+12</totfact>
</mgrwt>
</event>
<event>
 4    1  0.1733759E+006  0.5266751E+01  0.7546771E-02  0.2092448E+00
         22   -1    0    0    0    0  0.00000000000E+00  0.00000000000E+00  0.51858967640E+01  0.51858967640E+01  0.00000000000E+00 0. -1.
         22   -1    0    0    0    0 -0.00000000000E+00 -0.00000000000E+00 -0.58711707280E+01  0.58711707280E+01  0.00000000000E+00 0. -1.
          4    1    1    2  501    0  0.21788455488E+01  0.46236782278E+01 -0.19915945359E+01  0.56307297107E+01  0.12700000000E+01 0. -1.
         -4    1    1    2    0  501 -0.21788455488E+01 -0.46236782278E+01  0.13063205719E+01  0.54263377813E+01  0.12700000000E+01 0. -1.
<mgrwt>
<rscale>  0 0.52667512E+01</rscale>
<asrwt>0</asrwt>
<pdfrwt beam="1">0</pdfrwt>
<pdfrwt beam="2">0</pdfrwt>
<totfact> 0.44425613E+11</totfact>
</mgrwt>
</event>
<event>
 4    1  0.1733759E+006  0.2353395E+01  0.7546771E-02  0.2776918E+00
         22   -1    0    0    0    0  0.00000000000E+00  0.00000000000E+00  0.30920693339E+01  0.30920693339E+01  0.00000000000E+00 0. -1.
         22   -1    0    0    0    0 -0.00000000000E+00 -0.00000000000E+00 -0.87701987501E+01  0.87701987501E+01  0.00000000000E+00 0. -1.
          4    1    1    2  501    0 -0.72810802145E-01  0.19799657308E+01 -0.81299710460E+01  0.84637400076E+01  0.12700000000E+01 0. -1.
         -4    1    1    2    0  501  0.72810802145E-01 -0.19799657308E+01  0.24518416298E+01  0.33985280763E+01  0.12700000000E+01 0. -1.
<mgrwt>
<rscale>  0 0.23533945E+01</rscale>
<asrwt>0</asrwt>
<pdfrwt beam="1">0</pdfrwt>
<pdfrwt beam="2">0</pdfrwt>
<totfact> 0.50496344E+11</totfact>
</mgrwt>
</event>
<event>
 4    1  0.1733759E+006  0.2226117E+01  0.7546771E-02  0.2843158E+00
         22   -1    0    0    0    0  0.00000000000E+00  0.00000000000E+00  0.98762340049E-01  0.98762340049E-01  0.00000000000E+00 0. -1.
         22   -1    0    0    0    0 -0.00000000000E+00 -0.00000000000E+00 -0.57755017064E+02  0.57755017064E+02  0.00000000000E+00 0.  1.
          4    1    1    2  501    0  0.64354453158E+00  0.17113001048E+01 -0.39306281066E+02  0.39369268838E+02  0.12700000000E+01 0.  1.
         -4    1    1    2    0  501 -0.64354453158E+00 -0.17113001048E+01 -0.18349973658E+02  0.18484510566E+02  0.12700000000E+01 0. -1.
<mgrwt>
<rscale>  0 0.22261172E+01</rscale>
<asrwt>0</asrwt>
<pdfrwt beam="1">0</pdfrwt>
<pdfrwt beam="2">0</pdfrwt>
<totfact> 0.23294949E+12</totfact>
</mgrwt>
</event>
<event>
 4    1  0.1733759E+006  0.2324573E+01  0.7546771E-02  0.2791315E+00
         22   -1    0    0    0    0  0.00000000000E+00  0.00000000000E+00  0.36356896374E+02  0.36356896374E+02  0.00000000000E+00 0.  1.
         22   -1    0    0    0    0 -0.00000000000E+00 -0.00000000000E+00 -0.72334137541E+00  0.72334137541E+00  0.00000000000E+00 0. -1.
          4    1    1    2  501    0  0.19043918630E+01 -0.40500774223E+00  0.12908193104E+01  0.26589197301E+01  0.12700000000E+01 0. -1.
         -4    1    1    2    0  501 -0.19043918630E+01  0.40500774223E+00  0.34342735688E+02  0.34421318020E+02  0.12700000000E+01 0.  1.
<mgrwt>
<rscale>  0 0.23245730E+01</rscale>
<asrwt>0</asrwt>
<pdfrwt beam="1">0</pdfrwt>
<pdfrwt beam="2">0</pdfrwt>
<totfact> 0.45932351E+11</totfact>
</mgrwt>
</event>
<event>
 4    1  0.1733759E+006  0.3012330E+01  0.7546771E-02  0.2518298E+00
         22   -1    0    0    0    0  0.00000000000E+00  0.00000000000E+00  0.99389063350E+01  0.99389063350E+01  0.00000000000E+00 0.  1.
         22   -1    0    0    0    0 -0.00000000000E+00 -0.00000000000E+00 -0.12809229913E+01  0.12809229913E+01  0.00000000000E+00 0. -1.
          4    1    1    2  501    0 -0.14431959888E+01  0.23191412639E+01  0.73356119996E+01  0.79300273816E+01  0.12700000000E+01 0.  1.
         -4    1    1    2    0  501  0.14431959888E+01 -0.23191412639E+01  0.13223713440E+01  0.32898019447E+01  0.12700000000E+01 0. -1.
<mgrwt>
<rscale>  0 0.30123298E+01</rscale>
<asrwt>0</asrwt>
<pdfrwt beam="1">0</pdfrwt>
<pdfrwt beam="2">0</pdfrwt>
<totfact> 0.12041761E+12</totfact>
</mgrwt>
</event>
<event>
 4    1  0.1733759E+006  0.2612682E+01  0.7546771E-02  0.2660844E+00
         22   -1    0    0    0    0  0.00000000000E+00  0.00000000000E+00  0.20652075423E+02  0.20652075423E+02  0.00000000000E+00 0.  1.
         22   -1    0    0    0    0 -0.00000000000E+00 -0.00000000000E+00 -0.49623564576E+00  0.49623564576E+00  0.00000000000E+00 0. -1.
          4    1    1    2  501    0  0.74589189554E+00  0.21579741549E+01  0.39674888419E+01  0.47504815423E+01  0.12700000000E+01 0. -1.
         -4    1    1    2    0  501 -0.74589189554E+00 -0.21579741549E+01  0.16188350935E+02  0.16397829526E+02  0.12700000000E+01 0.  1.
<mgrwt>
<rscale>  0 0.26126820E+01</rscale>
<asrwt>0</asrwt>
<pdfrwt beam="1">0</pdfrwt>
<pdfrwt beam="2">0</pdfrwt>
<totfact> 0.14420067E+12</totfact>
</mgrwt>
</event>
<event>
 4    1  0.1733759E+006  0.2016180E+01  0.7546771E-02  0.2969889E+00
         22   -1    0    0    0    0  0.00000000000E+00  0.00000000000E+00  0.53316305123E+01  0.53316305123E+01  0.00000000000E+00 0. -1.
         22   -1    0    0    0    0 -0.00000000000E+00 -0.00000000000E+00 -0.11707504398E+01  0.11707504398E+01  0.00000000000E+00 0. -1.
          4    1    1    2  501    0 -0.13734527960E+01  0.75213591771E+00  0.16039149263E+00  0.20225494932E+01  0.12700000000E+01 0. -1.
         -4    1    1    2    0  501  0.13734527960E+01 -0.75213591771E+00  0.40004885799E+01  0.44798314588E+01  0.12700000000E+01 0. -1.
<mgrwt>
<rscale>  0 0.20161798E+01</rscale>
<asrwt>0</asrwt>
<pdfrwt beam="1">0</pdfrwt>
<pdfrwt beam="2">0</pdfrwt>
<totfact> 0.28146133E+12</totfact>
</mgrwt>
</event>
<event>
 4    1  0.1733759E+006  0.2230745E+01  0.7546771E-02  0.2840624E+00
         22   -1    0    0    0    0  0.00000000000E+00  0.00000000000E+00  0.46373390668E+02  0.46373390668E+02  0.00000000000E+00 0. -1.
         22   -1    0    0    0    0 -0.00000000000E+00 -0.00000000000E+00 -0.10929103482E+00  0.10929103482E+00  0.00000000000E+00 0.  1.
          4    1    1    2  501    0 -0.15505042250E+01 -0.97941715451E+00  0.20001156300E+02  0.20125170177E+02  0.12700000000E+01 0. -1.
         -4    1    1    2    0  501  0.15505042250E+01  0.97941715451E+00  0.26262943333E+02  0.26357511526E+02  0.12700000000E+01 0.  1.
<mgrwt>
<rscale>  0 0.22307446E+01</rscale>
<asrwt>0</asrwt>
<pdfrwt beam="1">0</pdfrwt>
<pdfrwt beam="2">0</pdfrwt>
<totfact> 0.27836307E+12</totfact>
</mgrwt>
</event>
<event>
 4    1  0.1733759E+006  0.3982145E+01  0.7546771E-02  0.2280720E+00
         22   -1    0    0    0    0  0.00000000000E+00  0.00000000000E+00  0.43493815569E+00  0.43493815569E+00  0.00000000000E+00 0.  1.
         22   -1    0    0    0    0 -0.00000000000E+00 -0.00000000000E+00 -0.36824868457E+02  0.36824868457E+02  0.00000000000E+00 0. -1.
          4    1    1    2  501    0 -0.50471295444E+00  0.37403003165E+01 -0.16338422111E+02  0.16816703562E+02  0.12700000000E+01 0.  1.
         -4    1    1    2    0  501  0.50471295444E+00 -0.37403003165E+01 -0.20051508191E+02  0.20443103051E+02  0.12700000000E+01 0. -1.
<mgrwt>
<rscale>  0 0.39821454E+01</rscale>
<asrwt>0</asrwt>
<pdfrwt beam="1">0</pdfrwt>
<pdfrwt beam="2">0</pdfrwt>
<totfact> 0.80331510E+11</totfact>
</mgrwt>
</event>
<event>
 4    1  0.1733759E+006  0.2020742E+01  0.7546771E-02  0.2966863E+00
         22   -1    0    0    0    0  0.00000000000E+00  0.00000000000E+00  0.16651048803E+01  0.16651048803E+01  0.00000000000E+00 0.  1.
         22   -1    0    0    0    0 -0.00000000000E+00 -0.00000000000E+00 -0.34153073368E+01  0.34153073368E+01  0.00000000000E+00 0. -1.
          4    1    1    2  501    0 -0.10198526493E+01  0.11959936234E+01 -0.22239406875E+01  0.30048814211E+01  0.12700000000E+01 0.  1.
         -4    1    1    2    0  501  0.10198526493E+01 -0.11959936234E+01  0.47373823102E+00  0.20755307959E+01  0.12700000000E+01 0. -1.
<mgrwt>
<rscale>  0 0.20207425E+01</rscale>
<asrwt>0</asrwt>
<pdfrwt beam="1">0</pdfrwt>
<pdfrwt beam="2">0</pdfrwt>
<totfact> 0.31744797E+12</totfact>
</mgrwt>
</event>
<event>
 4    1  0.1733759E+006  0.2691235E+01  0.7546771E-02  0.2629787E+00
         22   -1    0    0    0    0  0.00000000000E+00  0.00000000000E+00  0.91477324976E+01  0.91477324976E+01  0.00000000000E+00 0. -1.
         22   -1    0    0    0    0 -0.00000000000E+00 -0.00000000000E+00 -0.94742922017E+00  0.94742922017E+00  0.00000000000E+00 0. -1.
          4    1    1    2  501    0  0.36104252181E+00 -0.23451004324E+01  0.20540812745E+01  0.33855572101E+01  0.12700000000E+01 0. -1.
         -4    1    1    2    0  501 -0.36104252181E+00  0.23451004324E+01  0.61462220029E+01  0.67096045077E+01  0.12700000000E+01 0. -1.
<mgrwt>
<rscale>  0 0.26912354E+01</rscale>
<asrwt>0</asrwt>
<pdfrwt beam="1">0</pdfrwt>
<pdfrwt beam="2">0</pdfrwt>
<totfact> 0.18795956E+12</totfact>
</mgrwt>
</event>
<event>
 4    1  0.1733759E+006  0.2270244E+01  0.7546771E-02  0.2819393E+00
         22   -1    0    0    0    0  0.00000000000E+00  0.00000000000E+00  0.10344540935E+01  0.10344540935E+01  0.00000000000E+00 0.  1.
         22   -1    0    0    0    0 -0.00000000000E+00 -0.00000000000E+00 -0.10684901458E+02  0.10684901458E+02  0.00000000000E+00 0. -1.
          4    1    1    2  501    0  0.12765878330E+01  0.13825451242E+01 -0.91060071294E+01  0.93847415178E+01  0.12700000000E+01 0. -1.
         -4    1    1    2    0  501 -0.12765878330E+01 -0.13825451242E+01 -0.54444023491E+00  0.23346140335E+01  0.12700000000E+01 0.  1.
<mgrwt>
<rscale>  0 0.22702439E+01</rscale>
<asrwt>0</asrwt>
<pdfrwt beam="1">0</pdfrwt>
<pdfrwt beam="2">0</pdfrwt>
<totfact> 0.14087106E+12</totfact>
</mgrwt>
</event>
<event>
 4    1  0.1733759E+006  0.2409979E+01  0.7546771E-02  0.2749599E+00
         22   -1    0    0    0    0  0.00000000000E+00  0.00000000000E+00  0.12637292047E+02  0.12637292047E+02  0.00000000000E+00 0. -1.
         22   -1    0    0    0    0 -0.00000000000E+00 -0.00000000000E+00 -0.53245825326E+00  0.53245825326E+00  0.00000000000E+00 0.  1.
          4    1    1    2  501    0  0.24639323395E+00  0.20333200805E+01  0.36164715118E+01  0.43459022505E+01  0.12700000000E+01 0.  1.
         -4    1    1    2    0  501 -0.24639323395E+00 -0.20333200805E+01  0.84883622822E+01  0.88238480500E+01  0.12700000000E+01 0. -1.
<mgrwt>
<rscale>  0 0.24099793E+01</rscale>
<asrwt>0</asrwt>
<pdfrwt beam="1">0</pdfrwt>
<pdfrwt beam="2">0</pdfrwt>
<totfact> 0.24423367E+12</totfact>
</mgrwt>
</event>
<event>
 4    1  0.1733759E+006  0.2002130E+01  0.7546771E-02  0.2979292E+00
         22   -1    0    0    0    0  0.00000000000E+00  0.00000000000E+00  0.24716930612E+01  0.24716930612E+01  0.00000000000E+00 0. -1.
         22   -1    0    0    0    0 -0.00000000000E+00 -0.00000000000E+00 -0.18489656822E+01  0.18489656822E+01  0.00000000000E+00 0. -1.
          4    1    1    2  501    0  0.15101298143E+01  0.33931387729E+00 -0.44590913048E+00  0.20511852466E+01  0.12700000000E+01 0. -1.
         -4    1    1    2    0  501 -0.15101298143E+01 -0.33931387729E+00  0.10686365095E+01  0.22694734968E+01  0.12700000000E+01 0. -1.
<mgrwt>
<rscale>  0 0.20021304E+01</rscale>
<asrwt>0</asrwt>
<pdfrwt beam="1">0</pdfrwt>
<pdfrwt beam="2">0</pdfrwt>
<totfact> 0.41029846E+12</totfact>
</mgrwt>
</event>
<event>
 4    1  0.1733759E+006  0.2195384E+01  0.7546771E-02  0.2860248E+00
         22   -1    0    0    0    0  0.00000000000E+00  0.00000000000E+00  0.19307822446E+01  0.19307822446E+01  0.00000000000E+00 0.  1.
         22   -1    0    0    0    0 -0.00000000000E+00 -0.00000000000E+00 -0.35056724793E+01  0.35056724793E+01  0.00000000000E+00 0. -1.
          4    1    1    2  501    0 -0.59433664778E+00 -0.16892522481E+01 -0.22460486508E+01  0.31407712031E+01  0.12700000000E+01 0.  1.
         -4    1    1    2    0  501  0.59433664778E+00  0.16892522481E+01  0.67115841612E+00  0.22956835209E+01  0.12700000000E+01 0.  1.
<mgrwt>
<rscale>  0 0.21953836E+01</rscale>
<asrwt>0</asrwt>
<pdfrwt beam="1">0</pdfrwt>
<pdfrwt beam="2">0</pdfrwt>
<totfact> 0.25950944E+12</totfact>
</mgrwt>
</event>
<event>
 4    1  0.1733759E+006  0.2112809E+01  0.7546771E-02  0.2908530E+00
         22   -1    0    0    0    0  0.00000000000E+00  0.00000000000E+00  0.10738545471E+01  0.10738545471E+01  0.00000000000E+00 0. -1.
         22   -1    0    0    0    0 -0.00000000000E+00 -0.00000000000E+00 -0.64034661081E+01  0.64034661081E+01  0.00000000000E+00 0.  1.
          4    1    1    2  501    0 -0.15395483551E+01  0.69343424843E+00 -0.48792419798E+01  0.53170445261E+01  0.12700000000E+01 0.  1.
         -4    1    1    2    0  501  0.15395483551E+01 -0.69343424843E+00 -0.45036958119E+00  0.21602761292E+01  0.12700000000E+01 0. -1.
<mgrwt>
<rscale>  0 0.21128086E+01</rscale>
<asrwt>0</asrwt>
<pdfrwt beam="1">0</pdfrwt>
<pdfrwt beam="2">0</pdfrwt>
<totfact> 0.24988370E+12</totfact>
</mgrwt>
</event>
<event>
 4    1  0.1733759E+006  0.2049788E+01  0.7546771E-02  0.2947909E+00
         22   -1    0    0    0    0  0.00000000000E+00  0.00000000000E+00  0.10790016527E+02  0.10790016527E+02  0.00000000000E+00 0. -1.
         22   -1    0    0    0    0 -0.00000000000E+00 -0.00000000000E+00 -0.84816762176E+00  0.84816762176E+00  0.00000000000E+00 0. -1.
          4    1    1    2  501    0  0.16052549794E+01 -0.10902177665E+00  0.69124835099E+00  0.21632044701E+01  0.12700000000E+01 0. -1.
         -4    1    1    2    0  501 -0.16052549794E+01  0.10902177665E+00  0.92506005545E+01  0.94749796789E+01  0.12700000000E+01 0. -1.
<mgrwt>
<rscale>  0 0.20497876E+01</rscale>
<asrwt>0</asrwt>
<pdfrwt beam="1">0</pdfrwt>
<pdfrwt beam="2">0</pdfrwt>
<totfact> 0.17458010E+12</totfact>
</mgrwt>
</event>
<event>
 4    1  0.1733759E+006  0.2681117E+01  0.7546771E-02  0.2633694E+00
         22   -1    0    0    0    0  0.00000000000E+00  0.00000000000E+00  0.32192398915E+02  0.32192398915E+02  0.00000000000E+00 0.  1.
         22   -1    0    0    0    0 -0.00000000000E+00 -0.00000000000E+00 -0.53329827467E+00  0.53329827467E+00  0.00000000000E+00 0. -1.
          4    1    1    2  501    0  0.12198160524E+01 -0.20217658722E+01  0.33540706716E+01  0.42939700178E+01  0.12700000000E+01 0. -1.
         -4    1    1    2    0  501 -0.12198160524E+01  0.20217658722E+01  0.28305029969E+02  0.28431727172E+02  0.12700000000E+01 0.  1.
<mgrwt>
<rscale>  0 0.26811170E+01</rscale>
<asrwt>0</asrwt>
<pdfrwt beam="1">0</pdfrwt>
<pdfrwt beam="2">0</pdfrwt>
<totfact> 0.75855106E+11</totfact>
</mgrwt>
</event>
<event>
 4    1  0.1733759E+006  0.2414151E+01  0.7546771E-02  0.2747632E+00
         22   -1    0    0    0    0  0.00000000000E+00  0.00000000000E+00  0.42958202123E+01  0.42958202123E+01  0.00000000000E+00 0.  1.
         22   -1    0    0    0    0 -0.00000000000E+00 -0.00000000000E+00 -0.13712628018E+01  0.13712628018E+01  0.00000000000E+00 0. -1.
          4    1    1    2  501    0 -0.88378148958E+00 -0.18531468494E+01  0.11702346804E+01  0.26828291362E+01  0.12700000000E+01 0. -1.
         -4    1    1    2    0  501  0.88378148958E+00  0.18531468494E+01  0.17543227301E+01  0.29842538780E+01  0.12700000000E+01 0.  1.
<mgrwt>
<rscale>  0 0.24141506E+01</rscale>
<asrwt>0</asrwt>
<pdfrwt beam="1">0</pdfrwt>
<pdfrwt beam="2">0</pdfrwt>
<totfact> 0.30314649E+12</totfact>
</mgrwt>
</event>
<event>
 4    1  0.1733759E+006  0.2588700E+01  0.7546771E-02  0.2670671E+00
         22   -1    0    0    0    0  0.00000000000E+00  0.00000000000E+00  0.38074759523E+00  0.38074759523E+00  0.00000000000E+00 0. -1.
         22   -1    0    0    0    0 -0.00000000000E+00 -0.00000000000E+00 -0.32310879909E+02  0.32310879909E+02  0.00000000000E+00 0.  1.
          4    1    1    2  501    0  0.10779168511E+01 -0.19815558060E+01 -0.26994248548E+02  0.27118090324E+02  0.12700000000E+01 0.  1.
         -4    1    1    2    0  501 -0.10779168511E+01  0.19815558060E+01 -0.49358837657E+01  0.55735371802E+01  0.12700000000E+01 0. -1.
<mgrwt>
<rscale>  0 0.25887001E+01</rscale>
<asrwt>0</asrwt>
<pdfrwt beam="1">0</pdfrwt>
<pdfrwt beam="2">0</pdfrwt>
<totfact> 0.11039191E+12</totfact>
</mgrwt>
</event>
<event>
 4    1  0.1733759E+006  0.2105385E+01  0.7546771E-02  0.2913050E+00
         22   -1    0    0    0    0  0.00000000000E+00  0.00000000000E+00  0.16748922246E+02  0.16748922246E+02  0.00000000000E+00 0.  1.
         22   -1    0    0    0    0 -0.00000000000E+00 -0.00000000000E+00 -0.29576975156E+00  0.29576975156E+00  0.00000000000E+00 0.  1.
          4    1    1    2  501    0  0.29354869162E-01 -0.16789537960E+01  0.54622997745E+01  0.58540043033E+01  0.12700000000E+01 0.  1.
         -4    1    1    2    0  501 -0.29354869162E-01  0.16789537960E+01  0.10990852720E+02  0.11190687694E+02  0.12700000000E+01 0.  1.
<mgrwt>
<rscale>  0 0.21053854E+01</rscale>
<asrwt>0</asrwt>
<pdfrwt beam="1">0</pdfrwt>
<pdfrwt beam="2">0</pdfrwt>
<totfact> 0.33482121E+12</totfact>
</mgrwt>
</event>
<event>
 4    1  0.1733759E+006  0.2724729E+01  0.7546771E-02  0.2617045E+00
         22   -1    0    0    0    0  0.00000000000E+00  0.00000000000E+00  0.71172261421E+00  0.71172261421E+00  0.00000000000E+00 0. -1.
         22   -1    0    0    0    0 -0.00000000000E+00 -0.00000000000E+00 -0.13533240773E+02  0.13533240773E+02  0.00000000000E+00 0.  1.
          4    1    1    2  501    0 -0.62742249009E+00  0.23275716989E+01 -0.98207359117E+01  0.10191712459E+02  0.12700000000E+01 0. -1.
         -4    1    1    2    0  501  0.62742249009E+00 -0.23275716989E+01 -0.30007822470E+01  0.40532509284E+01  0.12700000000E+01 0.  1.
<mgrwt>
<rscale>  0 0.27247292E+01</rscale>
<asrwt>0</asrwt>
<pdfrwt beam="1">0</pdfrwt>
<pdfrwt beam="2">0</pdfrwt>
<totfact> 0.16167860E+12</totfact>
</mgrwt>
</event>
<event>
 4    1  0.1733759E+006  0.2523419E+01  0.7546771E-02  0.2698294E+00
         22   -1    0    0    0    0  0.00000000000E+00  0.00000000000E+00  0.66680923572E+00  0.66680923572E+00  0.00000000000E+00 0. -1.
         22   -1    0    0    0    0 -0.00000000000E+00 -0.00000000000E+00 -0.18406169564E+02  0.18406169564E+02  0.00000000000E+00 0.  1.
          4    1    1    2  501    0  0.12486060150E+01 -0.17876599498E+01 -0.15484893739E+02  0.15689154827E+02  0.12700000000E+01 0.  1.
         -4    1    1    2    0  501 -0.12486060150E+01  0.17876599498E+01 -0.22544665895E+01  0.33838239730E+01  0.12700000000E+01 0. -1.
<mgrwt>
<rscale>  0 0.25234193E+01</rscale>
<asrwt>0</asrwt>
<pdfrwt beam="1">0</pdfrwt>
<pdfrwt beam="2">0</pdfrwt>
<totfact> 0.11913308E+12</totfact>
</mgrwt>
</event>
<event>
 4    1  0.1733759E+006  0.2881976E+01  0.7546771E-02  0.2560846E+00
         22   -1    0    0    0    0  0.00000000000E+00  0.00000000000E+00  0.18385533687E+01  0.18385533687E+01  0.00000000000E+00 0.  1.
         22   -1    0    0    0    0 -0.00000000000E+00 -0.00000000000E+00 -0.45193115795E+01  0.45193115795E+01  0.00000000000E+00 0. -1.
          4    1    1    2  501    0 -0.16966041079E+01 -0.19530536375E+01 -0.12778816604E+01  0.31525807758E+01  0.12700000000E+01 0.  1.
         -4    1    1    2    0  501  0.16966041079E+01  0.19530536375E+01 -0.14028765504E+01  0.32052841724E+01  0.12700000000E+01 0. -1.
<mgrwt>
<rscale>  0 0.28819757E+01</rscale>
<asrwt>0</asrwt>
<pdfrwt beam="1">0</pdfrwt>
<pdfrwt beam="2">0</pdfrwt>
<totfact> 0.20368951E+12</totfact>
</mgrwt>
</event>
<event>
 4    1  0.1733759E+006  0.3720863E+01  0.7546771E-02  0.2334054E+00
         22   -1    0    0    0    0  0.00000000000E+00  0.00000000000E+00  0.19166005445E+01  0.19166005445E+01  0.00000000000E+00 0.  1.
         22   -1    0    0    0    0 -0.00000000000E+00 -0.00000000000E+00 -0.10276047618E+02  0.10276047618E+02  0.00000000000E+00 0. -1.
          4    1    1    2  501    0 -0.25598817402E+01 -0.23830491789E+01 -0.75023138341E+01  0.83743376322E+01  0.12700000000E+01 0.  1.
         -4    1    1    2    0  501  0.25598817402E+01  0.23830491789E+01 -0.85713323905E+00  0.38183105299E+01  0.12700000000E+01 0. -1.
<mgrwt>
<rscale>  0 0.37208625E+01</rscale>
<asrwt>0</asrwt>
<pdfrwt beam="1">0</pdfrwt>
<pdfrwt beam="2">0</pdfrwt>
<totfact> 0.72709455E+11</totfact>
</mgrwt>
</event>
<event>
 4    1  0.1733759E+006  0.2197549E+01  0.7546771E-02  0.2859029E+00
         22   -1    0    0    0    0  0.00000000000E+00  0.00000000000E+00  0.22508095224E+02  0.22508095224E+02  0.00000000000E+00 0. -1.
         22   -1    0    0    0    0 -0.00000000000E+00 -0.00000000000E+00 -0.42616284062E+00  0.42616284062E+00  0.00000000000E+00 0.  1.
          4    1    1    2  501    0 -0.12760561175E+01 -0.12601603082E+01  0.29605665565E+01  0.36870282821E+01  0.12700000000E+01 0.  1.
         -4    1    1    2    0  501  0.12760561175E+01  0.12601603082E+01  0.19121365827E+02  0.19247229783E+02  0.12700000000E+01 0. -1.
<mgrwt>
<rscale>  0 0.21975494E+01</rscale>
<asrwt>0</asrwt>
<pdfrwt beam="1">0</pdfrwt>
<pdfrwt beam="2">0</pdfrwt>
<totfact> 0.15371956E+12</totfact>
</mgrwt>
</event>
<event>
 4    1  0.1733759E+006  0.2270495E+01  0.7546771E-02  0.2819261E+00
         22   -1    0    0    0    0  0.00000000000E+00  0.00000000000E+00  0.32419361084E+01  0.32419361084E+01  0.00000000000E+00 0.  1.
         22   -1    0    0    0    0 -0.00000000000E+00 -0.00000000000E+00 -0.18114404388E+01  0.18114404388E+01  0.00000000000E+00 0. -1.
          4    1    1    2  501    0 -0.17408115117E+01 -0.71541739570E+00 -0.16788572479E+00  0.22766933008E+01  0.12700000000E+01 0. -1.
         -4    1    1    2    0  501  0.17408115117E+01  0.71541739570E+00  0.15983813944E+01  0.27766832465E+01  0.12700000000E+01 0.  1.
<mgrwt>
<rscale>  0 0.22704948E+01</rscale>
<asrwt>0</asrwt>
<pdfrwt beam="1">0</pdfrwt>
<pdfrwt beam="2">0</pdfrwt>
<totfact> 0.30618222E+12</totfact>
</mgrwt>
</event>
<event>
 4    1  0.1733759E+006  0.2811270E+01  0.7546771E-02  0.2585409E+00
         22   -1    0    0    0    0  0.00000000000E+00  0.00000000000E+00  0.49578197484E+01  0.49578197484E+01  0.00000000000E+00 0.  1.
         22   -1    0    0    0    0 -0.00000000000E+00 -0.00000000000E+00 -0.13662173877E+02  0.13662173877E+02  0.00000000000E+00 0. -1.
          4    1    1    2  501    0  0.24698327259E+01  0.43619228533E+00 -0.13102189937E+02  0.13400396208E+02  0.12700000000E+01 0. -1.
         -4    1    1    2    0  501 -0.24698327259E+01 -0.43619228533E+00  0.43978358079E+01  0.52195974172E+01  0.12700000000E+01 0.  1.
<mgrwt>
<rscale>  0 0.28112697E+01</rscale>
<asrwt>0</asrwt>
<pdfrwt beam="1">0</pdfrwt>
<pdfrwt beam="2">0</pdfrwt>
<totfact> 0.16911378E+11</totfact>
</mgrwt>
</event>
<event>
 4    1  0.1733759E+006  0.2223053E+01  0.7546771E-02  0.2844842E+00
         22   -1    0    0    0    0  0.00000000000E+00  0.00000000000E+00  0.26227259766E+01  0.26227259766E+01  0.00000000000E+00 0. -1.
         22   -1    0    0    0    0 -0.00000000000E+00 -0.00000000000E+00 -0.20259213127E+01  0.20259213127E+01  0.00000000000E+00 0.  1.
          4    1    1    2  501    0 -0.32056017883E+00  0.17961924816E+01 -0.31616693863E+00  0.22454237445E+01  0.12700000000E+01 0.  1.
         -4    1    1    2    0  501  0.32056017883E+00 -0.17961924816E+01  0.91297160258E+00  0.24032235448E+01  0.12700000000E+01 0. -1.
<mgrwt>
<rscale>  0 0.22230534E+01</rscale>
<asrwt>0</asrwt>
<pdfrwt beam="1">0</pdfrwt>
<pdfrwt beam="2">0</pdfrwt>
<totfact> 0.34453968E+12</totfact>
</mgrwt>
</event>
<event>
 4    1  0.1733759E+006  0.2273140E+01  0.7546771E-02  0.2817865E+00
         22   -1    0    0    0    0  0.00000000000E+00  0.00000000000E+00  0.19838750579E+01  0.19838750579E+01  0.00000000000E+00 0.  1.
         22   -1    0    0    0    0 -0.00000000000E+00 -0.00000000000E+00 -0.26050461616E+01  0.26050461616E+01  0.00000000000E+00 0. -1.
          4    1    1    2  501    0  0.18142294290E+01  0.51267536948E+00 -0.27994486308E+00  0.22903129878E+01  0.12700000000E+01 0. -1.
         -4    1    1    2    0  501 -0.18142294290E+01 -0.51267536948E+00 -0.34122624060E+00  0.22986082317E+01  0.12700000000E+01 0.  1.
<mgrwt>
<rscale>  0 0.22731398E+01</rscale>
<asrwt>0</asrwt>
<pdfrwt beam="1">0</pdfrwt>
<pdfrwt beam="2">0</pdfrwt>
<totfact> 0.35580020E+12</totfact>
</mgrwt>
</event>
<event>
 4    1  0.1733759E+006  0.2159020E+01  0.7546771E-02  0.2881072E+00
         22   -1    0    0    0    0  0.00000000000E+00  0.00000000000E+00  0.41254298692E+01  0.41254298692E+01  0.00000000000E+00 0.  1.
         22   -1    0    0    0    0 -0.00000000000E+00 -0.00000000000E+00 -0.11437578145E+01  0.11437578145E+01  0.00000000000E+00 0.  1.
          4    1    1    2  501    0  0.15594614043E+01  0.78520424044E+00  0.12009461539E+01  0.24705540341E+01  0.12700000000E+01 0.  1.
         -4    1    1    2    0  501 -0.15594614043E+01 -0.78520424044E+00  0.17807259008E+01  0.27986336496E+01  0.12700000000E+01 0.  1.
<mgrwt>
<rscale>  0 0.21590196E+01</rscale>
<asrwt>0</asrwt>
<pdfrwt beam="1">0</pdfrwt>
<pdfrwt beam="2">0</pdfrwt>
<totfact> 0.39146093E+12</totfact>
</mgrwt>
</event>
<event>
 4    1  0.1733759E+006  0.2096755E+01  0.7546771E-02  0.2918343E+00
         22   -1    0    0    0    0  0.00000000000E+00  0.00000000000E+00  0.17308066719E+02  0.17308066719E+02  0.00000000000E+00 0. -1.
         22   -1    0    0    0    0 -0.00000000000E+00 -0.00000000000E+00 -0.25423705757E+00  0.25423705757E+00  0.00000000000E+00 0.  1.
          4    1    1    2  501    0  0.25809051744E+00 -0.16482932266E+01  0.87906937980E+01  0.90372937723E+01  0.12700000000E+01 0. -1.
         -4    1    1    2    0  501 -0.25809051744E+00  0.16482932266E+01  0.82631358639E+01  0.85250100048E+01  0.12700000000E+01 0. -1.
<mgrwt>
<rscale>  0 0.20967549E+01</rscale>
<asrwt>0</asrwt>
<pdfrwt beam="1">0</pdfrwt>
<pdfrwt beam="2">0</pdfrwt>
<totfact> 0.38085412E+12</totfact>
</mgrwt>
</event>
<event>
 4    1  0.1733759E+006  0.2767012E+01  0.7546771E-02  0.2601363E+00
         22   -1    0    0    0    0  0.00000000000E+00  0.00000000000E+00  0.15374483004E+01  0.15374483004E+01  0.00000000000E+00 0. -1.
         22   -1    0    0    0    0 -0.00000000000E+00 -0.00000000000E+00 -0.50095285453E+01  0.50095285453E+01  0.00000000000E+00 0. -1.
          4    1    1    2  501    0  0.19872649841E+01  0.14471460817E+01 -0.19877472515E+01  0.34069771110E+01  0.12700000000E+01 0. -1.
         -4    1    1    2    0  501 -0.19872649841E+01 -0.14471460817E+01 -0.14843329933E+01  0.31399997347E+01  0.12700000000E+01 0. -1.
<mgrwt>
<rscale>  0 0.27670117E+01</rscale>
<asrwt>0</asrwt>
<pdfrwt beam="1">0</pdfrwt>
<pdfrwt beam="2">0</pdfrwt>
<totfact> 0.22165046E+12</totfact>
</mgrwt>
</event>
<event>
 4    1  0.1733759E+006  0.2784088E+01  0.7546771E-02  0.2595153E+00
         22   -1    0    0    0    0  0.00000000000E+00  0.00000000000E+00  0.59303444793E+02  0.59303444793E+02  0.00000000000E+00 0.  1.
         22   -1    0    0    0    0 -0.00000000000E+00 -0.00000000000E+00 -0.11145228458E+01  0.11145228458E+01  0.00000000000E+00 0. -1.
          4    1    1    2  501    0 -0.19203667927E+01  0.15653869229E+01  0.71204285930E+00  0.28736996834E+01  0.12700000000E+01 0. -1.
         -4    1    1    2    0  501  0.19203667927E+01 -0.15653869229E+01  0.57476879088E+02  0.57544267955E+02  0.12700000000E+01 0.  1.
<mgrwt>
<rscale>  0 0.27840878E+01</rscale>
<asrwt>0</asrwt>
<pdfrwt beam="1">0</pdfrwt>
<pdfrwt beam="2">0</pdfrwt>
<totfact> 0.14767377E+11</totfact>
</mgrwt>
</event>
<event>
 4    1  0.1733759E+006  0.2964769E+01  0.7546771E-02  0.2533432E+00
         22   -1    0    0    0    0  0.00000000000E+00  0.00000000000E+00  0.70515996518E+01  0.70515996518E+01  0.00000000000E+00 0. -1.
         22   -1    0    0    0    0 -0.00000000000E+00 -0.00000000000E+00 -0.25567047642E+01  0.25567047642E+01  0.00000000000E+00 0.  1.
          4    1    1    2  501    0  0.26775545298E+01  0.87505670040E-01 -0.11916556640E+01  0.31952932140E+01  0.12700000000E+01 0.  1.
         -4    1    1    2    0  501 -0.26775545298E+01 -0.87505670040E-01  0.56865505516E+01  0.64130112021E+01  0.12700000000E+01 0. -1.
<mgrwt>
<rscale>  0 0.29647690E+01</rscale>
<asrwt>0</asrwt>
<pdfrwt beam="1">0</pdfrwt>
<pdfrwt beam="2">0</pdfrwt>
<totfact> 0.81907135E+11</totfact>
</mgrwt>
</event>
<event>
 4    1  0.1733759E+006  0.2123185E+01  0.7546771E-02  0.2902265E+00
         22   -1    0    0    0    0  0.00000000000E+00  0.00000000000E+00  0.17938823238E+00  0.17938823238E+00  0.00000000000E+00 0. -1.
         22   -1    0    0    0    0 -0.00000000000E+00 -0.00000000000E+00 -0.50304381275E+02  0.50304381275E+02  0.00000000000E+00 0. -1.
          4    1    1    2  501    0 -0.12680063214E+01  0.11345363436E+01 -0.42919300676E+02  0.42971784735E+02  0.12700000000E+01 0. -1.
         -4    1    1    2    0  501  0.12680063214E+01 -0.11345363436E+01 -0.72056923658E+01  0.75119847722E+01  0.12700000000E+01 0. -1.
<mgrwt>
<rscale>  0 0.21231846E+01</rscale>
<asrwt>0</asrwt>
<pdfrwt beam="1">0</pdfrwt>
<pdfrwt beam="2">0</pdfrwt>
<totfact> 0.14421548E+12</totfact>
</mgrwt>
</event>
<event>
 4    1  0.1733759E+006  0.2367213E+01  0.7546771E-02  0.2770133E+00
         22   -1    0    0    0    0  0.00000000000E+00  0.00000000000E+00  0.51776760081E+01  0.51776760081E+01  0.00000000000E+00 0. -1.
         22   -1    0    0    0    0 -0.00000000000E+00 -0.00000000000E+00 -0.19245693859E+01  0.19245693859E+01  0.00000000000E+00 0.  1.
          4    1    1    2  501    0  0.17231690047E+01 -0.10106864539E+01 -0.72269752121E+00  0.24750737835E+01  0.12700000000E+01 0.  1.
         -4    1    1    2    0  501 -0.17231690047E+01  0.10106864539E+01  0.39758041434E+01  0.46271716105E+01  0.12700000000E+01 0. -1.
<mgrwt>
<rscale>  0 0.23672132E+01</rscale>
<asrwt>0</asrwt>
<pdfrwt beam="1">0</pdfrwt>
<pdfrwt beam="2">0</pdfrwt>
<totfact> 0.16448871E+12</totfact>
</mgrwt>
</event>
<event>
 4    1  0.1733759E+006  0.2005354E+01  0.7546771E-02  0.2977123E+00
         22   -1    0    0    0    0  0.00000000000E+00  0.00000000000E+00  0.35428924267E+00  0.35428924267E+00  0.00000000000E+00 0.  1.
         22   -1    0    0    0    0 -0.00000000000E+00 -0.00000000000E+00 -0.11495811266E+02  0.11495811266E+02  0.00000000000E+00 0. -1.
          4    1    1    2  501    0  0.90250214812E+00  0.12625501353E+01 -0.49051479636E+01  0.52992376354E+01  0.12700000000E+01 0.  1.
         -4    1    1    2    0  501 -0.90250214812E+00 -0.12625501353E+01 -0.62363740600E+01  0.65508628735E+01  0.12700000000E+01 0. -1.
<mgrwt>
<rscale>  0 0.20053536E+01</rscale>
<asrwt>0</asrwt>
<pdfrwt beam="1">0</pdfrwt>
<pdfrwt beam="2">0</pdfrwt>
<totfact> 0.43380889E+12</totfact>
</mgrwt>
</event>
<event>
 4    1  0.1733759E+006  0.3936552E+01  0.7546771E-02  0.2289589E+00
         22   -1    0    0    0    0  0.00000000000E+00  0.00000000000E+00  0.18481080732E+00  0.18481080732E+00  0.00000000000E+00 0. -1.
         22   -1    0    0    0    0 -0.00000000000E+00 -0.00000000000E+00 -0.84234520241E+02  0.84234520241E+02  0.00000000000E+00 0.  1.
          4    1    1    2  501    0  0.25603287118E-01  0.37259743952E+01 -0.44875608928E+02  0.45047937992E+02  0.12700000000E+01 0.  1.
         -4    1    1    2    0  501 -0.25603287118E-01 -0.37259743952E+01 -0.39174100506E+02  0.39371393056E+02  0.12700000000E+01 0. -1.
<mgrwt>
<rscale>  0 0.39365519E+01</rscale>
<asrwt>0</asrwt>
<pdfrwt beam="1">0</pdfrwt>
<pdfrwt beam="2">0</pdfrwt>
<totfact> 0.69610643E+11</totfact>
</mgrwt>
</event>
<event>
 4    1  0.1733759E+006  0.2023613E+01  0.7546771E-02  0.2964966E+00
         22   -1    0    0    0    0  0.00000000000E+00  0.00000000000E+00  0.30146472669E-01  0.30146472669E-01  0.00000000000E+00 0.  1.
         22   -1    0    0    0    0 -0.00000000000E+00 -0.00000000000E+00 -0.26897459029E+03  0.26897459029E+03  0.00000000000E+00 0.  1.
          4    1    1    2  501    0 -0.40994700884E-01  0.15749381809E+01 -0.39843187038E+02  0.39894543038E+02  0.12700000000E+01 0.  1.
         -4    1    1    2    0  501  0.40994700884E-01 -0.15749381809E+01 -0.22910125678E+03  0.22911019372E+03  0.12700000000E+01 0.  1.
<mgrwt>
<rscale>  0 0.20236133E+01</rscale>
<asrwt>0</asrwt>
<pdfrwt beam="1">0</pdfrwt>
<pdfrwt beam="2">0</pdfrwt>
<totfact> 0.90574625E+11</totfact>
</mgrwt>
</event>
<event>
 4    1  0.1733759E+006  0.2167868E+01  0.7546771E-02  0.2875943E+00
         22   -1    0    0    0    0  0.00000000000E+00  0.00000000000E+00  0.12779258141E+03  0.12779258141E+03  0.00000000000E+00 0. -1.
         22   -1    0    0    0    0 -0.00000000000E+00 -0.00000000000E+00 -0.11027860519E+00  0.11027860519E+00  0.00000000000E+00 0.  1.
          4    1    1    2  501    0  0.14459523369E+01 -0.99798412649E+00  0.11630737244E+02  0.11831048107E+02  0.12700000000E+01 0.  1.
         -4    1    1    2    0  501 -0.14459523369E+01  0.99798412649E+00  0.11605156556E+03  0.11607181191E+03  0.12700000000E+01 0. -1.
<mgrwt>
<rscale>  0 0.21678677E+01</rscale>
<asrwt>0</asrwt>
<pdfrwt beam="1">0</pdfrwt>
<pdfrwt beam="2">0</pdfrwt>
<totfact> 0.68503679E+11</totfact>
</mgrwt>
</event>
<event>
 4    1  0.1733759E+006  0.3204721E+01  0.7546771E-02  0.2461194E+00
         22   -1    0    0    0    0  0.00000000000E+00  0.00000000000E+00  0.71105883262E+02  0.71105883262E+02  0.00000000000E+00 0.  1.
         22   -1    0    0    0    0 -0.00000000000E+00 -0.00000000000E+00 -0.26881043401E+00  0.26881043401E+00  0.00000000000E+00 0.  1.
          4    1    1    2  501    0  0.21698935074E+01 -0.19871842918E+01  0.11143661105E+02  0.11595318972E+02  0.12700000000E+01 0.  1.
         -4    1    1    2    0  501 -0.21698935074E+01  0.19871842918E+01  0.59693411723E+02  0.59779374724E+02  0.12700000000E+01 0.  1.
<mgrwt>
<rscale>  0 0.32047214E+01</rscale>
<asrwt>0</asrwt>
<pdfrwt beam="1">0</pdfrwt>
<pdfrwt beam="2">0</pdfrwt>
<totfact> 0.57772396E+11</totfact>
</mgrwt>
</event>
<event>
 4    1  0.1733759E+006  0.2693033E+01  0.7546771E-02  0.2629096E+00
         22   -1    0    0    0    0  0.00000000000E+00  0.00000000000E+00  0.78866849357E+00  0.78866849357E+00  0.00000000000E+00 0. -1.
         22   -1    0    0    0    0 -0.00000000000E+00 -0.00000000000E+00 -0.37487569460E+02  0.37487569460E+02  0.00000000000E+00 0. -1.
          4    1    1    2  501    0  0.22246346102E+01 -0.83098013964E+00 -0.34975373557E+02  0.35078899393E+02  0.12700000000E+01 0. -1.
         -4    1    1    2    0  501 -0.22246346102E+01  0.83098013964E+00 -0.17235274089E+01  0.31973385605E+01  0.12700000000E+01 0. -1.
<mgrwt>
<rscale>  0 0.26930331E+01</rscale>
<asrwt>0</asrwt>
<pdfrwt beam="1">0</pdfrwt>
<pdfrwt beam="2">0</pdfrwt>
<totfact> 0.40020959E+11</totfact>
</mgrwt>
</event>
<event>
 4    1  0.1733759E+006  0.5000524E+01  0.7546771E-02  0.2122941E+00
         22   -1    0    0    0    0  0.00000000000E+00  0.00000000000E+00  0.31369486905E+01  0.31369486905E+01  0.00000000000E+00 0.  1.
         22   -1    0    0    0    0 -0.00000000000E+00 -0.00000000000E+00 -0.13889698893E+02  0.13889698893E+02  0.00000000000E+00 0. -1.
          4    1    1    2  501    0 -0.18496494734E+01  0.44689080891E+01  0.18085722224E+00  0.50037937626E+01  0.12700000000E+01 0.  1.
         -4    1    1    2    0  501  0.18496494734E+01 -0.44689080891E+01 -0.10933607425E+02  0.12022853821E+02  0.12700000000E+01 0. -1.
<mgrwt>
<rscale>  0 0.50005242E+01</rscale>
<asrwt>0</asrwt>
<pdfrwt beam="1">0</pdfrwt>
<pdfrwt beam="2">0</pdfrwt>
<totfact> 0.28394747E+11</totfact>
</mgrwt>
</event>
<event>
 4    1  0.1733759E+006  0.3201902E+01  0.7546771E-02  0.2461986E+00
         22   -1    0    0    0    0  0.00000000000E+00  0.00000000000E+00  0.75822492303E+01  0.75822492303E+01  0.00000000000E+00 0. -1.
         22   -1    0    0    0    0 -0.00000000000E+00 -0.00000000000E+00 -0.21872131999E+01  0.21872131999E+01  0.00000000000E+00 0.  1.
          4    1    1    2  501    0 -0.26876397590E+00  0.29269513824E+01 -0.32076712977E+00  0.32179294618E+01  0.12700000000E+01 0.  1.
         -4    1    1    2    0  501  0.26876397590E+00 -0.29269513824E+01  0.57158031602E+01  0.65515329684E+01  0.12700000000E+01 0. -1.
<mgrwt>
<rscale>  0 0.32019023E+01</rscale>
<asrwt>0</asrwt>
<pdfrwt beam="1">0</pdfrwt>
<pdfrwt beam="2">0</pdfrwt>
<totfact> 0.90018513E+11</totfact>
</mgrwt>
</event>
<event>
 4    1  0.1733759E+006  0.2425556E+01  0.7546771E-02  0.2742288E+00
         22   -1    0    0    0    0  0.00000000000E+00  0.00000000000E+00  0.58098515628E+02  0.58098515628E+02  0.00000000000E+00 0.  1.
         22   -1    0    0    0    0 -0.00000000000E+00 -0.00000000000E+00 -0.10163549226E+00  0.10163549226E+00  0.00000000000E+00 0. -1.
          4    1    1    2  501    0  0.18652921260E+01  0.88944331056E+00  0.27240583277E+02  0.27348358294E+02  0.12700000000E+01 0.  1.
         -4    1    1    2    0  501 -0.18652921260E+01 -0.88944331056E+00  0.30756296859E+02  0.30851792827E+02  0.12700000000E+01 0. -1.
<mgrwt>
<rscale>  0 0.24255565E+01</rscale>
<asrwt>0</asrwt>
<pdfrwt beam="1">0</pdfrwt>
<pdfrwt beam="2">0</pdfrwt>
<totfact> 0.22390093E+12</totfact>
</mgrwt>
</event>
<event>
 4    1  0.1733759E+006  0.2157009E+01  0.7546771E-02  0.2882243E+00
         22   -1    0    0    0    0  0.00000000000E+00  0.00000000000E+00  0.21757635811E+01  0.21757635811E+01  0.00000000000E+00 0.  1.
         22   -1    0    0    0    0 -0.00000000000E+00 -0.00000000000E+00 -0.56904512006E+01  0.56904512006E+01  0.00000000000E+00 0.  1.
          4    1    1    2  501    0  0.99711121132E+00 -0.14302303277E+01 -0.48647714900E+01  0.53215309083E+01  0.12700000000E+01 0.  1.
         -4    1    1    2    0  501 -0.99711121132E+00  0.14302303277E+01  0.13500838705E+01  0.25446838734E+01  0.12700000000E+01 0.  1.
<mgrwt>
<rscale>  0 0.21570094E+01</rscale>
<asrwt>0</asrwt>
<pdfrwt beam="1">0</pdfrwt>
<pdfrwt beam="2">0</pdfrwt>
<totfact> 0.12756993E+12</totfact>
</mgrwt>
</event>
<event>
 4    1  0.1733759E+006  0.5289244E+01  0.7546771E-02  0.2089983E+00
         22   -1    0    0    0    0  0.00000000000E+00  0.00000000000E+00  0.27050153146E+01  0.27050153146E+01  0.00000000000E+00 0.  1.
         22   -1    0    0    0    0 -0.00000000000E+00 -0.00000000000E+00 -0.21716340613E+02  0.21716340613E+02  0.00000000000E+00 0. -1.
          4    1    1    2  501    0 -0.40548429557E+01 -0.31498341365E+01 -0.18342638229E+02  0.19090010049E+02  0.12700000000E+01 0. -1.
         -4    1    1    2    0  501  0.40548429557E+01  0.31498341365E+01 -0.66868707014E+00  0.53313458789E+01  0.12700000000E+01 0.  1.
<mgrwt>
<rscale>  0 0.52892444E+01</rscale>
<asrwt>0</asrwt>
<pdfrwt beam="1">0</pdfrwt>
<pdfrwt beam="2">0</pdfrwt>
<totfact> 0.19403615E+11</totfact>
</mgrwt>
</event>
<event>
 4    1  0.1733759E+006  0.3175574E+01  0.7546771E-02  0.2469449E+00
         22   -1    0    0    0    0  0.00000000000E+00  0.00000000000E+00  0.17522006320E+02  0.17522006320E+02  0.00000000000E+00 0. -1.
         22   -1    0    0    0    0 -0.00000000000E+00 -0.00000000000E+00 -0.16849150167E+02  0.16849150167E+02  0.00000000000E+00 0.  1.
          4    1    1    2  501    0  0.14410892014E+01 -0.25287615221E+01 -0.16553094137E+02  0.16854945815E+02  0.12700000000E+01 0.  1.
         -4    1    1    2    0  501 -0.14410892014E+01  0.25287615221E+01  0.17225950290E+02  0.17516210672E+02  0.12700000000E+01 0. -1.
<mgrwt>
<rscale>  0 0.31755744E+01</rscale>
<asrwt>0</asrwt>
<pdfrwt beam="1">0</pdfrwt>
<pdfrwt beam="2">0</pdfrwt>
<totfact> 0.28390478E+10</totfact>
</mgrwt>
</event>
<event>
 4    1  0.1733759E+006  0.2335162E+01  0.7546771E-02  0.2785987E+00
         22   -1    0    0    0    0  0.00000000000E+00  0.00000000000E+00  0.67602682501E+00  0.67602682501E+00  0.00000000000E+00 0.  1.
         22   -1    0    0    0    0 -0.00000000000E+00 -0.00000000000E+00 -0.86466862996E+01  0.86466862996E+01  0.00000000000E+00 0.  1.
          4    1    1    2  501    0  0.16807517737E+00  0.19523910661E+01 -0.51930782402E+01  0.56939478175E+01  0.12700000000E+01 0.  1.
         -4    1    1    2    0  501 -0.16807517737E+00 -0.19523910661E+01 -0.27775812344E+01  0.36287653071E+01  0.12700000000E+01 0.  1.
<mgrwt>
<rscale>  0 0.23351617E+01</rscale>
<asrwt>0</asrwt>
<pdfrwt beam="1">0</pdfrwt>
<pdfrwt beam="2">0</pdfrwt>
<totfact> 0.29533018E+12</totfact>
</mgrwt>
</event>
<event>
 4    1  0.1733759E+006  0.3653110E+01  0.7546771E-02  0.2348951E+00
         22   -1    0    0    0    0  0.00000000000E+00  0.00000000000E+00  0.14347871976E+01  0.14347871976E+01  0.00000000000E+00 0. -1.
         22   -1    0    0    0    0 -0.00000000000E+00 -0.00000000000E+00 -0.12175290385E+02  0.12175290385E+02  0.00000000000E+00 0.  1.
          4    1    1    2  501    0  0.80559913078E+00 -0.33291625280E+01 -0.86765550408E+01  0.94142349914E+01  0.12700000000E+01 0.  1.
         -4    1    1    2    0  501 -0.80559913078E+00  0.33291625280E+01 -0.20639481464E+01  0.41958425910E+01  0.12700000000E+01 0. -1.
<mgrwt>
<rscale>  0 0.36531101E+01</rscale>
<asrwt>0</asrwt>
<pdfrwt beam="1">0</pdfrwt>
<pdfrwt beam="2">0</pdfrwt>
<totfact> 0.82604810E+11</totfact>
</mgrwt>
</event>
<event>
 4    1  0.1733759E+006  0.2022287E+01  0.7546771E-02  0.2965842E+00
         22   -1    0    0    0    0  0.00000000000E+00  0.00000000000E+00  0.26125610213E+02  0.26125610213E+02  0.00000000000E+00 0. -1.
         22   -1    0    0    0    0 -0.00000000000E+00 -0.00000000000E+00 -0.17012091178E+00  0.17012091178E+00  0.00000000000E+00 0. -1.
          4    1    1    2  501    0  0.13835685315E+01 -0.74998934728E+00  0.92625991833E+01  0.94807905542E+01  0.12700000000E+01 0. -1.
         -4    1    1    2    0  501 -0.13835685315E+01  0.74998934728E+00  0.16692890118E+02  0.16814940571E+02  0.12700000000E+01 0. -1.
<mgrwt>
<rscale>  0 0.20222873E+01</rscale>
<asrwt>0</asrwt>
<pdfrwt beam="1">0</pdfrwt>
<pdfrwt beam="2">0</pdfrwt>
<totfact> 0.35627348E+12</totfact>
</mgrwt>
</event>
<event>
 4    1  0.1733759E+006  0.2759854E+01  0.7546771E-02  0.2603987E+00
         22   -1    0    0    0    0  0.00000000000E+00  0.00000000000E+00  0.72931685989E+01  0.72931685989E+01  0.00000000000E+00 0. -1.
         22   -1    0    0    0    0 -0.00000000000E+00 -0.00000000000E+00 -0.10700462517E+01  0.10700462517E+01  0.00000000000E+00 0.  1.
          4    1    1    2  501    0 -0.21150086770E+01 -0.12371878169E+01  0.37592617310E+01  0.46635656059E+01  0.12700000000E+01 0. -1.
         -4    1    1    2    0  501  0.21150086770E+01  0.12371878169E+01  0.24638606162E+01  0.36996492447E+01  0.12700000000E+01 0.  1.
<mgrwt>
<rscale>  0 0.27598542E+01</rscale>
<asrwt>0</asrwt>
<pdfrwt beam="1">0</pdfrwt>
<pdfrwt beam="2">0</pdfrwt>
<totfact> 0.21478411E+12</totfact>
</mgrwt>
</event>
<event>
 4    1  0.1733759E+006  0.4480389E+01  0.7546771E-02  0.2193907E+00
         22   -1    0    0    0    0  0.00000000000E+00  0.00000000000E+00  0.10665102693E+02  0.10665102693E+02  0.00000000000E+00 0. -1.
         22   -1    0    0    0    0 -0.00000000000E+00 -0.00000000000E+00 -0.24073349956E+01  0.24073349956E+01  0.00000000000E+00 0.  1.
          4    1    1    2  501    0  0.44407315610E+00  0.42736150703E+01  0.10761241467E+01  0.46078118360E+01  0.12700000000E+01 0.  1.
         -4    1    1    2    0  501 -0.44407315610E+00 -0.42736150703E+01  0.71816435508E+01  0.84646258528E+01  0.12700000000E+01 0. -1.
<mgrwt>
<rscale>  0 0.44803891E+01</rscale>
<asrwt>0</asrwt>
<pdfrwt beam="1">0</pdfrwt>
<pdfrwt beam="2">0</pdfrwt>
<totfact> 0.53363394E+11</totfact>
</mgrwt>
</event>
<event>
 4    1  0.1733759E+006  0.2166664E+01  0.7546771E-02  0.2876639E+00
         22   -1    0    0    0    0  0.00000000000E+00  0.00000000000E+00  0.39189540921E+01  0.39189540921E+01  0.00000000000E+00 0.  1.
         22   -1    0    0    0    0 -0.00000000000E+00 -0.00000000000E+00 -0.40387298281E+01  0.40387298281E+01  0.00000000000E+00 0.  1.
          4    1    1    2  501    0  0.13933095384E+01 -0.10678116476E+01 -0.33969054576E+01  0.40290693556E+01  0.12700000000E+01 0.  1.
         -4    1    1    2    0  501 -0.13933095384E+01  0.10678116476E+01  0.32771297217E+01  0.39286145646E+01  0.12700000000E+01 0.  1.
<mgrwt>
<rscale>  0 0.21666641E+01</rscale>
<asrwt>0</asrwt>
<pdfrwt beam="1">0</pdfrwt>
<pdfrwt beam="2">0</pdfrwt>
<totfact> 0.96264458E+11</totfact>
</mgrwt>
</event>
<event>
 4    1  0.1733759E+006  0.3202805E+01  0.7546771E-02  0.2461732E+00
         22   -1    0    0    0    0  0.00000000000E+00  0.00000000000E+00  0.48753089267E+00  0.48753089267E+00  0.00000000000E+00 0.  1.
         22   -1    0    0    0    0 -0.00000000000E+00 -0.00000000000E+00 -0.32096167021E+02  0.32096167021E+02  0.00000000000E+00 0. -1.
          4    1    1    2  501    0 -0.13185746059E+01  0.26280075280E+01 -0.25365982367E+02  0.25567382032E+02  0.12700000000E+01 0. -1.
         -4    1    1    2    0  501  0.13185746059E+01 -0.26280075280E+01 -0.62426537611E+01  0.70163158809E+01  0.12700000000E+01 0.  1.
<mgrwt>
<rscale>  0 0.32028054E+01</rscale>
<asrwt>0</asrwt>
<pdfrwt beam="1">0</pdfrwt>
<pdfrwt beam="2">0</pdfrwt>
<totfact> 0.84269874E+11</totfact>
</mgrwt>
</event>
<event>
 4    1  0.1733759E+006  0.2195974E+01  0.7546771E-02  0.2859916E+00
         22   -1    0    0    0    0  0.00000000000E+00  0.00000000000E+00  0.16539313672E+01  0.16539313672E+01  0.00000000000E+00 0. -1.
         22   -1    0    0    0    0 -0.00000000000E+00 -0.00000000000E+00 -0.42364428203E+01  0.42364428203E+01  0.00000000000E+00 0. -1.
          4    1    1    2  501    0  0.15728802125E+01  0.85758253155E+00 -0.29357337566E+01  0.36661741163E+01  0.12700000000E+01 0. -1.
         -4    1    1    2    0  501 -0.15728802125E+01 -0.85758253155E+00  0.35322230342E+00  0.22242000713E+01  0.12700000000E+01 0. -1.
<mgrwt>
<rscale>  0 0.21959736E+01</rscale>
<asrwt>0</asrwt>
<pdfrwt beam="1">0</pdfrwt>
<pdfrwt beam="2">0</pdfrwt>
<totfact> 0.24836957E+12</totfact>
</mgrwt>
</event>
<event>
 4    1  0.1733759E+006  0.2503855E+01  0.7546771E-02  0.2706833E+00
         22   -1    0    0    0    0  0.00000000000E+00  0.00000000000E+00  0.53795952504E+00  0.53795952504E+00  0.00000000000E+00 0.  1.
         22   -1    0    0    0    0 -0.00000000000E+00 -0.00000000000E+00 -0.12527010151E+02  0.12527010151E+02  0.00000000000E+00 0.  1.
          4    1    1    2  501    0 -0.10583403452E+01 -0.18805068666E+01 -0.77191949800E+01  0.81151254766E+01  0.12700000000E+01 0.  1.
         -4    1    1    2    0  501  0.10583403452E+01  0.18805068666E+01 -0.42698556462E+01  0.49498441996E+01  0.12700000000E+01 0.  1.
<mgrwt>
<rscale>  0 0.25038551E+01</rscale>
<asrwt>0</asrwt>
<pdfrwt beam="1">0</pdfrwt>
<pdfrwt beam="2">0</pdfrwt>
<totfact> 0.24401331E+12</totfact>
</mgrwt>
</event>
<event>
 4    1  0.1733759E+006  0.3534733E+01  0.7546771E-02  0.2376160E+00
         22   -1    0    0    0    0  0.00000000000E+00  0.00000000000E+00  0.13710625621E+00  0.13710625621E+00  0.00000000000E+00 0. -1.
         22   -1    0    0    0    0 -0.00000000000E+00 -0.00000000000E+00 -0.93935493074E+02  0.93935493074E+02  0.00000000000E+00 0.  1.
          4    1    1    2  501    0 -0.26363668269E+01 -0.19826760979E+01 -0.55029602351E+02  0.55143009252E+02  0.12700000000E+01 0.  1.
         -4    1    1    2    0  501  0.26363668269E+01  0.19826760979E+01 -0.38768784468E+02  0.38929590078E+02  0.12700000000E+01 0. -1.
<mgrwt>
<rscale>  0 0.35347326E+01</rscale>
<asrwt>0</asrwt>
<pdfrwt beam="1">0</pdfrwt>
<pdfrwt beam="2">0</pdfrwt>
<totfact> 0.83398902E+11</totfact>
</mgrwt>
</event>
<event>
 4    1  0.1733759E+006  0.2331945E+01  0.7546771E-02  0.2787600E+00
         22   -1    0    0    0    0  0.00000000000E+00  0.00000000000E+00  0.19237813662E+01  0.19237813662E+01  0.00000000000E+00 0. -1.
         22   -1    0    0    0    0 -0.00000000000E+00 -0.00000000000E+00 -0.52342421898E+01  0.52342421898E+01  0.00000000000E+00 0.  1.
          4    1    1    2  501    0 -0.17288126608E+01  0.91448091070E+00 -0.40825247053E+01  0.47015929770E+01  0.12700000000E+01 0.  1.
         -4    1    1    2    0  501  0.17288126608E+01 -0.91448091070E+00  0.77206388171E+00  0.24564305790E+01  0.12700000000E+01 0. -1.
<mgrwt>
<rscale>  0 0.23319452E+01</rscale>
<asrwt>0</asrwt>
<pdfrwt beam="1">0</pdfrwt>
<pdfrwt beam="2">0</pdfrwt>
<totfact> 0.16245987E+12</totfact>
</mgrwt>
</event>
<event>
 4    1  0.1733759E+006  0.2673274E+01  0.7546771E-02  0.2636741E+00
         22   -1    0    0    0    0  0.00000000000E+00  0.00000000000E+00  0.39463648737E+00  0.39463648737E+00  0.00000000000E+00 0. -1.
         22   -1    0    0    0    0 -0.00000000000E+00 -0.00000000000E+00 -0.20942421092E+02  0.20942421092E+02  0.00000000000E+00 0.  1.
          4    1    1    2  501    0  0.23519708518E+01  0.41583956698E-01 -0.14198185219E+02  0.14447659313E+02  0.12700000000E+01 0.  1.
         -4    1    1    2    0  501 -0.23519708518E+01 -0.41583956698E-01 -0.63495993849E+01  0.68893982656E+01  0.12700000000E+01 0. -1.
<mgrwt>
<rscale>  0 0.26732744E+01</rscale>
<asrwt>0</asrwt>
<pdfrwt beam="1">0</pdfrwt>
<pdfrwt beam="2">0</pdfrwt>
<totfact> 0.18346091E+12</totfact>
</mgrwt>
</event>
<event>
 4    1  0.1733759E+006  0.2246674E+01  0.7546771E-02  0.2831977E+00
         22   -1    0    0    0    0  0.00000000000E+00  0.00000000000E+00  0.25624001137E+01  0.25624001137E+01  0.00000000000E+00 0. -1.
         22   -1    0    0    0    0 -0.00000000000E+00 -0.00000000000E+00 -0.38709901567E+01  0.38709901567E+01  0.00000000000E+00 0.  1.
          4    1    1    2  501    0  0.18218288645E+01  0.33997311735E+00 -0.29085654479E+01  0.36752272170E+01  0.12700000000E+01 0.  1.
         -4    1    1    2    0  501 -0.18218288645E+01 -0.33997311735E+00  0.15999754049E+01  0.27581630533E+01  0.12700000000E+01 0. -1.
<mgrwt>
<rscale>  0 0.22466736E+01</rscale>
<asrwt>0</asrwt>
<pdfrwt beam="1">0</pdfrwt>
<pdfrwt beam="2">0</pdfrwt>
<totfact> 0.16634382E+12</totfact>
</mgrwt>
</event>
<event>
 4    1  0.1733759E+006  0.3869774E+01  0.7546771E-02  0.2302901E+00
         22   -1    0    0    0    0  0.00000000000E+00  0.00000000000E+00  0.14157188612E+01  0.14157188612E+01  0.00000000000E+00 0.  1.
         22   -1    0    0    0    0 -0.00000000000E+00 -0.00000000000E+00 -0.11002154288E+02  0.11002154288E+02  0.00000000000E+00 0. -1.
          4    1    1    2  501    0  0.29064610140E+01 -0.22169194428E+01 -0.35737834645E+01  0.52675493062E+01  0.12700000000E+01 0.  1.
         -4    1    1    2    0  501 -0.29064610140E+01  0.22169194428E+01 -0.60126519623E+01  0.71503238432E+01  0.12700000000E+01 0. -1.
<mgrwt>
<rscale>  0 0.38697736E+01</rscale>
<asrwt>0</asrwt>
<pdfrwt beam="1">0</pdfrwt>
<pdfrwt beam="2">0</pdfrwt>
<totfact> 0.94898952E+11</totfact>
</mgrwt>
</event>
<event>
 4    1  0.1733759E+006  0.3239466E+01  0.7546771E-02  0.2451525E+00
         22   -1    0    0    0    0  0.00000000000E+00  0.00000000000E+00  0.92779112482E+01  0.92779112482E+01  0.00000000000E+00 0. -1.
         22   -1    0    0    0    0 -0.00000000000E+00 -0.00000000000E+00 -0.11806039189E+01  0.11806039189E+01  0.00000000000E+00 0.  1.
          4    1    1    2  501    0  0.29776531899E+01  0.12173787664E+00  0.29777307915E+01  0.44001158276E+01  0.12700000000E+01 0.  1.
         -4    1    1    2    0  501 -0.29776531899E+01 -0.12173787664E+00  0.51195765379E+01  0.60583993395E+01  0.12700000000E+01 0. -1.
<mgrwt>
<rscale>  0 0.32394658E+01</rscale>
<asrwt>0</asrwt>
<pdfrwt beam="1">0</pdfrwt>
<pdfrwt beam="2">0</pdfrwt>
<totfact> 0.14369073E+12</totfact>
</mgrwt>
</event>
<event>
 4    1  0.1733759E+006  0.3113985E+01  0.7546771E-02  0.2487342E+00
         22   -1    0    0    0    0  0.00000000000E+00  0.00000000000E+00  0.32304043504E+01  0.32304043504E+01  0.00000000000E+00 0. -1.
         22   -1    0    0    0    0 -0.00000000000E+00 -0.00000000000E+00 -0.33989049531E+01  0.33989049531E+01  0.00000000000E+00 0.  1.
          4    1    1    2  501    0  0.11738913912E+01  0.25895910946E+01  0.10487826582E+01  0.32858557637E+01  0.12700000000E+01 0. -1.
         -4    1    1    2    0  501 -0.11738913912E+01 -0.25895910946E+01 -0.12172832609E+01  0.33434535398E+01  0.12700000000E+01 0. -1.
<mgrwt>
<rscale>  0 0.31139851E+01</rscale>
<asrwt>0</asrwt>
<pdfrwt beam="1">0</pdfrwt>
<pdfrwt beam="2">0</pdfrwt>
<totfact> 0.14788063E+12</totfact>
</mgrwt>
</event>
<event>
 4    1  0.1733759E+006  0.2469685E+01  0.7546771E-02  0.2722048E+00
         22   -1    0    0    0    0  0.00000000000E+00  0.00000000000E+00  0.18081768621E+01  0.18081768621E+01  0.00000000000E+00 0.  1.
         22   -1    0    0    0    0 -0.00000000000E+00 -0.00000000000E+00 -0.45943156129E+01  0.45943156129E+01  0.00000000000E+00 0.  1.
          4    1    1    2  501    0 -0.11205585798E+00 -0.21151564734E+01 -0.30434607256E+01  0.39194383029E+01  0.12700000000E+01 0.  1.
         -4    1    1    2    0  501  0.11205585798E+00  0.21151564734E+01  0.25732197477E+00  0.24830541720E+01  0.12700000000E+01 0.  1.
<mgrwt>
<rscale>  0 0.24696849E+01</rscale>
<asrwt>0</asrwt>
<pdfrwt beam="1">0</pdfrwt>
<pdfrwt beam="2">0</pdfrwt>
<totfact> 0.20364613E+12</totfact>
</mgrwt>
</event>
<event>
 4    1  0.1733759E+006  0.2392588E+01  0.7546771E-02  0.2757866E+00
         22   -1    0    0    0    0  0.00000000000E+00  0.00000000000E+00  0.26421636300E+01  0.26421636300E+01  0.00000000000E+00 0. -1.
         22   -1    0    0    0    0 -0.00000000000E+00 -0.00000000000E+00 -0.23582454057E+01  0.23582454057E+01  0.00000000000E+00 0.  1.
          4    1    1    2  501    0 -0.17670476281E+01  0.99454422063E+00 -0.57080490046E+00  0.24597344900E+01  0.12700000000E+01 0.  1.
         -4    1    1    2    0  501  0.17670476281E+01 -0.99454422063E+00  0.85472312473E+00  0.25406745456E+01  0.12700000000E+01 0. -1.
<mgrwt>
<rscale>  0 0.23925876E+01</rscale>
<asrwt>0</asrwt>
<pdfrwt beam="1">0</pdfrwt>
<pdfrwt beam="2">0</pdfrwt>
<totfact> 0.28642705E+12</totfact>
</mgrwt>
</event>
<event>
 4    1  0.1733759E+006  0.2315776E+01  0.7546771E-02  0.2795777E+00
         22   -1    0    0    0    0  0.00000000000E+00  0.00000000000E+00  0.22409818255E+00  0.22409818255E+00  0.00000000000E+00 0. -1.
         22   -1    0    0    0    0 -0.00000000000E+00 -0.00000000000E+00 -0.25276958794E+02  0.25276958794E+02  0.00000000000E+00 0. -1.
          4    1    1    2  501    0 -0.36723251051E+00 -0.19013308749E+01 -0.95838013992E+01  0.98596180490E+01  0.12700000000E+01 0. -1.
         -4    1    1    2    0  501  0.36723251051E+00  0.19013308749E+01 -0.15469059212E+02  0.15641438927E+02  0.12700000000E+01 0. -1.
<mgrwt>
<rscale>  0 0.23157761E+01</rscale>
<asrwt>0</asrwt>
<pdfrwt beam="1">0</pdfrwt>
<pdfrwt beam="2">0</pdfrwt>
<totfact> 0.27318748E+12</totfact>
</mgrwt>
</event>
<event>
 4    1  0.1733759E+006  0.2069475E+01  0.7546771E-02  0.2935357E+00
         22   -1    0    0    0    0  0.00000000000E+00  0.00000000000E+00  0.21134633053E+00  0.21134633053E+00  0.00000000000E+00 0. -1.
         22   -1    0    0    0    0 -0.00000000000E+00 -0.00000000000E+00 -0.69839590603E+02  0.69839590603E+02  0.00000000000E+00 0.  1.
          4    1    1    2  501    0 -0.15627122782E+01 -0.47723842111E+00 -0.64323970166E+02  0.64357251837E+02  0.12700000000E+01 0.  1.
         -4    1    1    2    0  501  0.15627122782E+01  0.47723842111E+00 -0.53042741069E+01  0.56936850963E+01  0.12700000000E+01 0. -1.
<mgrwt>
<rscale>  0 0.20694749E+01</rscale>
<asrwt>0</asrwt>
<pdfrwt beam="1">0</pdfrwt>
<pdfrwt beam="2">0</pdfrwt>
<totfact> 0.77451051E+11</totfact>
</mgrwt>
</event>
<event>
 4    1  0.1733759E+006  0.3236701E+01  0.7546771E-02  0.2452288E+00
         22   -1    0    0    0    0  0.00000000000E+00  0.00000000000E+00  0.86952089238E+01  0.86952089238E+01  0.00000000000E+00 0. -1.
         22   -1    0    0    0    0 -0.00000000000E+00 -0.00000000000E+00 -0.12607394660E+01  0.12607394660E+01  0.00000000000E+00 0.  1.
          4    1    1    2  501    0  0.15370303814E+01  0.25496800821E+01  0.47655466490E+01  0.57607869062E+01  0.12700000000E+01 0. -1.
         -4    1    1    2    0  501 -0.15370303814E+01 -0.25496800821E+01  0.26689228088E+01  0.41951614836E+01  0.12700000000E+01 0.  1.
<mgrwt>
<rscale>  0 0.32367006E+01</rscale>
<asrwt>0</asrwt>
<pdfrwt beam="1">0</pdfrwt>
<pdfrwt beam="2">0</pdfrwt>
<totfact> 0.14411888E+12</totfact>
</mgrwt>
</event>
<event>
 4    1  0.1733759E+006  0.3425462E+01  0.7546771E-02  0.2402722E+00
         22   -1    0    0    0    0  0.00000000000E+00  0.00000000000E+00  0.41071576436E+01  0.41071576436E+01  0.00000000000E+00 0.  1.
         22   -1    0    0    0    0 -0.00000000000E+00 -0.00000000000E+00 -0.93132942577E+01  0.93132942577E+01  0.00000000000E+00 0.  1.
          4    1    1    2  501    0  0.30952864465E+01  0.73491070666E+00 -0.81900862604E+01  0.88775731417E+01  0.12700000000E+01 0.  1.
         -4    1    1    2    0  501 -0.30952864465E+01 -0.73491070666E+00  0.29839496463E+01  0.45428787596E+01  0.12700000000E+01 0.  1.
<mgrwt>
<rscale>  0 0.34254623E+01</rscale>
<asrwt>0</asrwt>
<pdfrwt beam="1">0</pdfrwt>
<pdfrwt beam="2">0</pdfrwt>
<totfact> 0.33662472E+11</totfact>
</mgrwt>
</event>
<event>
 4    1  0.1733759E+006  0.2094436E+01  0.7546771E-02  0.2919773E+00
         22   -1    0    0    0    0  0.00000000000E+00  0.00000000000E+00  0.81773053463E+01  0.81773053463E+01  0.00000000000E+00 0. -1.
         22   -1    0    0    0    0 -0.00000000000E+00 -0.00000000000E+00 -0.57233290062E+00  0.57233290062E+00  0.00000000000E+00 0. -1.
          4    1    1    2  501    0 -0.16406811975E+01  0.28623224980E+00  0.48979999362E+01  0.53270129593E+01  0.12700000000E+01 0. -1.
         -4    1    1    2    0  501  0.16406811975E+01 -0.28623224980E+00  0.27069725094E+01  0.34226252876E+01  0.12700000000E+01 0. -1.
<mgrwt>
<rscale>  0 0.20944364E+01</rscale>
<asrwt>0</asrwt>
<pdfrwt beam="1">0</pdfrwt>
<pdfrwt beam="2">0</pdfrwt>
<totfact> 0.38140967E+12</totfact>
</mgrwt>
</event>
<event>
 4    1  0.1733759E+006  0.8550244E+01  0.7546771E-02  0.1846063E+00
         22   -1    0    0    0    0  0.00000000000E+00  0.00000000000E+00  0.16382115942E+01  0.16382115942E+01  0.00000000000E+00 0. -1.
         22   -1    0    0    0    0 -0.00000000000E+00 -0.00000000000E+00 -0.56367449826E+02  0.56367449826E+02  0.00000000000E+00 0.  1.
          4    1    1    2  501    0  0.53683651998E+01 -0.65325671877E+01 -0.40601594741E+02  0.41492121836E+02  0.12700000000E+01 0. -1.
         -4    1    1    2    0  501 -0.53683651998E+01  0.65325671877E+01 -0.14127643491E+02  0.16513539584E+02  0.12700000000E+01 0.  1.
<mgrwt>
<rscale>  0 0.85502444E+01</rscale>
<asrwt>0</asrwt>
<pdfrwt beam="1">0</pdfrwt>
<pdfrwt beam="2">0</pdfrwt>
<totfact> 0.10154056E+11</totfact>
</mgrwt>
</event>
<event>
 4    1  0.1733759E+006  0.2016023E+01  0.7546771E-02  0.2969994E+00
         22   -1    0    0    0    0  0.00000000000E+00  0.00000000000E+00  0.11454992564E+01  0.11454992564E+01  0.00000000000E+00 0.  1.
         22   -1    0    0    0    0 -0.00000000000E+00 -0.00000000000E+00 -0.35620470540E+01  0.35620470540E+01  0.00000000000E+00 0. -1.
          4    1    1    2  501    0 -0.13125078890E+01 -0.85368032420E+00 -0.13555527838E+01  0.24293765464E+01  0.12700000000E+01 0. -1.
         -4    1    1    2    0  501  0.13125078890E+01  0.85368032420E+00 -0.10609950138E+01  0.22781697641E+01  0.12700000000E+01 0.  1.
<mgrwt>
<rscale>  0 0.20160226E+01</rscale>
<asrwt>0</asrwt>
<pdfrwt beam="1">0</pdfrwt>
<pdfrwt beam="2">0</pdfrwt>
<totfact> 0.46437792E+12</totfact>
</mgrwt>
</event>
<event>
 4    1  0.1733759E+006  0.3299425E+01  0.7546771E-02  0.2435265E+00
         22   -1    0    0    0    0  0.00000000000E+00  0.00000000000E+00  0.12926387953E+01  0.12926387953E+01  0.00000000000E+00 0. -1.
         22   -1    0    0    0    0 -0.00000000000E+00 -0.00000000000E+00 -0.10191196938E+02  0.10191196938E+02  0.00000000000E+00 0.  1.
          4    1    1    2  501    0  0.23363145838E+01  0.19531862710E+01 -0.68418817643E+01  0.75958902388E+01  0.12700000000E+01 0.  1.
         -4    1    1    2    0  501 -0.23363145838E+01 -0.19531862710E+01 -0.20566763786E+01  0.38879454948E+01  0.12700000000E+01 0. -1.
<mgrwt>
<rscale>  0 0.32994246E+01</rscale>
<asrwt>0</asrwt>
<pdfrwt beam="1">0</pdfrwt>
<pdfrwt beam="2">0</pdfrwt>
<totfact> 0.11560318E+12</totfact>
</mgrwt>
</event>
<event>
 4    1  0.1733759E+006  0.2511538E+01  0.7546771E-02  0.2703465E+00
         22   -1    0    0    0    0  0.00000000000E+00  0.00000000000E+00  0.12837083197E+01  0.12837083197E+01  0.00000000000E+00 0. -1.
         22   -1    0    0    0    0 -0.00000000000E+00 -0.00000000000E+00 -0.81934959483E+01  0.81934959483E+01  0.00000000000E+00 0. -1.
          4    1    1    2  501    0  0.47210708029E+00 -0.21147198066E+01 -0.64529209617E+01  0.69244504398E+01  0.12700000000E+01 0. -1.
         -4    1    1    2    0  501 -0.47210708029E+00  0.21147198066E+01 -0.45686666685E+00  0.25527538281E+01  0.12700000000E+01 0. -1.
<mgrwt>
<rscale>  0 0.25115384E+01</rscale>
<asrwt>0</asrwt>
<pdfrwt beam="1">0</pdfrwt>
<pdfrwt beam="2">0</pdfrwt>
<totfact> 0.15162934E+12</totfact>
</mgrwt>
</event>
<event>
 4    1  0.1733759E+006  0.2381650E+01  0.7546771E-02  0.2763124E+00
         22   -1    0    0    0    0  0.00000000000E+00  0.00000000000E+00  0.55099960031E+01  0.55099960031E+01  0.00000000000E+00 0.  1.
         22   -1    0    0    0    0 -0.00000000000E+00 -0.00000000000E+00 -0.10621043725E+01  0.10621043725E+01  0.00000000000E+00 0. -1.
          4    1    1    2  501    0 -0.11593378735E+01  0.16478140170E+01  0.16477456367E+01  0.28960871919E+01  0.12700000000E+01 0.  1.
         -4    1    1    2    0  501  0.11593378735E+01 -0.16478140170E+01  0.28001459939E+01  0.36760131837E+01  0.12700000000E+01 0. -1.
<mgrwt>
<rscale>  0 0.23816497E+01</rscale>
<asrwt>0</asrwt>
<pdfrwt beam="1">0</pdfrwt>
<pdfrwt beam="2">0</pdfrwt>
<totfact> 0.30261366E+12</totfact>
</mgrwt>
</event>
<event>
 4    1  0.1733759E+006  0.2516583E+01  0.7546771E-02  0.2701264E+00
         22   -1    0    0    0    0  0.00000000000E+00  0.00000000000E+00  0.26523155007E+01  0.26523155007E+01  0.00000000000E+00 0.  1.
         22   -1    0    0    0    0 -0.00000000000E+00 -0.00000000000E+00 -0.32390647596E+01  0.32390647596E+01  0.00000000000E+00 0. -1.
          4    1    1    2  501    0 -0.21471022925E+01  0.33203030830E+00 -0.18034902630E+01  0.30960893897E+01  0.12700000000E+01 0.  1.
         -4    1    1    2    0  501  0.21471022925E+01 -0.33203030830E+00  0.12167410040E+01  0.27952908706E+01  0.12700000000E+01 0.  1.
<mgrwt>
<rscale>  0 0.25165835E+01</rscale>
<asrwt>0</asrwt>
<pdfrwt beam="1">0</pdfrwt>
<pdfrwt beam="2">0</pdfrwt>
<totfact> 0.19695934E+12</totfact>
</mgrwt>
</event>
<event>
 4    1  0.1733759E+006  0.2057019E+01  0.7546771E-02  0.2943271E+00
         22   -1    0    0    0    0  0.00000000000E+00  0.00000000000E+00  0.42285240137E-01  0.42285240137E-01  0.00000000000E+00 0.  1.
         22   -1    0    0    0    0 -0.00000000000E+00 -0.00000000000E+00 -0.10919965708E+03  0.10919965708E+03  0.00000000000E+00 0. -1.
          4    1    1    2  501    0  0.24116333565E+00  0.16000832905E+01 -0.70375324906E+02  0.70405381058E+02  0.12700000000E+01 0. -1.
         -4    1    1    2    0  501 -0.24116333565E+00 -0.16000832905E+01 -0.38782046938E+02  0.38836561267E+02  0.12700000000E+01 0.  1.
<mgrwt>
<rscale>  0 0.20570188E+01</rscale>
<asrwt>0</asrwt>
<pdfrwt beam="1">0</pdfrwt>
<pdfrwt beam="2">0</pdfrwt>
<totfact> 0.24713360E+12</totfact>
</mgrwt>
</event>
<event>
 4    1  0.1733759E+006  0.2457769E+01  0.7546771E-02  0.2727446E+00
         22   -1    0    0    0    0  0.00000000000E+00  0.00000000000E+00  0.14376374488E+01  0.14376374488E+01  0.00000000000E+00 0. -1.
         22   -1    0    0    0    0 -0.00000000000E+00 -0.00000000000E+00 -0.84863873787E+01  0.84863873787E+01  0.00000000000E+00 0. -1.
          4    1    1    2  501    0 -0.19779333189E+01 -0.71799014942E+00 -0.70501301641E+01  0.74662551121E+01  0.12700000000E+01 0. -1.
         -4    1    1    2    0  501  0.19779333189E+01  0.71799014942E+00  0.13802341935E-02  0.24577697154E+01  0.12700000000E+01 0. -1.
<mgrwt>
<rscale>  0 0.24577693E+01</rscale>
<asrwt>0</asrwt>
<pdfrwt beam="1">0</pdfrwt>
<pdfrwt beam="2">0</pdfrwt>
<totfact> 0.12762822E+12</totfact>
</mgrwt>
</event>
<event>
 4    1  0.1733759E+006  0.2006839E+01  0.7546771E-02  0.2976126E+00
         22   -1    0    0    0    0  0.00000000000E+00  0.00000000000E+00  0.18618577673E+01  0.18618577673E+01  0.00000000000E+00 0.  1.
         22   -1    0    0    0    0 -0.00000000000E+00 -0.00000000000E+00 -0.24112557724E+01  0.24112557724E+01  0.00000000000E+00 0.  1.
          4    1    1    2  501    0  0.92769998139E+00  0.12465455415E+01 -0.96010245838E+00  0.22246797012E+01  0.12700000000E+01 0.  1.
         -4    1    1    2    0  501 -0.92769998139E+00 -0.12465455415E+01  0.41070445333E+00  0.20484338385E+01  0.12700000000E+01 0.  1.
<mgrwt>
<rscale>  0 0.20068391E+01</rscale>
<asrwt>0</asrwt>
<pdfrwt beam="1">0</pdfrwt>
<pdfrwt beam="2">0</pdfrwt>
<totfact> 0.41890199E+12</totfact>
</mgrwt>
</event>
<event>
 4    1  0.1733759E+006  0.2486269E+01  0.7546771E-02  0.2714615E+00
         22   -1    0    0    0    0  0.00000000000E+00  0.00000000000E+00  0.33593251502E+00  0.33593251502E+00  0.00000000000E+00 0.  1.
         22   -1    0    0    0    0 -0.00000000000E+00 -0.00000000000E+00 -0.18401912812E+02  0.18401912812E+02  0.00000000000E+00 0. -1.
          4    1    1    2  501    0  0.47787571833E+00  0.20833313113E+01 -0.89714985659E+01  0.93096359259E+01  0.12700000000E+01 0.  1.
         -4    1    1    2    0  501 -0.47787571833E+00 -0.20833313113E+01 -0.90944817314E+01  0.94282094014E+01  0.12700000000E+01 0. -1.
<mgrwt>
<rscale>  0 0.24862692E+01</rscale>
<asrwt>0</asrwt>
<pdfrwt beam="1">0</pdfrwt>
<pdfrwt beam="2">0</pdfrwt>
<totfact> 0.25830944E+12</totfact>
</mgrwt>
</event>
<event>
 4    1  0.1733759E+006  0.3069005E+01  0.7546771E-02  0.2500814E+00
         22   -1    0    0    0    0  0.00000000000E+00  0.00000000000E+00  0.18160556804E+01  0.18160556804E+01  0.00000000000E+00 0. -1.
         22   -1    0    0    0    0 -0.00000000000E+00 -0.00000000000E+00 -0.90638255387E+01  0.90638255387E+01  0.00000000000E+00 0.  1.
          4    1    1    2  501    0 -0.25386288373E+01  0.11667294202E+01 -0.71819184758E+01  0.78101694544E+01  0.12700000000E+01 0.  1.
         -4    1    1    2    0  501  0.25386288373E+01 -0.11667294202E+01 -0.65851382487E-01  0.30697117647E+01  0.12700000000E+01 0. -1.
<mgrwt>
<rscale>  0 0.30690054E+01</rscale>
<asrwt>0</asrwt>
<pdfrwt beam="1">0</pdfrwt>
<pdfrwt beam="2">0</pdfrwt>
<totfact> 0.90066307E+11</totfact>
</mgrwt>
</event>
<event>
 4    1  0.1733759E+006  0.2509485E+01  0.7546771E-02  0.2704363E+00
         22   -1    0    0    0    0  0.00000000000E+00  0.00000000000E+00  0.48774724867E+02  0.48774724867E+02  0.00000000000E+00 0.  1.
         22   -1    0    0    0    0 -0.00000000000E+00 -0.00000000000E+00 -0.45957768513E+00  0.45957768513E+00  0.00000000000E+00 0.  1.
          4    1    1    2  501    0  0.54131315770E+00  0.20956131011E+01  0.32828850238E+01  0.41321723443E+01  0.12700000000E+01 0.  1.
         -4    1    1    2    0  501 -0.54131315770E+00 -0.20956131011E+01  0.45032262159E+02  0.45102130208E+02  0.12700000000E+01 0.  1.
<mgrwt>
<rscale>  0 0.25094848E+01</rscale>
<asrwt>0</asrwt>
<pdfrwt beam="1">0</pdfrwt>
<pdfrwt beam="2">0</pdfrwt>
<totfact> 0.52339633E+11</totfact>
</mgrwt>
</event>
<event>
 4    1  0.1733759E+006  0.2822180E+01  0.7546771E-02  0.2581546E+00
         22   -1    0    0    0    0  0.00000000000E+00  0.00000000000E+00  0.91598032192E+01  0.91598032192E+01  0.00000000000E+00 0. -1.
         22   -1    0    0    0    0 -0.00000000000E+00 -0.00000000000E+00 -0.17138556415E+01  0.17138556415E+01  0.00000000000E+00 0.  1.
          4    1    1    2  501    0 -0.11783718611E+01 -0.22278331458E+01 -0.93077664981E-01  0.28237146138E+01  0.12700000000E+01 0.  1.
         -4    1    1    2    0  501  0.11783718611E+01  0.22278331458E+01  0.75390252427E+01  0.80499442469E+01  0.12700000000E+01 0. -1.
<mgrwt>
<rscale>  0 0.28221801E+01</rscale>
<asrwt>0</asrwt>
<pdfrwt beam="1">0</pdfrwt>
<pdfrwt beam="2">0</pdfrwt>
<totfact> 0.95077525E+11</totfact>
</mgrwt>
</event>
<event>
 4    1  0.1733759E+006  0.2603065E+01  0.7546771E-02  0.2664765E+00
         22   -1    0    0    0    0  0.00000000000E+00  0.00000000000E+00  0.64739390156E+00  0.64739390156E+00  0.00000000000E+00 0.  1.
         22   -1    0    0    0    0 -0.00000000000E+00 -0.00000000000E+00 -0.11315773706E+02  0.11315773706E+02  0.00000000000E+00 0. -1.
          4    1    1    2  501    0 -0.27598710514E+00 -0.22554107028E+01 -0.69728869601E+01  0.74429227376E+01  0.12700000000E+01 0. -1.
         -4    1    1    2    0  501  0.27598710514E+00  0.22554107028E+01 -0.36954928439E+01  0.45202448694E+01  0.12700000000E+01 0. -1.
<mgrwt>
<rscale>  0 0.26030648E+01</rscale>
<asrwt>0</asrwt>
<pdfrwt beam="1">0</pdfrwt>
<pdfrwt beam="2">0</pdfrwt>
<totfact> 0.22397999E+12</totfact>
</mgrwt>
</event>
<event>
 4    1  0.1733759E+006  0.2523781E+01  0.7546771E-02  0.2698138E+00
         22   -1    0    0    0    0  0.00000000000E+00  0.00000000000E+00  0.20921642368E+01  0.20921642368E+01  0.00000000000E+00 0. -1.
         22   -1    0    0    0    0 -0.00000000000E+00 -0.00000000000E+00 -0.91732367970E+01  0.91732367970E+01  0.00000000000E+00 0.  1.
          4    1    1    2  501    0 -0.10627452748E+01  0.19045058094E+01 -0.81446171792E+01  0.85266792419E+01  0.12700000000E+01 0.  1.
         -4    1    1    2    0  501  0.10627452748E+01 -0.19045058094E+01  0.10635446191E+01  0.27387217920E+01  0.12700000000E+01 0. -1.
<mgrwt>
<rscale>  0 0.25237809E+01</rscale>
<asrwt>0</asrwt>
<pdfrwt beam="1">0</pdfrwt>
<pdfrwt beam="2">0</pdfrwt>
<totfact> 0.75362936E+11</totfact>
</mgrwt>
</event>
<event>
 4    1  0.1733759E+006  0.2609772E+01  0.7546771E-02  0.2662028E+00
         22   -1    0    0    0    0  0.00000000000E+00  0.00000000000E+00  0.78228451761E+01  0.78228451761E+01  0.00000000000E+00 0. -1.
         22   -1    0    0    0    0 -0.00000000000E+00 -0.00000000000E+00 -0.15950076745E+01  0.15950076745E+01  0.00000000000E+00 0.  1.
          4    1    1    2  501    0  0.18285235004E+01  0.13618053581E+01 -0.59437963585E-01  0.26104491752E+01  0.12700000000E+01 0.  1.
         -4    1    1    2    0  501 -0.18285235004E+01 -0.13618053581E+01  0.62872754652E+01  0.68074036754E+01  0.12700000000E+01 0. -1.
<mgrwt>
<rscale>  0 0.26097724E+01</rscale>
<asrwt>0</asrwt>
<pdfrwt beam="1">0</pdfrwt>
<pdfrwt beam="2">0</pdfrwt>
<totfact> 0.12489341E+12</totfact>
</mgrwt>
</event>
<event>
 4    1  0.1733759E+006  0.6687370E+01  0.7546771E-02  0.1963025E+00
         22   -1    0    0    0    0  0.00000000000E+00  0.00000000000E+00  0.82436187157E+01  0.82436187157E+01  0.00000000000E+00 0. -1.
         22   -1    0    0    0    0 -0.00000000000E+00 -0.00000000000E+00 -0.68077735428E+01  0.68077735428E+01  0.00000000000E+00 0.  1.
          4    1    1    2  501    0  0.60924153566E+01  0.24475482278E+01 -0.26739010793E+01  0.72021291426E+01  0.12700000000E+01 0.  1.
         -4    1    1    2    0  501 -0.60924153566E+01 -0.24475482278E+01  0.41097462522E+01  0.78492631159E+01  0.12700000000E+01 0. -1.
<mgrwt>
<rscale>  0 0.66873700E+01</rscale>
<asrwt>0</asrwt>
<pdfrwt beam="1">0</pdfrwt>
<pdfrwt beam="2">0</pdfrwt>
<totfact> 0.21414603E+11</totfact>
</mgrwt>
</event>
<event>
 4    1  0.1733759E+006  0.2286740E+01  0.7546771E-02  0.2810734E+00
         22   -1    0    0    0    0  0.00000000000E+00  0.00000000000E+00  0.12670383933E+02  0.12670383933E+02  0.00000000000E+00 0. -1.
         22   -1    0    0    0    0 -0.00000000000E+00 -0.00000000000E+00 -0.46409470320E+00  0.46409470320E+00  0.00000000000E+00 0. -1.
          4    1    1    2  501    0 -0.13113099115E+01  0.13772240276E+01  0.39178938471E+01  0.45364161960E+01  0.12700000000E+01 0. -1.
         -4    1    1    2    0  501  0.13113099115E+01 -0.13772240276E+01  0.82883953831E+01  0.85980624406E+01  0.12700000000E+01 0. -1.
<mgrwt>
<rscale>  0 0.22867400E+01</rscale>
<asrwt>0</asrwt>
<pdfrwt beam="1">0</pdfrwt>
<pdfrwt beam="2">0</pdfrwt>
<totfact> 0.28431321E+12</totfact>
</mgrwt>
</event>
<event>
 4    1  0.1733759E+006  0.3057021E+01  0.7546771E-02  0.2504462E+00
         22   -1    0    0    0    0  0.00000000000E+00  0.00000000000E+00  0.29803279298E+01  0.29803279298E+01  0.00000000000E+00 0. -1.
         22   -1    0    0    0    0 -0.00000000000E+00 -0.00000000000E+00 -0.41093917204E+01  0.41093917204E+01  0.00000000000E+00 0.  1.
          4    1    1    2  501    0  0.62407483147E+00 -0.27097983693E+01 -0.22900672207E+01  0.38196576382E+01  0.12700000000E+01 0.  1.
         -4    1    1    2    0  501 -0.62407483147E+00  0.27097983693E+01  0.11610034301E+01  0.32700620120E+01  0.12700000000E+01 0. -1.
<mgrwt>
<rscale>  0 0.30570209E+01</rscale>
<asrwt>0</asrwt>
<pdfrwt beam="1">0</pdfrwt>
<pdfrwt beam="2">0</pdfrwt>
<totfact> 0.13001261E+12</totfact>
</mgrwt>
</event>
<event>
 4    1  0.1733759E+006  0.2211897E+01  0.7546771E-02  0.2851009E+00
         22   -1    0    0    0    0  0.00000000000E+00  0.00000000000E+00  0.14739135836E+01  0.14739135836E+01  0.00000000000E+00 0. -1.
         22   -1    0    0    0    0 -0.00000000000E+00 -0.00000000000E+00 -0.48392399202E+01  0.48392399202E+01  0.00000000000E+00 0.  1.
          4    1    1    2  501    0  0.15986191838E+01 -0.85088433560E+00 -0.34516669659E+01  0.40995722083E+01  0.12700000000E+01 0.  1.
         -4    1    1    2    0  501 -0.15986191838E+01  0.85088433560E+00  0.86340629301E-01  0.22135812955E+01  0.12700000000E+01 0. -1.
<mgrwt>
<rscale>  0 0.22118968E+01</rscale>
<asrwt>0</asrwt>
<pdfrwt beam="1">0</pdfrwt>
<pdfrwt beam="2">0</pdfrwt>
<totfact> 0.24238898E+12</totfact>
</mgrwt>
</event>
<event>
 4    1  0.1733759E+006  0.2022455E+01  0.7546771E-02  0.2965731E+00
         22   -1    0    0    0    0  0.00000000000E+00  0.00000000000E+00  0.11672219111E+01  0.11672219111E+01  0.00000000000E+00 0. -1.
         22   -1    0    0    0    0 -0.00000000000E+00 -0.00000000000E+00 -0.46246030593E+01  0.46246030593E+01  0.00000000000E+00 0.  1.
          4    1    1    2  501    0 -0.11349484984E+01 -0.10905577762E+01 -0.31540067418E+01  0.37467429702E+01  0.12700000000E+01 0.  1.
         -4    1    1    2    0  501  0.11349484984E+01  0.10905577762E+01 -0.30337440638E+00  0.20450820003E+01  0.12700000000E+01 0. -1.
<mgrwt>
<rscale>  0 0.20224550E+01</rscale>
<asrwt>0</asrwt>
<pdfrwt beam="1">0</pdfrwt>
<pdfrwt beam="2">0</pdfrwt>
<totfact> 0.33424270E+12</totfact>
</mgrwt>
</event>
<event>
 4    1  0.1733759E+006  0.2400247E+01  0.7546771E-02  0.2754211E+00
         22   -1    0    0    0    0  0.00000000000E+00  0.00000000000E+00  0.66258506198E+02  0.66258506198E+02  0.00000000000E+00 0.  1.
         22   -1    0    0    0    0 -0.00000000000E+00 -0.00000000000E+00 -0.29840894360E+00  0.29840894360E+00  0.00000000000E+00 0. -1.
          4    1    1    2  501    0  0.20361543350E+01 -0.48575526048E-01  0.49663667314E+01  0.55159752146E+01  0.12700000000E+01 0. -1.
         -4    1    1    2    0  501 -0.20361543350E+01  0.48575526048E-01  0.60993730523E+02  0.61040939927E+02  0.12700000000E+01 0.  1.
<mgrwt>
<rscale>  0 0.24002467E+01</rscale>
<asrwt>0</asrwt>
<pdfrwt beam="1">0</pdfrwt>
<pdfrwt beam="2">0</pdfrwt>
<totfact> 0.56546131E+11</totfact>
</mgrwt>
</event>
<event>
 4    1  0.1733759E+006  0.2611287E+01  0.7546771E-02  0.2661412E+00
         22   -1    0    0    0    0  0.00000000000E+00  0.00000000000E+00  0.72384823946E+01  0.72384823946E+01  0.00000000000E+00 0. -1.
         22   -1    0    0    0    0 -0.00000000000E+00 -0.00000000000E+00 -0.17611442478E+01  0.17611442478E+01  0.00000000000E+00 0.  1.
          4    1    1    2  501    0  0.12892005931E+01  0.18825194337E+01  0.58074868652E+01  0.63675522202E+01  0.12700000000E+01 0. -1.
         -4    1    1    2    0  501 -0.12892005931E+01 -0.18825194337E+01 -0.33014871834E+00  0.26320744222E+01  0.12700000000E+01 0.  1.
<mgrwt>
<rscale>  0 0.26112866E+01</rscale>
<asrwt>0</asrwt>
<pdfrwt beam="1">0</pdfrwt>
<pdfrwt beam="2">0</pdfrwt>
<totfact> 0.12227598E+12</totfact>
</mgrwt>
</event>
<event>
 4    1  0.1733759E+006  0.2509098E+01  0.7546771E-02  0.2704533E+00
         22   -1    0    0    0    0  0.00000000000E+00  0.00000000000E+00  0.77414014333E+01  0.77414014333E+01  0.00000000000E+00 0. -1.
         22   -1    0    0    0    0 -0.00000000000E+00 -0.00000000000E+00 -0.10044616286E+01  0.10044616286E+01  0.00000000000E+00 0.  1.
          4    1    1    2  501    0 -0.18496313831E+01 -0.11231818967E+01  0.14604588524E+01  0.29031902945E+01  0.12700000000E+01 0.  1.
         -4    1    1    2    0  501  0.18496313831E+01  0.11231818967E+01  0.52764809523E+01  0.58426727674E+01  0.12700000000E+01 0. -1.
<mgrwt>
<rscale>  0 0.25090982E+01</rscale>
<asrwt>0</asrwt>
<pdfrwt beam="1">0</pdfrwt>
<pdfrwt beam="2">0</pdfrwt>
<totfact> 0.21494590E+12</totfact>
</mgrwt>
</event>
<event>
 4    1  0.1733759E+006  0.2059202E+01  0.7546771E-02  0.2941878E+00
         22   -1    0    0    0    0  0.00000000000E+00  0.00000000000E+00  0.55197043404E+00  0.55197043404E+00  0.00000000000E+00 0. -1.
         22   -1    0    0    0    0 -0.00000000000E+00 -0.00000000000E+00 -0.76996576814E+01  0.76996576814E+01  0.00000000000E+00 0.  1.
          4    1    1    2  501    0  0.15171824796E+01  0.57058668513E+00 -0.33770259511E+01  0.39553275611E+01  0.12700000000E+01 0. -1.
         -4    1    1    2    0  501 -0.15171824796E+01 -0.57058668513E+00 -0.37706612962E+01  0.42963005543E+01  0.12700000000E+01 0. -1.
<mgrwt>
<rscale>  0 0.20592017E+01</rscale>
<asrwt>0</asrwt>
<pdfrwt beam="1">0</pdfrwt>
<pdfrwt beam="2">0</pdfrwt>
<totfact> 0.42714944E+12</totfact>
</mgrwt>
</event>
<event>
 4    1  0.1733759E+006  0.3076914E+01  0.7546771E-02  0.2498419E+00
         22   -1    0    0    0    0  0.00000000000E+00  0.00000000000E+00  0.22311850449E+01  0.22311850449E+01  0.00000000000E+00 0.  1.
         22   -1    0    0    0    0 -0.00000000000E+00 -0.00000000000E+00 -0.21252957830E+02  0.21252957830E+02  0.00000000000E+00 0.  1.
          4    1    1    2  501    0  0.26597158570E+01 -0.88341020946E+00 -0.20015591805E+02  0.20250711527E+02  0.12700000000E+01 0.  1.
         -4    1    1    2    0  501 -0.26597158570E+01  0.88341020946E+00  0.99381901992E+00  0.32334313481E+01  0.12700000000E+01 0.  1.
<mgrwt>
<rscale>  0 0.30769144E+01</rscale>
<asrwt>0</asrwt>
<pdfrwt beam="1">0</pdfrwt>
<pdfrwt beam="2">0</pdfrwt>
<totfact> 0.24937089E+11</totfact>
</mgrwt>
</event>
<event>
 4    1  0.1733759E+006  0.2100608E+01  0.7546771E-02  0.2915975E+00
         22   -1    0    0    0    0  0.00000000000E+00  0.00000000000E+00  0.19504680644E+01  0.19504680644E+01  0.00000000000E+00 0.  1.
         22   -1    0    0    0    0 -0.00000000000E+00 -0.00000000000E+00 -0.29230364672E+01  0.29230364672E+01  0.00000000000E+00 0. -1.
          4    1    1    2  501    0  0.10877576758E+01 -0.12713923494E+01 -0.16448120700E+01  0.26679509015E+01  0.12700000000E+01 0. -1.
         -4    1    1    2    0  501 -0.10877576758E+01  0.12713923494E+01  0.67224366713E+00  0.22055536301E+01  0.12700000000E+01 0.  1.
<mgrwt>
<rscale>  0 0.21006083E+01</rscale>
<asrwt>0</asrwt>
<pdfrwt beam="1">0</pdfrwt>
<pdfrwt beam="2">0</pdfrwt>
<totfact> 0.31725540E+12</totfact>
</mgrwt>
</event>
<event>
 4    1  0.1733759E+006  0.2686179E+01  0.7546771E-02  0.2631736E+00
         22   -1    0    0    0    0  0.00000000000E+00  0.00000000000E+00  0.45658352357E+00  0.45658352357E+00  0.00000000000E+00 0.  1.
         22   -1    0    0    0    0 -0.00000000000E+00 -0.00000000000E+00 -0.21149160514E+02  0.21149160514E+02  0.00000000000E+00 0. -1.
          4    1    1    2  501    0  0.45682500885E+00 -0.23224919490E+01 -0.15777524434E+02  0.16004556702E+02  0.12700000000E+01 0. -1.
         -4    1    1    2    0  501 -0.45682500885E+00  0.23224919490E+01 -0.49150525558E+01  0.56011873356E+01  0.12700000000E+01 0.  1.
<mgrwt>
<rscale>  0 0.26861791E+01</rscale>
<asrwt>0</asrwt>
<pdfrwt beam="1">0</pdfrwt>
<pdfrwt beam="2">0</pdfrwt>
<totfact> 0.15377049E+12</totfact>
</mgrwt>
</event>
<event>
 4    1  0.1733759E+006  0.5076743E+01  0.7546771E-02  0.2113953E+00
         22   -1    0    0    0    0  0.00000000000E+00  0.00000000000E+00  0.13016918849E+02  0.13016918849E+02  0.00000000000E+00 0.  1.
         22   -1    0    0    0    0 -0.00000000000E+00 -0.00000000000E+00 -0.26027742666E+01  0.26027742666E+01  0.00000000000E+00 0.  1.
          4    1    1    2  501    0 -0.48616032436E+01 -0.72472803360E+00  0.13867986929E+01  0.52627490378E+01  0.12700000000E+01 0.  1.
         -4    1    1    2    0  501  0.48616032436E+01  0.72472803360E+00  0.90273458893E+01  0.10356944078E+02  0.12700000000E+01 0.  1.
<mgrwt>
<rscale>  0 0.50767427E+01</rscale>
<asrwt>0</asrwt>
<pdfrwt beam="1">0</pdfrwt>
<pdfrwt beam="2">0</pdfrwt>
<totfact> 0.38226012E+11</totfact>
</mgrwt>
</event>
<event>
 4    1  0.1733759E+006  0.3050625E+01  0.7546771E-02  0.2506420E+00
         22   -1    0    0    0    0  0.00000000000E+00  0.00000000000E+00  0.11969838974E+03  0.11969838974E+03  0.00000000000E+00 0. -1.
         22   -1    0    0    0    0 -0.00000000000E+00 -0.00000000000E+00 -0.93372277681E-01  0.93372277681E-01  0.00000000000E+00 0.  1.
          4    1    1    2  501    0  0.24240111152E+01 -0.13481782263E+01  0.35301301160E+02  0.35432868611E+02  0.12700000000E+01 0.  1.
         -4    1    1    2    0  501 -0.24240111152E+01  0.13481782263E+01  0.84303716304E+02  0.84358893409E+02  0.12700000000E+01 0. -1.
<mgrwt>
<rscale>  0 0.30506253E+01</rscale>
<asrwt>0</asrwt>
<pdfrwt beam="1">0</pdfrwt>
<pdfrwt beam="2">0</pdfrwt>
<totfact> 0.90542761E+11</totfact>
</mgrwt>
</event>
<event>
 4    1  0.1733759E+006  0.4219637E+01  0.7546771E-02  0.2237178E+00
         22   -1    0    0    0    0  0.00000000000E+00  0.00000000000E+00  0.79861670682E+01  0.79861670682E+01  0.00000000000E+00 0. -1.
         22   -1    0    0    0    0 -0.00000000000E+00 -0.00000000000E+00 -0.28682800095E+02  0.28682800095E+02  0.00000000000E+00 0. -1.
          4    1    1    2  501    0  0.12932516997E+01 -0.38105035798E+01 -0.27955814819E+02  0.28272476362E+02  0.12700000000E+01 0. -1.
         -4    1    1    2    0  501 -0.12932516997E+01  0.38105035798E+01  0.72591817915E+01  0.83964908011E+01  0.12700000000E+01 0. -1.
<mgrwt>
<rscale>  0 0.42196371E+01</rscale>
<asrwt>0</asrwt>
<pdfrwt beam="1">0</pdfrwt>
<pdfrwt beam="2">0</pdfrwt>
<totfact> 0.37989033E+10</totfact>
</mgrwt>
</event>
<event>
 4    1  0.1733759E+006  0.2975127E+01  0.7546771E-02  0.2530099E+00
         22   -1    0    0    0    0  0.00000000000E+00  0.00000000000E+00  0.46719635540E+01  0.46719635540E+01  0.00000000000E+00 0.  1.
         22   -1    0    0    0    0 -0.00000000000E+00 -0.00000000000E+00 -0.21134123134E+01  0.21134123134E+01  0.00000000000E+00 0. -1.
          4    1    1    2  501    0 -0.22155346335E+01 -0.15263969324E+01  0.18755039970E+00  0.29810327841E+01  0.12700000000E+01 0.  1.
         -4    1    1    2    0  501  0.22155346335E+01  0.15263969324E+01  0.23710008409E+01  0.38043430832E+01  0.12700000000E+01 0. -1.
<mgrwt>
<rscale>  0 0.29751271E+01</rscale>
<asrwt>0</asrwt>
<pdfrwt beam="1">0</pdfrwt>
<pdfrwt beam="2">0</pdfrwt>
<totfact> 0.16669200E+12</totfact>
</mgrwt>
</event>
<event>
 4    1  0.1733759E+006  0.3592463E+01  0.7546771E-02  0.2362696E+00
         22   -1    0    0    0    0  0.00000000000E+00  0.00000000000E+00  0.31328159193E+01  0.31328159193E+01  0.00000000000E+00 0.  1.
         22   -1    0    0    0    0 -0.00000000000E+00 -0.00000000000E+00 -0.50330726560E+01  0.50330726560E+01  0.00000000000E+00 0. -1.
          4    1    1    2  501    0 -0.82182535052E+00  0.32584498858E+01 -0.26895964292E+01  0.44877301074E+01  0.12700000000E+01 0. -1.
         -4    1    1    2    0  501  0.82182535052E+00 -0.32584498858E+01  0.78933969248E+00  0.36781584679E+01  0.12700000000E+01 0.  1.
<mgrwt>
<rscale>  0 0.35924633E+01</rscale>
<asrwt>0</asrwt>
<pdfrwt beam="1">0</pdfrwt>
<pdfrwt beam="2">0</pdfrwt>
<totfact> 0.96533684E+11</totfact>
</mgrwt>
</event>
<event>
 4    1  0.1733759E+006  0.2070266E+01  0.7546771E-02  0.2934858E+00
         22   -1    0    0    0    0  0.00000000000E+00  0.00000000000E+00  0.15664784071E+02  0.15664784071E+02  0.00000000000E+00 0.  1.
         22   -1    0    0    0    0 -0.00000000000E+00 -0.00000000000E+00 -0.31607839500E+00  0.31607839500E+00  0.00000000000E+00 0. -1.
          4    1    1    2  501    0  0.73165470448E+00  0.14621154270E+01  0.47453535711E+01  0.51772947224E+01  0.12700000000E+01 0. -1.
         -4    1    1    2    0  501 -0.73165470448E+00 -0.14621154270E+01  0.10603352105E+02  0.10803567744E+02  0.12700000000E+01 0.  1.
<mgrwt>
<rscale>  0 0.20702657E+01</rscale>
<asrwt>0</asrwt>
<pdfrwt beam="1">0</pdfrwt>
<pdfrwt beam="2">0</pdfrwt>
<totfact> 0.33755778E+12</totfact>
</mgrwt>
</event>
<event>
 4    1  0.1733759E+006  0.2220309E+01  0.7546771E-02  0.2846353E+00
         22   -1    0    0    0    0  0.00000000000E+00  0.00000000000E+00  0.47887757035E+01  0.47887757035E+01  0.00000000000E+00 0. -1.
         22   -1    0    0    0    0 -0.00000000000E+00 -0.00000000000E+00 -0.10521264186E+01  0.10521264186E+01  0.00000000000E+00 0. -1.
          4    1    1    2  501    0 -0.51935921226E+00 -0.17456053971E+01  0.22971387747E+01  0.31947799210E+01  0.12700000000E+01 0. -1.
         -4    1    1    2    0  501  0.51935921226E+00  0.17456053971E+01  0.14395105103E+01  0.26461222010E+01  0.12700000000E+01 0. -1.
<mgrwt>
<rscale>  0 0.22203090E+01</rscale>
<asrwt>0</asrwt>
<pdfrwt beam="1">0</pdfrwt>
<pdfrwt beam="2">0</pdfrwt>
<totfact> 0.36120880E+12</totfact>
</mgrwt>
</event>
<event>
 4    1  0.1733759E+006  0.2349133E+01  0.7546771E-02  0.2779026E+00
         22   -1    0    0    0    0  0.00000000000E+00  0.00000000000E+00  0.16779314243E+00  0.16779314243E+00  0.00000000000E+00 0. -1.
         22   -1    0    0    0    0 -0.00000000000E+00 -0.00000000000E+00 -0.44690991512E+02  0.44690991512E+02  0.00000000000E+00 0.  1.
          4    1    1    2  501    0  0.18760886781E+01  0.62114120958E+00 -0.33788132417E+02  0.33869696151E+02  0.12700000000E+01 0.  1.
         -4    1    1    2    0  501 -0.18760886781E+01 -0.62114120958E+00 -0.10735065952E+02  0.10989088503E+02  0.12700000000E+01 0. -1.
<mgrwt>
<rscale>  0 0.23491328E+01</rscale>
<asrwt>0</asrwt>
<pdfrwt beam="1">0</pdfrwt>
<pdfrwt beam="2">0</pdfrwt>
<totfact> 0.18149233E+12</totfact>
</mgrwt>
</event>
<event>
 4    1  0.1733759E+006  0.3433861E+01  0.7546771E-02  0.2400628E+00
         22   -1    0    0    0    0  0.00000000000E+00  0.00000000000E+00  0.43273390325E+00  0.43273390325E+00  0.00000000000E+00 0. -1.
         22   -1    0    0    0    0 -0.00000000000E+00 -0.00000000000E+00 -0.35975045102E+02  0.35975045102E+02  0.00000000000E+00 0.  1.
          4    1    1    2  501    0  0.31856910294E+01 -0.17284642034E+00 -0.26736802112E+02  0.26956409078E+02  0.12700000000E+01 0.  1.
         -4    1    1    2    0  501 -0.31856910294E+01  0.17284642034E+00 -0.88055090874E+01  0.94513699276E+01  0.12700000000E+01 0. -1.
<mgrwt>
<rscale>  0 0.34338613E+01</rscale>
<asrwt>0</asrwt>
<pdfrwt beam="1">0</pdfrwt>
<pdfrwt beam="2">0</pdfrwt>
<totfact> 0.83262425E+11</totfact>
</mgrwt>
</event>
<event>
 4    1  0.1733759E+006  0.2095157E+01  0.7546771E-02  0.2919328E+00
         22   -1    0    0    0    0  0.00000000000E+00  0.00000000000E+00  0.21269370411E+02  0.21269370411E+02  0.00000000000E+00 0. -1.
         22   -1    0    0    0    0 -0.00000000000E+00 -0.00000000000E+00 -0.29750586016E+00  0.29750586016E+00  0.00000000000E+00 0. -1.
          4    1    1    2  501    0  0.12585519877E+01 -0.10921671609E+01  0.45180803958E+01  0.49802341989E+01  0.12700000000E+01 0. -1.
         -4    1    1    2    0  501 -0.12585519877E+01  0.10921671609E+01  0.16453784155E+02  0.16586642072E+02  0.12700000000E+01 0. -1.
<mgrwt>
<rscale>  0 0.20951568E+01</rscale>
<asrwt>0</asrwt>
<pdfrwt beam="1">0</pdfrwt>
<pdfrwt beam="2">0</pdfrwt>
<totfact> 0.24712603E+12</totfact>
</mgrwt>
</event>
<event>
 4    1  0.1733759E+006  0.2885607E+01  0.7546771E-02  0.2559614E+00
         22   -1    0    0    0    0  0.00000000000E+00  0.00000000000E+00  0.16250124723E+01  0.16250124723E+01  0.00000000000E+00 0.  1.
         22   -1    0    0    0    0 -0.00000000000E+00 -0.00000000000E+00 -0.64088311642E+01  0.64088311642E+01  0.00000000000E+00 0. -1.
          4    1    1    2  501    0  0.15459089421E+01  0.20794206979E+01 -0.41904085534E+01  0.50878530580E+01  0.12700000000E+01 0. -1.
         -4    1    1    2    0  501 -0.15459089421E+01 -0.20794206979E+01 -0.59341013849E+00  0.29459905785E+01  0.12700000000E+01 0. -1.
<mgrwt>
<rscale>  0 0.28856065E+01</rscale>
<asrwt>0</asrwt>
<pdfrwt beam="1">0</pdfrwt>
<pdfrwt beam="2">0</pdfrwt>
<totfact> 0.15517715E+12</totfact>
</mgrwt>
</event>
<event>
 4    1  0.1733759E+006  0.2512185E+01  0.7546771E-02  0.2703182E+00
         22   -1    0    0    0    0  0.00000000000E+00  0.00000000000E+00  0.75731262089E+01  0.75731262089E+01  0.00000000000E+00 0. -1.
         22   -1    0    0    0    0 -0.00000000000E+00 -0.00000000000E+00 -0.14602019511E+01  0.14602019511E+01  0.00000000000E+00 0. -1.
          4    1    1    2  501    0 -0.14349350000E+01  0.16245415812E+01  0.97132070655E-01  0.25140621397E+01  0.12700000000E+01 0. -1.
         -4    1    1    2    0  501  0.14349350000E+01 -0.16245415812E+01  0.60157921872E+01  0.65192660203E+01  0.12700000000E+01 0. -1.
<mgrwt>
<rscale>  0 0.25121851E+01</rscale>
<asrwt>0</asrwt>
<pdfrwt beam="1">0</pdfrwt>
<pdfrwt beam="2">0</pdfrwt>
<totfact> 0.14374203E+12</totfact>
</mgrwt>
</event>
<event>
 4    1  0.1733759E+006  0.2201167E+01  0.7546771E-02  0.2856997E+00
         22   -1    0    0    0    0  0.00000000000E+00  0.00000000000E+00  0.67214767440E+01  0.67214767440E+01  0.00000000000E+00 0.  1.
         22   -1    0    0    0    0 -0.00000000000E+00 -0.00000000000E+00 -0.29302974505E+02  0.29302974505E+02  0.00000000000E+00 0.  1.
          4    1    1    2  501    0  0.16872813526E+01 -0.62073981564E+00 -0.29080047423E+02  0.29163235322E+02  0.12700000000E+01 0.  1.
         -4    1    1    2    0  501 -0.16872813526E+01  0.62073981564E+00  0.64985496626E+01  0.68612159271E+01  0.12700000000E+01 0.  1.
<mgrwt>
<rscale>  0 0.22011670E+01</rscale>
<asrwt>0</asrwt>
<pdfrwt beam="1">0</pdfrwt>
<pdfrwt beam="2">0</pdfrwt>
<totfact> 0.45445988E+10</totfact>
</mgrwt>
</event>
<event>
 4    1  0.1733759E+006  0.2275204E+01  0.7546771E-02  0.2816777E+00
         22   -1    0    0    0    0  0.00000000000E+00  0.00000000000E+00  0.97082550674E+00  0.97082550674E+00  0.00000000000E+00 0.  1.
         22   -1    0    0    0    0 -0.00000000000E+00 -0.00000000000E+00 -0.53458707729E+01  0.53458707729E+01  0.00000000000E+00 0. -1.
          4    1    1    2  501    0  0.12159843341E+01  0.14439655549E+01 -0.20273183509E+01  0.30473880817E+01  0.12700000000E+01 0.  1.
         -4    1    1    2    0  501 -0.12159843341E+01 -0.14439655549E+01 -0.23477269152E+01  0.32693081979E+01  0.12700000000E+01 0.  1.
<mgrwt>
<rscale>  0 0.22752043E+01</rscale>
<asrwt>0</asrwt>
<pdfrwt beam="1">0</pdfrwt>
<pdfrwt beam="2">0</pdfrwt>
<totfact> 0.34757382E+12</totfact>
</mgrwt>
</event>
<event>
 4    1  0.1733759E+006  0.3079569E+01  0.7546771E-02  0.2497618E+00
         22   -1    0    0    0    0  0.00000000000E+00  0.00000000000E+00  0.61123087774E+01  0.61123087774E+01  0.00000000000E+00 0.  1.
         22   -1    0    0    0    0 -0.00000000000E+00 -0.00000000000E+00 -0.25526727271E+01  0.25526727271E+01  0.00000000000E+00 0. -1.
          4    1    1    2  501    0  0.26870349034E+01 -0.80665158478E+00 -0.93335174339E+00  0.32179013081E+01  0.12700000000E+01 0. -1.
         -4    1    1    2    0  501 -0.26870349034E+01  0.80665158478E+00  0.44929877937E+01  0.54470801964E+01  0.12700000000E+01 0.  1.
<mgrwt>
<rscale>  0 0.30795687E+01</rscale>
<asrwt>0</asrwt>
<pdfrwt beam="1">0</pdfrwt>
<pdfrwt beam="2">0</pdfrwt>
<totfact> 0.97326086E+11</totfact>
</mgrwt>
</event>
<event>
 4    1  0.1733759E+006  0.3717902E+01  0.7546771E-02  0.2334695E+00
         22   -1    0    0    0    0  0.00000000000E+00  0.00000000000E+00  0.98370389154E+02  0.98370389154E+02  0.00000000000E+00 0. -1.
         22   -1    0    0    0    0 -0.00000000000E+00 -0.00000000000E+00 -0.22281390780E+00  0.22281390780E+00  0.00000000000E+00 0.  1.
          4    1    1    2  501    0  0.19295524508E+00  0.34889345375E+01  0.19114233939E+02  0.19472460939E+02  0.12700000000E+01 0.  1.
         -4    1    1    2    0  501 -0.19295524508E+00 -0.34889345375E+01  0.79033341307E+02  0.79120742123E+02  0.12700000000E+01 0. -1.
<mgrwt>
<rscale>  0 0.37179021E+01</rscale>
<asrwt>0</asrwt>
<pdfrwt beam="1">0</pdfrwt>
<pdfrwt beam="2">0</pdfrwt>
<totfact> 0.45519589E+11</totfact>
</mgrwt>
</event>
<event>
 4    1  0.1733759E+006  0.2286196E+01  0.7546771E-02  0.2811018E+00
         22   -1    0    0    0    0  0.00000000000E+00  0.00000000000E+00  0.31723677001E+02  0.31723677001E+02  0.00000000000E+00 0.  1.
         22   -1    0    0    0    0 -0.00000000000E+00 -0.00000000000E+00 -0.25008688954E+00  0.25008688954E+00  0.00000000000E+00 0. -1.
          4    1    1    2  501    0  0.20070858451E+00 -0.18903724927E+01  0.63984620093E+01  0.67946308348E+01  0.12700000000E+01 0. -1.
         -4    1    1    2    0  501 -0.20070858451E+00  0.18903724927E+01  0.25075128102E+02  0.25179133055E+02  0.12700000000E+01 0.  1.
<mgrwt>
<rscale>  0 0.22861960E+01</rscale>
<asrwt>0</asrwt>
<pdfrwt beam="1">0</pdfrwt>
<pdfrwt beam="2">0</pdfrwt>
<totfact> 0.18108019E+12</totfact>
</mgrwt>
</event>
<event>
 4    1  0.1733759E+006  0.2416165E+01  0.7546771E-02  0.2746685E+00
         22   -1    0    0    0    0  0.00000000000E+00  0.00000000000E+00  0.49212482772E+00  0.49212482772E+00  0.00000000000E+00 0.  1.
         22   -1    0    0    0    0 -0.00000000000E+00 -0.00000000000E+00 -0.17916410245E+02  0.17916410245E+02  0.00000000000E+00 0.  1.
          4    1    1    2  501    0 -0.28490370402E+00 -0.20356280730E+01 -0.14062468065E+02  0.14268526899E+02  0.12700000000E+01 0.  1.
         -4    1    1    2    0  501  0.28490370402E+00  0.20356280730E+01 -0.33618173515E+01  0.41400081736E+01  0.12700000000E+01 0.  1.
<mgrwt>
<rscale>  0 0.24161647E+01</rscale>
<asrwt>0</asrwt>
<pdfrwt beam="1">0</pdfrwt>
<pdfrwt beam="2">0</pdfrwt>
<totfact> 0.17371999E+12</totfact>
</mgrwt>
</event>
<event>
 4    1  0.1733759E+006  0.3039709E+01  0.7546771E-02  0.2509779E+00
         22   -1    0    0    0    0  0.00000000000E+00  0.00000000000E+00  0.14782447810E+01  0.14782447810E+01  0.00000000000E+00 0. -1.
         22   -1    0    0    0    0 -0.00000000000E+00 -0.00000000000E+00 -0.99056037580E+01  0.99056037580E+01  0.00000000000E+00 0.  1.
          4    1    1    2  501    0  0.83566362791E+00 -0.26322231831E+01 -0.76712093299E+01  0.82515019947E+01  0.12700000000E+01 0.  1.
         -4    1    1    2    0  501 -0.83566362791E+00  0.26322231831E+01 -0.75614964705E+00  0.31323465443E+01  0.12700000000E+01 0. -1.
<mgrwt>
<rscale>  0 0.30397093E+01</rscale>
<asrwt>0</asrwt>
<pdfrwt beam="1">0</pdfrwt>
<pdfrwt beam="2">0</pdfrwt>
<totfact> 0.10256017E+12</totfact>
</mgrwt>
</event>
<event>
 4    1  0.1733759E+006  0.7396243E+01  0.7546771E-02  0.1913262E+00
         22   -1    0    0    0    0  0.00000000000E+00  0.00000000000E+00  0.26416015646E+01  0.26416015646E+01  0.00000000000E+00 0. -1.
         22   -1    0    0    0    0 -0.00000000000E+00 -0.00000000000E+00 -0.27410916342E+02  0.27410916342E+02  0.00000000000E+00 0.  1.
          4    1    1    2  501    0  0.29599836441E+01  0.66580784143E+01 -0.19814761776E+02  0.21150158288E+02  0.12700000000E+01 0. -1.
         -4    1    1    2    0  501 -0.29599836441E+01 -0.66580784143E+01 -0.49545530014E+01  0.89023596192E+01  0.12700000000E+01 0.  1.
<mgrwt>
<rscale>  0 0.73962431E+01</rscale>
<asrwt>0</asrwt>
<pdfrwt beam="1">0</pdfrwt>
<pdfrwt beam="2">0</pdfrwt>
<totfact> 0.14875588E+11</totfact>
</mgrwt>
</event>
<event>
 4    1  0.1733759E+006  0.2491920E+01  0.7546771E-02  0.2712103E+00
         22   -1    0    0    0    0  0.00000000000E+00  0.00000000000E+00  0.11610658363E+02  0.11610658363E+02  0.00000000000E+00 0. -1.
         22   -1    0    0    0    0 -0.00000000000E+00 -0.00000000000E+00 -0.90103213589E+01  0.90103213589E+01  0.00000000000E+00 0.  1.
          4    1    1    2  501    0  0.18975930914E+01  0.99795099007E+00 -0.86996413119E+01  0.90494985869E+01  0.12700000000E+01 0.  1.
         -4    1    1    2    0  501 -0.18975930914E+01 -0.99795099007E+00  0.11299978316E+02  0.11571481136E+02  0.12700000000E+01 0. -1.
<mgrwt>
<rscale>  0 0.24919201E+01</rscale>
<asrwt>0</asrwt>
<pdfrwt beam="1">0</pdfrwt>
<pdfrwt beam="2">0</pdfrwt>
<totfact> 0.10105569E+11</totfact>
</mgrwt>
</event>
<event>
 4    1  0.1733759E+006  0.2124182E+01  0.7546771E-02  0.2901666E+00
         22   -1    0    0    0    0  0.00000000000E+00  0.00000000000E+00  0.44556963215E+01  0.44556963215E+01  0.00000000000E+00 0.  1.
         22   -1    0    0    0    0 -0.00000000000E+00 -0.00000000000E+00 -0.10228504572E+01  0.10228504572E+01  0.00000000000E+00 0.  1.
          4    1    1    2  501    0 -0.69475929493E+00  0.15545281144E+01  0.19897117364E+01  0.29105155781E+01  0.12700000000E+01 0.  1.
         -4    1    1    2    0  501  0.69475929493E+00 -0.15545281144E+01  0.14431341278E+01  0.25680312006E+01  0.12700000000E+01 0.  1.
<mgrwt>
<rscale>  0 0.21241818E+01</rscale>
<asrwt>0</asrwt>
<pdfrwt beam="1">0</pdfrwt>
<pdfrwt beam="2">0</pdfrwt>
<totfact> 0.40620126E+12</totfact>
</mgrwt>
</event>
<event>
 4    1  0.1733759E+006  0.3175323E+01  0.7546771E-02  0.2469521E+00
         22   -1    0    0    0    0  0.00000000000E+00  0.00000000000E+00  0.11102530189E+01  0.11102530189E+01  0.00000000000E+00 0.  1.
         22   -1    0    0    0    0 -0.00000000000E+00 -0.00000000000E+00 -0.13526917694E+02  0.13526917694E+02  0.00000000000E+00 0. -1.
          4    1    1    2  501    0 -0.24658377945E+01  0.15457749096E+01 -0.10403871889E+02  0.10877648017E+02  0.12700000000E+01 0. -1.
         -4    1    1    2    0  501  0.24658377945E+01 -0.15457749096E+01 -0.20127927858E+01  0.37595226956E+01  0.12700000000E+01 0.  1.
<mgrwt>
<rscale>  0 0.31753230E+01</rscale>
<asrwt>0</asrwt>
<pdfrwt beam="1">0</pdfrwt>
<pdfrwt beam="2">0</pdfrwt>
<totfact> 0.97459323E+11</totfact>
</mgrwt>
</event>
<event>
 4    1  0.1733759E+006  0.2770240E+01  0.7546771E-02  0.2600184E+00
         22   -1    0    0    0    0  0.00000000000E+00  0.00000000000E+00  0.16988983859E+00  0.16988983859E+00  0.00000000000E+00 0.  1.
         22   -1    0    0    0    0 -0.00000000000E+00 -0.00000000000E+00 -0.45298446747E+02  0.45298446747E+02  0.00000000000E+00 0. -1.
          4    1    1    2  501    0 -0.24495733002E+01 -0.24681627092E+00 -0.23766422470E+02  0.23927328824E+02  0.12700000000E+01 0.  1.
         -4    1    1    2    0  501  0.24495733002E+01  0.24681627092E+00 -0.21362134438E+02  0.21541007762E+02  0.12700000000E+01 0. -1.
<mgrwt>
<rscale>  0 0.27702396E+01</rscale>
<asrwt>0</asrwt>
<pdfrwt beam="1">0</pdfrwt>
<pdfrwt beam="2">0</pdfrwt>
<totfact> 0.17587227E+12</totfact>
</mgrwt>
</event>
<event>
 4    1  0.1733759E+006  0.2728215E+01  0.7546771E-02  0.2615736E+00
         22   -1    0    0    0    0  0.00000000000E+00  0.00000000000E+00  0.30939147108E+01  0.30939147108E+01  0.00000000000E+00 0. -1.
         22   -1    0    0    0    0 -0.00000000000E+00 -0.00000000000E+00 -0.29438022676E+01  0.29438022676E+01  0.00000000000E+00 0.  1.
          4    1    1    2  501    0  0.23997836214E+01 -0.26701247908E+00 -0.12155814947E+01  0.29867700721E+01  0.12700000000E+01 0.  1.
         -4    1    1    2    0  501 -0.23997836214E+01  0.26701247908E+00  0.13656939378E+01  0.30509469063E+01  0.12700000000E+01 0. -1.
<mgrwt>
<rscale>  0 0.27282150E+01</rscale>
<asrwt>0</asrwt>
<pdfrwt beam="1">0</pdfrwt>
<pdfrwt beam="2">0</pdfrwt>
<totfact> 0.18401892E+12</totfact>
</mgrwt>
</event>
<event>
 4    1  0.1733759E+006  0.2035006E+01  0.7546771E-02  0.2957489E+00
         22   -1    0    0    0    0  0.00000000000E+00  0.00000000000E+00  0.23045854586E+01  0.23045854586E+01  0.00000000000E+00 0. -1.
         22   -1    0    0    0    0 -0.00000000000E+00 -0.00000000000E+00 -0.32481782081E+01  0.32481782081E+01  0.00000000000E+00 0. -1.
          4    1    1    2  501    0 -0.10821135691E+01  0.11650660135E+01 -0.23275725007E+01  0.30917377538E+01  0.12700000000E+01 0. -1.
         -4    1    1    2    0  501  0.10821135691E+01 -0.11650660135E+01  0.13839797512E+01  0.24610259129E+01  0.12700000000E+01 0. -1.
<mgrwt>
<rscale>  0 0.20350058E+01</rscale>
<asrwt>0</asrwt>
<pdfrwt beam="1">0</pdfrwt>
<pdfrwt beam="2">0</pdfrwt>
<totfact> 0.23114590E+12</totfact>
</mgrwt>
</event>
<event>
 4    1  0.1733759E+006  0.2876511E+01  0.7546771E-02  0.2562705E+00
         22   -1    0    0    0    0  0.00000000000E+00  0.00000000000E+00  0.18165393201E+01  0.18165393201E+01  0.00000000000E+00 0.  1.
         22   -1    0    0    0    0 -0.00000000000E+00 -0.00000000000E+00 -0.72565150274E+01  0.72565150274E+01  0.00000000000E+00 0. -1.
          4    1    1    2  501    0  0.11236873247E+01  0.23235190341E+01 -0.54879756135E+01  0.61961431746E+01  0.12700000000E+01 0. -1.
         -4    1    1    2    0  501 -0.11236873247E+01 -0.23235190341E+01  0.47999906191E-01  0.28769111729E+01  0.12700000000E+01 0.  1.
<mgrwt>
<rscale>  0 0.28765107E+01</rscale>
<asrwt>0</asrwt>
<pdfrwt beam="1">0</pdfrwt>
<pdfrwt beam="2">0</pdfrwt>
<totfact> 0.11763077E+12</totfact>
</mgrwt>
</event>
<event>
 4    1  0.1733759E+006  0.3461047E+01  0.7546771E-02  0.2393911E+00
         22   -1    0    0    0    0  0.00000000000E+00  0.00000000000E+00  0.60577780612E+01  0.60577780612E+01  0.00000000000E+00 0.  1.
         22   -1    0    0    0    0 -0.00000000000E+00 -0.00000000000E+00 -0.70132776722E+01  0.70132776722E+01  0.00000000000E+00 0. -1.
          4    1    1    2  501    0  0.12977220704E+01  0.29464999926E+01 -0.60157932166E+01  0.69403611436E+01  0.12700000000E+01 0. -1.
         -4    1    1    2    0  501 -0.12977220704E+01 -0.29464999926E+01  0.50602936057E+01  0.61306945898E+01  0.12700000000E+01 0.  1.
<mgrwt>
<rscale>  0 0.34610468E+01</rscale>
<asrwt>0</asrwt>
<pdfrwt beam="1">0</pdfrwt>
<pdfrwt beam="2">0</pdfrwt>
<totfact> 0.29879403E+11</totfact>
</mgrwt>
</event>
<event>
 4    1  0.1733759E+006  0.2343127E+01  0.7546771E-02  0.2782008E+00
         22   -1    0    0    0    0  0.00000000000E+00  0.00000000000E+00  0.13505364666E+01  0.13505364666E+01  0.00000000000E+00 0.  1.
         22   -1    0    0    0    0 -0.00000000000E+00 -0.00000000000E+00 -0.43248929779E+01  0.43248929779E+01  0.00000000000E+00 0. -1.
          4    1    1    2  501    0 -0.10177654111E+01  0.16856745383E+01 -0.21824967220E+01  0.32021144612E+01  0.12700000000E+01 0.  1.
         -4    1    1    2    0  501  0.10177654111E+01 -0.16856745383E+01 -0.79185978926E+00  0.24733149833E+01  0.12700000000E+01 0. -1.
<mgrwt>
<rscale>  0 0.23431272E+01</rscale>
<asrwt>0</asrwt>
<pdfrwt beam="1">0</pdfrwt>
<pdfrwt beam="2">0</pdfrwt>
<totfact> 0.30604935E+12</totfact>
</mgrwt>
</event>
<event>
 4    1  0.1733759E+006  0.2356138E+01  0.7546771E-02  0.2775565E+00
         22   -1    0    0    0    0  0.00000000000E+00  0.00000000000E+00  0.21710596460E+00  0.21710596460E+00  0.00000000000E+00 0. -1.
         22   -1    0    0    0    0 -0.00000000000E+00 -0.00000000000E+00 -0.26271505311E+02  0.26271505311E+02  0.00000000000E+00 0.  1.
          4    1    1    2  501    0  0.19834254612E+01 -0.67152985238E-01 -0.10862880304E+02  0.11115464659E+02  0.12700000000E+01 0.  1.
         -4    1    1    2    0  501 -0.19834254612E+01  0.67152985238E-01 -0.15191519043E+02  0.15373146617E+02  0.12700000000E+01 0. -1.
<mgrwt>
<rscale>  0 0.23561380E+01</rscale>
<asrwt>0</asrwt>
<pdfrwt beam="1">0</pdfrwt>
<pdfrwt beam="2">0</pdfrwt>
<totfact> 0.26956492E+12</totfact>
</mgrwt>
</event>
<event>
 4    1  0.1733759E+006  0.2116727E+01  0.7546771E-02  0.2906157E+00
         22   -1    0    0    0    0  0.00000000000E+00  0.00000000000E+00  0.44010662472E+00  0.44010662472E+00  0.00000000000E+00 0.  1.
         22   -1    0    0    0    0 -0.00000000000E+00 -0.00000000000E+00 -0.17030067241E+02  0.17030067241E+02  0.00000000000E+00 0. -1.
          4    1    1    2  501    0 -0.55459721183E+00 -0.16000172325E+01 -0.13834710588E+02  0.13995704707E+02  0.12700000000E+01 0. -1.
         -4    1    1    2    0  501  0.55459721183E+00  0.16000172325E+01 -0.27552500282E+01  0.34744691580E+01  0.12700000000E+01 0.  1.
<mgrwt>
<rscale>  0 0.21167270E+01</rscale>
<asrwt>0</asrwt>
<pdfrwt beam="1">0</pdfrwt>
<pdfrwt beam="2">0</pdfrwt>
<totfact> 0.20982486E+12</totfact>
</mgrwt>
</event>
<event>
 4    1  0.1733759E+006  0.2805869E+01  0.7546771E-02  0.2587331E+00
         22   -1    0    0    0    0  0.00000000000E+00  0.00000000000E+00  0.14113137402E+01  0.14113137402E+01  0.00000000000E+00 0. -1.
         22   -1    0    0    0    0 -0.00000000000E+00 -0.00000000000E+00 -0.12434957962E+02  0.12434957962E+02  0.00000000000E+00 0. -1.
          4    1    1    2  501    0 -0.20573991450E+01  0.14237652298E+01 -0.10652651407E+02  0.11015982964E+02  0.12700000000E+01 0. -1.
         -4    1    1    2    0  501  0.20573991450E+01 -0.14237652298E+01 -0.37099281497E+00  0.28302887380E+01  0.12700000000E+01 0. -1.
<mgrwt>
<rscale>  0 0.28058686E+01</rscale>
<asrwt>0</asrwt>
<pdfrwt beam="1">0</pdfrwt>
<pdfrwt beam="2">0</pdfrwt>
<totfact> 0.82044295E+11</totfact>
</mgrwt>
</event>
<event>
 4    1  0.1733759E+006  0.2005965E+01  0.7546771E-02  0.2976713E+00
         22   -1    0    0    0    0  0.00000000000E+00  0.00000000000E+00  0.44586087788E+01  0.44586087788E+01  0.00000000000E+00 0. -1.
         22   -1    0    0    0    0 -0.00000000000E+00 -0.00000000000E+00 -0.93938247297E+00  0.93938247297E+00  0.00000000000E+00 0. -1.
          4    1    1    2  501    0  0.38114210402E+00 -0.15052332730E+01  0.22944092328E+01  0.30476565156E+01  0.12700000000E+01 0. -1.
         -4    1    1    2    0  501 -0.38114210402E+00  0.15052332730E+01  0.12248170731E+01  0.23503347362E+01  0.12700000000E+01 0. -1.
<mgrwt>
<rscale>  0 0.20059652E+01</rscale>
<asrwt>0</asrwt>
<pdfrwt beam="1">0</pdfrwt>
<pdfrwt beam="2">0</pdfrwt>
<totfact> 0.44729459E+12</totfact>
</mgrwt>
</event>
<event>
 4    1  0.1733759E+006  0.2639040E+01  0.7546771E-02  0.2650234E+00
         22   -1    0    0    0    0  0.00000000000E+00  0.00000000000E+00  0.19324913270E+00  0.19324913270E+00  0.00000000000E+00 0.  1.
         22   -1    0    0    0    0 -0.00000000000E+00 -0.00000000000E+00 -0.37575094249E+02  0.37575094249E+02  0.00000000000E+00 0. -1.
          4    1    1    2  501    0 -0.13961122136E+01  0.18445876340E+01 -0.22508930422E+02  0.22663108383E+02  0.12700000000E+01 0.  1.
         -4    1    1    2    0  501  0.13961122136E+01 -0.18445876340E+01 -0.14872914694E+02  0.15105234999E+02  0.12700000000E+01 0.  1.
<mgrwt>
<rscale>  0 0.26390401E+01</rscale>
<asrwt>0</asrwt>
<pdfrwt beam="1">0</pdfrwt>
<pdfrwt beam="2">0</pdfrwt>
<totfact> 0.19428697E+12</totfact>
</mgrwt>
</event>
<event>
 4    1  0.1733759E+006  0.2096393E+01  0.7546771E-02  0.2918566E+00
         22   -1    0    0    0    0  0.00000000000E+00  0.00000000000E+00  0.44150950837E+01  0.44150950837E+01  0.00000000000E+00 0. -1.
         22   -1    0    0    0    0 -0.00000000000E+00 -0.00000000000E+00 -0.99875555588E+00  0.99875555588E+00  0.00000000000E+00 0.  1.
          4    1    1    2  501    0 -0.11578263291E+01 -0.12005834686E+01  0.18646645637E+01  0.28056793132E+01  0.12700000000E+01 0. -1.
         -4    1    1    2    0  501  0.11578263291E+01  0.12005834686E+01  0.15516749641E+01  0.26081713264E+01  0.12700000000E+01 0.  1.
<mgrwt>
<rscale>  0 0.20963927E+01</rscale>
<asrwt>0</asrwt>
<pdfrwt beam="1">0</pdfrwt>
<pdfrwt beam="2">0</pdfrwt>
<totfact> 0.42194344E+12</totfact>
</mgrwt>
</event>
<event>
 4    1  0.1733759E+006  0.3402398E+01  0.7546771E-02  0.2408519E+00
         22   -1    0    0    0    0  0.00000000000E+00  0.00000000000E+00  0.23725560125E+01  0.23725560125E+01  0.00000000000E+00 0. -1.
         22   -1    0    0    0    0 -0.00000000000E+00 -0.00000000000E+00 -0.90714349054E+01  0.90714349054E+01  0.00000000000E+00 0.  1.
          4    1    1    2  501    0  0.22564106541E+01 -0.22072653245E+01 -0.72392584601E+01  0.79989481999E+01  0.12700000000E+01 0.  1.
         -4    1    1    2    0  501 -0.22564106541E+01  0.22072653245E+01  0.54037956716E+00  0.34450427181E+01  0.12700000000E+01 0. -1.
<mgrwt>
<rscale>  0 0.34023976E+01</rscale>
<asrwt>0</asrwt>
<pdfrwt beam="1">0</pdfrwt>
<pdfrwt beam="2">0</pdfrwt>
<totfact> 0.66015898E+11</totfact>
</mgrwt>
</event>
<event>
 4    1  0.1733759E+006  0.2855649E+01  0.7546771E-02  0.2569863E+00
         22   -1    0    0    0    0  0.00000000000E+00  0.00000000000E+00  0.84859497939E+00  0.84859497939E+00  0.00000000000E+00 0.  1.
         22   -1    0    0    0    0 -0.00000000000E+00 -0.00000000000E+00 -0.19403318570E+02  0.19403318570E+02  0.00000000000E+00 0. -1.
          4    1    1    2  501    0  0.19548422613E+01  0.16493704153E+01 -0.16471354152E+02  0.16717064295E+02  0.12700000000E+01 0. -1.
         -4    1    1    2    0  501 -0.19548422613E+01 -0.16493704153E+01 -0.20833694380E+01  0.35348492541E+01  0.12700000000E+01 0.  1.
<mgrwt>
<rscale>  0 0.28556490E+01</rscale>
<asrwt>0</asrwt>
<pdfrwt beam="1">0</pdfrwt>
<pdfrwt beam="2">0</pdfrwt>
<totfact> 0.84832217E+11</totfact>
</mgrwt>
</event>
<event>
 4    1  0.1733759E+006  0.2022512E+01  0.7546771E-02  0.2965693E+00
         22   -1    0    0    0    0  0.00000000000E+00  0.00000000000E+00  0.13730044811E+01  0.13730044811E+01  0.00000000000E+00 0. -1.
         22   -1    0    0    0    0 -0.00000000000E+00 -0.00000000000E+00 -0.29876397567E+01  0.29876397567E+01  0.00000000000E+00 0. -1.
          4    1    1    2  501    0 -0.97618528288E+00  0.12347943648E+01 -0.92270061029E+00  0.22230454890E+01  0.12700000000E+01 0. -1.
         -4    1    1    2    0  501  0.97618528288E+00 -0.12347943648E+01 -0.69193466531E+00  0.21375987488E+01  0.12700000000E+01 0. -1.
<mgrwt>
<rscale>  0 0.20225120E+01</rscale>
<asrwt>0</asrwt>
<pdfrwt beam="1">0</pdfrwt>
<pdfrwt beam="2">0</pdfrwt>
<totfact> 0.46350679E+12</totfact>
</mgrwt>
</event>
<event>
 4    1  0.1733759E+006  0.2079563E+01  0.7546771E-02  0.2929015E+00
         22   -1    0    0    0    0  0.00000000000E+00  0.00000000000E+00  0.47213513149E+01  0.47213513149E+01  0.00000000000E+00 0. -1.
         22   -1    0    0    0    0 -0.00000000000E+00 -0.00000000000E+00 -0.92597747407E+00  0.92597747407E+00  0.00000000000E+00 0.  1.
          4    1    1    2  501    0  0.16263669438E+01  0.25809559325E+00  0.16040379270E+01  0.26263130891E+01  0.12700000000E+01 0. -1.
         -4    1    1    2    0  501 -0.16263669438E+01 -0.25809559325E+00  0.21913359139E+01  0.30210156998E+01  0.12700000000E+01 0.  1.
<mgrwt>
<rscale>  0 0.20795631E+01</rscale>
<asrwt>0</asrwt>
<pdfrwt beam="1">0</pdfrwt>
<pdfrwt beam="2">0</pdfrwt>
<totfact> 0.42496419E+12</totfact>
</mgrwt>
</event>
<event>
 4    1  0.1733759E+006  0.2381502E+01  0.7546771E-02  0.2763195E+00
         22   -1    0    0    0    0  0.00000000000E+00  0.00000000000E+00  0.31568146401E+01  0.31568146401E+01  0.00000000000E+00 0.  1.
         22   -1    0    0    0    0 -0.00000000000E+00 -0.00000000000E+00 -0.19256928521E+01  0.19256928521E+01  0.00000000000E+00 0.  1.
          4    1    1    2  501    0  0.72706144635E+00 -0.18788385709E+01  0.12735144045E+01  0.27006280123E+01  0.12700000000E+01 0.  1.
         -4    1    1    2    0  501 -0.72706144635E+00  0.18788385709E+01 -0.42392616539E-01  0.23818794798E+01  0.12700000000E+01 0.  1.
<mgrwt>
<rscale>  0 0.23815022E+01</rscale>
<asrwt>0</asrwt>
<pdfrwt beam="1">0</pdfrwt>
<pdfrwt beam="2">0</pdfrwt>
<totfact> 0.29431040E+12</totfact>
</mgrwt>
</event>
<event>
 4    1  0.1733759E+006  0.2805394E+01  0.7546771E-02  0.2587501E+00
         22   -1    0    0    0    0  0.00000000000E+00  0.00000000000E+00  0.28403734501E+01  0.28403734501E+01  0.00000000000E+00 0. -1.
         22   -1    0    0    0    0 -0.00000000000E+00 -0.00000000000E+00 -0.42669788230E+01  0.42669788230E+01  0.00000000000E+00 0. -1.
          4    1    1    2  501    0 -0.15760041520E+00 -0.24964968138E+01 -0.28175793562E+01  0.39760517679E+01  0.12700000000E+01 0. -1.
         -4    1    1    2    0  501  0.15760041520E+00  0.24964968138E+01  0.13909739833E+01  0.31313005053E+01  0.12700000000E+01 0. -1.
<mgrwt>
<rscale>  0 0.28053938E+01</rscale>
<asrwt>0</asrwt>
<pdfrwt beam="1">0</pdfrwt>
<pdfrwt beam="2">0</pdfrwt>
<totfact> 0.13155632E+12</totfact>
</mgrwt>
</event>
<event>
 4    1  0.1733759E+006  0.2242020E+01  0.7546771E-02  0.2834491E+00
         22   -1    0    0    0    0  0.00000000000E+00  0.00000000000E+00  0.16813222697E+02  0.16813222697E+02  0.00000000000E+00 0. -1.
         22   -1    0    0    0    0 -0.00000000000E+00 -0.00000000000E+00 -0.92203643548E+00  0.92203643548E+00  0.00000000000E+00 0. -1.
          4    1    1    2  501    0 -0.58413193709E-01 -0.18467112192E+01  0.65604562087E+00  0.23360330231E+01  0.12700000000E+01 0. -1.
         -4    1    1    2    0  501  0.58413193709E-01  0.18467112192E+01  0.15235140640E+02  0.15399226109E+02  0.12700000000E+01 0. -1.
<mgrwt>
<rscale>  0 0.22420202E+01</rscale>
<asrwt>0</asrwt>
<pdfrwt beam="1">0</pdfrwt>
<pdfrwt beam="2">0</pdfrwt>
<totfact> 0.92188694E+11</totfact>
</mgrwt>
</event>
<event>
 4    1  0.1733759E+006  0.3233706E+01  0.7546771E-02  0.2453116E+00
         22   -1    0    0    0    0  0.00000000000E+00  0.00000000000E+00  0.11761586018E+02  0.11761586018E+02  0.00000000000E+00 0. -1.
         22   -1    0    0    0    0 -0.00000000000E+00 -0.00000000000E+00 -0.16645946795E+01  0.16645946795E+01  0.00000000000E+00 0.  1.
          4    1    1    2  501    0 -0.76665122598E-01 -0.29728900402E+01  0.46637479202E+00  0.32671636291E+01  0.12700000000E+01 0. -1.
         -4    1    1    2    0  501  0.76665122598E-01  0.29728900402E+01  0.96306165469E+01  0.10159017069E+02  0.12700000000E+01 0.  1.
<mgrwt>
<rscale>  0 0.32337057E+01</rscale>
<asrwt>0</asrwt>
<pdfrwt beam="1">0</pdfrwt>
<pdfrwt beam="2">0</pdfrwt>
<totfact> 0.72614669E+11</totfact>
</mgrwt>
</event>
<event>
 4    1  0.1733759E+006  0.2644259E+01  0.7546771E-02  0.2648156E+00
         22   -1    0    0    0    0  0.00000000000E+00  0.00000000000E+00  0.20829627249E+00  0.20829627249E+00  0.00000000000E+00 0. -1.
         22   -1    0    0    0    0 -0.00000000000E+00 -0.00000000000E+00 -0.38161974882E+02  0.38161974882E+02  0.00000000000E+00 0.  1.
          4    1    1    2  501    0 -0.10575020725E+01  0.20641933951E+01 -0.25633251235E+02  0.25769277714E+02  0.12700000000E+01 0.  1.
         -4    1    1    2    0  501  0.10575020725E+01 -0.20641933951E+01 -0.12320427374E+02  0.12600993440E+02  0.12700000000E+01 0. -1.
<mgrwt>
<rscale>  0 0.26442589E+01</rscale>
<asrwt>0</asrwt>
<pdfrwt beam="1">0</pdfrwt>
<pdfrwt beam="2">0</pdfrwt>
<totfact> 0.17515082E+12</totfact>
</mgrwt>
</event>
<event>
 4    1  0.1733759E+006  0.2254617E+01  0.7546771E-02  0.2827708E+00
         22   -1    0    0    0    0  0.00000000000E+00  0.00000000000E+00  0.14995771789E+01  0.14995771789E+01  0.00000000000E+00 0. -1.
         22   -1    0    0    0    0 -0.00000000000E+00 -0.00000000000E+00 -0.33963365646E+01  0.33963365646E+01  0.00000000000E+00 0.  1.
          4    1    1    2  501    0  0.29745310835E+00  0.18389994815E+01 -0.10556035654E+01  0.24894972046E+01  0.12700000000E+01 0.  1.
         -4    1    1    2    0  501 -0.29745310835E+00 -0.18389994815E+01 -0.84115582028E+00  0.24064165389E+01  0.12700000000E+01 0. -1.
<mgrwt>
<rscale>  0 0.22546169E+01</rscale>
<asrwt>0</asrwt>
<pdfrwt beam="1">0</pdfrwt>
<pdfrwt beam="2">0</pdfrwt>
<totfact> 0.36050348E+12</totfact>
</mgrwt>
</event>
<event>
 4    1  0.1733759E+006  0.2355845E+01  0.7546771E-02  0.2775709E+00
         22   -1    0    0    0    0  0.00000000000E+00  0.00000000000E+00  0.32916235442E+00  0.32916235442E+00  0.00000000000E+00 0. -1.
         22   -1    0    0    0    0 -0.00000000000E+00 -0.00000000000E+00 -0.30942614282E+02  0.30942614282E+02  0.00000000000E+00 0. -1.
          4    1    1    2  501    0  0.86682492529E+00 -0.17848584861E+01 -0.25854731179E+02  0.25961839873E+02  0.12700000000E+01 0. -1.
         -4    1    1    2    0  501 -0.86682492529E+00  0.17848584861E+01 -0.47587207494E+01  0.53099367639E+01  0.12700000000E+01 0. -1.
<mgrwt>
<rscale>  0 0.23558449E+01</rscale>
<asrwt>0</asrwt>
<pdfrwt beam="1">0</pdfrwt>
<pdfrwt beam="2">0</pdfrwt>
<totfact> 0.13740422E+12</totfact>
</mgrwt>
</event>
<event>
 4    1  0.1733759E+006  0.2231549E+01  0.7546771E-02  0.2840185E+00
         22   -1    0    0    0    0  0.00000000000E+00  0.00000000000E+00  0.14998102653E+00  0.14998102653E+00  0.00000000000E+00 0. -1.
         22   -1    0    0    0    0 -0.00000000000E+00 -0.00000000000E+00 -0.37009647053E+02  0.37009647053E+02  0.00000000000E+00 0. -1.
          4    1    1    2  501    0 -0.16059880662E+00  0.18278728474E+01 -0.24388629903E+02  0.24490509992E+02  0.12700000000E+01 0. -1.
         -4    1    1    2    0  501  0.16059880662E+00 -0.18278728474E+01 -0.12471036123E+02  0.12669118088E+02  0.12700000000E+01 0. -1.
<mgrwt>
<rscale>  0 0.22315490E+01</rscale>
<asrwt>0</asrwt>
<pdfrwt beam="1">0</pdfrwt>
<pdfrwt beam="2">0</pdfrwt>
<totfact> 0.26272320E+12</totfact>
</mgrwt>
</event>
<event>
 4    1  0.1733759E+006  0.2649512E+01  0.7546771E-02  0.2646072E+00
         22   -1    0    0    0    0  0.00000000000E+00  0.00000000000E+00  0.72677339776E+01  0.72677339776E+01  0.00000000000E+00 0. -1.
         22   -1    0    0    0    0 -0.00000000000E+00 -0.00000000000E+00 -0.98406327569E+00  0.98406327569E+00  0.00000000000E+00 0.  1.
          4    1    1    2  501    0  0.81021478672E+00  0.21795798425E+01  0.37023465824E+01  0.45527229771E+01  0.12700000000E+01 0. -1.
         -4    1    1    2    0  501 -0.81021478672E+00 -0.21795798425E+01  0.25813241195E+01  0.36990742762E+01  0.12700000000E+01 0.  1.
<mgrwt>
<rscale>  0 0.26495125E+01</rscale>
<asrwt>0</asrwt>
<pdfrwt beam="1">0</pdfrwt>
<pdfrwt beam="2">0</pdfrwt>
<totfact> 0.23734503E+12</totfact>
</mgrwt>
</event>
<event>
 4    1  0.1733759E+006  0.2557205E+01  0.7546771E-02  0.2683835E+00
         22   -1    0    0    0    0  0.00000000000E+00  0.00000000000E+00  0.45126801334E+01  0.45126801334E+01  0.00000000000E+00 0.  1.
         22   -1    0    0    0    0 -0.00000000000E+00 -0.00000000000E+00 -0.22176297063E+01  0.22176297063E+01  0.00000000000E+00 0. -1.
          4    1    1    2  501    0  0.14532169220E+01 -0.16776646808E+01 -0.83351157571E+00  0.26896170268E+01  0.12700000000E+01 0. -1.
         -4    1    1    2    0  501 -0.14532169220E+01  0.16776646808E+01  0.31285620027E+01  0.40406928130E+01  0.12700000000E+01 0.  1.
<mgrwt>
<rscale>  0 0.25572052E+01</rscale>
<asrwt>0</asrwt>
<pdfrwt beam="1">0</pdfrwt>
<pdfrwt beam="2">0</pdfrwt>
<totfact> 0.16423429E+12</totfact>
</mgrwt>
</event>
<event>
 4    1  0.1733759E+006  0.3284156E+01  0.7546771E-02  0.2439356E+00
         22   -1    0    0    0    0  0.00000000000E+00  0.00000000000E+00  0.48711836364E+00  0.48711836364E+00  0.00000000000E+00 0.  1.
         22   -1    0    0    0    0 -0.00000000000E+00 -0.00000000000E+00 -0.23366062415E+02  0.23366062415E+02  0.00000000000E+00 0.  1.
          4    1    1    2  501    0 -0.16997730847E+01 -0.25067014803E+01 -0.14169452457E+02  0.14545070085E+02  0.12700000000E+01 0.  1.
         -4    1    1    2    0  501  0.16997730847E+01  0.25067014803E+01 -0.87094915943E+01  0.93081106935E+01  0.12700000000E+01 0.  1.
<mgrwt>
<rscale>  0 0.32841560E+01</rscale>
<asrwt>0</asrwt>
<pdfrwt beam="1">0</pdfrwt>
<pdfrwt beam="2">0</pdfrwt>
<totfact> 0.12615008E+12</totfact>
</mgrwt>
</event>
<event>
 4    1  0.1733759E+006  0.7146500E+01  0.7546771E-02  0.1929931E+00
         22   -1    0    0    0    0  0.00000000000E+00  0.00000000000E+00  0.55323118298E+01  0.55323118298E+01  0.00000000000E+00 0. -1.
         22   -1    0    0    0    0 -0.00000000000E+00 -0.00000000000E+00 -0.25095318091E+02  0.25095318091E+02  0.00000000000E+00 0.  1.
          4    1    1    2  501    0 -0.37707169989E+01  0.59364342625E+01 -0.21957054086E+02  0.23090792160E+02  0.12700000000E+01 0.  1.
         -4    1    1    2    0  501  0.37707169989E+01 -0.59364342625E+01  0.23940478252E+01  0.75368377605E+01  0.12700000000E+01 0. -1.
<mgrwt>
<rscale>  0 0.71464997E+01</rscale>
<asrwt>0</asrwt>
<pdfrwt beam="1">0</pdfrwt>
<pdfrwt beam="2">0</pdfrwt>
<totfact> 0.69749612E+10</totfact>
</mgrwt>
</event>
<event>
 4    1  0.1733759E+006  0.3152688E+01  0.7546771E-02  0.2476025E+00
         22   -1    0    0    0    0  0.00000000000E+00  0.00000000000E+00  0.17051703053E+02  0.17051703053E+02  0.00000000000E+00 0. -1.
         22   -1    0    0    0    0 -0.00000000000E+00 -0.00000000000E+00 -0.44301007215E+01  0.44301007215E+01  0.00000000000E+00 0.  1.
          4    1    1    2  501    0  0.21659516931E+01  0.19066194363E+01 -0.36985597662E+01  0.48599165379E+01  0.12700000000E+01 0.  1.
         -4    1    1    2    0  501 -0.21659516931E+01 -0.19066194363E+01  0.16320162098E+02  0.16621887237E+02  0.12700000000E+01 0. -1.
<mgrwt>
<rscale>  0 0.31526884E+01</rscale>
<asrwt>0</asrwt>
<pdfrwt beam="1">0</pdfrwt>
<pdfrwt beam="2">0</pdfrwt>
<totfact> 0.14703139E+11</totfact>
</mgrwt>
</event>
<event>
 4    1  0.1733759E+006  0.3332456E+01  0.7546771E-02  0.2426527E+00
         22   -1    0    0    0    0  0.00000000000E+00  0.00000000000E+00  0.40474877273E+01  0.40474877273E+01  0.00000000000E+00 0.  1.
         22   -1    0    0    0    0 -0.00000000000E+00 -0.00000000000E+00 -0.34476023643E+01  0.34476023643E+01  0.00000000000E+00 0.  1.
          4    1    1    2  501    0 -0.24511513641E+01  0.18666069853E+01 -0.13933472872E+01  0.36120190074E+01  0.12700000000E+01 0.  1.
         -4    1    1    2    0  501  0.24511513641E+01 -0.18666069853E+01  0.19932326502E+01  0.38830710842E+01  0.12700000000E+01 0.  1.
<mgrwt>
<rscale>  0 0.33324562E+01</rscale>
<asrwt>0</asrwt>
<pdfrwt beam="1">0</pdfrwt>
<pdfrwt beam="2">0</pdfrwt>
<totfact> 0.11161845E+12</totfact>
</mgrwt>
</event>
<event>
 4    1  0.1733759E+006  0.2285658E+01  0.7546771E-02  0.2811298E+00
         22   -1    0    0    0    0  0.00000000000E+00  0.00000000000E+00  0.50168710309E+01  0.50168710309E+01  0.00000000000E+00 0.  1.
         22   -1    0    0    0    0 -0.00000000000E+00 -0.00000000000E+00 -0.12556222398E+02  0.12556222398E+02  0.00000000000E+00 0.  1.
          4    1    1    2  501    0  0.18321778665E+01 -0.50443806124E+00 -0.12183987608E+02  0.12396523203E+02  0.12700000000E+01 0.  1.
         -4    1    1    2    0  501 -0.18321778665E+01  0.50443806124E+00  0.46446362409E+01  0.51765702258E+01  0.12700000000E+01 0.  1.
<mgrwt>
<rscale>  0 0.22856582E+01</rscale>
<asrwt>0</asrwt>
<pdfrwt beam="1">0</pdfrwt>
<pdfrwt beam="2">0</pdfrwt>
<totfact> 0.18489671E+11</totfact>
</mgrwt>
</event>
<event>
 4    1  0.1733759E+006  0.2167571E+01  0.7546771E-02  0.2876115E+00
         22   -1    0    0    0    0  0.00000000000E+00  0.00000000000E+00  0.30762627460E+01  0.30762627460E+01  0.00000000000E+00 0.  1.
         22   -1    0    0    0    0 -0.00000000000E+00 -0.00000000000E+00 -0.20921527544E+01  0.20921527544E+01  0.00000000000E+00 0.  1.
          4    1    1    2  501    0 -0.20094658591E+00  0.17450175862E+01 -0.85070881395E+00  0.23285341726E+01  0.12700000000E+01 0.  1.
         -4    1    1    2    0  501  0.20094658591E+00 -0.17450175862E+01  0.18348188056E+01  0.28398813278E+01  0.12700000000E+01 0.  1.
<mgrwt>
<rscale>  0 0.21675714E+01</rscale>
<asrwt>0</asrwt>
<pdfrwt beam="1">0</pdfrwt>
<pdfrwt beam="2">0</pdfrwt>
<totfact> 0.27557367E+12</totfact>
</mgrwt>
</event>
<event>
 4    1  0.1733759E+006  0.2021673E+01  0.7546771E-02  0.2966247E+00
         22   -1    0    0    0    0  0.00000000000E+00  0.00000000000E+00  0.11323332159E+01  0.11323332159E+01  0.00000000000E+00 0. -1.
         22   -1    0    0    0    0 -0.00000000000E+00 -0.00000000000E+00 -0.42947157408E+01  0.42947157408E+01  0.00000000000E+00 0.  1.
          4    1    1    2  501    0 -0.10310734517E+01 -0.11879186437E+01 -0.26650642659E+01  0.33451054854E+01  0.12700000000E+01 0.  1.
         -4    1    1    2    0  501  0.10310734517E+01  0.11879186437E+01 -0.49731825899E+00  0.20819434713E+01  0.12700000000E+01 0. -1.
<mgrwt>
<rscale>  0 0.20216734E+01</rscale>
<asrwt>0</asrwt>
<pdfrwt beam="1">0</pdfrwt>
<pdfrwt beam="2">0</pdfrwt>
<totfact> 0.37764294E+12</totfact>
</mgrwt>
</event>
<event>
 4    1  0.1733759E+006  0.3101148E+01  0.7546771E-02  0.2491152E+00
         22   -1    0    0    0    0  0.00000000000E+00  0.00000000000E+00  0.60328974889E+01  0.60328974889E+01  0.00000000000E+00 0.  1.
         22   -1    0    0    0    0 -0.00000000000E+00 -0.00000000000E+00 -0.27843718614E+01  0.27843718614E+01  0.00000000000E+00 0. -1.
          4    1    1    2  501    0  0.27096351776E+01 -0.81369163821E+00 -0.12581840479E+01  0.33466616166E+01  0.12700000000E+01 0. -1.
         -4    1    1    2    0  501 -0.27096351776E+01  0.81369163821E+00  0.45067096754E+01  0.54706077337E+01  0.12700000000E+01 0.  1.
<mgrwt>
<rscale>  0 0.31011477E+01</rscale>
<asrwt>0</asrwt>
<pdfrwt beam="1">0</pdfrwt>
<pdfrwt beam="2">0</pdfrwt>
<totfact> 0.89338300E+11</totfact>
</mgrwt>
</event>
<event>
 4    1  0.1733759E+006  0.2230323E+01  0.7546771E-02  0.2840855E+00
         22   -1    0    0    0    0  0.00000000000E+00  0.00000000000E+00  0.15864670333E+00  0.15864670333E+00  0.00000000000E+00 0. -1.
         22   -1    0    0    0    0 -0.00000000000E+00 -0.00000000000E+00 -0.35585871015E+02  0.35585871015E+02  0.00000000000E+00 0. -1.
          4    1    1    2  501    0  0.17621997671E+01  0.50605575358E+00 -0.23876216039E+02  0.23980159149E+02  0.12700000000E+01 0. -1.
         -4    1    1    2    0  501 -0.17621997671E+01 -0.50605575358E+00 -0.11551008272E+02  0.11764358569E+02  0.12700000000E+01 0. -1.
<mgrwt>
<rscale>  0 0.22303229E+01</rscale>
<asrwt>0</asrwt>
<pdfrwt beam="1">0</pdfrwt>
<pdfrwt beam="2">0</pdfrwt>
<totfact> 0.25961888E+12</totfact>
</mgrwt>
</event>
<event>
 4    1  0.1733759E+006  0.4941676E+01  0.7546771E-02  0.2130030E+00
         22   -1    0    0    0    0  0.00000000000E+00  0.00000000000E+00  0.48338887687E+01  0.48338887687E+01  0.00000000000E+00 0. -1.
         22   -1    0    0    0    0 -0.00000000000E+00 -0.00000000000E+00 -0.80501855657E+01  0.80501855657E+01  0.00000000000E+00 0.  1.
          4    1    1    2  501    0  0.45654987176E+01  0.14012448243E+01 -0.55396560999E+01  0.74234732641E+01  0.12700000000E+01 0.  1.
         -4    1    1    2    0  501 -0.45654987176E+01 -0.14012448243E+01  0.23233593030E+01  0.54606010703E+01  0.12700000000E+01 0. -1.
<mgrwt>
<rscale>  0 0.49416764E+01</rscale>
<asrwt>0</asrwt>
<pdfrwt beam="1">0</pdfrwt>
<pdfrwt beam="2">0</pdfrwt>
<totfact> 0.33105242E+11</totfact>
</mgrwt>
</event>
<event>
 4    1  0.1733759E+006  0.2709791E+01  0.7546771E-02  0.2622693E+00
         22   -1    0    0    0    0  0.00000000000E+00  0.00000000000E+00  0.38397804145E+01  0.38397804145E+01  0.00000000000E+00 0.  1.
         22   -1    0    0    0    0 -0.00000000000E+00 -0.00000000000E+00 -0.89286565252E+01  0.89286565252E+01  0.00000000000E+00 0.  1.
          4    1    1    2  501    0  0.23924209183E+01  0.79936676014E-01 -0.82038232205E+01  0.86397733278E+01  0.12700000000E+01 0.  1.
         -4    1    1    2    0  501 -0.23924209183E+01 -0.79936676014E-01  0.31149471099E+01  0.41286636119E+01  0.12700000000E+01 0.  1.
<mgrwt>
<rscale>  0 0.27097911E+01</rscale>
<asrwt>0</asrwt>
<pdfrwt beam="1">0</pdfrwt>
<pdfrwt beam="2">0</pdfrwt>
<totfact> 0.38339060E+11</totfact>
</mgrwt>
</event>
<event>
 4    1  0.1733759E+006  0.3429065E+01  0.7546771E-02  0.2401823E+00
         22   -1    0    0    0    0  0.00000000000E+00  0.00000000000E+00  0.40275715921E+01  0.40275715921E+01  0.00000000000E+00 0.  1.
         22   -1    0    0    0    0 -0.00000000000E+00 -0.00000000000E+00 -0.43795572048E+01  0.43795572048E+01  0.00000000000E+00 0. -1.
          4    1    1    2  501    0 -0.15315786875E+01  0.27928216099E+01 -0.26030940233E+01  0.43051811013E+01  0.12700000000E+01 0. -1.
         -4    1    1    2    0  501  0.15315786875E+01 -0.27928216099E+01  0.22511084106E+01  0.41019476956E+01  0.12700000000E+01 0.  1.
<mgrwt>
<rscale>  0 0.34290649E+01</rscale>
<asrwt>0</asrwt>
<pdfrwt beam="1">0</pdfrwt>
<pdfrwt beam="2">0</pdfrwt>
<totfact> 0.84736388E+11</totfact>
</mgrwt>
</event>
<event>
 4    1  0.1733759E+006  0.3207810E+01  0.7546771E-02  0.2460327E+00
         22   -1    0    0    0    0  0.00000000000E+00  0.00000000000E+00  0.15016304198E+02  0.15016304198E+02  0.00000000000E+00 0. -1.
         22   -1    0    0    0    0 -0.00000000000E+00 -0.00000000000E+00 -0.22462899858E+01  0.22462899858E+01  0.00000000000E+00 0.  1.
          4    1    1    2  501    0 -0.28268857115E+01 -0.82816945185E+00 -0.81029462622E+00  0.33085683986E+01  0.12700000000E+01 0.  1.
         -4    1    1    2    0  501  0.28268857115E+01  0.82816945185E+00  0.13580308838E+02  0.13954025785E+02  0.12700000000E+01 0. -1.
<mgrwt>
<rscale>  0 0.32078104E+01</rscale>
<asrwt>0</asrwt>
<pdfrwt beam="1">0</pdfrwt>
<pdfrwt beam="2">0</pdfrwt>
<totfact> 0.38069070E+11</totfact>
</mgrwt>
</event>
<event>
 4    1  0.1733759E+006  0.2896926E+01  0.7546771E-02  0.2555791E+00
         22   -1    0    0    0    0  0.00000000000E+00  0.00000000000E+00  0.22362935791E+00  0.22362935791E+00  0.00000000000E+00 0.  1.
         22   -1    0    0    0    0 -0.00000000000E+00 -0.00000000000E+00 -0.43306709548E+02  0.43306709548E+02  0.00000000000E+00 0. -1.
          4    1    1    2  501    0  0.10757145254E+01 -0.23711000957E+01 -0.29492709375E+02  0.29634643303E+02  0.12700000000E+01 0. -1.
         -4    1    1    2    0  501 -0.10757145254E+01  0.23711000957E+01 -0.13590370815E+02  0.13895695603E+02  0.12700000000E+01 0.  1.
<mgrwt>
<rscale>  0 0.28969255E+01</rscale>
<asrwt>0</asrwt>
<pdfrwt beam="1">0</pdfrwt>
<pdfrwt beam="2">0</pdfrwt>
<totfact> 0.13728095E+12</totfact>
</mgrwt>
</event>
<event>
 4    1  0.1733759E+006  0.2634465E+01  0.7546771E-02  0.2652062E+00
         22   -1    0    0    0    0  0.00000000000E+00  0.00000000000E+00  0.52858808993E+02  0.52858808993E+02  0.00000000000E+00 0. -1.
         22   -1    0    0    0    0 -0.00000000000E+00 -0.00000000000E+00 -0.49737346936E+00  0.49737346936E+00  0.00000000000E+00 0.  1.
          4    1    1    2  501    0  0.29229502457E+00 -0.22895567488E+01  0.32932856219E+01  0.42173613403E+01  0.12700000000E+01 0.  1.
         -4    1    1    2    0  501 -0.29229502457E+00  0.22895567488E+01  0.49068149902E+02  0.49138821122E+02  0.12700000000E+01 0. -1.
<mgrwt>
<rscale>  0 0.26344651E+01</rscale>
<asrwt>0</asrwt>
<pdfrwt beam="1">0</pdfrwt>
<pdfrwt beam="2">0</pdfrwt>
<totfact> 0.43051329E+11</totfact>
</mgrwt>
</event>
<event>
 4    1  0.1733759E+006  0.2445718E+01  0.7546771E-02  0.2732956E+00
         22   -1    0    0    0    0  0.00000000000E+00  0.00000000000E+00  0.82676129078E+01  0.82676129078E+01  0.00000000000E+00 0.  1.
         22   -1    0    0    0    0 -0.00000000000E+00 -0.00000000000E+00 -0.12183614326E+01  0.12183614326E+01  0.00000000000E+00 0. -1.
          4    1    1    2  501    0 -0.19684566895E+01 -0.70271876185E+00  0.50182121470E+00  0.24966697675E+01  0.12700000000E+01 0. -1.
         -4    1    1    2    0  501  0.19684566895E+01  0.70271876185E+00  0.65474302605E+01  0.69893045729E+01  0.12700000000E+01 0.  1.
<mgrwt>
<rscale>  0 0.24457178E+01</rscale>
<asrwt>0</asrwt>
<pdfrwt beam="1">0</pdfrwt>
<pdfrwt beam="2">0</pdfrwt>
<totfact> 0.15925553E+12</totfact>
</mgrwt>
</event>
<event>
 4    1  0.1733759E+006  0.2277189E+01  0.7546771E-02  0.2815733E+00
         22   -1    0    0    0    0  0.00000000000E+00  0.00000000000E+00  0.69996068781E+01  0.69996068781E+01  0.00000000000E+00 0.  1.
         22   -1    0    0    0    0 -0.00000000000E+00 -0.00000000000E+00 -0.81814032788E+00  0.81814032788E+00  0.00000000000E+00 0. -1.
          4    1    1    2  501    0 -0.14835427501E+01 -0.11712346725E+01  0.18892215926E+01  0.29588423370E+01  0.12700000000E+01 0. -1.
         -4    1    1    2    0  501  0.14835427501E+01  0.11712346725E+01  0.42922449576E+01  0.48589048689E+01  0.12700000000E+01 0.  1.
<mgrwt>
<rscale>  0 0.22771890E+01</rscale>
<asrwt>0</asrwt>
<pdfrwt beam="1">0</pdfrwt>
<pdfrwt beam="2">0</pdfrwt>
<totfact> 0.30641649E+12</totfact>
</mgrwt>
</event>
<event>
 4    1  0.1733759E+006  0.2526510E+01  0.7546771E-02  0.2696957E+00
         22   -1    0    0    0    0  0.00000000000E+00  0.00000000000E+00  0.14265937809E+02  0.14265937809E+02  0.00000000000E+00 0. -1.
         22   -1    0    0    0    0 -0.00000000000E+00 -0.00000000000E+00 -0.18167252218E+01  0.18167252218E+01  0.00000000000E+00 0.  1.
          4    1    1    2  501    0 -0.49359540156E+00  0.21276082619E+01 -0.75657906796E+00  0.26373595171E+01  0.12700000000E+01 0.  1.
         -4    1    1    2    0  501  0.49359540156E+00 -0.21276082619E+01  0.13205791656E+02  0.13445303514E+02  0.12700000000E+01 0. -1.
<mgrwt>
<rscale>  0 0.25265101E+01</rscale>
<asrwt>0</asrwt>
<pdfrwt beam="1">0</pdfrwt>
<pdfrwt beam="2">0</pdfrwt>
<totfact> 0.51837437E+11</totfact>
</mgrwt>
</event>
<event>
 4    1  0.1733759E+006  0.2158985E+01  0.7546771E-02  0.2881092E+00
         22   -1    0    0    0    0  0.00000000000E+00  0.00000000000E+00  0.22078497421E+01  0.22078497421E+01  0.00000000000E+00 0.  1.
         22   -1    0    0    0    0 -0.00000000000E+00 -0.00000000000E+00 -0.54626304963E+01  0.54626304963E+01  0.00000000000E+00 0. -1.
          4    1    1    2  501    0  0.14467863319E+01  0.97730591178E+00 -0.46314365558E+01  0.51099336694E+01  0.12700000000E+01 0. -1.
         -4    1    1    2    0  501 -0.14467863319E+01 -0.97730591178E+00  0.13766558016E+01  0.25605465689E+01  0.12700000000E+01 0.  1.
<mgrwt>
<rscale>  0 0.21589853E+01</rscale>
<asrwt>0</asrwt>
<pdfrwt beam="1">0</pdfrwt>
<pdfrwt beam="2">0</pdfrwt>
<totfact> 0.13165939E+12</totfact>
</mgrwt>
</event>
<event>
 4    1  0.1733759E+006  0.3310321E+01  0.7546771E-02  0.2432365E+00
         22   -1    0    0    0    0  0.00000000000E+00  0.00000000000E+00  0.35433446416E+00  0.35433446416E+00  0.00000000000E+00 0. -1.
         22   -1    0    0    0    0 -0.00000000000E+00 -0.00000000000E+00 -0.30926796591E+02  0.30926796591E+02  0.00000000000E+00 0. -1.
          4    1    1    2  501    0  0.27314608388E+01  0.13727523219E+01 -0.15218972367E+02  0.15574830566E+02  0.12700000000E+01 0. -1.
         -4    1    1    2    0  501 -0.27314608388E+01 -0.13727523219E+01 -0.15353489760E+02  0.15706300489E+02  0.12700000000E+01 0. -1.
<mgrwt>
<rscale>  0 0.33103213E+01</rscale>
<asrwt>0</asrwt>
<pdfrwt beam="1">0</pdfrwt>
<pdfrwt beam="2">0</pdfrwt>
<totfact> 0.12657811E+12</totfact>
</mgrwt>
</event>
<event>
 4    1  0.1733759E+006  0.3379647E+01  0.7546771E-02  0.2414305E+00
         22   -1    0    0    0    0  0.00000000000E+00  0.00000000000E+00  0.11977190446E+02  0.11977190446E+02  0.00000000000E+00 0.  1.
         22   -1    0    0    0    0 -0.00000000000E+00 -0.00000000000E+00 -0.42711902092E+01  0.42711902092E+01  0.00000000000E+00 0. -1.
          4    1    1    2  501    0  0.20871817026E+01  0.23351203704E+01 -0.33070145391E+01  0.47284627275E+01  0.12700000000E+01 0. -1.
         -4    1    1    2    0  501 -0.20871817026E+01 -0.23351203704E+01  0.11013014776E+02  0.11519917927E+02  0.12700000000E+01 0.  1.
<mgrwt>
<rscale>  0 0.33796471E+01</rscale>
<asrwt>0</asrwt>
<pdfrwt beam="1">0</pdfrwt>
<pdfrwt beam="2">0</pdfrwt>
<totfact> 0.23688706E+11</totfact>
</mgrwt>
</event>
<event>
 4    1  0.1733759E+006  0.9843738E+01  0.7546771E-02  0.1785284E+00
         22   -1    0    0    0    0  0.00000000000E+00  0.00000000000E+00  0.36471552220E+01  0.36471552220E+01  0.00000000000E+00 0.  1.
         22   -1    0    0    0    0 -0.00000000000E+00 -0.00000000000E+00 -0.52862795552E+02  0.52862795552E+02  0.00000000000E+00 0. -1.
          4    1    1    2  501    0  0.90614131769E+01  0.36300221723E+01 -0.44535248695E+02  0.45610169327E+02  0.12700000000E+01 0. -1.
         -4    1    1    2    0  501 -0.90614131769E+01 -0.36300221723E+01 -0.46803916355E+01  0.10899781447E+02  0.12700000000E+01 0.  1.
<mgrwt>
<rscale>  0 0.98437376E+01</rscale>
<asrwt>0</asrwt>
<pdfrwt beam="1">0</pdfrwt>
<pdfrwt beam="2">0</pdfrwt>
<totfact> 0.43599885E+10</totfact>
</mgrwt>
</event>
<event>
 4    1  0.1733759E+006  0.2370216E+01  0.7546771E-02  0.2768668E+00
         22   -1    0    0    0    0  0.00000000000E+00  0.00000000000E+00  0.76177742986E+01  0.76177742986E+01  0.00000000000E+00 0.  1.
         22   -1    0    0    0    0 -0.00000000000E+00 -0.00000000000E+00 -0.17045511288E+01  0.17045511288E+01  0.00000000000E+00 0. -1.
          4    1    1    2  501    0 -0.19964075293E+01 -0.13921848934E+00 -0.55429586500E+00  0.24341669451E+01  0.12700000000E+01 0. -1.
         -4    1    1    2    0  501  0.19964075293E+01  0.13921848934E+00  0.64675190349E+01  0.68881584823E+01  0.12700000000E+01 0.  1.
<mgrwt>
<rscale>  0 0.23702162E+01</rscale>
<asrwt>0</asrwt>
<pdfrwt beam="1">0</pdfrwt>
<pdfrwt beam="2">0</pdfrwt>
<totfact> 0.11943149E+12</totfact>
</mgrwt>
</event>
<event>
 4    1  0.1733759E+006  0.4096193E+01  0.7546771E-02  0.2259276E+00
         22   -1    0    0    0    0  0.00000000000E+00  0.00000000000E+00  0.17667975804E+02  0.17667975804E+02  0.00000000000E+00 0.  1.
         22   -1    0    0    0    0 -0.00000000000E+00 -0.00000000000E+00 -0.13639326553E+01  0.13639326553E+01  0.00000000000E+00 0. -1.
          4    1    1    2  501    0  0.36405310664E+01 -0.13829078182E+01  0.29076654657E+01  0.50232777087E+01  0.12700000000E+01 0. -1.
         -4    1    1    2    0  501 -0.36405310664E+01  0.13829078182E+01  0.13396377683E+02  0.14008630751E+02  0.12700000000E+01 0.  1.
<mgrwt>
<rscale>  0 0.40961934E+01</rscale>
<asrwt>0</asrwt>
<pdfrwt beam="1">0</pdfrwt>
<pdfrwt beam="2">0</pdfrwt>
<totfact> 0.55392423E+11</totfact>
</mgrwt>
</event>
<event>
 4    1  0.1733759E+006  0.2466950E+01  0.7546771E-02  0.2723283E+00
         22   -1    0    0    0    0  0.00000000000E+00  0.00000000000E+00  0.51306089483E+01  0.51306089483E+01  0.00000000000E+00 0.  1.
         22   -1    0    0    0    0 -0.00000000000E+00 -0.00000000000E+00 -0.29761888003E+01  0.29761888003E+01  0.00000000000E+00 0. -1.
          4    1    1    2  501    0 -0.21855114004E+00 -0.21036104845E+01 -0.20663105171E+01  0.32179932916E+01  0.12700000000E+01 0. -1.
         -4    1    1    2    0  501  0.21855114004E+00  0.21036104845E+01  0.42207306651E+01  0.48888044570E+01  0.12700000000E+01 0.  1.
<mgrwt>
<rscale>  0 0.24669499E+01</rscale>
<asrwt>0</asrwt>
<pdfrwt beam="1">0</pdfrwt>
<pdfrwt beam="2">0</pdfrwt>
<totfact> 0.10018977E+12</totfact>
</mgrwt>
</event>
<event>
 4    1  0.1733759E+006  0.5235817E+01  0.7546771E-02  0.2095865E+00
         22   -1    0    0    0    0  0.00000000000E+00  0.00000000000E+00  0.27067897869E+01  0.27067897869E+01  0.00000000000E+00 0.  1.
         22   -1    0    0    0    0 -0.00000000000E+00 -0.00000000000E+00 -0.13109324564E+02  0.13109324564E+02  0.00000000000E+00 0. -1.
          4    1    1    2  501    0  0.45138824885E+01  0.23293219524E+01 -0.89726463714E+01  0.10388559033E+02  0.12700000000E+01 0. -1.
         -4    1    1    2    0  501 -0.45138824885E+01 -0.23293219524E+01 -0.14298884062E+01  0.54275553182E+01  0.12700000000E+01 0.  1.
<mgrwt>
<rscale>  0 0.52358166E+01</rscale>
<asrwt>0</asrwt>
<pdfrwt beam="1">0</pdfrwt>
<pdfrwt beam="2">0</pdfrwt>
<totfact> 0.36205771E+11</totfact>
</mgrwt>
</event>
<event>
 4    1  0.1733759E+006  0.3807440E+01  0.7546771E-02  0.2315686E+00
         22   -1    0    0    0    0  0.00000000000E+00  0.00000000000E+00  0.58943631078E+01  0.58943631078E+01  0.00000000000E+00 0. -1.
         22   -1    0    0    0    0 -0.00000000000E+00 -0.00000000000E+00 -0.34780209126E+02  0.34780209126E+02  0.00000000000E+00 0.  1.
          4    1    1    2  501    0  0.13518093905E+01 -0.33251029292E+01 -0.34047975735E+02  0.34260199208E+02  0.12700000000E+01 0.  1.
         -4    1    1    2    0  501 -0.13518093905E+01  0.33251029292E+01  0.51621297161E+01  0.64143730265E+01  0.12700000000E+01 0. -1.
<mgrwt>
<rscale>  0 0.38074398E+01</rscale>
<asrwt>0</asrwt>
<pdfrwt beam="1">0</pdfrwt>
<pdfrwt beam="2">0</pdfrwt>
<totfact> 0.42689609E+10</totfact>
</mgrwt>
</event>
<event>
 4    1  0.1733759E+006  0.3808626E+01  0.7546771E-02  0.2315440E+00
         22   -1    0    0    0    0  0.00000000000E+00  0.00000000000E+00  0.60911458557E+01  0.60911458557E+01  0.00000000000E+00 0.  1.
         22   -1    0    0    0    0 -0.00000000000E+00 -0.00000000000E+00 -0.33730806321E+01  0.33730806321E+01  0.00000000000E+00 0. -1.
          4    1    1    2  501    0  0.73414804137E+00 -0.35147914949E+01 -0.12067584594E+01  0.39952344836E+01  0.12700000000E+01 0. -1.
         -4    1    1    2    0  501 -0.73414804137E+00  0.35147914949E+01  0.39248236831E+01  0.54689920042E+01  0.12700000000E+01 0.  1.
<mgrwt>
<rscale>  0 0.38086261E+01</rscale>
<asrwt>0</asrwt>
<pdfrwt beam="1">0</pdfrwt>
<pdfrwt beam="2">0</pdfrwt>
<totfact> 0.70584551E+11</totfact>
</mgrwt>
</event>
<event>
 4    1  0.1733759E+006  0.2824779E+01  0.7546771E-02  0.2580630E+00
         22   -1    0    0    0    0  0.00000000000E+00  0.00000000000E+00  0.16954001489E+01  0.16954001489E+01  0.00000000000E+00 0. -1.
         22   -1    0    0    0    0 -0.00000000000E+00 -0.00000000000E+00 -0.47711213296E+01  0.47711213296E+01  0.00000000000E+00 0. -1.
          4    1    1    2  501    0 -0.22462691583E+01 -0.11492384177E+01 -0.11615283603E+01  0.30542629559E+01  0.12700000000E+01 0. -1.
         -4    1    1    2    0  501  0.22462691583E+01  0.11492384177E+01 -0.19141928204E+01  0.34122585227E+01  0.12700000000E+01 0. -1.
<mgrwt>
<rscale>  0 0.28247786E+01</rscale>
<asrwt>0</asrwt>
<pdfrwt beam="1">0</pdfrwt>
<pdfrwt beam="2">0</pdfrwt>
<totfact> 0.20979028E+12</totfact>
</mgrwt>
</event>
<event>
 4    1  0.1733759E+006  0.2534641E+01  0.7546771E-02  0.2693452E+00
         22   -1    0    0    0    0  0.00000000000E+00  0.00000000000E+00  0.18344959527E+01  0.18344959527E+01  0.00000000000E+00 0.  1.
         22   -1    0    0    0    0 -0.00000000000E+00 -0.00000000000E+00 -0.37640685812E+01  0.37640685812E+01  0.00000000000E+00 0. -1.
          4    1    1    2  501    0  0.15259491612E+01  0.15757494163E+01 -0.22616064488E+00  0.25447113201E+01  0.12700000000E+01 0.  1.
         -4    1    1    2    0  501 -0.15259491612E+01 -0.15757494163E+01 -0.17034119836E+01  0.30538532138E+01  0.12700000000E+01 0. -1.
<mgrwt>
<rscale>  0 0.25346414E+01</rscale>
<asrwt>0</asrwt>
<pdfrwt beam="1">0</pdfrwt>
<pdfrwt beam="2">0</pdfrwt>
<totfact> 0.25327889E+12</totfact>
</mgrwt>
</event>
<event>
 4    1  0.1733759E+006  0.2080933E+01  0.7546771E-02  0.2928158E+00
         22   -1    0    0    0    0  0.00000000000E+00  0.00000000000E+00  0.49239043873E+00  0.49239043873E+00  0.00000000000E+00 0.  1.
         22   -1    0    0    0    0 -0.00000000000E+00 -0.00000000000E+00 -0.88148962442E+01  0.88148962442E+01  0.00000000000E+00 0. -1.
          4    1    1    2  501    0  0.77847162617E-01  0.16466091515E+01 -0.39368913796E+01  0.44530209536E+01  0.12700000000E+01 0.  1.
         -4    1    1    2    0  501 -0.77847162617E-01 -0.16466091515E+01 -0.43856144259E+01  0.48542657294E+01  0.12700000000E+01 0. -1.
<mgrwt>
<rscale>  0 0.20809329E+01</rscale>
<asrwt>0</asrwt>
<pdfrwt beam="1">0</pdfrwt>
<pdfrwt beam="2">0</pdfrwt>
<totfact> 0.41303342E+12</totfact>
</mgrwt>
</event>
<event>
 4    1  0.1733759E+006  0.5251998E+01  0.7546771E-02  0.2094073E+00
         22   -1    0    0    0    0  0.00000000000E+00  0.00000000000E+00  0.66294511727E+01  0.66294511727E+01  0.00000000000E+00 0.  1.
         22   -1    0    0    0    0 -0.00000000000E+00 -0.00000000000E+00 -0.19507742522E+02  0.19507742522E+02  0.00000000000E+00 0. -1.
          4    1    1    2  501    0  0.50779473630E+01  0.43015531567E+00 -0.18030578071E+02  0.18779915564E+02  0.12700000000E+01 0. -1.
         -4    1    1    2    0  501 -0.50779473630E+01 -0.43015531567E+00  0.51522867222E+01  0.73572781302E+01  0.12700000000E+01 0.  1.
<mgrwt>
<rscale>  0 0.52519980E+01</rscale>
<asrwt>0</asrwt>
<pdfrwt beam="1">0</pdfrwt>
<pdfrwt beam="2">0</pdfrwt>
<totfact> 0.77105429E+10</totfact>
</mgrwt>
</event>
<event>
 4    1  0.1733759E+006  0.2028155E+01  0.7546771E-02  0.2961976E+00
         22   -1    0    0    0    0  0.00000000000E+00  0.00000000000E+00  0.11634068423E+02  0.11634068423E+02  0.00000000000E+00 0.  1.
         22   -1    0    0    0    0 -0.00000000000E+00 -0.00000000000E+00 -0.37879012498E+00  0.37879012498E+00  0.00000000000E+00 0.  1.
          4    1    1    2  501    0 -0.13430666563E+01  0.83467608867E+00  0.40776658216E+01  0.45542036372E+01  0.12700000000E+01 0.  1.
         -4    1    1    2    0  501  0.13430666563E+01 -0.83467608867E+00  0.71776124760E+01  0.74586549103E+01  0.12700000000E+01 0.  1.
<mgrwt>
<rscale>  0 0.20281549E+01</rscale>
<asrwt>0</asrwt>
<pdfrwt beam="1">0</pdfrwt>
<pdfrwt beam="2">0</pdfrwt>
<totfact> 0.39658078E+12</totfact>
</mgrwt>
</event>
<event>
 4    1  0.1733759E+006  0.2026956E+01  0.7546771E-02  0.2962764E+00
         22   -1    0    0    0    0  0.00000000000E+00  0.00000000000E+00  0.68232663228E+01  0.68232663228E+01  0.00000000000E+00 0.  1.
         22   -1    0    0    0    0 -0.00000000000E+00 -0.00000000000E+00 -0.72647977260E+00  0.72647977260E+00  0.00000000000E+00 0. -1.
          4    1    1    2  501    0 -0.23627128015E+00 -0.15619942804E+01  0.14866899953E+01  0.25137218207E+01  0.12700000000E+01 0. -1.
         -4    1    1    2    0  501  0.23627128015E+00  0.15619942804E+01  0.46100965549E+01  0.50360242747E+01  0.12700000000E+01 0. -1.
<mgrwt>
<rscale>  0 0.20269559E+01</rscale>
<asrwt>0</asrwt>
<pdfrwt beam="1">0</pdfrwt>
<pdfrwt beam="2">0</pdfrwt>
<totfact> 0.36158001E+12</totfact>
</mgrwt>
</event>
<event>
 4    1  0.1733759E+006  0.2657140E+01  0.7546771E-02  0.2643060E+00
         22   -1    0    0    0    0  0.00000000000E+00  0.00000000000E+00  0.15502680101E+01  0.15502680101E+01  0.00000000000E+00 0.  1.
         22   -1    0    0    0    0 -0.00000000000E+00 -0.00000000000E+00 -0.15933202540E+02  0.15933202540E+02  0.00000000000E+00 0. -1.
          4    1    1    2  501    0  0.90329025629E+00  0.21521059826E+01 -0.14578945332E+02  0.14819110649E+02  0.12700000000E+01 0. -1.
         -4    1    1    2    0  501 -0.90329025629E+00 -0.21521059826E+01  0.19601080176E+00  0.26643599010E+01  0.12700000000E+01 0.  1.
<mgrwt>
<rscale>  0 0.26571401E+01</rscale>
<asrwt>0</asrwt>
<pdfrwt beam="1">0</pdfrwt>
<pdfrwt beam="2">0</pdfrwt>
<totfact> 0.54324823E+11</totfact>
</mgrwt>
</event>
<event>
 4    1  0.1733759E+006  0.2514792E+01  0.7546771E-02  0.2702044E+00
         22   -1    0    0    0    0  0.00000000000E+00  0.00000000000E+00  0.81925511586E+00  0.81925511586E+00  0.00000000000E+00 0.  1.
         22   -1    0    0    0    0 -0.00000000000E+00 -0.00000000000E+00 -0.13144733138E+02  0.13144733138E+02  0.00000000000E+00 0. -1.
          4    1    1    2  501    0  0.18648768042E+01 -0.11106365984E+01 -0.10648289627E+02  0.10941217991E+02  0.12700000000E+01 0. -1.
         -4    1    1    2    0  501 -0.18648768042E+01  0.11106365984E+01 -0.16771883952E+01  0.30227702628E+01  0.12700000000E+01 0.  1.
<mgrwt>
<rscale>  0 0.25147921E+01</rscale>
<asrwt>0</asrwt>
<pdfrwt beam="1">0</pdfrwt>
<pdfrwt beam="2">0</pdfrwt>
<totfact> 0.14278213E+12</totfact>
</mgrwt>
</event>
<event>
 4    1  0.1733759E+006  0.2690435E+01  0.7546771E-02  0.2630095E+00
         22   -1    0    0    0    0  0.00000000000E+00  0.00000000000E+00  0.12670565920E+02  0.12670565920E+02  0.00000000000E+00 0.  1.
         22   -1    0    0    0    0 -0.00000000000E+00 -0.00000000000E+00 -0.69871398963E+01  0.69871398963E+01  0.00000000000E+00 0. -1.
          4    1    1    2  501    0 -0.10471831590E+01 -0.21281330718E+01 -0.65767610645E+01  0.71057884178E+01  0.12700000000E+01 0. -1.
         -4    1    1    2    0  501  0.10471831590E+01  0.21281330718E+01  0.12260187088E+02  0.12551917398E+02  0.12700000000E+01 0.  1.
<mgrwt>
<rscale>  0 0.26904355E+01</rscale>
<asrwt>0</asrwt>
<pdfrwt beam="1">0</pdfrwt>
<pdfrwt beam="2">0</pdfrwt>
<totfact> 0.12329376E+11</totfact>
</mgrwt>
</event>
<event>
 4    1  0.1733759E+006  0.3473972E+01  0.7546771E-02  0.2390750E+00
         22   -1    0    0    0    0  0.00000000000E+00  0.00000000000E+00  0.38810114630E+01  0.38810114630E+01  0.00000000000E+00 0. -1.
         22   -1    0    0    0    0 -0.00000000000E+00 -0.00000000000E+00 -0.31807896840E+01  0.31807896840E+01  0.00000000000E+00 0. -1.
          4    1    1    2  501    0 -0.24417625063E+01 -0.21197593895E+01  0.87825835355E+00  0.35832696999E+01  0.12700000000E+01 0. -1.
         -4    1    1    2    0  501  0.24417625063E+01  0.21197593895E+01 -0.17803657454E+00  0.34785314471E+01  0.12700000000E+01 0. -1.
<mgrwt>
<rscale>  0 0.34739724E+01</rscale>
<asrwt>0</asrwt>
<pdfrwt beam="1">0</pdfrwt>
<pdfrwt beam="2">0</pdfrwt>
<totfact> 0.12887274E+12</totfact>
</mgrwt>
</event>
<event>
 4    1  0.1733759E+006  0.2047826E+01  0.7546771E-02  0.2949172E+00
         22   -1    0    0    0    0  0.00000000000E+00  0.00000000000E+00  0.64870031242E+00  0.64870031242E+00  0.00000000000E+00 0.  1.
         22   -1    0    0    0    0 -0.00000000000E+00 -0.00000000000E+00 -0.76525591129E+01  0.76525591129E+01  0.00000000000E+00 0. -1.
          4    1    1    2  501    0 -0.13907731560E+00  0.16004219695E+01 -0.51372767020E+01  0.55303892171E+01  0.12700000000E+01 0. -1.
         -4    1    1    2    0  501  0.13907731560E+00 -0.16004219695E+01 -0.18665820985E+01  0.27708702082E+01  0.12700000000E+01 0.  1.
<mgrwt>
<rscale>  0 0.20478264E+01</rscale>
<asrwt>0</asrwt>
<pdfrwt beam="1">0</pdfrwt>
<pdfrwt beam="2">0</pdfrwt>
<totfact> 0.35839955E+12</totfact>
</mgrwt>
</event>
<event>
 4    1  0.1733759E+006  0.2122767E+01  0.7546771E-02  0.2902516E+00
         22   -1    0    0    0    0  0.00000000000E+00  0.00000000000E+00  0.30524909897E+01  0.30524909897E+01  0.00000000000E+00 0.  1.
         22   -1    0    0    0    0 -0.00000000000E+00 -0.00000000000E+00 -0.19881286406E+01  0.19881286406E+01  0.00000000000E+00 0. -1.
          4    1    1    2  501    0  0.75647969347E+00  0.15234753916E+01 -0.74669717066E+00  0.22502656421E+01  0.12700000000E+01 0. -1.
         -4    1    1    2    0  501 -0.75647969347E+00 -0.15234753916E+01  0.18110595198E+01  0.27903539882E+01  0.12700000000E+01 0.  1.
<mgrwt>
<rscale>  0 0.21227668E+01</rscale>
<asrwt>0</asrwt>
<pdfrwt beam="1">0</pdfrwt>
<pdfrwt beam="2">0</pdfrwt>
<totfact> 0.29499727E+12</totfact>
</mgrwt>
</event>
<event>
 4    1  0.1733759E+006  0.2563020E+01  0.7546771E-02  0.2681382E+00
         22   -1    0    0    0    0  0.00000000000E+00  0.00000000000E+00  0.24314829558E+01  0.24314829558E+01  0.00000000000E+00 0.  1.
         22   -1    0    0    0    0 -0.00000000000E+00 -0.00000000000E+00 -0.41651456125E+01  0.41651456125E+01  0.00000000000E+00 0. -1.
          4    1    1    2  501    0 -0.20510444392E+01 -0.86567131481E+00 -0.28219329987E+01  0.38121353552E+01  0.12700000000E+01 0. -1.
         -4    1    1    2    0  501  0.20510444392E+01  0.86567131481E+00  0.10882703420E+01  0.27844932132E+01  0.12700000000E+01 0.  1.
<mgrwt>
<rscale>  0 0.25630197E+01</rscale>
<asrwt>0</asrwt>
<pdfrwt beam="1">0</pdfrwt>
<pdfrwt beam="2">0</pdfrwt>
<totfact> 0.16221072E+12</totfact>
</mgrwt>
</event>
<event>
 4    1  0.1733759E+006  0.2074487E+01  0.7546771E-02  0.2932198E+00
         22   -1    0    0    0    0  0.00000000000E+00  0.00000000000E+00  0.77089479339E-01  0.77089479339E-01  0.00000000000E+00 0.  1.
         22   -1    0    0    0    0 -0.00000000000E+00 -0.00000000000E+00 -0.59787790465E+02  0.59787790465E+02  0.00000000000E+00 0. -1.
          4    1    1    2  501    0  0.13984247790E+01 -0.85732462406E+00 -0.37561769822E+02  0.37619011809E+02  0.12700000000E+01 0. -1.
         -4    1    1    2    0  501 -0.13984247790E+01  0.85732462406E+00 -0.22148931164E+02  0.22245868135E+02  0.12700000000E+01 0.  1.
<mgrwt>
<rscale>  0 0.20744873E+01</rscale>
<asrwt>0</asrwt>
<pdfrwt beam="1">0</pdfrwt>
<pdfrwt beam="2">0</pdfrwt>
<totfact> 0.29249059E+12</totfact>
</mgrwt>
</event>
<event>
 4    1  0.1733759E+006  0.2403767E+01  0.7546771E-02  0.2752539E+00
         22   -1    0    0    0    0  0.00000000000E+00  0.00000000000E+00  0.23466853134E+00  0.23466853134E+00  0.00000000000E+00 0. -1.
         22   -1    0    0    0    0 -0.00000000000E+00 -0.00000000000E+00 -0.24642036259E+02  0.24642036259E+02  0.00000000000E+00 0. -1.
          4    1    1    2  501    0  0.18931473946E+01  0.76235699967E+00 -0.12555076504E+02  0.12783115476E+02  0.12700000000E+01 0. -1.
         -4    1    1    2    0  501 -0.18931473946E+01 -0.76235699967E+00 -0.11852291224E+02  0.12093589314E+02  0.12700000000E+01 0. -1.
<mgrwt>
<rscale>  0 0.24037669E+01</rscale>
<asrwt>0</asrwt>
<pdfrwt beam="1">0</pdfrwt>
<pdfrwt beam="2">0</pdfrwt>
<totfact> 0.26793775E+12</totfact>
</mgrwt>
</event>
<event>
 4    1  0.1733759E+006  0.2036130E+01  0.7546771E-02  0.2956756E+00
         22   -1    0    0    0    0  0.00000000000E+00  0.00000000000E+00  0.65295801229E+01  0.65295801229E+01  0.00000000000E+00 0.  1.
         22   -1    0    0    0    0 -0.00000000000E+00 -0.00000000000E+00 -0.92251571169E+00  0.92251571169E+00  0.00000000000E+00 0. -1.
          4    1    1    2  501    0 -0.15125837517E+01  0.49498963658E+00  0.72313898849E+00  0.21607300486E+01  0.12700000000E+01 0.  1.
         -4    1    1    2    0  501  0.15125837517E+01 -0.49498963658E+00  0.48839254227E+01  0.52913657860E+01  0.12700000000E+01 0.  1.
<mgrwt>
<rscale>  0 0.20361297E+01</rscale>
<asrwt>0</asrwt>
<pdfrwt beam="1">0</pdfrwt>
<pdfrwt beam="2">0</pdfrwt>
<totfact> 0.29037068E+12</totfact>
</mgrwt>
</event>
<event>
 4    1  0.1733759E+006  0.2160257E+01  0.7546771E-02  0.2880353E+00
         22   -1    0    0    0    0  0.00000000000E+00  0.00000000000E+00  0.14974591919E+01  0.14974591919E+01  0.00000000000E+00 0.  1.
         22   -1    0    0    0    0 -0.00000000000E+00 -0.00000000000E+00 -0.37158724346E+01  0.37158724346E+01  0.00000000000E+00 0. -1.
          4    1    1    2  501    0 -0.57552780005E+00  0.16500231903E+01 -0.21561737520E+01  0.30521785705E+01  0.12700000000E+01 0. -1.
         -4    1    1    2    0  501  0.57552780005E+00 -0.16500231903E+01 -0.62239490754E-01  0.21611530560E+01  0.12700000000E+01 0.  1.
<mgrwt>
<rscale>  0 0.21602566E+01</rscale>
<asrwt>0</asrwt>
<pdfrwt beam="1">0</pdfrwt>
<pdfrwt beam="2">0</pdfrwt>
<totfact> 0.32493567E+12</totfact>
</mgrwt>
</event>
<event>
 4    1  0.1733759E+006  0.2427187E+01  0.7546771E-02  0.2741528E+00
         22   -1    0    0    0    0  0.00000000000E+00  0.00000000000E+00  0.20217176437E+01  0.20217176437E+01  0.00000000000E+00 0.  1.
         22   -1    0    0    0    0 -0.00000000000E+00 -0.00000000000E+00 -0.30306364514E+01  0.30306364514E+01  0.00000000000E+00 0. -1.
          4    1    1    2  501    0  0.20328619820E+01 -0.38185101118E+00 -0.88295520638E-02  0.24272033276E+01  0.12700000000E+01 0.  1.
         -4    1    1    2    0  501 -0.20328619820E+01  0.38185101118E+00 -0.10000892557E+01  0.26251507675E+01  0.12700000000E+01 0.  1.
<mgrwt>
<rscale>  0 0.24271873E+01</rscale>
<asrwt>0</asrwt>
<pdfrwt beam="1">0</pdfrwt>
<pdfrwt beam="2">0</pdfrwt>
<totfact> 0.29178563E+12</totfact>
</mgrwt>
</event>
<event>
 4    1  0.1733759E+006  0.4214064E+01  0.7546771E-02  0.2238152E+00
         22   -1    0    0    0    0  0.00000000000E+00  0.00000000000E+00  0.69546656435E+02  0.69546656435E+02  0.00000000000E+00 0. -1.
         22   -1    0    0    0    0 -0.00000000000E+00 -0.00000000000E+00 -0.31661074882E+00  0.31661074882E+00  0.00000000000E+00 0.  1.
          4    1    1    2  501    0 -0.38481682179E+01 -0.11563045204E+01  0.49981262505E+02  0.50158597871E+02  0.12700000000E+01 0. -1.
         -4    1    1    2    0  501  0.38481682179E+01  0.11563045204E+01  0.19248783181E+02  0.19704669313E+02  0.12700000000E+01 0.  1.
<mgrwt>
<rscale>  0 0.42140644E+01</rscale>
<asrwt>0</asrwt>
<pdfrwt beam="1">0</pdfrwt>
<pdfrwt beam="2">0</pdfrwt>
<totfact> 0.49559331E+11</totfact>
</mgrwt>
</event>
<event>
 4    1  0.1733759E+006  0.2763648E+01  0.7546771E-02  0.2602595E+00
         22   -1    0    0    0    0  0.00000000000E+00  0.00000000000E+00  0.11787887202E+01  0.11787887202E+01  0.00000000000E+00 0. -1.
         22   -1    0    0    0    0 -0.00000000000E+00 -0.00000000000E+00 -0.72624563432E+01  0.72624563432E+01  0.00000000000E+00 0.  1.
          4    1    1    2  501    0  0.39432974069E+00  0.24226753704E+01 -0.44278006269E+01  0.52194990455E+01  0.12700000000E+01 0.  1.
         -4    1    1    2    0  501 -0.39432974069E+00 -0.24226753704E+01 -0.16558669961E+01  0.32217460179E+01  0.12700000000E+01 0.  1.
<mgrwt>
<rscale>  0 0.27636483E+01</rscale>
<asrwt>0</asrwt>
<pdfrwt beam="1">0</pdfrwt>
<pdfrwt beam="2">0</pdfrwt>
<totfact> 0.19323984E+12</totfact>
</mgrwt>
</event>
<event>
 4    1  0.1733759E+006  0.2169095E+01  0.7546771E-02  0.2875235E+00
         22   -1    0    0    0    0  0.00000000000E+00  0.00000000000E+00  0.33228802257E+01  0.33228802257E+01  0.00000000000E+00 0.  1.
         22   -1    0    0    0    0 -0.00000000000E+00 -0.00000000000E+00 -0.14693067118E+01  0.14693067118E+01  0.00000000000E+00 0.  1.
          4    1    1    2  501    0 -0.11345514445E+00 -0.17547649909E+01  0.13834704886E+01  0.25727345055E+01  0.12700000000E+01 0.  1.
         -4    1    1    2    0  501  0.11345514445E+00  0.17547649909E+01  0.47010302525E+00  0.22194524319E+01  0.12700000000E+01 0.  1.
<mgrwt>
<rscale>  0 0.21690948E+01</rscale>
<asrwt>0</asrwt>
<pdfrwt beam="1">0</pdfrwt>
<pdfrwt beam="2">0</pdfrwt>
<totfact> 0.37862996E+12</totfact>
</mgrwt>
</event>
<event>
 4    1  0.1733759E+006  0.4055540E+01  0.7546771E-02  0.2266802E+00
         22   -1    0    0    0    0  0.00000000000E+00  0.00000000000E+00  0.12166193412E+01  0.12166193412E+01  0.00000000000E+00 0. -1.
         22   -1    0    0    0    0 -0.00000000000E+00 -0.00000000000E+00 -0.13846398918E+02  0.13846398918E+02  0.00000000000E+00 0.  1.
          4    1    1    2  501    0  0.30560314960E+01 -0.23441798697E+01 -0.51566729409E+01  0.65603874569E+01  0.12700000000E+01 0. -1.
         -4    1    1    2    0  501 -0.30560314960E+01  0.23441798697E+01 -0.74731066360E+01  0.85026308022E+01  0.12700000000E+01 0.  1.
<mgrwt>
<rscale>  0 0.40555404E+01</rscale>
<asrwt>0</asrwt>
<pdfrwt beam="1">0</pdfrwt>
<pdfrwt beam="2">0</pdfrwt>
<totfact> 0.85290730E+11</totfact>
</mgrwt>
</event>
<event>
 4    1  0.1733759E+006  0.2381820E+01  0.7546771E-02  0.2763042E+00
         22   -1    0    0    0    0  0.00000000000E+00  0.00000000000E+00  0.41993936562E+01  0.41993936562E+01  0.00000000000E+00 0. -1.
         22   -1    0    0    0    0 -0.00000000000E+00 -0.00000000000E+00 -0.56776836862E+01  0.56776836862E+01  0.00000000000E+00 0.  1.
          4    1    1    2  501    0  0.19952799830E+01 -0.28110880779E+00 -0.50503057697E+01  0.55837848043E+01  0.12700000000E+01 0.  1.
         -4    1    1    2    0  501 -0.19952799830E+01  0.28110880779E+00  0.35720157398E+01  0.42932925381E+01  0.12700000000E+01 0. -1.
<mgrwt>
<rscale>  0 0.23818196E+01</rscale>
<asrwt>0</asrwt>
<pdfrwt beam="1">0</pdfrwt>
<pdfrwt beam="2">0</pdfrwt>
<totfact> 0.59320908E+11</totfact>
</mgrwt>
</event>
<event>
 4    1  0.1733759E+006  0.2983646E+01  0.7546771E-02  0.2527373E+00
         22   -1    0    0    0    0  0.00000000000E+00  0.00000000000E+00  0.14597306136E+02  0.14597306136E+02  0.00000000000E+00 0.  1.
         22   -1    0    0    0    0 -0.00000000000E+00 -0.00000000000E+00 -0.10833217005E+01  0.10833217005E+01  0.00000000000E+00 0. -1.
          4    1    1    2  501    0  0.11249649379E+01  0.24543221132E+01  0.15737381461E+01  0.33732469372E+01  0.12700000000E+01 0. -1.
         -4    1    1    2    0  501 -0.11249649379E+01 -0.24543221132E+01  0.11940246289E+02  0.12307380899E+02  0.12700000000E+01 0.  1.
<mgrwt>
<rscale>  0 0.29836459E+01</rscale>
<asrwt>0</asrwt>
<pdfrwt beam="1">0</pdfrwt>
<pdfrwt beam="2">0</pdfrwt>
<totfact> 0.91291939E+11</totfact>
</mgrwt>
</event>
<event>
 4    1  0.1733759E+006  0.2489900E+01  0.7546771E-02  0.2713000E+00
         22   -1    0    0    0    0  0.00000000000E+00  0.00000000000E+00  0.13780551007E+01  0.13780551007E+01  0.00000000000E+00 0. -1.
         22   -1    0    0    0    0 -0.00000000000E+00 -0.00000000000E+00 -0.46984978157E+01  0.46984978157E+01  0.00000000000E+00 0. -1.
          4    1    1    2  501    0 -0.16285800103E+01 -0.13908372331E+01 -0.22865886729E+01  0.33805456391E+01  0.12700000000E+01 0. -1.
         -4    1    1    2    0  501  0.16285800103E+01  0.13908372331E+01 -0.10338540421E+01  0.26960072773E+01  0.12700000000E+01 0. -1.
<mgrwt>
<rscale>  0 0.24898998E+01</rscale>
<asrwt>0</asrwt>
<pdfrwt beam="1">0</pdfrwt>
<pdfrwt beam="2">0</pdfrwt>
<totfact> 0.27117876E+12</totfact>
</mgrwt>
</event>
<event>
 4    1  0.1733759E+006  0.3172156E+01  0.7546771E-02  0.2470426E+00
         22   -1    0    0    0    0  0.00000000000E+00  0.00000000000E+00  0.56887942582E+01  0.56887942582E+01  0.00000000000E+00 0. -1.
         22   -1    0    0    0    0 -0.00000000000E+00 -0.00000000000E+00 -0.44543769938E+01  0.44543769938E+01  0.00000000000E+00 0.  1.
          4    1    1    2  501    0  0.15752497011E+01  0.24430027030E+01 -0.33207010145E+01  0.45923446142E+01  0.12700000000E+01 0.  1.
         -4    1    1    2    0  501 -0.15752497011E+01 -0.24430027030E+01  0.45551182789E+01  0.55508266378E+01  0.12700000000E+01 0. -1.
<mgrwt>
<rscale>  0 0.31721560E+01</rscale>
<asrwt>0</asrwt>
<pdfrwt beam="1">0</pdfrwt>
<pdfrwt beam="2">0</pdfrwt>
<totfact> 0.55211138E+11</totfact>
</mgrwt>
</event>
<event>
 4    1  0.1733759E+006  0.4379144E+01  0.7546771E-02  0.2210193E+00
         22   -1    0    0    0    0  0.00000000000E+00  0.00000000000E+00  0.47857997645E+02  0.47857997645E+02  0.00000000000E+00 0. -1.
         22   -1    0    0    0    0 -0.00000000000E+00 -0.00000000000E+00 -0.12738134270E+01  0.12738134270E+01  0.00000000000E+00 0.  1.
          4    1    1    2  501    0  0.15534908846E+01 -0.38923858371E+01  0.29538154247E+01  0.52822274655E+01  0.12700000000E+01 0.  1.
         -4    1    1    2    0  501 -0.15534908846E+01  0.38923858371E+01  0.43630368793E+02  0.43849583606E+02  0.12700000000E+01 0. -1.
<mgrwt>
<rscale>  0 0.43791439E+01</rscale>
<asrwt>0</asrwt>
<pdfrwt beam="1">0</pdfrwt>
<pdfrwt beam="2">0</pdfrwt>
<totfact> 0.16838023E+11</totfact>
</mgrwt>
</event>
<event>
 4    1  0.1733759E+006  0.2322664E+01  0.7546771E-02  0.2792281E+00
         22   -1    0    0    0    0  0.00000000000E+00  0.00000000000E+00  0.17407762644E+01  0.17407762644E+01  0.00000000000E+00 0. -1.
         22   -1    0    0    0    0 -0.00000000000E+00 -0.00000000000E+00 -0.31036181393E+01  0.31036181393E+01  0.00000000000E+00 0.  1.
          4    1    1    2  501    0 -0.18432400141E+01 -0.61994594734E+00 -0.77426650192E+00  0.24483168388E+01  0.12700000000E+01 0.  1.
         -4    1    1    2    0  501  0.18432400141E+01  0.61994594734E+00 -0.58857537298E+00  0.23960775649E+01  0.12700000000E+01 0.  1.
<mgrwt>
<rscale>  0 0.23226637E+01</rscale>
<asrwt>0</asrwt>
<pdfrwt beam="1">0</pdfrwt>
<pdfrwt beam="2">0</pdfrwt>
<totfact> 0.33735455E+12</totfact>
</mgrwt>
</event>
<event>
 4    1  0.1733759E+006  0.2094166E+01  0.7546771E-02  0.2919940E+00
         22   -1    0    0    0    0  0.00000000000E+00  0.00000000000E+00  0.38947383188E+02  0.38947383188E+02  0.00000000000E+00 0. -1.
         22   -1    0    0    0    0 -0.00000000000E+00 -0.00000000000E+00 -0.11557588762E+00  0.11557588762E+00  0.00000000000E+00 0.  1.
          4    1    1    2  501    0  0.24610954712E+00 -0.16468331953E+01  0.16282557752E+02  0.16416674950E+02  0.12700000000E+01 0.  1.
         -4    1    1    2    0  501 -0.24610954712E+00  0.16468331953E+01  0.22549249549E+02  0.22646284126E+02  0.12700000000E+01 0. -1.
<mgrwt>
<rscale>  0 0.20941656E+01</rscale>
<asrwt>0</asrwt>
<pdfrwt beam="1">0</pdfrwt>
<pdfrwt beam="2">0</pdfrwt>
<totfact> 0.32844546E+12</totfact>
</mgrwt>
</event>
<event>
 4    1  0.1733759E+006  0.4388256E+01  0.7546771E-02  0.2208702E+00
         22   -1    0    0    0    0  0.00000000000E+00  0.00000000000E+00  0.33089465794E+01  0.33089465794E+01  0.00000000000E+00 0.  1.
         22   -1    0    0    0    0 -0.00000000000E+00 -0.00000000000E+00 -0.13600102348E+02  0.13600102348E+02  0.00000000000E+00 0. -1.
          4    1    1    2  501    0  0.32462227534E+01  0.26656953874E+01 -0.11540297490E+02  0.12346467520E+02  0.12700000000E+01 0. -1.
         -4    1    1    2    0  501 -0.32462227534E+01 -0.26656953874E+01  0.12491417211E+01  0.45625814078E+01  0.12700000000E+01 0.  1.
<mgrwt>
<rscale>  0 0.43882564E+01</rscale>
<asrwt>0</asrwt>
<pdfrwt beam="1">0</pdfrwt>
<pdfrwt beam="2">0</pdfrwt>
<totfact> 0.27373371E+11</totfact>
</mgrwt>
</event>
<event>
 4    1  0.1733759E+006  0.2040193E+01  0.7546771E-02  0.2954112E+00
         22   -1    0    0    0    0  0.00000000000E+00  0.00000000000E+00  0.18317206182E+00  0.18317206182E+00  0.00000000000E+00 0.  1.
         22   -1    0    0    0    0 -0.00000000000E+00 -0.00000000000E+00 -0.26280520898E+02  0.26280520898E+02  0.00000000000E+00 0.  1.
          4    1    1    2  501    0  0.82752928721E+00  0.13655345954E+01 -0.81810135701E+01  0.84315699894E+01  0.12700000000E+01 0.  1.
         -4    1    1    2    0  501 -0.82752928721E+00 -0.13655345954E+01 -0.17916335266E+02  0.18032122970E+02  0.12700000000E+01 0.  1.
<mgrwt>
<rscale>  0 0.20401935E+01</rscale>
<asrwt>0</asrwt>
<pdfrwt beam="1">0</pdfrwt>
<pdfrwt beam="2">0</pdfrwt>
<totfact> 0.32567239E+12</totfact>
</mgrwt>
</event>
<event>
 4    1  0.1733759E+006  0.2026174E+01  0.7546771E-02  0.2963279E+00
         22   -1    0    0    0    0  0.00000000000E+00  0.00000000000E+00  0.17732443548E+01  0.17732443548E+01  0.00000000000E+00 0. -1.
         22   -1    0    0    0    0 -0.00000000000E+00 -0.00000000000E+00 -0.41498556948E+01  0.41498556948E+01  0.00000000000E+00 0.  1.
          4    1    1    2  501    0  0.15512152841E+01 -0.29361604196E+00 -0.31574714093E+01  0.37516669547E+01  0.12700000000E+01 0.  1.
         -4    1    1    2    0  501 -0.15512152841E+01  0.29361604196E+00  0.78086006930E+00  0.21714330949E+01  0.12700000000E+01 0. -1.
<mgrwt>
<rscale>  0 0.20261735E+01</rscale>
<asrwt>0</asrwt>
<pdfrwt beam="1">0</pdfrwt>
<pdfrwt beam="2">0</pdfrwt>
<totfact> 0.23482485E+12</totfact>
</mgrwt>
</event>
<event>
 4    1  0.1733759E+006  0.2551835E+01  0.7546771E-02  0.2686110E+00
         22   -1    0    0    0    0  0.00000000000E+00  0.00000000000E+00  0.29062056938E+02  0.29062056938E+02  0.00000000000E+00 0. -1.
         22   -1    0    0    0    0 -0.00000000000E+00 -0.00000000000E+00 -0.11678443141E+01  0.11678443141E+01  0.00000000000E+00 0.  1.
          4    1    1    2  501    0  0.19100747431E+01 -0.11182919140E+01  0.35931367968E+00  0.25770076930E+01  0.12700000000E+01 0.  1.
         -4    1    1    2    0  501 -0.19100747431E+01  0.11182919140E+01  0.27534898944E+02  0.27652893559E+02  0.12700000000E+01 0. -1.
<mgrwt>
<rscale>  0 0.25518351E+01</rscale>
<asrwt>0</asrwt>
<pdfrwt beam="1">0</pdfrwt>
<pdfrwt beam="2">0</pdfrwt>
<totfact> 0.35436558E+11</totfact>
</mgrwt>
</event>
<event>
 4    1  0.1733759E+006  0.2040822E+01  0.7546771E-02  0.2953703E+00
         22   -1    0    0    0    0  0.00000000000E+00  0.00000000000E+00  0.19797056658E+02  0.19797056658E+02  0.00000000000E+00 0.  1.
         22   -1    0    0    0    0 -0.00000000000E+00 -0.00000000000E+00 -0.24996632404E+00  0.24996632404E+00  0.00000000000E+00 0.  1.
          4    1    1    2  501    0  0.15561772885E+01  0.36106560415E+00  0.13762301452E+02  0.13912796174E+02  0.12700000000E+01 0. -1.
         -4    1    1    2    0  501 -0.15561772885E+01 -0.36106560415E+00  0.57847888823E+01  0.61342268083E+01  0.12700000000E+01 0. -1.
<mgrwt>
<rscale>  0 0.20408224E+01</rscale>
<asrwt>0</asrwt>
<pdfrwt beam="1">0</pdfrwt>
<pdfrwt beam="2">0</pdfrwt>
<totfact> 0.32846215E+12</totfact>
</mgrwt>
</event>
<event>
 4    1  0.1733759E+006  0.2179331E+01  0.7546771E-02  0.2869359E+00
         22   -1    0    0    0    0  0.00000000000E+00  0.00000000000E+00  0.11329759515E+02  0.11329759515E+02  0.00000000000E+00 0. -1.
         22   -1    0    0    0    0 -0.00000000000E+00 -0.00000000000E+00 -0.47155666411E+00  0.47155666411E+00  0.00000000000E+00 0.  1.
          4    1    1    2  501    0 -0.17281360689E+01 -0.38746454253E+00  0.34630178647E+01  0.40916959534E+01  0.12700000000E+01 0. -1.
         -4    1    1    2    0  501  0.17281360689E+01  0.38746454253E+00  0.73951849865E+01  0.77096202260E+01  0.12700000000E+01 0. -1.
<mgrwt>
<rscale>  0 0.21793309E+01</rscale>
<asrwt>0</asrwt>
<pdfrwt beam="1">0</pdfrwt>
<pdfrwt beam="2">0</pdfrwt>
<totfact> 0.32003102E+12</totfact>
</mgrwt>
</event>
<event>
 4    1  0.1733759E+006  0.2224451E+01  0.7546771E-02  0.2844073E+00
         22   -1    0    0    0    0  0.00000000000E+00  0.00000000000E+00  0.36776201154E+02  0.36776201154E+02  0.00000000000E+00 0.  1.
         22   -1    0    0    0    0 -0.00000000000E+00 -0.00000000000E+00 -0.16326956923E+00  0.16326956923E+00  0.00000000000E+00 0. -1.
          4    1    1    2  501    0  0.50524151966E+00 -0.17549968280E+01  0.10559915966E+02  0.10791663823E+02  0.12700000000E+01 0. -1.
         -4    1    1    2    0  501 -0.50524151966E+00  0.17549968280E+01  0.26053015619E+02  0.26147806900E+02  0.12700000000E+01 0.  1.
<mgrwt>
<rscale>  0 0.22244511E+01</rscale>
<asrwt>0</asrwt>
<pdfrwt beam="1">0</pdfrwt>
<pdfrwt beam="2">0</pdfrwt>
<totfact> 0.24100927E+12</totfact>
</mgrwt>
</event>
<event>
 4    1  0.1733759E+006  0.2181985E+01  0.7546771E-02  0.2867843E+00
         22   -1    0    0    0    0  0.00000000000E+00  0.00000000000E+00  0.95444527666E+00  0.95444527666E+00  0.00000000000E+00 0. -1.
         22   -1    0    0    0    0 -0.00000000000E+00 -0.00000000000E+00 -0.24601118821E+02  0.24601118821E+02  0.00000000000E+00 0.  1.
          4    1    1    2  501    0  0.87595900622E+00 -0.15430020640E+01 -0.23232349193E+02  0.23334590388E+02  0.12700000000E+01 0.  1.
         -4    1    1    2    0  501 -0.87595900622E+00  0.15430020640E+01 -0.41432435113E+00  0.22209737095E+01  0.12700000000E+01 0. -1.
<mgrwt>
<rscale>  0 0.21819852E+01</rscale>
<asrwt>0</asrwt>
<pdfrwt beam="1">0</pdfrwt>
<pdfrwt beam="2">0</pdfrwt>
<totfact> 0.55109497E+11</totfact>
</mgrwt>
</event>
<event>
 4    1  0.1733759E+006  0.2233019E+01  0.7546771E-02  0.2839382E+00
         22   -1    0    0    0    0  0.00000000000E+00  0.00000000000E+00  0.19404276231E+02  0.19404276231E+02  0.00000000000E+00 0. -1.
         22   -1    0    0    0    0 -0.00000000000E+00 -0.00000000000E+00 -0.27783354951E+00  0.27783354951E+00  0.00000000000E+00 0. -1.
          4    1    1    2  501    0  0.16854485683E+00  0.18289518223E+01  0.68666385466E+01  0.72206022649E+01  0.12700000000E+01 0. -1.
         -4    1    1    2    0  501 -0.16854485683E+00 -0.18289518223E+01  0.12259804134E+02  0.12461507515E+02  0.12700000000E+01 0. -1.
<mgrwt>
<rscale>  0 0.22330186E+01</rscale>
<asrwt>0</asrwt>
<pdfrwt beam="1">0</pdfrwt>
<pdfrwt beam="2">0</pdfrwt>
<totfact> 0.29920463E+12</totfact>
</mgrwt>
</event>
<event>
 4    1  0.1733759E+006  0.2104564E+01  0.7546771E-02  0.2913552E+00
         22   -1    0    0    0    0  0.00000000000E+00  0.00000000000E+00  0.31529713940E+01  0.31529713940E+01  0.00000000000E+00 0. -1.
         22   -1    0    0    0    0 -0.00000000000E+00 -0.00000000000E+00 -0.14256347648E+01  0.14256347648E+01  0.00000000000E+00 0. -1.
          4    1    1    2  501    0 -0.63295065605E+00  0.15542406445E+01  0.11406403817E+01  0.23937942674E+01  0.12700000000E+01 0. -1.
         -4    1    1    2    0  501  0.63295065605E+00 -0.15542406445E+01  0.58669624743E+00  0.21848118914E+01  0.12700000000E+01 0. -1.
<mgrwt>
<rscale>  0 0.21045642E+01</rscale>
<asrwt>0</asrwt>
<pdfrwt beam="1">0</pdfrwt>
<pdfrwt beam="2">0</pdfrwt>
<totfact> 0.41682528E+12</totfact>
</mgrwt>
</event>
<event>
 4    1  0.1733759E+006  0.2312355E+01  0.7546771E-02  0.2797520E+00
         22   -1    0    0    0    0  0.00000000000E+00  0.00000000000E+00  0.87161531309E+00  0.87161531309E+00  0.00000000000E+00 0. -1.
         22   -1    0    0    0    0 -0.00000000000E+00 -0.00000000000E+00 -0.63089770745E+01  0.63089770745E+01  0.00000000000E+00 0.  1.
          4    1    1    2  501    0 -0.46955097055E+00  0.18744616560E+01 -0.33156249209E+01  0.40423202779E+01  0.12700000000E+01 0.  1.
         -4    1    1    2    0  501  0.46955097055E+00 -0.18744616560E+01 -0.21217368405E+01  0.31382721096E+01  0.12700000000E+01 0.  1.
<mgrwt>
<rscale>  0 0.23123548E+01</rscale>
<asrwt>0</asrwt>
<pdfrwt beam="1">0</pdfrwt>
<pdfrwt beam="2">0</pdfrwt>
<totfact> 0.32276032E+12</totfact>
</mgrwt>
</event>
<event>
 4    1  0.1733759E+006  0.2146381E+01  0.7546771E-02  0.2888468E+00
         22   -1    0    0    0    0  0.00000000000E+00  0.00000000000E+00  0.20327425880E+00  0.20327425880E+00  0.00000000000E+00 0.  1.
         22   -1    0    0    0    0 -0.00000000000E+00 -0.00000000000E+00 -0.22924396865E+02  0.22924396865E+02  0.00000000000E+00 0. -1.
          4    1    1    2  501    0  0.15240864121E+01  0.81927542392E+00 -0.12593669580E+02  0.12775267711E+02  0.12700000000E+01 0.  1.
         -4    1    1    2    0  501 -0.15240864121E+01 -0.81927542392E+00 -0.10127453026E+02  0.10352403412E+02  0.12700000000E+01 0. -1.
<mgrwt>
<rscale>  0 0.21463810E+01</rscale>
<asrwt>0</asrwt>
<pdfrwt beam="1">0</pdfrwt>
<pdfrwt beam="2">0</pdfrwt>
<totfact> 0.34446199E+12</totfact>
</mgrwt>
</event>
<event>
 4    1  0.1733759E+006  0.3206478E+01  0.7546771E-02  0.2460701E+00
         22   -1    0    0    0    0  0.00000000000E+00  0.00000000000E+00  0.32400105986E+00  0.32400105986E+00  0.00000000000E+00 0. -1.
         22   -1    0    0    0    0 -0.00000000000E+00 -0.00000000000E+00 -0.65152695637E+02  0.65152695637E+02  0.00000000000E+00 0. -1.
          4    1    1    2  501    0  0.44120420213E+00 -0.29110028434E+01 -0.89670734157E+01  0.95231247154E+01  0.12700000000E+01 0. -1.
         -4    1    1    2    0  501 -0.44120420213E+00  0.29110028434E+01 -0.55861621161E+02  0.55953571981E+02  0.12700000000E+01 0. -1.
<mgrwt>
<rscale>  0 0.32064776E+01</rscale>
<asrwt>0</asrwt>
<pdfrwt beam="1">0</pdfrwt>
<pdfrwt beam="2">0</pdfrwt>
<totfact> 0.52746869E+11</totfact>
</mgrwt>
</event>
<event>
 4    1  0.1733759E+006  0.4560070E+01  0.7546771E-02  0.2181517E+00
         22   -1    0    0    0    0  0.00000000000E+00  0.00000000000E+00  0.52284459000E+01  0.52284459000E+01  0.00000000000E+00 0. -1.
         22   -1    0    0    0    0 -0.00000000000E+00 -0.00000000000E+00 -0.11729407474E+02  0.11729407474E+02  0.00000000000E+00 0.  1.
          4    1    1    2  501    0  0.14397463115E+01 -0.41362381402E+01 -0.10143624873E+02  0.11121481958E+02  0.12700000000E+01 0.  1.
         -4    1    1    2    0  501 -0.14397463115E+01  0.41362381402E+01  0.36426632987E+01  0.58363714157E+01  0.12700000000E+01 0. -1.
<mgrwt>
<rscale>  0 0.45600697E+01</rscale>
<asrwt>0</asrwt>
<pdfrwt beam="1">0</pdfrwt>
<pdfrwt beam="2">0</pdfrwt>
<totfact> 0.19133251E+11</totfact>
</mgrwt>
</event>
<event>
 4    1  0.1733759E+006  0.5282039E+01  0.7546771E-02  0.2090770E+00
         22   -1    0    0    0    0  0.00000000000E+00  0.00000000000E+00  0.23077667803E+01  0.23077667803E+01  0.00000000000E+00 0. -1.
         22   -1    0    0    0    0 -0.00000000000E+00 -0.00000000000E+00 -0.24708976395E+02  0.24708976395E+02  0.00000000000E+00 0.  1.
          4    1    1    2  501    0 -0.27971930817E+01 -0.42968298422E+01 -0.20854328792E+02  0.21512855812E+02  0.12700000000E+01 0.  1.
         -4    1    1    2    0  501  0.27971930817E+01  0.42968298422E+01 -0.15468808228E+01  0.55038873634E+01  0.12700000000E+01 0. -1.
<mgrwt>
<rscale>  0 0.52820390E+01</rscale>
<asrwt>0</asrwt>
<pdfrwt beam="1">0</pdfrwt>
<pdfrwt beam="2">0</pdfrwt>
<totfact> 0.19846262E+11</totfact>
</mgrwt>
</event>
<event>
 4    1  0.1733759E+006  0.2511836E+01  0.7546771E-02  0.2703335E+00
         22   -1    0    0    0    0  0.00000000000E+00  0.00000000000E+00  0.10224835501E+02  0.10224835501E+02  0.00000000000E+00 0. -1.
         22   -1    0    0    0    0 -0.00000000000E+00 -0.00000000000E+00 -0.62211409252E+00  0.62211409252E+00  0.00000000000E+00 0. -1.
          4    1    1    2  501    0 -0.17099373386E+01 -0.13313663888E+01  0.52902679905E+01  0.58563006732E+01  0.12700000000E+01 0. -1.
         -4    1    1    2    0  501  0.17099373386E+01  0.13313663888E+01  0.43124534176E+01  0.49906489200E+01  0.12700000000E+01 0. -1.
<mgrwt>
<rscale>  0 0.25118364E+01</rscale>
<asrwt>0</asrwt>
<pdfrwt beam="1">0</pdfrwt>
<pdfrwt beam="2">0</pdfrwt>
<totfact> 0.26501506E+12</totfact>
</mgrwt>
</event>
<event>
 4    1  0.1733759E+006  0.2468130E+01  0.7546771E-02  0.2722749E+00
         22   -1    0    0    0    0  0.00000000000E+00  0.00000000000E+00  0.61193979761E+00  0.61193979761E+00  0.00000000000E+00 0.  1.
         22   -1    0    0    0    0 -0.00000000000E+00 -0.00000000000E+00 -0.15348030330E+02  0.15348030330E+02  0.00000000000E+00 0. -1.
          4    1    1    2  501    0 -0.25977494725E+00  0.21003055546E+01 -0.12098522598E+02  0.12347708917E+02  0.12700000000E+01 0. -1.
         -4    1    1    2    0  501  0.25977494725E+00 -0.21003055546E+01 -0.26375679350E+01  0.36122612111E+01  0.12700000000E+01 0.  1.
<mgrwt>
<rscale>  0 0.24681302E+01</rscale>
<asrwt>0</asrwt>
<pdfrwt beam="1">0</pdfrwt>
<pdfrwt beam="2">0</pdfrwt>
<totfact> 0.16440003E+12</totfact>
</mgrwt>
</event>
<event>
 4    1  0.1733759E+006  0.2339703E+01  0.7546771E-02  0.2783715E+00
         22   -1    0    0    0    0  0.00000000000E+00  0.00000000000E+00  0.98414091644E+01  0.98414091644E+01  0.00000000000E+00 0. -1.
         22   -1    0    0    0    0 -0.00000000000E+00 -0.00000000000E+00 -0.71294437479E+00  0.71294437479E+00  0.00000000000E+00 0. -1.
          4    1    1    2  501    0  0.85633878699E+00  0.17686136595E+01  0.20901687676E+01  0.31373581038E+01  0.12700000000E+01 0. -1.
         -4    1    1    2    0  501 -0.85633878699E+00 -0.17686136595E+01  0.70382960220E+01  0.74169954353E+01  0.12700000000E+01 0. -1.
<mgrwt>
<rscale>  0 0.23397031E+01</rscale>
<asrwt>0</asrwt>
<pdfrwt beam="1">0</pdfrwt>
<pdfrwt beam="2">0</pdfrwt>
<totfact> 0.23781300E+12</totfact>
</mgrwt>
</event>
<event>
 4    1  0.1733759E+006  0.3720502E+01  0.7546771E-02  0.2334132E+00
         22   -1    0    0    0    0  0.00000000000E+00  0.00000000000E+00  0.37809757159E+01  0.37809757159E+01  0.00000000000E+00 0.  1.
         22   -1    0    0    0    0 -0.00000000000E+00 -0.00000000000E+00 -0.15791851754E+02  0.15791851754E+02  0.00000000000E+00 0. -1.
          4    1    1    2  501    0  0.27047934169E+01 -0.22166033761E+01 -0.14582780629E+02  0.15049904612E+02  0.12700000000E+01 0. -1.
         -4    1    1    2    0  501 -0.27047934169E+01  0.22166033761E+01  0.25719045908E+01  0.45229228580E+01  0.12700000000E+01 0.  1.
<mgrwt>
<rscale>  0 0.37205024E+01</rscale>
<asrwt>0</asrwt>
<pdfrwt beam="1">0</pdfrwt>
<pdfrwt beam="2">0</pdfrwt>
<totfact> 0.19481315E+11</totfact>
</mgrwt>
</event>
<event>
 4    1  0.1733759E+006  0.3107265E+01  0.7546771E-02  0.2489333E+00
         22   -1    0    0    0    0  0.00000000000E+00  0.00000000000E+00  0.61113074041E+01  0.61113074041E+01  0.00000000000E+00 0. -1.
         22   -1    0    0    0    0 -0.00000000000E+00 -0.00000000000E+00 -0.16371779068E+01  0.16371779068E+01  0.00000000000E+00 0.  1.
          4    1    1    2  501    0 -0.18972756090E+01 -0.21077330822E+01  0.15122410985E+01  0.34557150667E+01  0.12700000000E+01 0. -1.
         -4    1    1    2    0  501  0.18972756090E+01  0.21077330822E+01  0.29618883988E+01  0.42927702442E+01  0.12700000000E+01 0.  1.
<mgrwt>
<rscale>  0 0.31072646E+01</rscale>
<asrwt>0</asrwt>
<pdfrwt beam="1">0</pdfrwt>
<pdfrwt beam="2">0</pdfrwt>
<totfact> 0.16281835E+12</totfact>
</mgrwt>
</event>
<event>
 4    1  0.1733759E+006  0.2649540E+01  0.7546771E-02  0.2646061E+00
         22   -1    0    0    0    0  0.00000000000E+00  0.00000000000E+00  0.57474298791E+00  0.57474298791E+00  0.00000000000E+00 0. -1.
         22   -1    0    0    0    0 -0.00000000000E+00 -0.00000000000E+00 -0.12280369434E+02  0.12280369434E+02  0.00000000000E+00 0.  1.
          4    1    1    2  501    0  0.12535696127E+01  0.19585004854E+01 -0.63244071899E+01  0.68569809121E+01  0.12700000000E+01 0. -1.
         -4    1    1    2    0  501 -0.12535696127E+01 -0.19585004854E+01 -0.53812192559E+01  0.59981315095E+01  0.12700000000E+01 0.  1.
<mgrwt>
<rscale>  0 0.26495398E+01</rscale>
<asrwt>0</asrwt>
<pdfrwt beam="1">0</pdfrwt>
<pdfrwt beam="2">0</pdfrwt>
<totfact> 0.23199228E+12</totfact>
</mgrwt>
</event>
<event>
 4    1  0.1733759E+006  0.3246432E+01  0.7546771E-02  0.2449609E+00
         22   -1    0    0    0    0  0.00000000000E+00  0.00000000000E+00  0.34974244988E+02  0.34974244988E+02  0.00000000000E+00 0. -1.
         22   -1    0    0    0    0 -0.00000000000E+00 -0.00000000000E+00 -0.33406624169E+00  0.33406624169E+00  0.00000000000E+00 0.  1.
          4    1    1    2  501    0 -0.29814178693E+01 -0.19382405275E+00  0.11794936171E+02  0.12233553840E+02  0.12700000000E+01 0.  1.
         -4    1    1    2    0  501  0.29814178693E+01  0.19382405275E+00  0.22845242575E+02  0.23074757390E+02  0.12700000000E+01 0. -1.
<mgrwt>
<rscale>  0 0.32464319E+01</rscale>
<asrwt>0</asrwt>
<pdfrwt beam="1">0</pdfrwt>
<pdfrwt beam="2">0</pdfrwt>
<totfact> 0.11551629E+12</totfact>
</mgrwt>
</event>
<event>
 4    1  0.1733759E+006  0.3361136E+01  0.7546771E-02  0.2419063E+00
         22   -1    0    0    0    0  0.00000000000E+00  0.00000000000E+00  0.22038689814E+01  0.22038689814E+01  0.00000000000E+00 0.  1.
         22   -1    0    0    0    0 -0.00000000000E+00 -0.00000000000E+00 -0.52006334030E+01  0.52006334030E+01  0.00000000000E+00 0.  1.
          4    1    1    2  501    0 -0.27279370896E+01  0.14975624113E+01 -0.10551430262E+01  0.35228625784E+01  0.12700000000E+01 0.  1.
         -4    1    1    2    0  501  0.27279370896E+01 -0.14975624113E+01 -0.19416213955E+01  0.38816398060E+01  0.12700000000E+01 0.  1.
<mgrwt>
<rscale>  0 0.33611358E+01</rscale>
<asrwt>0</asrwt>
<pdfrwt beam="1">0</pdfrwt>
<pdfrwt beam="2">0</pdfrwt>
<totfact> 0.13986650E+12</totfact>
</mgrwt>
</event>
<event>
 4    1  0.1733759E+006  0.2035991E+01  0.7546771E-02  0.2956846E+00
         22   -1    0    0    0    0  0.00000000000E+00  0.00000000000E+00  0.26120258370E+02  0.26120258370E+02  0.00000000000E+00 0. -1.
         22   -1    0    0    0    0 -0.00000000000E+00 -0.00000000000E+00 -0.13385277643E+01  0.13385277643E+01  0.00000000000E+00 0.  1.
          4    1    1    2  501    0  0.14871521800E+01 -0.56633865268E+00 -0.49896267568E+00  0.20962406417E+01  0.12700000000E+01 0.  1.
         -4    1    1    2    0  501 -0.14871521800E+01  0.56633865268E+00  0.25280693281E+02  0.25362545493E+02  0.12700000000E+01 0. -1.
<mgrwt>
<rscale>  0 0.20359914E+01</rscale>
<asrwt>0</asrwt>
<pdfrwt beam="1">0</pdfrwt>
<pdfrwt beam="2">0</pdfrwt>
<totfact> 0.34694077E+11</totfact>
</mgrwt>
</event>
<event>
 4    1  0.1733759E+006  0.2091979E+01  0.7546771E-02  0.2921291E+00
         22   -1    0    0    0    0  0.00000000000E+00  0.00000000000E+00  0.19118477513E+02  0.19118477513E+02  0.00000000000E+00 0. -1.
         22   -1    0    0    0    0 -0.00000000000E+00 -0.00000000000E+00 -0.23128534507E+00  0.23128534507E+00  0.00000000000E+00 0. -1.
          4    1    1    2  501    0 -0.43620349614E+00  0.16041204960E+01  0.84627508636E+01  0.87174840542E+01  0.12700000000E+01 0. -1.
         -4    1    1    2    0  501  0.43620349614E+00 -0.16041204960E+01  0.10424441304E+02  0.10632278804E+02  0.12700000000E+01 0. -1.
<mgrwt>
<rscale>  0 0.20919790E+01</rscale>
<asrwt>0</asrwt>
<pdfrwt beam="1">0</pdfrwt>
<pdfrwt beam="2">0</pdfrwt>
<totfact> 0.37417326E+12</totfact>
</mgrwt>
</event>
<event>
 4    1  0.1733759E+006  0.2357226E+01  0.7546771E-02  0.2775029E+00
         22   -1    0    0    0    0  0.00000000000E+00  0.00000000000E+00  0.77355986670E+01  0.77355986670E+01  0.00000000000E+00 0.  1.
         22   -1    0    0    0    0 -0.00000000000E+00 -0.00000000000E+00 -0.21108348537E+01  0.21108348537E+01  0.00000000000E+00 0.  1.
          4    1    1    2  501    0  0.14909421569E+01 -0.13117562484E+01 -0.11863677149E+01  0.26389356425E+01  0.12700000000E+01 0.  1.
         -4    1    1    2    0  501 -0.14909421569E+01  0.13117562484E+01  0.68111315281E+01  0.72074978782E+01  0.12700000000E+01 0.  1.
<mgrwt>
<rscale>  0 0.23572257E+01</rscale>
<asrwt>0</asrwt>
<pdfrwt beam="1">0</pdfrwt>
<pdfrwt beam="2">0</pdfrwt>
<totfact> 0.91575092E+11</totfact>
</mgrwt>
</event>
<event>
 4    1  0.1733759E+006  0.2467641E+01  0.7546771E-02  0.2722970E+00
         22   -1    0    0    0    0  0.00000000000E+00  0.00000000000E+00  0.39579752660E+02  0.39579752660E+02  0.00000000000E+00 0. -1.
         22   -1    0    0    0    0 -0.00000000000E+00 -0.00000000000E+00 -0.16180436745E+00  0.16180436745E+00  0.00000000000E+00 0.  1.
          4    1    1    2  501    0 -0.20555990268E+01 -0.50086257699E+00  0.15302536839E+02  0.15500222075E+02  0.12700000000E+01 0. -1.
         -4    1    1    2    0  501  0.20555990268E+01  0.50086257699E+00  0.24115411454E+02  0.24241334952E+02  0.12700000000E+01 0.  1.
<mgrwt>
<rscale>  0 0.24676407E+01</rscale>
<asrwt>0</asrwt>
<pdfrwt beam="1">0</pdfrwt>
<pdfrwt beam="2">0</pdfrwt>
<totfact> 0.22137534E+12</totfact>
</mgrwt>
</event>
<event>
 4    1  0.1733759E+006  0.4005231E+01  0.7546771E-02  0.2276296E+00
         22   -1    0    0    0    0  0.00000000000E+00  0.00000000000E+00  0.25583773559E+02  0.25583773559E+02  0.00000000000E+00 0. -1.
         22   -1    0    0    0    0 -0.00000000000E+00 -0.00000000000E+00 -0.22073871065E+01  0.22073871065E+01  0.00000000000E+00 0.  1.
          4    1    1    2  501    0 -0.22736677691E+01 -0.30429276111E+01  0.23445683430E+02  0.23785330459E+02  0.12700000000E+01 0. -1.
         -4    1    1    2    0  501  0.22736677691E+01  0.30429276111E+01 -0.69296977191E-01  0.40058302063E+01  0.12700000000E+01 0.  1.
<mgrwt>
<rscale>  0 0.40052308E+01</rscale>
<asrwt>0</asrwt>
<pdfrwt beam="1">0</pdfrwt>
<pdfrwt beam="2">0</pdfrwt>
<totfact> 0.19999854E+11</totfact>
</mgrwt>
</event>
<event>
 4    1  0.1733759E+006  0.2406717E+01  0.7546771E-02  0.2751141E+00
         22   -1    0    0    0    0  0.00000000000E+00  0.00000000000E+00  0.84400399013E+00  0.84400399013E+00  0.00000000000E+00 0.  1.
         22   -1    0    0    0    0 -0.00000000000E+00 -0.00000000000E+00 -0.69757961739E+01  0.69757961739E+01  0.00000000000E+00 0. -1.
          4    1    1    2  501    0  0.19405632158E+01  0.64311682196E+00 -0.35633777372E+01  0.42999936906E+01  0.12700000000E+01 0.  1.
         -4    1    1    2    0  501 -0.19405632158E+01 -0.64311682196E+00 -0.25684144465E+01  0.35198064734E+01  0.12700000000E+01 0.  1.
<mgrwt>
<rscale>  0 0.24067166E+01</rscale>
<asrwt>0</asrwt>
<pdfrwt beam="1">0</pdfrwt>
<pdfrwt beam="2">0</pdfrwt>
<totfact> 0.29696348E+12</totfact>
</mgrwt>
</event>
<event>
 4    1  0.1733759E+006  0.2450188E+01  0.7546771E-02  0.2730906E+00
         22   -1    0    0    0    0  0.00000000000E+00  0.00000000000E+00  0.13759046234E+00  0.13759046234E+00  0.00000000000E+00 0.  1.
         22   -1    0    0    0    0 -0.00000000000E+00 -0.00000000000E+00 -0.54349625032E+02  0.54349625032E+02  0.00000000000E+00 0. -1.
          4    1    1    2  501    0  0.20439439075E+01 -0.46131832590E+00 -0.39203769615E+02  0.39280261880E+02  0.12700000000E+01 0. -1.
         -4    1    1    2    0  501 -0.20439439075E+01  0.46131832590E+00 -0.15008264954E+02  0.15206953614E+02  0.12700000000E+01 0.  1.
<mgrwt>
<rscale>  0 0.24501880E+01</rscale>
<asrwt>0</asrwt>
<pdfrwt beam="1">0</pdfrwt>
<pdfrwt beam="2">0</pdfrwt>
<totfact> 0.17488079E+12</totfact>
</mgrwt>
</event>
<event>
 4    1  0.1733759E+006  0.3207383E+01  0.7546771E-02  0.2460447E+00
         22   -1    0    0    0    0  0.00000000000E+00  0.00000000000E+00  0.59771015137E+01  0.59771015137E+01  0.00000000000E+00 0. -1.
         22   -1    0    0    0    0 -0.00000000000E+00 -0.00000000000E+00 -0.17271535692E+01  0.17271535692E+01  0.00000000000E+00 0.  1.
          4    1    1    2  501    0 -0.63283186788E+00 -0.28764434945E+01  0.18972776111E+01  0.37265219285E+01  0.12700000000E+01 0.  1.
         -4    1    1    2    0  501  0.63283186788E+00  0.28764434945E+01  0.23526703334E+01  0.39777331544E+01  0.12700000000E+01 0. -1.
<mgrwt>
<rscale>  0 0.32073826E+01</rscale>
<asrwt>0</asrwt>
<pdfrwt beam="1">0</pdfrwt>
<pdfrwt beam="2">0</pdfrwt>
<totfact> 0.15717726E+12</totfact>
</mgrwt>
</event>
<event>
 4    1  0.1733759E+006  0.2143438E+01  0.7546771E-02  0.2890203E+00
         22   -1    0    0    0    0  0.00000000000E+00  0.00000000000E+00  0.24553473529E+01  0.24553473529E+01  0.00000000000E+00 0. -1.
         22   -1    0    0    0    0 -0.00000000000E+00 -0.00000000000E+00 -0.23950491482E+01  0.23950491482E+01  0.00000000000E+00 0.  1.
          4    1    1    2  501    0 -0.47465583342E+00  0.16601596888E+01 -0.11041119182E+01  0.24110975676E+01  0.12700000000E+01 0.  1.
         -4    1    1    2    0  501  0.47465583342E+00 -0.16601596888E+01  0.11644101229E+01  0.24392989335E+01  0.12700000000E+01 0. -1.
<mgrwt>
<rscale>  0 0.21434384E+01</rscale>
<asrwt>0</asrwt>
<pdfrwt beam="1">0</pdfrwt>
<pdfrwt beam="2">0</pdfrwt>
<totfact> 0.30636716E+12</totfact>
</mgrwt>
</event>
<event>
 4    1  0.1733759E+006  0.2240619E+01  0.7546771E-02  0.2835250E+00
         22   -1    0    0    0    0  0.00000000000E+00  0.00000000000E+00  0.29798452418E+01  0.29798452418E+01  0.00000000000E+00 0.  1.
         22   -1    0    0    0    0 -0.00000000000E+00 -0.00000000000E+00 -0.17755457932E+01  0.17755457932E+01  0.00000000000E+00 0.  1.
          4    1    1    2  501    0  0.54969280765E+00  0.17621889657E+01  0.64547987798E-01  0.22415482543E+01  0.12700000000E+01 0.  1.
         -4    1    1    2    0  501 -0.54969280765E+00 -0.17621889657E+01  0.11397514607E+01  0.25138427807E+01  0.12700000000E+01 0.  1.
<mgrwt>
<rscale>  0 0.22406187E+01</rscale>
<asrwt>0</asrwt>
<pdfrwt beam="1">0</pdfrwt>
<pdfrwt beam="2">0</pdfrwt>
<totfact> 0.34579681E+12</totfact>
</mgrwt>
</event>
<event>
 4    1  0.1733759E+006  0.2453581E+01  0.7546771E-02  0.2729355E+00
         22   -1    0    0    0    0  0.00000000000E+00  0.00000000000E+00  0.23900771066E+01  0.23900771066E+01  0.00000000000E+00 0. -1.
         22   -1    0    0    0    0 -0.00000000000E+00 -0.00000000000E+00 -0.25696725916E+01  0.25696725916E+01  0.00000000000E+00 0.  1.
          4    1    1    2  501    0  0.19979594839E+01  0.64445222818E+00  0.25922171739E+00  0.24672366470E+01  0.12700000000E+01 0. -1.
         -4    1    1    2    0  501 -0.19979594839E+01 -0.64445222818E+00 -0.43881720242E+00  0.24925130513E+01  0.12700000000E+01 0.  1.
<mgrwt>
<rscale>  0 0.24535812E+01</rscale>
<asrwt>0</asrwt>
<pdfrwt beam="1">0</pdfrwt>
<pdfrwt beam="2">0</pdfrwt>
<totfact> 0.29128516E+12</totfact>
</mgrwt>
</event>
<event>
 4    1  0.1733759E+006  0.2085922E+01  0.7546771E-02  0.2925048E+00
         22   -1    0    0    0    0  0.00000000000E+00  0.00000000000E+00  0.86581677582E+01  0.86581677582E+01  0.00000000000E+00 0. -1.
         22   -1    0    0    0    0 -0.00000000000E+00 -0.00000000000E+00 -0.98887538266E+00  0.98887538266E+00  0.00000000000E+00 0.  1.
          4    1    1    2  501    0 -0.16478990045E+01 -0.15033414783E+00  0.45196094072E+00  0.21343242905E+01  0.12700000000E+01 0.  1.
         -4    1    1    2    0  501  0.16478990045E+01  0.15033414783E+00  0.72173314348E+01  0.75127188504E+01  0.12700000000E+01 0. -1.
<mgrwt>
<rscale>  0 0.20859222E+01</rscale>
<asrwt>0</asrwt>
<pdfrwt beam="1">0</pdfrwt>
<pdfrwt beam="2">0</pdfrwt>
<totfact> 0.19125428E+12</totfact>
</mgrwt>
</event>
<event>
 4    1  0.1733759E+006  0.3467115E+01  0.7546771E-02  0.2392425E+00
         22   -1    0    0    0    0  0.00000000000E+00  0.00000000000E+00  0.20291020427E+01  0.20291020427E+01  0.00000000000E+00 0.  1.
         22   -1    0    0    0    0 -0.00000000000E+00 -0.00000000000E+00 -0.87576508208E+01  0.87576508208E+01  0.00000000000E+00 0. -1.
          4    1    1    2  501    0  0.31099140118E+01 -0.85815072152E+00 -0.64320365171E+01  0.73069817011E+01  0.12700000000E+01 0. -1.
         -4    1    1    2    0  501 -0.31099140118E+01  0.85815072152E+00 -0.29651226103E+00  0.34797711624E+01  0.12700000000E+01 0.  1.
<mgrwt>
<rscale>  0 0.34671152E+01</rscale>
<asrwt>0</asrwt>
<pdfrwt beam="1">0</pdfrwt>
<pdfrwt beam="2">0</pdfrwt>
<totfact> 0.82575139E+11</totfact>
</mgrwt>
</event>
<event>
 4    1  0.1733759E+006  0.2113949E+01  0.7546771E-02  0.2907839E+00
         22   -1    0    0    0    0  0.00000000000E+00  0.00000000000E+00  0.76560148245E-01  0.76560148245E-01  0.00000000000E+00 0. -1.
         22   -1    0    0    0    0 -0.00000000000E+00 -0.00000000000E+00 -0.59694968520E+02  0.59694968520E+02  0.00000000000E+00 0. -1.
          4    1    1    2  501    0 -0.23630836195E+00  0.16733311315E+01 -0.25355947141E+02  0.25443915464E+02  0.12700000000E+01 0. -1.
         -4    1    1    2    0  501  0.23630836195E+00 -0.16733311315E+01 -0.34262461231E+02  0.34327613204E+02  0.12700000000E+01 0. -1.
<mgrwt>
<rscale>  0 0.21139486E+01</rscale>
<asrwt>0</asrwt>
<pdfrwt beam="1">0</pdfrwt>
<pdfrwt beam="2">0</pdfrwt>
<totfact> 0.29534182E+12</totfact>
</mgrwt>
</event>
<event>
 4    1  0.1733759E+006  0.4283690E+01  0.7546771E-02  0.2226138E+00
         22   -1    0    0    0    0  0.00000000000E+00  0.00000000000E+00  0.15156657095E+01  0.15156657095E+01  0.00000000000E+00 0.  1.
         22   -1    0    0    0    0 -0.00000000000E+00 -0.00000000000E+00 -0.16461450389E+02  0.16461450389E+02  0.00000000000E+00 0. -1.
          4    1    1    2  501    0 -0.34802536076E+01 -0.21505654316E+01 -0.12095937930E+02  0.12832057951E+02  0.12700000000E+01 0. -1.
         -4    1    1    2    0  501  0.34802536076E+01  0.21505654316E+01 -0.28498467502E+01  0.51450581482E+01  0.12700000000E+01 0.  1.
<mgrwt>
<rscale>  0 0.42836896E+01</rscale>
<asrwt>0</asrwt>
<pdfrwt beam="1">0</pdfrwt>
<pdfrwt beam="2">0</pdfrwt>
<totfact> 0.53555235E+11</totfact>
</mgrwt>
</event>
<event>
 4    1  0.1733759E+006  0.2096074E+01  0.7546771E-02  0.2918763E+00
         22   -1    0    0    0    0  0.00000000000E+00  0.00000000000E+00  0.82771368360E+00  0.82771368360E+00  0.00000000000E+00 0. -1.
         22   -1    0    0    0    0 -0.00000000000E+00 -0.00000000000E+00 -0.63474880839E+01  0.63474880839E+01  0.00000000000E+00 0.  1.
          4    1    1    2  501    0  0.11991895505E+01 -0.11586926105E+01 -0.13080834712E+01  0.24707501920E+01  0.12700000000E+01 0. -1.
         -4    1    1    2    0  501 -0.11991895505E+01  0.11586926105E+01 -0.42116909291E+01  0.47044515755E+01  0.12700000000E+01 0.  1.
<mgrwt>
<rscale>  0 0.20960735E+01</rscale>
<asrwt>0</asrwt>
<pdfrwt beam="1">0</pdfrwt>
<pdfrwt beam="2">0</pdfrwt>
<totfact> 0.33983540E+12</totfact>
</mgrwt>
</event>
<event>
 4    1  0.1733759E+006  0.2090638E+01  0.7546771E-02  0.2922121E+00
         22   -1    0    0    0    0  0.00000000000E+00  0.00000000000E+00  0.27561244827E+01  0.27561244827E+01  0.00000000000E+00 0. -1.
         22   -1    0    0    0    0 -0.00000000000E+00 -0.00000000000E+00 -0.18699675821E+01  0.18699675821E+01  0.00000000000E+00 0.  1.
          4    1    1    2  501    0 -0.16606818775E+01  0.19961345830E-02 -0.45854477468E+00  0.21403344583E+01  0.12700000000E+01 0.  1.
         -4    1    1    2    0  501  0.16606818775E+01 -0.19961345830E-02  0.13447016753E+01  0.24857576065E+01  0.12700000000E+01 0. -1.
<mgrwt>
<rscale>  0 0.20906382E+01</rscale>
<asrwt>0</asrwt>
<pdfrwt beam="1">0</pdfrwt>
<pdfrwt beam="2">0</pdfrwt>
<totfact> 0.35675067E+12</totfact>
</mgrwt>
</event>
<event>
 4    1  0.1733759E+006  0.2129408E+01  0.7546771E-02  0.2898535E+00
         22   -1    0    0    0    0  0.00000000000E+00  0.00000000000E+00  0.52398729735E+00  0.52398729735E+00  0.00000000000E+00 0. -1.
         22   -1    0    0    0    0 -0.00000000000E+00 -0.00000000000E+00 -0.87204322687E+01  0.87204322687E+01  0.00000000000E+00 0.  1.
          4    1    1    2  501    0  0.15567677149E+01  0.70565616357E+00 -0.36935770944E+01  0.42634361835E+01  0.12700000000E+01 0. -1.
         -4    1    1    2    0  501 -0.15567677149E+01 -0.70565616357E+00 -0.45028678770E+01  0.49809833825E+01  0.12700000000E+01 0.  1.
<mgrwt>
<rscale>  0 0.21294075E+01</rscale>
<asrwt>0</asrwt>
<pdfrwt beam="1">0</pdfrwt>
<pdfrwt beam="2">0</pdfrwt>
<totfact> 0.39005082E+12</totfact>
</mgrwt>
</event>
<event>
 4    1  0.1733759E+006  0.2394702E+01  0.7546771E-02  0.2756855E+00
         22   -1    0    0    0    0  0.00000000000E+00  0.00000000000E+00  0.55661715392E+01  0.55661715392E+01  0.00000000000E+00 0.  1.
         22   -1    0    0    0    0 -0.00000000000E+00 -0.00000000000E+00 -0.11204617237E+01  0.11204617237E+01  0.00000000000E+00 0.  1.
          4    1    1    2  501    0 -0.13994408562E+01  0.14708041779E+01  0.12742436972E+01  0.27126180416E+01  0.12700000000E+01 0.  1.
         -4    1    1    2    0  501  0.13994408562E+01 -0.14708041779E+01  0.31714661183E+01  0.39740152213E+01  0.12700000000E+01 0.  1.
<mgrwt>
<rscale>  0 0.23947024E+01</rscale>
<asrwt>0</asrwt>
<pdfrwt beam="1">0</pdfrwt>
<pdfrwt beam="2">0</pdfrwt>
<totfact> 0.28124768E+12</totfact>
</mgrwt>
</event>
<event>
 4    1  0.1733759E+006  0.6589568E+01  0.7546771E-02  0.1970528E+00
         22   -1    0    0    0    0  0.00000000000E+00  0.00000000000E+00  0.27046560027E+02  0.27046560027E+02  0.00000000000E+00 0.  1.
         22   -1    0    0    0    0 -0.00000000000E+00 -0.00000000000E+00 -0.21676657151E+01  0.21676657151E+01  0.00000000000E+00 0. -1.
          4    1    1    2  501    0  0.46438286562E+01  0.44993740352E+01  0.50004838459E+01  0.82720765222E+01  0.12700000000E+01 0.  1.
         -4    1    1    2    0  501 -0.46438286562E+01 -0.44993740352E+01  0.19878410466E+02  0.20942149220E+02  0.12700000000E+01 0. -1.
<mgrwt>
<rscale>  0 0.65895684E+01</rscale>
<asrwt>0</asrwt>
<pdfrwt beam="1">0</pdfrwt>
<pdfrwt beam="2">0</pdfrwt>
<totfact> 0.19038355E+11</totfact>
</mgrwt>
</event>
<event>
 4    1  0.1733759E+006  0.2914253E+01  0.7546771E-02  0.2549991E+00
         22   -1    0    0    0    0  0.00000000000E+00  0.00000000000E+00  0.73828987572E+01  0.73828987572E+01  0.00000000000E+00 0.  1.
         22   -1    0    0    0    0 -0.00000000000E+00 -0.00000000000E+00 -0.11525961132E+01  0.11525961132E+01  0.00000000000E+00 0. -1.
          4    1    1    2  501    0 -0.20529432335E+01 -0.16326043342E+01  0.29264994157E+01  0.41300449951E+01  0.12700000000E+01 0. -1.
         -4    1    1    2    0  501  0.20529432335E+01  0.16326043342E+01  0.33038032283E+01  0.44054498752E+01  0.12700000000E+01 0.  1.
<mgrwt>
<rscale>  0 0.29142534E+01</rscale>
<asrwt>0</asrwt>
<pdfrwt beam="1">0</pdfrwt>
<pdfrwt beam="2">0</pdfrwt>
<totfact> 0.19440912E+12</totfact>
</mgrwt>
</event>
<event>
 4    1  0.1733759E+006  0.3508552E+01  0.7546771E-02  0.2382393E+00
         22   -1    0    0    0    0  0.00000000000E+00  0.00000000000E+00  0.15627908945E+01  0.15627908945E+01  0.00000000000E+00 0.  1.
         22   -1    0    0    0    0 -0.00000000000E+00 -0.00000000000E+00 -0.82231914807E+01  0.82231914807E+01  0.00000000000E+00 0. -1.
          4    1    1    2  501    0  0.26969849125E+01 -0.18502187895E+01 -0.43343057154E+01  0.55763915951E+01  0.12700000000E+01 0.  1.
         -4    1    1    2    0  501 -0.26969849125E+01  0.18502187895E+01 -0.23260948708E+01  0.42095907801E+01  0.12700000000E+01 0. -1.
<mgrwt>
<rscale>  0 0.35085520E+01</rscale>
<asrwt>0</asrwt>
<pdfrwt beam="1">0</pdfrwt>
<pdfrwt beam="2">0</pdfrwt>
<totfact> 0.12042354E+12</totfact>
</mgrwt>
</event>
<event>
 4    1  0.1733759E+006  0.2434997E+01  0.7546771E-02  0.2737900E+00
         22   -1    0    0    0    0  0.00000000000E+00  0.00000000000E+00  0.20803765551E+02  0.20803765551E+02  0.00000000000E+00 0.  1.
         22   -1    0    0    0    0 -0.00000000000E+00 -0.00000000000E+00 -0.30568792699E+00  0.30568792699E+00  0.00000000000E+00 0. -1.
          4    1    1    2  501    0 -0.14308967525E+01 -0.15062690022E+01  0.75036973020E+01  0.78888963121E+01  0.12700000000E+01 0. -1.
         -4    1    1    2    0  501  0.14308967525E+01  0.15062690022E+01  0.12994380322E+02  0.13220557166E+02  0.12700000000E+01 0.  1.
<mgrwt>
<rscale>  0 0.24349973E+01</rscale>
<asrwt>0</asrwt>
<pdfrwt beam="1">0</pdfrwt>
<pdfrwt beam="2">0</pdfrwt>
<totfact> 0.24646289E+12</totfact>
</mgrwt>
</event>
<event>
 4    1  0.1733759E+006  0.2035512E+01  0.7546771E-02  0.2957159E+00
         22   -1    0    0    0    0  0.00000000000E+00  0.00000000000E+00  0.56034478417E+00  0.56034478417E+00  0.00000000000E+00 0. -1.
         22   -1    0    0    0    0 -0.00000000000E+00 -0.00000000000E+00 -0.21288930197E+02  0.21288930197E+02  0.00000000000E+00 0.  1.
          4    1    1    2  501    0  0.14296327046E+01 -0.69753730286E+00 -0.19190111206E+02  0.19297763499E+02  0.12700000000E+01 0.  1.
         -4    1    1    2    0  501 -0.14296327046E+01  0.69753730286E+00 -0.15384742067E+01  0.25515114822E+01  0.12700000000E+01 0. -1.
<mgrwt>
<rscale>  0 0.20355117E+01</rscale>
<asrwt>0</asrwt>
<pdfrwt beam="1">0</pdfrwt>
<pdfrwt beam="2">0</pdfrwt>
<totfact> 0.12100443E+12</totfact>
</mgrwt>
</event>
<event>
 4    1  0.1733759E+006  0.3110758E+01  0.7546771E-02  0.2488297E+00
         22   -1    0    0    0    0  0.00000000000E+00  0.00000000000E+00  0.15701517608E+01  0.15701517608E+01  0.00000000000E+00 0. -1.
         22   -1    0    0    0    0 -0.00000000000E+00 -0.00000000000E+00 -0.91862763634E+01  0.91862763634E+01  0.00000000000E+00 0.  1.
          4    1    1    2  501    0 -0.18829110161E+01  0.21256914447E+01 -0.68934411871E+01  0.75628268136E+01  0.12700000000E+01 0.  1.
         -4    1    1    2    0  501  0.18829110161E+01 -0.21256914447E+01 -0.72268341544E+00  0.31936013106E+01  0.12700000000E+01 0. -1.
<mgrwt>
<rscale>  0 0.31107584E+01</rscale>
<asrwt>0</asrwt>
<pdfrwt beam="1">0</pdfrwt>
<pdfrwt beam="2">0</pdfrwt>
<totfact> 0.10481116E+12</totfact>
</mgrwt>
</event>
<event>
 4    1  0.1733759E+006  0.3093699E+01  0.7546771E-02  0.2493375E+00
         22   -1    0    0    0    0  0.00000000000E+00  0.00000000000E+00  0.34901870397E+01  0.34901870397E+01  0.00000000000E+00 0.  1.
         22   -1    0    0    0    0 -0.00000000000E+00 -0.00000000000E+00 -0.28308188352E+01  0.28308188352E+01  0.00000000000E+00 0. -1.
          4    1    1    2  501    0  0.23571136614E+01 -0.15498671451E+01 -0.22934614691E+00  0.31021883623E+01  0.12700000000E+01 0. -1.
         -4    1    1    2    0  501 -0.23571136614E+01  0.15498671451E+01  0.88871435144E+00  0.32188175125E+01  0.12700000000E+01 0.  1.
<mgrwt>
<rscale>  0 0.30936989E+01</rscale>
<asrwt>0</asrwt>
<pdfrwt beam="1">0</pdfrwt>
<pdfrwt beam="2">0</pdfrwt>
<totfact> 0.16727174E+12</totfact>
</mgrwt>
</event>
<event>
 4    1  0.1733759E+006  0.2974008E+01  0.7546771E-02  0.2530458E+00
         22   -1    0    0    0    0  0.00000000000E+00  0.00000000000E+00  0.30241484186E+00  0.30241484186E+00  0.00000000000E+00 0. -1.
         22   -1    0    0    0    0 -0.00000000000E+00 -0.00000000000E+00 -0.38376097648E+02  0.38376097648E+02  0.00000000000E+00 0.  1.
          4    1    1    2  501    0  0.26464620107E+01 -0.47755710120E+00 -0.28469273249E+02  0.28624189792E+02  0.12700000000E+01 0.  1.
         -4    1    1    2    0  501 -0.26464620107E+01  0.47755710120E+00 -0.96044095577E+01  0.10054322698E+02  0.12700000000E+01 0. -1.
<mgrwt>
<rscale>  0 0.29740077E+01</rscale>
<asrwt>0</asrwt>
<pdfrwt beam="1">0</pdfrwt>
<pdfrwt beam="2">0</pdfrwt>
<totfact> 0.11458661E+12</totfact>
</mgrwt>
</event>
<event>
 4    1  0.1733759E+006  0.2592315E+01  0.7546771E-02  0.2669179E+00
         22   -1    0    0    0    0  0.00000000000E+00  0.00000000000E+00  0.69052920263E+00  0.69052920263E+00  0.00000000000E+00 0.  1.
         22   -1    0    0    0    0 -0.00000000000E+00 -0.00000000000E+00 -0.10176884917E+02  0.10176884917E+02  0.00000000000E+00 0. -1.
          4    1    1    2  501    0 -0.31229390687E+00 -0.22382285653E+01 -0.36068374204E+01  0.44417756328E+01  0.12700000000E+01 0. -1.
         -4    1    1    2    0  501  0.31229390687E+00  0.22382285653E+01 -0.58795182942E+01  0.64256384871E+01  0.12700000000E+01 0.  1.
<mgrwt>
<rscale>  0 0.25923145E+01</rscale>
<asrwt>0</asrwt>
<pdfrwt beam="1">0</pdfrwt>
<pdfrwt beam="2">0</pdfrwt>
<totfact> 0.23679155E+12</totfact>
</mgrwt>
</event>
<event>
 4    1  0.1733759E+006  0.2935649E+01  0.7546771E-02  0.2542915E+00
         22   -1    0    0    0    0  0.00000000000E+00  0.00000000000E+00  0.13812108196E+00  0.13812108196E+00  0.00000000000E+00 0.  1.
         22   -1    0    0    0    0 -0.00000000000E+00 -0.00000000000E+00 -0.62594077387E+02  0.62594077387E+02  0.00000000000E+00 0. -1.
          4    1    1    2  501    0  0.20112716691E+01 -0.17204416855E+01 -0.32997900342E+02  0.33128227545E+02  0.12700000000E+01 0.  1.
         -4    1    1    2    0  501 -0.20112716691E+01  0.17204416855E+01 -0.29458055963E+02  0.29603970924E+02  0.12700000000E+01 0.  1.
<mgrwt>
<rscale>  0 0.29356487E+01</rscale>
<asrwt>0</asrwt>
<pdfrwt beam="1">0</pdfrwt>
<pdfrwt beam="2">0</pdfrwt>
<totfact> 0.14421037E+12</totfact>
</mgrwt>
</event>
<event>
 4    1  0.1733759E+006  0.2647178E+01  0.7546771E-02  0.2646997E+00
         22   -1    0    0    0    0  0.00000000000E+00  0.00000000000E+00  0.21117011335E+02  0.21117011335E+02  0.00000000000E+00 0.  1.
         22   -1    0    0    0    0 -0.00000000000E+00 -0.00000000000E+00 -0.26600086507E+01  0.26600086507E+01  0.00000000000E+00 0. -1.
          4    1    1    2  501    0 -0.18849477413E+01  0.13570641751E+01 -0.18937513670E+01  0.32548187972E+01  0.12700000000E+01 0. -1.
         -4    1    1    2    0  501  0.18849477413E+01 -0.13570641751E+01  0.20350754051E+02  0.20522201188E+02  0.12700000000E+01 0.  1.
<mgrwt>
<rscale>  0 0.26471780E+01</rscale>
<asrwt>0</asrwt>
<pdfrwt beam="1">0</pdfrwt>
<pdfrwt beam="2">0</pdfrwt>
<totfact> 0.20491295E+11</totfact>
</mgrwt>
</event>
<event>
 4    1  0.1733759E+006  0.3669310E+01  0.7546771E-02  0.2345346E+00
         22   -1    0    0    0    0  0.00000000000E+00  0.00000000000E+00  0.12565980396E+02  0.12565980396E+02  0.00000000000E+00 0. -1.
         22   -1    0    0    0    0 -0.00000000000E+00 -0.00000000000E+00 -0.19066854082E+01  0.19066854082E+01  0.00000000000E+00 0.  1.
          4    1    1    2  501    0  0.29172908529E+01 -0.18276621190E+01  0.54022495305E+00  0.37088647511E+01  0.12700000000E+01 0.  1.
         -4    1    1    2    0  501 -0.29172908529E+01  0.18276621190E+01  0.10119070035E+02  0.10763801053E+02  0.12700000000E+01 0. -1.
<mgrwt>
<rscale>  0 0.36693098E+01</rscale>
<asrwt>0</asrwt>
<pdfrwt beam="1">0</pdfrwt>
<pdfrwt beam="2">0</pdfrwt>
<totfact> 0.57264570E+11</totfact>
</mgrwt>
</event>
<event>
 4    1  0.1733759E+006  0.2048131E+01  0.7546771E-02  0.2948976E+00
         22   -1    0    0    0    0  0.00000000000E+00  0.00000000000E+00  0.16462870345E+02  0.16462870345E+02  0.00000000000E+00 0.  1.
         22   -1    0    0    0    0 -0.00000000000E+00 -0.00000000000E+00 -0.32967631936E+00  0.32967631936E+00  0.00000000000E+00 0. -1.
          4    1    1    2  501    0 -0.15373250064E+01  0.46751815230E+00  0.40653352792E+01  0.45521195427E+01  0.12700000000E+01 0. -1.
         -4    1    1    2    0  501  0.15373250064E+01 -0.46751815230E+00  0.12067858746E+02  0.12240427122E+02  0.12700000000E+01 0.  1.
<mgrwt>
<rscale>  0 0.20481312E+01</rscale>
<asrwt>0</asrwt>
<pdfrwt beam="1">0</pdfrwt>
<pdfrwt beam="2">0</pdfrwt>
<totfact> 0.30281425E+12</totfact>
</mgrwt>
</event>
<event>
 4    1  0.1733759E+006  0.6235844E+01  0.7546771E-02  0.1999161E+00
         22   -1    0    0    0    0  0.00000000000E+00  0.00000000000E+00  0.10825176363E+02  0.10825176363E+02  0.00000000000E+00 0. -1.
         22   -1    0    0    0    0 -0.00000000000E+00 -0.00000000000E+00 -0.36668340722E+01  0.36668340722E+01  0.00000000000E+00 0.  1.
          4    1    1    2  501    0 -0.19348906859E+01 -0.57904269004E+01  0.25451170278E+01  0.67352332061E+01  0.12700000000E+01 0.  1.
         -4    1    1    2    0  501  0.19348906859E+01  0.57904269004E+01  0.46132252631E+01  0.77567772292E+01  0.12700000000E+01 0. -1.
<mgrwt>
<rscale>  0 0.62358436E+01</rscale>
<asrwt>0</asrwt>
<pdfrwt beam="1">0</pdfrwt>
<pdfrwt beam="2">0</pdfrwt>
<totfact> 0.32057776E+11</totfact>
</mgrwt>
</event>
<event>
 4    1  0.1733759E+006  0.2383411E+01  0.7546771E-02  0.2762274E+00
         22   -1    0    0    0    0  0.00000000000E+00  0.00000000000E+00  0.13495507416E+01  0.13495507416E+01  0.00000000000E+00 0. -1.
         22   -1    0    0    0    0 -0.00000000000E+00 -0.00000000000E+00 -0.42104086566E+01  0.42104086566E+01  0.00000000000E+00 0.  1.
          4    1    1    2  501    0  0.28615044585E+00  0.19964628132E+01 -0.14758114515E+01  0.28033311047E+01  0.12700000000E+01 0.  1.
         -4    1    1    2    0  501 -0.28615044585E+00 -0.19964628132E+01 -0.13850464636E+01  0.27566282935E+01  0.12700000000E+01 0. -1.
<mgrwt>
<rscale>  0 0.23834105E+01</rscale>
<asrwt>0</asrwt>
<pdfrwt beam="1">0</pdfrwt>
<pdfrwt beam="2">0</pdfrwt>
<totfact> 0.31614902E+12</totfact>
</mgrwt>
</event>
<event>
 4    1  0.1733759E+006  0.2280905E+01  0.7546771E-02  0.2813783E+00
         22   -1    0    0    0    0  0.00000000000E+00  0.00000000000E+00  0.14387517102E+02  0.14387517102E+02  0.00000000000E+00 0.  1.
         22   -1    0    0    0    0 -0.00000000000E+00 -0.00000000000E+00 -0.36835334380E+00  0.36835334380E+00  0.00000000000E+00 0. -1.
          4    1    1    2  501    0  0.10232209720E+01  0.15945677839E+01  0.80085666090E+01  0.83270442959E+01  0.12700000000E+01 0.  1.
         -4    1    1    2    0  501 -0.10232209720E+01 -0.15945677839E+01  0.60105971487E+01  0.64288261494E+01  0.12700000000E+01 0. -1.
<mgrwt>
<rscale>  0 0.22809050E+01</rscale>
<asrwt>0</asrwt>
<pdfrwt beam="1">0</pdfrwt>
<pdfrwt beam="2">0</pdfrwt>
<totfact> 0.31562584E+12</totfact>
</mgrwt>
</event>
<event>
 4    1  0.1733759E+006  0.2456172E+01  0.7546771E-02  0.2728174E+00
         22   -1    0    0    0    0  0.00000000000E+00  0.00000000000E+00  0.39299883476E+01  0.39299883476E+01  0.00000000000E+00 0.  1.
         22   -1    0    0    0    0 -0.00000000000E+00 -0.00000000000E+00 -0.15494939187E+01  0.15494939187E+01  0.00000000000E+00 0.  1.
          4    1    1    2  501    0 -0.11462475392E+01 -0.17623838793E+01  0.14546457647E+01  0.28546058677E+01  0.12700000000E+01 0.  1.
         -4    1    1    2    0  501  0.11462475392E+01  0.17623838793E+01  0.92584866421E+00  0.26248763986E+01  0.12700000000E+01 0.  1.
<mgrwt>
<rscale>  0 0.24561719E+01</rscale>
<asrwt>0</asrwt>
<pdfrwt beam="1">0</pdfrwt>
<pdfrwt beam="2">0</pdfrwt>
<totfact> 0.29251286E+12</totfact>
</mgrwt>
</event>
<event>
 4    1  0.1733759E+006  0.3266110E+01  0.7546771E-02  0.2444234E+00
         22   -1    0    0    0    0  0.00000000000E+00  0.00000000000E+00  0.46201942983E+01  0.46201942983E+01  0.00000000000E+00 0.  1.
         22   -1    0    0    0    0 -0.00000000000E+00 -0.00000000000E+00 -0.23540017168E+01  0.23540017168E+01  0.00000000000E+00 0.  1.
          4    1    1    2  501    0  0.32148504922E+00  0.29918596646E+01  0.16158779733E+01  0.36439729025E+01  0.12700000000E+01 0.  1.
         -4    1    1    2    0  501 -0.32148504922E+00 -0.29918596646E+01  0.65031460817E+00  0.33302231125E+01  0.12700000000E+01 0.  1.
<mgrwt>
<rscale>  0 0.32661104E+01</rscale>
<asrwt>0</asrwt>
<pdfrwt beam="1">0</pdfrwt>
<pdfrwt beam="2">0</pdfrwt>
<totfact> 0.14904263E+12</totfact>
</mgrwt>
</event>
<event>
 4    1  0.1733759E+006  0.2339106E+01  0.7546771E-02  0.2784013E+00
         22   -1    0    0    0    0  0.00000000000E+00  0.00000000000E+00  0.76740863626E+01  0.76740863626E+01  0.00000000000E+00 0.  1.
         22   -1    0    0    0    0 -0.00000000000E+00 -0.00000000000E+00 -0.84961907013E+00  0.84961907013E+00  0.00000000000E+00 0. -1.
          4    1    1    2  501    0  0.11307574332E+01  0.16062083860E+01  0.17030662517E+01  0.28934153539E+01  0.12700000000E+01 0. -1.
         -4    1    1    2    0  501 -0.11307574332E+01 -0.16062083860E+01  0.51214010407E+01  0.56302900789E+01  0.12700000000E+01 0.  1.
<mgrwt>
<rscale>  0 0.23391062E+01</rscale>
<asrwt>0</asrwt>
<pdfrwt beam="1">0</pdfrwt>
<pdfrwt beam="2">0</pdfrwt>
<totfact> 0.26289921E+12</totfact>
</mgrwt>
</event>
<event>
 4    1  0.1733759E+006  0.2343112E+01  0.7546771E-02  0.2782016E+00
         22   -1    0    0    0    0  0.00000000000E+00  0.00000000000E+00  0.20405783754E+01  0.20405783754E+01  0.00000000000E+00 0. -1.
         22   -1    0    0    0    0 -0.00000000000E+00 -0.00000000000E+00 -0.27205899425E+01  0.27205899425E+01  0.00000000000E+00 0.  1.
          4    1    1    2  501    0 -0.40475594016E+00  0.19270307101E+01 -0.59036731040E+00  0.24163419232E+01  0.12700000000E+01 0.  1.
         -4    1    1    2    0  501  0.40475594016E+00 -0.19270307101E+01 -0.89644256699E-01  0.23448263947E+01  0.12700000000E+01 0. -1.
<mgrwt>
<rscale>  0 0.23431122E+01</rscale>
<asrwt>0</asrwt>
<pdfrwt beam="1">0</pdfrwt>
<pdfrwt beam="2">0</pdfrwt>
<totfact> 0.32740645E+12</totfact>
</mgrwt>
</event>
<event>
 4    1  0.1733759E+006  0.2071822E+01  0.7546771E-02  0.2933876E+00
         22   -1    0    0    0    0  0.00000000000E+00  0.00000000000E+00  0.33502293714E+01  0.33502293714E+01  0.00000000000E+00 0. -1.
         22   -1    0    0    0    0 -0.00000000000E+00 -0.00000000000E+00 -0.13822184565E+01  0.13822184565E+01  0.00000000000E+00 0.  1.
          4    1    1    2  501    0 -0.16368789597E+01  0.13198055014E-01  0.34444371499E+00  0.21002591245E+01  0.12700000000E+01 0.  1.
         -4    1    1    2    0  501  0.16368789597E+01 -0.13198055014E-01  0.16235672000E+01  0.26321887034E+01  0.12700000000E+01 0. -1.
<mgrwt>
<rscale>  0 0.20718221E+01</rscale>
<asrwt>0</asrwt>
<pdfrwt beam="1">0</pdfrwt>
<pdfrwt beam="2">0</pdfrwt>
<totfact> 0.40228796E+12</totfact>
</mgrwt>
</event>
<event>
 4    1  0.1733759E+006  0.2347233E+01  0.7546771E-02  0.2779968E+00
         22   -1    0    0    0    0  0.00000000000E+00  0.00000000000E+00  0.53777880638E+02  0.53777880638E+02  0.00000000000E+00 0. -1.
         22   -1    0    0    0    0 -0.00000000000E+00 -0.00000000000E+00 -0.19324152376E+00  0.19324152376E+00  0.00000000000E+00 0. -1.
          4    1    1    2  501    0  0.58855757231E+00  0.18841975712E+01  0.82951274590E+01  0.86208259502E+01  0.12700000000E+01 0. -1.
         -4    1    1    2    0  501 -0.58855757231E+00 -0.18841975712E+01  0.45289511655E+02  0.45350296212E+02  0.12700000000E+01 0. -1.
<mgrwt>
<rscale>  0 0.23472325E+01</rscale>
<asrwt>0</asrwt>
<pdfrwt beam="1">0</pdfrwt>
<pdfrwt beam="2">0</pdfrwt>
<totfact> 0.12152458E+12</totfact>
</mgrwt>
</event>
<event>
 4    1  0.1733759E+006  0.2696202E+01  0.7546771E-02  0.2627880E+00
         22   -1    0    0    0    0  0.00000000000E+00  0.00000000000E+00  0.10846951385E+01  0.10846951385E+01  0.00000000000E+00 0.  1.
         22   -1    0    0    0    0 -0.00000000000E+00 -0.00000000000E+00 -0.79310999647E+01  0.79310999647E+01  0.00000000000E+00 0. -1.
          4    1    1    2  501    0  0.23348607549E+01  0.45280466475E+00 -0.51978841273E+01  0.58555534504E+01  0.12700000000E+01 0. -1.
         -4    1    1    2    0  501 -0.23348607549E+01 -0.45280466475E+00 -0.16485206989E+01  0.31602416528E+01  0.12700000000E+01 0.  1.
<mgrwt>
<rscale>  0 0.26962023E+01</rscale>
<asrwt>0</asrwt>
<pdfrwt beam="1">0</pdfrwt>
<pdfrwt beam="2">0</pdfrwt>
<totfact> 0.19123621E+12</totfact>
</mgrwt>
</event>
<event>
 4    1  0.1733759E+006  0.2954633E+01  0.7546771E-02  0.2536714E+00
         22   -1    0    0    0    0  0.00000000000E+00  0.00000000000E+00  0.22515494625E+02  0.22515494625E+02  0.00000000000E+00 0.  1.
         22   -1    0    0    0    0 -0.00000000000E+00 -0.00000000000E+00 -0.12854857379E+01  0.12854857379E+01  0.00000000000E+00 0. -1.
          4    1    1    2  501    0  0.26616514957E+01 -0.18045832787E+00  0.66985849899E+00  0.30296145467E+01  0.12700000000E+01 0. -1.
         -4    1    1    2    0  501 -0.26616514957E+01  0.18045832787E+00  0.20560150388E+02  0.20771365816E+02  0.12700000000E+01 0.  1.
<mgrwt>
<rscale>  0 0.29546326E+01</rscale>
<asrwt>0</asrwt>
<pdfrwt beam="1">0</pdfrwt>
<pdfrwt beam="2">0</pdfrwt>
<totfact> 0.43821308E+11</totfact>
</mgrwt>
</event>
<event>
 4    1  0.1733759E+006  0.2674488E+01  0.7546771E-02  0.2636268E+00
         22   -1    0    0    0    0  0.00000000000E+00  0.00000000000E+00  0.72464987517E+01  0.72464987517E+01  0.00000000000E+00 0.  1.
         22   -1    0    0    0    0 -0.00000000000E+00 -0.00000000000E+00 -0.28527150699E+01  0.28527150699E+01  0.00000000000E+00 0.  1.
          4    1    1    2  501    0  0.15264303884E+01 -0.17916462682E+01 -0.18866924797E+01  0.32729947440E+01  0.12700000000E+01 0.  1.
         -4    1    1    2    0  501 -0.15264303884E+01  0.17916462682E+01  0.62804761615E+01  0.68262190776E+01  0.12700000000E+01 0.  1.
<mgrwt>
<rscale>  0 0.26744880E+01</rscale>
<asrwt>0</asrwt>
<pdfrwt beam="1">0</pdfrwt>
<pdfrwt beam="2">0</pdfrwt>
<totfact> 0.69775609E+11</totfact>
</mgrwt>
</event>
<event>
 4    1  0.1733759E+006  0.2837798E+01  0.7546771E-02  0.2576063E+00
         22   -1    0    0    0    0  0.00000000000E+00  0.00000000000E+00  0.15395252176E+01  0.15395252176E+01  0.00000000000E+00 0.  1.
         22   -1    0    0    0    0 -0.00000000000E+00 -0.00000000000E+00 -0.17423479091E+02  0.17423479091E+02  0.00000000000E+00 0. -1.
          4    1    1    2  501    0  0.17299681183E+01  0.18567192132E+01 -0.15873517966E+02  0.16125187395E+02  0.12700000000E+01 0. -1.
         -4    1    1    2    0  501 -0.17299681183E+01 -0.18567192132E+01 -0.10435908012E-01  0.28378169136E+01  0.12700000000E+01 0.  1.
<mgrwt>
<rscale>  0 0.28377977E+01</rscale>
<asrwt>0</asrwt>
<pdfrwt beam="1">0</pdfrwt>
<pdfrwt beam="2">0</pdfrwt>
<totfact> 0.49030851E+11</totfact>
</mgrwt>
</event>
<event>
 4    1  0.1733759E+006  0.2226749E+01  0.7546771E-02  0.2842812E+00
         22   -1    0    0    0    0  0.00000000000E+00  0.00000000000E+00  0.51747503703E+02  0.51747503703E+02  0.00000000000E+00 0. -1.
         22   -1    0    0    0    0 -0.00000000000E+00 -0.00000000000E+00 -0.30024191769E+00  0.30024191769E+00  0.00000000000E+00 0.  1.
          4    1    1    2  501    0 -0.47790064467E+00  0.17655372853E+01  0.42502360418E+01  0.47982202266E+01  0.12700000000E+01 0.  1.
         -4    1    1    2    0  501  0.47790064467E+00 -0.17655372853E+01  0.47197025744E+02  0.47249525394E+02  0.12700000000E+01 0. -1.
<mgrwt>
<rscale>  0 0.22267490E+01</rscale>
<asrwt>0</asrwt>
<pdfrwt beam="1">0</pdfrwt>
<pdfrwt beam="2">0</pdfrwt>
<totfact> 0.78129303E+11</totfact>
</mgrwt>
</event>
<event>
 4    1  0.1733759E+006  0.2108650E+01  0.7546771E-02  0.2911058E+00
         22   -1    0    0    0    0  0.00000000000E+00  0.00000000000E+00  0.12164795335E+01  0.12164795335E+01  0.00000000000E+00 0. -1.
         22   -1    0    0    0    0 -0.00000000000E+00 -0.00000000000E+00 -0.67023845049E+01  0.67023845049E+01  0.00000000000E+00 0.  1.
          4    1    1    2  501    0 -0.77896953774E+00  0.14922172145E+01 -0.54127093467E+01  0.58089438135E+01  0.12700000000E+01 0.  1.
         -4    1    1    2    0  501  0.77896953774E+00 -0.14922172145E+01 -0.73195624637E-01  0.21099202249E+01  0.12700000000E+01 0. -1.
<mgrwt>
<rscale>  0 0.21086502E+01</rscale>
<asrwt>0</asrwt>
<pdfrwt beam="1">0</pdfrwt>
<pdfrwt beam="2">0</pdfrwt>
<totfact> 0.20515856E+12</totfact>
</mgrwt>
</event>
<event>
 4    1  0.1733759E+006  0.2100307E+01  0.7546771E-02  0.2916160E+00
         22   -1    0    0    0    0  0.00000000000E+00  0.00000000000E+00  0.45188994409E+01  0.45188994409E+01  0.00000000000E+00 0.  1.
         22   -1    0    0    0    0 -0.00000000000E+00 -0.00000000000E+00 -0.10990085166E+01  0.10990085166E+01  0.00000000000E+00 0. -1.
          4    1    1    2  501    0 -0.13725308697E+01  0.95632013941E+00  0.77091001933E+00  0.22373179155E+01  0.12700000000E+01 0. -1.
         -4    1    1    2    0  501  0.13725308697E+01 -0.95632013941E+00  0.26489809050E+01  0.33805900420E+01  0.12700000000E+01 0.  1.
<mgrwt>
<rscale>  0 0.21003069E+01</rscale>
<asrwt>0</asrwt>
<pdfrwt beam="1">0</pdfrwt>
<pdfrwt beam="2">0</pdfrwt>
<totfact> 0.36801383E+12</totfact>
</mgrwt>
</event>
<event>
 4    1  0.1733759E+006  0.3211666E+01  0.7546771E-02  0.2459246E+00
         22   -1    0    0    0    0  0.00000000000E+00  0.00000000000E+00  0.51308072188E+01  0.51308072188E+01  0.00000000000E+00 0. -1.
         22   -1    0    0    0    0 -0.00000000000E+00 -0.00000000000E+00 -0.52917626547E+01  0.52917626547E+01  0.00000000000E+00 0.  1.
          4    1    1    2  501    0 -0.22983948585E+01 -0.18491300911E+01 -0.41841625447E+01  0.52746580192E+01  0.12700000000E+01 0.  1.
         -4    1    1    2    0  501  0.22983948585E+01  0.18491300911E+01  0.40232071088E+01  0.51479118543E+01  0.12700000000E+01 0. -1.
<mgrwt>
<rscale>  0 0.32116664E+01</rscale>
<asrwt>0</asrwt>
<pdfrwt beam="1">0</pdfrwt>
<pdfrwt beam="2">0</pdfrwt>
<totfact> 0.50900785E+11</totfact>
</mgrwt>
</event>
<event>
 4    1  0.1733759E+006  0.2450019E+01  0.7546771E-02  0.2730984E+00
         22   -1    0    0    0    0  0.00000000000E+00  0.00000000000E+00  0.19111103539E+01  0.19111103539E+01  0.00000000000E+00 0.  1.
         22   -1    0    0    0    0 -0.00000000000E+00 -0.00000000000E+00 -0.41557608177E+01  0.41557608177E+01  0.00000000000E+00 0.  1.
          4    1    1    2  501    0 -0.56027885167E+00 -0.20188559757E+01 -0.26213692653E+01  0.35880591783E+01  0.12700000000E+01 0.  1.
         -4    1    1    2    0  501  0.56027885167E+00  0.20188559757E+01  0.37671880151E+00  0.24788119932E+01  0.12700000000E+01 0.  1.
<mgrwt>
<rscale>  0 0.24500187E+01</rscale>
<asrwt>0</asrwt>
<pdfrwt beam="1">0</pdfrwt>
<pdfrwt beam="2">0</pdfrwt>
<totfact> 0.21502115E+12</totfact>
</mgrwt>
</event>
<event>
 4    1  0.1733759E+006  0.2139552E+01  0.7546771E-02  0.2892500E+00
         22   -1    0    0    0    0  0.00000000000E+00  0.00000000000E+00  0.17923930880E+01  0.17923930880E+01  0.00000000000E+00 0. -1.
         22   -1    0    0    0    0 -0.00000000000E+00 -0.00000000000E+00 -0.49482932728E+01  0.49482932728E+01  0.00000000000E+00 0.  1.
          4    1    1    2  501    0  0.16637210422E+01 -0.44364021478E+00 -0.39223922057E+01  0.44679799643E+01  0.12700000000E+01 0.  1.
         -4    1    1    2    0  501 -0.16637210422E+01  0.44364021478E+00  0.76649202094E+00  0.22727063965E+01  0.12700000000E+01 0. -1.
<mgrwt>
<rscale>  0 0.21395524E+01</rscale>
<asrwt>0</asrwt>
<pdfrwt beam="1">0</pdfrwt>
<pdfrwt beam="2">0</pdfrwt>
<totfact> 0.18842435E+12</totfact>
</mgrwt>
</event>
<event>
 4    1  0.1733759E+006  0.2505364E+01  0.7546771E-02  0.2706170E+00
         22   -1    0    0    0    0  0.00000000000E+00  0.00000000000E+00  0.23975273024E+01  0.23975273024E+01  0.00000000000E+00 0.  1.
         22   -1    0    0    0    0 -0.00000000000E+00 -0.00000000000E+00 -0.99207167674E+01  0.99207167674E+01  0.00000000000E+00 0.  1.
          4    1    1    2  501    0 -0.21593630920E+01  0.33172692873E-01 -0.90459010891E+01  0.93864357402E+01  0.12700000000E+01 0.  1.
         -4    1    1    2    0  501  0.21593630920E+01 -0.33172692873E-01  0.15227116242E+01  0.29318083295E+01  0.12700000000E+01 0.  1.
<mgrwt>
<rscale>  0 0.25053641E+01</rscale>
<asrwt>0</asrwt>
<pdfrwt beam="1">0</pdfrwt>
<pdfrwt beam="2">0</pdfrwt>
<totfact> 0.58530059E+11</totfact>
</mgrwt>
</event>
<event>
 4    1  0.1733759E+006  0.4068868E+01  0.7546771E-02  0.2264320E+00
         22   -1    0    0    0    0  0.00000000000E+00  0.00000000000E+00  0.11016523043E+01  0.11016523043E+01  0.00000000000E+00 0.  1.
         22   -1    0    0    0    0 -0.00000000000E+00 -0.00000000000E+00 -0.15134472094E+02  0.15134472094E+02  0.00000000000E+00 0. -1.
          4    1    1    2  501    0  0.16912172022E+00  0.38618887487E+01 -0.76971524071E+01  0.87064253309E+01  0.12700000000E+01 0. -1.
         -4    1    1    2    0  501 -0.16912172022E+00 -0.38618887487E+01 -0.63356673830E+01  0.75296990678E+01  0.12700000000E+01 0.  1.
<mgrwt>
<rscale>  0 0.40688680E+01</rscale>
<asrwt>0</asrwt>
<pdfrwt beam="1">0</pdfrwt>
<pdfrwt beam="2">0</pdfrwt>
<totfact> 0.85663352E+11</totfact>
</mgrwt>
</event>
<event>
 4    1  0.1733759E+006  0.2039321E+01  0.7546771E-02  0.2954678E+00
         22   -1    0    0    0    0  0.00000000000E+00  0.00000000000E+00  0.21042356401E+01  0.21042356401E+01  0.00000000000E+00 0.  1.
         22   -1    0    0    0    0 -0.00000000000E+00 -0.00000000000E+00 -0.22259776843E+01  0.22259776843E+01  0.00000000000E+00 0. -1.
          4    1    1    2  501    0  0.81489556666E+00 -0.13718150456E+01  0.66408807713E+00  0.21447247558E+01  0.12700000000E+01 0. -1.
         -4    1    1    2    0  501 -0.81489556666E+00  0.13718150456E+01 -0.78583012127E+00  0.21854885686E+01  0.12700000000E+01 0.  1.
<mgrwt>
<rscale>  0 0.20393213E+01</rscale>
<asrwt>0</asrwt>
<pdfrwt beam="1">0</pdfrwt>
<pdfrwt beam="2">0</pdfrwt>
<totfact> 0.39896411E+12</totfact>
</mgrwt>
</event>
<event>
 4    1  0.1733759E+006  0.2265415E+01  0.7546771E-02  0.2821951E+00
         22   -1    0    0    0    0  0.00000000000E+00  0.00000000000E+00  0.23617129742E+02  0.23617129742E+02  0.00000000000E+00 0.  1.
         22   -1    0    0    0    0 -0.00000000000E+00 -0.00000000000E+00 -0.10392354343E+01  0.10392354343E+01  0.00000000000E+00 0. -1.
          4    1    1    2  501    0 -0.17379724849E+01 -0.70615697584E+00  0.32518069069E+00  0.22886346398E+01  0.12700000000E+01 0. -1.
         -4    1    1    2    0  501  0.17379724849E+01  0.70615697584E+00  0.22252713617E+02  0.22367730536E+02  0.12700000000E+01 0.  1.
<mgrwt>
<rscale>  0 0.22654152E+01</rscale>
<asrwt>0</asrwt>
<pdfrwt beam="1">0</pdfrwt>
<pdfrwt beam="2">0</pdfrwt>
<totfact> 0.52643533E+11</totfact>
</mgrwt>
</event>
<event>
 4    1  0.1733759E+006  0.2115080E+01  0.7546771E-02  0.2907154E+00
         22   -1    0    0    0    0  0.00000000000E+00  0.00000000000E+00  0.34266536706E+02  0.34266536706E+02  0.00000000000E+00 0. -1.
         22   -1    0    0    0    0 -0.00000000000E+00 -0.00000000000E+00 -0.19983698900E+01  0.19983698900E+01  0.00000000000E+00 0.  1.
          4    1    1    2  501    0 -0.76762131448E+00 -0.15071230630E+01 -0.13960775085E+01  0.25342838868E+01  0.12700000000E+01 0.  1.
         -4    1    1    2    0  501  0.76762131448E+00  0.15071230630E+01  0.33664244324E+02  0.33730622709E+02  0.12700000000E+01 0. -1.
<mgrwt>
<rscale>  0 0.21150798E+01</rscale>
<asrwt>0</asrwt>
<pdfrwt beam="1">0</pdfrwt>
<pdfrwt beam="2">0</pdfrwt>
<totfact> 0.15467233E+11</totfact>
</mgrwt>
</event>
<event>
 4    1  0.1733759E+006  0.2189520E+01  0.7546771E-02  0.2863561E+00
         22   -1    0    0    0    0  0.00000000000E+00  0.00000000000E+00  0.14400338555E+02  0.14400338555E+02  0.00000000000E+00 0.  1.
         22   -1    0    0    0    0 -0.00000000000E+00 -0.00000000000E+00 -0.35776036983E+00  0.35776036983E+00  0.00000000000E+00 0.  1.
          4    1    1    2  501    0 -0.16943667036E+01  0.55697253284E+00  0.89661239783E+01  0.92295924137E+01  0.12700000000E+01 0.  1.
         -4    1    1    2    0  501  0.16943667036E+01 -0.55697253284E+00  0.50764542064E+01  0.55285065107E+01  0.12700000000E+01 0.  1.
<mgrwt>
<rscale>  0 0.21895198E+01</rscale>
<asrwt>0</asrwt>
<pdfrwt beam="1">0</pdfrwt>
<pdfrwt beam="2">0</pdfrwt>
<totfact> 0.32578783E+12</totfact>
</mgrwt>
</event>
<event>
 4    1  0.1733759E+006  0.2275642E+01  0.7546771E-02  0.2816547E+00
         22   -1    0    0    0    0  0.00000000000E+00  0.00000000000E+00  0.16129373295E+01  0.16129373295E+01  0.00000000000E+00 0. -1.
         22   -1    0    0    0    0 -0.00000000000E+00 -0.00000000000E+00 -0.46584934157E+01  0.46584934157E+01  0.00000000000E+00 0.  1.
          4    1    1    2  501    0 -0.12579742845E+01  0.14082423692E+01 -0.32709236630E+01  0.39846565072E+01  0.12700000000E+01 0.  1.
         -4    1    1    2    0  501  0.12579742845E+01 -0.14082423692E+01  0.22536757690E+00  0.22867742380E+01  0.12700000000E+01 0. -1.
<mgrwt>
<rscale>  0 0.22756419E+01</rscale>
<asrwt>0</asrwt>
<pdfrwt beam="1">0</pdfrwt>
<pdfrwt beam="2">0</pdfrwt>
<totfact> 0.22855777E+12</totfact>
</mgrwt>
</event>
<event>
 4    1  0.1733759E+006  0.2147896E+01  0.7546771E-02  0.2887577E+00
         22   -1    0    0    0    0  0.00000000000E+00  0.00000000000E+00  0.48776020794E+01  0.48776020794E+01  0.00000000000E+00 0. -1.
         22   -1    0    0    0    0 -0.00000000000E+00 -0.00000000000E+00 -0.19251961881E+01  0.19251961881E+01  0.00000000000E+00 0.  1.
          4    1    1    2  501    0 -0.17322007270E+01 -0.61912500635E-02 -0.94978830190E+00  0.23485219839E+01  0.12700000000E+01 0.  1.
         -4    1    1    2    0  501  0.17322007270E+01  0.61912500635E-02  0.39021941931E+01  0.44542762837E+01  0.12700000000E+01 0. -1.
<mgrwt>
<rscale>  0 0.21478961E+01</rscale>
<asrwt>0</asrwt>
<pdfrwt beam="1">0</pdfrwt>
<pdfrwt beam="2">0</pdfrwt>
<totfact> 0.17646551E+12</totfact>
</mgrwt>
</event>
<event>
 4    1  0.1733759E+006  0.2468061E+01  0.7546771E-02  0.2722781E+00
         22   -1    0    0    0    0  0.00000000000E+00  0.00000000000E+00  0.48012880235E+00  0.48012880235E+00  0.00000000000E+00 0. -1.
         22   -1    0    0    0    0 -0.00000000000E+00 -0.00000000000E+00 -0.12689187967E+02  0.12689187967E+02  0.00000000000E+00 0. -1.
          4    1    1    2  501    0 -0.60106796563E+00  0.20290737626E+01 -0.60151878951E+01  0.65018311611E+01  0.12700000000E+01 0. -1.
         -4    1    1    2    0  501  0.60106796563E+00 -0.20290737626E+01 -0.61938712699E+01  0.66674856086E+01  0.12700000000E+01 0. -1.
<mgrwt>
<rscale>  0 0.24680606E+01</rscale>
<asrwt>0</asrwt>
<pdfrwt beam="1">0</pdfrwt>
<pdfrwt beam="2">0</pdfrwt>
<totfact> 0.27313414E+12</totfact>
</mgrwt>
</event>
<event>
 4    1  0.1733759E+006  0.2006896E+01  0.7546771E-02  0.2976088E+00
         22   -1    0    0    0    0  0.00000000000E+00  0.00000000000E+00  0.29294254357E+02  0.29294254357E+02  0.00000000000E+00 0.  1.
         22   -1    0    0    0    0 -0.00000000000E+00 -0.00000000000E+00 -0.31122475273E+00  0.31122475273E+00  0.00000000000E+00 0.  1.
          4    1    1    2  501    0 -0.13587128605E+01 -0.75407680321E+00  0.34316489853E+01  0.39754052902E+01  0.12700000000E+01 0.  1.
         -4    1    1    2    0  501  0.13587128605E+01  0.75407680321E+00  0.25551380619E+02  0.25630073820E+02  0.12700000000E+01 0.  1.
<mgrwt>
<rscale>  0 0.20068962E+01</rscale>
<asrwt>0</asrwt>
<pdfrwt beam="1">0</pdfrwt>
<pdfrwt beam="2">0</pdfrwt>
<totfact> 0.15688236E+12</totfact>
</mgrwt>
</event>
<event>
 4    1  0.1733759E+006  0.2083917E+01  0.7546771E-02  0.2926296E+00
         22   -1    0    0    0    0  0.00000000000E+00  0.00000000000E+00  0.12534953917E+01  0.12534953917E+01  0.00000000000E+00 0. -1.
         22   -1    0    0    0    0 -0.00000000000E+00 -0.00000000000E+00 -0.59020555371E+01  0.59020555371E+01  0.00000000000E+00 0.  1.
          4    1    1    2  501    0 -0.14858711041E+01 -0.72249275521E+00 -0.46235531160E+01  0.50714842143E+01  0.12700000000E+01 0.  1.
         -4    1    1    2    0  501  0.14858711041E+01  0.72249275521E+00 -0.25007029341E-01  0.20840667146E+01  0.12700000000E+01 0. -1.
<mgrwt>
<rscale>  0 0.20839167E+01</rscale>
<asrwt>0</asrwt>
<pdfrwt beam="1">0</pdfrwt>
<pdfrwt beam="2">0</pdfrwt>
<totfact> 0.23067473E+12</totfact>
</mgrwt>
</event>
<event>
 4    1  0.1733759E+006  0.2079293E+01  0.7546771E-02  0.2929183E+00
         22   -1    0    0    0    0  0.00000000000E+00  0.00000000000E+00  0.76896753879E+00  0.76896753879E+00  0.00000000000E+00 0.  1.
         22   -1    0    0    0    0 -0.00000000000E+00 -0.00000000000E+00 -0.12272892370E+02  0.12272892370E+02  0.00000000000E+00 0.  1.
          4    1    1    2  501    0 -0.14502707213E+01  0.77927924675E+00 -0.10552194093E+02  0.10755103974E+02  0.12700000000E+01 0.  1.
         -4    1    1    2    0  501  0.14502707213E+01 -0.77927924675E+00 -0.95173073852E+00  0.22867559354E+01  0.12700000000E+01 0.  1.
<mgrwt>
<rscale>  0 0.20792935E+01</rscale>
<asrwt>0</asrwt>
<pdfrwt beam="1">0</pdfrwt>
<pdfrwt beam="2">0</pdfrwt>
<totfact> 0.16686233E+12</totfact>
</mgrwt>
</event>
<event>
 4    1  0.1733759E+006  0.2139853E+01  0.7546771E-02  0.2892322E+00
         22   -1    0    0    0    0  0.00000000000E+00  0.00000000000E+00  0.32433451073E+01  0.32433451073E+01  0.00000000000E+00 0.  1.
         22   -1    0    0    0    0 -0.00000000000E+00 -0.00000000000E+00 -0.68258884845E+01  0.68258884845E+01  0.00000000000E+00 0. -1.
          4    1    1    2  501    0  0.55074365610E+00  0.16317937425E+01 -0.62751035420E+01  0.66299241214E+01  0.12700000000E+01 0. -1.
         -4    1    1    2    0  501 -0.55074365610E+00 -0.16317937425E+01  0.26925601648E+01  0.34393094705E+01  0.12700000000E+01 0.  1.
<mgrwt>
<rscale>  0 0.21398527E+01</rscale>
<asrwt>0</asrwt>
<pdfrwt beam="1">0</pdfrwt>
<pdfrwt beam="2">0</pdfrwt>
<totfact> 0.64507481E+11</totfact>
</mgrwt>
</event>
<event>
 4    1  0.1733759E+006  0.2256102E+01  0.7546771E-02  0.2826913E+00
         22   -1    0    0    0    0  0.00000000000E+00  0.00000000000E+00  0.21889713296E+01  0.21889713296E+01  0.00000000000E+00 0. -1.
         22   -1    0    0    0    0 -0.00000000000E+00 -0.00000000000E+00 -0.25499548943E+01  0.25499548943E+01  0.00000000000E+00 0.  1.
          4    1    1    2  501    0 -0.10555068579E+01 -0.15372054041E+01 -0.88380764157E+00  0.24230375830E+01  0.12700000000E+01 0. -1.
         -4    1    1    2    0  501  0.10555068579E+01  0.15372054041E+01  0.52282407684E+00  0.23158886409E+01  0.12700000000E+01 0.  1.
<mgrwt>
<rscale>  0 0.22561018E+01</rscale>
<asrwt>0</asrwt>
<pdfrwt beam="1">0</pdfrwt>
<pdfrwt beam="2">0</pdfrwt>
<totfact> 0.32547175E+12</totfact>
</mgrwt>
</event>
<event>
 4    1  0.1733759E+006  0.2260062E+01  0.7546771E-02  0.2824798E+00
         22   -1    0    0    0    0  0.00000000000E+00  0.00000000000E+00  0.87955734579E+00  0.87955734579E+00  0.00000000000E+00 0. -1.
         22   -1    0    0    0    0 -0.00000000000E+00 -0.00000000000E+00 -0.71670332728E+01  0.71670332728E+01  0.00000000000E+00 0.  1.
          4    1    1    2  501    0  0.85642687997E+00 -0.16617801729E+01 -0.13913342445E+01  0.26539953511E+01  0.12700000000E+01 0. -1.
         -4    1    1    2    0  501 -0.85642687997E+00  0.16617801729E+01 -0.48961416826E+01  0.53925952675E+01  0.12700000000E+01 0.  1.
<mgrwt>
<rscale>  0 0.22600620E+01</rscale>
<asrwt>0</asrwt>
<pdfrwt beam="1">0</pdfrwt>
<pdfrwt beam="2">0</pdfrwt>
<totfact> 0.27430241E+12</totfact>
</mgrwt>
</event>
<event>
 4    1  0.1733759E+006  0.3663416E+01  0.7546771E-02  0.2346654E+00
         22   -1    0    0    0    0  0.00000000000E+00  0.00000000000E+00  0.28838417682E+00  0.28838417682E+00  0.00000000000E+00 0.  1.
         22   -1    0    0    0    0 -0.00000000000E+00 -0.00000000000E+00 -0.48064092385E+02  0.48064092385E+02  0.00000000000E+00 0. -1.
          4    1    1    2  501    0 -0.13400246051E+01  0.31641820949E+01 -0.28196805958E+02  0.28433791173E+02  0.12700000000E+01 0.  1.
         -4    1    1    2    0  501  0.13400246051E+01 -0.31641820949E+01 -0.19578902251E+02  0.19918685389E+02  0.12700000000E+01 0. -1.
<mgrwt>
<rscale>  0 0.36634157E+01</rscale>
<asrwt>0</asrwt>
<pdfrwt beam="1">0</pdfrwt>
<pdfrwt beam="2">0</pdfrwt>
<totfact> 0.90105689E+11</totfact>
</mgrwt>
</event>
<event>
 4    1  0.1733759E+006  0.2674423E+01  0.7546771E-02  0.2636293E+00
         22   -1    0    0    0    0  0.00000000000E+00  0.00000000000E+00  0.47111583853E+01  0.47111583853E+01  0.00000000000E+00 0.  1.
         22   -1    0    0    0    0 -0.00000000000E+00 -0.00000000000E+00 -0.17768751665E+01  0.17768751665E+01  0.00000000000E+00 0. -1.
          4    1    1    2  501    0 -0.23416940683E+01  0.23686710588E+00  0.22942295088E+00  0.26842451501E+01  0.12700000000E+01 0. -1.
         -4    1    1    2    0  501  0.23416940683E+01 -0.23686710588E+00  0.27048602679E+01  0.38037884017E+01  0.12700000000E+01 0.  1.
<mgrwt>
<rscale>  0 0.26744228E+01</rscale>
<asrwt>0</asrwt>
<pdfrwt beam="1">0</pdfrwt>
<pdfrwt beam="2">0</pdfrwt>
<totfact> 0.20172153E+12</totfact>
</mgrwt>
</event>
<event>
 4    1  0.1733759E+006  0.2099961E+01  0.7546771E-02  0.2916372E+00
         22   -1    0    0    0    0  0.00000000000E+00  0.00000000000E+00  0.33635662854E+02  0.33635662854E+02  0.00000000000E+00 0. -1.
         22   -1    0    0    0    0 -0.00000000000E+00 -0.00000000000E+00 -0.25275057406E+00  0.25275057406E+00  0.00000000000E+00 0. -1.
          4    1    1    2  501    0  0.35278078600E-01  0.16720324419E+01  0.49364855592E+01  0.53645807577E+01  0.12700000000E+01 0. -1.
         -4    1    1    2    0  501 -0.35278078600E-01 -0.16720324419E+01  0.28446426721E+02  0.28523832671E+02  0.12700000000E+01 0. -1.
<mgrwt>
<rscale>  0 0.20999612E+01</rscale>
<asrwt>0</asrwt>
<pdfrwt beam="1">0</pdfrwt>
<pdfrwt beam="2">0</pdfrwt>
<totfact> 0.16601429E+12</totfact>
</mgrwt>
</event>
<event>
 4    1  0.1733759E+006  0.2364900E+01  0.7546771E-02  0.2771264E+00
         22   -1    0    0    0    0  0.00000000000E+00  0.00000000000E+00  0.26064382969E+01  0.26064382969E+01  0.00000000000E+00 0.  1.
         22   -1    0    0    0    0 -0.00000000000E+00 -0.00000000000E+00 -0.22844100910E+01  0.22844100910E+01  0.00000000000E+00 0.  1.
          4    1    1    2  501    0  0.17018393816E+01 -0.10409583057E+01 -0.44147753220E+00  0.24057543279E+01  0.12700000000E+01 0.  1.
         -4    1    1    2    0  501 -0.17018393816E+01  0.10409583057E+01  0.76350573803E+00  0.24850940600E+01  0.12700000000E+01 0.  1.
<mgrwt>
<rscale>  0 0.23648999E+01</rscale>
<asrwt>0</asrwt>
<pdfrwt beam="1">0</pdfrwt>
<pdfrwt beam="2">0</pdfrwt>
<totfact> 0.30195333E+12</totfact>
</mgrwt>
</event>
<event>
 4    1  0.1733759E+006  0.2279286E+01  0.7546771E-02  0.2814632E+00
         22   -1    0    0    0    0  0.00000000000E+00  0.00000000000E+00  0.17973265368E+01  0.17973265368E+01  0.00000000000E+00 0.  1.
         22   -1    0    0    0    0 -0.00000000000E+00 -0.00000000000E+00 -0.43423487025E+01  0.43423487025E+01  0.00000000000E+00 0. -1.
          4    1    1    2  501    0 -0.63706083219E+00  0.17822454870E+01 -0.30475830805E+01  0.38056416164E+01  0.12700000000E+01 0. -1.
         -4    1    1    2    0  501  0.63706083219E+00 -0.17822454870E+01  0.50256091476E+00  0.23340336229E+01  0.12700000000E+01 0.  1.
<mgrwt>
<rscale>  0 0.22792862E+01</rscale>
<asrwt>0</asrwt>
<pdfrwt beam="1">0</pdfrwt>
<pdfrwt beam="2">0</pdfrwt>
<totfact> 0.21917810E+12</totfact>
</mgrwt>
</event>
<event>
 4    1  0.1733759E+006  0.3453964E+01  0.7546771E-02  0.2395652E+00
         22   -1    0    0    0    0  0.00000000000E+00  0.00000000000E+00  0.46619292999E+01  0.46619292999E+01  0.00000000000E+00 0. -1.
         22   -1    0    0    0    0 -0.00000000000E+00 -0.00000000000E+00 -0.10316784658E+02  0.10316784658E+02  0.00000000000E+00 0. -1.
          4    1    1    2  501    0 -0.23876903207E+01  0.21484658659E+01 -0.93218607816E+01  0.99411749344E+01  0.12700000000E+01 0. -1.
         -4    1    1    2    0  501  0.23876903207E+01 -0.21484658659E+01  0.36670054231E+01  0.50375390239E+01  0.12700000000E+01 0. -1.
<mgrwt>
<rscale>  0 0.34539645E+01</rscale>
<asrwt>0</asrwt>
<pdfrwt beam="1">0</pdfrwt>
<pdfrwt beam="2">0</pdfrwt>
<totfact> 0.25613267E+11</totfact>
</mgrwt>
</event>
<event>
 4    1  0.1733759E+006  0.2113571E+01  0.7546771E-02  0.2908068E+00
         22   -1    0    0    0    0  0.00000000000E+00  0.00000000000E+00  0.12188530024E+02  0.12188530024E+02  0.00000000000E+00 0. -1.
         22   -1    0    0    0    0 -0.00000000000E+00 -0.00000000000E+00 -0.10245697612E+01  0.10245697612E+01  0.00000000000E+00 0.  1.
          4    1    1    2  501    0  0.16858208384E+01 -0.11086152616E+00  0.28732602494E+00  0.21330115850E+01  0.12700000000E+01 0.  1.
         -4    1    1    2    0  501 -0.16858208384E+01  0.11086152616E+00  0.10876634238E+02  0.11080088200E+02  0.12700000000E+01 0. -1.
<mgrwt>
<rscale>  0 0.21135710E+01</rscale>
<asrwt>0</asrwt>
<pdfrwt beam="1">0</pdfrwt>
<pdfrwt beam="2">0</pdfrwt>
<totfact> 0.12133432E+12</totfact>
</mgrwt>
</event>
<event>
 4    1  0.1733759E+006  0.2076458E+01  0.7546771E-02  0.2930960E+00
         22   -1    0    0    0    0  0.00000000000E+00  0.00000000000E+00  0.72855015308E+01  0.72855015308E+01  0.00000000000E+00 0. -1.
         22   -1    0    0    0    0 -0.00000000000E+00 -0.00000000000E+00 -0.10320377759E+01  0.10320377759E+01  0.00000000000E+00 0. -1.
          4    1    1    2  501    0 -0.16405524917E+01 -0.85831406556E-01  0.41058896096E+00  0.21166631294E+01  0.12700000000E+01 0. -1.
         -4    1    1    2    0  501  0.16405524917E+01  0.85831406556E-01  0.58428747940E+01  0.62008761774E+01  0.12700000000E+01 0. -1.
<mgrwt>
<rscale>  0 0.20764584E+01</rscale>
<asrwt>0</asrwt>
<pdfrwt beam="1">0</pdfrwt>
<pdfrwt beam="2">0</pdfrwt>
<totfact> 0.22411170E+12</totfact>
</mgrwt>
</event>
<event>
 4    1  0.1733759E+006  0.2493723E+01  0.7546771E-02  0.2711304E+00
         22   -1    0    0    0    0  0.00000000000E+00  0.00000000000E+00  0.67649489511E+01  0.67649489511E+01  0.00000000000E+00 0.  1.
         22   -1    0    0    0    0 -0.00000000000E+00 -0.00000000000E+00 -0.91970511021E+00  0.91970511021E+00  0.00000000000E+00 0. -1.
          4    1    1    2  501    0 -0.33115620574E+00  0.21203990198E+01  0.28368319313E+01  0.37770718609E+01  0.12700000000E+01 0. -1.
         -4    1    1    2    0  501  0.33115620574E+00 -0.21203990198E+01  0.30084119096E+01  0.39075822005E+01  0.12700000000E+01 0.  1.
<mgrwt>
<rscale>  0 0.24937234E+01</rscale>
<asrwt>0</asrwt>
<pdfrwt beam="1">0</pdfrwt>
<pdfrwt beam="2">0</pdfrwt>
<totfact> 0.27934079E+12</totfact>
</mgrwt>
</event>
<event>
 4    1  0.1733759E+006  0.4176971E+01  0.7546771E-02  0.2244691E+00
         22   -1    0    0    0    0  0.00000000000E+00  0.00000000000E+00  0.31361997641E+01  0.31361997641E+01  0.00000000000E+00 0. -1.
         22   -1    0    0    0    0 -0.00000000000E+00 -0.00000000000E+00 -0.11976613908E+02  0.11976613908E+02  0.00000000000E+00 0.  1.
          4    1    1    2  501    0  0.31663729292E+01  0.24100342566E+01 -0.99498279883E+01  0.10791022178E+02  0.12700000000E+01 0.  1.
         -4    1    1    2    0  501 -0.31663729292E+01 -0.24100342566E+01  0.11094138442E+01  0.43217914946E+01  0.12700000000E+01 0. -1.
<mgrwt>
<rscale>  0 0.41769705E+01</rscale>
<asrwt>0</asrwt>
<pdfrwt beam="1">0</pdfrwt>
<pdfrwt beam="2">0</pdfrwt>
<totfact> 0.34045638E+11</totfact>
</mgrwt>
</event>
<event>
 4    1  0.1733759E+006  0.2075046E+01  0.7546771E-02  0.2931847E+00
         22   -1    0    0    0    0  0.00000000000E+00  0.00000000000E+00  0.96361628962E+01  0.96361628962E+01  0.00000000000E+00 0.  1.
         22   -1    0    0    0    0 -0.00000000000E+00 -0.00000000000E+00 -0.62858585212E+00  0.62858585212E+00  0.00000000000E+00 0. -1.
          4    1    1    2  501    0 -0.15119695046E-01 -0.16409413979E+01  0.17440432746E+01  0.27106280122E+01  0.12700000000E+01 0. -1.
         -4    1    1    2    0  501  0.15119695046E-01  0.16409413979E+01  0.72635337695E+01  0.75541207362E+01  0.12700000000E+01 0.  1.
<mgrwt>
<rscale>  0 0.20750463E+01</rscale>
<asrwt>0</asrwt>
<pdfrwt beam="1">0</pdfrwt>
<pdfrwt beam="2">0</pdfrwt>
<totfact> 0.28139795E+12</totfact>
</mgrwt>
</event>
<event>
 4    1  0.1733759E+006  0.2512197E+01  0.7546771E-02  0.2703177E+00
         22   -1    0    0    0    0  0.00000000000E+00  0.00000000000E+00  0.20616312349E+01  0.20616312349E+01  0.00000000000E+00 0. -1.
         22   -1    0    0    0    0 -0.00000000000E+00 -0.00000000000E+00 -0.70411164373E+01  0.70411164373E+01  0.00000000000E+00 0.  1.
          4    1    1    2  501    0  0.21297400044E+01 -0.40304246557E+00 -0.59115602745E+01  0.64232141950E+01  0.12700000000E+01 0.  1.
         -4    1    1    2    0  501 -0.21297400044E+01  0.40304246557E+00  0.93207507214E+00  0.26795334772E+01  0.12700000000E+01 0. -1.
<mgrwt>
<rscale>  0 0.25121974E+01</rscale>
<asrwt>0</asrwt>
<pdfrwt beam="1">0</pdfrwt>
<pdfrwt beam="2">0</pdfrwt>
<totfact> 0.10534183E+12</totfact>
</mgrwt>
</event>
<event>
 4    1  0.1733759E+006  0.2105672E+01  0.7546771E-02  0.2912875E+00
         22   -1    0    0    0    0  0.00000000000E+00  0.00000000000E+00  0.18259048618E+00  0.18259048618E+00  0.00000000000E+00 0.  1.
         22   -1    0    0    0    0 -0.00000000000E+00 -0.00000000000E+00 -0.45573197807E+02  0.45573197807E+02  0.00000000000E+00 0. -1.
          4    1    1    2  501    0  0.10946723658E+01  0.12738313652E+01 -0.38332202662E+02  0.38389993681E+02  0.12700000000E+01 0. -1.
         -4    1    1    2    0  501 -0.10946723658E+01 -0.12738313652E+01 -0.70584046588E+01  0.73657946118E+01  0.12700000000E+01 0.  1.
<mgrwt>
<rscale>  0 0.21056718E+01</rscale>
<asrwt>0</asrwt>
<pdfrwt beam="1">0</pdfrwt>
<pdfrwt beam="2">0</pdfrwt>
<totfact> 0.16100520E+12</totfact>
</mgrwt>
</event>
<event>
 4    1  0.1733759E+006  0.2296614E+01  0.7546771E-02  0.2805607E+00
         22   -1    0    0    0    0  0.00000000000E+00  0.00000000000E+00  0.48455654691E+00  0.48455654691E+00  0.00000000000E+00 0. -1.
         22   -1    0    0    0    0 -0.00000000000E+00 -0.00000000000E+00 -0.36908984968E+02  0.36908984968E+02  0.00000000000E+00 0. -1.
          4    1    1    2  501    0 -0.14752916492E+01 -0.12186270747E+01 -0.33911748645E+02  0.33989426791E+02  0.12700000000E+01 0. -1.
         -4    1    1    2    0  501  0.14752916492E+01  0.12186270747E+01 -0.25126797755E+01  0.34041147236E+01  0.12700000000E+01 0. -1.
<mgrwt>
<rscale>  0 0.22966143E+01</rscale>
<asrwt>0</asrwt>
<pdfrwt beam="1">0</pdfrwt>
<pdfrwt beam="2">0</pdfrwt>
<totfact> 0.70903125E+11</totfact>
</mgrwt>
</event>
<event>
 4    1  0.1733759E+006  0.3224386E+01  0.7546771E-02  0.2455699E+00
         22   -1    0    0    0    0  0.00000000000E+00  0.00000000000E+00  0.21817321214E+02  0.21817321214E+02  0.00000000000E+00 0.  1.
         22   -1    0    0    0    0 -0.00000000000E+00 -0.00000000000E+00 -0.35933818494E+01  0.35933818494E+01  0.00000000000E+00 0.  1.
          4    1    1    2  501    0  0.73970427466E+00  0.28699479123E+01 -0.27209768969E+01  0.42190495028E+01  0.12700000000E+01 0.  1.
         -4    1    1    2    0  501 -0.73970427466E+00 -0.28699479123E+01  0.20944916262E+02  0.21191653561E+02  0.12700000000E+01 0.  1.
<mgrwt>
<rscale>  0 0.32243857E+01</rscale>
<asrwt>0</asrwt>
<pdfrwt beam="1">0</pdfrwt>
<pdfrwt beam="2">0</pdfrwt>
<totfact> 0.13840154E+11</totfact>
</mgrwt>
</event>
<event>
 4    1  0.1733759E+006  0.2079945E+01  0.7546771E-02  0.2928776E+00
         22   -1    0    0    0    0  0.00000000000E+00  0.00000000000E+00  0.77325679223E+00  0.77325679223E+00  0.00000000000E+00 0.  1.
         22   -1    0    0    0    0 -0.00000000000E+00 -0.00000000000E+00 -0.67920236235E+01  0.67920236235E+01  0.00000000000E+00 0.  1.
          4    1    1    2  501    0  0.46230062597E+00 -0.15809964635E+01 -0.45975415079E+01  0.50461430423E+01  0.12700000000E+01 0.  1.
         -4    1    1    2    0  501 -0.46230062597E+00  0.15809964635E+01 -0.14212253234E+01  0.25191373735E+01  0.12700000000E+01 0.  1.
<mgrwt>
<rscale>  0 0.20799451E+01</rscale>
<asrwt>0</asrwt>
<pdfrwt beam="1">0</pdfrwt>
<pdfrwt beam="2">0</pdfrwt>
<totfact> 0.33868645E+12</totfact>
</mgrwt>
</event>
<event>
 4    1  0.1733759E+006  0.2225034E+01  0.7546771E-02  0.2843753E+00
         22   -1    0    0    0    0  0.00000000000E+00  0.00000000000E+00  0.61579019166E-01  0.61579019166E-01  0.00000000000E+00 0. -1.
         22   -1    0    0    0    0 -0.00000000000E+00 -0.00000000000E+00 -0.10750083724E+03  0.10750083724E+03  0.00000000000E+00 0.  1.
          4    1    1    2  501    0  0.15278703508E+01  0.10017426515E+01 -0.80724307735E+02  0.80754966630E+02  0.12700000000E+01 0.  1.
         -4    1    1    2    0  501 -0.15278703508E+01 -0.10017426515E+01 -0.26714950483E+02  0.26807449626E+02  0.12700000000E+01 0. -1.
<mgrwt>
<rscale>  0 0.22250340E+01</rscale>
<asrwt>0</asrwt>
<pdfrwt beam="1">0</pdfrwt>
<pdfrwt beam="2">0</pdfrwt>
<totfact> 0.16714763E+12</totfact>
</mgrwt>
</event>
<event>
 4    1  0.1733759E+006  0.2068722E+01  0.7546771E-02  0.2935833E+00
         22   -1    0    0    0    0  0.00000000000E+00  0.00000000000E+00  0.14734905610E+01  0.14734905610E+01  0.00000000000E+00 0.  1.
         22   -1    0    0    0    0 -0.00000000000E+00 -0.00000000000E+00 -0.46935104235E+01  0.46935104235E+01  0.00000000000E+00 0.  1.
          4    1    1    2  501    0  0.93719435628E+00  0.13373022990E+01 -0.35137748223E+01  0.40775267261E+01  0.12700000000E+01 0.  1.
         -4    1    1    2    0  501 -0.93719435628E+00 -0.13373022990E+01  0.29375495977E+00  0.20894742585E+01  0.12700000000E+01 0.  1.
<mgrwt>
<rscale>  0 0.20687220E+01</rscale>
<asrwt>0</asrwt>
<pdfrwt beam="1">0</pdfrwt>
<pdfrwt beam="2">0</pdfrwt>
<totfact> 0.25138667E+12</totfact>
</mgrwt>
</event>
<event>
 4    1  0.1733759E+006  0.2083975E+01  0.7546771E-02  0.2926260E+00
         22   -1    0    0    0    0  0.00000000000E+00  0.00000000000E+00  0.11780344126E+00  0.11780344126E+00  0.00000000000E+00 0. -1.
         22   -1    0    0    0    0 -0.00000000000E+00 -0.00000000000E+00 -0.38331352304E+02  0.38331352304E+02  0.00000000000E+00 0.  1.
          4    1    1    2  501    0 -0.57629719896E+00 -0.15485263210E+01 -0.15348076024E+02  0.15488911836E+02  0.12700000000E+01 0.  1.
         -4    1    1    2    0  501  0.57629719896E+00  0.15485263210E+01 -0.22865472838E+02  0.22960243909E+02  0.12700000000E+01 0. -1.
<mgrwt>
<rscale>  0 0.20839751E+01</rscale>
<asrwt>0</asrwt>
<pdfrwt beam="1">0</pdfrwt>
<pdfrwt beam="2">0</pdfrwt>
<totfact> 0.32827186E+12</totfact>
</mgrwt>
</event>
<event>
 4    1  0.1733759E+006  0.2522411E+01  0.7546771E-02  0.2698731E+00
         22   -1    0    0    0    0  0.00000000000E+00  0.00000000000E+00  0.29477468429E+01  0.29477468429E+01  0.00000000000E+00 0. -1.
         22   -1    0    0    0    0 -0.00000000000E+00 -0.00000000000E+00 -0.23942244345E+01  0.23942244345E+01  0.00000000000E+00 0.  1.
          4    1    1    2  501    0  0.14909149683E+01  0.15896009416E+01 -0.56142251696E+00  0.25841350272E+01  0.12700000000E+01 0.  1.
         -4    1    1    2    0  501 -0.14909149683E+01 -0.15896009416E+01  0.11149449254E+01  0.27578362502E+01  0.12700000000E+01 0. -1.
<mgrwt>
<rscale>  0 0.25224113E+01</rscale>
<asrwt>0</asrwt>
<pdfrwt beam="1">0</pdfrwt>
<pdfrwt beam="2">0</pdfrwt>
<totfact> 0.24771368E+12</totfact>
</mgrwt>
</event>
<event>
 4    1  0.1733759E+006  0.2756256E+01  0.7546771E-02  0.2605311E+00
         22   -1    0    0    0    0  0.00000000000E+00  0.00000000000E+00  0.27553944575E+01  0.27553944575E+01  0.00000000000E+00 0.  1.
         22   -1    0    0    0    0 -0.00000000000E+00 -0.00000000000E+00 -0.41450913878E+01  0.41450913878E+01  0.00000000000E+00 0.  1.
          4    1    1    2  501    0  0.24453558896E+01  0.65427798416E-01 -0.26913666475E+01  0.38523240589E+01  0.12700000000E+01 0.  1.
         -4    1    1    2    0  501 -0.24453558896E+01 -0.65427798416E-01  0.13016697171E+01  0.30481617864E+01  0.12700000000E+01 0.  1.
<mgrwt>
<rscale>  0 0.27562558E+01</rscale>
<asrwt>0</asrwt>
<pdfrwt beam="1">0</pdfrwt>
<pdfrwt beam="2">0</pdfrwt>
<totfact> 0.14103483E+12</totfact>
</mgrwt>
</event>
<event>
 4    1  0.1733759E+006  0.2145452E+01  0.7546771E-02  0.2889016E+00
         22   -1    0    0    0    0  0.00000000000E+00  0.00000000000E+00  0.22864850653E+01  0.22864850653E+01  0.00000000000E+00 0.  1.
         22   -1    0    0    0    0 -0.00000000000E+00 -0.00000000000E+00 -0.21134203498E+01  0.21134203498E+01  0.00000000000E+00 0. -1.
          4    1    1    2  501    0 -0.98861947395E-01 -0.17263517792E+01  0.56579772027E+00  0.22188040045E+01  0.12700000000E+01 0.  1.
         -4    1    1    2    0  501  0.98861947395E-01  0.17263517792E+01 -0.39273300481E+00  0.21811014106E+01  0.12700000000E+01 0. -1.
<mgrwt>
<rscale>  0 0.21454520E+01</rscale>
<asrwt>0</asrwt>
<pdfrwt beam="1">0</pdfrwt>
<pdfrwt beam="2">0</pdfrwt>
<totfact> 0.38480249E+12</totfact>
</mgrwt>
</event>
<event>
 4    1  0.1733759E+006  0.2374560E+01  0.7546771E-02  0.2766556E+00
         22   -1    0    0    0    0  0.00000000000E+00  0.00000000000E+00  0.67809781842E+01  0.67809781842E+01  0.00000000000E+00 0.  1.
         22   -1    0    0    0    0 -0.00000000000E+00 -0.00000000000E+00 -0.18382776074E+01  0.18382776074E+01  0.00000000000E+00 0. -1.
          4    1    1    2  501    0 -0.19385283730E+01  0.51743834534E+00 -0.71795567810E+00  0.24807247026E+01  0.12700000000E+01 0. -1.
         -4    1    1    2    0  501  0.19385283730E+01 -0.51743834534E+00  0.56606562549E+01  0.61385310890E+01  0.12700000000E+01 0.  1.
<mgrwt>
<rscale>  0 0.23745599E+01</rscale>
<asrwt>0</asrwt>
<pdfrwt beam="1">0</pdfrwt>
<pdfrwt beam="2">0</pdfrwt>
<totfact> 0.12582035E+12</totfact>
</mgrwt>
</event>
<event>
 4    1  0.1733759E+006  0.3620786E+01  0.7546771E-02  0.2356227E+00
         22   -1    0    0    0    0  0.00000000000E+00  0.00000000000E+00  0.60858480306E+01  0.60858480306E+01  0.00000000000E+00 0. -1.
         22   -1    0    0    0    0 -0.00000000000E+00 -0.00000000000E+00 -0.48018117132E+01  0.48018117132E+01  0.00000000000E+00 0.  1.
          4    1    1    2  501    0 -0.16290215773E+01 -0.29737986113E+01 -0.34002928612E+01  0.49670998603E+01  0.12700000000E+01 0.  1.
         -4    1    1    2    0  501  0.16290215773E+01  0.29737986113E+01  0.46843291786E+01  0.59205598835E+01  0.12700000000E+01 0. -1.
<mgrwt>
<rscale>  0 0.36207858E+01</rscale>
<asrwt>0</asrwt>
<pdfrwt beam="1">0</pdfrwt>
<pdfrwt beam="2">0</pdfrwt>
<totfact> 0.46626680E+11</totfact>
</mgrwt>
</event>
<event>
 4    1  0.1733759E+006  0.3413283E+01  0.7546771E-02  0.2405775E+00
         22   -1    0    0    0    0  0.00000000000E+00  0.00000000000E+00  0.24480436346E+02  0.24480436346E+02  0.00000000000E+00 0.  1.
         22   -1    0    0    0    0 -0.00000000000E+00 -0.00000000000E+00 -0.49555312601E+00  0.49555312601E+00  0.00000000000E+00 0.  1.
          4    1    1    2  501    0  0.63384269272E-01  0.31675836861E+01  0.95061956695E+01  0.10100408907E+02  0.12700000000E+01 0.  1.
         -4    1    1    2    0  501 -0.63384269272E-01 -0.31675836861E+01  0.14478687551E+02  0.14875580566E+02  0.12700000000E+01 0.  1.
<mgrwt>
<rscale>  0 0.34132835E+01</rscale>
<asrwt>0</asrwt>
<pdfrwt beam="1">0</pdfrwt>
<pdfrwt beam="2">0</pdfrwt>
<totfact> 0.11668352E+12</totfact>
</mgrwt>
</event>
<event>
 4    1  0.1733759E+006  0.3533048E+01  0.7546771E-02  0.2376558E+00
         22   -1    0    0    0    0  0.00000000000E+00  0.00000000000E+00  0.41131338747E+01  0.41131338747E+01  0.00000000000E+00 0.  1.
         22   -1    0    0    0    0 -0.00000000000E+00 -0.00000000000E+00 -0.40097267546E+01  0.40097267546E+01  0.00000000000E+00 0. -1.
          4    1    1    2  501    0  0.23597331396E+01 -0.23024313244E+01 -0.19509852434E+01  0.40359353208E+01  0.12700000000E+01 0. -1.
         -4    1    1    2    0  501 -0.23597331396E+01  0.23024313244E+01  0.20543923635E+01  0.40869253085E+01  0.12700000000E+01 0.  1.
<mgrwt>
<rscale>  0 0.35330483E+01</rscale>
<asrwt>0</asrwt>
<pdfrwt beam="1">0</pdfrwt>
<pdfrwt beam="2">0</pdfrwt>
<totfact> 0.91720362E+11</totfact>
</mgrwt>
</event>
<event>
 4    1  0.1733759E+006  0.2052488E+01  0.7546771E-02  0.2946173E+00
         22   -1    0    0    0    0  0.00000000000E+00  0.00000000000E+00  0.14887505266E+00  0.14887505266E+00  0.00000000000E+00 0.  1.
         22   -1    0    0    0    0 -0.00000000000E+00 -0.00000000000E+00 -0.50413360461E+02  0.50413360461E+02  0.00000000000E+00 0.  1.
          4    1    1    2  501    0  0.11758089700E+01  0.11033042149E+01 -0.41877081315E+02  0.41927349623E+02  0.12700000000E+01 0.  1.
         -4    1    1    2    0  501 -0.11758089700E+01 -0.11033042149E+01 -0.83874040937E+01  0.86348858912E+01  0.12700000000E+01 0.  1.
<mgrwt>
<rscale>  0 0.20524880E+01</rscale>
<asrwt>0</asrwt>
<pdfrwt beam="1">0</pdfrwt>
<pdfrwt beam="2">0</pdfrwt>
<totfact> 0.17696025E+12</totfact>
</mgrwt>
</event>
<event>
 4    1  0.1733759E+006  0.2060747E+01  0.7546771E-02  0.2940893E+00
         22   -1    0    0    0    0  0.00000000000E+00  0.00000000000E+00  0.81128297028E+01  0.81128297028E+01  0.00000000000E+00 0. -1.
         22   -1    0    0    0    0 -0.00000000000E+00 -0.00000000000E+00 -0.65081175970E+00  0.65081175970E+00  0.00000000000E+00 0.  1.
          4    1    1    2  501    0 -0.27399439150E+00  0.15995958131E+01  0.17926132358E+01  0.27313260342E+01  0.12700000000E+01 0. -1.
         -4    1    1    2    0  501  0.27399439150E+00 -0.15995958131E+01  0.56694047073E+01  0.60323154284E+01  0.12700000000E+01 0. -1.
<mgrwt>
<rscale>  0 0.20607474E+01</rscale>
<asrwt>0</asrwt>
<pdfrwt beam="1">0</pdfrwt>
<pdfrwt beam="2">0</pdfrwt>
<totfact> 0.33289688E+12</totfact>
</mgrwt>
</event>
<event>
 4    1  0.1733759E+006  0.2360985E+01  0.7546771E-02  0.2773182E+00
         22   -1    0    0    0    0  0.00000000000E+00  0.00000000000E+00  0.37313245651E+01  0.37313245651E+01  0.00000000000E+00 0.  1.
         22   -1    0    0    0    0 -0.00000000000E+00 -0.00000000000E+00 -0.16002405196E+01  0.16002405196E+01  0.00000000000E+00 0. -1.
          4    1    1    2  501    0  0.19701721165E+01  0.28243811170E+00  0.37836518389E+00  0.23911105512E+01  0.12700000000E+01 0. -1.
         -4    1    1    2    0  501 -0.19701721165E+01 -0.28243811170E+00  0.17527188616E+01  0.29404545335E+01  0.12700000000E+01 0. -1.
<mgrwt>
<rscale>  0 0.23609848E+01</rscale>
<asrwt>0</asrwt>
<pdfrwt beam="1">0</pdfrwt>
<pdfrwt beam="2">0</pdfrwt>
<totfact> 0.29957202E+12</totfact>
</mgrwt>
</event>
<event>
 4    1  0.1733759E+006  0.2236672E+01  0.7546771E-02  0.2837393E+00
         22   -1    0    0    0    0  0.00000000000E+00  0.00000000000E+00  0.84934753513E+02  0.84934753513E+02  0.00000000000E+00 0.  1.
         22   -1    0    0    0    0 -0.00000000000E+00 -0.00000000000E+00 -0.71246956847E-01  0.71246956847E-01  0.00000000000E+00 0. -1.
          4    1    1    2  501    0  0.17223698435E+01  0.65057063675E+00  0.24738508788E+02  0.24839414588E+02  0.12700000000E+01 0. -1.
         -4    1    1    2    0  501 -0.17223698435E+01 -0.65057063675E+00  0.60124997768E+02  0.60166585881E+02  0.12700000000E+01 0.  1.
<mgrwt>
<rscale>  0 0.22366716E+01</rscale>
<asrwt>0</asrwt>
<pdfrwt beam="1">0</pdfrwt>
<pdfrwt beam="2">0</pdfrwt>
<totfact> 0.19798123E+12</totfact>
</mgrwt>
</event>
<event>
 4    1  0.1733759E+006  0.2094328E+01  0.7546771E-02  0.2919839E+00
         22   -1    0    0    0    0  0.00000000000E+00  0.00000000000E+00  0.25384737197E+01  0.25384737197E+01  0.00000000000E+00 0.  1.
         22   -1    0    0    0    0 -0.00000000000E+00 -0.00000000000E+00 -0.26329214441E+01  0.26329214441E+01  0.00000000000E+00 0.  1.
          4    1    1    2  501    0  0.13973845750E+01 -0.90588429733E+00 -0.15631916862E+01  0.26133844452E+01  0.12700000000E+01 0.  1.
         -4    1    1    2    0  501 -0.13973845750E+01  0.90588429733E+00  0.14687439619E+01  0.25580107185E+01  0.12700000000E+01 0.  1.
<mgrwt>
<rscale>  0 0.20943281E+01</rscale>
<asrwt>0</asrwt>
<pdfrwt beam="1">0</pdfrwt>
<pdfrwt beam="2">0</pdfrwt>
<totfact> 0.26398439E+12</totfact>
</mgrwt>
</event>
<event>
 4    1  0.1733759E+006  0.2967018E+01  0.7546771E-02  0.2532706E+00
         22   -1    0    0    0    0  0.00000000000E+00  0.00000000000E+00  0.24371684925E+00  0.24371684925E+00  0.00000000000E+00 0.  1.
         22   -1    0    0    0    0 -0.00000000000E+00 -0.00000000000E+00 -0.36262515551E+02  0.36262515551E+02  0.00000000000E+00 0.  1.
          4    1    1    2  501    0 -0.10130313194E+01 -0.24827532503E+01 -0.16867468502E+02  0.17126432490E+02  0.12700000000E+01 0.  1.
         -4    1    1    2    0  501  0.10130313194E+01  0.24827532503E+01 -0.19151330200E+02  0.19379799911E+02  0.12700000000E+01 0.  1.
<mgrwt>
<rscale>  0 0.29670181E+01</rscale>
<asrwt>0</asrwt>
<pdfrwt beam="1">0</pdfrwt>
<pdfrwt beam="2">0</pdfrwt>
<totfact> 0.15698564E+12</totfact>
</mgrwt>
</event>
<event>
 4    1  0.1733759E+006  0.2381542E+01  0.7546771E-02  0.2763175E+00
         22   -1    0    0    0    0  0.00000000000E+00  0.00000000000E+00  0.11083707646E+02  0.11083707646E+02  0.00000000000E+00 0.  1.
         22   -1    0    0    0    0 -0.00000000000E+00 -0.00000000000E+00 -0.61275117826E+00  0.61275117826E+00  0.00000000000E+00 0. -1.
          4    1    1    2  501    0  0.13913562470E+01 -0.14570420068E+01  0.28607592954E+01  0.37223228449E+01  0.12700000000E+01 0. -1.
         -4    1    1    2    0  501 -0.13913562470E+01  0.14570420068E+01  0.76101971725E+01  0.79741359795E+01  0.12700000000E+01 0.  1.
<mgrwt>
<rscale>  0 0.23815423E+01</rscale>
<asrwt>0</asrwt>
<pdfrwt beam="1">0</pdfrwt>
<pdfrwt beam="2">0</pdfrwt>
<totfact> 0.24446169E+12</totfact>
</mgrwt>
</event>
<event>
 4    1  0.1733759E+006  0.2206593E+01  0.7546771E-02  0.2853962E+00
         22   -1    0    0    0    0  0.00000000000E+00  0.00000000000E+00  0.10731239885E+02  0.10731239885E+02  0.00000000000E+00 0.  1.
         22   -1    0    0    0    0 -0.00000000000E+00 -0.00000000000E+00 -0.45547549508E+00  0.45547549508E+00  0.00000000000E+00 0.  1.
          4    1    1    2  501    0  0.17832821824E+01  0.27578519218E+00  0.47913228013E+01  0.52750191470E+01  0.12700000000E+01 0.  1.
         -4    1    1    2    0  501 -0.17832821824E+01 -0.27578519218E+00  0.54844415889E+01  0.59116962334E+01  0.12700000000E+01 0.  1.
<mgrwt>
<rscale>  0 0.22065930E+01</rscale>
<asrwt>0</asrwt>
<pdfrwt beam="1">0</pdfrwt>
<pdfrwt beam="2">0</pdfrwt>
<totfact> 0.35549925E+12</totfact>
</mgrwt>
</event>
<event>
 4    1  0.1733759E+006  0.2529311E+01  0.7546771E-02  0.2695747E+00
         22   -1    0    0    0    0  0.00000000000E+00  0.00000000000E+00  0.53635412541E+00  0.53635412541E+00  0.00000000000E+00 0.  1.
         22   -1    0    0    0    0 -0.00000000000E+00 -0.00000000000E+00 -0.11952978677E+02  0.11952978677E+02  0.00000000000E+00 0.  1.
          4    1    1    2  501    0 -0.72632722449E+00 -0.20632407904E+01 -0.59960946531E+01  0.65077311626E+01  0.12700000000E+01 0.  1.
         -4    1    1    2    0  501  0.72632722449E+00  0.20632407904E+01 -0.54205298985E+01  0.59816016397E+01  0.12700000000E+01 0.  1.
<mgrwt>
<rscale>  0 0.25293109E+01</rscale>
<asrwt>0</asrwt>
<pdfrwt beam="1">0</pdfrwt>
<pdfrwt beam="2">0</pdfrwt>
<totfact> 0.25926282E+12</totfact>
</mgrwt>
</event>
<event>
 4    1  0.1733759E+006  0.3438652E+01  0.7546771E-02  0.2399438E+00
         22   -1    0    0    0    0  0.00000000000E+00  0.00000000000E+00  0.32972773411E+02  0.32972773411E+02  0.00000000000E+00 0. -1.
         22   -1    0    0    0    0 -0.00000000000E+00 -0.00000000000E+00 -0.10354951346E+01  0.10354951346E+01  0.00000000000E+00 0.  1.
          4    1    1    2  501    0 -0.12703005950E+01 -0.29321946961E+01  0.22206765395E+01  0.40933768005E+01  0.12700000000E+01 0.  1.
         -4    1    1    2    0  501  0.12703005950E+01  0.29321946961E+01  0.29716601737E+02  0.29914891746E+02  0.12700000000E+01 0. -1.
<mgrwt>
<rscale>  0 0.34386523E+01</rscale>
<asrwt>0</asrwt>
<pdfrwt beam="1">0</pdfrwt>
<pdfrwt beam="2">0</pdfrwt>
<totfact> 0.34610756E+11</totfact>
</mgrwt>
</event>
<event>
 4    1  0.1733759E+006  0.2715765E+01  0.7546771E-02  0.2620427E+00
         22   -1    0    0    0    0  0.00000000000E+00  0.00000000000E+00  0.90101574639E+02  0.90101574639E+02  0.00000000000E+00 0. -1.
         22   -1    0    0    0    0 -0.00000000000E+00 -0.00000000000E+00 -0.18223464250E+00  0.18223464250E+00  0.00000000000E+00 0. -1.
          4    1    1    2  501    0 -0.23048934340E+01 -0.67078157174E+00  0.11456614539E+02  0.11774098622E+02  0.12700000000E+01 0. -1.
         -4    1    1    2    0  501  0.23048934340E+01  0.67078157174E+00  0.78462725458E+02  0.78509710660E+02  0.12700000000E+01 0. -1.
<mgrwt>
<rscale>  0 0.27157654E+01</rscale>
<asrwt>0</asrwt>
<pdfrwt beam="1">0</pdfrwt>
<pdfrwt beam="2">0</pdfrwt>
<totfact> 0.64404555E+11</totfact>
</mgrwt>
</event>
<event>
 4    1  0.1733759E+006  0.2059724E+01  0.7546771E-02  0.2941545E+00
         22   -1    0    0    0    0  0.00000000000E+00  0.00000000000E+00  0.50876090252E+01  0.50876090252E+01  0.00000000000E+00 0.  1.
         22   -1    0    0    0    0 -0.00000000000E+00 -0.00000000000E+00 -0.29169692417E+01  0.29169692417E+01  0.00000000000E+00 0. -1.
          4    1    1    2  501    0  0.14626120638E+01 -0.70023508604E+00 -0.22968569602E+01  0.30851280558E+01  0.12700000000E+01 0. -1.
         -4    1    1    2    0  501 -0.14626120638E+01  0.70023508604E+00  0.44674967436E+01  0.49194502111E+01  0.12700000000E+01 0.  1.
<mgrwt>
<rscale>  0 0.20597241E+01</rscale>
<asrwt>0</asrwt>
<pdfrwt beam="1">0</pdfrwt>
<pdfrwt beam="2">0</pdfrwt>
<totfact> 0.10358882E+12</totfact>
</mgrwt>
</event>
<event>
 4    1  0.1733759E+006  0.2053278E+01  0.7546771E-02  0.2945666E+00
         22   -1    0    0    0    0  0.00000000000E+00  0.00000000000E+00  0.14622218833E+01  0.14622218833E+01  0.00000000000E+00 0. -1.
         22   -1    0    0    0    0 -0.00000000000E+00 -0.00000000000E+00 -0.29326243266E+01  0.29326243266E+01  0.00000000000E+00 0. -1.
          4    1    1    2  501    0  0.14734862456E+01 -0.65718283264E+00 -0.45007521937E+00  0.21020272821E+01  0.12700000000E+01 0. -1.
         -4    1    1    2    0  501 -0.14734862456E+01  0.65718283264E+00 -0.10203272239E+01  0.22928189277E+01  0.12700000000E+01 0. -1.
<mgrwt>
<rscale>  0 0.20532781E+01</rscale>
<asrwt>0</asrwt>
<pdfrwt beam="1">0</pdfrwt>
<pdfrwt beam="2">0</pdfrwt>
<totfact> 0.44061788E+12</totfact>
</mgrwt>
</event>
<event>
 4    1  0.1733759E+006  0.3056961E+01  0.7546771E-02  0.2504481E+00
         22   -1    0    0    0    0  0.00000000000E+00  0.00000000000E+00  0.70577858032E+01  0.70577858032E+01  0.00000000000E+00 0. -1.
         22   -1    0    0    0    0 -0.00000000000E+00 -0.00000000000E+00 -0.33572251934E+01  0.33572251934E+01  0.00000000000E+00 0.  1.
          4    1    1    2  501    0  0.24211281749E+01  0.13675704310E+01 -0.22022348098E+01  0.37676051651E+01  0.12700000000E+01 0.  1.
         -4    1    1    2    0  501 -0.24211281749E+01 -0.13675704310E+01  0.59027954196E+01  0.66474058315E+01  0.12700000000E+01 0. -1.
<mgrwt>
<rscale>  0 0.30569610E+01</rscale>
<asrwt>0</asrwt>
<pdfrwt beam="1">0</pdfrwt>
<pdfrwt beam="2">0</pdfrwt>
<totfact> 0.59531351E+11</totfact>
</mgrwt>
</event>
<event>
 4    1  0.1733759E+006  0.2580101E+01  0.7546771E-02  0.2674236E+00
         22   -1    0    0    0    0  0.00000000000E+00  0.00000000000E+00  0.86587075159E+01  0.86587075159E+01  0.00000000000E+00 0.  1.
         22   -1    0    0    0    0 -0.00000000000E+00 -0.00000000000E+00 -0.78171606862E+00  0.78171606862E+00  0.00000000000E+00 0. -1.
          4    1    1    2  501    0  0.21360026326E+01  0.69391231418E+00  0.45449441551E+01  0.52262260685E+01  0.12700000000E+01 0.  1.
         -4    1    1    2    0  501 -0.21360026326E+01 -0.69391231418E+00  0.33320472922E+01  0.42141975160E+01  0.12700000000E+01 0. -1.
<mgrwt>
<rscale>  0 0.25801011E+01</rscale>
<asrwt>0</asrwt>
<pdfrwt beam="1">0</pdfrwt>
<pdfrwt beam="2">0</pdfrwt>
<totfact> 0.24999878E+12</totfact>
</mgrwt>
</event>
<event>
 4    1  0.1733759E+006  0.2179466E+01  0.7546771E-02  0.2869281E+00
         22   -1    0    0    0    0  0.00000000000E+00  0.00000000000E+00  0.46185820579E+01  0.46185820579E+01  0.00000000000E+00 0. -1.
         22   -1    0    0    0    0 -0.00000000000E+00 -0.00000000000E+00 -0.12891358033E+01  0.12891358033E+01  0.00000000000E+00 0. -1.
          4    1    1    2  501    0  0.52731859052E+00  0.16908894017E+01  0.33646443631E+00  0.22052846033E+01  0.12700000000E+01 0. -1.
         -4    1    1    2    0  501 -0.52731859052E+00 -0.16908894017E+01  0.29929818183E+01  0.37024332579E+01  0.12700000000E+01 0. -1.
<mgrwt>
<rscale>  0 0.21794660E+01</rscale>
<asrwt>0</asrwt>
<pdfrwt beam="1">0</pdfrwt>
<pdfrwt beam="2">0</pdfrwt>
<totfact> 0.29874195E+12</totfact>
</mgrwt>
</event>
<event>
 4    1  0.1733759E+006  0.3535425E+01  0.7546771E-02  0.2375996E+00
         22   -1    0    0    0    0  0.00000000000E+00  0.00000000000E+00  0.18493835739E+02  0.18493835739E+02  0.00000000000E+00 0.  1.
         22   -1    0    0    0    0 -0.00000000000E+00 -0.00000000000E+00 -0.68334603795E+00  0.68334603795E+00  0.00000000000E+00 0. -1.
          4    1    1    2  501    0  0.12633203462E+01 -0.30480077382E+01  0.79015932702E+01  0.86564661195E+01  0.12700000000E+01 0. -1.
         -4    1    1    2    0  501 -0.12633203462E+01  0.30480077382E+01  0.99088964309E+01  0.10520715658E+02  0.12700000000E+01 0.  1.
<mgrwt>
<rscale>  0 0.35354249E+01</rscale>
<asrwt>0</asrwt>
<pdfrwt beam="1">0</pdfrwt>
<pdfrwt beam="2">0</pdfrwt>
<totfact> 0.11518912E+12</totfact>
</mgrwt>
</event>
<event>
 4    1  0.1733759E+006  0.3361977E+01  0.7546771E-02  0.2418846E+00
         22   -1    0    0    0    0  0.00000000000E+00  0.00000000000E+00  0.69006251529E+01  0.69006251529E+01  0.00000000000E+00 0.  1.
         22   -1    0    0    0    0 -0.00000000000E+00 -0.00000000000E+00 -0.25945907638E+01  0.25945907638E+01  0.00000000000E+00 0. -1.
          4    1    1    2  501    0 -0.30531531111E+01  0.60683254636E+00 -0.72978275021E+00  0.34402721581E+01  0.12700000000E+01 0. -1.
         -4    1    1    2    0  501  0.30531531111E+01 -0.60683254636E+00  0.50358171393E+01  0.60549437586E+01  0.12700000000E+01 0.  1.
<mgrwt>
<rscale>  0 0.33619770E+01</rscale>
<asrwt>0</asrwt>
<pdfrwt beam="1">0</pdfrwt>
<pdfrwt beam="2">0</pdfrwt>
<totfact> 0.82628495E+11</totfact>
</mgrwt>
</event>
<event>
 4    1  0.1733759E+006  0.2136749E+01  0.7546771E-02  0.2894162E+00
         22   -1    0    0    0    0  0.00000000000E+00  0.00000000000E+00  0.15053787971E+01  0.15053787971E+01  0.00000000000E+00 0. -1.
         22   -1    0    0    0    0 -0.00000000000E+00 -0.00000000000E+00 -0.12116128357E+02  0.12116128357E+02  0.00000000000E+00 0.  1.
          4    1    1    2  501    0 -0.16445265032E+01  0.49832750196E+00 -0.11202397553E+02  0.11404359196E+02  0.12700000000E+01 0.  1.
         -4    1    1    2    0  501  0.16445265032E+01 -0.49832750196E+00  0.59164799401E+00  0.22171479580E+01  0.12700000000E+01 0. -1.
<mgrwt>
<rscale>  0 0.21367493E+01</rscale>
<asrwt>0</asrwt>
<pdfrwt beam="1">0</pdfrwt>
<pdfrwt beam="2">0</pdfrwt>
<totfact> 0.78624344E+11</totfact>
</mgrwt>
</event>
<event>
 4    1  0.1733759E+006  0.2368229E+01  0.7546771E-02  0.2769637E+00
         22   -1    0    0    0    0  0.00000000000E+00  0.00000000000E+00  0.11327656741E+01  0.11327656741E+01  0.00000000000E+00 0.  1.
         22   -1    0    0    0    0 -0.00000000000E+00 -0.00000000000E+00 -0.55578194460E+01  0.55578194460E+01  0.00000000000E+00 0. -1.
          4    1    1    2  501    0 -0.18700255042E+01  0.70612397345E+00 -0.33177593295E+01  0.40762769068E+01  0.12700000000E+01 0. -1.
         -4    1    1    2    0  501  0.18700255042E+01 -0.70612397345E+00 -0.11072944424E+01  0.26143082133E+01  0.12700000000E+01 0.  1.
<mgrwt>
<rscale>  0 0.23682285E+01</rscale>
<asrwt>0</asrwt>
<pdfrwt beam="1">0</pdfrwt>
<pdfrwt beam="2">0</pdfrwt>
<totfact> 0.27824940E+12</totfact>
</mgrwt>
</event>
<event>
 4    1  0.1733759E+006  0.4206349E+01  0.7546771E-02  0.2239504E+00
         22   -1    0    0    0    0  0.00000000000E+00  0.00000000000E+00  0.13928799468E+02  0.13928799468E+02  0.00000000000E+00 0.  1.
         22   -1    0    0    0    0 -0.00000000000E+00 -0.00000000000E+00 -0.15457047247E+01  0.15457047247E+01  0.00000000000E+00 0. -1.
          4    1    1    2  501    0  0.30972256440E+01 -0.25470896024E+01  0.29254375274E+01  0.51236273147E+01  0.12700000000E+01 0. -1.
         -4    1    1    2    0  501 -0.30972256440E+01  0.25470896024E+01  0.94576572161E+01  0.10350876878E+02  0.12700000000E+01 0.  1.
<mgrwt>
<rscale>  0 0.42063490E+01</rscale>
<asrwt>0</asrwt>
<pdfrwt beam="1">0</pdfrwt>
<pdfrwt beam="2">0</pdfrwt>
<totfact> 0.64315482E+11</totfact>
</mgrwt>
</event>
<event>
 4    1  0.1733759E+006  0.2005396E+01  0.7546771E-02  0.2977095E+00
         22   -1    0    0    0    0  0.00000000000E+00  0.00000000000E+00  0.39925229918E+01  0.39925229918E+01  0.00000000000E+00 0.  1.
         22   -1    0    0    0    0 -0.00000000000E+00 -0.00000000000E+00 -0.10072866803E+01  0.10072866803E+01  0.00000000000E+00 0. -1.
          4    1    1    2  501    0  0.10140523375E+01  0.11749085925E+01  0.14947359863E+01  0.25011693291E+01  0.12700000000E+01 0.  1.
         -4    1    1    2    0  501 -0.10140523375E+01 -0.11749085925E+01  0.14905003252E+01  0.24986403430E+01  0.12700000000E+01 0.  1.
<mgrwt>
<rscale>  0 0.20053958E+01</rscale>
<asrwt>0</asrwt>
<pdfrwt beam="1">0</pdfrwt>
<pdfrwt beam="2">0</pdfrwt>
<totfact> 0.47044103E+12</totfact>
</mgrwt>
</event>
<event>
 4    1  0.1733759E+006  0.8317272E+01  0.7546771E-02  0.1858488E+00
         22   -1    0    0    0    0  0.00000000000E+00  0.00000000000E+00  0.74657390540E+01  0.74657390540E+01  0.00000000000E+00 0. -1.
         22   -1    0    0    0    0 -0.00000000000E+00 -0.00000000000E+00 -0.94288318001E+01  0.94288318001E+01  0.00000000000E+00 0.  1.
          4    1    1    2  501    0 -0.70069570845E+01 -0.42972865445E+01 -0.20918723368E+01  0.85763015982E+01  0.12700000000E+01 0.  1.
         -4    1    1    2    0  501  0.70069570845E+01  0.42972865445E+01  0.12877959068E+00  0.83182692558E+01  0.12700000000E+01 0. -1.
<mgrwt>
<rscale>  0 0.83172723E+01</rscale>
<asrwt>0</asrwt>
<pdfrwt beam="1">0</pdfrwt>
<pdfrwt beam="2">0</pdfrwt>
<totfact> 0.16309059E+11</totfact>
</mgrwt>
</event>
<event>
 4    1  0.1733759E+006  0.2846318E+01  0.7546771E-02  0.2573095E+00
         22   -1    0    0    0    0  0.00000000000E+00  0.00000000000E+00  0.75445771631E+01  0.75445771631E+01  0.00000000000E+00 0.  1.
         22   -1    0    0    0    0 -0.00000000000E+00 -0.00000000000E+00 -0.10738221301E+01  0.10738221301E+01  0.00000000000E+00 0.  1.
          4    1    1    2  501    0  0.38185640397E+00 -0.25184945151E+01  0.32319975671E+01  0.43066619567E+01  0.12700000000E+01 0.  1.
         -4    1    1    2    0  501 -0.38185640397E+00  0.25184945151E+01  0.32387574659E+01  0.43117373365E+01  0.12700000000E+01 0.  1.
<mgrwt>
<rscale>  0 0.28463185E+01</rscale>
<asrwt>0</asrwt>
<pdfrwt beam="1">0</pdfrwt>
<pdfrwt beam="2">0</pdfrwt>
<totfact> 0.20540709E+12</totfact>
</mgrwt>
</event>
<event>
 4    1  0.1733759E+006  0.2946608E+01  0.7546771E-02  0.2539326E+00
         22   -1    0    0    0    0  0.00000000000E+00  0.00000000000E+00  0.44853424220E+02  0.44853424220E+02  0.00000000000E+00 0.  1.
         22   -1    0    0    0    0 -0.00000000000E+00 -0.00000000000E+00 -0.19874684012E+00  0.19874684012E+00  0.00000000000E+00 0. -1.
          4    1    1    2  501    0 -0.17431375169E+01 -0.20077521789E+01  0.25961149032E+02  0.26127834895E+02  0.12700000000E+01 0.  1.
         -4    1    1    2    0  501  0.17431375169E+01  0.20077521789E+01  0.18693528347E+02  0.18924336165E+02  0.12700000000E+01 0. -1.
<mgrwt>
<rscale>  0 0.29466077E+01</rscale>
<asrwt>0</asrwt>
<pdfrwt beam="1">0</pdfrwt>
<pdfrwt beam="2">0</pdfrwt>
<totfact> 0.14958308E+12</totfact>
</mgrwt>
</event>
<event>
 4    1  0.1733759E+006  0.2092477E+01  0.7546771E-02  0.2920983E+00
         22   -1    0    0    0    0  0.00000000000E+00  0.00000000000E+00  0.17467422098E+02  0.17467422098E+02  0.00000000000E+00 0.  1.
         22   -1    0    0    0    0 -0.00000000000E+00 -0.00000000000E+00 -0.55474074541E+00  0.55474074541E+00  0.00000000000E+00 0. -1.
          4    1    1    2  501    0  0.66832812481E+00 -0.15227922886E+01  0.17848438614E+01  0.27502957016E+01  0.12700000000E+01 0. -1.
         -4    1    1    2    0  501 -0.66832812481E+00  0.15227922886E+01  0.15127837491E+02  0.15271867142E+02  0.12700000000E+01 0.  1.
<mgrwt>
<rscale>  0 0.20924767E+01</rscale>
<asrwt>0</asrwt>
<pdfrwt beam="1">0</pdfrwt>
<pdfrwt beam="2">0</pdfrwt>
<totfact> 0.15657079E+12</totfact>
</mgrwt>
</event>
<event>
 4    1  0.1733759E+006  0.2811814E+01  0.7546771E-02  0.2585216E+00
         22   -1    0    0    0    0  0.00000000000E+00  0.00000000000E+00  0.47654726195E+01  0.47654726195E+01  0.00000000000E+00 0.  1.
         22   -1    0    0    0    0 -0.00000000000E+00 -0.00000000000E+00 -0.17473208316E+01  0.17473208316E+01  0.00000000000E+00 0.  1.
          4    1    1    2  501    0  0.78887720471E+00  0.23814009690E+01  0.22408668977E+01  0.35955225313E+01  0.12700000000E+01 0.  1.
         -4    1    1    2    0  501 -0.78887720471E+00 -0.23814009690E+01  0.77728489015E+00  0.29172709199E+01  0.12700000000E+01 0.  1.
<mgrwt>
<rscale>  0 0.28118140E+01</rscale>
<asrwt>0</asrwt>
<pdfrwt beam="1">0</pdfrwt>
<pdfrwt beam="2">0</pdfrwt>
<totfact> 0.20289812E+12</totfact>
</mgrwt>
</event>
<event>
 4    1  0.1733759E+006  0.2370071E+01  0.7546771E-02  0.2768739E+00
         22   -1    0    0    0    0  0.00000000000E+00  0.00000000000E+00  0.20424962288E+00  0.20424962288E+00  0.00000000000E+00 0.  1.
         22   -1    0    0    0    0 -0.00000000000E+00 -0.00000000000E+00 -0.28992978247E+02  0.28992978247E+02  0.00000000000E+00 0.  1.
          4    1    1    2  501    0 -0.13464802089E+01  0.14803128854E+01 -0.11083602695E+02  0.11334173278E+02  0.12700000000E+01 0.  1.
         -4    1    1    2    0  501  0.13464802089E+01 -0.14803128854E+01 -0.17705125929E+02  0.17863054592E+02  0.12700000000E+01 0.  1.
<mgrwt>
<rscale>  0 0.23700707E+01</rscale>
<asrwt>0</asrwt>
<pdfrwt beam="1">0</pdfrwt>
<pdfrwt beam="2">0</pdfrwt>
<totfact> 0.25466147E+12</totfact>
</mgrwt>
</event>
<event>
 4    1  0.1733759E+006  0.2438269E+01  0.7546771E-02  0.2736387E+00
         22   -1    0    0    0    0  0.00000000000E+00  0.00000000000E+00  0.11366199294E+01  0.11366199294E+01  0.00000000000E+00 0.  1.
         22   -1    0    0    0    0 -0.00000000000E+00 -0.00000000000E+00 -0.80685510633E+01  0.80685510633E+01  0.00000000000E+00 0. -1.
          4    1    1    2  501    0  0.33199915992E+00  0.20547583810E+01 -0.61956335259E+01  0.66581551674E+01  0.12700000000E+01 0.  1.
         -4    1    1    2    0  501 -0.33199915992E+00 -0.20547583810E+01 -0.73629760811E+00  0.25470158253E+01  0.12700000000E+01 0.  1.
<mgrwt>
<rscale>  0 0.24382689E+01</rscale>
<asrwt>0</asrwt>
<pdfrwt beam="1">0</pdfrwt>
<pdfrwt beam="2">0</pdfrwt>
<totfact> 0.17756751E+12</totfact>
</mgrwt>
</event>
<event>
 4    1  0.1733759E+006  0.2311353E+01  0.7546771E-02  0.2798032E+00
         22   -1    0    0    0    0  0.00000000000E+00  0.00000000000E+00  0.19957788462E+00  0.19957788462E+00  0.00000000000E+00 0. -1.
         22   -1    0    0    0    0 -0.00000000000E+00 -0.00000000000E+00 -0.34446130423E+02  0.34446130423E+02  0.00000000000E+00 0.  1.
          4    1    1    2  501    0 -0.19290115134E+01 -0.91473967016E-01 -0.25301699643E+02  0.25407053307E+02  0.12700000000E+01 0.  1.
         -4    1    1    2    0  501  0.19290115134E+01  0.91473967016E-01 -0.89448528951E+01  0.92386550007E+01  0.12700000000E+01 0. -1.
<mgrwt>
<rscale>  0 0.23113530E+01</rscale>
<asrwt>0</asrwt>
<pdfrwt beam="1">0</pdfrwt>
<pdfrwt beam="2">0</pdfrwt>
<totfact> 0.20964447E+12</totfact>
</mgrwt>
</event>
<event>
 4    1  0.1733759E+006  0.3602318E+01  0.7546771E-02  0.2360435E+00
         22   -1    0    0    0    0  0.00000000000E+00  0.00000000000E+00  0.19421960539E+00  0.19421960539E+00  0.00000000000E+00 0. -1.
         22   -1    0    0    0    0 -0.00000000000E+00 -0.00000000000E+00 -0.67866351099E+02  0.67866351099E+02  0.00000000000E+00 0. -1.
          4    1    1    2  501    0  0.26342775067E+00  0.33607142214E+01 -0.29599572591E+02  0.29817970954E+02  0.12700000000E+01 0. -1.
         -4    1    1    2    0  501 -0.26342775067E+00 -0.33607142214E+01 -0.38072558903E+02  0.38242599750E+02  0.12700000000E+01 0. -1.
<mgrwt>
<rscale>  0 0.36023179E+01</rscale>
<asrwt>0</asrwt>
<pdfrwt beam="1">0</pdfrwt>
<pdfrwt beam="2">0</pdfrwt>
<totfact> 0.88491126E+11</totfact>
</mgrwt>
</event>
<event>
 4    1  0.1733759E+006  0.2246970E+01  0.7546771E-02  0.2831817E+00
         22   -1    0    0    0    0  0.00000000000E+00  0.00000000000E+00  0.31458788140E+02  0.31458788140E+02  0.00000000000E+00 0. -1.
         22   -1    0    0    0    0 -0.00000000000E+00 -0.00000000000E+00 -0.24730032140E+00  0.24730032140E+00  0.00000000000E+00 0.  1.
          4    1    1    2  501    0  0.10700675788E+01  0.15135822901E+01  0.62132345899E+01  0.66070538095E+01  0.12700000000E+01 0.  1.
         -4    1    1    2    0  501 -0.10700675788E+01 -0.15135822901E+01  0.24998253228E+02  0.25099034652E+02  0.12700000000E+01 0. -1.
<mgrwt>
<rscale>  0 0.22469704E+01</rscale>
<asrwt>0</asrwt>
<pdfrwt beam="1">0</pdfrwt>
<pdfrwt beam="2">0</pdfrwt>
<totfact> 0.18533861E+12</totfact>
</mgrwt>
</event>
<event>
 4    1  0.1733759E+006  0.2177699E+01  0.7546771E-02  0.2870292E+00
         22   -1    0    0    0    0  0.00000000000E+00  0.00000000000E+00  0.34172440585E+00  0.34172440585E+00  0.00000000000E+00 0.  1.
         22   -1    0    0    0    0 -0.00000000000E+00 -0.00000000000E+00 -0.15660081006E+02  0.15660081006E+02  0.00000000000E+00 0.  1.
          4    1    1    2  501    0 -0.16095067732E+01  0.73413808403E+00 -0.10358374285E+02  0.10584814056E+02  0.12700000000E+01 0.  1.
         -4    1    1    2    0  501  0.16095067732E+01 -0.73413808403E+00 -0.49599823155E+01  0.54169913559E+01  0.12700000000E+01 0.  1.
<mgrwt>
<rscale>  0 0.21776985E+01</rscale>
<asrwt>0</asrwt>
<pdfrwt beam="1">0</pdfrwt>
<pdfrwt beam="2">0</pdfrwt>
<totfact> 0.30937629E+12</totfact>
</mgrwt>
</event>
<event>
 4    1  0.1733759E+006  0.2313001E+01  0.7546771E-02  0.2797191E+00
         22   -1    0    0    0    0  0.00000000000E+00  0.00000000000E+00  0.52158799602E+01  0.52158799602E+01  0.00000000000E+00 0. -1.
         22   -1    0    0    0    0 -0.00000000000E+00 -0.00000000000E+00 -0.72781055317E+01  0.72781055317E+01  0.00000000000E+00 0. -1.
          4    1    1    2  501    0  0.34192749322E+00  0.19026710548E+01 -0.68212000238E+01  0.72026898669E+01  0.12700000000E+01 0. -1.
         -4    1    1    2    0  501 -0.34192749322E+00 -0.19026710548E+01  0.47589744524E+01  0.52912956251E+01  0.12700000000E+01 0. -1.
<mgrwt>
<rscale>  0 0.23130006E+01</rscale>
<asrwt>0</asrwt>
<pdfrwt beam="1">0</pdfrwt>
<pdfrwt beam="2">0</pdfrwt>
<totfact> 0.34142005E+11</totfact>
</mgrwt>
</event>
<event>
 4    1  0.1733759E+006  0.2461471E+01  0.7546771E-02  0.2725764E+00
         22   -1    0    0    0    0  0.00000000000E+00  0.00000000000E+00  0.56790586347E+01  0.56790586347E+01  0.00000000000E+00 0. -1.
         22   -1    0    0    0    0 -0.00000000000E+00 -0.00000000000E+00 -0.13745064442E+01  0.13745064442E+01  0.00000000000E+00 0.  1.
          4    1    1    2  501    0 -0.10470973224E+01 -0.18301713976E+01  0.48379480189E+00  0.25085648402E+01  0.12700000000E+01 0.  1.
         -4    1    1    2    0  501  0.10470973224E+01  0.18301713976E+01  0.38207573886E+01  0.45450002387E+01  0.12700000000E+01 0. -1.
<mgrwt>
<rscale>  0 0.24614711E+01</rscale>
<asrwt>0</asrwt>
<pdfrwt beam="1">0</pdfrwt>
<pdfrwt beam="2">0</pdfrwt>
<totfact> 0.21726221E+12</totfact>
</mgrwt>
</event>
<event>
 4    1  0.1733759E+006  0.2090998E+01  0.7546771E-02  0.2921898E+00
         22   -1    0    0    0    0  0.00000000000E+00  0.00000000000E+00  0.10179975930E+02  0.10179975930E+02  0.00000000000E+00 0.  1.
         22   -1    0    0    0    0 -0.00000000000E+00 -0.00000000000E+00 -0.44714733031E+00  0.44714733031E+00  0.00000000000E+00 0.  1.
          4    1    1    2  501    0 -0.16596191535E+01 -0.70970858600E-01  0.38107335084E+01  0.43467185864E+01  0.12700000000E+01 0.  1.
         -4    1    1    2    0  501  0.16596191535E+01  0.70970858600E-01  0.59220950915E+01  0.62804046740E+01  0.12700000000E+01 0.  1.
<mgrwt>
<rscale>  0 0.20909980E+01</rscale>
<asrwt>0</asrwt>
<pdfrwt beam="1">0</pdfrwt>
<pdfrwt beam="2">0</pdfrwt>
<totfact> 0.38693853E+12</totfact>
</mgrwt>
</event>
<event>
 4    1  0.1733759E+006  0.2292146E+01  0.7546771E-02  0.2807922E+00
         22   -1    0    0    0    0  0.00000000000E+00  0.00000000000E+00  0.16457112361E+00  0.16457112361E+00  0.00000000000E+00 0.  1.
         22   -1    0    0    0    0 -0.00000000000E+00 -0.00000000000E+00 -0.38522367444E+02  0.38522367444E+02  0.00000000000E+00 0. -1.
          4    1    1    2  501    0 -0.51737078028E+00 -0.18366705842E+01 -0.27183939377E+02  0.27280404899E+02  0.12700000000E+01 0. -1.
         -4    1    1    2    0  501  0.51737078028E+00  0.18366705842E+01 -0.11173856943E+02  0.11406533669E+02  0.12700000000E+01 0.  1.
<mgrwt>
<rscale>  0 0.22921456E+01</rscale>
<asrwt>0</asrwt>
<pdfrwt beam="1">0</pdfrwt>
<pdfrwt beam="2">0</pdfrwt>
<totfact> 0.22498886E+12</totfact>
</mgrwt>
</event>
<event>
 4    1  0.1733759E+006  0.2120892E+01  0.7546771E-02  0.2903644E+00
         22   -1    0    0    0    0  0.00000000000E+00  0.00000000000E+00  0.97242713549E+00  0.97242713549E+00  0.00000000000E+00 0. -1.
         22   -1    0    0    0    0 -0.00000000000E+00 -0.00000000000E+00 -0.74129676550E+01  0.74129676550E+01  0.00000000000E+00 0.  1.
          4    1    1    2  501    0  0.16981268162E+01 -0.40600237902E-01 -0.57911671057E+01  0.61673170430E+01  0.12700000000E+01 0.  1.
         -4    1    1    2    0  501 -0.16981268162E+01  0.40600237902E-01 -0.64937341379E+00  0.22180777474E+01  0.12700000000E+01 0. -1.
<mgrwt>
<rscale>  0 0.21208920E+01</rscale>
<asrwt>0</asrwt>
<pdfrwt beam="1">0</pdfrwt>
<pdfrwt beam="2">0</pdfrwt>
<totfact> 0.23493801E+12</totfact>
</mgrwt>
</event>
<event>
 4    1  0.1733759E+006  0.2485312E+01  0.7546771E-02  0.2715041E+00
         22   -1    0    0    0    0  0.00000000000E+00  0.00000000000E+00  0.21518855029E+00  0.21518855029E+00  0.00000000000E+00 0.  1.
         22   -1    0    0    0    0 -0.00000000000E+00 -0.00000000000E+00 -0.42930645702E+02  0.42930645702E+02  0.00000000000E+00 0.  1.
          4    1    1    2  501    0  0.21340662892E+01 -0.98160428122E-01 -0.33776432220E+02  0.33867744948E+02  0.12700000000E+01 0.  1.
         -4    1    1    2    0  501 -0.21340662892E+01  0.98160428122E-01 -0.89390249316E+01  0.92780893035E+01  0.12700000000E+01 0.  1.
<mgrwt>
<rscale>  0 0.24853117E+01</rscale>
<asrwt>0</asrwt>
<pdfrwt beam="1">0</pdfrwt>
<pdfrwt beam="2">0</pdfrwt>
<totfact> 0.14494477E+12</totfact>
</mgrwt>
</event>
<event>
 4    1  0.1733759E+006  0.2751445E+01  0.7546771E-02  0.2607086E+00
         22   -1    0    0    0    0  0.00000000000E+00  0.00000000000E+00  0.36968288586E+01  0.36968288586E+01  0.00000000000E+00 0.  1.
         22   -1    0    0    0    0 -0.00000000000E+00 -0.00000000000E+00 -0.21455596958E+01  0.21455596958E+01  0.00000000000E+00 0.  1.
          4    1    1    2  501    0  0.23302247946E+01  0.72636057773E+00  0.15215634386E+00  0.27556485326E+01  0.12700000000E+01 0.  1.
         -4    1    1    2    0  501 -0.23302247946E+01 -0.72636057773E+00  0.13991128190E+01  0.30867400218E+01  0.12700000000E+01 0.  1.
<mgrwt>
<rscale>  0 0.27514446E+01</rscale>
<asrwt>0</asrwt>
<pdfrwt beam="1">0</pdfrwt>
<pdfrwt beam="2">0</pdfrwt>
<totfact> 0.21581292E+12</totfact>
</mgrwt>
</event>
<event>
 4    1  0.1733759E+006  0.2524483E+01  0.7546771E-02  0.2697834E+00
         22   -1    0    0    0    0  0.00000000000E+00  0.00000000000E+00  0.87756097865E+01  0.87756097865E+01  0.00000000000E+00 0. -1.
         22   -1    0    0    0    0 -0.00000000000E+00 -0.00000000000E+00 -0.75104946936E+00  0.75104946936E+00  0.00000000000E+00 0.  1.
          4    1    1    2  501    0 -0.16686751533E+01 -0.14055743970E+01  0.31461817408E+01  0.40337917273E+01  0.12700000000E+01 0.  1.
         -4    1    1    2    0  501  0.16686751533E+01  0.14055743970E+01  0.48783785763E+01  0.54928675286E+01  0.12700000000E+01 0. -1.
<mgrwt>
<rscale>  0 0.25244833E+01</rscale>
<asrwt>0</asrwt>
<pdfrwt beam="1">0</pdfrwt>
<pdfrwt beam="2">0</pdfrwt>
<totfact> 0.25744009E+12</totfact>
</mgrwt>
</event>
<event>
 4    1  0.1733759E+006  0.2161818E+01  0.7546771E-02  0.2879446E+00
         22   -1    0    0    0    0  0.00000000000E+00  0.00000000000E+00  0.76398263206E+01  0.76398263206E+01  0.00000000000E+00 0. -1.
         22   -1    0    0    0    0 -0.00000000000E+00 -0.00000000000E+00 -0.10095413249E+01  0.10095413249E+01  0.00000000000E+00 0.  1.
          4    1    1    2  501    0 -0.17164182520E+01  0.33832949393E+00  0.60036254900E+00  0.22436340282E+01  0.12700000000E+01 0.  1.
         -4    1    1    2    0  501  0.17164182520E+01 -0.33832949393E+00  0.60299224468E+01  0.64057336173E+01  0.12700000000E+01 0. -1.
<mgrwt>
<rscale>  0 0.21618183E+01</rscale>
<asrwt>0</asrwt>
<pdfrwt beam="1">0</pdfrwt>
<pdfrwt beam="2">0</pdfrwt>
<totfact> 0.21711418E+12</totfact>
</mgrwt>
</event>
<event>
 4    1  0.1733759E+006  0.2480856E+01  0.7546771E-02  0.2717031E+00
         22   -1    0    0    0    0  0.00000000000E+00  0.00000000000E+00  0.54168362579E+00  0.54168362579E+00  0.00000000000E+00 0.  1.
         22   -1    0    0    0    0 -0.00000000000E+00 -0.00000000000E+00 -0.14590322492E+02  0.14590322492E+02  0.00000000000E+00 0. -1.
          4    1    1    2  501    0  0.20149122941E+01  0.69417093500E+00 -0.10583238539E+02  0.10870123404E+02  0.12700000000E+01 0. -1.
         -4    1    1    2    0  501 -0.20149122941E+01 -0.69417093500E+00 -0.34654003271E+01  0.42618827139E+01  0.12700000000E+01 0.  1.
<mgrwt>
<rscale>  0 0.24808557E+01</rscale>
<asrwt>0</asrwt>
<pdfrwt beam="1">0</pdfrwt>
<pdfrwt beam="2">0</pdfrwt>
<totfact> 0.20085993E+12</totfact>
</mgrwt>
</event>
<event>
 4    1  0.1733759E+006  0.2025619E+01  0.7546771E-02  0.2963644E+00
         22   -1    0    0    0    0  0.00000000000E+00  0.00000000000E+00  0.18178901685E+01  0.18178901685E+01  0.00000000000E+00 0.  1.
         22   -1    0    0    0    0 -0.00000000000E+00 -0.00000000000E+00 -0.33226987828E+01  0.33226987828E+01  0.00000000000E+00 0.  1.
          4    1    1    2  501    0  0.13952699025E+00  0.15718666460E+01 -0.22079884712E+01  0.29963887636E+01  0.12700000000E+01 0.  1.
         -4    1    1    2    0  501 -0.13952699025E+00 -0.15718666460E+01  0.70317985685E+00  0.21442001877E+01  0.12700000000E+01 0.  1.
<mgrwt>
<rscale>  0 0.20256190E+01</rscale>
<asrwt>0</asrwt>
<pdfrwt beam="1">0</pdfrwt>
<pdfrwt beam="2">0</pdfrwt>
<totfact> 0.29625088E+12</totfact>
</mgrwt>
</event>
<event>
 4    1  0.1733759E+006  0.2590902E+01  0.7546771E-02  0.2669762E+00
         22   -1    0    0    0    0  0.00000000000E+00  0.00000000000E+00  0.20993264162E+01  0.20993264162E+01  0.00000000000E+00 0.  1.
         22   -1    0    0    0    0 -0.00000000000E+00 -0.00000000000E+00 -0.33967670434E+02  0.33967670434E+02  0.00000000000E+00 0. -1.
          4    1    1    2  501    0  0.27874240779E-01  0.22581181521E+01 -0.33097893390E+02  0.33199146396E+02  0.12700000000E+01 0. -1.
         -4    1    1    2    0  501 -0.27874240779E-01 -0.22581181521E+01  0.12295493731E+01  0.28678504534E+01  0.12700000000E+01 0.  1.
<mgrwt>
<rscale>  0 0.25909023E+01</rscale>
<asrwt>0</asrwt>
<pdfrwt beam="1">0</pdfrwt>
<pdfrwt beam="2">0</pdfrwt>
<totfact> 0.14775751E+11</totfact>
</mgrwt>
</event>
<event>
 4    1  0.1733759E+006  0.2084269E+01  0.7546771E-02  0.2926077E+00
         22   -1    0    0    0    0  0.00000000000E+00  0.00000000000E+00  0.35377769165E+01  0.35377769165E+01  0.00000000000E+00 0.  1.
         22   -1    0    0    0    0 -0.00000000000E+00 -0.00000000000E+00 -0.15620709232E+02  0.15620709232E+02  0.00000000000E+00 0.  1.
          4    1    1    2  501    0  0.15764712698E+01  0.49599766074E+00 -0.15236493203E+02  0.15378390699E+02  0.12700000000E+01 0.  1.
         -4    1    1    2    0  501 -0.15764712698E+01 -0.49599766074E+00  0.31535608873E+01  0.37800954504E+01  0.12700000000E+01 0.  1.
<mgrwt>
<rscale>  0 0.20842685E+01</rscale>
<asrwt>0</asrwt>
<pdfrwt beam="1">0</pdfrwt>
<pdfrwt beam="2">0</pdfrwt>
<totfact> 0.21345230E+11</totfact>
</mgrwt>
</event>
<event>
 4    1  0.1733759E+006  0.2148644E+01  0.7546771E-02  0.2887138E+00
         22   -1    0    0    0    0  0.00000000000E+00  0.00000000000E+00  0.28362774844E+01  0.28362774844E+01  0.00000000000E+00 0. -1.
         22   -1    0    0    0    0 -0.00000000000E+00 -0.00000000000E+00 -0.16946797906E+01  0.16946797906E+01  0.00000000000E+00 0.  1.
          4    1    1    2  501    0  0.41755508008E-01 -0.17326356002E+01  0.10211160612E+01  0.23789383464E+01  0.12700000000E+01 0. -1.
         -4    1    1    2    0  501 -0.41755508008E-01  0.17326356002E+01  0.12048163261E+00  0.21520189286E+01  0.12700000000E+01 0.  1.
<mgrwt>
<rscale>  0 0.21486437E+01</rscale>
<asrwt>0</asrwt>
<pdfrwt beam="1">0</pdfrwt>
<pdfrwt beam="2">0</pdfrwt>
<totfact> 0.38655201E+12</totfact>
</mgrwt>
</event>
<event>
 4    1  0.1733759E+006  0.2636670E+01  0.7546771E-02  0.2651180E+00
         22   -1    0    0    0    0  0.00000000000E+00  0.00000000000E+00  0.33552362872E+01  0.33552362872E+01  0.00000000000E+00 0. -1.
         22   -1    0    0    0    0 -0.00000000000E+00 -0.00000000000E+00 -0.23223702166E+01  0.23223702166E+01  0.00000000000E+00 0. -1.
          4    1    1    2  501    0  0.14945571852E+01  0.17622220512E+01 -0.41567563521E+00  0.26692347164E+01  0.12700000000E+01 0. -1.
         -4    1    1    2    0  501 -0.14945571852E+01 -0.17622220512E+01  0.14485417058E+01  0.30083717874E+01  0.12700000000E+01 0. -1.
<mgrwt>
<rscale>  0 0.26366698E+01</rscale>
<asrwt>0</asrwt>
<pdfrwt beam="1">0</pdfrwt>
<pdfrwt beam="2">0</pdfrwt>
<totfact> 0.22057623E+12</totfact>
</mgrwt>
</event>
<event>
 4    1  0.1733759E+006  0.2393333E+01  0.7546771E-02  0.2757510E+00
         22   -1    0    0    0    0  0.00000000000E+00  0.00000000000E+00  0.31713206558E+02  0.31713206558E+02  0.00000000000E+00 0. -1.
         22   -1    0    0    0    0 -0.00000000000E+00 -0.00000000000E+00 -0.18062033269E+00  0.18062033269E+00  0.00000000000E+00 0.  1.
          4    1    1    2  501    0 -0.19926008758E+01 -0.38037121362E+00  0.15786731305E+02  0.15967120147E+02  0.12700000000E+01 0.  1.
         -4    1    1    2    0  501  0.19926008758E+01  0.38037121362E+00  0.15745854921E+02  0.15926706744E+02  0.12700000000E+01 0. -1.
<mgrwt>
<rscale>  0 0.23933325E+01</rscale>
<asrwt>0</asrwt>
<pdfrwt beam="1">0</pdfrwt>
<pdfrwt beam="2">0</pdfrwt>
<totfact> 0.26051592E+12</totfact>
</mgrwt>
</event>
<event>
 4    1  0.1733759E+006  0.3304459E+01  0.7546771E-02  0.2433923E+00
         22   -1    0    0    0    0  0.00000000000E+00  0.00000000000E+00  0.11805744276E+02  0.11805744276E+02  0.00000000000E+00 0. -1.
         22   -1    0    0    0    0 -0.00000000000E+00 -0.00000000000E+00 -0.93743264245E+00  0.93743264245E+00  0.00000000000E+00 0.  1.
          4    1    1    2  501    0 -0.43802207225E-01 -0.30503490649E+01  0.61700848848E+01  0.69992424974E+01  0.12700000000E+01 0. -1.
         -4    1    1    2    0  501  0.43802207225E-01  0.30503490649E+01  0.46982267486E+01  0.57439344210E+01  0.12700000000E+01 0.  1.
<mgrwt>
<rscale>  0 0.33044588E+01</rscale>
<asrwt>0</asrwt>
<pdfrwt beam="1">0</pdfrwt>
<pdfrwt beam="2">0</pdfrwt>
<totfact> 0.13963232E+12</totfact>
</mgrwt>
</event>
<event>
 4    1  0.1733759E+006  0.2104302E+01  0.7546771E-02  0.2913712E+00
         22   -1    0    0    0    0  0.00000000000E+00  0.00000000000E+00  0.76814758906E+01  0.76814758906E+01  0.00000000000E+00 0.  1.
         22   -1    0    0    0    0 -0.00000000000E+00 -0.00000000000E+00 -0.25070822720E+01  0.25070822720E+01  0.00000000000E+00 0.  1.
          4    1    1    2  501    0  0.28342548363E+00 -0.16537406779E+01 -0.18832068050E+01  0.28239256550E+01  0.12700000000E+01 0.  1.
         -4    1    1    2    0  501 -0.28342548363E+00  0.16537406779E+01  0.70576004235E+01  0.73646325077E+01  0.12700000000E+01 0.  1.
<mgrwt>
<rscale>  0 0.21043023E+01</rscale>
<asrwt>0</asrwt>
<pdfrwt beam="1">0</pdfrwt>
<pdfrwt beam="2">0</pdfrwt>
<totfact> 0.75625703E+11</totfact>
</mgrwt>
</event>
<event>
 4    1  0.1733759E+006  0.3655454E+01  0.7546771E-02  0.2348427E+00
         22   -1    0    0    0    0  0.00000000000E+00  0.00000000000E+00  0.21667285421E+01  0.21667285421E+01  0.00000000000E+00 0.  1.
         22   -1    0    0    0    0 -0.00000000000E+00 -0.00000000000E+00 -0.73254935994E+01  0.73254935994E+01  0.00000000000E+00 0. -1.
          4    1    1    2  501    0 -0.29734759105E+01  0.17052525892E+01 -0.44667435597E+01  0.57718405567E+01  0.12700000000E+01 0. -1.
         -4    1    1    2    0  501  0.29734759105E+01 -0.17052525892E+01 -0.69202149766E+00  0.37203815848E+01  0.12700000000E+01 0.  1.
<mgrwt>
<rscale>  0 0.36554542E+01</rscale>
<asrwt>0</asrwt>
<pdfrwt beam="1">0</pdfrwt>
<pdfrwt beam="2">0</pdfrwt>
<totfact> 0.94842774E+11</totfact>
</mgrwt>
</event>
<event>
 4    1  0.1733759E+006  0.2104720E+01  0.7546771E-02  0.2913457E+00
         22   -1    0    0    0    0  0.00000000000E+00  0.00000000000E+00  0.21483856925E+01  0.21483856925E+01  0.00000000000E+00 0. -1.
         22   -1    0    0    0    0 -0.00000000000E+00 -0.00000000000E+00 -0.21009731556E+01  0.21009731556E+01  0.00000000000E+00 0. -1.
          4    1    1    2  501    0 -0.10963225621E+01  0.12708352183E+01 -0.26588965068E+00  0.21214482361E+01  0.12700000000E+01 0. -1.
         -4    1    1    2    0  501  0.10963225621E+01 -0.12708352183E+01  0.31330218759E+00  0.21279106120E+01  0.12700000000E+01 0. -1.
<mgrwt>
<rscale>  0 0.21047198E+01</rscale>
<asrwt>0</asrwt>
<pdfrwt beam="1">0</pdfrwt>
<pdfrwt beam="2">0</pdfrwt>
<totfact> 0.41647842E+12</totfact>
</mgrwt>
</event>
<event>
 4    1  0.1733759E+006  0.2014355E+01  0.7546771E-02  0.2971103E+00
         22   -1    0    0    0    0  0.00000000000E+00  0.00000000000E+00  0.61918790877E+00  0.61918790877E+00  0.00000000000E+00 0.  1.
         22   -1    0    0    0    0 -0.00000000000E+00 -0.00000000000E+00 -0.68715041529E+01  0.68715041529E+01  0.00000000000E+00 0. -1.
          4    1    1    2  501    0 -0.13199388819E+01  0.83814510442E+00 -0.39323292194E+01  0.44182393504E+01  0.12700000000E+01 0.  1.
         -4    1    1    2    0  501  0.13199388819E+01 -0.83814510442E+00 -0.23199870248E+01  0.30724527113E+01  0.12700000000E+01 0. -1.
<mgrwt>
<rscale>  0 0.20143550E+01</rscale>
<asrwt>0</asrwt>
<pdfrwt beam="1">0</pdfrwt>
<pdfrwt beam="2">0</pdfrwt>
<totfact> 0.42980401E+12</totfact>
</mgrwt>
</event>
<event>
 4    1  0.1733759E+006  0.2011565E+01  0.7546771E-02  0.2972964E+00
         22   -1    0    0    0    0  0.00000000000E+00  0.00000000000E+00  0.60949506778E+01  0.60949506778E+01  0.00000000000E+00 0. -1.
         22   -1    0    0    0    0 -0.00000000000E+00 -0.00000000000E+00 -0.15928690989E+01  0.15928690989E+01  0.00000000000E+00 0.  1.
          4    1    1    2  501    0 -0.15074813726E+01 -0.40123821447E+00 -0.68448253737E+00  0.21248314139E+01  0.12700000000E+01 0.  1.
         -4    1    1    2    0  501  0.15074813726E+01  0.40123821447E+00  0.51865641163E+01  0.55629883629E+01  0.12700000000E+01 0. -1.
<mgrwt>
<rscale>  0 0.20115646E+01</rscale>
<asrwt>0</asrwt>
<pdfrwt beam="1">0</pdfrwt>
<pdfrwt beam="2">0</pdfrwt>
<totfact> 0.16856572E+12</totfact>
</mgrwt>
</event>
<event>
 4    1  0.1733759E+006  0.2517732E+01  0.7546771E-02  0.2700764E+00
         22   -1    0    0    0    0  0.00000000000E+00  0.00000000000E+00  0.12028447324E+02  0.12028447324E+02  0.00000000000E+00 0. -1.
         22   -1    0    0    0    0 -0.00000000000E+00 -0.00000000000E+00 -0.63777090579E+00  0.63777090579E+00  0.00000000000E+00 0. -1.
          4    1    1    2  501    0  0.20931219256E+01 -0.58729667923E+00  0.30559704354E+01  0.39595368526E+01  0.12700000000E+01 0. -1.
         -4    1    1    2    0  501 -0.20931219256E+01  0.58729667923E+00  0.83347059829E+01  0.87066813773E+01  0.12700000000E+01 0. -1.
<mgrwt>
<rscale>  0 0.25177325E+01</rscale>
<asrwt>0</asrwt>
<pdfrwt beam="1">0</pdfrwt>
<pdfrwt beam="2">0</pdfrwt>
<totfact> 0.21148125E+12</totfact>
</mgrwt>
</event>
<event>
 4    1  0.1733759E+006  0.4847121E+01  0.7546771E-02  0.2141706E+00
         22   -1    0    0    0    0  0.00000000000E+00  0.00000000000E+00  0.19966695293E+01  0.19966695293E+01  0.00000000000E+00 0.  1.
         22   -1    0    0    0    0 -0.00000000000E+00 -0.00000000000E+00 -0.13266874733E+02  0.13266874733E+02  0.00000000000E+00 0. -1.
          4    1    1    2  501    0 -0.40336351002E+00  0.46603631525E+01 -0.82012688080E+01  0.95265627010E+01  0.12700000000E+01 0. -1.
         -4    1    1    2    0  501  0.40336351002E+00 -0.46603631525E+01 -0.30689363957E+01  0.57369815613E+01  0.12700000000E+01 0.  1.
<mgrwt>
<rscale>  0 0.48471215E+01</rscale>
<asrwt>0</asrwt>
<pdfrwt beam="1">0</pdfrwt>
<pdfrwt beam="2">0</pdfrwt>
<totfact> 0.50803298E+11</totfact>
</mgrwt>
</event>
<event>
 4    1  0.1733759E+006  0.2585914E+01  0.7546771E-02  0.2671824E+00
         22   -1    0    0    0    0  0.00000000000E+00  0.00000000000E+00  0.11021721742E+01  0.11021721742E+01  0.00000000000E+00 0.  1.
         22   -1    0    0    0    0 -0.00000000000E+00 -0.00000000000E+00 -0.61504972610E+01  0.61504972610E+01  0.00000000000E+00 0. -1.
          4    1    1    2  501    0 -0.81912437656E+00 -0.20983528370E+01 -0.21018035119E+01  0.33323456267E+01  0.12700000000E+01 0.  1.
         -4    1    1    2    0  501  0.81912437656E+00  0.20983528370E+01 -0.29465215749E+01  0.39203238086E+01  0.12700000000E+01 0. -1.
<mgrwt>
<rscale>  0 0.25859136E+01</rscale>
<asrwt>0</asrwt>
<pdfrwt beam="1">0</pdfrwt>
<pdfrwt beam="2">0</pdfrwt>
<totfact> 0.25450996E+12</totfact>
</mgrwt>
</event>
<event>
 4    1  0.1733759E+006  0.2308584E+01  0.7546771E-02  0.2799448E+00
         22   -1    0    0    0    0  0.00000000000E+00  0.00000000000E+00  0.18271845737E+01  0.18271845737E+01  0.00000000000E+00 0. -1.
         22   -1    0    0    0    0 -0.00000000000E+00 -0.00000000000E+00 -0.29279966979E+01  0.29279966979E+01  0.00000000000E+00 0.  1.
          4    1    1    2  501    0 -0.15832177504E+01 -0.11000375580E+01 -0.40348381063E+00  0.23435785158E+01  0.12700000000E+01 0. -1.
         -4    1    1    2    0  501  0.15832177504E+01  0.11000375580E+01 -0.69732831358E+00  0.24116027557E+01  0.12700000000E+01 0.  1.
<mgrwt>
<rscale>  0 0.23085842E+01</rscale>
<asrwt>0</asrwt>
<pdfrwt beam="1">0</pdfrwt>
<pdfrwt beam="2">0</pdfrwt>
<totfact> 0.34146668E+12</totfact>
</mgrwt>
</event>
<event>
 4    1  0.1733759E+006  0.3883897E+01  0.7546771E-02  0.2300053E+00
         22   -1    0    0    0    0  0.00000000000E+00  0.00000000000E+00  0.33458109527E+02  0.33458109527E+02  0.00000000000E+00 0.  1.
         22   -1    0    0    0    0 -0.00000000000E+00 -0.00000000000E+00 -0.55349678618E+00  0.55349678618E+00  0.00000000000E+00 0.  1.
          4    1    1    2  501    0  0.36698798416E+01  0.61123742344E-01  0.91289843086E+01  0.99208370953E+01  0.12700000000E+01 0.  1.
         -4    1    1    2    0  501 -0.36698798416E+01 -0.61123742344E-01  0.23775628432E+02  0.24090769218E+02  0.12700000000E+01 0.  1.
<mgrwt>
<rscale>  0 0.38838968E+01</rscale>
<asrwt>0</asrwt>
<pdfrwt beam="1">0</pdfrwt>
<pdfrwt beam="2">0</pdfrwt>
<totfact> 0.69227689E+11</totfact>
</mgrwt>
</event>
<event>
 4    1  0.1733759E+006  0.4384810E+01  0.7546771E-02  0.2209265E+00
         22   -1    0    0    0    0  0.00000000000E+00  0.00000000000E+00  0.17102004833E+01  0.17102004833E+01  0.00000000000E+00 0.  1.
         22   -1    0    0    0    0 -0.00000000000E+00 -0.00000000000E+00 -0.12451332867E+02  0.12451332867E+02  0.00000000000E+00 0. -1.
          4    1    1    2  501    0  0.40446890238E+01  0.11198870903E+01 -0.75770188748E+01  0.87543001676E+01  0.12700000000E+01 0.  1.
         -4    1    1    2    0  501 -0.40446890238E+01 -0.11198870903E+01 -0.31641135085E+01  0.54072331824E+01  0.12700000000E+01 0.  1.
<mgrwt>
<rscale>  0 0.43848097E+01</rscale>
<asrwt>0</asrwt>
<pdfrwt beam="1">0</pdfrwt>
<pdfrwt beam="2">0</pdfrwt>
<totfact> 0.65659780E+11</totfact>
</mgrwt>
</event>
<event>
 4    1  0.1733759E+006  0.2431720E+01  0.7546771E-02  0.2739420E+00
         22   -1    0    0    0    0  0.00000000000E+00  0.00000000000E+00  0.12215249895E+01  0.12215249895E+01  0.00000000000E+00 0.  1.
         22   -1    0    0    0    0 -0.00000000000E+00 -0.00000000000E+00 -0.50646453687E+01  0.50646453687E+01  0.00000000000E+00 0. -1.
          4    1    1    2  501    0 -0.41133983050E+00  0.20325261165E+01 -0.25822118369E+01  0.35469819341E+01  0.12700000000E+01 0. -1.
         -4    1    1    2    0  501  0.41133983050E+00 -0.20325261165E+01 -0.12609085423E+01  0.27391884240E+01  0.12700000000E+01 0.  1.
<mgrwt>
<rscale>  0 0.24317201E+01</rscale>
<asrwt>0</asrwt>
<pdfrwt beam="1">0</pdfrwt>
<pdfrwt beam="2">0</pdfrwt>
<totfact> 0.28495559E+12</totfact>
</mgrwt>
</event>
<event>
 4    1  0.1733759E+006  0.2542170E+01  0.7546771E-02  0.2690226E+00
         22   -1    0    0    0    0  0.00000000000E+00  0.00000000000E+00  0.86304831810E+01  0.86304831810E+01  0.00000000000E+00 0. -1.
         22   -1    0    0    0    0 -0.00000000000E+00 -0.00000000000E+00 -0.75868792147E+00  0.75868792147E+00  0.00000000000E+00 0.  1.
          4    1    1    2  501    0 -0.12685096882E+01  0.18001700343E+01  0.34003420820E+01  0.42455806736E+01  0.12700000000E+01 0. -1.
         -4    1    1    2    0  501  0.12685096882E+01 -0.18001700343E+01  0.44714531775E+01  0.51435904289E+01  0.12700000000E+01 0. -1.
<mgrwt>
<rscale>  0 0.25421701E+01</rscale>
<asrwt>0</asrwt>
<pdfrwt beam="1">0</pdfrwt>
<pdfrwt beam="2">0</pdfrwt>
<totfact> 0.25966193E+12</totfact>
</mgrwt>
</event>
<event>
 4    1  0.1733759E+006  0.2228923E+01  0.7546771E-02  0.2841620E+00
         22   -1    0    0    0    0  0.00000000000E+00  0.00000000000E+00  0.12372402203E+01  0.12372402203E+01  0.00000000000E+00 0.  1.
         22   -1    0    0    0    0 -0.00000000000E+00 -0.00000000000E+00 -0.40183015497E+01  0.40183015497E+01  0.00000000000E+00 0.  1.
          4    1    1    2  501    0  0.10022866742E+01 -0.15331735019E+01 -0.14603003103E+01  0.26646907064E+01  0.12700000000E+01 0.  1.
         -4    1    1    2    0  501 -0.10022866742E+01  0.15331735019E+01 -0.13207610192E+01  0.25908510636E+01  0.12700000000E+01 0.  1.
<mgrwt>
<rscale>  0 0.22289234E+01</rscale>
<asrwt>0</asrwt>
<pdfrwt beam="1">0</pdfrwt>
<pdfrwt beam="2">0</pdfrwt>
<totfact> 0.36902949E+12</totfact>
</mgrwt>
</event>
<event>
 4    1  0.1733759E+006  0.2138148E+01  0.7546771E-02  0.2893332E+00
         22   -1    0    0    0    0  0.00000000000E+00  0.00000000000E+00  0.11873530755E+01  0.11873530755E+01  0.00000000000E+00 0. -1.
         22   -1    0    0    0    0 -0.00000000000E+00 -0.00000000000E+00 -0.79486556254E+01  0.79486556254E+01  0.00000000000E+00 0.  1.
          4    1    1    2  501    0  0.14852051537E+01 -0.86772308977E+00 -0.66607275701E+01  0.69954963707E+01  0.12700000000E+01 0.  1.
         -4    1    1    2    0  501 -0.14852051537E+01  0.86772308977E+00 -0.10057497981E+00  0.21405123302E+01  0.12700000000E+01 0. -1.
<mgrwt>
<rscale>  0 0.21381482E+01</rscale>
<asrwt>0</asrwt>
<pdfrwt beam="1">0</pdfrwt>
<pdfrwt beam="2">0</pdfrwt>
<totfact> 0.17196436E+12</totfact>
</mgrwt>
</event>
<event>
 4    1  0.1733759E+006  0.3000250E+01  0.7546771E-02  0.2522101E+00
         22   -1    0    0    0    0  0.00000000000E+00  0.00000000000E+00  0.77885293070E+00  0.77885293070E+00  0.00000000000E+00 0.  1.
         22   -1    0    0    0    0 -0.00000000000E+00 -0.00000000000E+00 -0.11775144290E+02  0.11775144290E+02  0.00000000000E+00 0. -1.
          4    1    1    2  501    0 -0.13459610293E+01 -0.23615649318E+01 -0.46445321219E+01  0.55293018231E+01  0.12700000000E+01 0.  1.
         -4    1    1    2    0  501  0.13459610293E+01  0.23615649318E+01 -0.63517592377E+01  0.70246953979E+01  0.12700000000E+01 0. -1.
<mgrwt>
<rscale>  0 0.30002500E+01</rscale>
<asrwt>0</asrwt>
<pdfrwt beam="1">0</pdfrwt>
<pdfrwt beam="2">0</pdfrwt>
<totfact> 0.17298903E+12</totfact>
</mgrwt>
</event>
<event>
 4    1  0.1733759E+006  0.2375335E+01  0.7546771E-02  0.2766180E+00
         22   -1    0    0    0    0  0.00000000000E+00  0.00000000000E+00  0.74761719258E+01  0.74761719258E+01  0.00000000000E+00 0. -1.
         22   -1    0    0    0    0 -0.00000000000E+00 -0.00000000000E+00 -0.90783443785E+00  0.90783443785E+00  0.00000000000E+00 0.  1.
          4    1    1    2  501    0  0.79999179212E+00 -0.18410136471E+01  0.15624429975E+01  0.28431402070E+01  0.12700000000E+01 0. -1.
         -4    1    1    2    0  501 -0.79999179212E+00  0.18410136471E+01  0.50058944905E+01  0.55408661566E+01  0.12700000000E+01 0.  1.
<mgrwt>
<rscale>  0 0.23753354E+01</rscale>
<asrwt>0</asrwt>
<pdfrwt beam="1">0</pdfrwt>
<pdfrwt beam="2">0</pdfrwt>
<totfact> 0.25153877E+12</totfact>
</mgrwt>
</event>
<event>
 4    1  0.1733759E+006  0.2983760E+01  0.7546771E-02  0.2527337E+00
         22   -1    0    0    0    0  0.00000000000E+00  0.00000000000E+00  0.22253969106E+01  0.22253969106E+01  0.00000000000E+00 0.  1.
         22   -1    0    0    0    0 -0.00000000000E+00 -0.00000000000E+00 -0.40806731058E+01  0.40806731058E+01  0.00000000000E+00 0. -1.
          4    1    1    2  501    0  0.17097901116E+01  0.20896269133E+01 -0.13694405011E+01  0.32830154049E+01  0.12700000000E+01 0. -1.
         -4    1    1    2    0  501 -0.17097901116E+01 -0.20896269133E+01 -0.48583569405E+00  0.30230546115E+01  0.12700000000E+01 0.  1.
<mgrwt>
<rscale>  0 0.29837599E+01</rscale>
<asrwt>0</asrwt>
<pdfrwt beam="1">0</pdfrwt>
<pdfrwt beam="2">0</pdfrwt>
<totfact> 0.18417627E+12</totfact>
</mgrwt>
</event>
<event>
 4    1  0.1733759E+006  0.2252621E+01  0.7546771E-02  0.2828777E+00
         22   -1    0    0    0    0  0.00000000000E+00  0.00000000000E+00  0.12348749570E+02  0.12348749570E+02  0.00000000000E+00 0.  1.
         22   -1    0    0    0    0 -0.00000000000E+00 -0.00000000000E+00 -0.14881143711E+01  0.14881143711E+01  0.00000000000E+00 0. -1.
          4    1    1    2  501    0  0.13253761479E+01 -0.13056721583E+01 -0.45591358836E+00  0.22982947849E+01  0.12700000000E+01 0. -1.
         -4    1    1    2    0  501 -0.13253761479E+01  0.13056721583E+01  0.11316548787E+02  0.11538569156E+02  0.12700000000E+01 0.  1.
<mgrwt>
<rscale>  0 0.22526211E+01</rscale>
<asrwt>0</asrwt>
<pdfrwt beam="1">0</pdfrwt>
<pdfrwt beam="2">0</pdfrwt>
<totfact> 0.77849208E+11</totfact>
</mgrwt>
</event>
<event>
 4    1  0.1733759E+006  0.2108434E+01  0.7546771E-02  0.2911190E+00
         22   -1    0    0    0    0  0.00000000000E+00  0.00000000000E+00  0.16400816236E+02  0.16400816236E+02  0.00000000000E+00 0. -1.
         22   -1    0    0    0    0 -0.00000000000E+00 -0.00000000000E+00 -0.36192842271E+01  0.36192842271E+01  0.00000000000E+00 0. -1.
          4    1    1    2  501    0 -0.13557256995E+01 -0.99729669071E+00 -0.32371573307E+01  0.38632473963E+01  0.12700000000E+01 0. -1.
         -4    1    1    2    0  501  0.13557256995E+01  0.99729669071E+00  0.16018689340E+02  0.16156853067E+02  0.12700000000E+01 0. -1.
<mgrwt>
<rscale>  0 0.21084337E+01</rscale>
<asrwt>0</asrwt>
<pdfrwt beam="1">0</pdfrwt>
<pdfrwt beam="2">0</pdfrwt>
<totfact> 0.19569407E+11</totfact>
</mgrwt>
</event>
<event>
 4    1  0.1733759E+006  0.3337192E+01  0.7546771E-02  0.2425287E+00
         22   -1    0    0    0    0  0.00000000000E+00  0.00000000000E+00  0.55849473868E+01  0.55849473868E+01  0.00000000000E+00 0. -1.
         22   -1    0    0    0    0 -0.00000000000E+00 -0.00000000000E+00 -0.32608974889E+01  0.32608974889E+01  0.00000000000E+00 0.  1.
          4    1    1    2  501    0 -0.26503546923E+01  0.15810038951E+01 -0.15947233665E+01  0.36986478512E+01  0.12700000000E+01 0.  1.
         -4    1    1    2    0  501  0.26503546923E+01 -0.15810038951E+01  0.39187732644E+01  0.51471970245E+01  0.12700000000E+01 0. -1.
<mgrwt>
<rscale>  0 0.33371924E+01</rscale>
<asrwt>0</asrwt>
<pdfrwt beam="1">0</pdfrwt>
<pdfrwt beam="2">0</pdfrwt>
<totfact> 0.81419145E+11</totfact>
</mgrwt>
</event>
<event>
 4    1  0.1733759E+006  0.2084045E+01  0.7546771E-02  0.2926216E+00
         22   -1    0    0    0    0  0.00000000000E+00  0.00000000000E+00  0.71918105543E+01  0.71918105543E+01  0.00000000000E+00 0.  1.
         22   -1    0    0    0    0 -0.00000000000E+00 -0.00000000000E+00 -0.12072798606E+01  0.12072798606E+01  0.00000000000E+00 0. -1.
          4    1    1    2  501    0  0.13961261810E+01  0.88384197078E+00  0.23416028224E-01  0.20841768766E+01  0.12700000000E+01 0. -1.
         -4    1    1    2    0  501 -0.13961261810E+01 -0.88384197078E+00  0.59611146654E+01  0.63149135383E+01  0.12700000000E+01 0.  1.
<mgrwt>
<rscale>  0 0.20840453E+01</rscale>
<asrwt>0</asrwt>
<pdfrwt beam="1">0</pdfrwt>
<pdfrwt beam="2">0</pdfrwt>
<totfact> 0.19022218E+12</totfact>
</mgrwt>
</event>
<event>
 4    1  0.1733759E+006  0.2685988E+01  0.7546771E-02  0.2631810E+00
         22   -1    0    0    0    0  0.00000000000E+00  0.00000000000E+00  0.30691080979E+01  0.30691080979E+01  0.00000000000E+00 0. -1.
         22   -1    0    0    0    0 -0.00000000000E+00 -0.00000000000E+00 -0.23745823467E+01  0.23745823467E+01  0.00000000000E+00 0.  1.
          4    1    1    2  501    0  0.23666043028E+01  0.28519345596E-01  0.62027177936E+00  0.27566766875E+01  0.12700000000E+01 0.  1.
         -4    1    1    2    0  501 -0.23666043028E+01 -0.28519345596E-01  0.74253971861E-01  0.26870137572E+01  0.12700000000E+01 0.  1.
<mgrwt>
<rscale>  0 0.26859876E+01</rscale>
<asrwt>0</asrwt>
<pdfrwt beam="1">0</pdfrwt>
<pdfrwt beam="2">0</pdfrwt>
<totfact> 0.23858364E+12</totfact>
</mgrwt>
</event>
<event>
 4    1  0.1733759E+006  0.2585908E+01  0.7546771E-02  0.2671826E+00
         22   -1    0    0    0    0  0.00000000000E+00  0.00000000000E+00  0.83929860644E+01  0.83929860644E+01  0.00000000000E+00 0.  1.
         22   -1    0    0    0    0 -0.00000000000E+00 -0.00000000000E+00 -0.79695025588E+00  0.79695025588E+00  0.00000000000E+00 0. -1.
          4    1    1    2  501    0 -0.54756689253E+00 -0.21849924300E+01  0.38748675993E+01  0.46584890611E+01  0.12700000000E+01 0. -1.
         -4    1    1    2    0  501  0.54756689253E+00  0.21849924300E+01  0.37211682092E+01  0.45314472591E+01  0.12700000000E+01 0. -1.
<mgrwt>
<rscale>  0 0.25859082E+01</rscale>
<asrwt>0</asrwt>
<pdfrwt beam="1">0</pdfrwt>
<pdfrwt beam="2">0</pdfrwt>
<totfact> 0.25392360E+12</totfact>
</mgrwt>
</event>
<event>
 4    1  0.1733759E+006  0.2155220E+01  0.7546771E-02  0.2883287E+00
         22   -1    0    0    0    0  0.00000000000E+00  0.00000000000E+00  0.18425471041E+02  0.18425471041E+02  0.00000000000E+00 0. -1.
         22   -1    0    0    0    0 -0.00000000000E+00 -0.00000000000E+00 -0.30621978282E+00  0.30621978282E+00  0.00000000000E+00 0.  1.
          4    1    1    2  501    0  0.10652545782E+01  0.13774265441E+01  0.51220582909E+01  0.55570182954E+01  0.12700000000E+01 0. -1.
         -4    1    1    2    0  501 -0.10652545782E+01 -0.13774265441E+01  0.12997192967E+02  0.13174672529E+02  0.12700000000E+01 0. -1.
<mgrwt>
<rscale>  0 0.21552195E+01</rscale>
<asrwt>0</asrwt>
<pdfrwt beam="1">0</pdfrwt>
<pdfrwt beam="2">0</pdfrwt>
<totfact> 0.28612935E+12</totfact>
</mgrwt>
</event>
<event>
 4    1  0.1733759E+006  0.2439301E+01  0.7546771E-02  0.2735911E+00
         22   -1    0    0    0    0  0.00000000000E+00  0.00000000000E+00  0.20749776675E+02  0.20749776675E+02  0.00000000000E+00 0. -1.
         22   -1    0    0    0    0 -0.00000000000E+00 -0.00000000000E+00 -0.14035242593E+01  0.14035242593E+01  0.00000000000E+00 0.  1.
          4    1    1    2  501    0 -0.61010635010E-01 -0.20817219094E+01 -0.20738482178E+00  0.24481006658E+01  0.12700000000E+01 0.  1.
         -4    1    1    2    0  501  0.61010635010E-01  0.20817219094E+01  0.19553637238E+02  0.19705200269E+02  0.12700000000E+01 0. -1.
<mgrwt>
<rscale>  0 0.24393008E+01</rscale>
<asrwt>0</asrwt>
<pdfrwt beam="1">0</pdfrwt>
<pdfrwt beam="2">0</pdfrwt>
<totfact> 0.43879947E+11</totfact>
</mgrwt>
</event>
<event>
 4    1  0.1733759E+006  0.4264991E+01  0.7546771E-02  0.2229332E+00
         22   -1    0    0    0    0  0.00000000000E+00  0.00000000000E+00  0.77107164231E+01  0.77107164231E+01  0.00000000000E+00 0.  1.
         22   -1    0    0    0    0 -0.00000000000E+00 -0.00000000000E+00 -0.30753068799E+01  0.30753068799E+01  0.00000000000E+00 0. -1.
          4    1    1    2  501    0  0.96528358540E+00  0.39554357956E+01 -0.28493755134E+00  0.42744981158E+01  0.12700000000E+01 0. -1.
         -4    1    1    2    0  501 -0.96528358540E+00 -0.39554357956E+01  0.49203470945E+01  0.65115251872E+01  0.12700000000E+01 0.  1.
<mgrwt>
<rscale>  0 0.42649906E+01</rscale>
<asrwt>0</asrwt>
<pdfrwt beam="1">0</pdfrwt>
<pdfrwt beam="2">0</pdfrwt>
<totfact> 0.59330853E+11</totfact>
</mgrwt>
</event>
<event>
 4    1  0.1733759E+006  0.2180397E+01  0.7546771E-02  0.2868750E+00
         22   -1    0    0    0    0  0.00000000000E+00  0.00000000000E+00  0.96587271998E+00  0.96587271998E+00  0.00000000000E+00 0.  1.
         22   -1    0    0    0    0 -0.00000000000E+00 -0.00000000000E+00 -0.71615987195E+01  0.71615987195E+01  0.00000000000E+00 0.  1.
          4    1    1    2  501    0 -0.17636614981E+01  0.17529660067E+00 -0.53703164959E+01  0.57960702242E+01  0.12700000000E+01 0.  1.
         -4    1    1    2    0  501  0.17636614981E+01 -0.17529660067E+00 -0.82540950366E+00  0.23314012153E+01  0.12700000000E+01 0.  1.
<mgrwt>
<rscale>  0 0.21803969E+01</rscale>
<asrwt>0</asrwt>
<pdfrwt beam="1">0</pdfrwt>
<pdfrwt beam="2">0</pdfrwt>
<totfact> 0.24674935E+12</totfact>
</mgrwt>
</event>
<event>
 4    1  0.1733759E+006  0.2432727E+01  0.7546771E-02  0.2738952E+00
         22   -1    0    0    0    0  0.00000000000E+00  0.00000000000E+00  0.20208226009E+01  0.20208226009E+01  0.00000000000E+00 0. -1.
         22   -1    0    0    0    0 -0.00000000000E+00 -0.00000000000E+00 -0.34258394691E+01  0.34258394691E+01  0.00000000000E+00 0.  1.
          4    1    1    2  501    0 -0.17972107083E+01 -0.10369642982E+01 -0.17400464137E+01  0.29909735551E+01  0.12700000000E+01 0.  1.
         -4    1    1    2    0  501  0.17972107083E+01  0.10369642982E+01  0.33502954548E+00  0.24556885149E+01  0.12700000000E+01 0. -1.
<mgrwt>
<rscale>  0 0.24327271E+01</rscale>
<asrwt>0</asrwt>
<pdfrwt beam="1">0</pdfrwt>
<pdfrwt beam="2">0</pdfrwt>
<totfact> 0.25292454E+12</totfact>
</mgrwt>
</event>
<event>
 4    1  0.1733759E+006  0.2792039E+01  0.7546771E-02  0.2592285E+00
         22   -1    0    0    0    0  0.00000000000E+00  0.00000000000E+00  0.66385026704E+00  0.66385026704E+00  0.00000000000E+00 0.  1.
         22   -1    0    0    0    0 -0.00000000000E+00 -0.00000000000E+00 -0.11819276114E+02  0.11819276114E+02  0.00000000000E+00 0.  1.
          4    1    1    2  501    0  0.30533548777E+00 -0.24676607994E+01 -0.60796866521E+01  0.66901471858E+01  0.12700000000E+01 0.  1.
         -4    1    1    2    0  501 -0.30533548777E+00  0.24676607994E+01 -0.50757391944E+01  0.57929791947E+01  0.12700000000E+01 0.  1.
<mgrwt>
<rscale>  0 0.27920386E+01</rscale>
<asrwt>0</asrwt>
<pdfrwt beam="1">0</pdfrwt>
<pdfrwt beam="2">0</pdfrwt>
<totfact> 0.20645784E+12</totfact>
</mgrwt>
</event>
<event>
 4    1  0.1733759E+006  0.2950817E+01  0.7546771E-02  0.2537954E+00
         22   -1    0    0    0    0  0.00000000000E+00  0.00000000000E+00  0.23652729701E+00  0.23652729701E+00  0.00000000000E+00 0.  1.
         22   -1    0    0    0    0 -0.00000000000E+00 -0.00000000000E+00 -0.37112812500E+02  0.37112812500E+02  0.00000000000E+00 0. -1.
          4    1    1    2  501    0 -0.44837384412E+00 -0.26255248228E+01 -0.16760140946E+02  0.17017921267E+02  0.12700000000E+01 0. -1.
         -4    1    1    2    0  501  0.44837384412E+00  0.26255248228E+01 -0.20116144257E+02  0.20331418530E+02  0.12700000000E+01 0.  1.
<mgrwt>
<rscale>  0 0.29508168E+01</rscale>
<asrwt>0</asrwt>
<pdfrwt beam="1">0</pdfrwt>
<pdfrwt beam="2">0</pdfrwt>
<totfact> 0.15754704E+12</totfact>
</mgrwt>
</event>
<event>
 4    1  0.1733759E+006  0.2812290E+01  0.7546771E-02  0.2585047E+00
         22   -1    0    0    0    0  0.00000000000E+00  0.00000000000E+00  0.24984613764E+01  0.24984613764E+01  0.00000000000E+00 0. -1.
         22   -1    0    0    0    0 -0.00000000000E+00 -0.00000000000E+00 -0.10586415781E+02  0.10586415781E+02  0.00000000000E+00 0.  1.
          4    1    1    2  501    0 -0.21578667753E+01 -0.12805023162E+01 -0.95216086872E+01  0.99282429056E+01  0.12700000000E+01 0.  1.
         -4    1    1    2    0  501  0.21578667753E+01  0.12805023162E+01  0.14336542821E+01  0.31566342522E+01  0.12700000000E+01 0. -1.
<mgrwt>
<rscale>  0 0.28122900E+01</rscale>
<asrwt>0</asrwt>
<pdfrwt beam="1">0</pdfrwt>
<pdfrwt beam="2">0</pdfrwt>
<totfact> 0.51567914E+11</totfact>
</mgrwt>
</event>
<event>
 4    1  0.1733759E+006  0.2409391E+01  0.7546771E-02  0.2749877E+00
         22   -1    0    0    0    0  0.00000000000E+00  0.00000000000E+00  0.58641868691E+01  0.58641868691E+01  0.00000000000E+00 0.  1.
         22   -1    0    0    0    0 -0.00000000000E+00 -0.00000000000E+00 -0.12464878817E+01  0.12464878817E+01  0.00000000000E+00 0.  1.
          4    1    1    2  501    0  0.13711280116E+01 -0.15206153862E+01  0.69588305644E+00  0.25078708909E+01  0.12700000000E+01 0.  1.
         -4    1    1    2    0  501 -0.13711280116E+01  0.15206153862E+01  0.39218159309E+01  0.46028038599E+01  0.12700000000E+01 0.  1.
<mgrwt>
<rscale>  0 0.24093906E+01</rscale>
<asrwt>0</asrwt>
<pdfrwt beam="1">0</pdfrwt>
<pdfrwt beam="2">0</pdfrwt>
<totfact> 0.23396098E+12</totfact>
</mgrwt>
</event>
<event>
 4    1  0.1733759E+006  0.2516152E+01  0.7546771E-02  0.2701452E+00
         22   -1    0    0    0    0  0.00000000000E+00  0.00000000000E+00  0.26429665961E+01  0.26429665961E+01  0.00000000000E+00 0. -1.
         22   -1    0    0    0    0 -0.00000000000E+00 -0.00000000000E+00 -0.47131143872E+01  0.47131143872E+01  0.00000000000E+00 0. -1.
          4    1    1    2  501    0  0.16393766123E+01 -0.14249783998E+01 -0.36143061791E+01  0.44038878588E+01  0.12700000000E+01 0. -1.
         -4    1    1    2    0  501 -0.16393766123E+01  0.14249783998E+01  0.15441583880E+01  0.29521931245E+01  0.12700000000E+01 0. -1.
<mgrwt>
<rscale>  0 0.25161516E+01</rscale>
<asrwt>0</asrwt>
<pdfrwt beam="1">0</pdfrwt>
<pdfrwt beam="2">0</pdfrwt>
<totfact> 0.12723113E+12</totfact>
</mgrwt>
</event>
<event>
 4    1  0.1733759E+006  0.2062296E+01  0.7546771E-02  0.2939907E+00
         22   -1    0    0    0    0  0.00000000000E+00  0.00000000000E+00  0.12237563434E+01  0.12237563434E+01  0.00000000000E+00 0. -1.
         22   -1    0    0    0    0 -0.00000000000E+00 -0.00000000000E+00 -0.35207136672E+01  0.35207136672E+01  0.00000000000E+00 0. -1.
          4    1    1    2  501    0  0.16022156445E+01 -0.27031643753E+00 -0.14175492838E+01  0.25025011329E+01  0.12700000000E+01 0. -1.
         -4    1    1    2    0  501 -0.16022156445E+01  0.27031643753E+00 -0.87940803997E+00  0.22419688777E+01  0.12700000000E+01 0. -1.
<mgrwt>
<rscale>  0 0.20622963E+01</rscale>
<asrwt>0</asrwt>
<pdfrwt beam="1">0</pdfrwt>
<pdfrwt beam="2">0</pdfrwt>
<totfact> 0.43646523E+12</totfact>
</mgrwt>
</event>
<event>
 4    1  0.1733759E+006  0.2878851E+01  0.7546771E-02  0.2561908E+00
         22   -1    0    0    0    0  0.00000000000E+00  0.00000000000E+00  0.22011261856E+01  0.22011261856E+01  0.00000000000E+00 0. -1.
         22   -1    0    0    0    0 -0.00000000000E+00 -0.00000000000E+00 -0.37658935523E+01  0.37658935523E+01  0.00000000000E+00 0.  1.
          4    1    1    2  501    0  0.25790971627E+01 -0.15212857207E+00 -0.74331176623E+00  0.29732638058E+01  0.12700000000E+01 0. -1.
         -4    1    1    2    0  501 -0.25790971627E+01  0.15212857207E+00 -0.82145560047E+00  0.29937559321E+01  0.12700000000E+01 0.  1.
<mgrwt>
<rscale>  0 0.28788514E+01</rscale>
<asrwt>0</asrwt>
<pdfrwt beam="1">0</pdfrwt>
<pdfrwt beam="2">0</pdfrwt>
<totfact> 0.20500340E+12</totfact>
</mgrwt>
</event>
<event>
 4    1  0.1733759E+006  0.2306702E+01  0.7546771E-02  0.2800412E+00
         22   -1    0    0    0    0  0.00000000000E+00  0.00000000000E+00  0.13745369524E+02  0.13745369524E+02  0.00000000000E+00 0. -1.
         22   -1    0    0    0    0 -0.00000000000E+00 -0.00000000000E+00 -0.59389174941E+00  0.59389174941E+00  0.00000000000E+00 0. -1.
          4    1    1    2  501    0  0.19235877443E+01  0.88230594265E-01  0.23450943340E+01  0.32894288080E+01  0.12700000000E+01 0. -1.
         -4    1    1    2    0  501 -0.19235877443E+01 -0.88230594265E-01  0.10806383441E+02  0.11049832466E+02  0.12700000000E+01 0. -1.
<mgrwt>
<rscale>  0 0.23067021E+01</rscale>
<asrwt>0</asrwt>
<pdfrwt beam="1">0</pdfrwt>
<pdfrwt beam="2">0</pdfrwt>
<totfact> 0.19475011E+12</totfact>
</mgrwt>
</event>
<event>
 4    1  0.1733759E+006  0.3547097E+01  0.7546771E-02  0.2373244E+00
         22   -1    0    0    0    0  0.00000000000E+00  0.00000000000E+00  0.14949318762E+01  0.14949318762E+01  0.00000000000E+00 0.  1.
         22   -1    0    0    0    0 -0.00000000000E+00 -0.00000000000E+00 -0.99119627337E+01  0.99119627337E+01  0.00000000000E+00 0. -1.
          4    1    1    2  501    0  0.27122311275E+01 -0.19007366433E+01 -0.19930524279E+01  0.40686798174E+01  0.12700000000E+01 0.  1.
         -4    1    1    2    0  501 -0.27122311275E+01  0.19007366433E+01 -0.64239784297E+01  0.73382147925E+01  0.12700000000E+01 0. -1.
<mgrwt>
<rscale>  0 0.35470970E+01</rscale>
<asrwt>0</asrwt>
<pdfrwt beam="1">0</pdfrwt>
<pdfrwt beam="2">0</pdfrwt>
<totfact> 0.10116616E+12</totfact>
</mgrwt>
</event>
<event>
 4    1  0.1733759E+006  0.2027987E+01  0.7546771E-02  0.2962086E+00
         22   -1    0    0    0    0  0.00000000000E+00  0.00000000000E+00  0.15440144853E+00  0.15440144853E+00  0.00000000000E+00 0. -1.
         22   -1    0    0    0    0 -0.00000000000E+00 -0.00000000000E+00 -0.31884161103E+02  0.31884161103E+02  0.00000000000E+00 0.  1.
          4    1    1    2  501    0 -0.70288544322E+00 -0.14162572612E+01 -0.93660750585E+01  0.95831150769E+01  0.12700000000E+01 0. -1.
         -4    1    1    2    0  501  0.70288544322E+00  0.14162572612E+01 -0.22363684596E+02  0.22455447475E+02  0.12700000000E+01 0.  1.
<mgrwt>
<rscale>  0 0.20279873E+01</rscale>
<asrwt>0</asrwt>
<pdfrwt beam="1">0</pdfrwt>
<pdfrwt beam="2">0</pdfrwt>
<totfact> 0.30805980E+12</totfact>
</mgrwt>
</event>
<event>
 4    1  0.1733759E+006  0.2135025E+01  0.7546771E-02  0.2895186E+00
         22   -1    0    0    0    0  0.00000000000E+00  0.00000000000E+00  0.22699231256E+01  0.22699231256E+01  0.00000000000E+00 0.  1.
         22   -1    0    0    0    0 -0.00000000000E+00 -0.00000000000E+00 -0.29710047537E+01  0.29710047537E+01  0.00000000000E+00 0. -1.
          4    1    1    2  501    0 -0.67700909904E+00 -0.15770512741E+01 -0.18423329144E+01  0.28200217391E+01  0.12700000000E+01 0. -1.
         -4    1    1    2    0  501  0.67700909904E+00  0.15770512741E+01  0.11412512863E+01  0.24209061402E+01  0.12700000000E+01 0. -1.
<mgrwt>
<rscale>  0 0.21350251E+01</rscale>
<asrwt>0</asrwt>
<pdfrwt beam="1">0</pdfrwt>
<pdfrwt beam="2">0</pdfrwt>
<totfact> 0.26111386E+12</totfact>
</mgrwt>
</event>
<event>
 4    1  0.1733759E+006  0.2175093E+01  0.7546771E-02  0.2871785E+00
         22   -1    0    0    0    0  0.00000000000E+00  0.00000000000E+00  0.16348386311E+01  0.16348386311E+01  0.00000000000E+00 0. -1.
         22   -1    0    0    0    0 -0.00000000000E+00 -0.00000000000E+00 -0.39283837395E+01  0.39283837395E+01  0.00000000000E+00 0.  1.
          4    1    1    2  501    0 -0.16549681968E+01  0.61580135046E+00 -0.25742030227E+01  0.33700967698E+01  0.12700000000E+01 0.  1.
         -4    1    1    2    0  501  0.16549681968E+01 -0.61580135046E+00  0.28065791430E+00  0.21931256007E+01  0.12700000000E+01 0. -1.
<mgrwt>
<rscale>  0 0.21750933E+01</rscale>
<asrwt>0</asrwt>
<pdfrwt beam="1">0</pdfrwt>
<pdfrwt beam="2">0</pdfrwt>
<totfact> 0.27511368E+12</totfact>
</mgrwt>
</event>
<event>
 4    1  0.1733759E+006  0.3893886E+01  0.7546771E-02  0.2298049E+00
         22   -1    0    0    0    0  0.00000000000E+00  0.00000000000E+00  0.16934472365E+01  0.16934472365E+01  0.00000000000E+00 0.  1.
         22   -1    0    0    0    0 -0.00000000000E+00 -0.00000000000E+00 -0.11155796589E+02  0.11155796589E+02  0.00000000000E+00 0. -1.
          4    1    1    2  501    0  0.35348763887E-01 -0.36807880854E+01 -0.75856814089E+01  0.85267175925E+01  0.12700000000E+01 0.  1.
         -4    1    1    2    0  501 -0.35348763887E-01  0.36807880854E+01 -0.18766679435E+01  0.43225262330E+01  0.12700000000E+01 0. -1.
<mgrwt>
<rscale>  0 0.38938863E+01</rscale>
<asrwt>0</asrwt>
<pdfrwt beam="1">0</pdfrwt>
<pdfrwt beam="2">0</pdfrwt>
<totfact> 0.75922531E+11</totfact>
</mgrwt>
</event>
<event>
 4    1  0.1733759E+006  0.2460243E+01  0.7546771E-02  0.2726321E+00
         22   -1    0    0    0    0  0.00000000000E+00  0.00000000000E+00  0.25147855292E+02  0.25147855292E+02  0.00000000000E+00 0.  1.
         22   -1    0    0    0    0 -0.00000000000E+00 -0.00000000000E+00 -0.27176832322E+00  0.27176832322E+00  0.00000000000E+00 0. -1.
          4    1    1    2  501    0  0.19523814349E+01  0.79252995338E+00  0.81399120901E+01  0.85035854690E+01  0.12700000000E+01 0. -1.
         -4    1    1    2    0  501 -0.19523814349E+01 -0.79252995338E+00  0.16736174879E+02  0.16916038146E+02  0.12700000000E+01 0.  1.
<mgrwt>
<rscale>  0 0.24602433E+01</rscale>
<asrwt>0</asrwt>
<pdfrwt beam="1">0</pdfrwt>
<pdfrwt beam="2">0</pdfrwt>
<totfact> 0.22161256E+12</totfact>
</mgrwt>
</event>
<event>
 4    1  0.1733759E+006  0.2147633E+01  0.7546771E-02  0.2887732E+00
         22   -1    0    0    0    0  0.00000000000E+00  0.00000000000E+00  0.31167419728E+02  0.31167419728E+02  0.00000000000E+00 0.  1.
         22   -1    0    0    0    0 -0.00000000000E+00 -0.00000000000E+00 -0.32051332786E+01  0.32051332786E+01  0.00000000000E+00 0.  1.
          4    1    1    2  501    0  0.13100419525E+01 -0.11327923954E+01 -0.28036872357E+01  0.35317121406E+01  0.12700000000E+01 0.  1.
         -4    1    1    2    0  501 -0.13100419525E+01  0.11327923954E+01  0.30765973685E+02  0.30840840866E+02  0.12700000000E+01 0.  1.
<mgrwt>
<rscale>  0 0.21476332E+01</rscale>
<asrwt>0</asrwt>
<pdfrwt beam="1">0</pdfrwt>
<pdfrwt beam="2">0</pdfrwt>
<totfact> 0.10079061E+11</totfact>
</mgrwt>
</event>
<event>
 4    1  0.1733759E+006  0.2370852E+01  0.7546771E-02  0.2768358E+00
         22   -1    0    0    0    0  0.00000000000E+00  0.00000000000E+00  0.51376178172E+00  0.51376178172E+00  0.00000000000E+00 0.  1.
         22   -1    0    0    0    0 -0.00000000000E+00 -0.00000000000E+00 -0.11832819635E+02  0.11832819635E+02  0.00000000000E+00 0.  1.
          4    1    1    2  501    0  0.12483918501E+01  0.15651066987E+01 -0.73545341797E+01  0.77272319876E+01  0.12700000000E+01 0.  1.
         -4    1    1    2    0  501 -0.12483918501E+01 -0.15651066987E+01 -0.39645236734E+01  0.46193494290E+01  0.12700000000E+01 0.  1.
<mgrwt>
<rscale>  0 0.23708524E+01</rscale>
<asrwt>0</asrwt>
<pdfrwt beam="1">0</pdfrwt>
<pdfrwt beam="2">0</pdfrwt>
<totfact> 0.27555142E+12</totfact>
</mgrwt>
</event>
<event>
 4    1  0.1733759E+006  0.3968079E+01  0.7546771E-02  0.2283438E+00
         22   -1    0    0    0    0  0.00000000000E+00  0.00000000000E+00  0.43124121278E+01  0.43124121278E+01  0.00000000000E+00 0. -1.
         22   -1    0    0    0    0 -0.00000000000E+00 -0.00000000000E+00 -0.36590529514E+01  0.36590529514E+01  0.00000000000E+00 0.  1.
          4    1    1    2  501    0  0.36720374180E+01  0.80554028647E+00  0.51084860804E+00  0.40008274460E+01  0.12700000000E+01 0. -1.
         -4    1    1    2    0  501 -0.36720374180E+01 -0.80554028647E+00  0.14251056835E+00  0.39706376332E+01  0.12700000000E+01 0.  1.
<mgrwt>
<rscale>  0 0.39680794E+01</rscale>
<asrwt>0</asrwt>
<pdfrwt beam="1">0</pdfrwt>
<pdfrwt beam="2">0</pdfrwt>
<totfact> 0.96598775E+11</totfact>
</mgrwt>
</event>
<event>
 4    1  0.1733759E+006  0.2410107E+01  0.7546771E-02  0.2749538E+00
         22   -1    0    0    0    0  0.00000000000E+00  0.00000000000E+00  0.27050981375E+01  0.27050981375E+01  0.00000000000E+00 0. -1.
         22   -1    0    0    0    0 -0.00000000000E+00 -0.00000000000E+00 -0.45359643674E+01  0.45359643674E+01  0.00000000000E+00 0.  1.
          4    1    1    2  501    0  0.17995567959E+01  0.97842216191E+00 -0.35427743508E+01  0.42848412677E+01  0.12700000000E+01 0.  1.
         -4    1    1    2    0  501 -0.17995567959E+01 -0.97842216191E+00  0.17119081209E+01  0.29562212372E+01  0.12700000000E+01 0. -1.
<mgrwt>
<rscale>  0 0.24101068E+01</rscale>
<asrwt>0</asrwt>
<pdfrwt beam="1">0</pdfrwt>
<pdfrwt beam="2">0</pdfrwt>
<totfact> 0.12956544E+12</totfact>
</mgrwt>
</event>
<event>
 4    1  0.1733759E+006  0.2923091E+01  0.7546771E-02  0.2547057E+00
         22   -1    0    0    0    0  0.00000000000E+00  0.00000000000E+00  0.48445675896E+01  0.48445675896E+01  0.00000000000E+00 0. -1.
         22   -1    0    0    0    0 -0.00000000000E+00 -0.00000000000E+00 -0.32844140322E+01  0.32844140322E+01  0.00000000000E+00 0.  1.
          4    1    1    2  501    0 -0.23631032139E+01  0.11607352625E+01 -0.19855784969E+01  0.35336928441E+01  0.12700000000E+01 0.  1.
         -4    1    1    2    0  501  0.23631032139E+01 -0.11607352625E+01  0.35457320544E+01  0.45952887777E+01  0.12700000000E+01 0. -1.
<mgrwt>
<rscale>  0 0.29230914E+01</rscale>
<asrwt>0</asrwt>
<pdfrwt beam="1">0</pdfrwt>
<pdfrwt beam="2">0</pdfrwt>
<totfact> 0.95561493E+11</totfact>
</mgrwt>
</event>
<event>
 4    1  0.1733759E+006  0.2345719E+01  0.7546771E-02  0.2780719E+00
         22   -1    0    0    0    0  0.00000000000E+00  0.00000000000E+00  0.19110071314E+00  0.19110071314E+00  0.00000000000E+00 0.  1.
         22   -1    0    0    0    0 -0.00000000000E+00 -0.00000000000E+00 -0.60715383540E+02  0.60715383540E+02  0.00000000000E+00 0.  1.
          4    1    1    2  501    0  0.19620336882E+01 -0.19980478517E+00 -0.52343742644E+02  0.52396276510E+02  0.12700000000E+01 0.  1.
         -4    1    1    2    0  501 -0.19620336882E+01  0.19980478517E+00 -0.81805401830E+01  0.85102077432E+01  0.12700000000E+01 0.  1.
<mgrwt>
<rscale>  0 0.23457191E+01</rscale>
<asrwt>0</asrwt>
<pdfrwt beam="1">0</pdfrwt>
<pdfrwt beam="2">0</pdfrwt>
<totfact> 0.10466817E+12</totfact>
</mgrwt>
</event>
<event>
 4    1  0.1733759E+006  0.2695660E+01  0.7546771E-02  0.2628087E+00
         22   -1    0    0    0    0  0.00000000000E+00  0.00000000000E+00  0.98674078284E+00  0.98674078284E+00  0.00000000000E+00 0.  1.
         22   -1    0    0    0    0 -0.00000000000E+00 -0.00000000000E+00 -0.76799475409E+01  0.76799475409E+01  0.00000000000E+00 0. -1.
          4    1    1    2  501    0 -0.98845008340E+00  0.21625565788E+01 -0.42252100431E+01  0.50118843195E+01  0.12700000000E+01 0. -1.
         -4    1    1    2    0  501  0.98845008340E+00 -0.21625565788E+01 -0.24679967149E+01  0.36548040042E+01  0.12700000000E+01 0.  1.
<mgrwt>
<rscale>  0 0.26956603E+01</rscale>
<asrwt>0</asrwt>
<pdfrwt beam="1">0</pdfrwt>
<pdfrwt beam="2">0</pdfrwt>
<totfact> 0.22146971E+12</totfact>
</mgrwt>
</event>
<event>
 4    1  0.1733759E+006  0.3256881E+01  0.7546771E-02  0.2446748E+00
         22   -1    0    0    0    0  0.00000000000E+00  0.00000000000E+00  0.43072771019E+02  0.43072771019E+02  0.00000000000E+00 0. -1.
         22   -1    0    0    0    0 -0.00000000000E+00 -0.00000000000E+00 -0.14843640397E+01  0.14843640397E+01  0.00000000000E+00 0.  1.
          4    1    1    2  501    0  0.14410797669E+01  0.26301445028E+01  0.44745919302E+00  0.32874748257E+01  0.12700000000E+01 0.  1.
         -4    1    1    2    0  501 -0.14410797669E+01 -0.26301445028E+01  0.41140947786E+02  0.41269660233E+02  0.12700000000E+01 0. -1.
<mgrwt>
<rscale>  0 0.32568806E+01</rscale>
<asrwt>0</asrwt>
<pdfrwt beam="1">0</pdfrwt>
<pdfrwt beam="2">0</pdfrwt>
<totfact> 0.16213864E+11</totfact>
</mgrwt>
</event>
<event>
 4    1  0.1733759E+006  0.2260830E+01  0.7546771E-02  0.2824389E+00
         22   -1    0    0    0    0  0.00000000000E+00  0.00000000000E+00  0.20555916014E+01  0.20555916014E+01  0.00000000000E+00 0. -1.
         22   -1    0    0    0    0 -0.00000000000E+00 -0.00000000000E+00 -0.28340226171E+01  0.28340226171E+01  0.00000000000E+00 0.  1.
          4    1    1    2  501    0 -0.16771110106E+01 -0.82809985047E+00  0.46683095292E+00  0.23085237367E+01  0.12700000000E+01 0. -1.
         -4    1    1    2    0  501  0.16771110106E+01  0.82809985047E+00 -0.12452619687E+01  0.25810904818E+01  0.12700000000E+01 0.  1.
<mgrwt>
<rscale>  0 0.22608296E+01</rscale>
<asrwt>0</asrwt>
<pdfrwt beam="1">0</pdfrwt>
<pdfrwt beam="2">0</pdfrwt>
<totfact> 0.30953501E+12</totfact>
</mgrwt>
</event>
<event>
 4    1  0.1733759E+006  0.3213343E+01  0.7546771E-02  0.2458777E+00
         22   -1    0    0    0    0  0.00000000000E+00  0.00000000000E+00  0.13935799907E+01  0.13935799907E+01  0.00000000000E+00 0. -1.
         22   -1    0    0    0    0 -0.00000000000E+00 -0.00000000000E+00 -0.18109805768E+02  0.18109805768E+02  0.00000000000E+00 0.  1.
          4    1    1    2  501    0  0.95800059545E-01  0.29501688919E+01 -0.15854007919E+02  0.16176376023E+02  0.12700000000E+01 0.  1.
         -4    1    1    2    0  501 -0.95800059545E-01 -0.29501688919E+01 -0.86221785748E+00  0.33270097349E+01  0.12700000000E+01 0. -1.
<mgrwt>
<rscale>  0 0.32133431E+01</rscale>
<asrwt>0</asrwt>
<pdfrwt beam="1">0</pdfrwt>
<pdfrwt beam="2">0</pdfrwt>
<totfact> 0.52410096E+11</totfact>
</mgrwt>
</event>
<event>
 4    1  0.1733759E+006  0.4129645E+01  0.7546771E-02  0.2253177E+00
         22   -1    0    0    0    0  0.00000000000E+00  0.00000000000E+00  0.10585368735E+02  0.10585368735E+02  0.00000000000E+00 0.  1.
         22   -1    0    0    0    0 -0.00000000000E+00 -0.00000000000E+00 -0.56975230567E+01  0.56975230567E+01  0.00000000000E+00 0. -1.
          4    1    1    2  501    0  0.21928850211E+01 -0.32607241200E+01 -0.44510215252E+01  0.60717015012E+01  0.12700000000E+01 0. -1.
         -4    1    1    2    0  501 -0.21928850211E+01  0.32607241200E+01  0.93388672034E+01  0.10211190290E+02  0.12700000000E+01 0.  1.
<mgrwt>
<rscale>  0 0.41296448E+01</rscale>
<asrwt>0</asrwt>
<pdfrwt beam="1">0</pdfrwt>
<pdfrwt beam="2">0</pdfrwt>
<totfact> 0.19574302E+11</totfact>
</mgrwt>
</event>
<event>
 4    1  0.1733759E+006  0.2595967E+01  0.7546771E-02  0.2667676E+00
         22   -1    0    0    0    0  0.00000000000E+00  0.00000000000E+00  0.16947075257E+01  0.16947075257E+01  0.00000000000E+00 0.  1.
         22   -1    0    0    0    0 -0.00000000000E+00 -0.00000000000E+00 -0.10509735619E+02  0.10509735619E+02  0.00000000000E+00 0. -1.
          4    1    1    2  501    0 -0.11607216011E+01 -0.19439322243E+01 -0.92187360993E+01  0.95772721793E+01  0.12700000000E+01 0. -1.
         -4    1    1    2    0  501  0.11607216011E+01  0.19439322243E+01  0.40370800588E+00  0.26271709655E+01  0.12700000000E+01 0.  1.
<mgrwt>
<rscale>  0 0.25959675E+01</rscale>
<asrwt>0</asrwt>
<pdfrwt beam="1">0</pdfrwt>
<pdfrwt beam="2">0</pdfrwt>
<totfact> 0.81555678E+11</totfact>
</mgrwt>
</event>
<event>
 4    1  0.1733759E+006  0.2053969E+01  0.7546771E-02  0.2945223E+00
         22   -1    0    0    0    0  0.00000000000E+00  0.00000000000E+00  0.25936535742E+02  0.25936535742E+02  0.00000000000E+00 0. -1.
         22   -1    0    0    0    0 -0.00000000000E+00 -0.00000000000E+00 -0.37451804218E+00  0.37451804218E+00  0.00000000000E+00 0. -1.
          4    1    1    2  501    0 -0.13983635626E+01 -0.80651651471E+00  0.28864548408E+01  0.35426559372E+01  0.12700000000E+01 0. -1.
         -4    1    1    2    0  501  0.13983635626E+01  0.80651651471E+00  0.22675562860E+02  0.22768397847E+02  0.12700000000E+01 0. -1.
<mgrwt>
<rscale>  0 0.20539692E+01</rscale>
<asrwt>0</asrwt>
<pdfrwt beam="1">0</pdfrwt>
<pdfrwt beam="2">0</pdfrwt>
<totfact> 0.14870758E+12</totfact>
</mgrwt>
</event>
<event>
 4    1  0.1733759E+006  0.2769274E+01  0.7546771E-02  0.2600536E+00
         22   -1    0    0    0    0  0.00000000000E+00  0.00000000000E+00  0.15212675144E+02  0.15212675144E+02  0.00000000000E+00 0.  1.
         22   -1    0    0    0    0 -0.00000000000E+00 -0.00000000000E+00 -0.10342422860E+01  0.10342422860E+01  0.00000000000E+00 0. -1.
          4    1    1    2  501    0  0.47585305631E+00 -0.24144444320E+01  0.12732549872E+01  0.30479593680E+01  0.12700000000E+01 0. -1.
         -4    1    1    2    0  501 -0.47585305631E+00  0.24144444320E+01  0.12905177871E+02  0.13198958062E+02  0.12700000000E+01 0.  1.
<mgrwt>
<rscale>  0 0.27692739E+01</rscale>
<asrwt>0</asrwt>
<pdfrwt beam="1">0</pdfrwt>
<pdfrwt beam="2">0</pdfrwt>
<totfact> 0.91492244E+11</totfact>
</mgrwt>
</event>
<event>
 4    1  0.1733759E+006  0.2473989E+01  0.7546771E-02  0.2720110E+00
         22   -1    0    0    0    0  0.00000000000E+00  0.00000000000E+00  0.95301115568E+00  0.95301115568E+00  0.00000000000E+00 0.  1.
         22   -1    0    0    0    0 -0.00000000000E+00 -0.00000000000E+00 -0.65247290713E+01  0.65247290713E+01  0.00000000000E+00 0. -1.
          4    1    1    2  501    0 -0.20414491160E+01  0.58327202054E+00 -0.32540837753E+01  0.40877477857E+01  0.12700000000E+01 0.  1.
         -4    1    1    2    0  501  0.20414491160E+01 -0.58327202054E+00 -0.23176341404E+01  0.33899924413E+01  0.12700000000E+01 0. -1.
<mgrwt>
<rscale>  0 0.24739888E+01</rscale>
<asrwt>0</asrwt>
<pdfrwt beam="1">0</pdfrwt>
<pdfrwt beam="2">0</pdfrwt>
<totfact> 0.28006712E+12</totfact>
</mgrwt>
</event>
<event>
 4    1  0.1733759E+006  0.2203054E+01  0.7546771E-02  0.2855940E+00
         22   -1    0    0    0    0  0.00000000000E+00  0.00000000000E+00  0.16692611925E+01  0.16692611925E+01  0.00000000000E+00 0.  1.
         22   -1    0    0    0    0 -0.00000000000E+00 -0.00000000000E+00 -0.29372973931E+01  0.29372973931E+01  0.00000000000E+00 0.  1.
          4    1    1    2  501    0  0.15907193661E+01 -0.84270892550E+00 -0.86584192948E+00  0.23670928756E+01  0.12700000000E+01 0.  1.
         -4    1    1    2    0  501 -0.15907193661E+01  0.84270892550E+00 -0.40219427121E+00  0.22394657100E+01  0.12700000000E+01 0.  1.
<mgrwt>
<rscale>  0 0.22030539E+01</rscale>
<asrwt>0</asrwt>
<pdfrwt beam="1">0</pdfrwt>
<pdfrwt beam="2">0</pdfrwt>
<totfact> 0.37760970E+12</totfact>
</mgrwt>
</event>
<event>
 4    1  0.1733759E+006  0.2258552E+01  0.7546771E-02  0.2825603E+00
         22   -1    0    0    0    0  0.00000000000E+00  0.00000000000E+00  0.19789814923E+00  0.19789814923E+00  0.00000000000E+00 0.  1.
         22   -1    0    0    0    0 -0.00000000000E+00 -0.00000000000E+00 -0.34161416650E+02  0.34161416650E+02  0.00000000000E+00 0. -1.
          4    1    1    2  501    0 -0.11020127775E+01  0.15078881486E+01 -0.84702973928E+01  0.87662418831E+01  0.12700000000E+01 0.  1.
         -4    1    1    2    0  501  0.11020127775E+01 -0.15078881486E+01 -0.25493221108E+02  0.25593072916E+02  0.12700000000E+01 0. -1.
<mgrwt>
<rscale>  0 0.22585524E+01</rscale>
<asrwt>0</asrwt>
<pdfrwt beam="1">0</pdfrwt>
<pdfrwt beam="2">0</pdfrwt>
<totfact> 0.21389720E+12</totfact>
</mgrwt>
</event>
<event>
 4    1  0.1733759E+006  0.5262018E+01  0.7546771E-02  0.2092968E+00
         22   -1    0    0    0    0  0.00000000000E+00  0.00000000000E+00  0.44373287770E+01  0.44373287770E+01  0.00000000000E+00 0. -1.
         22   -1    0    0    0    0 -0.00000000000E+00 -0.00000000000E+00 -0.64865386087E+01  0.64865386087E+01  0.00000000000E+00 0.  1.
          4    1    1    2  501    0  0.43912173911E+01  0.26063663450E+01 -0.20894867505E+01  0.56616950272E+01  0.12700000000E+01 0.  1.
         -4    1    1    2    0  501 -0.43912173911E+01 -0.26063663450E+01  0.40276918747E-01  0.52621723585E+01  0.12700000000E+01 0. -1.
<mgrwt>
<rscale>  0 0.52620182E+01</rscale>
<asrwt>0</asrwt>
<pdfrwt beam="1">0</pdfrwt>
<pdfrwt beam="2">0</pdfrwt>
<totfact> 0.47437846E+11</totfact>
</mgrwt>
</event>
<event>
 4    1  0.1733759E+006  0.3349488E+01  0.7546771E-02  0.2422081E+00
         22   -1    0    0    0    0  0.00000000000E+00  0.00000000000E+00  0.19855446969E+02  0.19855446969E+02  0.00000000000E+00 0.  1.
         22   -1    0    0    0    0 -0.00000000000E+00 -0.00000000000E+00 -0.20862662541E+01  0.20862662541E+01  0.00000000000E+00 0. -1.
          4    1    1    2  501    0 -0.18676710181E+01 -0.24734543491E+01 -0.48354031583E+00  0.33842107922E+01  0.12700000000E+01 0. -1.
         -4    1    1    2    0  501  0.18676710181E+01  0.24734543491E+01  0.18252721031E+02  0.18557502431E+02  0.12700000000E+01 0.  1.
<mgrwt>
<rscale>  0 0.33494882E+01</rscale>
<asrwt>0</asrwt>
<pdfrwt beam="1">0</pdfrwt>
<pdfrwt beam="2">0</pdfrwt>
<totfact> 0.29345732E+11</totfact>
</mgrwt>
</event>
<event>
 4    1  0.1733759E+006  0.1173656E+02  0.7546771E-02  0.1714966E+00
         22   -1    0    0    0    0  0.00000000000E+00  0.00000000000E+00  0.68425401190E+02  0.68425401190E+02  0.00000000000E+00 0. -1.
         22   -1    0    0    0    0 -0.00000000000E+00 -0.00000000000E+00 -0.20786569340E+01  0.20786569340E+01  0.00000000000E+00 0.  1.
          4    1    1    2  501    0 -0.92306911236E+01  0.71363975861E+01  0.39434082550E+02  0.41143572957E+02  0.12700000000E+01 0.  1.
         -4    1    1    2    0  501  0.92306911236E+01 -0.71363975861E+01  0.26912661706E+02  0.29360485167E+02  0.12700000000E+01 0. -1.
<mgrwt>
<rscale>  0 0.11736555E+02</rscale>
<asrwt>0</asrwt>
<pdfrwt beam="1">0</pdfrwt>
<pdfrwt beam="2">0</pdfrwt>
<totfact> 0.59446280E+10</totfact>
</mgrwt>
</event>
<event>
 4    1  0.1733759E+006  0.2999154E+01  0.7546771E-02  0.2522448E+00
         22   -1    0    0    0    0  0.00000000000E+00  0.00000000000E+00  0.51781477547E+01  0.51781477547E+01  0.00000000000E+00 0. -1.
         22   -1    0    0    0    0 -0.00000000000E+00 -0.00000000000E+00 -0.22394940845E+01  0.22394940845E+01  0.00000000000E+00 0.  1.
          4    1    1    2  501    0  0.80759081765E+00 -0.25941896690E+01 -0.28732742231E+00  0.30128856625E+01  0.12700000000E+01 0.  1.
         -4    1    1    2    0  501 -0.80759081765E+00  0.25941896690E+01  0.32259810925E+01  0.44047561767E+01  0.12700000000E+01 0. -1.
<mgrwt>
<rscale>  0 0.29991537E+01</rscale>
<asrwt>0</asrwt>
<pdfrwt beam="1">0</pdfrwt>
<pdfrwt beam="2">0</pdfrwt>
<totfact> 0.13799490E+12</totfact>
</mgrwt>
</event>
<event>
 4    1  0.1733759E+006  0.3683067E+01  0.7546771E-02  0.2342306E+00
         22   -1    0    0    0    0  0.00000000000E+00  0.00000000000E+00  0.42891114405E+01  0.42891114405E+01  0.00000000000E+00 0.  1.
         22   -1    0    0    0    0 -0.00000000000E+00 -0.00000000000E+00 -0.88919239166E+01  0.88919239166E+01  0.00000000000E+00 0. -1.
          4    1    1    2  501    0 -0.90044805505E+00 -0.33378553790E+01 -0.75915955713E+01  0.84378497586E+01  0.12700000000E+01 0. -1.
         -4    1    1    2    0  501  0.90044805505E+00  0.33378553790E+01  0.29887830952E+01  0.47431855984E+01  0.12700000000E+01 0.  1.
<mgrwt>
<rscale>  0 0.36830674E+01</rscale>
<asrwt>0</asrwt>
<pdfrwt beam="1">0</pdfrwt>
<pdfrwt beam="2">0</pdfrwt>
<totfact> 0.33824418E+11</totfact>
</mgrwt>
</event>
<event>
 4    1  0.1733759E+006  0.2761347E+01  0.7546771E-02  0.2603439E+00
         22   -1    0    0    0    0  0.00000000000E+00  0.00000000000E+00  0.12030990590E+02  0.12030990590E+02  0.00000000000E+00 0. -1.
         22   -1    0    0    0    0 -0.00000000000E+00 -0.00000000000E+00 -0.67729757803E+00  0.67729757803E+00  0.00000000000E+00 0. -1.
          4    1    1    2  501    0 -0.11940888156E+01 -0.21415629161E+01  0.40662615338E+01  0.49152337365E+01  0.12700000000E+01 0. -1.
         -4    1    1    2    0  501  0.11940888156E+01  0.21415629161E+01  0.72874314777E+01  0.77930544310E+01  0.12700000000E+01 0. -1.
<mgrwt>
<rscale>  0 0.27613475E+01</rscale>
<asrwt>0</asrwt>
<pdfrwt beam="1">0</pdfrwt>
<pdfrwt beam="2">0</pdfrwt>
<totfact> 0.19749324E+12</totfact>
</mgrwt>
</event>
<event>
 4    1  0.1733759E+006  0.2012384E+01  0.7546771E-02  0.2972417E+00
         22   -1    0    0    0    0  0.00000000000E+00  0.00000000000E+00  0.84230853339E+00  0.84230853339E+00  0.00000000000E+00 0. -1.
         22   -1    0    0    0    0 -0.00000000000E+00 -0.00000000000E+00 -0.75399746179E+01  0.75399746179E+01  0.00000000000E+00 0. -1.
          4    1    1    2  501    0  0.36038207165E+00 -0.15188528987E+01 -0.58717211666E+01  0.62069959581E+01  0.12700000000E+01 0. -1.
         -4    1    1    2    0  501 -0.36038207165E+00  0.15188528987E+01 -0.82594491790E+00  0.21752871932E+01  0.12700000000E+01 0. -1.
<mgrwt>
<rscale>  0 0.20123840E+01</rscale>
<asrwt>0</asrwt>
<pdfrwt beam="1">0</pdfrwt>
<pdfrwt beam="2">0</pdfrwt>
<totfact> 0.27115213E+12</totfact>
</mgrwt>
</event>
<event>
 4    1  0.1733759E+006  0.2169518E+01  0.7546771E-02  0.2874991E+00
         22   -1    0    0    0    0  0.00000000000E+00  0.00000000000E+00  0.10131412344E+01  0.10131412344E+01  0.00000000000E+00 0.  1.
         22   -1    0    0    0    0 -0.00000000000E+00 -0.00000000000E+00 -0.73955685337E+01  0.73955685337E+01  0.00000000000E+00 0.  1.
          4    1    1    2  501    0  0.17518750056E+01  0.15761891371E+00 -0.57549001135E+01  0.61502589436E+01  0.12700000000E+01 0.  1.
         -4    1    1    2    0  501 -0.17518750056E+01 -0.15761891371E+00 -0.62752718581E+00  0.22584508244E+01  0.12700000000E+01 0.  1.
<mgrwt>
<rscale>  0 0.21695183E+01</rscale>
<asrwt>0</asrwt>
<pdfrwt beam="1">0</pdfrwt>
<pdfrwt beam="2">0</pdfrwt>
<totfact> 0.22482389E+12</totfact>
</mgrwt>
</event>
<event>
 4    1  0.1733759E+006  0.2225897E+01  0.7546771E-02  0.2843279E+00
         22   -1    0    0    0    0  0.00000000000E+00  0.00000000000E+00  0.36607869868E+00  0.36607869868E+00  0.00000000000E+00 0. -1.
         22   -1    0    0    0    0 -0.00000000000E+00 -0.00000000000E+00 -0.21910717163E+02  0.21910717163E+02  0.00000000000E+00 0. -1.
          4    1    1    2  501    0  0.49186155947E+00 -0.17606219799E+01 -0.17659217694E+02  0.17798949045E+02  0.12700000000E+01 0. -1.
         -4    1    1    2    0  501 -0.49186155947E+00  0.17606219799E+01 -0.38854207709E+01  0.44778468171E+01  0.12700000000E+01 0. -1.
<mgrwt>
<rscale>  0 0.22258970E+01</rscale>
<asrwt>0</asrwt>
<pdfrwt beam="1">0</pdfrwt>
<pdfrwt beam="2">0</pdfrwt>
<totfact> 0.18864923E+12</totfact>
</mgrwt>
</event>
<event>
 4    1  0.1733759E+006  0.2139938E+01  0.7546771E-02  0.2892271E+00
         22   -1    0    0    0    0  0.00000000000E+00  0.00000000000E+00  0.37157046013E+02  0.37157046013E+02  0.00000000000E+00 0.  1.
         22   -1    0    0    0    0 -0.00000000000E+00 -0.00000000000E+00 -0.44488975222E+00  0.44488975222E+00  0.00000000000E+00 0. -1.
          4    1    1    2  501    0  0.81757466002E+00  0.15159180108E+01  0.23699321352E+01  0.31931041427E+01  0.12700000000E+01 0. -1.
         -4    1    1    2    0  501 -0.81757466002E+00 -0.15159180108E+01  0.34342224126E+02  0.34408831623E+02  0.12700000000E+01 0.  1.
<mgrwt>
<rscale>  0 0.21399383E+01</rscale>
<asrwt>0</asrwt>
<pdfrwt beam="1">0</pdfrwt>
<pdfrwt beam="2">0</pdfrwt>
<totfact> 0.77398658E+11</totfact>
</mgrwt>
</event>
<event>
 4    1  0.1733759E+006  0.2595781E+01  0.7546771E-02  0.2667752E+00
         22   -1    0    0    0    0  0.00000000000E+00  0.00000000000E+00  0.72306600679E+01  0.72306600679E+01  0.00000000000E+00 0. -1.
         22   -1    0    0    0    0 -0.00000000000E+00 -0.00000000000E+00 -0.10575214869E+01  0.10575214869E+01  0.00000000000E+00 0. -1.
          4    1    1    2  501    0  0.19823418898E+01  0.10933893491E+01  0.16581429351E+01  0.30801814281E+01  0.12700000000E+01 0. -1.
         -4    1    1    2    0  501 -0.19823418898E+01 -0.10933893491E+01  0.45149956459E+01  0.52080001267E+01  0.12700000000E+01 0. -1.
<mgrwt>
<rscale>  0 0.25957811E+01</rscale>
<asrwt>0</asrwt>
<pdfrwt beam="1">0</pdfrwt>
<pdfrwt beam="2">0</pdfrwt>
<totfact> 0.21994864E+12</totfact>
</mgrwt>
</event>
<event>
 4    1  0.1733759E+006  0.3180780E+01  0.7546771E-02  0.2467965E+00
         22   -1    0    0    0    0  0.00000000000E+00  0.00000000000E+00  0.13612268497E+01  0.13612268497E+01  0.00000000000E+00 0. -1.
         22   -1    0    0    0    0 -0.00000000000E+00 -0.00000000000E+00 -0.74329681461E+01  0.74329681461E+01  0.00000000000E+00 0.  1.
          4    1    1    2  501    0 -0.27628269070E+01  0.93340685097E+00 -0.30695883967E+01  0.44203771098E+01  0.12700000000E+01 0. -1.
         -4    1    1    2    0  501  0.27628269070E+01 -0.93340685097E+00 -0.30021528996E+01  0.43738178860E+01  0.12700000000E+01 0.  1.
<mgrwt>
<rscale>  0 0.31807799E+01</rscale>
<asrwt>0</asrwt>
<pdfrwt beam="1">0</pdfrwt>
<pdfrwt beam="2">0</pdfrwt>
<totfact> 0.15934982E+12</totfact>
</mgrwt>
</event>
<event>
 4    1  0.1733759E+006  0.2100970E+01  0.7546771E-02  0.2915753E+00
         22   -1    0    0    0    0  0.00000000000E+00  0.00000000000E+00  0.22568064862E+01  0.22568064862E+01  0.00000000000E+00 0.  1.
         22   -1    0    0    0    0 -0.00000000000E+00 -0.00000000000E+00 -0.22789522274E+01  0.22789522274E+01  0.00000000000E+00 0. -1.
          4    1    1    2  501    0  0.53990992336E+00 -0.15841945506E+01 -0.86494431851E+00  0.22720483652E+01  0.12700000000E+01 0. -1.
         -4    1    1    2    0  501 -0.53990992336E+00  0.15841945506E+01  0.84279857731E+00  0.22637103484E+01  0.12700000000E+01 0.  1.
<mgrwt>
<rscale>  0 0.21009700E+01</rscale>
<asrwt>0</asrwt>
<pdfrwt beam="1">0</pdfrwt>
<pdfrwt beam="2">0</pdfrwt>
<totfact> 0.35796141E+12</totfact>
</mgrwt>
</event>
<event>
 4    1  0.1733759E+006  0.2103207E+01  0.7546771E-02  0.2914382E+00
         22   -1    0    0    0    0  0.00000000000E+00  0.00000000000E+00  0.26833445515E+02  0.26833445515E+02  0.00000000000E+00 0. -1.
         22   -1    0    0    0    0 -0.00000000000E+00 -0.00000000000E+00 -0.20782551653E+00  0.20782551653E+00  0.00000000000E+00 0. -1.
          4    1    1    2  501    0 -0.16374572501E+01 -0.35960097668E+00  0.19461193273E+02  0.19574512069E+02  0.12700000000E+01 0. -1.
         -4    1    1    2    0  501  0.16374572501E+01  0.35960097668E+00  0.71644267258E+01  0.74667589634E+01  0.12700000000E+01 0. -1.
<mgrwt>
<rscale>  0 0.21032069E+01</rscale>
<asrwt>0</asrwt>
<pdfrwt beam="1">0</pdfrwt>
<pdfrwt beam="2">0</pdfrwt>
<totfact> 0.27554234E+12</totfact>
</mgrwt>
</event>
<event>
 4    1  0.1733759E+006  0.2980461E+01  0.7546771E-02  0.2528391E+00
         22   -1    0    0    0    0  0.00000000000E+00  0.00000000000E+00  0.53219956224E+01  0.53219956224E+01  0.00000000000E+00 0.  1.
         22   -1    0    0    0    0 -0.00000000000E+00 -0.00000000000E+00 -0.14541021903E+02  0.14541021903E+02  0.00000000000E+00 0. -1.
          4    1    1    2  501    0  0.23805545067E+01  0.12661795459E+01 -0.13953641725E+02  0.14268401024E+02  0.12700000000E+01 0. -1.
         -4    1    1    2    0  501 -0.23805545067E+01 -0.12661795459E+01  0.47346154437E+01  0.55946165017E+01  0.12700000000E+01 0.  1.
<mgrwt>
<rscale>  0 0.29804614E+01</rscale>
<asrwt>0</asrwt>
<pdfrwt beam="1">0</pdfrwt>
<pdfrwt beam="2">0</pdfrwt>
<totfact> 0.14403709E+11</totfact>
</mgrwt>
</event>
<event>
 4    1  0.1733759E+006  0.2282117E+01  0.7546771E-02  0.2813149E+00
         22   -1    0    0    0    0  0.00000000000E+00  0.00000000000E+00  0.11293608665E+01  0.11293608665E+01  0.00000000000E+00 0. -1.
         22   -1    0    0    0    0 -0.00000000000E+00 -0.00000000000E+00 -0.51475853549E+01  0.51475853549E+01  0.00000000000E+00 0.  1.
          4    1    1    2  501    0 -0.18741914221E+01  0.28734182955E+00 -0.30219260116E+01  0.37868318729E+01  0.12700000000E+01 0.  1.
         -4    1    1    2    0  501  0.18741914221E+01 -0.28734182955E+00 -0.99629847679E+00  0.24901143485E+01  0.12700000000E+01 0.  1.
<mgrwt>
<rscale>  0 0.22821172E+01</rscale>
<asrwt>0</asrwt>
<pdfrwt beam="1">0</pdfrwt>
<pdfrwt beam="2">0</pdfrwt>
<totfact> 0.30579537E+12</totfact>
</mgrwt>
</event>
<event>
 4    1  0.1733759E+006  0.3139676E+01  0.7546771E-02  0.2479803E+00
         22   -1    0    0    0    0  0.00000000000E+00  0.00000000000E+00  0.77857413924E+01  0.77857413924E+01  0.00000000000E+00 0.  1.
         22   -1    0    0    0    0 -0.00000000000E+00 -0.00000000000E+00 -0.88902146323E+01  0.88902146323E+01  0.00000000000E+00 0.  1.
          4    1    1    2  501    0 -0.28713462988E+01  0.60728310325E-02 -0.82736923817E+01  0.88493814515E+01  0.12700000000E+01 0.  1.
         -4    1    1    2    0  501  0.28713462988E+01 -0.60728310325E-02  0.71692191418E+01  0.78265745732E+01  0.12700000000E+01 0.  1.
<mgrwt>
<rscale>  0 0.31396762E+01</rscale>
<asrwt>0</asrwt>
<pdfrwt beam="1">0</pdfrwt>
<pdfrwt beam="2">0</pdfrwt>
<totfact> 0.16649356E+11</totfact>
</mgrwt>
</event>
<event>
 4    1  0.1733759E+006  0.2577695E+01  0.7546771E-02  0.2675237E+00
         22   -1    0    0    0    0  0.00000000000E+00  0.00000000000E+00  0.41150073508E+00  0.41150073508E+00  0.00000000000E+00 0.  1.
         22   -1    0    0    0    0 -0.00000000000E+00 -0.00000000000E+00 -0.25956871596E+02  0.25956871596E+02  0.00000000000E+00 0.  1.
          4    1    1    2  501    0 -0.11784134016E+01 -0.19086527901E+01 -0.20877782280E+02  0.21036309243E+02  0.12700000000E+01 0.  1.
         -4    1    1    2    0  501  0.11784134016E+01  0.19086527901E+01 -0.46675885800E+01  0.53320630876E+01  0.12700000000E+01 0.  1.
<mgrwt>
<rscale>  0 0.25776954E+01</rscale>
<asrwt>0</asrwt>
<pdfrwt beam="1">0</pdfrwt>
<pdfrwt beam="2">0</pdfrwt>
<totfact> 0.13363528E+12</totfact>
</mgrwt>
</event>
<event>
 4    1  0.1733759E+006  0.7388370E+01  0.7546771E-02  0.1913774E+00
         22   -1    0    0    0    0  0.00000000000E+00  0.00000000000E+00  0.67859595841E+02  0.67859595841E+02  0.00000000000E+00 0.  1.
         22   -1    0    0    0    0 -0.00000000000E+00 -0.00000000000E+00 -0.88716298843E+00  0.88716298843E+00  0.00000000000E+00 0. -1.
          4    1    1    2  501    0  0.65423188273E+01  0.31895425337E+01  0.22989085550E+02  0.24147175231E+02  0.12700000000E+01 0.  1.
         -4    1    1    2    0  501 -0.65423188273E+01 -0.31895425337E+01  0.43983347303E+02  0.44599583599E+02  0.12700000000E+01 0. -1.
<mgrwt>
<rscale>  0 0.73883704E+01</rscale>
<asrwt>0</asrwt>
<pdfrwt beam="1">0</pdfrwt>
<pdfrwt beam="2">0</pdfrwt>
<totfact> 0.15985815E+11</totfact>
</mgrwt>
</event>
<event>
 4    1  0.1733759E+006  0.2926009E+01  0.7546771E-02  0.2546092E+00
         22   -1    0    0    0    0  0.00000000000E+00  0.00000000000E+00  0.30059791314E+00  0.30059791314E+00  0.00000000000E+00 0. -1.
         22   -1    0    0    0    0 -0.00000000000E+00 -0.00000000000E+00 -0.28563145642E+02  0.28563145642E+02  0.00000000000E+00 0.  1.
          4    1    1    2  501    0  0.22157999935E+01 -0.14278866351E+01 -0.14902070560E+02  0.15186613738E+02  0.12700000000E+01 0. -1.
         -4    1    1    2    0  501 -0.22157999935E+01  0.14278866351E+01 -0.13360477169E+02  0.13677129817E+02  0.12700000000E+01 0.  1.
<mgrwt>
<rscale>  0 0.29260092E+01</rscale>
<asrwt>0</asrwt>
<pdfrwt beam="1">0</pdfrwt>
<pdfrwt beam="2">0</pdfrwt>
<totfact> 0.16846604E+12</totfact>
</mgrwt>
</event>
<event>
 4    1  0.1733759E+006  0.2050423E+01  0.7546771E-02  0.2947500E+00
         22   -1    0    0    0    0  0.00000000000E+00  0.00000000000E+00  0.14536627193E+01  0.14536627193E+01  0.00000000000E+00 0. -1.
         22   -1    0    0    0    0 -0.00000000000E+00 -0.00000000000E+00 -0.30641794266E+01  0.30641794266E+01  0.00000000000E+00 0. -1.
          4    1    1    2  501    0 -0.13597392576E+01 -0.86165191718E+00 -0.13404684296E+01  0.24497123271E+01  0.12700000000E+01 0. -1.
         -4    1    1    2    0  501  0.13597392576E+01  0.86165191718E+00 -0.27004827769E+00  0.20681298188E+01  0.12700000000E+01 0. -1.
<mgrwt>
<rscale>  0 0.20504231E+01</rscale>
<asrwt>0</asrwt>
<pdfrwt beam="1">0</pdfrwt>
<pdfrwt beam="2">0</pdfrwt>
<totfact> 0.42143532E+12</totfact>
</mgrwt>
</event>
<event>
 4    1  0.1733759E+006  0.3622333E+01  0.7546771E-02  0.2355876E+00
         22   -1    0    0    0    0  0.00000000000E+00  0.00000000000E+00  0.15222995099E+01  0.15222995099E+01  0.00000000000E+00 0.  1.
         22   -1    0    0    0    0 -0.00000000000E+00 -0.00000000000E+00 -0.91975794873E+01  0.91975794873E+01  0.00000000000E+00 0. -1.
          4    1    1    2  501    0 -0.33643200474E+01 -0.43560113356E+00 -0.51815094473E+01  0.63221308023E+01  0.12700000000E+01 0. -1.
         -4    1    1    2    0  501  0.33643200474E+01  0.43560113356E+00 -0.24937705301E+01  0.43977481949E+01  0.12700000000E+01 0.  1.
<mgrwt>
<rscale>  0 0.36223332E+01</rscale>
<asrwt>0</asrwt>
<pdfrwt beam="1">0</pdfrwt>
<pdfrwt beam="2">0</pdfrwt>
<totfact> 0.10845266E+12</totfact>
</mgrwt>
</event>
<event>
 4    1  0.1733759E+006  0.2669486E+01  0.7546771E-02  0.2638218E+00
         22   -1    0    0    0    0  0.00000000000E+00  0.00000000000E+00  0.17093763003E+02  0.17093763003E+02  0.00000000000E+00 0.  1.
         22   -1    0    0    0    0 -0.00000000000E+00 -0.00000000000E+00 -0.42783135180E+00  0.42783135180E+00  0.00000000000E+00 0. -1.
          4    1    1    2  501    0  0.11943679928E+01  0.20215688754E+01  0.69317138982E+01  0.74279750395E+01  0.12700000000E+01 0.  1.
         -4    1    1    2    0  501 -0.11943679928E+01 -0.20215688754E+01  0.97342177527E+01  0.10093619315E+02  0.12700000000E+01 0. -1.
<mgrwt>
<rscale>  0 0.26694860E+01</rscale>
<asrwt>0</asrwt>
<pdfrwt beam="1">0</pdfrwt>
<pdfrwt beam="2">0</pdfrwt>
<totfact> 0.21563909E+12</totfact>
</mgrwt>
</event>
<event>
 4    1  0.1733759E+006  0.5493320E+01  0.7546771E-02  0.2068348E+00
         22   -1    0    0    0    0  0.00000000000E+00  0.00000000000E+00  0.70740954241E+00  0.70740954241E+00  0.00000000000E+00 0. -1.
         22   -1    0    0    0    0 -0.00000000000E+00 -0.00000000000E+00 -0.52776327477E+02  0.52776327477E+02  0.00000000000E+00 0.  1.
          4    1    1    2  501    0  0.52977152022E+01  0.70560139150E+00 -0.37743735647E+02  0.38141396675E+02  0.12700000000E+01 0. -1.
         -4    1    1    2    0  501 -0.52977152022E+01 -0.70560139150E+00 -0.14325182287E+02  0.15342340345E+02  0.12700000000E+01 0.  1.
<mgrwt>
<rscale>  0 0.54933196E+01</rscale>
<asrwt>0</asrwt>
<pdfrwt beam="1">0</pdfrwt>
<pdfrwt beam="2">0</pdfrwt>
<totfact> 0.28952473E+11</totfact>
</mgrwt>
</event>
<event>
 4    1  0.1733759E+006  0.2412060E+01  0.7546771E-02  0.2748617E+00
         22   -1    0    0    0    0  0.00000000000E+00  0.00000000000E+00  0.72124981509E+01  0.72124981509E+01  0.00000000000E+00 0. -1.
         22   -1    0    0    0    0 -0.00000000000E+00 -0.00000000000E+00 -0.10401300319E+01  0.10401300319E+01  0.00000000000E+00 0.  1.
          4    1    1    2  501    0  0.60504587724E+00  0.19593503062E+01  0.11312415619E+01  0.26641587053E+01  0.12700000000E+01 0.  1.
         -4    1    1    2    0  501 -0.60504587724E+00 -0.19593503062E+01  0.50411265571E+01  0.55884694775E+01  0.12700000000E+01 0. -1.
<mgrwt>
<rscale>  0 0.24120601E+01</rscale>
<asrwt>0</asrwt>
<pdfrwt beam="1">0</pdfrwt>
<pdfrwt beam="2">0</pdfrwt>
<totfact> 0.22482963E+12</totfact>
</mgrwt>
</event>
<event>
 4    1  0.1733759E+006  0.2877233E+01  0.7546771E-02  0.2562459E+00
         22   -1    0    0    0    0  0.00000000000E+00  0.00000000000E+00  0.92169034036E+00  0.92169034036E+00  0.00000000000E+00 0. -1.
         22   -1    0    0    0    0 -0.00000000000E+00 -0.00000000000E+00 -0.14212086135E+02  0.14212086135E+02  0.00000000000E+00 0.  1.
          4    1    1    2  501    0 -0.11837420021E+01  0.22944118838E+01 -0.20548071613E+01  0.35356333931E+01  0.12700000000E+01 0. -1.
         -4    1    1    2    0  501  0.11837420021E+01 -0.22944118838E+01 -0.11235588634E+02  0.11598143082E+02  0.12700000000E+01 0.  1.
<mgrwt>
<rscale>  0 0.28772332E+01</rscale>
<asrwt>0</asrwt>
<pdfrwt beam="1">0</pdfrwt>
<pdfrwt beam="2">0</pdfrwt>
<totfact> 0.11345746E+12</totfact>
</mgrwt>
</event>
<event>
 4    1  0.1733759E+006  0.2011907E+01  0.7546771E-02  0.2972735E+00
         22   -1    0    0    0    0  0.00000000000E+00  0.00000000000E+00  0.39193127604E+00  0.39193127604E+00  0.00000000000E+00 0.  1.
         22   -1    0    0    0    0 -0.00000000000E+00 -0.00000000000E+00 -0.11485148867E+02  0.11485148867E+02  0.00000000000E+00 0.  1.
          4    1    1    2  501    0 -0.48880888514E+00 -0.14818691511E+01 -0.74317848382E+01  0.76992984218E+01  0.12700000000E+01 0.  1.
         -4    1    1    2    0  501  0.48880888514E+00  0.14818691511E+01 -0.36614327527E+01  0.41777817211E+01  0.12700000000E+01 0.  1.
<mgrwt>
<rscale>  0 0.20119071E+01</rscale>
<asrwt>0</asrwt>
<pdfrwt beam="1">0</pdfrwt>
<pdfrwt beam="2">0</pdfrwt>
<totfact> 0.38768405E+12</totfact>
</mgrwt>
</event>
<event>
 4    1  0.1733759E+006  0.3074294E+01  0.7546771E-02  0.2499211E+00
         22   -1    0    0    0    0  0.00000000000E+00  0.00000000000E+00  0.40998661402E+01  0.40998661402E+01  0.00000000000E+00 0. -1.
         22   -1    0    0    0    0 -0.00000000000E+00 -0.00000000000E+00 -0.27198539748E+01  0.27198539748E+01  0.00000000000E+00 0.  1.
          4    1    1    2  501    0 -0.27140171139E+01 -0.68738266400E+00 -0.64128150159E+00  0.31404658549E+01  0.12700000000E+01 0. -1.
         -4    1    1    2    0  501  0.27140171139E+01  0.68738266400E+00  0.20212936670E+01  0.36792542600E+01  0.12700000000E+01 0.  1.
<mgrwt>
<rscale>  0 0.30742940E+01</rscale>
<asrwt>0</asrwt>
<pdfrwt beam="1">0</pdfrwt>
<pdfrwt beam="2">0</pdfrwt>
<totfact> 0.14504842E+12</totfact>
</mgrwt>
</event>
<event>
 4    1  0.1733759E+006  0.5174444E+01  0.7546771E-02  0.2102739E+00
         22   -1    0    0    0    0  0.00000000000E+00  0.00000000000E+00  0.34465642004E+01  0.34465642004E+01  0.00000000000E+00 0. -1.
         22   -1    0    0    0    0 -0.00000000000E+00 -0.00000000000E+00 -0.94959658360E+01  0.94959658360E+01  0.00000000000E+00 0.  1.
          4    1    1    2  501    0  0.66174026431E+00  0.49723309146E+01 -0.26465964253E+00  0.51812083173E+01  0.12700000000E+01 0. -1.
         -4    1    1    2    0  501 -0.66174026431E+00 -0.49723309146E+01 -0.57847419930E+01  0.77613217191E+01  0.12700000000E+01 0.  1.
<mgrwt>
<rscale>  0 0.51744444E+01</rscale>
<asrwt>0</asrwt>
<pdfrwt beam="1">0</pdfrwt>
<pdfrwt beam="2">0</pdfrwt>
<totfact> 0.40404243E+11</totfact>
</mgrwt>
</event>
<event>
 4    1  0.1733759E+006  0.2069014E+01  0.7546771E-02  0.2935648E+00
         22   -1    0    0    0    0  0.00000000000E+00  0.00000000000E+00  0.23715249417E+02  0.23715249417E+02  0.00000000000E+00 0. -1.
         22   -1    0    0    0    0 -0.00000000000E+00 -0.00000000000E+00 -0.50081773462E+00  0.50081773462E+00  0.00000000000E+00 0. -1.
          4    1    1    2  501    0 -0.15950802462E+01  0.35162058991E+00  0.19240337570E+01  0.28253714675E+01  0.12700000000E+01 0. -1.
         -4    1    1    2    0  501  0.15950802462E+01 -0.35162058991E+00  0.21290397926E+02  0.21390695684E+02  0.12700000000E+01 0. -1.
<mgrwt>
<rscale>  0 0.20690138E+01</rscale>
<asrwt>0</asrwt>
<pdfrwt beam="1">0</pdfrwt>
<pdfrwt beam="2">0</pdfrwt>
<totfact> 0.11998850E+12</totfact>
</mgrwt>
</event>
<event>
 4    1  0.1733759E+006  0.2133455E+01  0.7546771E-02  0.2896121E+00
         22   -1    0    0    0    0  0.00000000000E+00  0.00000000000E+00  0.51842444118E+01  0.51842444118E+01  0.00000000000E+00 0.  1.
         22   -1    0    0    0    0 -0.00000000000E+00 -0.00000000000E+00 -0.37571133739E+02  0.37571133739E+02  0.00000000000E+00 0. -1.
          4    1    1    2  501    0 -0.14425149026E+01  0.92621777873E+00 -0.37319877116E+02  0.37380808666E+02  0.12700000000E+01 0. -1.
         -4    1    1    2    0  501  0.14425149026E+01 -0.92621777873E+00  0.49329877887E+01  0.53745694843E+01  0.12700000000E+01 0.  1.
<mgrwt>
<rscale>  0 0.21334546E+01</rscale>
<asrwt>0</asrwt>
<pdfrwt beam="1">0</pdfrwt>
<pdfrwt beam="2">0</pdfrwt>
<totfact> 0.45004877E+10</totfact>
</mgrwt>
</event>
<event>
 4    1  0.1733759E+006  0.3381920E+01  0.7546771E-02  0.2413724E+00
         22   -1    0    0    0    0  0.00000000000E+00  0.00000000000E+00  0.20253587077E+02  0.20253587077E+02  0.00000000000E+00 0. -1.
         22   -1    0    0    0    0 -0.00000000000E+00 -0.00000000000E+00 -0.77720415442E+00  0.77720415442E+00  0.00000000000E+00 0.  1.
          4    1    1    2  501    0  0.24205832857E+01 -0.19912966081E+01  0.42398407442E+01  0.54234338901E+01  0.12700000000E+01 0.  1.
         -4    1    1    2    0  501 -0.24205832857E+01  0.19912966081E+01  0.15236542178E+02  0.15607357341E+02  0.12700000000E+01 0. -1.
<mgrwt>
<rscale>  0 0.33819204E+01</rscale>
<asrwt>0</asrwt>
<pdfrwt beam="1">0</pdfrwt>
<pdfrwt beam="2">0</pdfrwt>
<totfact> 0.88874353E+11</totfact>
</mgrwt>
</event>
<event>
 4    1  0.1733759E+006  0.2662822E+01  0.7546771E-02  0.2640826E+00
         22   -1    0    0    0    0  0.00000000000E+00  0.00000000000E+00  0.23548190076E+01  0.23548190076E+01  0.00000000000E+00 0. -1.
         22   -1    0    0    0    0 -0.00000000000E+00 -0.00000000000E+00 -0.52125304751E+01  0.52125304751E+01  0.00000000000E+00 0.  1.
          4    1    1    2  501    0 -0.49474526130E+00 -0.22875640866E+01 -0.38877556735E+01  0.47122464389E+01  0.12700000000E+01 0.  1.
         -4    1    1    2    0  501  0.49474526130E+00  0.22875640866E+01  0.10300442061E+01  0.28551030438E+01  0.12700000000E+01 0. -1.
<mgrwt>
<rscale>  0 0.26628222E+01</rscale>
<asrwt>0</asrwt>
<pdfrwt beam="1">0</pdfrwt>
<pdfrwt beam="2">0</pdfrwt>
<totfact> 0.12916174E+12</totfact>
</mgrwt>
</event>
<event>
 4    1  0.1733759E+006  0.2816924E+01  0.7546771E-02  0.2583404E+00
         22   -1    0    0    0    0  0.00000000000E+00  0.00000000000E+00  0.11977534336E+02  0.11977534336E+02  0.00000000000E+00 0. -1.
         22   -1    0    0    0    0 -0.00000000000E+00 -0.00000000000E+00 -0.66266956654E+00  0.66266956654E+00  0.00000000000E+00 0.  1.
          4    1    1    2  501    0  0.20849689076E+01  0.14053700785E+01  0.57599177291E+01  0.64118415958E+01  0.12700000000E+01 0. -1.
         -4    1    1    2    0  501 -0.20849689076E+01 -0.14053700785E+01  0.55549470406E+01  0.62283623070E+01  0.12700000000E+01 0.  1.
<mgrwt>
<rscale>  0 0.28169239E+01</rscale>
<asrwt>0</asrwt>
<pdfrwt beam="1">0</pdfrwt>
<pdfrwt beam="2">0</pdfrwt>
<totfact> 0.20354829E+12</totfact>
</mgrwt>
</event>
<event>
 4    1  0.1733759E+006  0.2206619E+01  0.7546771E-02  0.2853948E+00
         22   -1    0    0    0    0  0.00000000000E+00  0.00000000000E+00  0.42677043454E+02  0.42677043454E+02  0.00000000000E+00 0. -1.
         22   -1    0    0    0    0 -0.00000000000E+00 -0.00000000000E+00 -0.12257050755E+00  0.12257050755E+00  0.00000000000E+00 0. -1.
          4    1    1    2  501    0 -0.44603938261E+00 -0.17485189229E+01  0.15649414232E+02  0.15804218910E+02  0.12700000000E+01 0. -1.
         -4    1    1    2    0  501  0.44603938261E+00  0.17485189229E+01  0.26905058715E+02  0.26995395052E+02  0.12700000000E+01 0. -1.
<mgrwt>
<rscale>  0 0.22066195E+01</rscale>
<asrwt>0</asrwt>
<pdfrwt beam="1">0</pdfrwt>
<pdfrwt beam="2">0</pdfrwt>
<totfact> 0.27325218E+12</totfact>
</mgrwt>
</event>
<event>
 4    1  0.1733759E+006  0.4107523E+01  0.7546771E-02  0.2257201E+00
         22   -1    0    0    0    0  0.00000000000E+00  0.00000000000E+00  0.64235041935E+00  0.64235041935E+00  0.00000000000E+00 0.  1.
         22   -1    0    0    0    0 -0.00000000000E+00 -0.00000000000E+00 -0.26335374237E+02  0.26335374237E+02  0.00000000000E+00 0. -1.
          4    1    1    2  501    0  0.17329628591E+01  0.35008115006E+01 -0.13540649000E+02  0.14149944055E+02  0.12700000000E+01 0.  1.
         -4    1    1    2    0  501 -0.17329628591E+01 -0.35008115006E+01 -0.12152374818E+02  0.12827780601E+02  0.12700000000E+01 0. -1.
<mgrwt>
<rscale>  0 0.41075225E+01</rscale>
<asrwt>0</asrwt>
<pdfrwt beam="1">0</pdfrwt>
<pdfrwt beam="2">0</pdfrwt>
<totfact> 0.79339385E+11</totfact>
</mgrwt>
</event>
<event>
 4    1  0.1733759E+006  0.7020395E+01  0.7546771E-02  0.1938690E+00
         22   -1    0    0    0    0  0.00000000000E+00  0.00000000000E+00  0.28883945255E+01  0.28883945255E+01  0.00000000000E+00 0.  1.
         22   -1    0    0    0    0 -0.00000000000E+00 -0.00000000000E+00 -0.28916999494E+02  0.28916999494E+02  0.00000000000E+00 0. -1.
          4    1    1    2  501    0  0.59964659239E+01 -0.34227819044E+01 -0.23195962898E+02  0.24235070338E+02  0.12700000000E+01 0. -1.
         -4    1    1    2    0  501 -0.59964659239E+01  0.34227819044E+01 -0.28326420708E+01  0.75703236815E+01  0.12700000000E+01 0.  1.
<mgrwt>
<rscale>  0 0.70203945E+01</rscale>
<asrwt>0</asrwt>
<pdfrwt beam="1">0</pdfrwt>
<pdfrwt beam="2">0</pdfrwt>
<totfact> 0.12524348E+11</totfact>
</mgrwt>
</event>
<event>
 4    1  0.1733759E+006  0.2372357E+01  0.7546771E-02  0.2767626E+00
         22   -1    0    0    0    0  0.00000000000E+00  0.00000000000E+00  0.18870202132E+01  0.18870202132E+01  0.00000000000E+00 0. -1.
         22   -1    0    0    0    0 -0.00000000000E+00 -0.00000000000E+00 -0.32171165673E+01  0.32171165673E+01  0.00000000000E+00 0.  1.
          4    1    1    2  501    0  0.17816969591E+01  0.91691574191E+00 -0.13542053204E+01  0.27316571127E+01  0.12700000000E+01 0. -1.
         -4    1    1    2    0  501 -0.17816969591E+01 -0.91691574191E+00  0.24108966373E-01  0.23724796678E+01  0.12700000000E+01 0.  1.
<mgrwt>
<rscale>  0 0.23723572E+01</rscale>
<asrwt>0</asrwt>
<pdfrwt beam="1">0</pdfrwt>
<pdfrwt beam="2">0</pdfrwt>
<totfact> 0.29469883E+12</totfact>
</mgrwt>
</event>
<event>
 4    1  0.1733759E+006  0.2276825E+01  0.7546771E-02  0.2815924E+00
         22   -1    0    0    0    0  0.00000000000E+00  0.00000000000E+00  0.16059481696E+01  0.16059481696E+01  0.00000000000E+00 0. -1.
         22   -1    0    0    0    0 -0.00000000000E+00 -0.00000000000E+00 -0.32604056322E+01  0.32604056322E+01  0.00000000000E+00 0.  1.
          4    1    1    2  501    0  0.18844965110E+01 -0.14038233978E+00 -0.10699595699E+01  0.25157002569E+01  0.12700000000E+01 0. -1.
         -4    1    1    2    0  501 -0.18844965110E+01  0.14038233978E+00 -0.58449789263E+00  0.23506535449E+01  0.12700000000E+01 0.  1.
<mgrwt>
<rscale>  0 0.22768255E+01</rscale>
<asrwt>0</asrwt>
<pdfrwt beam="1">0</pdfrwt>
<pdfrwt beam="2">0</pdfrwt>
<totfact> 0.34947622E+12</totfact>
</mgrwt>
</event>
<event>
 4    1  0.1733759E+006  0.2613074E+01  0.7546771E-02  0.2660685E+00
         22   -1    0    0    0    0  0.00000000000E+00  0.00000000000E+00  0.28738905871E+01  0.28738905871E+01  0.00000000000E+00 0. -1.
         22   -1    0    0    0    0 -0.00000000000E+00 -0.00000000000E+00 -0.24616478463E+01  0.24616478463E+01  0.00000000000E+00 0.  1.
          4    1    1    2  501    0 -0.15301116123E+01  0.16952922437E+01 -0.29170258382E+00  0.26293055614E+01  0.12700000000E+01 0.  1.
         -4    1    1    2    0  501  0.15301116123E+01 -0.16952922437E+01  0.70394532459E+00  0.27062328721E+01  0.12700000000E+01 0. -1.
<mgrwt>
<rscale>  0 0.26130743E+01</rscale>
<asrwt>0</asrwt>
<pdfrwt beam="1">0</pdfrwt>
<pdfrwt beam="2">0</pdfrwt>
<totfact> 0.24705668E+12</totfact>
</mgrwt>
</event>
<event>
 4    1  0.1733759E+006  0.2819466E+01  0.7546771E-02  0.2582504E+00
         22   -1    0    0    0    0  0.00000000000E+00  0.00000000000E+00  0.36477447155E+01  0.36477447155E+01  0.00000000000E+00 0.  1.
         22   -1    0    0    0    0 -0.00000000000E+00 -0.00000000000E+00 -0.22508589639E+01  0.22508589639E+01  0.00000000000E+00 0. -1.
          4    1    1    2  501    0  0.23170981723E+01 -0.98363906467E+00  0.17243312843E+00  0.28247341350E+01  0.12700000000E+01 0. -1.
         -4    1    1    2    0  501 -0.23170981723E+01  0.98363906467E+00  0.12244526232E+01  0.30738695444E+01  0.12700000000E+01 0.  1.
<mgrwt>
<rscale>  0 0.28194662E+01</rscale>
<asrwt>0</asrwt>
<pdfrwt beam="1">0</pdfrwt>
<pdfrwt beam="2">0</pdfrwt>
<totfact> 0.20737711E+12</totfact>
</mgrwt>
</event>
<event>
 4    1  0.1733759E+006  0.2165741E+01  0.7546771E-02  0.2877172E+00
         22   -1    0    0    0    0  0.00000000000E+00  0.00000000000E+00  0.75394988940E+00  0.75394988940E+00  0.00000000000E+00 0. -1.
         22   -1    0    0    0    0 -0.00000000000E+00 -0.00000000000E+00 -0.24396877224E+02  0.24396877224E+02  0.00000000000E+00 0. -1.
          4    1    1    2  501    0 -0.17497894514E+01  0.12558782520E+00 -0.22675744476E+02  0.22778933754E+02  0.12700000000E+01 0. -1.
         -4    1    1    2    0  501  0.17497894514E+01 -0.12558782520E+00 -0.96718285836E+00  0.23718933592E+01  0.12700000000E+01 0. -1.
<mgrwt>
<rscale>  0 0.21657413E+01</rscale>
<asrwt>0</asrwt>
<pdfrwt beam="1">0</pdfrwt>
<pdfrwt beam="2">0</pdfrwt>
<totfact> 0.72845480E+11</totfact>
</mgrwt>
</event>
<event>
 4    1  0.1733759E+006  0.2682195E+01  0.7546771E-02  0.2633277E+00
         22   -1    0    0    0    0  0.00000000000E+00  0.00000000000E+00  0.20161272162E+02  0.20161272162E+02  0.00000000000E+00 0.  1.
         22   -1    0    0    0    0 -0.00000000000E+00 -0.00000000000E+00 -0.36948439298E+00  0.36948439298E+00  0.00000000000E+00 0.  1.
          4    1    1    2  501    0  0.18255555198E+01  0.14995381314E+01  0.79962165210E+01  0.84340764885E+01  0.12700000000E+01 0.  1.
         -4    1    1    2    0  501 -0.18255555198E+01 -0.14995381314E+01  0.11795571248E+02  0.12096680066E+02  0.12700000000E+01 0.  1.
<mgrwt>
<rscale>  0 0.26821945E+01</rscale>
<asrwt>0</asrwt>
<pdfrwt beam="1">0</pdfrwt>
<pdfrwt beam="2">0</pdfrwt>
<totfact> 0.20717184E+12</totfact>
</mgrwt>
</event>
<event>
 4    1  0.1733759E+006  0.4603946E+01  0.7546771E-02  0.2174848E+00
         22   -1    0    0    0    0  0.00000000000E+00  0.00000000000E+00  0.24737152874E+01  0.24737152874E+01  0.00000000000E+00 0.  1.
         22   -1    0    0    0    0 -0.00000000000E+00 -0.00000000000E+00 -0.19867048147E+02  0.19867048147E+02  0.00000000000E+00 0. -1.
          4    1    1    2  501    0  0.15822553102E+01  0.41327818009E+01 -0.17120512572E+02  0.17728741298E+02  0.12700000000E+01 0. -1.
         -4    1    1    2    0  501 -0.15822553102E+01 -0.41327818009E+01 -0.27282028792E+00  0.46120221367E+01  0.12700000000E+01 0.  1.
<mgrwt>
<rscale>  0 0.46039458E+01</rscale>
<asrwt>0</asrwt>
<pdfrwt beam="1">0</pdfrwt>
<pdfrwt beam="2">0</pdfrwt>
<totfact> 0.24063735E+11</totfact>
</mgrwt>
</event>
<event>
 4    1  0.1733759E+006  0.3259000E+01  0.7546771E-02  0.2446170E+00
         22   -1    0    0    0    0  0.00000000000E+00  0.00000000000E+00  0.97900879782E+01  0.97900879782E+01  0.00000000000E+00 0.  1.
         22   -1    0    0    0    0 -0.00000000000E+00 -0.00000000000E+00 -0.10916242132E+01  0.10916242132E+01  0.00000000000E+00 0.  1.
          4    1    1    2  501    0  0.15375104167E+00 -0.29974221420E+01  0.39216008420E+01  0.50990226557E+01  0.12700000000E+01 0.  1.
         -4    1    1    2    0  501 -0.15375104167E+00  0.29974221420E+01  0.47768629230E+01  0.57826895356E+01  0.12700000000E+01 0.  1.
<mgrwt>
<rscale>  0 0.32589997E+01</rscale>
<asrwt>0</asrwt>
<pdfrwt beam="1">0</pdfrwt>
<pdfrwt beam="2">0</pdfrwt>
<totfact> 0.14728921E+12</totfact>
</mgrwt>
</event>
<event>
 4    1  0.1733759E+006  0.2325072E+01  0.7546771E-02  0.2791063E+00
         22   -1    0    0    0    0  0.00000000000E+00  0.00000000000E+00  0.15518874257E+01  0.15518874257E+01  0.00000000000E+00 0.  1.
         22   -1    0    0    0    0 -0.00000000000E+00 -0.00000000000E+00 -0.39981292796E+01  0.39981292796E+01  0.00000000000E+00 0.  1.
          4    1    1    2  501    0  0.62779663105E+00  0.18436187005E+01 -0.22187426403E+01  0.32138415373E+01  0.12700000000E+01 0.  1.
         -4    1    1    2    0  501 -0.62779663105E+00 -0.18436187005E+01 -0.22749921359E+00  0.23361751679E+01  0.12700000000E+01 0.  1.
<mgrwt>
<rscale>  0 0.23250717E+01</rscale>
<asrwt>0</asrwt>
<pdfrwt beam="1">0</pdfrwt>
<pdfrwt beam="2">0</pdfrwt>
<totfact> 0.28614358E+12</totfact>
</mgrwt>
</event>
<event>
 4    1  0.1733759E+006  0.2041033E+01  0.7546771E-02  0.2953567E+00
         22   -1    0    0    0    0  0.00000000000E+00  0.00000000000E+00  0.17876230801E+00  0.17876230801E+00  0.00000000000E+00 0.  1.
         22   -1    0    0    0    0 -0.00000000000E+00 -0.00000000000E+00 -0.27381133726E+02  0.27381133726E+02  0.00000000000E+00 0. -1.
          4    1    1    2  501    0  0.15666461455E+01 -0.31390287255E+00 -0.18918810817E+02  0.19028589487E+02  0.12700000000E+01 0.  1.
         -4    1    1    2    0  501 -0.15666461455E+01  0.31390287255E+00 -0.82835606014E+01  0.85313065468E+01  0.12700000000E+01 0.  1.
<mgrwt>
<rscale>  0 0.20410329E+01</rscale>
<asrwt>0</asrwt>
<pdfrwt beam="1">0</pdfrwt>
<pdfrwt beam="2">0</pdfrwt>
<totfact> 0.31769586E+12</totfact>
</mgrwt>
</event>
<event>
 4    1  0.1733759E+006  0.4065651E+01  0.7546771E-02  0.2264918E+00
         22   -1    0    0    0    0  0.00000000000E+00  0.00000000000E+00  0.25641643042E+01  0.25641643042E+01  0.00000000000E+00 0.  1.
         22   -1    0    0    0    0 -0.00000000000E+00 -0.00000000000E+00 -0.68649934457E+01  0.68649934457E+01  0.00000000000E+00 0. -1.
          4    1    1    2  501    0 -0.17692357261E+01  0.34331358311E+01 -0.33146524580E+01  0.52456112710E+01  0.12700000000E+01 0.  1.
         -4    1    1    2    0  501  0.17692357261E+01 -0.34331358311E+01 -0.98617668348E+00  0.41835464788E+01  0.12700000000E+01 0. -1.
<mgrwt>
<rscale>  0 0.40656508E+01</rscale>
<asrwt>0</asrwt>
<pdfrwt beam="1">0</pdfrwt>
<pdfrwt beam="2">0</pdfrwt>
<totfact> 0.84291196E+11</totfact>
</mgrwt>
</event>
<event>
 4    1  0.1733759E+006  0.2253739E+01  0.7546771E-02  0.2828178E+00
         22   -1    0    0    0    0  0.00000000000E+00  0.00000000000E+00  0.25100370144E+01  0.25100370144E+01  0.00000000000E+00 0. -1.
         22   -1    0    0    0    0 -0.00000000000E+00 -0.00000000000E+00 -0.23402945005E+01  0.23402945005E+01  0.00000000000E+00 0.  1.
          4    1    1    2  501    0  0.15696698764E+01  0.10012870559E+01 -0.80723929831E+00  0.23939453991E+01  0.12700000000E+01 0. -1.
         -4    1    1    2    0  501 -0.15696698764E+01 -0.10012870559E+01  0.97698181220E+00  0.24563861159E+01  0.12700000000E+01 0.  1.
<mgrwt>
<rscale>  0 0.22537390E+01</rscale>
<asrwt>0</asrwt>
<pdfrwt beam="1">0</pdfrwt>
<pdfrwt beam="2">0</pdfrwt>
<totfact> 0.30675640E+12</totfact>
</mgrwt>
</event>
<event>
 4    1  0.1733759E+006  0.2114091E+01  0.7546771E-02  0.2907753E+00
         22   -1    0    0    0    0  0.00000000000E+00  0.00000000000E+00  0.70038120401E+01  0.70038120401E+01  0.00000000000E+00 0.  1.
         22   -1    0    0    0    0 -0.00000000000E+00 -0.00000000000E+00 -0.11251242126E+01  0.11251242126E+01  0.00000000000E+00 0.  1.
          4    1    1    2  501    0 -0.16149470539E+01 -0.49842258701E+00  0.26533368615E+00  0.21306761901E+01  0.12700000000E+01 0.  1.
         -4    1    1    2    0  501  0.16149470539E+01  0.49842258701E+00  0.56133541413E+01  0.59982600625E+01  0.12700000000E+01 0.  1.
<mgrwt>
<rscale>  0 0.21140906E+01</rscale>
<asrwt>0</asrwt>
<pdfrwt beam="1">0</pdfrwt>
<pdfrwt beam="2">0</pdfrwt>
<totfact> 0.21285337E+12</totfact>
</mgrwt>
</event>
<event>
 4    1  0.1733759E+006  0.2972220E+01  0.7546771E-02  0.2531032E+00
         22   -1    0    0    0    0  0.00000000000E+00  0.00000000000E+00  0.22151930690E+02  0.22151930690E+02  0.00000000000E+00 0. -1.
         22   -1    0    0    0    0 -0.00000000000E+00 -0.00000000000E+00 -0.40280015347E+00  0.40280015347E+00  0.00000000000E+00 0.  1.
          4    1    1    2  501    0  0.19282619296E+00  0.26803007011E+01  0.97501241734E+01  0.10193086637E+02  0.12700000000E+01 0. -1.
         -4    1    1    2    0  501 -0.19282619296E+00 -0.26803007011E+01  0.11999006363E+02  0.12361644207E+02  0.12700000000E+01 0. -1.
<mgrwt>
<rscale>  0 0.29722203E+01</rscale>
<asrwt>0</asrwt>
<pdfrwt beam="1">0</pdfrwt>
<pdfrwt beam="2">0</pdfrwt>
<totfact> 0.16711671E+12</totfact>
</mgrwt>
</event>
<event>
 4    1  0.1733759E+006  0.2076475E+01  0.7546771E-02  0.2930950E+00
         22   -1    0    0    0    0  0.00000000000E+00  0.00000000000E+00  0.55804182822E+02  0.55804182822E+02  0.00000000000E+00 0. -1.
         22   -1    0    0    0    0 -0.00000000000E+00 -0.00000000000E+00 -0.13203768396E+00  0.13203768396E+00  0.00000000000E+00 0.  1.
          4    1    1    2  501    0 -0.16396612907E+01 -0.10177265716E+00  0.98227600997E+01  0.10039838784E+02  0.12700000000E+01 0.  1.
         -4    1    1    2    0  501  0.16396612907E+01  0.10177265716E+00  0.45849385038E+02  0.45896381722E+02  0.12700000000E+01 0. -1.
<mgrwt>
<rscale>  0 0.20764746E+01</rscale>
<asrwt>0</asrwt>
<pdfrwt beam="1">0</pdfrwt>
<pdfrwt beam="2">0</pdfrwt>
<totfact> 0.17673797E+12</totfact>
</mgrwt>
</event>
<event>
 4    1  0.1733759E+006  0.2951164E+01  0.7546771E-02  0.2537841E+00
         22   -1    0    0    0    0  0.00000000000E+00  0.00000000000E+00  0.29781693547E+01  0.29781693547E+01  0.00000000000E+00 0.  1.
         22   -1    0    0    0    0 -0.00000000000E+00 -0.00000000000E+00 -0.29321442752E+01  0.29321442752E+01  0.00000000000E+00 0. -1.
          4    1    1    2  501    0 -0.55644644431E+00  0.26051556850E+01  0.17485072264E+00  0.29563392166E+01  0.12700000000E+01 0. -1.
         -4    1    1    2    0  501  0.55644644431E+00 -0.26051556850E+01 -0.12882564313E+00  0.29539744134E+01  0.12700000000E+01 0.  1.
<mgrwt>
<rscale>  0 0.29511640E+01</rscale>
<asrwt>0</asrwt>
<pdfrwt beam="1">0</pdfrwt>
<pdfrwt beam="2">0</pdfrwt>
<totfact> 0.19329785E+12</totfact>
</mgrwt>
</event>
<event>
 4    1  0.1733759E+006  0.2594957E+01  0.7546771E-02  0.2668091E+00
         22   -1    0    0    0    0  0.00000000000E+00  0.00000000000E+00  0.15990392987E+00  0.15990392987E+00  0.00000000000E+00 0.  1.
         22   -1    0    0    0    0 -0.00000000000E+00 -0.00000000000E+00 -0.42138398350E+02  0.42138398350E+02  0.00000000000E+00 0. -1.
          4    1    1    2  501    0  0.19708454754E+01 -0.11120572110E+01 -0.21523040030E+02  0.21678908073E+02  0.12700000000E+01 0.  1.
         -4    1    1    2    0  501 -0.19708454754E+01  0.11120572110E+01 -0.20455454390E+02  0.20619394206E+02  0.12700000000E+01 0. -1.
<mgrwt>
<rscale>  0 0.25949572E+01</rscale>
<asrwt>0</asrwt>
<pdfrwt beam="1">0</pdfrwt>
<pdfrwt beam="2">0</pdfrwt>
<totfact> 0.20676883E+12</totfact>
</mgrwt>
</event>
<event>
 4    1  0.1733759E+006  0.2087918E+01  0.7546771E-02  0.2923807E+00
         22   -1    0    0    0    0  0.00000000000E+00  0.00000000000E+00  0.12629946631E+01  0.12629946631E+01  0.00000000000E+00 0.  1.
         22   -1    0    0    0    0 -0.00000000000E+00 -0.00000000000E+00 -0.47631187990E+01  0.47631187990E+01  0.00000000000E+00 0. -1.
          4    1    1    2  501    0  0.13576331081E+01 -0.95043966787E+00 -0.33310996639E+01  0.39313646727E+01  0.12700000000E+01 0.  1.
         -4    1    1    2    0  501 -0.13576331081E+01  0.95043966787E+00 -0.16902447199E+00  0.20947487894E+01  0.12700000000E+01 0. -1.
<mgrwt>
<rscale>  0 0.20879184E+01</rscale>
<asrwt>0</asrwt>
<pdfrwt beam="1">0</pdfrwt>
<pdfrwt beam="2">0</pdfrwt>
<totfact> 0.29490023E+12</totfact>
</mgrwt>
</event>
<event>
 4    1  0.1733759E+006  0.3483363E+01  0.7546771E-02  0.2388466E+00
         22   -1    0    0    0    0  0.00000000000E+00  0.00000000000E+00  0.79479800964E+01  0.79479800964E+01  0.00000000000E+00 0.  1.
         22   -1    0    0    0    0 -0.00000000000E+00 -0.00000000000E+00 -0.22837298035E+01  0.22837298035E+01  0.00000000000E+00 0. -1.
          4    1    1    2  501    0 -0.14995924532E+01  0.28761333694E+01 -0.11341782174E+00  0.34852093605E+01  0.12700000000E+01 0. -1.
         -4    1    1    2    0  501  0.14995924532E+01 -0.28761333694E+01  0.57776681147E+01  0.67465005394E+01  0.12700000000E+01 0.  1.
<mgrwt>
<rscale>  0 0.34833634E+01</rscale>
<asrwt>0</asrwt>
<pdfrwt beam="1">0</pdfrwt>
<pdfrwt beam="2">0</pdfrwt>
<totfact> 0.80913181E+11</totfact>
</mgrwt>
</event>
<event>
 4    1  0.1733759E+006  0.2216548E+01  0.7546771E-02  0.2848431E+00
         22   -1    0    0    0    0  0.00000000000E+00  0.00000000000E+00  0.50895318550E+00  0.50895318550E+00  0.00000000000E+00 0.  1.
         22   -1    0    0    0    0 -0.00000000000E+00 -0.00000000000E+00 -0.22777738665E+02  0.22777738665E+02  0.00000000000E+00 0. -1.
          4    1    1    2  501    0 -0.99015010515E+00  0.15230846085E+01 -0.19972569151E+02  0.20095188540E+02  0.12700000000E+01 0. -1.
         -4    1    1    2    0  501  0.99015010515E+00 -0.15230846085E+01 -0.22962163284E+01  0.31915033107E+01  0.12700000000E+01 0.  1.
<mgrwt>
<rscale>  0 0.22165478E+01</rscale>
<asrwt>0</asrwt>
<pdfrwt beam="1">0</pdfrwt>
<pdfrwt beam="2">0</pdfrwt>
<totfact> 0.12395509E+12</totfact>
</mgrwt>
</event>
<event>
 4    1  0.1733759E+006  0.2082998E+01  0.7546771E-02  0.2926869E+00
         22   -1    0    0    0    0  0.00000000000E+00  0.00000000000E+00  0.50004054196E+00  0.50004054196E+00  0.00000000000E+00 0.  1.
         22   -1    0    0    0    0 -0.00000000000E+00 -0.00000000000E+00 -0.91300588878E+01  0.91300588878E+01  0.00000000000E+00 0. -1.
          4    1    1    2  501    0 -0.15580075649E+01 -0.54643826251E+00 -0.53875455109E+01  0.57762036823E+01  0.12700000000E+01 0.  1.
         -4    1    1    2    0  501  0.15580075649E+01  0.54643826251E+00 -0.32424728350E+01  0.38538957475E+01  0.12700000000E+01 0. -1.
<mgrwt>
<rscale>  0 0.20829984E+01</rscale>
<asrwt>0</asrwt>
<pdfrwt beam="1">0</pdfrwt>
<pdfrwt beam="2">0</pdfrwt>
<totfact> 0.38906601E+12</totfact>
</mgrwt>
</event>
<event>
 4    1  0.1733759E+006  0.2188960E+01  0.7546771E-02  0.2863879E+00
         22   -1    0    0    0    0  0.00000000000E+00  0.00000000000E+00  0.18860073111E+00  0.18860073111E+00  0.00000000000E+00 0. -1.
         22   -1    0    0    0    0 -0.00000000000E+00 -0.00000000000E+00 -0.25542703039E+02  0.25542703039E+02  0.00000000000E+00 0. -1.
          4    1    1    2  501    0 -0.96089039674E+00  0.15017774675E+01 -0.11735031657E+02  0.11937441682E+02  0.12700000000E+01 0. -1.
         -4    1    1    2    0  501  0.96089039674E+00 -0.15017774675E+01 -0.13619070650E+02  0.13793862088E+02  0.12700000000E+01 0. -1.
<mgrwt>
<rscale>  0 0.21889600E+01</rscale>
<asrwt>0</asrwt>
<pdfrwt beam="1">0</pdfrwt>
<pdfrwt beam="2">0</pdfrwt>
<totfact> 0.32680852E+12</totfact>
</mgrwt>
</event>
<event>
 4    1  0.1733759E+006  0.3683472E+01  0.7546771E-02  0.2342217E+00
         22   -1    0    0    0    0  0.00000000000E+00  0.00000000000E+00  0.10164136366E+02  0.10164136366E+02  0.00000000000E+00 0. -1.
         22   -1    0    0    0    0 -0.00000000000E+00 -0.00000000000E+00 -0.14445578376E+01  0.14445578376E+01  0.00000000000E+00 0. -1.
          4    1    1    2  501    0 -0.32509511933E+01 -0.11774467157E+01  0.27604770453E+01  0.46030639739E+01  0.12700000000E+01 0. -1.
         -4    1    1    2    0  501  0.32509511933E+01  0.11774467157E+01  0.59591014835E+01  0.70056302301E+01  0.12700000000E+01 0. -1.
<mgrwt>
<rscale>  0 0.36834718E+01</rscale>
<asrwt>0</asrwt>
<pdfrwt beam="1">0</pdfrwt>
<pdfrwt beam="2">0</pdfrwt>
<totfact> 0.10208073E+12</totfact>
</mgrwt>
</event>
<event>
 4    1  0.1733759E+006  0.3396219E+01  0.7546771E-02  0.2410084E+00
         22   -1    0    0    0    0  0.00000000000E+00  0.00000000000E+00  0.81312617321E+01  0.81312617321E+01  0.00000000000E+00 0. -1.
         22   -1    0    0    0    0 -0.00000000000E+00 -0.00000000000E+00 -0.14509072611E+01  0.14509072611E+01  0.00000000000E+00 0.  1.
          4    1    1    2  501    0 -0.27680326887E+01 -0.15031303669E+01  0.26242916844E+01  0.42919940250E+01  0.12700000000E+01 0.  1.
         -4    1    1    2    0  501  0.27680326887E+01  0.15031303669E+01  0.40560627866E+01  0.52901749682E+01  0.12700000000E+01 0. -1.
<mgrwt>
<rscale>  0 0.33962193E+01</rscale>
<asrwt>0</asrwt>
<pdfrwt beam="1">0</pdfrwt>
<pdfrwt beam="2">0</pdfrwt>
<totfact> 0.13295505E+12</totfact>
</mgrwt>
</event>
<event>
 4    1  0.1733759E+006  0.3154009E+01  0.7546771E-02  0.2475644E+00
         22   -1    0    0    0    0  0.00000000000E+00  0.00000000000E+00  0.38409280675E+01  0.38409280675E+01  0.00000000000E+00 0. -1.
         22   -1    0    0    0    0 -0.00000000000E+00 -0.00000000000E+00 -0.25913993664E+01  0.25913993664E+01  0.00000000000E+00 0.  1.
          4    1    1    2  501    0 -0.11267352940E+01  0.26580706435E+01  0.54843310228E+00  0.32013357894E+01  0.12700000000E+01 0. -1.
         -4    1    1    2    0  501  0.11267352940E+01 -0.26580706435E+01  0.70109559883E+00  0.32309916446E+01  0.12700000000E+01 0.  1.
<mgrwt>
<rscale>  0 0.31540089E+01</rscale>
<asrwt>0</asrwt>
<pdfrwt beam="1">0</pdfrwt>
<pdfrwt beam="2">0</pdfrwt>
<totfact> 0.16569968E+12</totfact>
</mgrwt>
</event>
<event>
 4    1  0.1733759E+006  0.3116753E+01  0.7546771E-02  0.2486525E+00
         22   -1    0    0    0    0  0.00000000000E+00  0.00000000000E+00  0.43503732023E+01  0.43503732023E+01  0.00000000000E+00 0.  1.
         22   -1    0    0    0    0 -0.00000000000E+00 -0.00000000000E+00 -0.24667023633E+01  0.24667023633E+01  0.00000000000E+00 0. -1.
          4    1    1    2  501    0 -0.28437290650E+01 -0.12021818740E+00 -0.10744526667E+00  0.31186041578E+01  0.12700000000E+01 0. -1.
         -4    1    1    2    0  501  0.28437290650E+01  0.12021818740E+00  0.19911161057E+01  0.36984714078E+01  0.12700000000E+01 0.  1.
<mgrwt>
<rscale>  0 0.31167527E+01</rscale>
<asrwt>0</asrwt>
<pdfrwt beam="1">0</pdfrwt>
<pdfrwt beam="2">0</pdfrwt>
<totfact> 0.15154896E+12</totfact>
</mgrwt>
</event>
<event>
 4    1  0.1733759E+006  0.2559403E+01  0.7546771E-02  0.2682907E+00
         22   -1    0    0    0    0  0.00000000000E+00  0.00000000000E+00  0.40143934344E+01  0.40143934344E+01  0.00000000000E+00 0. -1.
         22   -1    0    0    0    0 -0.00000000000E+00 -0.00000000000E+00 -0.16523693962E+01  0.16523693962E+01  0.00000000000E+00 0. -1.
          4    1    1    2  501    0  0.21230405591E+01 -0.65600326162E+00  0.14974182935E+01  0.29652660994E+01  0.12700000000E+01 0. -1.
         -4    1    1    2    0  501 -0.21230405591E+01  0.65600326162E+00  0.86460574473E+00  0.27014967312E+01  0.12700000000E+01 0. -1.
<mgrwt>
<rscale>  0 0.25594026E+01</rscale>
<asrwt>0</asrwt>
<pdfrwt beam="1">0</pdfrwt>
<pdfrwt beam="2">0</pdfrwt>
<totfact> 0.26492735E+12</totfact>
</mgrwt>
</event>
<event>
 4    1  0.1733759E+006  0.4264567E+01  0.7546771E-02  0.2229405E+00
         22   -1    0    0    0    0  0.00000000000E+00  0.00000000000E+00  0.74290328137E+01  0.74290328137E+01  0.00000000000E+00 0.  1.
         22   -1    0    0    0    0 -0.00000000000E+00 -0.00000000000E+00 -0.83237406062E+01  0.83237406062E+01  0.00000000000E+00 0. -1.
          4    1    1    2  501    0  0.30600978272E+01  0.26850390636E+01 -0.70649121056E+01  0.82522431220E+01  0.12700000000E+01 0. -1.
         -4    1    1    2    0  501 -0.30600978272E+01 -0.26850390636E+01  0.61702043131E+01  0.75005302979E+01  0.12700000000E+01 0.  1.
<mgrwt>
<rscale>  0 0.42645672E+01</rscale>
<asrwt>0</asrwt>
<pdfrwt beam="1">0</pdfrwt>
<pdfrwt beam="2">0</pdfrwt>
<totfact> 0.19066343E+11</totfact>
</mgrwt>
</event>
<event>
 4    1  0.1733759E+006  0.2121416E+01  0.7546771E-02  0.2903328E+00
         22   -1    0    0    0    0  0.00000000000E+00  0.00000000000E+00  0.78415329987E+00  0.78415329987E+00  0.00000000000E+00 0. -1.
         22   -1    0    0    0    0 -0.00000000000E+00 -0.00000000000E+00 -0.61571257382E+01  0.61571257382E+01  0.00000000000E+00 0. -1.
          4    1    1    2  501    0  0.15960774868E+01 -0.58313232833E+00 -0.35907060053E+01  0.41705606665E+01  0.12700000000E+01 0. -1.
         -4    1    1    2    0  501 -0.15960774868E+01  0.58313232833E+00 -0.17822664329E+01  0.27707183715E+01  0.12700000000E+01 0. -1.
<mgrwt>
<rscale>  0 0.21214162E+01</rscale>
<asrwt>0</asrwt>
<pdfrwt beam="1">0</pdfrwt>
<pdfrwt beam="2">0</pdfrwt>
<totfact> 0.37475394E+12</totfact>
</mgrwt>
</event>
<event>
 4    1  0.1733759E+006  0.2938113E+01  0.7546771E-02  0.2542106E+00
         22   -1    0    0    0    0  0.00000000000E+00  0.00000000000E+00  0.26371188173E+01  0.26371188173E+01  0.00000000000E+00 0. -1.
         22   -1    0    0    0    0 -0.00000000000E+00 -0.00000000000E+00 -0.33381175627E+01  0.33381175627E+01  0.00000000000E+00 0.  1.
          4    1    1    2  501    0 -0.16793646255E+01 -0.20492301408E+01 -0.76629062440E+00  0.30363977072E+01  0.12700000000E+01 0.  1.
         -4    1    1    2    0  501  0.16793646255E+01  0.20492301408E+01  0.65291878927E-01  0.29388386728E+01  0.12700000000E+01 0. -1.
<mgrwt>
<rscale>  0 0.29381133E+01</rscale>
<asrwt>0</asrwt>
<pdfrwt beam="1">0</pdfrwt>
<pdfrwt beam="2">0</pdfrwt>
<totfact> 0.19141421E+12</totfact>
</mgrwt>
</event>
<event>
 4    1  0.1733759E+006  0.2579515E+01  0.7546771E-02  0.2674480E+00
         22   -1    0    0    0    0  0.00000000000E+00  0.00000000000E+00  0.15199516273E+01  0.15199516273E+01  0.00000000000E+00 0. -1.
         22   -1    0    0    0    0 -0.00000000000E+00 -0.00000000000E+00 -0.55677058338E+01  0.55677058338E+01  0.00000000000E+00 0.  1.
          4    1    1    2  501    0 -0.22194905807E+01 -0.33890527366E+00 -0.36622349710E+01  0.44794932978E+01  0.12700000000E+01 0.  1.
         -4    1    1    2    0  501  0.22194905807E+01  0.33890527366E+00 -0.38551923551E+00  0.26081641634E+01  0.12700000000E+01 0. -1.
<mgrwt>
<rscale>  0 0.25795145E+01</rscale>
<asrwt>0</asrwt>
<pdfrwt beam="1">0</pdfrwt>
<pdfrwt beam="2">0</pdfrwt>
<totfact> 0.19814311E+12</totfact>
</mgrwt>
</event>
<event>
 4    1  0.1733759E+006  0.2208277E+01  0.7546771E-02  0.2853023E+00
         22   -1    0    0    0    0  0.00000000000E+00  0.00000000000E+00  0.11771322246E+02  0.11771322246E+02  0.00000000000E+00 0. -1.
         22   -1    0    0    0    0 -0.00000000000E+00 -0.00000000000E+00 -0.27105707775E+01  0.27105707775E+01  0.00000000000E+00 0. -1.
          4    1    1    2  501    0  0.13554235839E+01  0.11943265893E+01 -0.21343070450E+01  0.30711163534E+01  0.12700000000E+01 0. -1.
         -4    1    1    2    0  501 -0.13554235839E+01 -0.11943265893E+01  0.11195058514E+02  0.11410776670E+02  0.12700000000E+01 0. -1.
<mgrwt>
<rscale>  0 0.22082774E+01</rscale>
<asrwt>0</asrwt>
<pdfrwt beam="1">0</pdfrwt>
<pdfrwt beam="2">0</pdfrwt>
<totfact> 0.41221810E+11</totfact>
</mgrwt>
</event>
<event>
 4    1  0.1733759E+006  0.2403501E+01  0.7546771E-02  0.2752665E+00
         22   -1    0    0    0    0  0.00000000000E+00  0.00000000000E+00  0.70263326855E+00  0.70263326855E+00  0.00000000000E+00 0.  1.
         22   -1    0    0    0    0 -0.00000000000E+00 -0.00000000000E+00 -0.86422942482E+01  0.86422942482E+01  0.00000000000E+00 0.  1.
          4    1    1    2  501    0 -0.16687235058E+01 -0.11744276780E+01 -0.50006409829E+01  0.55482635797E+01  0.12700000000E+01 0.  1.
         -4    1    1    2    0  501  0.16687235058E+01  0.11744276780E+01 -0.29390199968E+01  0.37966639371E+01  0.12700000000E+01 0.  1.
<mgrwt>
<rscale>  0 0.24035013E+01</rscale>
<asrwt>0</asrwt>
<pdfrwt beam="1">0</pdfrwt>
<pdfrwt beam="2">0</pdfrwt>
<totfact> 0.28284722E+12</totfact>
</mgrwt>
</event>
<event>
 4    1  0.1733759E+006  0.3560624E+01  0.7546771E-02  0.2370075E+00
         22   -1    0    0    0    0  0.00000000000E+00  0.00000000000E+00  0.61121664540E+01  0.61121664540E+01  0.00000000000E+00 0. -1.
         22   -1    0    0    0    0 -0.00000000000E+00 -0.00000000000E+00 -0.24891992260E+01  0.24891992260E+01  0.00000000000E+00 0.  1.
          4    1    1    2  501    0  0.23078831340E+01  0.23955833967E+01  0.55521768657E-01  0.35610570113E+01  0.12700000000E+01 0.  1.
         -4    1    1    2    0  501 -0.23078831340E+01 -0.23955833967E+01  0.35674454593E+01  0.50403086687E+01  0.12700000000E+01 0. -1.
<mgrwt>
<rscale>  0 0.35606242E+01</rscale>
<asrwt>0</asrwt>
<pdfrwt beam="1">0</pdfrwt>
<pdfrwt beam="2">0</pdfrwt>
<totfact> 0.10022260E+12</totfact>
</mgrwt>
</event>
<event>
 4    1  0.1733759E+006  0.2390801E+01  0.7546771E-02  0.2758722E+00
         22   -1    0    0    0    0  0.00000000000E+00  0.00000000000E+00  0.24151296738E+02  0.24151296738E+02  0.00000000000E+00 0. -1.
         22   -1    0    0    0    0 -0.00000000000E+00 -0.00000000000E+00 -0.56351279442E+00  0.56351279442E+00  0.00000000000E+00 0.  1.
          4    1    1    2  501    0  0.12536872086E+01 -0.15910046657E+01  0.23827194019E+01  0.33753931936E+01  0.12700000000E+01 0.  1.
         -4    1    1    2    0  501 -0.12536872086E+01  0.15910046657E+01  0.21205064542E+02  0.21339416339E+02  0.12700000000E+01 0. -1.
<mgrwt>
<rscale>  0 0.23908006E+01</rscale>
<asrwt>0</asrwt>
<pdfrwt beam="1">0</pdfrwt>
<pdfrwt beam="2">0</pdfrwt>
<totfact> 0.10263998E+12</totfact>
</mgrwt>
</event>
<event>
 4    1  0.1733759E+006  0.2136090E+01  0.7546771E-02  0.2894553E+00
         22   -1    0    0    0    0  0.00000000000E+00  0.00000000000E+00  0.22419799174E+01  0.22419799174E+01  0.00000000000E+00 0. -1.
         22   -1    0    0    0    0 -0.00000000000E+00 -0.00000000000E+00 -0.20746567745E+01  0.20746567745E+01  0.00000000000E+00 0.  1.
          4    1    1    2  501    0 -0.14171232053E+01 -0.97043369493E+00 -0.21398284842E+00  0.21467809377E+01  0.12700000000E+01 0. -1.
         -4    1    1    2    0  501  0.14171232053E+01  0.97043369493E+00  0.38130599135E+00  0.21698557542E+01  0.12700000000E+01 0. -1.
<mgrwt>
<rscale>  0 0.21360898E+01</rscale>
<asrwt>0</asrwt>
<pdfrwt beam="1">0</pdfrwt>
<pdfrwt beam="2">0</pdfrwt>
<totfact> 0.40221590E+12</totfact>
</mgrwt>
</event>
<event>
 4    1  0.1733759E+006  0.2347101E+01  0.7546771E-02  0.2780033E+00
         22   -1    0    0    0    0  0.00000000000E+00  0.00000000000E+00  0.41827093891E-01  0.41827093891E-01  0.00000000000E+00 0.  1.
         22   -1    0    0    0    0 -0.00000000000E+00 -0.00000000000E+00 -0.15918309808E+03  0.15918309808E+03  0.00000000000E+00 0.  1.
          4    1    1    2  501    0 -0.19614792356E+01 -0.22041294380E+00 -0.11264696924E+03  0.11267141857E+03  0.12700000000E+01 0.  1.
         -4    1    1    2    0  501  0.19614792356E+01  0.22041294380E+00 -0.46494301746E+02  0.46553506608E+02  0.12700000000E+01 0.  1.
<mgrwt>
<rscale>  0 0.23471009E+01</rscale>
<asrwt>0</asrwt>
<pdfrwt beam="1">0</pdfrwt>
<pdfrwt beam="2">0</pdfrwt>
<totfact> 0.14433886E+12</totfact>
</mgrwt>
</event>
<event>
 4    1  0.1733759E+006  0.2310367E+01  0.7546771E-02  0.2798536E+00
         22   -1    0    0    0    0  0.00000000000E+00  0.00000000000E+00  0.10703739419E+02  0.10703739419E+02  0.00000000000E+00 0. -1.
         22   -1    0    0    0    0 -0.00000000000E+00 -0.00000000000E+00 -0.58328974698E+00  0.58328974698E+00  0.00000000000E+00 0.  1.
          4    1    1    2  501    0  0.50277277846E+00  0.18633613566E+01  0.29108882393E+01  0.37163243068E+01  0.12700000000E+01 0.  1.
         -4    1    1    2    0  501 -0.50277277846E+00 -0.18633613566E+01  0.72095614330E+01  0.75707048594E+01  0.12700000000E+01 0.  1.
<mgrwt>
<rscale>  0 0.23103671E+01</rscale>
<asrwt>0</asrwt>
<pdfrwt beam="1">0</pdfrwt>
<pdfrwt beam="2">0</pdfrwt>
<totfact> 0.26967515E+12</totfact>
</mgrwt>
</event>
<event>
 4    1  0.1733759E+006  0.2429356E+01  0.7546771E-02  0.2740518E+00
         22   -1    0    0    0    0  0.00000000000E+00  0.00000000000E+00  0.37782537368E+01  0.37782537368E+01  0.00000000000E+00 0. -1.
         22   -1    0    0    0    0 -0.00000000000E+00 -0.00000000000E+00 -0.21376899394E+01  0.21376899394E+01  0.00000000000E+00 0.  1.
          4    1    1    2  501    0  0.20271600620E+01  0.42366837985E+00 -0.71469545891E+00  0.25323037756E+01  0.12700000000E+01 0.  1.
         -4    1    1    2    0  501 -0.20271600620E+01 -0.42366837985E+00  0.23552592563E+01  0.33836399006E+01  0.12700000000E+01 0.  1.
<mgrwt>
<rscale>  0 0.24293565E+01</rscale>
<asrwt>0</asrwt>
<pdfrwt beam="1">0</pdfrwt>
<pdfrwt beam="2">0</pdfrwt>
<totfact> 0.21125374E+12</totfact>
</mgrwt>
</event>
<event>
 4    1  0.1733759E+006  0.2930067E+01  0.7546771E-02  0.2544752E+00
         22   -1    0    0    0    0  0.00000000000E+00  0.00000000000E+00  0.83127087760E+01  0.83127087760E+01  0.00000000000E+00 0.  1.
         22   -1    0    0    0    0 -0.00000000000E+00 -0.00000000000E+00 -0.10764273287E+01  0.10764273287E+01  0.00000000000E+00 0. -1.
          4    1    1    2  501    0 -0.68427436387E+00  0.25503254003E+01  0.26729330517E+01  0.39660890246E+01  0.12700000000E+01 0.  1.
         -4    1    1    2    0  501  0.68427436387E+00 -0.25503254003E+01  0.45633483956E+01  0.54230470800E+01  0.12700000000E+01 0. -1.
<mgrwt>
<rscale>  0 0.29300667E+01</rscale>
<asrwt>0</asrwt>
<pdfrwt beam="1">0</pdfrwt>
<pdfrwt beam="2">0</pdfrwt>
<totfact> 0.18232288E+12</totfact>
</mgrwt>
</event>
<event>
 4    1  0.1733759E+006  0.2925061E+01  0.7546771E-02  0.2546405E+00
         22   -1    0    0    0    0  0.00000000000E+00  0.00000000000E+00  0.32277591798E+01  0.32277591798E+01  0.00000000000E+00 0.  1.
         22   -1    0    0    0    0 -0.00000000000E+00 -0.00000000000E+00 -0.26761711623E+01  0.26761711623E+01  0.00000000000E+00 0. -1.
          4    1    1    2  501    0 -0.23050007552E+01  0.12767363509E+01 -0.11911315039E-01  0.29250856518E+01  0.12700000000E+01 0. -1.
         -4    1    1    2    0  501  0.23050007552E+01 -0.12767363509E+01  0.56349933250E+00  0.29788446903E+01  0.12700000000E+01 0.  1.
<mgrwt>
<rscale>  0 0.29250614E+01</rscale>
<asrwt>0</asrwt>
<pdfrwt beam="1">0</pdfrwt>
<pdfrwt beam="2">0</pdfrwt>
<totfact> 0.19571834E+12</totfact>
</mgrwt>
</event>
<event>
 4    1  0.1733759E+006  0.2841073E+01  0.7546771E-02  0.2574920E+00
         22   -1    0    0    0    0  0.00000000000E+00  0.00000000000E+00  0.12730423914E+00  0.12730423914E+00  0.00000000000E+00 0.  1.
         22   -1    0    0    0    0 -0.00000000000E+00 -0.00000000000E+00 -0.13569427598E+03  0.13569427598E+03  0.00000000000E+00 0. -1.
          4    1    1    2  501    0  0.24556918016E+01 -0.65450392148E+00 -0.11735082546E+03  0.11738521173E+03  0.12700000000E+01 0. -1.
         -4    1    1    2    0  501 -0.24556918016E+01  0.65450392148E+00 -0.18216146281E+02  0.18436368486E+02  0.12700000000E+01 0.  1.
<mgrwt>
<rscale>  0 0.28410733E+01</rscale>
<asrwt>0</asrwt>
<pdfrwt beam="1">0</pdfrwt>
<pdfrwt beam="2">0</pdfrwt>
<totfact> 0.53533749E+11</totfact>
</mgrwt>
</event>
<event>
 4    1  0.1733759E+006  0.3453658E+01  0.7546771E-02  0.2395728E+00
         22   -1    0    0    0    0  0.00000000000E+00  0.00000000000E+00  0.15799627875E+01  0.15799627875E+01  0.00000000000E+00 0.  1.
         22   -1    0    0    0    0 -0.00000000000E+00 -0.00000000000E+00 -0.14418434214E+02  0.14418434214E+02  0.00000000000E+00 0. -1.
          4    1    1    2  501    0  0.32060195722E+01 -0.19050028707E+00 -0.11940463284E+02  0.12429900052E+02  0.12700000000E+01 0. -1.
         -4    1    1    2    0  501 -0.32060195722E+01  0.19050028707E+00 -0.89800814245E+00  0.35684969497E+01  0.12700000000E+01 0.  1.
<mgrwt>
<rscale>  0 0.34536578E+01</rscale>
<asrwt>0</asrwt>
<pdfrwt beam="1">0</pdfrwt>
<pdfrwt beam="2">0</pdfrwt>
<totfact> 0.60107872E+11</totfact>
</mgrwt>
</event>
<event>
 4    1  0.1733759E+006  0.2313449E+01  0.7546771E-02  0.2796962E+00
         22   -1    0    0    0    0  0.00000000000E+00  0.00000000000E+00  0.90525849478E+01  0.90525849478E+01  0.00000000000E+00 0. -1.
         22   -1    0    0    0    0 -0.00000000000E+00 -0.00000000000E+00 -0.87180372053E+00  0.87180372053E+00  0.00000000000E+00 0.  1.
          4    1    1    2  501    0 -0.11817655311E+01  0.15305474103E+01  0.12752654623E+01  0.26416561368E+01  0.12700000000E+01 0.  1.
         -4    1    1    2    0  501  0.11817655311E+01 -0.15305474103E+01  0.69055157650E+01  0.72827325316E+01  0.12700000000E+01 0. -1.
<mgrwt>
<rscale>  0 0.23134488E+01</rscale>
<asrwt>0</asrwt>
<pdfrwt beam="1">0</pdfrwt>
<pdfrwt beam="2">0</pdfrwt>
<totfact> 0.20927549E+12</totfact>
</mgrwt>
</event>
<event>
 4    1  0.1733759E+006  0.2436683E+01  0.7546771E-02  0.2737120E+00
         22   -1    0    0    0    0  0.00000000000E+00  0.00000000000E+00  0.37732520059E+00  0.37732520059E+00  0.00000000000E+00 0. -1.
         22   -1    0    0    0    0 -0.00000000000E+00 -0.00000000000E+00 -0.15833622126E+02  0.15833622126E+02  0.00000000000E+00 0.  1.
          4    1    1    2  501    0  0.12525963635E+01  0.16599774985E+01 -0.83660316988E+01  0.87136622227E+01  0.12700000000E+01 0. -1.
         -4    1    1    2    0  501 -0.12525963635E+01 -0.16599774985E+01 -0.70902652264E+01  0.74972851037E+01  0.12700000000E+01 0.  1.
<mgrwt>
<rscale>  0 0.24366828E+01</rscale>
<asrwt>0</asrwt>
<pdfrwt beam="1">0</pdfrwt>
<pdfrwt beam="2">0</pdfrwt>
<totfact> 0.27304108E+12</totfact>
</mgrwt>
</event>
<event>
 4    1  0.1733759E+006  0.2677033E+01  0.7546771E-02  0.2635279E+00
         22   -1    0    0    0    0  0.00000000000E+00  0.00000000000E+00  0.13582664109E+02  0.13582664109E+02  0.00000000000E+00 0.  1.
         22   -1    0    0    0    0 -0.00000000000E+00 -0.00000000000E+00 -0.57196437999E+00  0.57196437999E+00  0.00000000000E+00 0. -1.
          4    1    1    2  501    0  0.12291964674E+01  0.20106415771E+01  0.45347579585E+01  0.52659788501E+01  0.12700000000E+01 0. -1.
         -4    1    1    2    0  501 -0.12291964674E+01 -0.20106415771E+01  0.84759417707E+01  0.88886496391E+01  0.12700000000E+01 0. -1.
<mgrwt>
<rscale>  0 0.26770326E+01</rscale>
<asrwt>0</asrwt>
<pdfrwt beam="1">0</pdfrwt>
<pdfrwt beam="2">0</pdfrwt>
<totfact> 0.20621671E+12</totfact>
</mgrwt>
</event>
<event>
 4    1  0.1733759E+006  0.2242235E+01  0.7546771E-02  0.2834375E+00
         22   -1    0    0    0    0  0.00000000000E+00  0.00000000000E+00  0.29254902828E+01  0.29254902828E+01  0.00000000000E+00 0.  1.
         22   -1    0    0    0    0 -0.00000000000E+00 -0.00000000000E+00 -0.19997493605E+01  0.19997493605E+01  0.00000000000E+00 0.  1.
          4    1    1    2  501    0  0.39716272595E+00 -0.18047101737E+01 -0.46057787530E+00  0.22890498075E+01  0.12700000000E+01 0.  1.
         -4    1    1    2    0  501 -0.39716272595E+00  0.18047101737E+01  0.13863187975E+01  0.26361898358E+01  0.12700000000E+01 0.  1.
<mgrwt>
<rscale>  0 0.22422348E+01</rscale>
<asrwt>0</asrwt>
<pdfrwt beam="1">0</pdfrwt>
<pdfrwt beam="2">0</pdfrwt>
<totfact> 0.30793381E+12</totfact>
</mgrwt>
</event>
<event>
 4    1  0.1733759E+006  0.2038016E+01  0.7546771E-02  0.2955527E+00
         22   -1    0    0    0    0  0.00000000000E+00  0.00000000000E+00  0.52273317315E+01  0.52273317315E+01  0.00000000000E+00 0. -1.
         22   -1    0    0    0    0 -0.00000000000E+00 -0.00000000000E+00 -0.13807439104E+01  0.13807439104E+01  0.00000000000E+00 0.  1.
          4    1    1    2  501    0 -0.13572527193E+00 -0.15881401336E+01 -0.22948582370E+00  0.20508959449E+01  0.12700000000E+01 0.  1.
         -4    1    1    2    0  501  0.13572527193E+00  0.15881401336E+01  0.40760736448E+01  0.45571796971E+01  0.12700000000E+01 0. -1.
<mgrwt>
<rscale>  0 0.20380163E+01</rscale>
<asrwt>0</asrwt>
<pdfrwt beam="1">0</pdfrwt>
<pdfrwt beam="2">0</pdfrwt>
<totfact> 0.23846083E+12</totfact>
</mgrwt>
</event>
<event>
 4    1  0.1733759E+006  0.2058391E+01  0.7546771E-02  0.2942395E+00
         22   -1    0    0    0    0  0.00000000000E+00  0.00000000000E+00  0.23823804926E+01  0.23823804926E+01  0.00000000000E+00 0.  1.
         22   -1    0    0    0    0 -0.00000000000E+00 -0.00000000000E+00 -0.24440908318E+01  0.24440908318E+01  0.00000000000E+00 0.  1.
          4    1    1    2  501    0  0.15587436495E+01  0.44089698538E+00 -0.12902366387E+01  0.24293378728E+01  0.12700000000E+01 0.  1.
         -4    1    1    2    0  501 -0.15587436495E+01 -0.44089698538E+00  0.12285262994E+01  0.23971334517E+01  0.12700000000E+01 0.  1.
<mgrwt>
<rscale>  0 0.20583906E+01</rscale>
<asrwt>0</asrwt>
<pdfrwt beam="1">0</pdfrwt>
<pdfrwt beam="2">0</pdfrwt>
<totfact> 0.30990502E+12</totfact>
</mgrwt>
</event>
<event>
 4    1  0.1733759E+006  0.2669837E+01  0.7546771E-02  0.2638081E+00
         22   -1    0    0    0    0  0.00000000000E+00  0.00000000000E+00  0.11362097219E+01  0.11362097219E+01  0.00000000000E+00 0.  1.
         22   -1    0    0    0    0 -0.00000000000E+00 -0.00000000000E+00 -0.97427683571E+01  0.97427683571E+01  0.00000000000E+00 0. -1.
          4    1    1    2  501    0  0.22814369785E+01 -0.55693540216E+00 -0.75491765163E+01  0.80073777108E+01  0.12700000000E+01 0. -1.
         -4    1    1    2    0  501 -0.22814369785E+01  0.55693540216E+00 -0.10573821189E+01  0.28716003682E+01  0.12700000000E+01 0.  1.
<mgrwt>
<rscale>  0 0.26698374E+01</rscale>
<asrwt>0</asrwt>
<pdfrwt beam="1">0</pdfrwt>
<pdfrwt beam="2">0</pdfrwt>
<totfact> 0.14152030E+12</totfact>
</mgrwt>
</event>
<event>
 4    1  0.1733759E+006  0.2065626E+01  0.7546771E-02  0.2937793E+00
         22   -1    0    0    0    0  0.00000000000E+00  0.00000000000E+00  0.86611725129E+01  0.86611725129E+01  0.00000000000E+00 0. -1.
         22   -1    0    0    0    0 -0.00000000000E+00 -0.00000000000E+00 -0.24005246067E+01  0.24005246067E+01  0.00000000000E+00 0. -1.
          4    1    1    2  501    0  0.57687276606E+00 -0.15235244543E+01 -0.18004506063E+01  0.27401516996E+01  0.12700000000E+01 0. -1.
         -4    1    1    2    0  501 -0.57687276606E+00  0.15235244543E+01  0.80610985124E+01  0.83215454201E+01  0.12700000000E+01 0. -1.
<mgrwt>
<rscale>  0 0.20656256E+01</rscale>
<asrwt>0</asrwt>
<pdfrwt beam="1">0</pdfrwt>
<pdfrwt beam="2">0</pdfrwt>
<totfact> 0.68852628E+11</totfact>
</mgrwt>
</event>
<event>
 4    1  0.1733759E+006  0.2236568E+01  0.7546771E-02  0.2837449E+00
         22   -1    0    0    0    0  0.00000000000E+00  0.00000000000E+00  0.10406331505E+02  0.10406331505E+02  0.00000000000E+00 0.  1.
         22   -1    0    0    0    0 -0.00000000000E+00 -0.00000000000E+00 -0.48600224618E+00  0.48600224618E+00  0.00000000000E+00 0. -1.
          4    1    1    2  501    0  0.11401706372E-01  0.18409803046E+01  0.55294582224E+01  0.59646581389E+01  0.12700000000E+01 0.  1.
         -4    1    1    2    0  501 -0.11401706372E-01 -0.18409803046E+01  0.43908710360E+01  0.49276756118E+01  0.12700000000E+01 0. -1.
<mgrwt>
<rscale>  0 0.22365685E+01</rscale>
<asrwt>0</asrwt>
<pdfrwt beam="1">0</pdfrwt>
<pdfrwt beam="2">0</pdfrwt>
<totfact> 0.34297035E+12</totfact>
</mgrwt>
</event>
<event>
 4    1  0.1733759E+006  0.3432034E+01  0.7546771E-02  0.2401083E+00
         22   -1    0    0    0    0  0.00000000000E+00  0.00000000000E+00  0.66967970712E+01  0.66967970712E+01  0.00000000000E+00 0. -1.
         22   -1    0    0    0    0 -0.00000000000E+00 -0.00000000000E+00 -0.17605879496E+01  0.17605879496E+01  0.00000000000E+00 0.  1.
          4    1    1    2  501    0  0.19330357455E+01 -0.25356124292E+01  0.23363678564E+01  0.41518035051E+01  0.12700000000E+01 0. -1.
         -4    1    1    2    0  501 -0.19330357455E+01  0.25356124292E+01  0.25998412652E+01  0.43055815157E+01  0.12700000000E+01 0.  1.
<mgrwt>
<rscale>  0 0.34320340E+01</rscale>
<asrwt>0</asrwt>
<pdfrwt beam="1">0</pdfrwt>
<pdfrwt beam="2">0</pdfrwt>
<totfact> 0.13424778E+12</totfact>
</mgrwt>
</event>
<event>
 4    1  0.1733759E+006  0.2853135E+01  0.7546771E-02  0.2570732E+00
         22   -1    0    0    0    0  0.00000000000E+00  0.00000000000E+00  0.10778158602E+01  0.10778158602E+01  0.00000000000E+00 0.  1.
         22   -1    0    0    0    0 -0.00000000000E+00 -0.00000000000E+00 -0.22042937859E+02  0.22042937859E+02  0.00000000000E+00 0. -1.
          4    1    1    2  501    0 -0.24629571612E+01 -0.67920649681E+00 -0.19855495300E+02  0.20059438503E+02  0.12700000000E+01 0. -1.
         -4    1    1    2    0  501  0.24629571612E+01  0.67920649681E+00 -0.11096266988E+01  0.30613152164E+01  0.12700000000E+01 0.  1.
<mgrwt>
<rscale>  0 0.28531350E+01</rscale>
<asrwt>0</asrwt>
<pdfrwt beam="1">0</pdfrwt>
<pdfrwt beam="2">0</pdfrwt>
<totfact> 0.55065179E+11</totfact>
</mgrwt>
</event>
<event>
 4    1  0.1733759E+006  0.2001756E+01  0.7546771E-02  0.2979544E+00
         22   -1    0    0    0    0  0.00000000000E+00  0.00000000000E+00  0.94783851355E+01  0.94783851355E+01  0.00000000000E+00 0.  1.
         22   -1    0    0    0    0 -0.00000000000E+00 -0.00000000000E+00 -0.45822762020E+00  0.45822762020E+00  0.00000000000E+00 0. -1.
          4    1    1    2  501    0 -0.14873868002E+00  0.15401317602E+01  0.31277286938E+01  0.37134506616E+01  0.12700000000E+01 0. -1.
         -4    1    1    2    0  501  0.14873868002E+00 -0.15401317602E+01  0.58924288214E+01  0.62231620941E+01  0.12700000000E+01 0.  1.
<mgrwt>
<rscale>  0 0.20017565E+01</rscale>
<asrwt>0</asrwt>
<pdfrwt beam="1">0</pdfrwt>
<pdfrwt beam="2">0</pdfrwt>
<totfact> 0.41036485E+12</totfact>
</mgrwt>
</event>
<event>
 4    1  0.1733759E+006  0.2128773E+01  0.7546771E-02  0.2898914E+00
         22   -1    0    0    0    0  0.00000000000E+00  0.00000000000E+00  0.15742282260E+01  0.15742282260E+01  0.00000000000E+00 0.  1.
         22   -1    0    0    0    0 -0.00000000000E+00 -0.00000000000E+00 -0.40702720851E+01  0.40702720851E+01  0.00000000000E+00 0. -1.
          4    1    1    2  501    0 -0.17035480367E+01 -0.12923035790E+00 -0.27750613272E+01  0.34975193736E+01  0.12700000000E+01 0. -1.
         -4    1    1    2    0  501  0.17035480367E+01  0.12923035790E+00  0.27901746814E+00  0.21469809376E+01  0.12700000000E+01 0.  1.
<mgrwt>
<rscale>  0 0.21287734E+01</rscale>
<asrwt>0</asrwt>
<pdfrwt beam="1">0</pdfrwt>
<pdfrwt beam="2">0</pdfrwt>
<totfact> 0.27559948E+12</totfact>
</mgrwt>
</event>
<event>
 4    1  0.1733759E+006  0.2046058E+01  0.7546771E-02  0.2950313E+00
         22   -1    0    0    0    0  0.00000000000E+00  0.00000000000E+00  0.18425402659E+01  0.18425402659E+01  0.00000000000E+00 0. -1.
         22   -1    0    0    0    0 -0.00000000000E+00 -0.00000000000E+00 -0.31832563216E+01  0.31832563216E+01  0.00000000000E+00 0. -1.
          4    1    1    2  501    0  0.71224225029E+00  0.14374159019E+01 -0.20148127771E+01  0.28715542873E+01  0.12700000000E+01 0. -1.
         -4    1    1    2    0  501 -0.71224225029E+00 -0.14374159019E+01  0.67409672140E+00  0.21542423002E+01  0.12700000000E+01 0. -1.
<mgrwt>
<rscale>  0 0.20460580E+01</rscale>
<asrwt>0</asrwt>
<pdfrwt beam="1">0</pdfrwt>
<pdfrwt beam="2">0</pdfrwt>
<totfact> 0.30668975E+12</totfact>
</mgrwt>
</event>
<event>
 4    1  0.1733759E+006  0.3534590E+01  0.7546771E-02  0.2376194E+00
         22   -1    0    0    0    0  0.00000000000E+00  0.00000000000E+00  0.22642912126E+02  0.22642912126E+02  0.00000000000E+00 0. -1.
         22   -1    0    0    0    0 -0.00000000000E+00 -0.00000000000E+00 -0.79136307344E+00  0.79136307344E+00  0.00000000000E+00 0. -1.
          4    1    1    2  501    0 -0.22993546538E+01  0.23650351874E+01  0.44783683319E+01  0.57051823965E+01  0.12700000000E+01 0. -1.
         -4    1    1    2    0  501  0.22993546538E+01 -0.23650351874E+01  0.17373180721E+02  0.17729092803E+02  0.12700000000E+01 0. -1.
<mgrwt>
<rscale>  0 0.35345895E+01</rscale>
<asrwt>0</asrwt>
<pdfrwt beam="1">0</pdfrwt>
<pdfrwt beam="2">0</pdfrwt>
<totfact> 0.75729122E+11</totfact>
</mgrwt>
</event>
<event>
 4    1  0.1733759E+006  0.2497660E+01  0.7546771E-02  0.2709562E+00
         22   -1    0    0    0    0  0.00000000000E+00  0.00000000000E+00  0.53730288382E+01  0.53730288382E+01  0.00000000000E+00 0. -1.
         22   -1    0    0    0    0 -0.00000000000E+00 -0.00000000000E+00 -0.11838142333E+01  0.11838142333E+01  0.00000000000E+00 0. -1.
          4    1    1    2  501    0  0.17040483038E+01  0.13121079589E+01  0.16398985264E+01  0.29879048001E+01  0.12700000000E+01 0. -1.
         -4    1    1    2    0  501 -0.17040483038E+01 -0.13121079589E+01  0.25493160785E+01  0.35689382715E+01  0.12700000000E+01 0. -1.
<mgrwt>
<rscale>  0 0.24976605E+01</rscale>
<asrwt>0</asrwt>
<pdfrwt beam="1">0</pdfrwt>
<pdfrwt beam="2">0</pdfrwt>
<totfact> 0.27539311E+12</totfact>
</mgrwt>
</event>
<event>
 4    1  0.1733759E+006  0.2319879E+01  0.7546771E-02  0.2793691E+00
         22   -1    0    0    0    0  0.00000000000E+00  0.00000000000E+00  0.99975932231E+00  0.99975932231E+00  0.00000000000E+00 0. -1.
         22   -1    0    0    0    0 -0.00000000000E+00 -0.00000000000E+00 -0.71053974301E+01  0.71053974301E+01  0.00000000000E+00 0.  1.
          4    1    1    2  501    0  0.12283336232E+01 -0.15033752919E+01 -0.10576177127E+01  0.25495874146E+01  0.12700000000E+01 0. -1.
         -4    1    1    2    0  501 -0.12283336232E+01  0.15033752919E+01 -0.50480203951E+01  0.55555693378E+01  0.12700000000E+01 0.  1.
<mgrwt>
<rscale>  0 0.23198795E+01</rscale>
<asrwt>0</asrwt>
<pdfrwt beam="1">0</pdfrwt>
<pdfrwt beam="2">0</pdfrwt>
<totfact> 0.23947803E+12</totfact>
</mgrwt>
</event>
<event>
 4    1  0.1733759E+006  0.2169042E+01  0.7546771E-02  0.2875266E+00
         22   -1    0    0    0    0  0.00000000000E+00  0.00000000000E+00  0.46648759407E+00  0.46648759407E+00  0.00000000000E+00 0. -1.
         22   -1    0    0    0    0 -0.00000000000E+00 -0.00000000000E+00 -0.13456701906E+02  0.13456701906E+02  0.00000000000E+00 0.  1.
          4    1    1    2  501    0 -0.24738341907E+00 -0.17408752019E+01 -0.99795549269E+01  0.10212554116E+02  0.12700000000E+01 0. -1.
         -4    1    1    2    0  501  0.24738341907E+00  0.17408752019E+01 -0.30106593853E+01  0.37106353848E+01  0.12700000000E+01 0.  1.
<mgrwt>
<rscale>  0 0.21690424E+01</rscale>
<asrwt>0</asrwt>
<pdfrwt beam="1">0</pdfrwt>
<pdfrwt beam="2">0</pdfrwt>
<totfact> 0.26258807E+12</totfact>
</mgrwt>
</event>
<event>
 4    1  0.1733759E+006  0.2440980E+01  0.7546771E-02  0.2735136E+00
         22   -1    0    0    0    0  0.00000000000E+00  0.00000000000E+00  0.15210890883E+02  0.15210890883E+02  0.00000000000E+00 0.  1.
         22   -1    0    0    0    0 -0.00000000000E+00 -0.00000000000E+00 -0.48728092068E+00  0.48728092068E+00  0.00000000000E+00 0. -1.
          4    1    1    2  501    0  0.85951400398E+00  0.18991360168E+01  0.38858530620E+01  0.45889253593E+01  0.12700000000E+01 0. -1.
         -4    1    1    2    0  501 -0.85951400398E+00 -0.18991360168E+01  0.10837756901E+02  0.11109246445E+02  0.12700000000E+01 0.  1.
<mgrwt>
<rscale>  0 0.24409797E+01</rscale>
<asrwt>0</asrwt>
<pdfrwt beam="1">0</pdfrwt>
<pdfrwt beam="2">0</pdfrwt>
<totfact> 0.21506258E+12</totfact>
</mgrwt>
</event>
<event>
 4    1  0.1733759E+006  0.2020118E+01  0.7546771E-02  0.2967277E+00
         22   -1    0    0    0    0  0.00000000000E+00  0.00000000000E+00  0.30156455911E+01  0.30156455911E+01  0.00000000000E+00 0. -1.
         22   -1    0    0    0    0 -0.00000000000E+00 -0.00000000000E+00 -0.14562027704E+02  0.14562027704E+02  0.00000000000E+00 0.  1.
          4    1    1    2  501    0 -0.15942203983E+00 -0.15628696266E+01 -0.14143703185E+02  0.14287239644E+02  0.12700000000E+01 0.  1.
         -4    1    1    2    0  501  0.15942203983E+00  0.15628696266E+01  0.25973210725E+01  0.32904336508E+01  0.12700000000E+01 0. -1.
<mgrwt>
<rscale>  0 0.20201180E+01</rscale>
<asrwt>0</asrwt>
<pdfrwt beam="1">0</pdfrwt>
<pdfrwt beam="2">0</pdfrwt>
<totfact> 0.28053779E+11</totfact>
</mgrwt>
</event>
<event>
 4    1  0.1733759E+006  0.2094173E+01  0.7546771E-02  0.2919935E+00
         22   -1    0    0    0    0  0.00000000000E+00  0.00000000000E+00  0.18779077944E+02  0.18779077944E+02  0.00000000000E+00 0.  1.
         22   -1    0    0    0    0 -0.00000000000E+00 -0.00000000000E+00 -0.31778105292E+00  0.31778105292E+00  0.00000000000E+00 0. -1.
          4    1    1    2  501    0  0.76119703977E+00  0.14809595985E+01  0.43142841176E+01  0.47956865737E+01  0.12700000000E+01 0.  1.
         -4    1    1    2    0  501 -0.76119703977E+00 -0.14809595985E+01  0.14147012774E+02  0.14301172423E+02  0.12700000000E+01 0. -1.
<mgrwt>
<rscale>  0 0.20941734E+01</rscale>
<asrwt>0</asrwt>
<pdfrwt beam="1">0</pdfrwt>
<pdfrwt beam="2">0</pdfrwt>
<totfact> 0.26806528E+12</totfact>
</mgrwt>
</event>
<event>
 4    1  0.1733759E+006  0.3123016E+01  0.7546771E-02  0.2484680E+00
         22   -1    0    0    0    0  0.00000000000E+00  0.00000000000E+00  0.11130838756E+01  0.11130838756E+01  0.00000000000E+00 0.  1.
         22   -1    0    0    0    0 -0.00000000000E+00 -0.00000000000E+00 -0.89857471777E+01  0.89857471777E+01  0.00000000000E+00 0. -1.
          4    1    1    2  501    0 -0.45841103107E+00 -0.28160586280E+01 -0.47325020421E+01  0.56700795804E+01  0.12700000000E+01 0.  1.
         -4    1    1    2    0  501  0.45841103107E+00  0.28160586280E+01 -0.31401612601E+01  0.44287514729E+01  0.12700000000E+01 0. -1.
<mgrwt>
<rscale>  0 0.31230157E+01</rscale>
<asrwt>0</asrwt>
<pdfrwt beam="1">0</pdfrwt>
<pdfrwt beam="2">0</pdfrwt>
<totfact> 0.15976384E+12</totfact>
</mgrwt>
</event>
<event>
 4    1  0.1733759E+006  0.4331893E+01  0.7546771E-02  0.2218012E+00
         22   -1    0    0    0    0  0.00000000000E+00  0.00000000000E+00  0.17773529477E+01  0.17773529477E+01  0.00000000000E+00 0.  1.
         22   -1    0    0    0    0 -0.00000000000E+00 -0.00000000000E+00 -0.16441202228E+02  0.16441202228E+02  0.00000000000E+00 0. -1.
          4    1    1    2  501    0  0.22005821292E+01 -0.35085380588E+01 -0.12781013135E+02  0.13495169423E+02  0.12700000000E+01 0. -1.
         -4    1    1    2    0  501 -0.22005821292E+01  0.35085380588E+01 -0.18828361461E+01  0.47233857528E+01  0.12700000000E+01 0.  1.
<mgrwt>
<rscale>  0 0.43318935E+01</rscale>
<asrwt>0</asrwt>
<pdfrwt beam="1">0</pdfrwt>
<pdfrwt beam="2">0</pdfrwt>
<totfact> 0.44640544E+11</totfact>
</mgrwt>
</event>
<event>
 4    1  0.1733759E+006  0.2012231E+01  0.7546771E-02  0.2972519E+00
         22   -1    0    0    0    0  0.00000000000E+00  0.00000000000E+00  0.66756252292E+01  0.66756252292E+01  0.00000000000E+00 0. -1.
         22   -1    0    0    0    0 -0.00000000000E+00 -0.00000000000E+00 -0.61649687874E+00  0.61649687874E+00  0.00000000000E+00 0.  1.
          4    1    1    2  501    0  0.15561179225E+01 -0.12111939146E+00  0.25663390534E+01  0.32611606880E+01  0.12700000000E+01 0.  1.
         -4    1    1    2    0  501 -0.15561179225E+01  0.12111939146E+00  0.34927892970E+01  0.40309614199E+01  0.12700000000E+01 0. -1.
<mgrwt>
<rscale>  0 0.20122308E+01</rscale>
<asrwt>0</asrwt>
<pdfrwt beam="1">0</pdfrwt>
<pdfrwt beam="2">0</pdfrwt>
<totfact> 0.44711660E+12</totfact>
</mgrwt>
</event>
<event>
 4    1  0.1733759E+006  0.5302424E+01  0.7546771E-02  0.2088546E+00
         22   -1    0    0    0    0  0.00000000000E+00  0.00000000000E+00  0.26346315081E+02  0.26346315081E+02  0.00000000000E+00 0.  1.
         22   -1    0    0    0    0 -0.00000000000E+00 -0.00000000000E+00 -0.25033634336E+01  0.25033634336E+01  0.00000000000E+00 0. -1.
          4    1    1    2  501    0  0.14344423635E+01 -0.49442066641E+01  0.99557691442E+00  0.53950790378E+01  0.12700000000E+01 0.  1.
         -4    1    1    2    0  501 -0.14344423635E+01  0.49442066641E+01  0.22847374733E+02  0.23454599477E+02  0.12700000000E+01 0. -1.
<mgrwt>
<rscale>  0 0.53024244E+01</rscale>
<asrwt>0</asrwt>
<pdfrwt beam="1">0</pdfrwt>
<pdfrwt beam="2">0</pdfrwt>
<totfact> 0.16650637E+11</totfact>
</mgrwt>
</event>
<event>
 4    1  0.1733759E+006  0.2741548E+01  0.7546771E-02  0.2610754E+00
         22   -1    0    0    0    0  0.00000000000E+00  0.00000000000E+00  0.66820388703E+01  0.66820388703E+01  0.00000000000E+00 0.  1.
         22   -1    0    0    0    0 -0.00000000000E+00 -0.00000000000E+00 -0.14685908451E+01  0.14685908451E+01  0.00000000000E+00 0. -1.
          4    1    1    2  501    0 -0.23961401523E+01 -0.40211962907E+00  0.63500249041E+00  0.28141279268E+01  0.12700000000E+01 0. -1.
         -4    1    1    2    0  501  0.23961401523E+01  0.40211962907E+00  0.45784455347E+01  0.53365017886E+01  0.12700000000E+01 0.  1.
<mgrwt>
<rscale>  0 0.27415484E+01</rscale>
<asrwt>0</asrwt>
<pdfrwt beam="1">0</pdfrwt>
<pdfrwt beam="2">0</pdfrwt>
<totfact> 0.16587934E+12</totfact>
</mgrwt>
</event>
<event>
 4    1  0.1733759E+006  0.2531403E+01  0.7546771E-02  0.2694845E+00
         22   -1    0    0    0    0  0.00000000000E+00  0.00000000000E+00  0.85521155420E+01  0.85521155420E+01  0.00000000000E+00 0.  1.
         22   -1    0    0    0    0 -0.00000000000E+00 -0.00000000000E+00 -0.22024099310E+01  0.22024099310E+01  0.00000000000E+00 0. -1.
          4    1    1    2  501    0 -0.11966422251E+01 -0.18338887055E+01 -0.11929513531E+01  0.27984162181E+01  0.12700000000E+01 0.  1.
         -4    1    1    2    0  501  0.11966422251E+01  0.18338887055E+01  0.75426569640E+01  0.79561092549E+01  0.12700000000E+01 0. -1.
<mgrwt>
<rscale>  0 0.25314029E+01</rscale>
<asrwt>0</asrwt>
<pdfrwt beam="1">0</pdfrwt>
<pdfrwt beam="2">0</pdfrwt>
<totfact> 0.77270749E+11</totfact>
</mgrwt>
</event>
<event>
 4    1  0.1733759E+006  0.2228920E+01  0.7546771E-02  0.2841622E+00
         22   -1    0    0    0    0  0.00000000000E+00  0.00000000000E+00  0.29663330431E+01  0.29663330431E+01  0.00000000000E+00 0.  1.
         22   -1    0    0    0    0 -0.00000000000E+00 -0.00000000000E+00 -0.38500916410E+01  0.38500916410E+01  0.00000000000E+00 0. -1.
          4    1    1    2  501    0  0.14044267642E+01  0.11759114309E+01 -0.30036932143E+01  0.37403549504E+01  0.12700000000E+01 0. -1.
         -4    1    1    2    0  501 -0.14044267642E+01 -0.11759114309E+01  0.21199346163E+01  0.30760697337E+01  0.12700000000E+01 0.  1.
<mgrwt>
<rscale>  0 0.22289195E+01</rscale>
<asrwt>0</asrwt>
<pdfrwt beam="1">0</pdfrwt>
<pdfrwt beam="2">0</pdfrwt>
<totfact> 0.14114091E+12</totfact>
</mgrwt>
</event>
<event>
 4    1  0.1733759E+006  0.2913059E+01  0.7546771E-02  0.2550389E+00
         22   -1    0    0    0    0  0.00000000000E+00  0.00000000000E+00  0.39753585604E+00  0.39753585604E+00  0.00000000000E+00 0. -1.
         22   -1    0    0    0    0 -0.00000000000E+00 -0.00000000000E+00 -0.29830063381E+02  0.29830063381E+02  0.00000000000E+00 0.  1.
          4    1    1    2  501    0 -0.26199674536E+01  0.93703986130E-01 -0.22776383122E+02  0.22961914946E+02  0.12700000000E+01 0.  1.
         -4    1    1    2    0  501  0.26199674536E+01 -0.93703986130E-01 -0.66561444031E+01  0.72656842905E+01  0.12700000000E+01 0. -1.
<mgrwt>
<rscale>  0 0.29130585E+01</rscale>
<asrwt>0</asrwt>
<pdfrwt beam="1">0</pdfrwt>
<pdfrwt beam="2">0</pdfrwt>
<totfact> 0.11645669E+12</totfact>
</mgrwt>
</event>
<event>
 4    1  0.1733759E+006  0.2317780E+01  0.7546771E-02  0.2794758E+00
         22   -1    0    0    0    0  0.00000000000E+00  0.00000000000E+00  0.61868819658E-01  0.61868819658E-01  0.00000000000E+00 0. -1.
         22   -1    0    0    0    0 -0.00000000000E+00 -0.00000000000E+00 -0.11121407033E+03  0.11121407033E+03  0.00000000000E+00 0.  1.
          4    1    1    2  501    0  0.76326917934E+00  0.17823082213E+01 -0.81628023466E+02  0.81660922830E+02  0.12700000000E+01 0.  1.
         -4    1    1    2    0  501 -0.76326917934E+00 -0.17823082213E+01 -0.29524178041E+02  0.29615016317E+02  0.12700000000E+01 0. -1.
<mgrwt>
<rscale>  0 0.23177796E+01</rscale>
<asrwt>0</asrwt>
<pdfrwt beam="1">0</pdfrwt>
<pdfrwt beam="2">0</pdfrwt>
<totfact> 0.15844556E+12</totfact>
</mgrwt>
</event>
<event>
 4    1  0.1733759E+006  0.2545767E+01  0.7546771E-02  0.2688691E+00
         22   -1    0    0    0    0  0.00000000000E+00  0.00000000000E+00  0.55374633203E+01  0.55374633203E+01  0.00000000000E+00 0. -1.
         22   -1    0    0    0    0 -0.00000000000E+00 -0.00000000000E+00 -0.13526832123E+01  0.13526832123E+01  0.00000000000E+00 0. -1.
          4    1    1    2  501    0  0.20262948075E+01  0.87301593224E+00  0.82765522688E+00  0.26769274625E+01  0.12700000000E+01 0. -1.
         -4    1    1    2    0  501 -0.20262948075E+01 -0.87301593224E+00  0.33571248812E+01  0.42132190701E+01  0.12700000000E+01 0. -1.
<mgrwt>
<rscale>  0 0.25457666E+01</rscale>
<asrwt>0</asrwt>
<pdfrwt beam="1">0</pdfrwt>
<pdfrwt beam="2">0</pdfrwt>
<totfact> 0.22803240E+12</totfact>
</mgrwt>
</event>
<event>
 4    1  0.1733759E+006  0.2212005E+01  0.7546771E-02  0.2850949E+00
         22   -1    0    0    0    0  0.00000000000E+00  0.00000000000E+00  0.22408095545E+01  0.22408095545E+01  0.00000000000E+00 0.  1.
         22   -1    0    0    0    0 -0.00000000000E+00 -0.00000000000E+00 -0.13856062936E+02  0.13856062936E+02  0.00000000000E+00 0. -1.
          4    1    1    2  501    0 -0.11762410839E+01 -0.13771432457E+01 -0.13194716467E+02  0.13378845587E+02  0.12700000000E+01 0. -1.
         -4    1    1    2    0  501  0.11762410839E+01  0.13771432457E+01  0.15794630856E+01  0.27180269030E+01  0.12700000000E+01 0.  1.
<mgrwt>
<rscale>  0 0.22120051E+01</rscale>
<asrwt>0</asrwt>
<pdfrwt beam="1">0</pdfrwt>
<pdfrwt beam="2">0</pdfrwt>
<totfact> 0.42138397E+11</totfact>
</mgrwt>
</event>
<event>
 4    1  0.1733759E+006  0.2442881E+01  0.7546771E-02  0.2734261E+00
         22   -1    0    0    0    0  0.00000000000E+00  0.00000000000E+00  0.21075553476E+02  0.21075553476E+02  0.00000000000E+00 0.  1.
         22   -1    0    0    0    0 -0.00000000000E+00 -0.00000000000E+00 -0.28775483062E+00  0.28775483062E+00  0.00000000000E+00 0. -1.
          4    1    1    2  501    0 -0.12673671981E+01 -0.16578740527E+01  0.90435112490E+01  0.93676444051E+01  0.12700000000E+01 0.  1.
         -4    1    1    2    0  501  0.12673671981E+01  0.16578740527E+01  0.11744287396E+02  0.11995663901E+02  0.12700000000E+01 0. -1.
<mgrwt>
<rscale>  0 0.24428807E+01</rscale>
<asrwt>0</asrwt>
<pdfrwt beam="1">0</pdfrwt>
<pdfrwt beam="2">0</pdfrwt>
<totfact> 0.25950223E+12</totfact>
</mgrwt>
</event>
<event>
 4    1  0.1733759E+006  0.2360104E+01  0.7546771E-02  0.2773614E+00
         22   -1    0    0    0    0  0.00000000000E+00  0.00000000000E+00  0.56682535557E+02  0.56682535557E+02  0.00000000000E+00 0. -1.
         22   -1    0    0    0    0 -0.00000000000E+00 -0.00000000000E+00 -0.14670566684E+01  0.14670566684E+01  0.00000000000E+00 0.  1.
          4    1    1    2  501    0 -0.17767643681E+01 -0.89459560159E+00 -0.47641778925E+00  0.24077098704E+01  0.12700000000E+01 0.  1.
         -4    1    1    2    0  501  0.17767643681E+01  0.89459560159E+00  0.55691896678E+02  0.55741882356E+02  0.12700000000E+01 0. -1.
<mgrwt>
<rscale>  0 0.23601044E+01</rscale>
<asrwt>0</asrwt>
<pdfrwt beam="1">0</pdfrwt>
<pdfrwt beam="2">0</pdfrwt>
<totfact> 0.11443713E+11</totfact>
</mgrwt>
</event>
<event>
 4    1  0.1733759E+006  0.5138138E+01  0.7546771E-02  0.2106867E+00
         22   -1    0    0    0    0  0.00000000000E+00  0.00000000000E+00  0.18432300019E+01  0.18432300019E+01  0.00000000000E+00 0.  1.
         22   -1    0    0    0    0 -0.00000000000E+00 -0.00000000000E+00 -0.14694922801E+02  0.14694922801E+02  0.00000000000E+00 0. -1.
          4    1    1    2  501    0  0.13704268932E+01  0.47863859217E+01 -0.77414916157E+01  0.92914558869E+01  0.12700000000E+01 0. -1.
         -4    1    1    2    0  501 -0.13704268932E+01 -0.47863859217E+01 -0.51102011838E+01  0.72466969165E+01  0.12700000000E+01 0.  1.
<mgrwt>
<rscale>  0 0.51381378E+01</rscale>
<asrwt>0</asrwt>
<pdfrwt beam="1">0</pdfrwt>
<pdfrwt beam="2">0</pdfrwt>
<totfact> 0.49156325E+11</totfact>
</mgrwt>
</event>
<event>
 4    1  0.1733759E+006  0.2310648E+01  0.7546771E-02  0.2798392E+00
         22   -1    0    0    0    0  0.00000000000E+00  0.00000000000E+00  0.37747208184E+00  0.37747208184E+00  0.00000000000E+00 0.  1.
         22   -1    0    0    0    0 -0.00000000000E+00 -0.00000000000E+00 -0.16301840569E+02  0.16301840569E+02  0.00000000000E+00 0. -1.
          4    1    1    2  501    0 -0.17446199843E+01 -0.82613180778E+00 -0.10996113915E+02  0.11236263342E+02  0.12700000000E+01 0. -1.
         -4    1    1    2    0  501  0.17446199843E+01  0.82613180778E+00 -0.49282545725E+01  0.54430493095E+01  0.12700000000E+01 0. -1.
<mgrwt>
<rscale>  0 0.23106477E+01</rscale>
<asrwt>0</asrwt>
<pdfrwt beam="1">0</pdfrwt>
<pdfrwt beam="2">0</pdfrwt>
<totfact> 0.26327464E+12</totfact>
</mgrwt>
</event>
<event>
 4    1  0.1733759E+006  0.3347591E+01  0.7546771E-02  0.2422574E+00
         22   -1    0    0    0    0  0.00000000000E+00  0.00000000000E+00  0.20184052511E+02  0.20184052511E+02  0.00000000000E+00 0. -1.
         22   -1    0    0    0    0 -0.00000000000E+00 -0.00000000000E+00 -0.30094315415E+01  0.30094315415E+01  0.00000000000E+00 0.  1.
          4    1    1    2  501    0 -0.27315641433E+01 -0.14601447174E+01 -0.18851985242E+01  0.38419186275E+01  0.12700000000E+01 0.  1.
         -4    1    1    2    0  501  0.27315641433E+01  0.14601447174E+01  0.19059819494E+02  0.19351565425E+02  0.12700000000E+01 0. -1.
<mgrwt>
<rscale>  0 0.33475910E+01</rscale>
<asrwt>0</asrwt>
<pdfrwt beam="1">0</pdfrwt>
<pdfrwt beam="2">0</pdfrwt>
<totfact> 0.18774049E+11</totfact>
</mgrwt>
</event>
<event>
 4    1  0.1733759E+006  0.4037771E+01  0.7546771E-02  0.2270132E+00
         22   -1    0    0    0    0  0.00000000000E+00  0.00000000000E+00  0.87121590324E+00  0.87121590324E+00  0.00000000000E+00 0. -1.
         22   -1    0    0    0    0 -0.00000000000E+00 -0.00000000000E+00 -0.18715359924E+02  0.18715359924E+02  0.00000000000E+00 0.  1.
          4    1    1    2  501    0 -0.35924219768E+01 -0.13361135199E+01 -0.90167584800E+01  0.98795510264E+01  0.12700000000E+01 0.  1.
         -4    1    1    2    0  501  0.35924219768E+01  0.13361135199E+01 -0.88273855404E+01  0.97070248004E+01  0.12700000000E+01 0.  1.
<mgrwt>
<rscale>  0 0.40377710E+01</rscale>
<asrwt>0</asrwt>
<pdfrwt beam="1">0</pdfrwt>
<pdfrwt beam="2">0</pdfrwt>
<totfact> 0.86110692E+11</totfact>
</mgrwt>
</event>
<event>
 4    1  0.1733759E+006  0.2114332E+01  0.7546771E-02  0.2907606E+00
         22   -1    0    0    0    0  0.00000000000E+00  0.00000000000E+00  0.20905216840E+01  0.20905216840E+01  0.00000000000E+00 0. -1.
         22   -1    0    0    0    0 -0.00000000000E+00 -0.00000000000E+00 -0.92274323351E+01  0.92274323351E+01  0.00000000000E+00 0.  1.
          4    1    1    2  501    0  0.46273893409E+00 -0.16258457946E+01 -0.85285564367E+01  0.87867329972E+01  0.12700000000E+01 0.  1.
         -4    1    1    2    0  501 -0.46273893409E+00  0.16258457946E+01  0.13916457856E+01  0.25312210219E+01  0.12700000000E+01 0. -1.
<mgrwt>
<rscale>  0 0.21143325E+01</rscale>
<asrwt>0</asrwt>
<pdfrwt beam="1">0</pdfrwt>
<pdfrwt beam="2">0</pdfrwt>
<totfact> 0.74892023E+11</totfact>
</mgrwt>
</event>
<event>
 4    1  0.1733759E+006  0.2601565E+01  0.7546771E-02  0.2665379E+00
         22   -1    0    0    0    0  0.00000000000E+00  0.00000000000E+00  0.85665568681E+01  0.85665568681E+01  0.00000000000E+00 0. -1.
         22   -1    0    0    0    0 -0.00000000000E+00 -0.00000000000E+00 -0.81035609838E+00  0.81035609838E+00  0.00000000000E+00 0.  1.
          4    1    1    2  501    0  0.14720885466E+01  0.17286392602E+01  0.31362049820E+01  0.40747908008E+01  0.12700000000E+01 0.  1.
         -4    1    1    2    0  501 -0.14720885466E+01 -0.17286392602E+01  0.46199957877E+01  0.53021221657E+01  0.12700000000E+01 0. -1.
<mgrwt>
<rscale>  0 0.26015646E+01</rscale>
<asrwt>0</asrwt>
<pdfrwt beam="1">0</pdfrwt>
<pdfrwt beam="2">0</pdfrwt>
<totfact> 0.24308585E+12</totfact>
</mgrwt>
</event>
<event>
 4    1  0.1733759E+006  0.5843126E+01  0.7546771E-02  0.2034049E+00
         22   -1    0    0    0    0  0.00000000000E+00  0.00000000000E+00  0.15737294824E+02  0.15737294824E+02  0.00000000000E+00 0.  1.
         22   -1    0    0    0    0 -0.00000000000E+00 -0.00000000000E+00 -0.23087559107E+01  0.23087559107E+01  0.00000000000E+00 0. -1.
          4    1    1    2  501    0 -0.47699833650E+01 -0.31267363220E+01  0.44982987188E+01  0.73740635130E+01  0.12700000000E+01 0. -1.
         -4    1    1    2    0  501  0.47699833650E+01  0.31267363220E+01  0.89302401943E+01  0.10671987222E+02  0.12700000000E+01 0.  1.
<mgrwt>
<rscale>  0 0.58431260E+01</rscale>
<asrwt>0</asrwt>
<pdfrwt beam="1">0</pdfrwt>
<pdfrwt beam="2">0</pdfrwt>
<totfact> 0.34806252E+11</totfact>
</mgrwt>
</event>
<event>
 4    1  0.1733759E+006  0.2500165E+01  0.7546771E-02  0.2708458E+00
         22   -1    0    0    0    0  0.00000000000E+00  0.00000000000E+00  0.19298795292E+02  0.19298795292E+02  0.00000000000E+00 0.  1.
         22   -1    0    0    0    0 -0.00000000000E+00 -0.00000000000E+00 -0.32744016358E+00  0.32744016358E+00  0.00000000000E+00 0. -1.
          4    1    1    2  501    0 -0.21481790869E+01  0.15247966233E+00  0.84648985078E+01  0.88263996161E+01  0.12700000000E+01 0.  1.
         -4    1    1    2    0  501  0.21481790869E+01 -0.15247966233E+00  0.10506456621E+02  0.10799835839E+02  0.12700000000E+01 0. -1.
<mgrwt>
<rscale>  0 0.25001647E+01</rscale>
<asrwt>0</asrwt>
<pdfrwt beam="1">0</pdfrwt>
<pdfrwt beam="2">0</pdfrwt>
<totfact> 0.25056931E+12</totfact>
</mgrwt>
</event>
<event>
 4    1  0.1733759E+006  0.2532256E+01  0.7546771E-02  0.2694478E+00
         22   -1    0    0    0    0  0.00000000000E+00  0.00000000000E+00  0.25681785446E+01  0.25681785446E+01  0.00000000000E+00 0.  1.
         22   -1    0    0    0    0 -0.00000000000E+00 -0.00000000000E+00 -0.15441435829E+02  0.15441435829E+02  0.00000000000E+00 0. -1.
          4    1    1    2  501    0  0.11467012772E+01  0.18666807509E+01 -0.14681329273E+02  0.14898112299E+02  0.12700000000E+01 0. -1.
         -4    1    1    2    0  501 -0.11467012772E+01 -0.18666807509E+01  0.18080719887E+01  0.31115020748E+01  0.12700000000E+01 0.  1.
<mgrwt>
<rscale>  0 0.25322561E+01</rscale>
<asrwt>0</asrwt>
<pdfrwt beam="1">0</pdfrwt>
<pdfrwt beam="2">0</pdfrwt>
<totfact> 0.31480534E+11</totfact>
</mgrwt>
</event>
<event>
 4    1  0.1733759E+006  0.3099676E+01  0.7546771E-02  0.2491590E+00
         22   -1    0    0    0    0  0.00000000000E+00  0.00000000000E+00  0.98537355108E+00  0.98537355108E+00  0.00000000000E+00 0. -1.
         22   -1    0    0    0    0 -0.00000000000E+00 -0.00000000000E+00 -0.11097088278E+02  0.11097088278E+02  0.00000000000E+00 0.  1.
          4    1    1    2  501    0  0.92490677668E+00 -0.26720098825E+01 -0.71602230923E+01  0.78023575981E+01  0.12700000000E+01 0.  1.
         -4    1    1    2    0  501 -0.92490677668E+00  0.26720098825E+01 -0.29514916344E+01  0.42801042307E+01  0.12700000000E+01 0. -1.
<mgrwt>
<rscale>  0 0.30996757E+01</rscale>
<asrwt>0</asrwt>
<pdfrwt beam="1">0</pdfrwt>
<pdfrwt beam="2">0</pdfrwt>
<totfact> 0.14222852E+12</totfact>
</mgrwt>
</event>
<event>
 4    1  0.1733759E+006  0.2555584E+01  0.7546771E-02  0.2684521E+00
         22   -1    0    0    0    0  0.00000000000E+00  0.00000000000E+00  0.40439272712E+00  0.40439272712E+00  0.00000000000E+00 0. -1.
         22   -1    0    0    0    0 -0.00000000000E+00 -0.00000000000E+00 -0.16273632826E+02  0.16273632826E+02  0.00000000000E+00 0.  1.
          4    1    1    2  501    0  0.18332140532E+01  0.12479726699E+01 -0.86609735879E+01  0.90301424706E+01  0.12700000000E+01 0.  1.
         -4    1    1    2    0  501 -0.18332140532E+01 -0.12479726699E+01 -0.72082665107E+01  0.76478830822E+01  0.12700000000E+01 0. -1.
<mgrwt>
<rscale>  0 0.25555840E+01</rscale>
<asrwt>0</asrwt>
<pdfrwt beam="1">0</pdfrwt>
<pdfrwt beam="2">0</pdfrwt>
<totfact> 0.24416505E+12</totfact>
</mgrwt>
</event>
<event>
 4    1  0.1733759E+006  0.3211638E+01  0.7546771E-02  0.2459254E+00
         22   -1    0    0    0    0  0.00000000000E+00  0.00000000000E+00  0.98106100262E+00  0.98106100262E+00  0.00000000000E+00 0. -1.
         22   -1    0    0    0    0 -0.00000000000E+00 -0.00000000000E+00 -0.11045070982E+02  0.11045070982E+02  0.00000000000E+00 0.  1.
          4    1    1    2  501    0 -0.25960089768E+01  0.14008779893E+01 -0.37131602128E+01  0.49093971641E+01  0.12700000000E+01 0. -1.
         -4    1    1    2    0  501  0.25960089768E+01 -0.14008779893E+01 -0.63508497664E+01  0.71167348204E+01  0.12700000000E+01 0. -1.
<mgrwt>
<rscale>  0 0.32116385E+01</rscale>
<asrwt>0</asrwt>
<pdfrwt beam="1">0</pdfrwt>
<pdfrwt beam="2">0</pdfrwt>
<totfact> 0.14376140E+12</totfact>
</mgrwt>
</event>
<event>
 4    1  0.1733759E+006  0.2185179E+01  0.7546771E-02  0.2866025E+00
         22   -1    0    0    0    0  0.00000000000E+00  0.00000000000E+00  0.38702870504E+02  0.38702870504E+02  0.00000000000E+00 0. -1.
         22   -1    0    0    0    0 -0.00000000000E+00 -0.00000000000E+00 -0.12601438886E+00  0.12601438886E+00  0.00000000000E+00 0.  1.
          4    1    1    2  501    0 -0.94334873551E+00 -0.15073822668E+01  0.16479256024E+02  0.16623504060E+02  0.12700000000E+01 0.  1.
         -4    1    1    2    0  501  0.94334873551E+00  0.15073822668E+01  0.22097600091E+02  0.22205380833E+02  0.12700000000E+01 0. -1.
<mgrwt>
<rscale>  0 0.21851792E+01</rscale>
<asrwt>0</asrwt>
<pdfrwt beam="1">0</pdfrwt>
<pdfrwt beam="2">0</pdfrwt>
<totfact> 0.30086010E+12</totfact>
</mgrwt>
</event>
<event>
 4    1  0.1733759E+006  0.2992148E+01  0.7546771E-02  0.2524667E+00
         22   -1    0    0    0    0  0.00000000000E+00  0.00000000000E+00  0.27266145558E+02  0.27266145558E+02  0.00000000000E+00 0. -1.
         22   -1    0    0    0    0 -0.00000000000E+00 -0.00000000000E+00 -0.34568020647E+00  0.34568020647E+00  0.00000000000E+00 0.  1.
          4    1    1    2  501    0  0.12283486025E+01  0.24147892964E+01  0.10369369619E+02  0.10792440592E+02  0.12700000000E+01 0.  1.
         -4    1    1    2    0  501 -0.12283486025E+01 -0.24147892964E+01  0.16551095732E+02  0.16819385172E+02  0.12700000000E+01 0. -1.
<mgrwt>
<rscale>  0 0.29921477E+01</rscale>
<asrwt>0</asrwt>
<pdfrwt beam="1">0</pdfrwt>
<pdfrwt beam="2">0</pdfrwt>
<totfact> 0.15276195E+12</totfact>
</mgrwt>
</event>
<event>
 4    1  0.1733759E+006  0.2992119E+01  0.7546771E-02  0.2524676E+00
         22   -1    0    0    0    0  0.00000000000E+00  0.00000000000E+00  0.31017743586E+01  0.31017743586E+01  0.00000000000E+00 0.  1.
         22   -1    0    0    0    0 -0.00000000000E+00 -0.00000000000E+00 -0.13917550627E+02  0.13917550627E+02  0.00000000000E+00 0. -1.
          4    1    1    2  501    0 -0.11076094358E+01  0.24724634083E+01 -0.12983932832E+02  0.13324236779E+02  0.12700000000E+01 0. -1.
         -4    1    1    2    0  501  0.11076094358E+01 -0.24724634083E+01  0.21681565636E+01  0.36950882062E+01  0.12700000000E+01 0.  1.
<mgrwt>
<rscale>  0 0.29921186E+01</rscale>
<asrwt>0</asrwt>
<pdfrwt beam="1">0</pdfrwt>
<pdfrwt beam="2">0</pdfrwt>
<totfact> 0.28700739E+11</totfact>
</mgrwt>
</event>
<event>
 4    1  0.1733759E+006  0.3091247E+01  0.7546771E-02  0.2494109E+00
         22   -1    0    0    0    0  0.00000000000E+00  0.00000000000E+00  0.11903726160E+01  0.11903726160E+01  0.00000000000E+00 0.  1.
         22   -1    0    0    0    0 -0.00000000000E+00 -0.00000000000E+00 -0.13898122968E+02  0.13898122968E+02  0.00000000000E+00 0. -1.
          4    1    1    2  501    0  0.55577633854E+00 -0.27629735592E+01 -0.11257046198E+02  0.11673769714E+02  0.12700000000E+01 0.  1.
         -4    1    1    2    0  501 -0.55577633854E+00  0.27629735592E+01 -0.14507041542E+01  0.34147258705E+01  0.12700000000E+01 0. -1.
<mgrwt>
<rscale>  0 0.30912474E+01</rscale>
<asrwt>0</asrwt>
<pdfrwt beam="1">0</pdfrwt>
<pdfrwt beam="2">0</pdfrwt>
<totfact> 0.87049383E+11</totfact>
</mgrwt>
</event>
<event>
 4    1  0.1733759E+006  0.2497970E+01  0.7546771E-02  0.2709426E+00
         22   -1    0    0    0    0  0.00000000000E+00  0.00000000000E+00  0.13697893599E+02  0.13697893599E+02  0.00000000000E+00 0. -1.
         22   -1    0    0    0    0 -0.00000000000E+00 -0.00000000000E+00 -0.15220727921E+01  0.15220727921E+01  0.00000000000E+00 0. -1.
          4    1    1    2  501    0  0.21503242785E+01  0.55298399126E-01 -0.28230872240E+00  0.25138716416E+01  0.12700000000E+01 0. -1.
         -4    1    1    2    0  501 -0.21503242785E+01 -0.55298399126E-01  0.12458129529E+02  0.12706094750E+02  0.12700000000E+01 0. -1.
<mgrwt>
<rscale>  0 0.24979697E+01</rscale>
<asrwt>0</asrwt>
<pdfrwt beam="1">0</pdfrwt>
<pdfrwt beam="2">0</pdfrwt>
<totfact> 0.66820087E+11</totfact>
</mgrwt>
</event>
<event>
 4    1  0.1733759E+006  0.5930508E+01  0.7546771E-02  0.2025977E+00
         22   -1    0    0    0    0  0.00000000000E+00  0.00000000000E+00  0.78606194981E+01  0.78606194981E+01  0.00000000000E+00 0.  1.
         22   -1    0    0    0    0 -0.00000000000E+00 -0.00000000000E+00 -0.50937443846E+01  0.50937443846E+01  0.00000000000E+00 0. -1.
          4    1    1    2  501    0 -0.57299008902E+01  0.85220625093E+00 -0.87528036885E+00  0.59947506562E+01  0.12700000000E+01 0. -1.
         -4    1    1    2    0  501  0.57299008902E+01 -0.85220625093E+00  0.36421554823E+01  0.69596132265E+01  0.12700000000E+01 0.  1.
<mgrwt>
<rscale>  0 0.59305075E+01</rscale>
<asrwt>0</asrwt>
<pdfrwt beam="1">0</pdfrwt>
<pdfrwt beam="2">0</pdfrwt>
<totfact> 0.32019105E+11</totfact>
</mgrwt>
</event>
<event>
 4    1  0.1733759E+006  0.2107394E+01  0.7546771E-02  0.2911824E+00
         22   -1    0    0    0    0  0.00000000000E+00  0.00000000000E+00  0.36218241662E+01  0.36218241662E+01  0.00000000000E+00 0.  1.
         22   -1    0    0    0    0 -0.00000000000E+00 -0.00000000000E+00 -0.12640652392E+01  0.12640652392E+01  0.00000000000E+00 0. -1.
          4    1    1    2  501    0  0.99832260377E+00 -0.13533524931E+01  0.75611213033E+00  0.22389320100E+01  0.12700000000E+01 0. -1.
         -4    1    1    2    0  501 -0.99832260377E+00  0.13533524931E+01  0.16016467967E+01  0.26469573954E+01  0.12700000000E+01 0.  1.
<mgrwt>
<rscale>  0 0.21073944E+01</rscale>
<asrwt>0</asrwt>
<pdfrwt beam="1">0</pdfrwt>
<pdfrwt beam="2">0</pdfrwt>
<totfact> 0.40680984E+12</totfact>
</mgrwt>
</event>
<event>
 4    1  0.1733759E+006  0.2350079E+01  0.7546771E-02  0.2778557E+00
         22   -1    0    0    0    0  0.00000000000E+00  0.00000000000E+00  0.90440533972E+00  0.90440533972E+00  0.00000000000E+00 0.  1.
         22   -1    0    0    0    0 -0.00000000000E+00 -0.00000000000E+00 -0.84119771224E+01  0.84119771224E+01  0.00000000000E+00 0.  1.
          4    1    1    2  501    0 -0.10829140677E+01 -0.16544690629E+01 -0.61923615239E+01  0.66233082368E+01  0.12700000000E+01 0.  1.
         -4    1    1    2    0  501  0.10829140677E+01  0.16544690629E+01 -0.13152102589E+01  0.26930742253E+01  0.12700000000E+01 0.  1.
<mgrwt>
<rscale>  0 0.23500789E+01</rscale>
<asrwt>0</asrwt>
<pdfrwt beam="1">0</pdfrwt>
<pdfrwt beam="2">0</pdfrwt>
<totfact> 0.21926004E+12</totfact>
</mgrwt>
</event>
<event>
 4    1  0.1733759E+006  0.2032354E+01  0.7546771E-02  0.2959222E+00
         22   -1    0    0    0    0  0.00000000000E+00  0.00000000000E+00  0.13422127114E+02  0.13422127114E+02  0.00000000000E+00 0. -1.
         22   -1    0    0    0    0 -0.00000000000E+00 -0.00000000000E+00 -0.88559072523E+00  0.88559072523E+00  0.00000000000E+00 0. -1.
          4    1    1    2  501    0  0.13465508407E+01 -0.83926488846E+00  0.48952531071E+00  0.20904783542E+01  0.12700000000E+01 0. -1.
         -4    1    1    2    0  501 -0.13465508407E+01  0.83926488846E+00  0.12047011078E+02  0.12217239485E+02  0.12700000000E+01 0. -1.
<mgrwt>
<rscale>  0 0.20323545E+01</rscale>
<asrwt>0</asrwt>
<pdfrwt beam="1">0</pdfrwt>
<pdfrwt beam="2">0</pdfrwt>
<totfact> 0.12735672E+12</totfact>
</mgrwt>
</event>
<event>
 4    1  0.1733759E+006  0.2212764E+01  0.7546771E-02  0.2850528E+00
         22   -1    0    0    0    0  0.00000000000E+00  0.00000000000E+00  0.35994065867E+01  0.35994065867E+01  0.00000000000E+00 0. -1.
         22   -1    0    0    0    0 -0.00000000000E+00 -0.00000000000E+00 -0.13914497043E+01  0.13914497043E+01  0.00000000000E+00 0. -1.
          4    1    1    2  501    0 -0.85478258171E+00  0.15977392362E+01  0.73069459840E+00  0.23302872194E+01  0.12700000000E+01 0. -1.
         -4    1    1    2    0  501  0.85478258171E+00 -0.15977392362E+01  0.14772622840E+01  0.26605690715E+01  0.12700000000E+01 0. -1.
<mgrwt>
<rscale>  0 0.22127639E+01</rscale>
<asrwt>0</asrwt>
<pdfrwt beam="1">0</pdfrwt>
<pdfrwt beam="2">0</pdfrwt>
<totfact> 0.36702991E+12</totfact>
</mgrwt>
</event>
<event>
 4    1  0.1733759E+006  0.2958391E+01  0.7546771E-02  0.2535495E+00
         22   -1    0    0    0    0  0.00000000000E+00  0.00000000000E+00  0.14900048049E+01  0.14900048049E+01  0.00000000000E+00 0.  1.
         22   -1    0    0    0    0 -0.00000000000E+00 -0.00000000000E+00 -0.61258357992E+01  0.61258357992E+01  0.00000000000E+00 0.  1.
          4    1    1    2  501    0 -0.26114667193E+01  0.56517006175E+00 -0.30902170409E+01  0.42780272304E+01  0.12700000000E+01 0.  1.
         -4    1    1    2    0  501  0.26114667193E+01 -0.56517006175E+00 -0.15456139534E+01  0.33378133737E+01  0.12700000000E+01 0.  1.
<mgrwt>
<rscale>  0 0.29583907E+01</rscale>
<asrwt>0</asrwt>
<pdfrwt beam="1">0</pdfrwt>
<pdfrwt beam="2">0</pdfrwt>
<totfact> 0.18095971E+12</totfact>
</mgrwt>
</event>
<event>
 4    1  0.1733759E+006  0.2057416E+01  0.7546771E-02  0.2943018E+00
         22   -1    0    0    0    0  0.00000000000E+00  0.00000000000E+00  0.95087511832E+01  0.95087511832E+01  0.00000000000E+00 0.  1.
         22   -1    0    0    0    0 -0.00000000000E+00 -0.00000000000E+00 -0.44709772327E+00  0.44709772327E+00  0.00000000000E+00 0.  1.
          4    1    1    2  501    0  0.16174683356E+01  0.62096505335E-01  0.42035068301E+01  0.46800031477E+01  0.12700000000E+01 0.  1.
         -4    1    1    2    0  501 -0.16174683356E+01 -0.62096505335E-01  0.48581466299E+01  0.52758457587E+01  0.12700000000E+01 0.  1.
<mgrwt>
<rscale>  0 0.20574158E+01</rscale>
<asrwt>0</asrwt>
<pdfrwt beam="1">0</pdfrwt>
<pdfrwt beam="2">0</pdfrwt>
<totfact> 0.42028270E+12</totfact>
</mgrwt>
</event>
<event>
 4    1  0.1733759E+006  0.3584878E+01  0.7546771E-02  0.2364444E+00
         22   -1    0    0    0    0  0.00000000000E+00  0.00000000000E+00  0.14369947345E+01  0.14369947345E+01  0.00000000000E+00 0.  1.
         22   -1    0    0    0    0 -0.00000000000E+00 -0.00000000000E+00 -0.93929504722E+01  0.93929504722E+01  0.00000000000E+00 0. -1.
          4    1    1    2  501    0 -0.33522769222E+01  0.26230229993E-01 -0.51628602890E+01  0.62854176434E+01  0.12700000000E+01 0. -1.
         -4    1    1    2    0  501  0.33522769222E+01 -0.26230229993E-01 -0.27930954487E+01  0.45445275633E+01  0.12700000000E+01 0.  1.
<mgrwt>
<rscale>  0 0.35848778E+01</rscale>
<asrwt>0</asrwt>
<pdfrwt beam="1">0</pdfrwt>
<pdfrwt beam="2">0</pdfrwt>
<totfact> 0.11298614E+12</totfact>
</mgrwt>
</event>
<event>
 4    1  0.1733759E+006  0.2012585E+01  0.7546771E-02  0.2972282E+00
         22   -1    0    0    0    0  0.00000000000E+00  0.00000000000E+00  0.66374914241E+01  0.66374914241E+01  0.00000000000E+00 0.  1.
         22   -1    0    0    0    0 -0.00000000000E+00 -0.00000000000E+00 -0.10644495401E+01  0.10644495401E+01  0.00000000000E+00 0.  1.
          4    1    1    2  501    0 -0.71024851867E+00  0.13903767037E+01  0.27097026837E+00  0.20307449920E+01  0.12700000000E+01 0.  1.
         -4    1    1    2    0  501  0.71024851867E+00 -0.13903767037E+01  0.53020716156E+01  0.56711959721E+01  0.12700000000E+01 0.  1.
<mgrwt>
<rscale>  0 0.20125855E+01</rscale>
<asrwt>0</asrwt>
<pdfrwt beam="1">0</pdfrwt>
<pdfrwt beam="2">0</pdfrwt>
<totfact> 0.24181710E+12</totfact>
</mgrwt>
</event>
<event>
 4    1  0.1733759E+006  0.2892485E+01  0.7546771E-02  0.2557288E+00
         22   -1    0    0    0    0  0.00000000000E+00  0.00000000000E+00  0.13828829239E+01  0.13828829239E+01  0.00000000000E+00 0.  1.
         22   -1    0    0    0    0 -0.00000000000E+00 -0.00000000000E+00 -0.65351124652E+01  0.65351124652E+01  0.00000000000E+00 0. -1.
          4    1    1    2  501    0  0.17618602201E+01  0.19103442932E+01 -0.36547430935E+01  0.46608597740E+01  0.12700000000E+01 0. -1.
         -4    1    1    2    0  501 -0.17618602201E+01 -0.19103442932E+01 -0.14974864479E+01  0.32571356151E+01  0.12700000000E+01 0. -1.
<mgrwt>
<rscale>  0 0.28924845E+01</rscale>
<asrwt>0</asrwt>
<pdfrwt beam="1">0</pdfrwt>
<pdfrwt beam="2">0</pdfrwt>
<totfact> 0.18253332E+12</totfact>
</mgrwt>
</event>
<event>
 4    1  0.1733759E+006  0.2206044E+01  0.7546771E-02  0.2854269E+00
         22   -1    0    0    0    0  0.00000000000E+00  0.00000000000E+00  0.34053004234E+01  0.34053004234E+01  0.00000000000E+00 0. -1.
         22   -1    0    0    0    0 -0.00000000000E+00 -0.00000000000E+00 -0.14297045656E+01  0.14297045656E+01  0.00000000000E+00 0.  1.
          4    1    1    2  501    0 -0.16852087129E+01 -0.64327293190E+00  0.93947691093E+00  0.23977583984E+01  0.12700000000E+01 0.  1.
         -4    1    1    2    0  501  0.16852087129E+01  0.64327293190E+00  0.10361189469E+01  0.24372465906E+01  0.12700000000E+01 0. -1.
<mgrwt>
<rscale>  0 0.22060436E+01</rscale>
<asrwt>0</asrwt>
<pdfrwt beam="1">0</pdfrwt>
<pdfrwt beam="2">0</pdfrwt>
<totfact> 0.37966190E+12</totfact>
</mgrwt>
</event>
<event>
 4    1  0.1733759E+006  0.2185138E+01  0.7546771E-02  0.2866048E+00
         22   -1    0    0    0    0  0.00000000000E+00  0.00000000000E+00  0.13159866963E+01  0.13159866963E+01  0.00000000000E+00 0.  1.
         22   -1    0    0    0    0 -0.00000000000E+00 -0.00000000000E+00 -0.36517318212E+01  0.36517318212E+01  0.00000000000E+00 0. -1.
          4    1    1    2  501    0 -0.15760545892E+01 -0.82339477712E+00 -0.13667344708E+01  0.25773610808E+01  0.12700000000E+01 0. -1.
         -4    1    1    2    0  501  0.15760545892E+01  0.82339477712E+00 -0.96901065415E+00  0.23903574367E+01  0.12700000000E+01 0. -1.
<mgrwt>
<rscale>  0 0.21851378E+01</rscale>
<asrwt>0</asrwt>
<pdfrwt beam="1">0</pdfrwt>
<pdfrwt beam="2">0</pdfrwt>
<totfact> 0.38472483E+12</totfact>
</mgrwt>
</event>
<event>
 4    1  0.1733759E+006  0.2209478E+01  0.7546771E-02  0.2852355E+00
         22   -1    0    0    0    0  0.00000000000E+00  0.00000000000E+00  0.20645926095E+02  0.20645926095E+02  0.00000000000E+00 0. -1.
         22   -1    0    0    0    0 -0.00000000000E+00 -0.00000000000E+00 -0.20781359724E+01  0.20781359724E+01  0.00000000000E+00 0. -1.
          4    1    1    2  501    0  0.16345226326E+01  0.77280462100E+00 -0.14122288932E+01  0.26222474455E+01  0.12700000000E+01 0. -1.
         -4    1    1    2    0  501 -0.16345226326E+01 -0.77280462100E+00  0.19980019016E+02  0.20101814622E+02  0.12700000000E+01 0. -1.
<mgrwt>
<rscale>  0 0.22094776E+01</rscale>
<asrwt>0</asrwt>
<pdfrwt beam="1">0</pdfrwt>
<pdfrwt beam="2">0</pdfrwt>
<totfact> 0.28075127E+11</totfact>
</mgrwt>
</event>
<event>
 4    1  0.1733759E+006  0.2737325E+01  0.7546771E-02  0.2612328E+00
         22   -1    0    0    0    0  0.00000000000E+00  0.00000000000E+00  0.86430407295E+01  0.86430407295E+01  0.00000000000E+00 0. -1.
         22   -1    0    0    0    0 -0.00000000000E+00 -0.00000000000E+00 -0.92391000263E+00  0.92391000263E+00  0.00000000000E+00 0. -1.
          4    1    1    2  501    0 -0.24026623776E+01 -0.32750549928E+00  0.26716801307E+01  0.38250256305E+01  0.12700000000E+01 0. -1.
         -4    1    1    2    0  501  0.24026623776E+01  0.32750549928E+00  0.50474505961E+01  0.57419251016E+01  0.12700000000E+01 0. -1.
<mgrwt>
<rscale>  0 0.27373247E+01</rscale>
<asrwt>0</asrwt>
<pdfrwt beam="1">0</pdfrwt>
<pdfrwt beam="2">0</pdfrwt>
<totfact> 0.20712710E+12</totfact>
</mgrwt>
</event>
<event>
 4    1  0.1733759E+006  0.2907817E+01  0.7546771E-02  0.2552138E+00
         22   -1    0    0    0    0  0.00000000000E+00  0.00000000000E+00  0.26970162833E+01  0.26970162833E+01  0.00000000000E+00 0.  1.
         22   -1    0    0    0    0 -0.00000000000E+00 -0.00000000000E+00 -0.37419010558E+01  0.37419010558E+01  0.00000000000E+00 0. -1.
          4    1    1    2  501    0 -0.26018237413E+01  0.27020601939E+00 -0.18189116155E+01  0.34298451187E+01  0.12700000000E+01 0. -1.
         -4    1    1    2    0  501  0.26018237413E+01 -0.27020601939E+00  0.77402684303E+00  0.30090722204E+01  0.12700000000E+01 0.  1.
<mgrwt>
<rscale>  0 0.29078167E+01</rscale>
<asrwt>0</asrwt>
<pdfrwt beam="1">0</pdfrwt>
<pdfrwt beam="2">0</pdfrwt>
<totfact> 0.16309600E+12</totfact>
</mgrwt>
</event>
<event>
 4    1  0.1733759E+006  0.2175996E+01  0.7546771E-02  0.2871267E+00
         22   -1    0    0    0    0  0.00000000000E+00  0.00000000000E+00  0.36812710832E+00  0.36812710832E+00  0.00000000000E+00 0. -1.
         22   -1    0    0    0    0 -0.00000000000E+00 -0.00000000000E+00 -0.15988122463E+02  0.15988122463E+02  0.00000000000E+00 0.  1.
          4    1    1    2  501    0  0.13094665977E+01 -0.11863202565E+01 -0.41939205989E+01  0.47248204740E+01  0.12700000000E+01 0. -1.
         -4    1    1    2    0  501 -0.13094665977E+01  0.11863202565E+01 -0.11426074756E+02  0.11631429097E+02  0.12700000000E+01 0.  1.
<mgrwt>
<rscale>  0 0.21759960E+01</rscale>
<asrwt>0</asrwt>
<pdfrwt beam="1">0</pdfrwt>
<pdfrwt beam="2">0</pdfrwt>
<totfact> 0.27736998E+12</totfact>
</mgrwt>
</event>
<event>
 4    1  0.1733759E+006  0.2326342E+01  0.7546771E-02  0.2790421E+00
         22   -1    0    0    0    0  0.00000000000E+00  0.00000000000E+00  0.14320735007E+02  0.14320735007E+02  0.00000000000E+00 0. -1.
         22   -1    0    0    0    0 -0.00000000000E+00 -0.00000000000E+00 -0.32980656156E+01  0.32980656156E+01  0.00000000000E+00 0.  1.
          4    1    1    2  501    0  0.50450968170E+00 -0.18826675858E+01 -0.27780085179E+01  0.36234235998E+01  0.12700000000E+01 0.  1.
         -4    1    1    2    0  501 -0.50450968170E+00  0.18826675858E+01  0.13800677909E+02  0.13995377023E+02  0.12700000000E+01 0. -1.
<mgrwt>
<rscale>  0 0.23263420E+01</rscale>
<asrwt>0</asrwt>
<pdfrwt beam="1">0</pdfrwt>
<pdfrwt beam="2">0</pdfrwt>
<totfact> 0.25791103E+11</totfact>
</mgrwt>
</event>
<event>
 4    1  0.1733759E+006  0.5531917E+01  0.7546771E-02  0.2064398E+00
         22   -1    0    0    0    0  0.00000000000E+00  0.00000000000E+00  0.10176442498E+01  0.10176442498E+01  0.00000000000E+00 0. -1.
         22   -1    0    0    0    0 -0.00000000000E+00 -0.00000000000E+00 -0.30082677531E+02  0.30082677531E+02  0.00000000000E+00 0.  1.
          4    1    1    2  501    0 -0.28546600912E+00  0.53765891132E+01 -0.14232935064E+02  0.15270184736E+02  0.12700000000E+01 0. -1.
         -4    1    1    2    0  501  0.28546600912E+00 -0.53765891132E+01 -0.14832098217E+02  0.15830137045E+02  0.12700000000E+01 0.  1.
<mgrwt>
<rscale>  0 0.55319166E+01</rscale>
<asrwt>0</asrwt>
<pdfrwt beam="1">0</pdfrwt>
<pdfrwt beam="2">0</pdfrwt>
<totfact> 0.39697180E+11</totfact>
</mgrwt>
</event>
<event>
 4    1  0.1733759E+006  0.2065070E+01  0.7546771E-02  0.2938145E+00
         22   -1    0    0    0    0  0.00000000000E+00  0.00000000000E+00  0.89467641028E+00  0.89467641028E+00  0.00000000000E+00 0. -1.
         22   -1    0    0    0    0 -0.00000000000E+00 -0.00000000000E+00 -0.48951172858E+01  0.48951172858E+01  0.00000000000E+00 0. -1.
          4    1    1    2  501    0 -0.80106722011E+00 -0.14177116697E+01 -0.24693856392E+01  0.32190651601E+01  0.12700000000E+01 0. -1.
         -4    1    1    2    0  501  0.80106722011E+00  0.14177116697E+01 -0.15310552363E+01  0.25707285361E+01  0.12700000000E+01 0. -1.
<mgrwt>
<rscale>  0 0.20650702E+01</rscale>
<asrwt>0</asrwt>
<pdfrwt beam="1">0</pdfrwt>
<pdfrwt beam="2">0</pdfrwt>
<totfact> 0.42346024E+12</totfact>
</mgrwt>
</event>
<event>
 4    1  0.1733759E+006  0.3116145E+01  0.7546771E-02  0.2486704E+00
         22   -1    0    0    0    0  0.00000000000E+00  0.00000000000E+00  0.76200368226E+00  0.76200368226E+00  0.00000000000E+00 0.  1.
         22   -1    0    0    0    0 -0.00000000000E+00 -0.00000000000E+00 -0.21309406680E+02  0.21309406680E+02  0.00000000000E+00 0. -1.
          4    1    1    2  501    0  0.28438506438E+01  0.99870451641E-01 -0.17270652661E+02  0.17549524322E+02  0.12700000000E+01 0. -1.
         -4    1    1    2    0  501 -0.28438506438E+01 -0.99870451641E-01 -0.32767503365E+01  0.45218860400E+01  0.12700000000E+01 0.  1.
<mgrwt>
<rscale>  0 0.31161451E+01</rscale>
<asrwt>0</asrwt>
<pdfrwt beam="1">0</pdfrwt>
<pdfrwt beam="2">0</pdfrwt>
<totfact> 0.85301261E+11</totfact>
</mgrwt>
</event>
<event>
 4    1  0.1733759E+006  0.2225704E+01  0.7546771E-02  0.2843385E+00
         22   -1    0    0    0    0  0.00000000000E+00  0.00000000000E+00  0.16434351557E+01  0.16434351557E+01  0.00000000000E+00 0. -1.
         22   -1    0    0    0    0 -0.00000000000E+00 -0.00000000000E+00 -0.30986373562E+01  0.30986373562E+01  0.00000000000E+00 0.  1.
          4    1    1    2  501    0 -0.15880427929E+01 -0.90497322228E+00 -0.11188393947E+01  0.24910957501E+01  0.12700000000E+01 0.  1.
         -4    1    1    2    0  501  0.15880427929E+01  0.90497322228E+00 -0.33636280583E+00  0.22509767618E+01  0.12700000000E+01 0. -1.
<mgrwt>
<rscale>  0 0.22257036E+01</rscale>
<asrwt>0</asrwt>
<pdfrwt beam="1">0</pdfrwt>
<pdfrwt beam="2">0</pdfrwt>
<totfact> 0.36117667E+12</totfact>
</mgrwt>
</event>
<event>
 4    1  0.1733759E+006  0.2274123E+01  0.7546771E-02  0.2817347E+00
         22   -1    0    0    0    0  0.00000000000E+00  0.00000000000E+00  0.17722119676E+01  0.17722119676E+01  0.00000000000E+00 0.  1.
         22   -1    0    0    0    0 -0.00000000000E+00 -0.00000000000E+00 -0.41227869978E+01  0.41227869978E+01  0.00000000000E+00 0. -1.
          4    1    1    2  501    0 -0.58000071197E+00 -0.17950856541E+01 -0.27685267718E+01  0.35827885533E+01  0.12700000000E+01 0. -1.
         -4    1    1    2    0  501  0.58000071197E+00  0.17950856541E+01  0.41795174154E+00  0.23122104121E+01  0.12700000000E+01 0.  1.
<mgrwt>
<rscale>  0 0.22741225E+01</rscale>
<asrwt>0</asrwt>
<pdfrwt beam="1">0</pdfrwt>
<pdfrwt beam="2">0</pdfrwt>
<totfact> 0.23681542E+12</totfact>
</mgrwt>
</event>
<event>
 4    1  0.1733759E+006  0.2776755E+01  0.7546771E-02  0.2597811E+00
         22   -1    0    0    0    0  0.00000000000E+00  0.00000000000E+00  0.14316032487E+01  0.14316032487E+01  0.00000000000E+00 0. -1.
         22   -1    0    0    0    0 -0.00000000000E+00 -0.00000000000E+00 -0.55938485772E+01  0.55938485772E+01  0.00000000000E+00 0.  1.
          4    1    1    2  501    0 -0.23451571546E+01 -0.77311450568E+00 -0.27585186235E+01  0.39140507298E+01  0.12700000000E+01 0.  1.
         -4    1    1    2    0  501  0.23451571546E+01  0.77311450568E+00 -0.14037267050E+01  0.31114010961E+01  0.12700000000E+01 0. -1.
<mgrwt>
<rscale>  0 0.27767550E+01</rscale>
<asrwt>0</asrwt>
<pdfrwt beam="1">0</pdfrwt>
<pdfrwt beam="2">0</pdfrwt>
<totfact> 0.21109660E+12</totfact>
</mgrwt>
</event>
<event>
 4    1  0.1733759E+006  0.2510452E+01  0.7546771E-02  0.2703940E+00
         22   -1    0    0    0    0  0.00000000000E+00  0.00000000000E+00  0.37193354216E+01  0.37193354216E+01  0.00000000000E+00 0. -1.
         22   -1    0    0    0    0 -0.00000000000E+00 -0.00000000000E+00 -0.17922391143E+01  0.17922391143E+01  0.00000000000E+00 0. -1.
          4    1    1    2  501    0 -0.21131129353E+01 -0.47352265484E+00  0.31995987055E+00  0.25307596292E+01  0.12700000000E+01 0. -1.
         -4    1    1    2    0  501  0.21131129353E+01  0.47352265484E+00  0.16071364367E+01  0.29808149067E+01  0.12700000000E+01 0. -1.
<mgrwt>
<rscale>  0 0.25104521E+01</rscale>
<asrwt>0</asrwt>
<pdfrwt beam="1">0</pdfrwt>
<pdfrwt beam="2">0</pdfrwt>
<totfact> 0.26386849E+12</totfact>
</mgrwt>
</event>
<event>
 4    1  0.1733759E+006  0.2413991E+01  0.7546771E-02  0.2747708E+00
         22   -1    0    0    0    0  0.00000000000E+00  0.00000000000E+00  0.60303203946E+00  0.60303203946E+00  0.00000000000E+00 0.  1.
         22   -1    0    0    0    0 -0.00000000000E+00 -0.00000000000E+00 -0.16261676418E+02  0.16261676418E+02  0.00000000000E+00 0. -1.
          4    1    1    2  501    0 -0.15057055759E+01 -0.13954574813E+01 -0.13200639809E+02  0.13419547021E+02  0.12700000000E+01 0. -1.
         -4    1    1    2    0  501  0.15057055759E+01  0.13954574813E+01 -0.24580045691E+01  0.34451614368E+01  0.12700000000E+01 0.  1.
<mgrwt>
<rscale>  0 0.24139907E+01</rscale>
<asrwt>0</asrwt>
<pdfrwt beam="1">0</pdfrwt>
<pdfrwt beam="2">0</pdfrwt>
<totfact> 0.15564602E+12</totfact>
</mgrwt>
</event>
<event>
 4    1  0.1733759E+006  0.2183326E+01  0.7546771E-02  0.2867080E+00
         22   -1    0    0    0    0  0.00000000000E+00  0.00000000000E+00  0.33627832392E+01  0.33627832392E+01  0.00000000000E+00 0. -1.
         22   -1    0    0    0    0 -0.00000000000E+00 -0.00000000000E+00 -0.17554307069E+01  0.17554307069E+01  0.00000000000E+00 0.  1.
          4    1    1    2  501    0 -0.42560436061E+00  0.17242016133E+01 -0.31906293162E+00  0.22065156762E+01  0.12700000000E+01 0.  1.
         -4    1    1    2    0  501  0.42560436061E+00 -0.17242016133E+01  0.19264154639E+01  0.29116982699E+01  0.12700000000E+01 0. -1.
<mgrwt>
<rscale>  0 0.21833255E+01</rscale>
<asrwt>0</asrwt>
<pdfrwt beam="1">0</pdfrwt>
<pdfrwt beam="2">0</pdfrwt>
<totfact> 0.30416659E+12</totfact>
</mgrwt>
</event>
<event>
 4    1  0.1733759E+006  0.2497700E+01  0.7546771E-02  0.2709545E+00
         22   -1    0    0    0    0  0.00000000000E+00  0.00000000000E+00  0.23858470388E+01  0.23858470388E+01  0.00000000000E+00 0.  1.
         22   -1    0    0    0    0 -0.00000000000E+00 -0.00000000000E+00 -0.11304959941E+02  0.11304959941E+02  0.00000000000E+00 0. -1.
          4    1    1    2  501    0 -0.15984475615E+00 -0.21447738258E+01 -0.10461314779E+02  0.10755352715E+02  0.12700000000E+01 0. -1.
         -4    1    1    2    0  501  0.15984475615E+00  0.21447738258E+01  0.15422018774E+01  0.29354542647E+01  0.12700000000E+01 0.  1.
<mgrwt>
<rscale>  0 0.24977000E+01</rscale>
<asrwt>0</asrwt>
<pdfrwt beam="1">0</pdfrwt>
<pdfrwt beam="2">0</pdfrwt>
<totfact> 0.50235029E+11</totfact>
</mgrwt>
</event>
<event>
 4    1  0.1733759E+006  0.4701164E+01  0.7546771E-02  0.2160459E+00
         22   -1    0    0    0    0  0.00000000000E+00  0.00000000000E+00  0.83494853349E+01  0.83494853349E+01  0.00000000000E+00 0. -1.
         22   -1    0    0    0    0 -0.00000000000E+00 -0.00000000000E+00 -0.51225081196E+01  0.51225081196E+01  0.00000000000E+00 0.  1.
          4    1    1    2  501    0  0.42754531699E+01  0.14861169276E+01 -0.30691887335E+01  0.56143443795E+01  0.12700000000E+01 0.  1.
         -4    1    1    2    0  501 -0.42754531699E+01 -0.14861169276E+01  0.62961659488E+01  0.78576490749E+01  0.12700000000E+01 0. -1.
<mgrwt>
<rscale>  0 0.47011640E+01</rscale>
<asrwt>0</asrwt>
<pdfrwt beam="1">0</pdfrwt>
<pdfrwt beam="2">0</pdfrwt>
<totfact> 0.29581328E+11</totfact>
</mgrwt>
</event>
<event>
 4    1  0.1733759E+006  0.2465306E+01  0.7546771E-02  0.2724026E+00
         22   -1    0    0    0    0  0.00000000000E+00  0.00000000000E+00  0.37633472541E+00  0.37633472541E+00  0.00000000000E+00 0. -1.
         22   -1    0    0    0    0 -0.00000000000E+00 -0.00000000000E+00 -0.25489421361E+02  0.25489421361E+02  0.00000000000E+00 0. -1.
          4    1    1    2  501    0  0.18027627938E+01 -0.11022156648E+01 -0.20385063464E+02  0.20533595532E+02  0.12700000000E+01 0. -1.
         -4    1    1    2    0  501 -0.18027627938E+01  0.11022156648E+01 -0.47280231724E+01  0.53321605547E+01  0.12700000000E+01 0. -1.
<mgrwt>
<rscale>  0 0.24653059E+01</rscale>
<asrwt>0</asrwt>
<pdfrwt beam="1">0</pdfrwt>
<pdfrwt beam="2">0</pdfrwt>
<totfact> 0.15119848E+12</totfact>
</mgrwt>
</event>
<event>
 4    1  0.1733759E+006  0.2159650E+01  0.7546771E-02  0.2880706E+00
         22   -1    0    0    0    0  0.00000000000E+00  0.00000000000E+00  0.12298752742E+03  0.12298752742E+03  0.00000000000E+00 0.  1.
         22   -1    0    0    0    0 -0.00000000000E+00 -0.00000000000E+00 -0.41951649158E-01  0.41951649158E-01  0.00000000000E+00 0.  1.
          4    1    1    2  501    0 -0.92375049056E+00 -0.14825219313E+01  0.42410670505E+02  0.42465622084E+02  0.12700000000E+01 0.  1.
         -4    1    1    2    0  501  0.92375049056E+00  0.14825219313E+01  0.80534905270E+02  0.80563856990E+02  0.12700000000E+01 0.  1.
<mgrwt>
<rscale>  0 0.21596496E+01</rscale>
<asrwt>0</asrwt>
<pdfrwt beam="1">0</pdfrwt>
<pdfrwt beam="2">0</pdfrwt>
<totfact> 0.21024657E+12</totfact>
</mgrwt>
</event>
<event>
 4    1  0.1733759E+006  0.2074616E+01  0.7546771E-02  0.2932117E+00
         22   -1    0    0    0    0  0.00000000000E+00  0.00000000000E+00  0.69212359239E+01  0.69212359239E+01  0.00000000000E+00 0.  1.
         22   -1    0    0    0    0 -0.00000000000E+00 -0.00000000000E+00 -0.62192642206E+00  0.62192642206E+00  0.00000000000E+00 0. -1.
          4    1    1    2  501    0 -0.13821473034E+01  0.88362922310E+00  0.31889695547E+01  0.38044130418E+01  0.12700000000E+01 0.  1.
         -4    1    1    2    0  501  0.13821473034E+01 -0.88362922310E+00  0.31103399472E+01  0.37387493041E+01  0.12700000000E+01 0. -1.
<mgrwt>
<rscale>  0 0.20746161E+01</rscale>
<asrwt>0</asrwt>
<pdfrwt beam="1">0</pdfrwt>
<pdfrwt beam="2">0</pdfrwt>
<totfact> 0.42399781E+12</totfact>
</mgrwt>
</event>
<event>
 4    1  0.1733759E+006  0.2457802E+01  0.7546771E-02  0.2727431E+00
         22   -1    0    0    0    0  0.00000000000E+00  0.00000000000E+00  0.68516630510E+00  0.68516630510E+00  0.00000000000E+00 0.  1.
         22   -1    0    0    0    0 -0.00000000000E+00 -0.00000000000E+00 -0.26771407413E+02  0.26771407413E+02  0.00000000000E+00 0. -1.
          4    1    1    2  501    0 -0.20961085101E+01  0.18499199905E+00 -0.24285853677E+02  0.24409905402E+02  0.12700000000E+01 0. -1.
         -4    1    1    2    0  501  0.20961085101E+01 -0.18499199905E+00 -0.18003874311E+01  0.30466683161E+01  0.12700000000E+01 0.  1.
<mgrwt>
<rscale>  0 0.24578025E+01</rscale>
<asrwt>0</asrwt>
<pdfrwt beam="1">0</pdfrwt>
<pdfrwt beam="2">0</pdfrwt>
<totfact> 0.72221073E+11</totfact>
</mgrwt>
</event>
<event>
 4    1  0.1733759E+006  0.2198580E+01  0.7546771E-02  0.2858449E+00
         22   -1    0    0    0    0  0.00000000000E+00  0.00000000000E+00  0.10358844379E+00  0.10358844379E+00  0.00000000000E+00 0.  1.
         22   -1    0    0    0    0 -0.00000000000E+00 -0.00000000000E+00 -0.53134606612E+02  0.53134606612E+02  0.00000000000E+00 0.  1.
          4    1    1    2  501    0  0.15421322916E+01  0.91797792144E+00 -0.35805345859E+02  0.35872782824E+02  0.12700000000E+01 0.  1.
         -4    1    1    2    0  501 -0.15421322916E+01 -0.91797792144E+00 -0.17225672310E+02  0.17365412232E+02  0.12700000000E+01 0.  1.
<mgrwt>
<rscale>  0 0.21985803E+01</rscale>
<asrwt>0</asrwt>
<pdfrwt beam="1">0</pdfrwt>
<pdfrwt beam="2">0</pdfrwt>
<totfact> 0.24686977E+12</totfact>
</mgrwt>
</event>
<event>
 4    1  0.1733759E+006  0.2121274E+01  0.7546771E-02  0.2903414E+00
         22   -1    0    0    0    0  0.00000000000E+00  0.00000000000E+00  0.26708472839E+00  0.26708472839E+00  0.00000000000E+00 0.  1.
         22   -1    0    0    0    0 -0.00000000000E+00 -0.00000000000E+00 -0.52441447314E+02  0.52441447314E+02  0.00000000000E+00 0.  1.
          4    1    1    2  501    0  0.16407182319E+01 -0.44152919445E+00 -0.47799165357E+02  0.47846212109E+02  0.12700000000E+01 0.  1.
         -4    1    1    2    0  501 -0.16407182319E+01  0.44152919445E+00 -0.43751972284E+01  0.48623199333E+01  0.12700000000E+01 0.  1.
<mgrwt>
<rscale>  0 0.21212742E+01</rscale>
<asrwt>0</asrwt>
<pdfrwt beam="1">0</pdfrwt>
<pdfrwt beam="2">0</pdfrwt>
<totfact> 0.87515820E+11</totfact>
</mgrwt>
</event>
<event>
 4    1  0.1733759E+006  0.2169163E+01  0.7546771E-02  0.2875196E+00
         22   -1    0    0    0    0  0.00000000000E+00  0.00000000000E+00  0.98266854170E+00  0.98266854170E+00  0.00000000000E+00 0.  1.
         22   -1    0    0    0    0 -0.00000000000E+00 -0.00000000000E+00 -0.64120050438E+01  0.64120050438E+01  0.00000000000E+00 0. -1.
          4    1    1    2  501    0  0.17582957261E+01 -0.27621295888E-01 -0.45752629379E+01  0.50634274703E+01  0.12700000000E+01 0. -1.
         -4    1    1    2    0  501 -0.17582957261E+01  0.27621295888E-01 -0.85407356421E+00  0.23312461152E+01  0.12700000000E+01 0.  1.
<mgrwt>
<rscale>  0 0.21691627E+01</rscale>
<asrwt>0</asrwt>
<pdfrwt beam="1">0</pdfrwt>
<pdfrwt beam="2">0</pdfrwt>
<totfact> 0.27611126E+12</totfact>
</mgrwt>
</event>
<event>
 4    1  0.1733759E+006  0.2035889E+01  0.7546771E-02  0.2956913E+00
         22   -1    0    0    0    0  0.00000000000E+00  0.00000000000E+00  0.10855515857E+01  0.10855515857E+01  0.00000000000E+00 0. -1.
         22   -1    0    0    0    0 -0.00000000000E+00 -0.00000000000E+00 -0.41360124098E+01  0.41360124098E+01  0.00000000000E+00 0.  1.
          4    1    1    2  501    0  0.15738270189E+01  0.23454596252E+00 -0.22489515681E+01  0.30335831041E+01  0.12700000000E+01 0.  1.
         -4    1    1    2    0  501 -0.15738270189E+01 -0.23454596252E+00 -0.80150925606E+00  0.21879808915E+01  0.12700000000E+01 0. -1.
<mgrwt>
<rscale>  0 0.20358888E+01</rscale>
<asrwt>0</asrwt>
<pdfrwt beam="1">0</pdfrwt>
<pdfrwt beam="2">0</pdfrwt>
<totfact> 0.41430218E+12</totfact>
</mgrwt>
</event>
<event>
 4    1  0.1733759E+006  0.2803527E+01  0.7546771E-02  0.2588167E+00
         22   -1    0    0    0    0  0.00000000000E+00  0.00000000000E+00  0.79128981307E+01  0.79128981307E+01  0.00000000000E+00 0. -1.
         22   -1    0    0    0    0 -0.00000000000E+00 -0.00000000000E+00 -0.32072161620E+01  0.32072161620E+01  0.00000000000E+00 0.  1.
          4    1    1    2  501    0 -0.21863153802E+01  0.12111511018E+01 -0.22666828211E+01  0.36052202352E+01  0.12700000000E+01 0.  1.
         -4    1    1    2    0  501  0.21863153802E+01 -0.12111511018E+01  0.69723647898E+01  0.75148940574E+01  0.12700000000E+01 0. -1.
<mgrwt>
<rscale>  0 0.28035267E+01</rscale>
<asrwt>0</asrwt>
<pdfrwt beam="1">0</pdfrwt>
<pdfrwt beam="2">0</pdfrwt>
<totfact> 0.54758210E+11</totfact>
</mgrwt>
</event>
<event>
 4    1  0.1733759E+006  0.3522547E+01  0.7546771E-02  0.2379051E+00
         22   -1    0    0    0    0  0.00000000000E+00  0.00000000000E+00  0.35455372890E+01  0.35455372890E+01  0.00000000000E+00 0. -1.
         22   -1    0    0    0    0 -0.00000000000E+00 -0.00000000000E+00 -0.49506119634E+01  0.49506119634E+01  0.00000000000E+00 0.  1.
          4    1    1    2  501    0  0.42139795276E+00  0.32585059840E+01 -0.30022964787E+01  0.46284037884E+01  0.12700000000E+01 0.  1.
         -4    1    1    2    0  501 -0.42139795276E+00 -0.32585059840E+01  0.15972218042E+01  0.38677454640E+01  0.12700000000E+01 0. -1.
<mgrwt>
<rscale>  0 0.35225470E+01</rscale>
<asrwt>0</asrwt>
<pdfrwt beam="1">0</pdfrwt>
<pdfrwt beam="2">0</pdfrwt>
<totfact> 0.85157449E+11</totfact>
</mgrwt>
</event>
<event>
 4    1  0.1733759E+006  0.3513381E+01  0.7546771E-02  0.2381237E+00
         22   -1    0    0    0    0  0.00000000000E+00  0.00000000000E+00  0.36893194367E+02  0.36893194367E+02  0.00000000000E+00 0.  1.
         22   -1    0    0    0    0 -0.00000000000E+00 -0.00000000000E+00 -0.33924514270E+00  0.33924514270E+00  0.00000000000E+00 0. -1.
          4    1    1    2  501    0 -0.24681365156E+01 -0.21538920529E+01  0.16094692897E+02  0.16473705967E+02  0.12700000000E+01 0.  1.
         -4    1    1    2    0  501  0.24681365156E+01  0.21538920529E+01  0.20459256327E+02  0.20758733542E+02  0.12700000000E+01 0. -1.
<mgrwt>
<rscale>  0 0.35133814E+01</rscale>
<asrwt>0</asrwt>
<pdfrwt beam="1">0</pdfrwt>
<pdfrwt beam="2">0</pdfrwt>
<totfact> 0.10598596E+12</totfact>
</mgrwt>
</event>
<event>
 4    1  0.1733759E+006  0.2768021E+01  0.7546771E-02  0.2600994E+00
         22   -1    0    0    0    0  0.00000000000E+00  0.00000000000E+00  0.13345123988E+01  0.13345123988E+01  0.00000000000E+00 0.  1.
         22   -1    0    0    0    0 -0.00000000000E+00 -0.00000000000E+00 -0.25489269555E+02  0.25489269555E+02  0.00000000000E+00 0.  1.
          4    1    1    2  501    0 -0.18036897616E+01 -0.16720474837E+01 -0.23882533506E+02  0.24042407247E+02  0.12700000000E+01 0.  1.
         -4    1    1    2    0  501  0.18036897616E+01  0.16720474837E+01 -0.27222364966E+00  0.27813747067E+01  0.12700000000E+01 0.  1.
<mgrwt>
<rscale>  0 0.27680209E+01</rscale>
<asrwt>0</asrwt>
<pdfrwt beam="1">0</pdfrwt>
<pdfrwt beam="2">0</pdfrwt>
<totfact> 0.35910757E+11</totfact>
</mgrwt>
</event>
<event>
 4    1  0.1733759E+006  0.2063778E+01  0.7546771E-02  0.2938965E+00
         22   -1    0    0    0    0  0.00000000000E+00  0.00000000000E+00  0.24274002771E+01  0.24274002771E+01  0.00000000000E+00 0. -1.
         22   -1    0    0    0    0 -0.00000000000E+00 -0.00000000000E+00 -0.25881355909E+01  0.25881355909E+01  0.00000000000E+00 0.  1.
          4    1    1    2  501    0  0.12813041355E+01 -0.10022662142E+01 -0.15035132257E+01  0.25533761712E+01  0.12700000000E+01 0.  1.
         -4    1    1    2    0  501 -0.12813041355E+01  0.10022662142E+01  0.13427779119E+01  0.24621596968E+01  0.12700000000E+01 0. -1.
<mgrwt>
<rscale>  0 0.20637776E+01</rscale>
<asrwt>0</asrwt>
<pdfrwt beam="1">0</pdfrwt>
<pdfrwt beam="2">0</pdfrwt>
<totfact> 0.28369284E+12</totfact>
</mgrwt>
</event>
<event>
 4    1  0.1733759E+006  0.3442816E+01  0.7546771E-02  0.2398406E+00
         22   -1    0    0    0    0  0.00000000000E+00  0.00000000000E+00  0.87513542216E+00  0.87513542216E+00  0.00000000000E+00 0. -1.
         22   -1    0    0    0    0 -0.00000000000E+00 -0.00000000000E+00 -0.16454719570E+02  0.16454719570E+02  0.00000000000E+00 0.  1.
          4    1    1    2  501    0 -0.63931906162E+00  0.31354985841E+01 -0.11434035848E+02  0.11941112009E+02  0.12700000000E+01 0.  1.
         -4    1    1    2    0  501  0.63931906162E+00 -0.31354985841E+01 -0.41455482994E+01  0.53887429829E+01  0.12700000000E+01 0. -1.
<mgrwt>
<rscale>  0 0.34428157E+01</rscale>
<asrwt>0</asrwt>
<pdfrwt beam="1">0</pdfrwt>
<pdfrwt beam="2">0</pdfrwt>
<totfact> 0.10048940E+12</totfact>
</mgrwt>
</event>
<event>
 4    1  0.1733759E+006  0.3423445E+01  0.7546771E-02  0.2403227E+00
         22   -1    0    0    0    0  0.00000000000E+00  0.00000000000E+00  0.24412340063E+02  0.24412340063E+02  0.00000000000E+00 0.  1.
         22   -1    0    0    0    0 -0.00000000000E+00 -0.00000000000E+00 -0.55610193259E+00  0.55610193259E+00  0.00000000000E+00 0.  1.
          4    1    1    2  501    0 -0.20105089847E+01  0.24627070272E+01  0.16543870982E+02  0.16894367089E+02  0.12700000000E+01 0.  1.
         -4    1    1    2    0  501  0.20105089847E+01 -0.24627070272E+01  0.73123671488E+01  0.80740749067E+01  0.12700000000E+01 0.  1.
<mgrwt>
<rscale>  0 0.34234445E+01</rscale>
<asrwt>0</asrwt>
<pdfrwt beam="1">0</pdfrwt>
<pdfrwt beam="2">0</pdfrwt>
<totfact> 0.10279170E+12</totfact>
</mgrwt>
</event>
<event>
 4    1  0.1733759E+006  0.2086511E+01  0.7546771E-02  0.2924682E+00
         22   -1    0    0    0    0  0.00000000000E+00  0.00000000000E+00  0.14642535228E+00  0.14642535228E+00  0.00000000000E+00 0.  1.
         22   -1    0    0    0    0 -0.00000000000E+00 -0.00000000000E+00 -0.34000216224E+02  0.34000216224E+02  0.00000000000E+00 0. -1.
          4    1    1    2  501    0 -0.30950215768E+00  0.16262950874E+01 -0.22976086978E+02  0.23070632850E+02  0.12700000000E+01 0. -1.
         -4    1    1    2    0  501  0.30950215768E+00 -0.16262950874E+01 -0.10877703894E+02  0.11076008726E+02  0.12700000000E+01 0.  1.
<mgrwt>
<rscale>  0 0.20865108E+01</rscale>
<asrwt>0</asrwt>
<pdfrwt beam="1">0</pdfrwt>
<pdfrwt beam="2">0</pdfrwt>
<totfact> 0.30094815E+12</totfact>
</mgrwt>
</event>
<event>
 4    1  0.1733759E+006  0.3547953E+01  0.7546771E-02  0.2373043E+00
         22   -1    0    0    0    0  0.00000000000E+00  0.00000000000E+00  0.86663939005E+01  0.86663939005E+01  0.00000000000E+00 0. -1.
         22   -1    0    0    0    0 -0.00000000000E+00 -0.00000000000E+00 -0.23835137367E+01  0.23835137367E+01  0.00000000000E+00 0.  1.
          4    1    1    2  501    0  0.26809868934E+01 -0.19461186430E+01  0.65944436190E+01  0.74883012185E+01  0.12700000000E+01 0. -1.
         -4    1    1    2    0  501 -0.26809868934E+01  0.19461186430E+01 -0.31156345526E+00  0.35616064187E+01  0.12700000000E+01 0.  1.
<mgrwt>
<rscale>  0 0.35479527E+01</rscale>
<asrwt>0</asrwt>
<pdfrwt beam="1">0</pdfrwt>
<pdfrwt beam="2">0</pdfrwt>
<totfact> 0.69381163E+11</totfact>
</mgrwt>
</event>
<event>
 4    1  0.1733759E+006  0.2055128E+01  0.7546771E-02  0.2944481E+00
         22   -1    0    0    0    0  0.00000000000E+00  0.00000000000E+00  0.18148235609E+00  0.18148235609E+00  0.00000000000E+00 0. -1.
         22   -1    0    0    0    0 -0.00000000000E+00 -0.00000000000E+00 -0.34580287405E+02  0.34580287405E+02  0.00000000000E+00 0. -1.
          4    1    1    2  501    0 -0.74448749671E+00 -0.14340122877E+01 -0.27138475962E+02  0.27216179571E+02  0.12700000000E+01 0. -1.
         -4    1    1    2    0  501  0.74448749671E+00  0.14340122877E+01 -0.72603290868E+01  0.75455901904E+01  0.12700000000E+01 0. -1.
<mgrwt>
<rscale>  0 0.20551284E+01</rscale>
<asrwt>0</asrwt>
<pdfrwt beam="1">0</pdfrwt>
<pdfrwt beam="2">0</pdfrwt>
<totfact> 0.23190218E+12</totfact>
</mgrwt>
</event>
<event>
 4    1  0.1733759E+006  0.2962211E+01  0.7546771E-02  0.2534258E+00
         22   -1    0    0    0    0  0.00000000000E+00  0.00000000000E+00  0.41675367725E+01  0.41675367725E+01  0.00000000000E+00 0.  1.
         22   -1    0    0    0    0 -0.00000000000E+00 -0.00000000000E+00 -0.77628443834E+01  0.77628443834E+01  0.00000000000E+00 0.  1.
          4    1    1    2  501    0  0.26052270396E+01 -0.61203625386E+00 -0.68900322805E+01  0.74998160731E+01  0.12700000000E+01 0.  1.
         -4    1    1    2    0  501 -0.26052270396E+01  0.61203625386E+00  0.32947246697E+01  0.44305650828E+01  0.12700000000E+01 0.  1.
<mgrwt>
<rscale>  0 0.29622114E+01</rscale>
<asrwt>0</asrwt>
<pdfrwt beam="1">0</pdfrwt>
<pdfrwt beam="2">0</pdfrwt>
<totfact> 0.41199229E+11</totfact>
</mgrwt>
</event>
<event>
 4    1  0.1733759E+006  0.3849602E+01  0.7546771E-02  0.2306999E+00
         22   -1    0    0    0    0  0.00000000000E+00  0.00000000000E+00  0.54414265455E+01  0.54414265455E+01  0.00000000000E+00 0. -1.
         22   -1    0    0    0    0 -0.00000000000E+00 -0.00000000000E+00 -0.41129087986E+01  0.41129087986E+01  0.00000000000E+00 0.  1.
          4    1    1    2  501    0 -0.23807099473E+01  0.27456790406E+01 -0.21123796994E+01  0.43910797352E+01  0.12700000000E+01 0.  1.
         -4    1    1    2    0  501  0.23807099473E+01 -0.27456790406E+01  0.34408974462E+01  0.51632556089E+01  0.12700000000E+01 0. -1.
<mgrwt>
<rscale>  0 0.38496017E+01</rscale>
<asrwt>0</asrwt>
<pdfrwt beam="1">0</pdfrwt>
<pdfrwt beam="2">0</pdfrwt>
<totfact> 0.63943146E+11</totfact>
</mgrwt>
</event>
<event>
 4    1  0.1733759E+006  0.3723409E+01  0.7546771E-02  0.2333503E+00
         22   -1    0    0    0    0  0.00000000000E+00  0.00000000000E+00  0.50977331337E+01  0.50977331337E+01  0.00000000000E+00 0. -1.
         22   -1    0    0    0    0 -0.00000000000E+00 -0.00000000000E+00 -0.38700294861E+01  0.38700294861E+01  0.00000000000E+00 0.  1.
          4    1    1    2  501    0 -0.15816826025E+01  0.31223639752E+01 -0.18308598928E+01  0.41491956565E+01  0.12700000000E+01 0.  1.
         -4    1    1    2    0  501  0.15816826025E+01 -0.31223639752E+01  0.30585635405E+01  0.48185669633E+01  0.12700000000E+01 0. -1.
<mgrwt>
<rscale>  0 0.37234093E+01</rscale>
<asrwt>0</asrwt>
<pdfrwt beam="1">0</pdfrwt>
<pdfrwt beam="2">0</pdfrwt>
<totfact> 0.74216160E+11</totfact>
</mgrwt>
</event>
<event>
 4    1  0.1733759E+006  0.2468891E+01  0.7546771E-02  0.2722406E+00
         22   -1    0    0    0    0  0.00000000000E+00  0.00000000000E+00  0.77471104786E+02  0.77471104786E+02  0.00000000000E+00 0.  1.
         22   -1    0    0    0    0 -0.00000000000E+00 -0.00000000000E+00 -0.90393172119E-01  0.90393172119E-01  0.00000000000E+00 0. -1.
          4    1    1    2  501    0 -0.13513900575E+01  0.16298065593E+01  0.24730333127E+02  0.24853265401E+02  0.12700000000E+01 0. -1.
         -4    1    1    2    0  501  0.13513900575E+01 -0.16298065593E+01  0.52650378487E+02  0.52708232557E+02  0.12700000000E+01 0.  1.
<mgrwt>
<rscale>  0 0.24688914E+01</rscale>
<asrwt>0</asrwt>
<pdfrwt beam="1">0</pdfrwt>
<pdfrwt beam="2">0</pdfrwt>
<totfact> 0.17276103E+12</totfact>
</mgrwt>
</event>
<event>
 4    1  0.1733759E+006  0.2767680E+01  0.7546771E-02  0.2601119E+00
         22   -1    0    0    0    0  0.00000000000E+00  0.00000000000E+00  0.13487451907E+01  0.13487451907E+01  0.00000000000E+00 0.  1.
         22   -1    0    0    0    0 -0.00000000000E+00 -0.00000000000E+00 -0.59646659059E+01  0.59646659059E+01  0.00000000000E+00 0. -1.
          4    1    1    2  501    0  0.15379813702E+01  0.19187927878E+01 -0.31076621324E+01  0.41614440267E+01  0.12700000000E+01 0. -1.
         -4    1    1    2    0  501 -0.15379813702E+01 -0.19187927878E+01 -0.15082585828E+01  0.31519670700E+01  0.12700000000E+01 0.  1.
<mgrwt>
<rscale>  0 0.27676800E+01</rscale>
<asrwt>0</asrwt>
<pdfrwt beam="1">0</pdfrwt>
<pdfrwt beam="2">0</pdfrwt>
<totfact> 0.20945232E+12</totfact>
</mgrwt>
</event>
<event>
 4    1  0.1733759E+006  0.2760666E+01  0.7546771E-02  0.2603689E+00
         22   -1    0    0    0    0  0.00000000000E+00  0.00000000000E+00  0.20807106716E+01  0.20807106716E+01  0.00000000000E+00 0.  1.
         22   -1    0    0    0    0 -0.00000000000E+00 -0.00000000000E+00 -0.37798762239E+01  0.37798762239E+01  0.00000000000E+00 0.  1.
          4    1    1    2  501    0 -0.10185767217E+01 -0.22295462797E+01 -0.33392236071E+00  0.27807875313E+01  0.12700000000E+01 0.  1.
         -4    1    1    2    0  501  0.10185767217E+01  0.22295462797E+01 -0.13652431916E+01  0.30797993642E+01  0.12700000000E+01 0.  1.
<mgrwt>
<rscale>  0 0.27606657E+01</rscale>
<asrwt>0</asrwt>
<pdfrwt beam="1">0</pdfrwt>
<pdfrwt beam="2">0</pdfrwt>
<totfact> 0.21786634E+12</totfact>
</mgrwt>
</event>
<event>
 4    1  0.1733759E+006  0.4282369E+01  0.7546771E-02  0.2226363E+00
         22   -1    0    0    0    0  0.00000000000E+00  0.00000000000E+00  0.13830818438E+01  0.13830818438E+01  0.00000000000E+00 0. -1.
         22   -1    0    0    0    0 -0.00000000000E+00 -0.00000000000E+00 -0.46742616831E+02  0.46742616831E+02  0.00000000000E+00 0.  1.
          4    1    1    2  501    0  0.23067717781E+01 -0.33770682110E+01 -0.43045724854E+02  0.43258214410E+02  0.12700000000E+01 0.  1.
         -4    1    1    2    0  501 -0.23067717781E+01  0.33770682110E+01 -0.23138101338E+01  0.48674842654E+01  0.12700000000E+01 0. -1.
<mgrwt>
<rscale>  0 0.42823692E+01</rscale>
<asrwt>0</asrwt>
<pdfrwt beam="1">0</pdfrwt>
<pdfrwt beam="2">0</pdfrwt>
<totfact> 0.15802051E+11</totfact>
</mgrwt>
</event>
<event>
 4    1  0.1733759E+006  0.2245451E+01  0.7546771E-02  0.2832636E+00
         22   -1    0    0    0    0  0.00000000000E+00  0.00000000000E+00  0.12813600704E+01  0.12813600704E+01  0.00000000000E+00 0. -1.
         22   -1    0    0    0    0 -0.00000000000E+00 -0.00000000000E+00 -0.61988674581E+01  0.61988674581E+01  0.00000000000E+00 0. -1.
          4    1    1    2  501    0  0.18516672290E+01  0.21897175381E-01 -0.47190307981E+01  0.52260216883E+01  0.12700000000E+01 0. -1.
         -4    1    1    2    0  501 -0.18516672290E+01 -0.21897175381E-01 -0.19847658955E+00  0.22542058402E+01  0.12700000000E+01 0. -1.
<mgrwt>
<rscale>  0 0.22454512E+01</rscale>
<asrwt>0</asrwt>
<pdfrwt beam="1">0</pdfrwt>
<pdfrwt beam="2">0</pdfrwt>
<totfact> 0.21217432E+12</totfact>
</mgrwt>
</event>
<event>
 4    1  0.1733759E+006  0.2329188E+01  0.7546771E-02  0.2788987E+00
         22   -1    0    0    0    0  0.00000000000E+00  0.00000000000E+00  0.93073378085E+01  0.93073378085E+01  0.00000000000E+00 0. -1.
         22   -1    0    0    0    0 -0.00000000000E+00 -0.00000000000E+00 -0.97097127080E+00  0.97097127080E+00  0.00000000000E+00 0. -1.
          4    1    1    2  501    0 -0.19437855532E+01 -0.18415313157E+00  0.91916462878E+00  0.25039924656E+01  0.12700000000E+01 0. -1.
         -4    1    1    2    0  501  0.19437855532E+01  0.18415313157E+00  0.74172019089E+01  0.77743166137E+01  0.12700000000E+01 0. -1.
<mgrwt>
<rscale>  0 0.23291876E+01</rscale>
<asrwt>0</asrwt>
<pdfrwt beam="1">0</pdfrwt>
<pdfrwt beam="2">0</pdfrwt>
<totfact> 0.17898535E+12</totfact>
</mgrwt>
</event>
<event>
 4    1  0.1733759E+006  0.2011026E+01  0.7546771E-02  0.2973323E+00
         22   -1    0    0    0    0  0.00000000000E+00  0.00000000000E+00  0.15434691974E+01  0.15434691974E+01  0.00000000000E+00 0. -1.
         22   -1    0    0    0    0 -0.00000000000E+00 -0.00000000000E+00 -0.26442690991E+01  0.26442690991E+01  0.00000000000E+00 0. -1.
          4    1    1    2  501    0 -0.80862077563E+00  0.13332137981E+01 -0.75009136807E+00  0.21463605593E+01  0.12700000000E+01 0. -1.
         -4    1    1    2    0  501  0.80862077563E+00 -0.13332137981E+01 -0.35070853370E+00  0.20413777372E+01  0.12700000000E+01 0. -1.
<mgrwt>
<rscale>  0 0.20110263E+01</rscale>
<asrwt>0</asrwt>
<pdfrwt beam="1">0</pdfrwt>
<pdfrwt beam="2">0</pdfrwt>
<totfact> 0.46714403E+12</totfact>
</mgrwt>
</event>
<event>
 4    1  0.1733759E+006  0.4903501E+01  0.7546771E-02  0.2134701E+00
         22   -1    0    0    0    0  0.00000000000E+00  0.00000000000E+00  0.42805180978E+02  0.42805180978E+02  0.00000000000E+00 0.  1.
         22   -1    0    0    0    0 -0.00000000000E+00 -0.00000000000E+00 -0.78939102896E+00  0.78939102896E+00  0.00000000000E+00 0. -1.
          4    1    1    2  501    0 -0.47318753204E+01 -0.20193031134E+00  0.93017253573E+01  0.10515056563E+02  0.12700000000E+01 0.  1.
         -4    1    1    2    0  501  0.47318753204E+01  0.20193031134E+00  0.32714064591E+02  0.33079515444E+02  0.12700000000E+01 0. -1.
<mgrwt>
<rscale>  0 0.49035008E+01</rscale>
<asrwt>0</asrwt>
<pdfrwt beam="1">0</pdfrwt>
<pdfrwt beam="2">0</pdfrwt>
<totfact> 0.33656471E+11</totfact>
</mgrwt>
</event>
<event>
 4    1  0.1733759E+006  0.3170250E+01  0.7546771E-02  0.2470971E+00
         22   -1    0    0    0    0  0.00000000000E+00  0.00000000000E+00  0.79396186773E+01  0.79396186773E+01  0.00000000000E+00 0.  1.
         22   -1    0    0    0    0 -0.00000000000E+00 -0.00000000000E+00 -0.19497064949E+01  0.19497064949E+01  0.00000000000E+00 0. -1.
          4    1    1    2  501    0  0.31898678205E+00  0.28871840646E+01  0.66560073650E-01  0.31709485384E+01  0.12700000000E+01 0. -1.
         -4    1    1    2    0  501 -0.31898678205E+00 -0.28871840646E+01  0.59233521087E+01  0.67183766338E+01  0.12700000000E+01 0.  1.
<mgrwt>
<rscale>  0 0.31702499E+01</rscale>
<asrwt>0</asrwt>
<pdfrwt beam="1">0</pdfrwt>
<pdfrwt beam="2">0</pdfrwt>
<totfact> 0.97307927E+11</totfact>
</mgrwt>
</event>
<event>
 4    1  0.1733759E+006  0.2326541E+01  0.7546771E-02  0.2790321E+00
         22   -1    0    0    0    0  0.00000000000E+00  0.00000000000E+00  0.71021546998E+01  0.71021546998E+01  0.00000000000E+00 0. -1.
         22   -1    0    0    0    0 -0.00000000000E+00 -0.00000000000E+00 -0.77073427987E+00  0.77073427987E+00  0.00000000000E+00 0.  1.
          4    1    1    2  501    0  0.10221303270E+01 -0.16598623244E+01  0.27498868345E+01  0.36020370548E+01  0.12700000000E+01 0. -1.
         -4    1    1    2    0  501 -0.10221303270E+01  0.16598623244E+01  0.35815335854E+01  0.42708519249E+01  0.12700000000E+01 0.  1.
<mgrwt>
<rscale>  0 0.23265411E+01</rscale>
<asrwt>0</asrwt>
<pdfrwt beam="1">0</pdfrwt>
<pdfrwt beam="2">0</pdfrwt>
<totfact> 0.32228835E+12</totfact>
</mgrwt>
</event>
<event>
 4    1  0.1733759E+006  0.2243294E+01  0.7546771E-02  0.2833802E+00
         22   -1    0    0    0    0  0.00000000000E+00  0.00000000000E+00  0.13510466296E+02  0.13510466296E+02  0.00000000000E+00 0. -1.
         22   -1    0    0    0    0 -0.00000000000E+00 -0.00000000000E+00 -0.37668283960E+00  0.37668283960E+00  0.00000000000E+00 0.  1.
          4    1    1    2  501    0  0.18478030025E+01  0.71364894722E-01  0.58333863380E+01  0.62498612027E+01  0.12700000000E+01 0. -1.
         -4    1    1    2    0  501 -0.18478030025E+01 -0.71364894722E-01  0.73003971188E+01  0.76372879333E+01  0.12700000000E+01 0.  1.
<mgrwt>
<rscale>  0 0.22432942E+01</rscale>
<asrwt>0</asrwt>
<pdfrwt beam="1">0</pdfrwt>
<pdfrwt beam="2">0</pdfrwt>
<totfact> 0.33247573E+12</totfact>
</mgrwt>
</event>
<event>
 4    1  0.1733759E+006  0.2479228E+01  0.7546771E-02  0.2717759E+00
         22   -1    0    0    0    0  0.00000000000E+00  0.00000000000E+00  0.20654363038E+02  0.20654363038E+02  0.00000000000E+00 0.  1.
         22   -1    0    0    0    0 -0.00000000000E+00 -0.00000000000E+00 -0.29766984947E+00  0.29766984947E+00  0.00000000000E+00 0. -1.
          4    1    1    2  501    0 -0.18080581056E+01  0.11245432409E+01  0.10008845943E+02  0.10311332054E+02  0.12700000000E+01 0.  1.
         -4    1    1    2    0  501  0.18080581056E+01 -0.11245432409E+01  0.10347847246E+02  0.10640700834E+02  0.12700000000E+01 0. -1.
<mgrwt>
<rscale>  0 0.24792280E+01</rscale>
<asrwt>0</asrwt>
<pdfrwt beam="1">0</pdfrwt>
<pdfrwt beam="2">0</pdfrwt>
<totfact> 0.25621669E+12</totfact>
</mgrwt>
</event>
<event>
 4    1  0.1733759E+006  0.2111638E+01  0.7546771E-02  0.2909241E+00
         22   -1    0    0    0    0  0.00000000000E+00  0.00000000000E+00  0.44943187822E+01  0.44943187822E+01  0.00000000000E+00 0.  1.
         22   -1    0    0    0    0 -0.00000000000E+00 -0.00000000000E+00 -0.21483172654E+01  0.21483172654E+01  0.00000000000E+00 0.  1.
          4    1    1    2  501    0  0.28146083691E+00 -0.16633991342E+01 -0.12635332964E+01  0.24607993160E+01  0.12700000000E+01 0.  1.
         -4    1    1    2    0  501 -0.28146083691E+00  0.16633991342E+01  0.36095348132E+01  0.41818367317E+01  0.12700000000E+01 0.  1.
<mgrwt>
<rscale>  0 0.21116384E+01</rscale>
<asrwt>0</asrwt>
<pdfrwt beam="1">0</pdfrwt>
<pdfrwt beam="2">0</pdfrwt>
<totfact> 0.17120571E+12</totfact>
</mgrwt>
</event>
<event>
 4    1  0.1733759E+006  0.2130038E+01  0.7546771E-02  0.2898158E+00
         22   -1    0    0    0    0  0.00000000000E+00  0.00000000000E+00  0.35851968802E+02  0.35851968802E+02  0.00000000000E+00 0. -1.
         22   -1    0    0    0    0 -0.00000000000E+00 -0.00000000000E+00 -0.43872291558E+00  0.43872291558E+00  0.00000000000E+00 0. -1.
          4    1    1    2  501    0 -0.79525609176E+00  0.15138457146E+01  0.24004079621E+01  0.32092085447E+01  0.12700000000E+01 0. -1.
         -4    1    1    2    0  501  0.79525609176E+00 -0.15138457146E+01  0.33012837925E+02  0.33081483173E+02  0.12700000000E+01 0. -1.
<mgrwt>
<rscale>  0 0.21300378E+01</rscale>
<asrwt>0</asrwt>
<pdfrwt beam="1">0</pdfrwt>
<pdfrwt beam="2">0</pdfrwt>
<totfact> 0.82337227E+11</totfact>
</mgrwt>
</event>
<event>
 4    1  0.1733759E+006  0.2085518E+01  0.7546771E-02  0.2925299E+00
         22   -1    0    0    0    0  0.00000000000E+00  0.00000000000E+00  0.22918989978E+01  0.22918989978E+01  0.00000000000E+00 0.  1.
         22   -1    0    0    0    0 -0.00000000000E+00 -0.00000000000E+00 -0.19000828640E+01  0.19000828640E+01  0.00000000000E+00 0.  1.
          4    1    1    2  501    0 -0.10445285788E+01 -0.12827498569E+01  0.12202605490E+00  0.20890853274E+01  0.12700000000E+01 0.  1.
         -4    1    1    2    0  501  0.10445285788E+01  0.12827498569E+01  0.26979007886E+00  0.21028965343E+01  0.12700000000E+01 0.  1.
<mgrwt>
<rscale>  0 0.20855184E+01</rscale>
<asrwt>0</asrwt>
<pdfrwt beam="1">0</pdfrwt>
<pdfrwt beam="2">0</pdfrwt>
<totfact> 0.43404146E+12</totfact>
</mgrwt>
</event>
<event>
 4    1  0.1733759E+006  0.2470734E+01  0.7546771E-02  0.2721575E+00
         22   -1    0    0    0    0  0.00000000000E+00  0.00000000000E+00  0.45120613263E+01  0.45120613263E+01  0.00000000000E+00 0.  1.
         22   -1    0    0    0    0 -0.00000000000E+00 -0.00000000000E+00 -0.13867427460E+01  0.13867427460E+01  0.00000000000E+00 0. -1.
          4    1    1    2  501    0 -0.33654831589E+00  0.20924537786E+01  0.11021467762E+01  0.27054121869E+01  0.12700000000E+01 0. -1.
         -4    1    1    2    0  501  0.33654831589E+00 -0.20924537786E+01  0.20231718040E+01  0.31933918853E+01  0.12700000000E+01 0.  1.
<mgrwt>
<rscale>  0 0.24707342E+01</rscale>
<asrwt>0</asrwt>
<pdfrwt beam="1">0</pdfrwt>
<pdfrwt beam="2">0</pdfrwt>
<totfact> 0.28241693E+12</totfact>
</mgrwt>
</event>
<event>
 4    1  0.1733759E+006  0.2958771E+01  0.7546771E-02  0.2535371E+00
         22   -1    0    0    0    0  0.00000000000E+00  0.00000000000E+00  0.39698289519E+01  0.39698289519E+01  0.00000000000E+00 0. -1.
         22   -1    0    0    0    0 -0.00000000000E+00 -0.00000000000E+00 -0.81953672902E+01  0.81953672902E+01  0.00000000000E+00 0.  1.
          4    1    1    2  501    0 -0.70542477747E+00 -0.25775573080E+01 -0.73130146999E+01  0.78888852061E+01  0.12700000000E+01 0.  1.
         -4    1    1    2    0  501  0.70542477747E+00  0.25775573080E+01  0.30874763617E+01  0.42763110360E+01  0.12700000000E+01 0. -1.
<mgrwt>
<rscale>  0 0.29587710E+01</rscale>
<asrwt>0</asrwt>
<pdfrwt beam="1">0</pdfrwt>
<pdfrwt beam="2">0</pdfrwt>
<totfact> 0.40874340E+11</totfact>
</mgrwt>
</event>
<event>
 4    1  0.1733759E+006  0.3810693E+01  0.7546771E-02  0.2315010E+00
         22   -1    0    0    0    0  0.00000000000E+00  0.00000000000E+00  0.14714568866E+03  0.14714568866E+03  0.00000000000E+00 0.  1.
         22   -1    0    0    0    0 -0.00000000000E+00 -0.00000000000E+00 -0.98739745704E-01  0.98739745704E-01  0.00000000000E+00 0. -1.
          4    1    1    2  501    0 -0.20949519960E+01  0.29188455295E+01  0.75223259093E+02  0.75319719143E+02  0.12700000000E+01 0.  1.
         -4    1    1    2    0  501  0.20949519960E+01 -0.29188455295E+01  0.71823689820E+02  0.71924709262E+02  0.12700000000E+01 0. -1.
<mgrwt>
<rscale>  0 0.38106933E+01</rscale>
<asrwt>0</asrwt>
<pdfrwt beam="1">0</pdfrwt>
<pdfrwt beam="2">0</pdfrwt>
<totfact> 0.62971153E+11</totfact>
</mgrwt>
</event>
<event>
 4    1  0.1733759E+006  0.5672607E+01  0.7546771E-02  0.2050356E+00
         22   -1    0    0    0    0  0.00000000000E+00  0.00000000000E+00  0.12401303006E+02  0.12401303006E+02  0.00000000000E+00 0. -1.
         22   -1    0    0    0    0 -0.00000000000E+00 -0.00000000000E+00 -0.30138861446E+01  0.30138861446E+01  0.00000000000E+00 0.  1.
          4    1    1    2  501    0 -0.48935844687E+01 -0.25726244222E+01  0.18194534336E+01  0.59572540794E+01  0.12700000000E+01 0.  1.
         -4    1    1    2    0  501  0.48935844687E+01  0.25726244222E+01  0.75679634281E+01  0.94579350716E+01  0.12700000000E+01 0. -1.
<mgrwt>
<rscale>  0 0.56726066E+01</rscale>
<asrwt>0</asrwt>
<pdfrwt beam="1">0</pdfrwt>
<pdfrwt beam="2">0</pdfrwt>
<totfact> 0.34181632E+11</totfact>
</mgrwt>
</event>
<event>
 4    1  0.1733759E+006  0.2061694E+01  0.7546771E-02  0.2940290E+00
         22   -1    0    0    0    0  0.00000000000E+00  0.00000000000E+00  0.73772333187E+00  0.73772333187E+00  0.00000000000E+00 0.  1.
         22   -1    0    0    0    0 -0.00000000000E+00 -0.00000000000E+00 -0.79855806157E+01  0.79855806157E+01  0.00000000000E+00 0. -1.
          4    1    1    2  501    0 -0.15801392839E+01 -0.37529067404E+00 -0.59256239886E+01  0.62740419907E+01  0.12700000000E+01 0. -1.
         -4    1    1    2    0  501  0.15801392839E+01  0.37529067404E+00 -0.13222332952E+01  0.24492619569E+01  0.12700000000E+01 0.  1.
<mgrwt>
<rscale>  0 0.20616943E+01</rscale>
<asrwt>0</asrwt>
<pdfrwt beam="1">0</pdfrwt>
<pdfrwt beam="2">0</pdfrwt>
<totfact> 0.29429065E+12</totfact>
</mgrwt>
</event>
<event>
 4    1  0.1733759E+006  0.2186083E+01  0.7546771E-02  0.2865511E+00
         22   -1    0    0    0    0  0.00000000000E+00  0.00000000000E+00  0.54355202848E+00  0.54355202848E+00  0.00000000000E+00 0.  1.
         22   -1    0    0    0    0 -0.00000000000E+00 -0.00000000000E+00 -0.88392647807E+01  0.88392647807E+01  0.00000000000E+00 0. -1.
          4    1    1    2  501    0 -0.17768878386E+01 -0.93420395788E-01 -0.44905887552E+01  0.49944314121E+01  0.12700000000E+01 0. -1.
         -4    1    1    2    0  501  0.17768878386E+01  0.93420395788E-01 -0.38051239970E+01  0.43883853971E+01  0.12700000000E+01 0. -1.
<mgrwt>
<rscale>  0 0.21860827E+01</rscale>
<asrwt>0</asrwt>
<pdfrwt beam="1">0</pdfrwt>
<pdfrwt beam="2">0</pdfrwt>
<totfact> 0.36816863E+12</totfact>
</mgrwt>
</event>
<event>
 4    1  0.1733759E+006  0.2972671E+01  0.7546771E-02  0.2530887E+00
         22   -1    0    0    0    0  0.00000000000E+00  0.00000000000E+00  0.12832156130E+02  0.12832156130E+02  0.00000000000E+00 0.  1.
         22   -1    0    0    0    0 -0.00000000000E+00 -0.00000000000E+00 -0.89064439227E+00  0.89064439227E+00  0.00000000000E+00 0. -1.
          4    1    1    2  501    0 -0.16487282953E+01 -0.21226326376E+01  0.27030889386E+01  0.40178929946E+01  0.12700000000E+01 0.  1.
         -4    1    1    2    0  501  0.16487282953E+01  0.21226326376E+01  0.92384227989E+01  0.97049075275E+01  0.12700000000E+01 0. -1.
<mgrwt>
<rscale>  0 0.29726712E+01</rscale>
<asrwt>0</asrwt>
<pdfrwt beam="1">0</pdfrwt>
<pdfrwt beam="2">0</pdfrwt>
<totfact> 0.13370397E+12</totfact>
</mgrwt>
</event>
<event>
 4    1  0.1733759E+006  0.2847475E+01  0.7546771E-02  0.2572693E+00
         22   -1    0    0    0    0  0.00000000000E+00  0.00000000000E+00  0.51157025667E+00  0.51157025667E+00  0.00000000000E+00 0. -1.
         22   -1    0    0    0    0 -0.00000000000E+00 -0.00000000000E+00 -0.17023457692E+02  0.17023457692E+02  0.00000000000E+00 0.  1.
          4    1    1    2  501    0  0.41562820725E+00 -0.25144515450E+01 -0.59535169921E+01  0.65994301234E+01  0.12700000000E+01 0.  1.
         -4    1    1    2    0  501 -0.41562820725E+00  0.25144515450E+01 -0.10558370443E+02  0.10935597825E+02  0.12700000000E+01 0. -1.
<mgrwt>
<rscale>  0 0.28474749E+01</rscale>
<asrwt>0</asrwt>
<pdfrwt beam="1">0</pdfrwt>
<pdfrwt beam="2">0</pdfrwt>
<totfact> 0.17715971E+12</totfact>
</mgrwt>
</event>
<event>
 4    1  0.1733759E+006  0.2688800E+01  0.7546771E-02  0.2630725E+00
         22   -1    0    0    0    0  0.00000000000E+00  0.00000000000E+00  0.59263511777E+01  0.59263511777E+01  0.00000000000E+00 0. -1.
         22   -1    0    0    0    0 -0.00000000000E+00 -0.00000000000E+00 -0.17346754540E+01  0.17346754540E+01  0.00000000000E+00 0. -1.
          4    1    1    2  501    0 -0.27549518064E+00  0.23539004212E+01  0.91838677463E-02  0.26888155629E+01  0.12700000000E+01 0. -1.
         -4    1    1    2    0  501  0.27549518064E+00 -0.23539004212E+01  0.41824918559E+01  0.49722110688E+01  0.12700000000E+01 0. -1.
<mgrwt>
<rscale>  0 0.26887999E+01</rscale>
<asrwt>0</asrwt>
<pdfrwt beam="1">0</pdfrwt>
<pdfrwt beam="2">0</pdfrwt>
<totfact> 0.15798418E+12</totfact>
</mgrwt>
</event>
<event>
 4    1  0.1733759E+006  0.3616048E+01  0.7546771E-02  0.2357303E+00
         22   -1    0    0    0    0  0.00000000000E+00  0.00000000000E+00  0.80797682018E+01  0.80797682018E+01  0.00000000000E+00 0. -1.
         22   -1    0    0    0    0 -0.00000000000E+00 -0.00000000000E+00 -0.36219259163E+01  0.36219259163E+01  0.00000000000E+00 0.  1.
          4    1    1    2  501    0  0.31911679458E+01 -0.11310842723E+01 -0.21227197700E+01  0.41930589921E+01  0.12700000000E+01 0.  1.
         -4    1    1    2    0  501 -0.31911679458E+01  0.11310842723E+01  0.65805620555E+01  0.75086351260E+01  0.12700000000E+01 0. -1.
<mgrwt>
<rscale>  0 0.36160482E+01</rscale>
<asrwt>0</asrwt>
<pdfrwt beam="1">0</pdfrwt>
<pdfrwt beam="2">0</pdfrwt>
<totfact> 0.46310241E+11</totfact>
</mgrwt>
</event>
<event>
 4    1  0.1733759E+006  0.2191177E+01  0.7546771E-02  0.2862624E+00
         22   -1    0    0    0    0  0.00000000000E+00  0.00000000000E+00  0.20446554784E+00  0.20446554784E+00  0.00000000000E+00 0.  1.
         22   -1    0    0    0    0 -0.00000000000E+00 -0.00000000000E+00 -0.28844892976E+02  0.28844892976E+02  0.00000000000E+00 0.  1.
          4    1    1    2  501    0 -0.71968686939E+00 -0.16341375457E+01 -0.20583073616E+02  0.20699376179E+02  0.12700000000E+01 0.  1.
         -4    1    1    2    0  501  0.71968686939E+00  0.16341375457E+01 -0.80573538114E+01  0.83499823443E+01  0.12700000000E+01 0.  1.
<mgrwt>
<rscale>  0 0.21911766E+01</rscale>
<asrwt>0</asrwt>
<pdfrwt beam="1">0</pdfrwt>
<pdfrwt beam="2">0</pdfrwt>
<totfact> 0.25601479E+12</totfact>
</mgrwt>
</event>
<event>
 4    1  0.1733759E+006  0.4150846E+01  0.7546771E-02  0.2249355E+00
         22   -1    0    0    0    0  0.00000000000E+00  0.00000000000E+00  0.19727662086E+02  0.19727662086E+02  0.00000000000E+00 0. -1.
         22   -1    0    0    0    0 -0.00000000000E+00 -0.00000000000E+00 -0.18297570361E+01  0.18297570361E+01  0.00000000000E+00 0.  1.
          4    1    1    2  501    0  0.42495979257E+00 -0.39288715670E+01  0.11562662569E+01  0.43088831815E+01  0.12700000000E+01 0.  1.
         -4    1    1    2    0  501 -0.42495979257E+00  0.39288715670E+01  0.16741638793E+02  0.17248535941E+02  0.12700000000E+01 0. -1.
<mgrwt>
<rscale>  0 0.41508460E+01</rscale>
<asrwt>0</asrwt>
<pdfrwt beam="1">0</pdfrwt>
<pdfrwt beam="2">0</pdfrwt>
<totfact> 0.34431500E+11</totfact>
</mgrwt>
</event>
<event>
 4    1  0.1733759E+006  0.3404975E+01  0.7546771E-02  0.2407868E+00
         22   -1    0    0    0    0  0.00000000000E+00  0.00000000000E+00  0.76998973693E+00  0.76998973693E+00  0.00000000000E+00 0. -1.
         22   -1    0    0    0    0 -0.00000000000E+00 -0.00000000000E+00 -0.15226338279E+02  0.15226338279E+02  0.00000000000E+00 0.  1.
          4    1    1    2  501    0 -0.80012210097E+00  0.30562650524E+01 -0.80712700312E+01  0.87600942554E+01  0.12700000000E+01 0.  1.
         -4    1    1    2    0  501  0.80012210097E+00 -0.30562650524E+01 -0.63850785109E+01  0.72362337606E+01  0.12700000000E+01 0. -1.
<mgrwt>
<rscale>  0 0.34049745E+01</rscale>
<asrwt>0</asrwt>
<pdfrwt beam="1">0</pdfrwt>
<pdfrwt beam="2">0</pdfrwt>
<totfact> 0.12792340E+12</totfact>
</mgrwt>
</event>
<event>
 4    1  0.1733759E+006  0.2514175E+01  0.7546771E-02  0.2702314E+00
         22   -1    0    0    0    0  0.00000000000E+00  0.00000000000E+00  0.23075727308E+02  0.23075727308E+02  0.00000000000E+00 0.  1.
         22   -1    0    0    0    0 -0.00000000000E+00 -0.00000000000E+00 -0.68743812369E+00  0.68743812369E+00  0.00000000000E+00 0.  1.
          4    1    1    2  501    0 -0.18548405835E+01  0.11259404603E+01  0.19790278237E+01  0.31996291405E+01  0.12700000000E+01 0.  1.
         -4    1    1    2    0  501  0.18548405835E+01 -0.11259404603E+01  0.20409261360E+02  0.20563536291E+02  0.12700000000E+01 0.  1.
<mgrwt>
<rscale>  0 0.25141749E+01</rscale>
<asrwt>0</asrwt>
<pdfrwt beam="1">0</pdfrwt>
<pdfrwt beam="2">0</pdfrwt>
<totfact> 0.86773966E+11</totfact>
</mgrwt>
</event>
<event>
 4    1  0.1733759E+006  0.2127481E+01  0.7546771E-02  0.2899688E+00
         22   -1    0    0    0    0  0.00000000000E+00  0.00000000000E+00  0.16146960139E+02  0.16146960139E+02  0.00000000000E+00 0.  1.
         22   -1    0    0    0    0 -0.00000000000E+00 -0.00000000000E+00 -0.34355182069E+00  0.34355182069E+00  0.00000000000E+00 0. -1.
          4    1    1    2  501    0 -0.10720319932E+01  0.13281645534E+01  0.43641255549E+01  0.48550762645E+01  0.12700000000E+01 0. -1.
         -4    1    1    2    0  501  0.10720319932E+01 -0.13281645534E+01  0.11439282763E+02  0.11635435695E+02  0.12700000000E+01 0.  1.
<mgrwt>
<rscale>  0 0.21274806E+01</rscale>
<asrwt>0</asrwt>
<pdfrwt beam="1">0</pdfrwt>
<pdfrwt beam="2">0</pdfrwt>
<totfact> 0.29612481E+12</totfact>
</mgrwt>
</event>
<event>
 4    1  0.1733759E+006  0.3999279E+01  0.7546771E-02  0.2277432E+00
         22   -1    0    0    0    0  0.00000000000E+00  0.00000000000E+00  0.62421415359E+00  0.62421415359E+00  0.00000000000E+00 0. -1.
         22   -1    0    0    0    0 -0.00000000000E+00 -0.00000000000E+00 -0.29994086742E+02  0.29994086742E+02  0.00000000000E+00 0.  1.
          4    1    1    2  501    0 -0.29237547075E+00  0.37809851179E+01 -0.20529183383E+02  0.20915104644E+02  0.12700000000E+01 0.  1.
         -4    1    1    2    0  501  0.29237547075E+00 -0.37809851179E+01 -0.88406892048E+01  0.97031962514E+01  0.12700000000E+01 0.  1.
<mgrwt>
<rscale>  0 0.39992789E+01</rscale>
<asrwt>0</asrwt>
<pdfrwt beam="1">0</pdfrwt>
<pdfrwt beam="2">0</pdfrwt>
<totfact> 0.69479526E+11</totfact>
</mgrwt>
</event>
<event>
 4    1  0.1733759E+006  0.2133079E+01  0.7546771E-02  0.2896344E+00
         22   -1    0    0    0    0  0.00000000000E+00  0.00000000000E+00  0.35120626538E+00  0.35120626538E+00  0.00000000000E+00 0. -1.
         22   -1    0    0    0    0 -0.00000000000E+00 -0.00000000000E+00 -0.12969225957E+02  0.12969225957E+02  0.00000000000E+00 0.  1.
          4    1    1    2  501    0 -0.13261862292E+00 -0.17086659604E+01 -0.60917609679E+01  0.64544231929E+01  0.12700000000E+01 0. -1.
         -4    1    1    2    0  501  0.13261862292E+00  0.17086659604E+01 -0.65262587233E+01  0.68660090290E+01  0.12700000000E+01 0.  1.
<mgrwt>
<rscale>  0 0.21330792E+01</rscale>
<asrwt>0</asrwt>
<pdfrwt beam="1">0</pdfrwt>
<pdfrwt beam="2">0</pdfrwt>
<totfact> 0.37815940E+12</totfact>
</mgrwt>
</event>
<event>
 4    1  0.1733759E+006  0.2186905E+01  0.7546771E-02  0.2865044E+00
         22   -1    0    0    0    0  0.00000000000E+00  0.00000000000E+00  0.51272717208E+00  0.51272717208E+00  0.00000000000E+00 0.  1.
         22   -1    0    0    0    0 -0.00000000000E+00 -0.00000000000E+00 -0.12558487183E+02  0.12558487183E+02  0.00000000000E+00 0.  1.
          4    1    1    2  501    0  0.74204338895E+00  0.16183399532E+01 -0.93378004587E+01  0.95904676634E+01  0.12700000000E+01 0.  1.
         -4    1    1    2    0  501 -0.74204338895E+00 -0.16183399532E+01 -0.27079595520E+01  0.34807466915E+01  0.12700000000E+01 0.  1.
<mgrwt>
<rscale>  0 0.21869048E+01</rscale>
<asrwt>0</asrwt>
<pdfrwt beam="1">0</pdfrwt>
<pdfrwt beam="2">0</pdfrwt>
<totfact> 0.25682659E+12</totfact>
</mgrwt>
</event>
<event>
 4    1  0.1733759E+006  0.2331909E+01  0.7546771E-02  0.2787618E+00
         22   -1    0    0    0    0  0.00000000000E+00  0.00000000000E+00  0.11698720668E+02  0.11698720668E+02  0.00000000000E+00 0. -1.
         22   -1    0    0    0    0 -0.00000000000E+00 -0.00000000000E+00 -0.46911671904E+00  0.46911671904E+00  0.00000000000E+00 0.  1.
          4    1    1    2  501    0  0.67617686342E-02  0.19557239407E+01  0.61970400043E+01  0.66212617127E+01  0.12700000000E+01 0. -1.
         -4    1    1    2    0  501 -0.67617686342E-02 -0.19557239407E+01  0.50325639450E+01  0.55465756747E+01  0.12700000000E+01 0.  1.
<mgrwt>
<rscale>  0 0.23319095E+01</rscale>
<asrwt>0</asrwt>
<pdfrwt beam="1">0</pdfrwt>
<pdfrwt beam="2">0</pdfrwt>
<totfact> 0.30960134E+12</totfact>
</mgrwt>
</event>
<event>
 4    1  0.1733759E+006  0.3858848E+01  0.7546771E-02  0.2305116E+00
         22   -1    0    0    0    0  0.00000000000E+00  0.00000000000E+00  0.89180554605E+00  0.89180554605E+00  0.00000000000E+00 0.  1.
         22   -1    0    0    0    0 -0.00000000000E+00 -0.00000000000E+00 -0.18553629474E+02  0.18553629474E+02  0.00000000000E+00 0. -1.
          4    1    1    2  501    0  0.30045079596E+01  0.20617325634E+01 -0.57554850206E+01  0.69293807129E+01  0.12700000000E+01 0.  1.
         -4    1    1    2    0  501 -0.30045079596E+01 -0.20617325634E+01 -0.11906338907E+02  0.12516054307E+02  0.12700000000E+01 0. -1.
<mgrwt>
<rscale>  0 0.38588482E+01</rscale>
<asrwt>0</asrwt>
<pdfrwt beam="1">0</pdfrwt>
<pdfrwt beam="2">0</pdfrwt>
<totfact> 0.84758268E+11</totfact>
</mgrwt>
</event>
<event>
 4    1  0.1733759E+006  0.2410839E+01  0.7546771E-02  0.2749193E+00
         22   -1    0    0    0    0  0.00000000000E+00  0.00000000000E+00  0.11015923691E+01  0.11015923691E+01  0.00000000000E+00 0. -1.
         22   -1    0    0    0    0 -0.00000000000E+00 -0.00000000000E+00 -0.74006327200E+01  0.74006327200E+01  0.00000000000E+00 0.  1.
          4    1    1    2  501    0  0.82250136569E+00 -0.18768953584E+01 -0.54272216868E+01  0.59385924192E+01  0.12700000000E+01 0. -1.
         -4    1    1    2    0  501 -0.82250136569E+00  0.18768953584E+01 -0.87181866408E+00  0.25636326699E+01  0.12700000000E+01 0.  1.
<mgrwt>
<rscale>  0 0.24108390E+01</rscale>
<asrwt>0</asrwt>
<pdfrwt beam="1">0</pdfrwt>
<pdfrwt beam="2">0</pdfrwt>
<totfact> 0.20415072E+12</totfact>
</mgrwt>
</event>
<event>
 4    1  0.1733759E+006  0.2663824E+01  0.7546771E-02  0.2640434E+00
         22   -1    0    0    0    0  0.00000000000E+00  0.00000000000E+00  0.52899497417E+01  0.52899497417E+01  0.00000000000E+00 0. -1.
         22   -1    0    0    0    0 -0.00000000000E+00 -0.00000000000E+00 -0.36423579484E+01  0.36423579484E+01  0.00000000000E+00 0. -1.
          4    1    1    2  501    0 -0.14537304488E+00 -0.23370762245E+01 -0.27259425238E+01  0.38113936092E+01  0.12700000000E+01 0. -1.
         -4    1    1    2    0  501  0.14537304488E+00  0.23370762245E+01  0.43735343171E+01  0.51209140809E+01  0.12700000000E+01 0. -1.
<mgrwt>
<rscale>  0 0.26638241E+01</rscale>
<asrwt>0</asrwt>
<pdfrwt beam="1">0</pdfrwt>
<pdfrwt beam="2">0</pdfrwt>
<totfact> 0.76273173E+11</totfact>
</mgrwt>
</event>
<event>
 4    1  0.1733759E+006  0.2292669E+01  0.7546771E-02  0.2807650E+00
         22   -1    0    0    0    0  0.00000000000E+00  0.00000000000E+00  0.83707364045E+00  0.83707364045E+00  0.00000000000E+00 0. -1.
         22   -1    0    0    0    0 -0.00000000000E+00 -0.00000000000E+00 -0.11920342563E+02  0.11920342563E+02  0.00000000000E+00 0. -1.
          4    1    1    2  501    0 -0.76085094816E+00  0.17505819431E+01 -0.99296048639E+01  0.10190848054E+02  0.12700000000E+01 0. -1.
         -4    1    1    2    0  501  0.76085094816E+00 -0.17505819431E+01 -0.11536640582E+01  0.25665681491E+01  0.12700000000E+01 0. -1.
<mgrwt>
<rscale>  0 0.22926690E+01</rscale>
<asrwt>0</asrwt>
<pdfrwt beam="1">0</pdfrwt>
<pdfrwt beam="2">0</pdfrwt>
<totfact> 0.15699656E+12</totfact>
</mgrwt>
</event>
<event>
 4    1  0.1733759E+006  0.2343206E+01  0.7546771E-02  0.2781969E+00
         22   -1    0    0    0    0  0.00000000000E+00  0.00000000000E+00  0.28218473412E+00  0.28218473412E+00  0.00000000000E+00 0.  1.
         22   -1    0    0    0    0 -0.00000000000E+00 -0.00000000000E+00 -0.19571031517E+02  0.19571031517E+02  0.00000000000E+00 0. -1.
          4    1    1    2  501    0 -0.53290143362E+00  0.18957138948E+01 -0.88884370008E+01  0.91921122397E+01  0.12700000000E+01 0.  1.
         -4    1    1    2    0  501  0.53290143362E+00 -0.18957138948E+01 -0.10400409782E+02  0.10661104011E+02  0.12700000000E+01 0. -1.
<mgrwt>
<rscale>  0 0.23432062E+01</rscale>
<asrwt>0</asrwt>
<pdfrwt beam="1">0</pdfrwt>
<pdfrwt beam="2">0</pdfrwt>
<totfact> 0.29092942E+12</totfact>
</mgrwt>
</event>
<event>
 4    1  0.1733759E+006  0.2050345E+01  0.7546771E-02  0.2947550E+00
         22   -1    0    0    0    0  0.00000000000E+00  0.00000000000E+00  0.28462350143E+01  0.28462350143E+01  0.00000000000E+00 0.  1.
         22   -1    0    0    0    0 -0.00000000000E+00 -0.00000000000E+00 -0.48429373608E+01  0.48429373608E+01  0.00000000000E+00 0.  1.
          4    1    1    2  501    0 -0.15206740003E+01 -0.52779331269E+00 -0.42034955635E+01  0.46768889391E+01  0.12700000000E+01 0.  1.
         -4    1    1    2    0  501  0.15206740003E+01  0.52779331269E+00  0.22067932170E+01  0.30122834360E+01  0.12700000000E+01 0.  1.
<mgrwt>
<rscale>  0 0.20503451E+01</rscale>
<asrwt>0</asrwt>
<pdfrwt beam="1">0</pdfrwt>
<pdfrwt beam="2">0</pdfrwt>
<totfact> 0.11300352E+12</totfact>
</mgrwt>
</event>
<event>
 4    1  0.1733759E+006  0.4075280E+01  0.7546771E-02  0.2263131E+00
         22   -1    0    0    0    0  0.00000000000E+00  0.00000000000E+00  0.15840521059E+02  0.15840521059E+02  0.00000000000E+00 0.  1.
         22   -1    0    0    0    0 -0.00000000000E+00 -0.00000000000E+00 -0.11222129235E+01  0.11222129235E+01  0.00000000000E+00 0. -1.
          4    1    1    2  501    0  0.65431389442E+00 -0.38166582831E+01  0.51846336737E+01  0.65945684811E+01  0.12700000000E+01 0. -1.
         -4    1    1    2    0  501 -0.65431389442E+00  0.38166582831E+01  0.95336744621E+01  0.10368165502E+02  0.12700000000E+01 0.  1.
<mgrwt>
<rscale>  0 0.40752800E+01</rscale>
<asrwt>0</asrwt>
<pdfrwt beam="1">0</pdfrwt>
<pdfrwt beam="2">0</pdfrwt>
<totfact> 0.79287469E+11</totfact>
</mgrwt>
</event>
<event>
 4    1  0.1733759E+006  0.4552610E+01  0.7546771E-02  0.2182662E+00
         22   -1    0    0    0    0  0.00000000000E+00  0.00000000000E+00  0.10413183269E+02  0.10413183269E+02  0.00000000000E+00 0. -1.
         22   -1    0    0    0    0 -0.00000000000E+00 -0.00000000000E+00 -0.21035371104E+01  0.21035371104E+01  0.00000000000E+00 0.  1.
          4    1    1    2  501    0  0.43671303813E+01 -0.20380001954E+00  0.27033352542E+01  0.52947411374E+01  0.12700000000E+01 0. -1.
         -4    1    1    2    0  501 -0.43671303813E+01  0.20380001954E+00  0.56063109040E+01  0.72219792417E+01  0.12700000000E+01 0.  1.
<mgrwt>
<rscale>  0 0.45526105E+01</rscale>
<asrwt>0</asrwt>
<pdfrwt beam="1">0</pdfrwt>
<pdfrwt beam="2">0</pdfrwt>
<totfact> 0.64242821E+11</totfact>
</mgrwt>
</event>
<event>
 4    1  0.1733759E+006  0.2064730E+01  0.7546771E-02  0.2938361E+00
         22   -1    0    0    0    0  0.00000000000E+00  0.00000000000E+00  0.20669763954E+01  0.20669763954E+01  0.00000000000E+00 0.  1.
         22   -1    0    0    0    0 -0.00000000000E+00 -0.00000000000E+00 -0.20628244245E+01  0.20628244245E+01  0.00000000000E+00 0. -1.
          4    1    1    2  501    0 -0.11185632287E+00 -0.16240989123E+01 -0.24386820523E-01  0.20648738050E+01  0.12700000000E+01 0. -1.
         -4    1    1    2    0  501  0.11185632287E+00  0.16240989123E+01  0.28538791418E-01  0.20649270148E+01  0.12700000000E+01 0.  1.
<mgrwt>
<rscale>  0 0.20647298E+01</rscale>
<asrwt>0</asrwt>
<pdfrwt beam="1">0</pdfrwt>
<pdfrwt beam="2">0</pdfrwt>
<totfact> 0.44488436E+12</totfact>
</mgrwt>
</event>
<event>
 4    1  0.1733759E+006  0.2241986E+01  0.7546771E-02  0.2834509E+00
         22   -1    0    0    0    0  0.00000000000E+00  0.00000000000E+00  0.31264242972E+01  0.31264242972E+01  0.00000000000E+00 0.  1.
         22   -1    0    0    0    0 -0.00000000000E+00 -0.00000000000E+00 -0.16237246906E+01  0.16237246906E+01  0.00000000000E+00 0. -1.
          4    1    1    2  501    0  0.15624057163E+01 -0.98614966321E+00  0.51575655328E+00  0.23005450665E+01  0.12700000000E+01 0. -1.
         -4    1    1    2    0  501 -0.15624057163E+01  0.98614966321E+00  0.98694305339E+00  0.24496039213E+01  0.12700000000E+01 0. -1.
<mgrwt>
<rscale>  0 0.22419863E+01</rscale>
<asrwt>0</asrwt>
<pdfrwt beam="1">0</pdfrwt>
<pdfrwt beam="2">0</pdfrwt>
<totfact> 0.36243269E+12</totfact>
</mgrwt>
</event>
<event>
 4    1  0.1733759E+006  0.2335461E+01  0.7546771E-02  0.2785837E+00
         22   -1    0    0    0    0  0.00000000000E+00  0.00000000000E+00  0.40581868418E+00  0.40581868418E+00  0.00000000000E+00 0. -1.
         22   -1    0    0    0    0 -0.00000000000E+00 -0.00000000000E+00 -0.60699012880E+02  0.60699012880E+02  0.00000000000E+00 0. -1.
          4    1    1    2  501    0  0.19586581342E+01 -0.71662062411E-01 -0.57105058004E+02  0.57152795441E+02  0.12700000000E+01 0. -1.
         -4    1    1    2    0  501 -0.19586581342E+01  0.71662062411E-01 -0.31881361920E+01  0.39520361229E+01  0.12700000000E+01 0. -1.
<mgrwt>
<rscale>  0 0.23354608E+01</rscale>
<asrwt>0</asrwt>
<pdfrwt beam="1">0</pdfrwt>
<pdfrwt beam="2">0</pdfrwt>
<totfact> 0.45037650E+11</totfact>
</mgrwt>
</event>
<event>
 4    1  0.1733759E+006  0.5402348E+01  0.7546771E-02  0.2077834E+00
         22   -1    0    0    0    0  0.00000000000E+00  0.00000000000E+00  0.16127158088E+01  0.16127158088E+01  0.00000000000E+00 0.  1.
         22   -1    0    0    0    0 -0.00000000000E+00 -0.00000000000E+00 -0.18503753265E+02  0.18503753265E+02  0.00000000000E+00 0. -1.
          4    1    1    2  501    0  0.48734307238E+01 -0.19550273432E+01 -0.99367459231E+01  0.11310361554E+02  0.12700000000E+01 0.  1.
         -4    1    1    2    0  501 -0.48734307238E+01  0.19550273432E+01 -0.69542915333E+01  0.88061075205E+01  0.12700000000E+01 0.  1.
<mgrwt>
<rscale>  0 0.54023475E+01</rscale>
<asrwt>0</asrwt>
<pdfrwt beam="1">0</pdfrwt>
<pdfrwt beam="2">0</pdfrwt>
<totfact> 0.43135338E+11</totfact>
</mgrwt>
</event>
<event>
 4    1  0.1733759E+006  0.2384384E+01  0.7546771E-02  0.2761805E+00
         22   -1    0    0    0    0  0.00000000000E+00  0.00000000000E+00  0.39151394492E+01  0.39151394492E+01  0.00000000000E+00 0.  1.
         22   -1    0    0    0    0 -0.00000000000E+00 -0.00000000000E+00 -0.20208233990E+01  0.20208233990E+01  0.00000000000E+00 0.  1.
          4    1    1    2  501    0  0.42438463637E+00  0.19728871256E+01 -0.62732009355E+00  0.24655255889E+01  0.12700000000E+01 0.  1.
         -4    1    1    2    0  501 -0.42438463637E+00 -0.19728871256E+01  0.25216361437E+01  0.34704372593E+01  0.12700000000E+01 0.  1.
<mgrwt>
<rscale>  0 0.23843838E+01</rscale>
<asrwt>0</asrwt>
<pdfrwt beam="1">0</pdfrwt>
<pdfrwt beam="2">0</pdfrwt>
<totfact> 0.21623079E+12</totfact>
</mgrwt>
</event>
<event>
 4    1  0.1733759E+006  0.6189235E+01  0.7546771E-02  0.2003122E+00
         22   -1    0    0    0    0  0.00000000000E+00  0.00000000000E+00  0.49225113188E+01  0.49225113188E+01  0.00000000000E+00 0.  1.
         22   -1    0    0    0    0 -0.00000000000E+00 -0.00000000000E+00 -0.78834336442E+01  0.78834336442E+01  0.00000000000E+00 0.  1.
          4    1    1    2  501    0 -0.54631033113E+01 -0.26169125888E+01 -0.22070165902E+01  0.65709627542E+01  0.12700000000E+01 0.  1.
         -4    1    1    2    0  501  0.54631033113E+01  0.26169125888E+01 -0.75390573521E+00  0.62349822089E+01  0.12700000000E+01 0.  1.
<mgrwt>
<rscale>  0 0.61892350E+01</rscale>
<asrwt>0</asrwt>
<pdfrwt beam="1">0</pdfrwt>
<pdfrwt beam="2">0</pdfrwt>
<totfact> 0.33226262E+11</totfact>
</mgrwt>
</event>
<event>
 4    1  0.1733759E+006  0.2370678E+01  0.7546771E-02  0.2768443E+00
         22   -1    0    0    0    0  0.00000000000E+00  0.00000000000E+00  0.70527261518E+01  0.70527261518E+01  0.00000000000E+00 0.  1.
         22   -1    0    0    0    0 -0.00000000000E+00 -0.00000000000E+00 -0.16004703268E+01  0.16004703268E+01  0.00000000000E+00 0.  1.
          4    1    1    2  501    0  0.13470972596E+01  0.14807240393E+01 -0.33966256090E+00  0.23948873382E+01  0.12700000000E+01 0.  1.
         -4    1    1    2    0  501 -0.13470972596E+01 -0.14807240393E+01  0.57919183859E+01  0.62583091403E+01  0.12700000000E+01 0.  1.
<mgrwt>
<rscale>  0 0.23706781E+01</rscale>
<asrwt>0</asrwt>
<pdfrwt beam="1">0</pdfrwt>
<pdfrwt beam="2">0</pdfrwt>
<totfact> 0.14085098E+12</totfact>
</mgrwt>
</event>
<event>
 4    1  0.1733759E+006  0.2836939E+01  0.7546771E-02  0.2576363E+00
         22   -1    0    0    0    0  0.00000000000E+00  0.00000000000E+00  0.56485344145E+00  0.56485344145E+00  0.00000000000E+00 0. -1.
         22   -1    0    0    0    0 -0.00000000000E+00 -0.00000000000E+00 -0.15395721596E+02  0.15395721596E+02  0.00000000000E+00 0.  1.
          4    1    1    2  501    0 -0.13189359568E+01 -0.21669628689E+01 -0.95940150709E+01  0.10004666177E+02  0.12700000000E+01 0.  1.
         -4    1    1    2    0  501  0.13189359568E+01  0.21669628689E+01 -0.52368530832E+01  0.59559088600E+01  0.12700000000E+01 0. -1.
<mgrwt>
<rscale>  0 0.28369385E+01</rscale>
<asrwt>0</asrwt>
<pdfrwt beam="1">0</pdfrwt>
<pdfrwt beam="2">0</pdfrwt>
<totfact> 0.17931404E+12</totfact>
</mgrwt>
</event>
<event>
 4    1  0.1733759E+006  0.2350089E+01  0.7546771E-02  0.2778552E+00
         22   -1    0    0    0    0  0.00000000000E+00  0.00000000000E+00  0.43972418333E+00  0.43972418333E+00  0.00000000000E+00 0.  1.
         22   -1    0    0    0    0 -0.00000000000E+00 -0.00000000000E+00 -0.32283733795E+02  0.32283733795E+02  0.00000000000E+00 0. -1.
          4    1    1    2  501    0 -0.19575027264E+01 -0.27964550225E+00 -0.28710878941E+02  0.28806900009E+02  0.12700000000E+01 0. -1.
         -4    1    1    2    0  501  0.19575027264E+01  0.27964550225E+00 -0.31331306698E+01  0.39165579691E+01  0.12700000000E+01 0.  1.
<mgrwt>
<rscale>  0 0.23500890E+01</rscale>
<asrwt>0</asrwt>
<pdfrwt beam="1">0</pdfrwt>
<pdfrwt beam="2">0</pdfrwt>
<totfact> 0.93966057E+11</totfact>
</mgrwt>
</event>
<event>
 4    1  0.1733759E+006  0.2011040E+01  0.7546771E-02  0.2973314E+00
         22   -1    0    0    0    0  0.00000000000E+00  0.00000000000E+00  0.11443739358E+01  0.11443739358E+01  0.00000000000E+00 0. -1.
         22   -1    0    0    0    0 -0.00000000000E+00 -0.00000000000E+00 -0.37358690656E+01  0.37358690656E+01  0.00000000000E+00 0. -1.
          4    1    1    2  501    0 -0.15476328855E+01 -0.19030193298E+00 -0.72860856111E+00  0.21389606844E+01  0.12700000000E+01 0. -1.
         -4    1    1    2    0  501  0.15476328855E+01  0.19030193298E+00 -0.18628865687E+01  0.27412823170E+01  0.12700000000E+01 0. -1.
<mgrwt>
<rscale>  0 0.20110401E+01</rscale>
<asrwt>0</asrwt>
<pdfrwt beam="1">0</pdfrwt>
<pdfrwt beam="2">0</pdfrwt>
<totfact> 0.43961109E+12</totfact>
</mgrwt>
</event>
<event>
 4    1  0.1733759E+006  0.2367998E+01  0.7546771E-02  0.2769750E+00
         22   -1    0    0    0    0  0.00000000000E+00  0.00000000000E+00  0.51623850296E+00  0.51623850296E+00  0.00000000000E+00 0.  1.
         22   -1    0    0    0    0 -0.00000000000E+00 -0.00000000000E+00 -0.26449304621E+02  0.26449304621E+02  0.00000000000E+00 0.  1.
          4    1    1    2  501    0  0.31379128569E-01 -0.19983819808E+01 -0.23316922233E+02  0.23436857247E+02  0.12700000000E+01 0.  1.
         -4    1    1    2    0  501 -0.31379128569E-01  0.19983819808E+01 -0.26161438845E+01  0.35286858766E+01  0.12700000000E+01 0.  1.
<mgrwt>
<rscale>  0 0.23679981E+01</rscale>
<asrwt>0</asrwt>
<pdfrwt beam="1">0</pdfrwt>
<pdfrwt beam="2">0</pdfrwt>
<totfact> 0.10104492E+12</totfact>
</mgrwt>
</event>
<event>
 4    1  0.1733759E+006  0.3022537E+01  0.7546771E-02  0.2515106E+00
         22   -1    0    0    0    0  0.00000000000E+00  0.00000000000E+00  0.20257959879E+01  0.20257959879E+01  0.00000000000E+00 0. -1.
         22   -1    0    0    0    0 -0.00000000000E+00 -0.00000000000E+00 -0.55798452832E+01  0.55798452832E+01  0.00000000000E+00 0.  1.
          4    1    1    2  501    0 -0.27378648923E+01  0.16408516523E+00 -0.34424169022E+01  0.45810437936E+01  0.12700000000E+01 0.  1.
         -4    1    1    2    0  501  0.27378648923E+01 -0.16408516523E+00 -0.11163239315E+00  0.30245974775E+01  0.12700000000E+01 0. -1.
<mgrwt>
<rscale>  0 0.30225367E+01</rscale>
<asrwt>0</asrwt>
<pdfrwt beam="1">0</pdfrwt>
<pdfrwt beam="2">0</pdfrwt>
<totfact> 0.14185517E+12</totfact>
</mgrwt>
</event>
<event>
 4    1  0.1733759E+006  0.2551286E+01  0.7546771E-02  0.2686342E+00
         22   -1    0    0    0    0  0.00000000000E+00  0.00000000000E+00  0.25952663849E+00  0.25952663849E+00  0.00000000000E+00 0. -1.
         22   -1    0    0    0    0 -0.00000000000E+00 -0.00000000000E+00 -0.25730191113E+02  0.25730191113E+02  0.00000000000E+00 0. -1.
          4    1    1    2  501    0  0.16410434842E+01  0.14842974463E+01 -0.14800224430E+02  0.15018512104E+02  0.12700000000E+01 0. -1.
         -4    1    1    2    0  501 -0.16410434842E+01 -0.14842974463E+01 -0.10670440044E+02  0.10971205648E+02  0.12700000000E+01 0. -1.
<mgrwt>
<rscale>  0 0.25512865E+01</rscale>
<asrwt>0</asrwt>
<pdfrwt beam="1">0</pdfrwt>
<pdfrwt beam="2">0</pdfrwt>
<totfact> 0.22670111E+12</totfact>
</mgrwt>
</event>
<event>
 4    1  0.1733759E+006  0.2340115E+01  0.7546771E-02  0.2783510E+00
         22   -1    0    0    0    0  0.00000000000E+00  0.00000000000E+00  0.35450543111E+00  0.35450543111E+00  0.00000000000E+00 0.  1.
         22   -1    0    0    0    0 -0.00000000000E+00 -0.00000000000E+00 -0.16395103937E+02  0.16395103937E+02  0.00000000000E+00 0. -1.
          4    1    1    2  501    0 -0.58680302679E+00 -0.18758731783E+01 -0.60066410526E+01  0.64463846230E+01  0.12700000000E+01 0.  1.
         -4    1    1    2    0  501  0.58680302679E+00  0.18758731783E+01 -0.10033957454E+02  0.10303224746E+02  0.12700000000E+01 0. -1.
<mgrwt>
<rscale>  0 0.23401149E+01</rscale>
<asrwt>0</asrwt>
<pdfrwt beam="1">0</pdfrwt>
<pdfrwt beam="2">0</pdfrwt>
<totfact> 0.28054272E+12</totfact>
</mgrwt>
</event>
<event>
 4    1  0.1733759E+006  0.4143792E+01  0.7546771E-02  0.2250623E+00
         22   -1    0    0    0    0  0.00000000000E+00  0.00000000000E+00  0.12417893311E+02  0.12417893311E+02  0.00000000000E+00 0. -1.
         22   -1    0    0    0    0 -0.00000000000E+00 -0.00000000000E+00 -0.13835682046E+01  0.13835682046E+01  0.00000000000E+00 0.  1.
          4    1    1    2  501    0  0.34244544871E+01 -0.19573514107E+01  0.56835566025E+01  0.70337634829E+01  0.12700000000E+01 0. -1.
         -4    1    1    2    0  501 -0.34244544871E+01  0.19573514107E+01  0.53507685035E+01  0.67676980324E+01  0.12700000000E+01 0.  1.
<mgrwt>
<rscale>  0 0.41437921E+01</rscale>
<asrwt>0</asrwt>
<pdfrwt beam="1">0</pdfrwt>
<pdfrwt beam="2">0</pdfrwt>
<totfact> 0.84079582E+11</totfact>
</mgrwt>
</event>
<event>
 4    1  0.1733759E+006  0.2938024E+01  0.7546771E-02  0.2542135E+00
         22   -1    0    0    0    0  0.00000000000E+00  0.00000000000E+00  0.71847675054E+02  0.71847675054E+02  0.00000000000E+00 0. -1.
         22   -1    0    0    0    0 -0.00000000000E+00 -0.00000000000E+00 -0.12899533483E+00  0.12899533483E+00  0.00000000000E+00 0.  1.
          4    1    1    2  501    0  0.20218778114E+00  0.26416291250E+01  0.26431604371E+02  0.26594392153E+02  0.12700000000E+01 0.  1.
         -4    1    1    2    0  501 -0.20218778114E+00 -0.26416291250E+01  0.45287075348E+02  0.45382278236E+02  0.12700000000E+01 0. -1.
<mgrwt>
<rscale>  0 0.29380239E+01</rscale>
<asrwt>0</asrwt>
<pdfrwt beam="1">0</pdfrwt>
<pdfrwt beam="2">0</pdfrwt>
<totfact> 0.12913113E+12</totfact>
</mgrwt>
</event>
<event>
 4    1  0.1733759E+006  0.2818024E+01  0.7546771E-02  0.2583014E+00
         22   -1    0    0    0    0  0.00000000000E+00  0.00000000000E+00  0.32980239715E+02  0.32980239715E+02  0.00000000000E+00 0. -1.
         22   -1    0    0    0    0 -0.00000000000E+00 -0.00000000000E+00 -0.24134747882E+00  0.24134747882E+00  0.00000000000E+00 0.  1.
          4    1    1    2  501    0  0.15058529130E+01  0.20151340163E+01  0.15569947117E+02  0.15822910962E+02  0.12700000000E+01 0. -1.
         -4    1    1    2    0  501 -0.15058529130E+01 -0.20151340163E+01  0.17168945120E+02  0.17398676232E+02  0.12700000000E+01 0.  1.
<mgrwt>
<rscale>  0 0.28180238E+01</rscale>
<asrwt>0</asrwt>
<pdfrwt beam="1">0</pdfrwt>
<pdfrwt beam="2">0</pdfrwt>
<totfact> 0.17929630E+12</totfact>
</mgrwt>
</event>
<event>
 4    1  0.1733759E+006  0.2522252E+01  0.7546771E-02  0.2698801E+00
         22   -1    0    0    0    0  0.00000000000E+00  0.00000000000E+00  0.20851037803E+01  0.20851037803E+01  0.00000000000E+00 0.  1.
         22   -1    0    0    0    0 -0.00000000000E+00 -0.00000000000E+00 -0.40640009861E+01  0.40640009861E+01  0.00000000000E+00 0. -1.
          4    1    1    2  501    0 -0.20896587103E+01 -0.61820705283E+00 -0.25244170669E+01  0.35685340146E+01  0.12700000000E+01 0. -1.
         -4    1    1    2    0  501  0.20896587103E+01  0.61820705283E+00  0.54551986109E+00  0.25805707517E+01  0.12700000000E+01 0.  1.
<mgrwt>
<rscale>  0 0.25222517E+01</rscale>
<asrwt>0</asrwt>
<pdfrwt beam="1">0</pdfrwt>
<pdfrwt beam="2">0</pdfrwt>
<totfact> 0.19957402E+12</totfact>
</mgrwt>
</event>
<event>
 4    1  0.1733759E+006  0.2327784E+01  0.7546771E-02  0.2789694E+00
         22   -1    0    0    0    0  0.00000000000E+00  0.00000000000E+00  0.30774293352E+02  0.30774293352E+02  0.00000000000E+00 0.  1.
         22   -1    0    0    0    0 -0.00000000000E+00 -0.00000000000E+00 -0.61735083522E+00  0.61735083522E+00  0.00000000000E+00 0. -1.
          4    1    1    2  501    0  0.19428579587E+01  0.17600968820E+00  0.18084005760E+01  0.29476921653E+01  0.12700000000E+01 0. -1.
         -4    1    1    2    0  501 -0.19428579587E+01 -0.17600968820E+00  0.28348541941E+02  0.28443952022E+02  0.12700000000E+01 0.  1.
<mgrwt>
<rscale>  0 0.23277836E+01</rscale>
<asrwt>0</asrwt>
<pdfrwt beam="1">0</pdfrwt>
<pdfrwt beam="2">0</pdfrwt>
<totfact> 0.68084689E+11</totfact>
</mgrwt>
</event>
<event>
 4    1  0.1733759E+006  0.2191330E+01  0.7546771E-02  0.2862537E+00
         22   -1    0    0    0    0  0.00000000000E+00  0.00000000000E+00  0.48780803233E+01  0.48780803233E+01  0.00000000000E+00 0. -1.
         22   -1    0    0    0    0 -0.00000000000E+00 -0.00000000000E+00 -0.32215688405E+01  0.32215688405E+01  0.00000000000E+00 0.  1.
          4    1    1    2  501    0  0.88701445937E+00 -0.15499143655E+01 -0.25465823415E+01  0.33596146823E+01  0.12700000000E+01 0.  1.
         -4    1    1    2    0  501 -0.88701445937E+00  0.15499143655E+01  0.42030938243E+01  0.47400344816E+01  0.12700000000E+01 0. -1.
<mgrwt>
<rscale>  0 0.21913305E+01</rscale>
<asrwt>0</asrwt>
<pdfrwt beam="1">0</pdfrwt>
<pdfrwt beam="2">0</pdfrwt>
<totfact> 0.96947069E+11</totfact>
</mgrwt>
</event>
<event>
 4    1  0.1733759E+006  0.2260573E+01  0.7546771E-02  0.2824526E+00
         22   -1    0    0    0    0  0.00000000000E+00  0.00000000000E+00  0.23135349658E+01  0.23135349658E+01  0.00000000000E+00 0.  1.
         22   -1    0    0    0    0 -0.00000000000E+00 -0.00000000000E+00 -0.30657412379E+01  0.30657412379E+01  0.00000000000E+00 0. -1.
          4    1    1    2  501    0 -0.90970117545E+00  0.16339316850E+01 -0.17980907795E+01  0.28884804709E+01  0.12700000000E+01 0. -1.
         -4    1    1    2    0  501  0.90970117545E+00 -0.16339316850E+01  0.10458845074E+01  0.24907957328E+01  0.12700000000E+01 0.  1.
<mgrwt>
<rscale>  0 0.22605727E+01</rscale>
<asrwt>0</asrwt>
<pdfrwt beam="1">0</pdfrwt>
<pdfrwt beam="2">0</pdfrwt>
<totfact> 0.24621748E+12</totfact>
</mgrwt>
</event>
<event>
 4    1  0.1733759E+006  0.2567924E+01  0.7546771E-02  0.2679321E+00
         22   -1    0    0    0    0  0.00000000000E+00  0.00000000000E+00  0.12690746278E+01  0.12690746278E+01  0.00000000000E+00 0. -1.
         22   -1    0    0    0    0 -0.00000000000E+00 -0.00000000000E+00 -0.52395648957E+01  0.52395648957E+01  0.00000000000E+00 0. -1.
          4    1    1    2  501    0 -0.19500018770E+01 -0.10857378289E+01 -0.16888299040E+01  0.30734964451E+01  0.12700000000E+01 0. -1.
         -4    1    1    2    0  501  0.19500018770E+01  0.10857378289E+01 -0.22816603639E+01  0.34351430784E+01  0.12700000000E+01 0. -1.
<mgrwt>
<rscale>  0 0.25679241E+01</rscale>
<asrwt>0</asrwt>
<pdfrwt beam="1">0</pdfrwt>
<pdfrwt beam="2">0</pdfrwt>
<totfact> 0.26199472E+12</totfact>
</mgrwt>
</event>
<event>
 4    1  0.1733759E+006  0.2087095E+01  0.7546771E-02  0.2924318E+00
         22   -1    0    0    0    0  0.00000000000E+00  0.00000000000E+00  0.54641858396E+01  0.54641858396E+01  0.00000000000E+00 0. -1.
         22   -1    0    0    0    0 -0.00000000000E+00 -0.00000000000E+00 -0.27521805658E+01  0.27521805658E+01  0.00000000000E+00 0.  1.
          4    1    1    2  501    0  0.11570504549E+00 -0.16521737263E+01 -0.21064533024E+01  0.29653180596E+01  0.12700000000E+01 0.  1.
         -4    1    1    2    0  501 -0.11570504549E+00  0.16521737263E+01  0.48184585761E+01  0.52510483458E+01  0.12700000000E+01 0. -1.
<mgrwt>
<rscale>  0 0.20870950E+01</rscale>
<asrwt>0</asrwt>
<pdfrwt beam="1">0</pdfrwt>
<pdfrwt beam="2">0</pdfrwt>
<totfact> 0.10186021E+12</totfact>
</mgrwt>
</event>
<event>
 4    1  0.1733759E+006  0.2110916E+01  0.7546771E-02  0.2909680E+00
         22   -1    0    0    0    0  0.00000000000E+00  0.00000000000E+00  0.88436982830E+01  0.88436982830E+01  0.00000000000E+00 0.  1.
         22   -1    0    0    0    0 -0.00000000000E+00 -0.00000000000E+00 -0.12828149737E+02  0.12828149737E+02  0.00000000000E+00 0. -1.
          4    1    1    2  501    0 -0.38211598769E+00 -0.16422710834E+01 -0.12613213966E+02  0.12788632980E+02  0.12700000000E+01 0. -1.
         -4    1    1    2    0  501  0.38211598769E+00  0.16422710834E+01  0.86287625126E+01  0.88832150395E+01  0.12700000000E+01 0.  1.
<mgrwt>
<rscale>  0 0.21109161E+01</rscale>
<asrwt>0</asrwt>
<pdfrwt beam="1">0</pdfrwt>
<pdfrwt beam="2">0</pdfrwt>
<totfact> 0.91508693E+10</totfact>
</mgrwt>
</event>
<event>
 4    1  0.1733759E+006  0.4067553E+01  0.7546771E-02  0.2264565E+00
         22   -1    0    0    0    0  0.00000000000E+00  0.00000000000E+00  0.21269942563E+01  0.21269942563E+01  0.00000000000E+00 0. -1.
         22   -1    0    0    0    0 -0.00000000000E+00 -0.00000000000E+00 -0.29570433379E+02  0.29570433379E+02  0.00000000000E+00 0.  1.
          4    1    1    2  501    0  0.26130453373E+01  0.28467667257E+01 -0.27327150475E+02  0.27628212751E+02  0.12700000000E+01 0.  1.
         -4    1    1    2    0  501 -0.26130453373E+01 -0.28467667257E+01 -0.11628864770E+00  0.40692148843E+01  0.12700000000E+01 0. -1.
<mgrwt>
<rscale>  0 0.40675529E+01</rscale>
<asrwt>0</asrwt>
<pdfrwt beam="1">0</pdfrwt>
<pdfrwt beam="2">0</pdfrwt>
<totfact> 0.17376238E+11</totfact>
</mgrwt>
</event>
<event>
 4    1  0.1733759E+006  0.2071086E+01  0.7546771E-02  0.2934340E+00
         22   -1    0    0    0    0  0.00000000000E+00  0.00000000000E+00  0.59855108636E+01  0.59855108636E+01  0.00000000000E+00 0.  1.
         22   -1    0    0    0    0 -0.00000000000E+00 -0.00000000000E+00 -0.79804748553E+00  0.79804748553E+00  0.00000000000E+00 0. -1.
          4    1    1    2  501    0  0.15939336306E+01 -0.36860803592E+00  0.15103731766E+01  0.25633227334E+01  0.12700000000E+01 0. -1.
         -4    1    1    2    0  501 -0.15939336306E+01  0.36860803592E+00  0.36770902014E+01  0.42202356157E+01  0.12700000000E+01 0. -1.
<mgrwt>
<rscale>  0 0.20710858E+01</rscale>
<asrwt>0</asrwt>
<pdfrwt beam="1">0</pdfrwt>
<pdfrwt beam="2">0</pdfrwt>
<totfact> 0.37991266E+12</totfact>
</mgrwt>
</event>
<event>
 4    1  0.1733759E+006  0.3243574E+01  0.7546771E-02  0.2450394E+00
         22   -1    0    0    0    0  0.00000000000E+00  0.00000000000E+00  0.71108193063E+00  0.71108193063E+00  0.00000000000E+00 0.  1.
         22   -1    0    0    0    0 -0.00000000000E+00 -0.00000000000E+00 -0.17018447900E+02  0.17018447900E+02  0.00000000000E+00 0. -1.
          4    1    1    2  501    0 -0.29362335791E+01  0.53516703819E+00 -0.11357572756E+02  0.11811656543E+02  0.12700000000E+01 0. -1.
         -4    1    1    2    0  501  0.29362335791E+01 -0.53516703819E+00 -0.49497932137E+01  0.59178732876E+01  0.12700000000E+01 0.  1.
<mgrwt>
<rscale>  0 0.32435739E+01</rscale>
<asrwt>0</asrwt>
<pdfrwt beam="1">0</pdfrwt>
<pdfrwt beam="2">0</pdfrwt>
<totfact> 0.12205818E+12</totfact>
</mgrwt>
</event>
<event>
 4    1  0.1733759E+006  0.2898020E+01  0.7546771E-02  0.2555423E+00
         22   -1    0    0    0    0  0.00000000000E+00  0.00000000000E+00  0.60726392830E+01  0.60726392830E+01  0.00000000000E+00 0. -1.
         22   -1    0    0    0    0 -0.00000000000E+00 -0.00000000000E+00 -0.20824349031E+01  0.20824349031E+01  0.00000000000E+00 0.  1.
          4    1    1    2  501    0  0.14885411334E+01  0.21377242929E+01 -0.36800161779E+00  0.29212916748E+01  0.12700000000E+01 0.  1.
         -4    1    1    2    0  501 -0.14885411334E+01 -0.21377242929E+01  0.43582059976E+01  0.52337825113E+01  0.12700000000E+01 0. -1.
<mgrwt>
<rscale>  0 0.28980200E+01</rscale>
<asrwt>0</asrwt>
<pdfrwt beam="1">0</pdfrwt>
<pdfrwt beam="2">0</pdfrwt>
<totfact> 0.12424006E+12</totfact>
</mgrwt>
</event>
<event>
 4    1  0.1733759E+006  0.2255880E+01  0.7546771E-02  0.2827031E+00
         22   -1    0    0    0    0  0.00000000000E+00  0.00000000000E+00  0.36025841131E+02  0.36025841131E+02  0.00000000000E+00 0.  1.
         22   -1    0    0    0    0 -0.00000000000E+00 -0.00000000000E+00 -0.14186250011E+00  0.14186250011E+00  0.00000000000E+00 0.  1.
          4    1    1    2  501    0  0.14553548924E+01 -0.11653487136E+01  0.19120908465E+02  0.19253522691E+02  0.12700000000E+01 0.  1.
         -4    1    1    2    0  501 -0.14553548924E+01  0.11653487136E+01  0.16763070167E+02  0.16914180941E+02  0.12700000000E+01 0.  1.
<mgrwt>
<rscale>  0 0.22558802E+01</rscale>
<asrwt>0</asrwt>
<pdfrwt beam="1">0</pdfrwt>
<pdfrwt beam="2">0</pdfrwt>
<totfact> 0.28937346E+12</totfact>
</mgrwt>
</event>
<event>
 4    1  0.1733759E+006  0.4891699E+01  0.7546771E-02  0.2136157E+00
         22   -1    0    0    0    0  0.00000000000E+00  0.00000000000E+00  0.51224260699E+02  0.51224260699E+02  0.00000000000E+00 0. -1.
         22   -1    0    0    0    0 -0.00000000000E+00 -0.00000000000E+00 -0.53458966104E+00  0.53458966104E+00  0.00000000000E+00 0.  1.
          4    1    1    2  501    0 -0.43110778281E+01 -0.19314301074E+01  0.16152074362E+02  0.16876558313E+02  0.12700000000E+01 0.  1.
         -4    1    1    2    0  501  0.43110778281E+01  0.19314301074E+01  0.34537596676E+02  0.34882292047E+02  0.12700000000E+01 0. -1.
<mgrwt>
<rscale>  0 0.48916985E+01</rscale>
<asrwt>0</asrwt>
<pdfrwt beam="1">0</pdfrwt>
<pdfrwt beam="2">0</pdfrwt>
<totfact> 0.41365804E+11</totfact>
</mgrwt>
</event>
<event>
 4    1  0.1733759E+006  0.2681841E+01  0.7546771E-02  0.2633413E+00
         22   -1    0    0    0    0  0.00000000000E+00  0.00000000000E+00  0.25174047028E+01  0.25174047028E+01  0.00000000000E+00 0.  1.
         22   -1    0    0    0    0 -0.00000000000E+00 -0.00000000000E+00 -0.57360081431E+01  0.57360081431E+01  0.00000000000E+00 0. -1.
          4    1    1    2  501    0 -0.92653370016E-02 -0.23620514896E+01 -0.45329067967E+01  0.52668317909E+01  0.12700000000E+01 0. -1.
         -4    1    1    2    0  501  0.92653370016E-02  0.23620514896E+01  0.13143033564E+01  0.29865810551E+01  0.12700000000E+01 0.  1.
<mgrwt>
<rscale>  0 0.26818414E+01</rscale>
<asrwt>0</asrwt>
<pdfrwt beam="1">0</pdfrwt>
<pdfrwt beam="2">0</pdfrwt>
<totfact> 0.10668191E+12</totfact>
</mgrwt>
</event>
<event>
 4    1  0.1733759E+006  0.2288859E+01  0.7546771E-02  0.2809630E+00
         22   -1    0    0    0    0  0.00000000000E+00  0.00000000000E+00  0.39387614984E+02  0.39387614984E+02  0.00000000000E+00 0.  1.
         22   -1    0    0    0    0 -0.00000000000E+00 -0.00000000000E+00 -0.13321358913E+00  0.13321358913E+00  0.00000000000E+00 0.  1.
          4    1    1    2  501    0 -0.85933323264E+00 -0.16992712547E+01  0.18851322420E+02  0.18989766544E+02  0.12700000000E+01 0.  1.
         -4    1    1    2    0  501  0.85933323264E+00  0.16992712547E+01  0.20403078975E+02  0.20531062029E+02  0.12700000000E+01 0.  1.
<mgrwt>
<rscale>  0 0.22888592E+01</rscale>
<asrwt>0</asrwt>
<pdfrwt beam="1">0</pdfrwt>
<pdfrwt beam="2">0</pdfrwt>
<totfact> 0.27651720E+12</totfact>
</mgrwt>
</event>
<event>
 4    1  0.1733759E+006  0.3170515E+01  0.7546771E-02  0.2470895E+00
         22   -1    0    0    0    0  0.00000000000E+00  0.00000000000E+00  0.59662398098E+00  0.59662398098E+00  0.00000000000E+00 0.  1.
         22   -1    0    0    0    0 -0.00000000000E+00 -0.00000000000E+00 -0.18035076071E+02  0.18035076071E+02  0.00000000000E+00 0. -1.
          4    1    1    2  501    0  0.29036536479E+01 -0.89787592579E-01 -0.11108838616E+02  0.11552422331E+02  0.12700000000E+01 0.  1.
         -4    1    1    2    0  501 -0.29036536479E+01  0.89787592579E-01 -0.63296134739E+01  0.70792777208E+01  0.12700000000E+01 0. -1.
<mgrwt>
<rscale>  0 0.31705152E+01</rscale>
<asrwt>0</asrwt>
<pdfrwt beam="1">0</pdfrwt>
<pdfrwt beam="2">0</pdfrwt>
<totfact> 0.13859910E+12</totfact>
</mgrwt>
</event>
<event>
 4    1  0.1733759E+006  0.4708240E+01  0.7546771E-02  0.2159528E+00
         22   -1    0    0    0    0  0.00000000000E+00  0.00000000000E+00  0.24059121127E+02  0.24059121127E+02  0.00000000000E+00 0. -1.
         22   -1    0    0    0    0 -0.00000000000E+00 -0.00000000000E+00 -0.12870931305E+01  0.12870931305E+01  0.00000000000E+00 0.  1.
          4    1    1    2  501    0 -0.43682369872E+01 -0.12137273530E+01  0.46306307914E+01  0.66038072345E+01  0.12700000000E+01 0.  1.
         -4    1    1    2    0  501  0.43682369872E+01  0.12137273530E+01  0.18141397205E+02  0.18742407023E+02  0.12700000000E+01 0. -1.
<mgrwt>
<rscale>  0 0.47082405E+01</rscale>
<asrwt>0</asrwt>
<pdfrwt beam="1">0</pdfrwt>
<pdfrwt beam="2">0</pdfrwt>
<totfact> 0.40260576E+11</totfact>
</mgrwt>
</event>
<event>
 4    1  0.1733759E+006  0.2039735E+01  0.7546771E-02  0.2954409E+00
         22   -1    0    0    0    0  0.00000000000E+00  0.00000000000E+00  0.10495508135E+02  0.10495508135E+02  0.00000000000E+00 0. -1.
         22   -1    0    0    0    0 -0.00000000000E+00 -0.00000000000E+00 -0.25306760869E+01  0.25306760869E+01  0.00000000000E+00 0. -1.
          4    1    1    2  501    0 -0.12018966882E+01  0.10502686428E+01 -0.19988520164E+01  0.28558587596E+01  0.12700000000E+01 0. -1.
         -4    1    1    2    0  501  0.12018966882E+01 -0.10502686428E+01  0.99636840646E+01  0.10170325462E+02  0.12700000000E+01 0. -1.
<mgrwt>
<rscale>  0 0.20397352E+01</rscale>
<asrwt>0</asrwt>
<pdfrwt beam="1">0</pdfrwt>
<pdfrwt beam="2">0</pdfrwt>
<totfact> 0.51333764E+11</totfact>
</mgrwt>
</event>
<event>
 4    1  0.1733759E+006  0.2041639E+01  0.7546771E-02  0.2953174E+00
         22   -1    0    0    0    0  0.00000000000E+00  0.00000000000E+00  0.11029005834E+01  0.11029005834E+01  0.00000000000E+00 0.  1.
         22   -1    0    0    0    0 -0.00000000000E+00 -0.00000000000E+00 -0.11022429776E+02  0.11022429776E+02  0.00000000000E+00 0.  1.
          4    1    1    2  501    0  0.15865394932E+01 -0.19565635376E+00 -0.98743333601E+01  0.10083191374E+02  0.12700000000E+01 0.  1.
         -4    1    1    2    0  501 -0.15865394932E+01  0.19565635376E+00 -0.45195832112E-01  0.20421389853E+01  0.12700000000E+01 0.  1.
<mgrwt>
<rscale>  0 0.20416388E+01</rscale>
<asrwt>0</asrwt>
<pdfrwt beam="1">0</pdfrwt>
<pdfrwt beam="2">0</pdfrwt>
<totfact> 0.12606022E+12</totfact>
</mgrwt>
</event>
<event>
 4    1  0.1733759E+006  0.2942923E+01  0.7546771E-02  0.2540530E+00
         22   -1    0    0    0    0  0.00000000000E+00  0.00000000000E+00  0.62266946410E+01  0.62266946410E+01  0.00000000000E+00 0.  1.
         22   -1    0    0    0    0 -0.00000000000E+00 -0.00000000000E+00 -0.15324565525E+01  0.15324565525E+01  0.00000000000E+00 0. -1.
          4    1    1    2  501    0  0.81391856782E+00  0.25269412340E+01  0.11680643025E+01  0.31662548302E+01  0.12700000000E+01 0. -1.
         -4    1    1    2    0  501 -0.81391856782E+00 -0.25269412340E+01  0.35261737860E+01  0.45928963633E+01  0.12700000000E+01 0.  1.
<mgrwt>
<rscale>  0 0.29429229E+01</rscale>
<asrwt>0</asrwt>
<pdfrwt beam="1">0</pdfrwt>
<pdfrwt beam="2">0</pdfrwt>
<totfact> 0.17182704E+12</totfact>
</mgrwt>
</event>
<event>
 4    1  0.1733759E+006  0.2465536E+01  0.7546771E-02  0.2723922E+00
         22   -1    0    0    0    0  0.00000000000E+00  0.00000000000E+00  0.25263730400E+01  0.25263730400E+01  0.00000000000E+00 0.  1.
         22   -1    0    0    0    0 -0.00000000000E+00 -0.00000000000E+00 -0.32070239339E+01  0.32070239339E+01  0.00000000000E+00 0. -1.
          4    1    1    2  501    0 -0.96220958871E+00 -0.18815213219E+01 -0.17728728256E+01  0.30367660155E+01  0.12700000000E+01 0.  1.
         -4    1    1    2    0  501  0.96220958871E+00  0.18815213219E+01  0.10922219317E+01  0.26966309583E+01  0.12700000000E+01 0. -1.
<mgrwt>
<rscale>  0 0.24655364E+01</rscale>
<asrwt>0</asrwt>
<pdfrwt beam="1">0</pdfrwt>
<pdfrwt beam="2">0</pdfrwt>
<totfact> 0.21087371E+12</totfact>
</mgrwt>
</event>
<event>
 4    1  0.1733759E+006  0.3210753E+01  0.7546771E-02  0.2459502E+00
         22   -1    0    0    0    0  0.00000000000E+00  0.00000000000E+00  0.65901388413E+00  0.65901388413E+00  0.00000000000E+00 0. -1.
         22   -1    0    0    0    0 -0.00000000000E+00 -0.00000000000E+00 -0.16459196871E+02  0.16459196871E+02  0.00000000000E+00 0. -1.
          4    1    1    2  501    0  0.12004496593E+01  0.26935022970E+01 -0.59940617955E+01  0.67998316756E+01  0.12700000000E+01 0. -1.
         -4    1    1    2    0  501 -0.12004496593E+01 -0.26935022970E+01 -0.98061211917E+01  0.10318379080E+02  0.12700000000E+01 0. -1.
<mgrwt>
<rscale>  0 0.32107529E+01</rscale>
<asrwt>0</asrwt>
<pdfrwt beam="1">0</pdfrwt>
<pdfrwt beam="2">0</pdfrwt>
<totfact> 0.13867080E+12</totfact>
</mgrwt>
</event>
<event>
 4    1  0.1733759E+006  0.2244314E+01  0.7546771E-02  0.2833250E+00
         22   -1    0    0    0    0  0.00000000000E+00  0.00000000000E+00  0.18360964761E+01  0.18360964761E+01  0.00000000000E+00 0. -1.
         22   -1    0    0    0    0 -0.00000000000E+00 -0.00000000000E+00 -0.58461188626E+01  0.58461188626E+01  0.00000000000E+00 0. -1.
          4    1    1    2  501    0  0.10146911807E+01  0.15474006194E+01 -0.48033577909E+01  0.53018103452E+01  0.12700000000E+01 0. -1.
         -4    1    1    2    0  501 -0.10146911807E+01 -0.15474006194E+01  0.79333540442E+00  0.23804049935E+01  0.12700000000E+01 0. -1.
<mgrwt>
<rscale>  0 0.22443143E+01</rscale>
<asrwt>0</asrwt>
<pdfrwt beam="1">0</pdfrwt>
<pdfrwt beam="2">0</pdfrwt>
<totfact> 0.15036377E+12</totfact>
</mgrwt>
</event>
<event>
 4    1  0.1733759E+006  0.2032544E+01  0.7546771E-02  0.2959098E+00
         22   -1    0    0    0    0  0.00000000000E+00  0.00000000000E+00  0.51127468011E+02  0.51127468011E+02  0.00000000000E+00 0. -1.
         22   -1    0    0    0    0 -0.00000000000E+00 -0.00000000000E+00 -0.89609378587E-01  0.89609378587E-01  0.00000000000E+00 0.  1.
          4    1    1    2  501    0 -0.15851717691E+01  0.74602345328E-01  0.33547076029E+02  0.33608593323E+02  0.12700000000E+01 0. -1.
         -4    1    1    2    0  501  0.15851717691E+01 -0.74602345328E-01  0.17490782603E+02  0.17608484066E+02  0.12700000000E+01 0.  1.
<mgrwt>
<rscale>  0 0.20325440E+01</rscale>
<asrwt>0</asrwt>
<pdfrwt beam="1">0</pdfrwt>
<pdfrwt beam="2">0</pdfrwt>
<totfact> 0.30495732E+12</totfact>
</mgrwt>
</event>
<event>
 4    1  0.1733759E+006  0.2325174E+01  0.7546771E-02  0.2791011E+00
         22   -1    0    0    0    0  0.00000000000E+00  0.00000000000E+00  0.24644003190E+00  0.24644003190E+00  0.00000000000E+00 0.  1.
         22   -1    0    0    0    0 -0.00000000000E+00 -0.00000000000E+00 -0.22165547866E+02  0.22165547866E+02  0.00000000000E+00 0. -1.
          4    1    1    2  501    0  0.19471189111E+01 -0.47563073822E-01 -0.12094617452E+02  0.12316095388E+02  0.12700000000E+01 0. -1.
         -4    1    1    2    0  501 -0.19471189111E+01  0.47563073822E-01 -0.98244903820E+01  0.10095892510E+02  0.12700000000E+01 0.  1.
<mgrwt>
<rscale>  0 0.23251740E+01</rscale>
<asrwt>0</asrwt>
<pdfrwt beam="1">0</pdfrwt>
<pdfrwt beam="2">0</pdfrwt>
<totfact> 0.28978551E+12</totfact>
</mgrwt>
</event>
<event>
 4    1  0.1733759E+006  0.3820382E+01  0.7546771E-02  0.2313002E+00
         22   -1    0    0    0    0  0.00000000000E+00  0.00000000000E+00  0.44793881909E+01  0.44793881909E+01  0.00000000000E+00 0. -1.
         22   -1    0    0    0    0 -0.00000000000E+00 -0.00000000000E+00 -0.50508066072E+01  0.50508066072E+01  0.00000000000E+00 0.  1.
          4    1    1    2  501    0 -0.96741104438E+00  0.34708118194E+01 -0.31244015469E+01  0.49353017983E+01  0.12700000000E+01 0.  1.
         -4    1    1    2    0  501  0.96741104438E+00 -0.34708118194E+01  0.25529831306E+01  0.45948929998E+01  0.12700000000E+01 0. -1.
<mgrwt>
<rscale>  0 0.38203820E+01</rscale>
<asrwt>0</asrwt>
<pdfrwt beam="1">0</pdfrwt>
<pdfrwt beam="2">0</pdfrwt>
<totfact> 0.63160705E+11</totfact>
</mgrwt>
</event>
<event>
 4    1  0.1733759E+006  0.2557443E+01  0.7546771E-02  0.2683735E+00
         22   -1    0    0    0    0  0.00000000000E+00  0.00000000000E+00  0.27874006387E+01  0.27874006387E+01  0.00000000000E+00 0.  1.
         22   -1    0    0    0    0 -0.00000000000E+00 -0.00000000000E+00 -0.25064770239E+01  0.25064770239E+01  0.00000000000E+00 0. -1.
          4    1    1    2  501    0  0.16310593159E+00  0.22138226129E+01 -0.52834394886E+00  0.26114481489E+01  0.12700000000E+01 0. -1.
         -4    1    1    2    0  501 -0.16310593159E+00 -0.22138226129E+01  0.80926756366E+00  0.26824295136E+01  0.12700000000E+01 0.  1.
<mgrwt>
<rscale>  0 0.25574429E+01</rscale>
<asrwt>0</asrwt>
<pdfrwt beam="1">0</pdfrwt>
<pdfrwt beam="2">0</pdfrwt>
<totfact> 0.25070379E+12</totfact>
</mgrwt>
</event>
<event>
 4    1  0.1733759E+006  0.2541718E+01  0.7546771E-02  0.2690419E+00
         22   -1    0    0    0    0  0.00000000000E+00  0.00000000000E+00  0.44714744170E+00  0.44714744170E+00  0.00000000000E+00 0.  1.
         22   -1    0    0    0    0 -0.00000000000E+00 -0.00000000000E+00 -0.18300243112E+02  0.18300243112E+02  0.00000000000E+00 0. -1.
          4    1    1    2  501    0 -0.17289647219E+01 -0.13631265097E+01 -0.13227315385E+02  0.13469306040E+02  0.12700000000E+01 0. -1.
         -4    1    1    2    0  501  0.17289647219E+01  0.13631265097E+01 -0.46257802850E+01  0.52780845139E+01  0.12700000000E+01 0.  1.
<mgrwt>
<rscale>  0 0.25417185E+01</rscale>
<asrwt>0</asrwt>
<pdfrwt beam="1">0</pdfrwt>
<pdfrwt beam="2">0</pdfrwt>
<totfact> 0.18853412E+12</totfact>
</mgrwt>
</event>
<event>
 4    1  0.1733759E+006  0.8784478E+01  0.7546771E-02  0.1834073E+00
         22   -1    0    0    0    0  0.00000000000E+00  0.00000000000E+00  0.34811815914E+01  0.34811815914E+01  0.00000000000E+00 0.  1.
         22   -1    0    0    0    0 -0.00000000000E+00 -0.00000000000E+00 -0.27618613746E+02  0.27618613746E+02  0.00000000000E+00 0.  1.
          4    1    1    2  501    0 -0.51741999533E+01  0.69843971152E+01 -0.18977356921E+02  0.20911889535E+02  0.12700000000E+01 0.  1.
         -4    1    1    2    0  501  0.51741999533E+01 -0.69843971152E+01 -0.51600752336E+01  0.10187905802E+02  0.12700000000E+01 0.  1.
<mgrwt>
<rscale>  0 0.87844777E+01</rscale>
<asrwt>0</asrwt>
<pdfrwt beam="1">0</pdfrwt>
<pdfrwt beam="2">0</pdfrwt>
<totfact> 0.10672310E+11</totfact>
</mgrwt>
</event>
<event>
 4    1  0.1733759E+006  0.2895690E+01  0.7546771E-02  0.2556207E+00
         22   -1    0    0    0    0  0.00000000000E+00  0.00000000000E+00  0.11014753397E+01  0.11014753397E+01  0.00000000000E+00 0. -1.
         22   -1    0    0    0    0 -0.00000000000E+00 -0.00000000000E+00 -0.76125833908E+01  0.76125833908E+01  0.00000000000E+00 0.  1.
          4    1    1    2  501    0  0.19301119553E+01 -0.17455048110E+01 -0.32445307929E+01  0.43487928522E+01  0.12700000000E+01 0. -1.
         -4    1    1    2    0  501 -0.19301119553E+01  0.17455048110E+01 -0.32665772582E+01  0.43652658784E+01  0.12700000000E+01 0.  1.
<mgrwt>
<rscale>  0 0.28956898E+01</rscale>
<asrwt>0</asrwt>
<pdfrwt beam="1">0</pdfrwt>
<pdfrwt beam="2">0</pdfrwt>
<totfact> 0.19738469E+12</totfact>
</mgrwt>
</event>
<event>
 4    1  0.1733759E+006  0.2654914E+01  0.7546771E-02  0.2643938E+00
         22   -1    0    0    0    0  0.00000000000E+00  0.00000000000E+00  0.43559307319E+01  0.43559307319E+01  0.00000000000E+00 0.  1.
         22   -1    0    0    0    0 -0.00000000000E+00 -0.00000000000E+00 -0.55143226106E+01  0.55143226106E+01  0.00000000000E+00 0. -1.
          4    1    1    2  501    0 -0.16616086313E+01  0.16354584532E+01 -0.47275047569E+01  0.54219801570E+01  0.12700000000E+01 0. -1.
         -4    1    1    2    0  501  0.16616086313E+01 -0.16354584532E+01  0.35691128782E+01  0.44482731855E+01  0.12700000000E+01 0.  1.
<mgrwt>
<rscale>  0 0.26549139E+01</rscale>
<asrwt>0</asrwt>
<pdfrwt beam="1">0</pdfrwt>
<pdfrwt beam="2">0</pdfrwt>
<totfact> 0.58822269E+11</totfact>
</mgrwt>
</event>
<event>
 4    1  0.1733759E+006  0.2010086E+01  0.7546771E-02  0.2973952E+00
         22   -1    0    0    0    0  0.00000000000E+00  0.00000000000E+00  0.47107378475E+00  0.47107378475E+00  0.00000000000E+00 0.  1.
         22   -1    0    0    0    0 -0.00000000000E+00 -0.00000000000E+00 -0.86645273195E+01  0.86645273195E+01  0.00000000000E+00 0. -1.
          4    1    1    2  501    0  0.14235970727E+01  0.63317970437E+00 -0.45555736062E+01  0.49793268666E+01  0.12700000000E+01 0.  1.
         -4    1    1    2    0  501 -0.14235970727E+01 -0.63317970437E+00 -0.36378799286E+01  0.41562742376E+01  0.12700000000E+01 0. -1.
<mgrwt>
<rscale>  0 0.20100859E+01</rscale>
<asrwt>0</asrwt>
<pdfrwt beam="1">0</pdfrwt>
<pdfrwt beam="2">0</pdfrwt>
<totfact> 0.44327402E+12</totfact>
</mgrwt>
</event>
<event>
 4    1  0.1733759E+006  0.2881359E+01  0.7546771E-02  0.2561055E+00
         22   -1    0    0    0    0  0.00000000000E+00  0.00000000000E+00  0.90101002464E+00  0.90101002464E+00  0.00000000000E+00 0.  1.
         22   -1    0    0    0    0 -0.00000000000E+00 -0.00000000000E+00 -0.14406739183E+02  0.14406739183E+02  0.00000000000E+00 0. -1.
          4    1    1    2  501    0  0.22744080393E+01  0.12314208762E+01 -0.11347824864E+02  0.11707918622E+02  0.12700000000E+01 0. -1.
         -4    1    1    2    0  501 -0.22744080393E+01 -0.12314208762E+01 -0.21579042938E+01  0.35998305856E+01  0.12700000000E+01 0.  1.
<mgrwt>
<rscale>  0 0.28813589E+01</rscale>
<asrwt>0</asrwt>
<pdfrwt beam="1">0</pdfrwt>
<pdfrwt beam="2">0</pdfrwt>
<totfact> 0.11450218E+12</totfact>
</mgrwt>
</event>
<event>
 4    1  0.1733759E+006  0.2395333E+01  0.7546771E-02  0.2756554E+00
         22   -1    0    0    0    0  0.00000000000E+00  0.00000000000E+00  0.12464925399E+01  0.12464925399E+01  0.00000000000E+00 0.  1.
         22   -1    0    0    0    0 -0.00000000000E+00 -0.00000000000E+00 -0.60875359773E+01  0.60875359773E+01  0.00000000000E+00 0. -1.
          4    1    1    2  501    0 -0.18625066355E+01 -0.80980712613E+00 -0.42313848250E+01  0.48623282577E+01  0.12700000000E+01 0. -1.
         -4    1    1    2    0  501  0.18625066355E+01  0.80980712613E+00 -0.60965861248E+00  0.24717002595E+01  0.12700000000E+01 0.  1.
<mgrwt>
<rscale>  0 0.23953327E+01</rscale>
<asrwt>0</asrwt>
<pdfrwt beam="1">0</pdfrwt>
<pdfrwt beam="2">0</pdfrwt>
<totfact> 0.22377878E+12</totfact>
</mgrwt>
</event>
<event>
 4    1  0.1733759E+006  0.2158388E+01  0.7546771E-02  0.2881440E+00
         22   -1    0    0    0    0  0.00000000000E+00  0.00000000000E+00  0.42249566450E+00  0.42249566450E+00  0.00000000000E+00 0.  1.
         22   -1    0    0    0    0 -0.00000000000E+00 -0.00000000000E+00 -0.11026593551E+02  0.11026593551E+02  0.00000000000E+00 0. -1.
          4    1    1    2  501    0  0.98525135050E-01  0.17424206173E+01 -0.52830787263E+01  0.57069744732E+01  0.12700000000E+01 0. -1.
         -4    1    1    2    0  501 -0.98525135050E-01 -0.17424206173E+01 -0.53210191602E+01  0.57421147423E+01  0.12700000000E+01 0.  1.
<mgrwt>
<rscale>  0 0.21583875E+01</rscale>
<asrwt>0</asrwt>
<pdfrwt beam="1">0</pdfrwt>
<pdfrwt beam="2">0</pdfrwt>
<totfact> 0.37437106E+12</totfact>
</mgrwt>
</event>
<event>
 4    1  0.1733759E+006  0.3208235E+01  0.7546771E-02  0.2460208E+00
         22   -1    0    0    0    0  0.00000000000E+00  0.00000000000E+00  0.35962804085E+02  0.35962804085E+02  0.00000000000E+00 0. -1.
         22   -1    0    0    0    0 -0.00000000000E+00 -0.00000000000E+00 -0.29010498454E+00  0.29010498454E+00  0.00000000000E+00 0.  1.
          4    1    1    2  501    0  0.19588979426E+01  0.22005881872E+01  0.15734932531E+02  0.16058669661E+02  0.12700000000E+01 0.  1.
         -4    1    1    2    0  501 -0.19588979426E+01 -0.22005881872E+01  0.19937766569E+02  0.20194239408E+02  0.12700000000E+01 0. -1.
<mgrwt>
<rscale>  0 0.32082346E+01</rscale>
<asrwt>0</asrwt>
<pdfrwt beam="1">0</pdfrwt>
<pdfrwt beam="2">0</pdfrwt>
<totfact> 0.13055601E+12</totfact>
</mgrwt>
</event>
<event>
 4    1  0.1733759E+006  0.2138005E+01  0.7546771E-02  0.2893417E+00
         22   -1    0    0    0    0  0.00000000000E+00  0.00000000000E+00  0.24865812946E+01  0.24865812946E+01  0.00000000000E+00 0. -1.
         22   -1    0    0    0    0 -0.00000000000E+00 -0.00000000000E+00 -0.26346890618E+01  0.26346890618E+01  0.00000000000E+00 0. -1.
          4    1    1    2  501    0  0.87938625998E+00  0.14781214950E+01 -0.14818759076E+01  0.26013495639E+01  0.12700000000E+01 0. -1.
         -4    1    1    2    0  501 -0.87938625998E+00 -0.14781214950E+01  0.13337681403E+01  0.25199207925E+01  0.12700000000E+01 0. -1.
<mgrwt>
<rscale>  0 0.21380045E+01</rscale>
<asrwt>0</asrwt>
<pdfrwt beam="1">0</pdfrwt>
<pdfrwt beam="2">0</pdfrwt>
<totfact> 0.27019595E+12</totfact>
</mgrwt>
</event>
<event>
 4    1  0.1733759E+006  0.2066525E+01  0.7546771E-02  0.2937223E+00
         22   -1    0    0    0    0  0.00000000000E+00  0.00000000000E+00  0.46528179239E+01  0.46528179239E+01  0.00000000000E+00 0.  1.
         22   -1    0    0    0    0 -0.00000000000E+00 -0.00000000000E+00 -0.91783689628E+00  0.91783689628E+00  0.00000000000E+00 0. -1.
          4    1    1    2  501    0  0.23839406632E+00  0.16126978477E+01  0.18693402823E+01  0.27865676324E+01  0.12700000000E+01 0.  1.
         -4    1    1    2    0  501 -0.23839406632E+00 -0.16126978477E+01  0.18656407453E+01  0.27840871878E+01  0.12700000000E+01 0. -1.
<mgrwt>
<rscale>  0 0.20665251E+01</rscale>
<asrwt>0</asrwt>
<pdfrwt beam="1">0</pdfrwt>
<pdfrwt beam="2">0</pdfrwt>
<totfact> 0.43674583E+12</totfact>
</mgrwt>
</event>
<event>
 4    1  0.1733759E+006  0.3585481E+01  0.7546771E-02  0.2364304E+00
         22   -1    0    0    0    0  0.00000000000E+00  0.00000000000E+00  0.86066112172E+01  0.86066112172E+01  0.00000000000E+00 0.  1.
         22   -1    0    0    0    0 -0.00000000000E+00 -0.00000000000E+00 -0.16020420920E+01  0.16020420920E+01  0.00000000000E+00 0. -1.
          4    1    1    2  501    0 -0.13650585331E+01 -0.30625788195E+01  0.21748745817E+01  0.41935370835E+01  0.12700000000E+01 0. -1.
         -4    1    1    2    0  501  0.13650585331E+01  0.30625788195E+01  0.48296945436E+01  0.60151162257E+01  0.12700000000E+01 0.  1.
<mgrwt>
<rscale>  0 0.35854810E+01</rscale>
<asrwt>0</asrwt>
<pdfrwt beam="1">0</pdfrwt>
<pdfrwt beam="2">0</pdfrwt>
<totfact> 0.11078567E+12</totfact>
</mgrwt>
</event>
<event>
 4    1  0.1733759E+006  0.2654153E+01  0.7546771E-02  0.2644238E+00
         22   -1    0    0    0    0  0.00000000000E+00  0.00000000000E+00  0.23795800902E+01  0.23795800902E+01  0.00000000000E+00 0.  1.
         22   -1    0    0    0    0 -0.00000000000E+00 -0.00000000000E+00 -0.76832165537E+01  0.76832165537E+01  0.00000000000E+00 0. -1.
          4    1    1    2  501    0 -0.13041186564E+01 -0.19315540822E+01 -0.65965489234E+01  0.71104841144E+01  0.12700000000E+01 0. -1.
         -4    1    1    2    0  501  0.13041186564E+01  0.19315540822E+01  0.12929124599E+01  0.29523125294E+01  0.12700000000E+01 0.  1.
<mgrwt>
<rscale>  0 0.26541527E+01</rscale>
<asrwt>0</asrwt>
<pdfrwt beam="1">0</pdfrwt>
<pdfrwt beam="2">0</pdfrwt>
<totfact> 0.80341240E+11</totfact>
</mgrwt>
</event>
<event>
 4    1  0.1733759E+006  0.2491060E+01  0.7546771E-02  0.2712484E+00
         22   -1    0    0    0    0  0.00000000000E+00  0.00000000000E+00  0.26995478116E+00  0.26995478116E+00  0.00000000000E+00 0. -1.
         22   -1    0    0    0    0 -0.00000000000E+00 -0.00000000000E+00 -0.54568988358E+02  0.54568988358E+02  0.00000000000E+00 0.  1.
          4    1    1    2  501    0  0.21319620636E+01  0.21730109412E+00 -0.48009195258E+02  0.48073778833E+02  0.12700000000E+01 0.  1.
         -4    1    1    2    0  501 -0.21319620636E+01 -0.21730109412E+00 -0.62898383186E+01  0.67651643055E+01  0.12700000000E+01 0. -1.
<mgrwt>
<rscale>  0 0.24910604E+01</rscale>
<asrwt>0</asrwt>
<pdfrwt beam="1">0</pdfrwt>
<pdfrwt beam="2">0</pdfrwt>
<totfact> 0.82039385E+11</totfact>
</mgrwt>
</event>
<event>
 4    1  0.1733759E+006  0.2457967E+01  0.7546771E-02  0.2727356E+00
         22   -1    0    0    0    0  0.00000000000E+00  0.00000000000E+00  0.28483076951E+01  0.28483076951E+01  0.00000000000E+00 0. -1.
         22   -1    0    0    0    0 -0.00000000000E+00 -0.00000000000E+00 -0.22151205234E+01  0.22151205234E+01  0.00000000000E+00 0. -1.
          4    1    1    2  501    0  0.85077002998E+00 -0.19248099717E+01 -0.20493796629E+00  0.24664960250E+01  0.12700000000E+01 0. -1.
         -4    1    1    2    0  501 -0.85077002998E+00  0.19248099717E+01  0.83812513792E+00  0.25969321935E+01  0.12700000000E+01 0. -1.
<mgrwt>
<rscale>  0 0.24579673E+01</rscale>
<asrwt>0</asrwt>
<pdfrwt beam="1">0</pdfrwt>
<pdfrwt beam="2">0</pdfrwt>
<totfact> 0.28219429E+12</totfact>
</mgrwt>
</event>
<event>
 4    1  0.1733759E+006  0.2177477E+01  0.7546771E-02  0.2870419E+00
         22   -1    0    0    0    0  0.00000000000E+00  0.00000000000E+00  0.13847778689E+02  0.13847778689E+02  0.00000000000E+00 0.  1.
         22   -1    0    0    0    0 -0.00000000000E+00 -0.00000000000E+00 -0.34541472840E+00  0.34541472840E+00  0.00000000000E+00 0. -1.
          4    1    1    2  501    0  0.12075851579E+01 -0.12923801049E+01  0.60876319265E+01  0.64653438208E+01  0.12700000000E+01 0. -1.
         -4    1    1    2    0  501 -0.12075851579E+01  0.12923801049E+01  0.74147320337E+01  0.77278495962E+01  0.12700000000E+01 0.  1.
<mgrwt>
<rscale>  0 0.21774775E+01</rscale>
<asrwt>0</asrwt>
<pdfrwt beam="1">0</pdfrwt>
<pdfrwt beam="2">0</pdfrwt>
<totfact> 0.35557235E+12</totfact>
</mgrwt>
</event>
<event>
 4    1  0.1733759E+006  0.3198526E+01  0.7546771E-02  0.2462937E+00
         22   -1    0    0    0    0  0.00000000000E+00  0.00000000000E+00  0.23969819847E+02  0.23969819847E+02  0.00000000000E+00 0.  1.
         22   -1    0    0    0    0 -0.00000000000E+00 -0.00000000000E+00 -0.44769624834E+00  0.44769624834E+00  0.00000000000E+00 0. -1.
          4    1    1    2  501    0  0.27696418648E+01 -0.97301174644E+00  0.91240867100E+01  0.96684810705E+01  0.12700000000E+01 0. -1.
         -4    1    1    2    0  501 -0.27696418648E+01  0.97301174644E+00  0.14398036889E+02  0.14749035025E+02  0.12700000000E+01 0.  1.
<mgrwt>
<rscale>  0 0.31985259E+01</rscale>
<asrwt>0</asrwt>
<pdfrwt beam="1">0</pdfrwt>
<pdfrwt beam="2">0</pdfrwt>
<totfact> 0.13436914E+12</totfact>
</mgrwt>
</event>
<event>
 4    1  0.1733759E+006  0.2088448E+01  0.7546771E-02  0.2923479E+00
         22   -1    0    0    0    0  0.00000000000E+00  0.00000000000E+00  0.80286010343E+02  0.80286010343E+02  0.00000000000E+00 0. -1.
         22   -1    0    0    0    0 -0.00000000000E+00 -0.00000000000E+00 -0.59338002618E-01  0.59338002618E-01  0.00000000000E+00 0.  1.
          4    1    1    2  501    0  0.13510250845E+00 -0.16524104621E+01  0.28437916452E+02  0.28514499911E+02  0.12700000000E+01 0.  1.
         -4    1    1    2    0  501 -0.13510250845E+00  0.16524104621E+01  0.51788755888E+02  0.51830848435E+02  0.12700000000E+01 0. -1.
<mgrwt>
<rscale>  0 0.20884475E+01</rscale>
<asrwt>0</asrwt>
<pdfrwt beam="1">0</pdfrwt>
<pdfrwt beam="2">0</pdfrwt>
<totfact> 0.26173855E+12</totfact>
</mgrwt>
</event>
<event>
 4    1  0.1733759E+006  0.2831663E+01  0.7546771E-02  0.2578210E+00
         22   -1    0    0    0    0  0.00000000000E+00  0.00000000000E+00  0.70450040813E+01  0.70450040813E+01  0.00000000000E+00 0.  1.
         22   -1    0    0    0    0 -0.00000000000E+00 -0.00000000000E+00 -0.11522147772E+01  0.11522147772E+01  0.00000000000E+00 0. -1.
          4    1    1    2  501    0  0.41703720551E+00 -0.24962965647E+01  0.24936667917E+01  0.37731539377E+01  0.12700000000E+01 0. -1.
         -4    1    1    2    0  501 -0.41703720551E+00  0.24962965647E+01  0.33991225124E+01  0.44240649208E+01  0.12700000000E+01 0.  1.
<mgrwt>
<rscale>  0 0.28316632E+01</rscale>
<asrwt>0</asrwt>
<pdfrwt beam="1">0</pdfrwt>
<pdfrwt beam="2">0</pdfrwt>
<totfact> 0.20570272E+12</totfact>
</mgrwt>
</event>
<event>
 4    1  0.1733759E+006  0.2255236E+01  0.7546771E-02  0.2827376E+00
         22   -1    0    0    0    0  0.00000000000E+00  0.00000000000E+00  0.10263053433E+02  0.10263053433E+02  0.00000000000E+00 0. -1.
         22   -1    0    0    0    0 -0.00000000000E+00 -0.00000000000E+00 -0.62046152959E+00  0.62046152959E+00  0.00000000000E+00 0.  1.
          4    1    1    2  501    0  0.59007631090E+00 -0.17677666976E+01  0.23798700783E+01  0.32786995500E+01  0.12700000000E+01 0.  1.
         -4    1    1    2    0  501 -0.59007631090E+00  0.17677666976E+01  0.72627218252E+01  0.76048154126E+01  0.12700000000E+01 0. -1.
<mgrwt>
<rscale>  0 0.22552359E+01</rscale>
<asrwt>0</asrwt>
<pdfrwt beam="1">0</pdfrwt>
<pdfrwt beam="2">0</pdfrwt>
<totfact> 0.26460762E+12</totfact>
</mgrwt>
</event>
<event>
 4    1  0.1733759E+006  0.2673016E+01  0.7546771E-02  0.2636841E+00
         22   -1    0    0    0    0  0.00000000000E+00  0.00000000000E+00  0.26169816785E+00  0.26169816785E+00  0.00000000000E+00 0. -1.
         22   -1    0    0    0    0 -0.00000000000E+00 -0.00000000000E+00 -0.43764967588E+02  0.43764967588E+02  0.00000000000E+00 0.  1.
          4    1    1    2  501    0  0.71238784674E+00  0.22415665785E+01 -0.35252755211E+02  0.35353949809E+02  0.12700000000E+01 0.  1.
         -4    1    1    2    0  501 -0.71238784674E+00 -0.22415665785E+01 -0.82505142093E+01  0.86727159464E+01  0.12700000000E+01 0. -1.
<mgrwt>
<rscale>  0 0.26730165E+01</rscale>
<asrwt>0</asrwt>
<pdfrwt beam="1">0</pdfrwt>
<pdfrwt beam="2">0</pdfrwt>
<totfact> 0.11357935E+12</totfact>
</mgrwt>
</event>
<event>
 4    1  0.1733759E+006  0.2110132E+01  0.7546771E-02  0.2910156E+00
         22   -1    0    0    0    0  0.00000000000E+00  0.00000000000E+00  0.55782051471E+01  0.55782051471E+01  0.00000000000E+00 0. -1.
         22   -1    0    0    0    0 -0.00000000000E+00 -0.00000000000E+00 -0.61949352123E+01  0.61949352123E+01  0.00000000000E+00 0. -1.
          4    1    1    2  501    0  0.97804113570E+00 -0.13722946386E+01 -0.58026164944E+01  0.61743837927E+01  0.12700000000E+01 0. -1.
         -4    1    1    2    0  501 -0.97804113570E+00  0.13722946386E+01  0.51858864291E+01  0.55987565668E+01  0.12700000000E+01 0. -1.
<mgrwt>
<rscale>  0 0.21101320E+01</rscale>
<asrwt>0</asrwt>
<pdfrwt beam="1">0</pdfrwt>
<pdfrwt beam="2">0</pdfrwt>
<totfact> 0.38217093E+11</totfact>
</mgrwt>
</event>
<event>
 4    1  0.1733759E+006  0.3129436E+01  0.7546771E-02  0.2482795E+00
         22   -1    0    0    0    0  0.00000000000E+00  0.00000000000E+00  0.39790983112E+01  0.39790983112E+01  0.00000000000E+00 0.  1.
         22   -1    0    0    0    0 -0.00000000000E+00 -0.00000000000E+00 -0.27507284073E+01  0.27507284073E+01  0.00000000000E+00 0. -1.
          4    1    1    2  501    0  0.11263130154E+00  0.28579336645E+01 -0.47748914377E+00  0.31656542014E+01  0.12700000000E+01 0.  1.
         -4    1    1    2    0  501 -0.11263130154E+00 -0.28579336645E+01  0.17058590476E+01  0.35641725170E+01  0.12700000000E+01 0. -1.
<mgrwt>
<rscale>  0 0.31294362E+01</rscale>
<asrwt>0</asrwt>
<pdfrwt beam="1">0</pdfrwt>
<pdfrwt beam="2">0</pdfrwt>
<totfact> 0.14828025E+12</totfact>
</mgrwt>
</event>
<event>
 4    1  0.1733759E+006  0.2372768E+01  0.7546771E-02  0.2767426E+00
         22   -1    0    0    0    0  0.00000000000E+00  0.00000000000E+00  0.27702706477E+02  0.27702706477E+02  0.00000000000E+00 0. -1.
         22   -1    0    0    0    0 -0.00000000000E+00 -0.00000000000E+00 -0.20455791418E+00  0.20455791418E+00  0.00000000000E+00 0. -1.
          4    1    1    2  501    0 -0.19725453813E+01 -0.35523464616E+00  0.12624911207E+02  0.12845949163E+02  0.12700000000E+01 0. -1.
         -4    1    1    2    0  501  0.19725453813E+01  0.35523464616E+00  0.14873237356E+02  0.15061315228E+02  0.12700000000E+01 0. -1.
<mgrwt>
<rscale>  0 0.23727678E+01</rscale>
<asrwt>0</asrwt>
<pdfrwt beam="1">0</pdfrwt>
<pdfrwt beam="2">0</pdfrwt>
<totfact> 0.26936774E+12</totfact>
</mgrwt>
</event>
<event>
 4    1  0.1733759E+006  0.2026507E+01  0.7546771E-02  0.2963059E+00
         22   -1    0    0    0    0  0.00000000000E+00  0.00000000000E+00  0.11923553939E+01  0.11923553939E+01  0.00000000000E+00 0.  1.
         22   -1    0    0    0    0 -0.00000000000E+00 -0.00000000000E+00 -0.34863206635E+01  0.34863206635E+01  0.00000000000E+00 0. -1.
          4    1    1    2  501    0 -0.78869961685E+00  0.13681320603E+01 -0.14040588488E+01  0.24653830678E+01  0.12700000000E+01 0. -1.
         -4    1    1    2    0  501  0.78869961685E+00 -0.13681320603E+01 -0.88990642085E+00  0.22132929896E+01  0.12700000000E+01 0.  1.
<mgrwt>
<rscale>  0 0.20265074E+01</rscale>
<asrwt>0</asrwt>
<pdfrwt beam="1">0</pdfrwt>
<pdfrwt beam="2">0</pdfrwt>
<totfact> 0.45486267E+12</totfact>
</mgrwt>
</event>
<event>
 4    1  0.1733759E+006  0.2291814E+01  0.7546771E-02  0.2808094E+00
         22   -1    0    0    0    0  0.00000000000E+00  0.00000000000E+00  0.12868000575E+01  0.12868000575E+01  0.00000000000E+00 0. -1.
         22   -1    0    0    0    0 -0.00000000000E+00 -0.00000000000E+00 -0.60885067147E+01  0.60885067147E+01  0.00000000000E+00 0.  1.
          4    1    1    2  501    0  0.60453567570E+00  0.18094329189E+01 -0.45179506475E+01  0.50659933798E+01  0.12700000000E+01 0.  1.
         -4    1    1    2    0  501 -0.60453567570E+00 -0.18094329189E+01 -0.28375600981E+00  0.23093133924E+01  0.12700000000E+01 0. -1.
<mgrwt>
<rscale>  0 0.22918139E+01</rscale>
<asrwt>0</asrwt>
<pdfrwt beam="1">0</pdfrwt>
<pdfrwt beam="2">0</pdfrwt>
<totfact> 0.21571436E+12</totfact>
</mgrwt>
</event>
<event>
 4    1  0.1733759E+006  0.3905761E+01  0.7546771E-02  0.2295679E+00
         22   -1    0    0    0    0  0.00000000000E+00  0.00000000000E+00  0.28393324708E+01  0.28393324708E+01  0.00000000000E+00 0.  1.
         22   -1    0    0    0    0 -0.00000000000E+00 -0.00000000000E+00 -0.59871144524E+01  0.59871144524E+01  0.00000000000E+00 0. -1.
          4    1    1    2  501    0 -0.17618893911E+01 -0.32462001642E+01 -0.29876222952E+01  0.49174034522E+01  0.12700000000E+01 0. -1.
         -4    1    1    2    0  501  0.17618893911E+01  0.32462001642E+01 -0.16015968637E+00  0.39090434710E+01  0.12700000000E+01 0.  1.
<mgrwt>
<rscale>  0 0.39057611E+01</rscale>
<asrwt>0</asrwt>
<pdfrwt beam="1">0</pdfrwt>
<pdfrwt beam="2">0</pdfrwt>
<totfact> 0.88120537E+11</totfact>
</mgrwt>
</event>
<event>
 4    1  0.1733759E+006  0.2022756E+01  0.7546771E-02  0.2965532E+00
         22   -1    0    0    0    0  0.00000000000E+00  0.00000000000E+00  0.12917944458E+01  0.12917944458E+01  0.00000000000E+00 0. -1.
         22   -1    0    0    0    0 -0.00000000000E+00 -0.00000000000E+00 -0.34470180381E+01  0.34470180381E+01  0.00000000000E+00 0.  1.
          4    1    1    2  501    0 -0.13488643833E+01 -0.81191615778E+00 -0.17525320961E+01  0.26763616571E+01  0.12700000000E+01 0.  1.
         -4    1    1    2    0  501  0.13488643833E+01  0.81191615778E+00 -0.40269149613E+00  0.20624508268E+01  0.12700000000E+01 0. -1.
<mgrwt>
<rscale>  0 0.20227563E+01</rscale>
<asrwt>0</asrwt>
<pdfrwt beam="1">0</pdfrwt>
<pdfrwt beam="2">0</pdfrwt>
<totfact> 0.42050362E+12</totfact>
</mgrwt>
</event>
<event>
 4    1  0.1733759E+006  0.2955475E+01  0.7546771E-02  0.2536440E+00
         22   -1    0    0    0    0  0.00000000000E+00  0.00000000000E+00  0.23635731048E+02  0.23635731048E+02  0.00000000000E+00 0. -1.
         22   -1    0    0    0    0 -0.00000000000E+00 -0.00000000000E+00 -0.37577935187E+00  0.37577935187E+00  0.00000000000E+00 0.  1.
          4    1    1    2  501    0  0.26685379738E+01  0.28899721858E-01  0.13174454061E+02  0.13501891346E+02  0.12700000000E+01 0. -1.
         -4    1    1    2    0  501 -0.26685379738E+01 -0.28899721858E-01  0.10085497635E+02  0.10509619054E+02  0.12700000000E+01 0.  1.
<mgrwt>
<rscale>  0 0.29554746E+01</rscale>
<asrwt>0</asrwt>
<pdfrwt beam="1">0</pdfrwt>
<pdfrwt beam="2">0</pdfrwt>
<totfact> 0.16657154E+12</totfact>
</mgrwt>
</event>
<event>
 4    1  0.1733759E+006  0.2874777E+01  0.7546771E-02  0.2563296E+00
         22   -1    0    0    0    0  0.00000000000E+00  0.00000000000E+00  0.14426168925E+02  0.14426168925E+02  0.00000000000E+00 0. -1.
         22   -1    0    0    0    0 -0.00000000000E+00 -0.00000000000E+00 -0.10582280292E+01  0.10582280292E+01  0.00000000000E+00 0.  1.
          4    1    1    2  501    0  0.15111934706E+01 -0.20899136158E+01  0.14406669464E+01  0.32155661830E+01  0.12700000000E+01 0.  1.
         -4    1    1    2    0  501 -0.15111934706E+01  0.20899136158E+01  0.11927273949E+02  0.12268830771E+02  0.12700000000E+01 0. -1.
<mgrwt>
<rscale>  0 0.28747773E+01</rscale>
<asrwt>0</asrwt>
<pdfrwt beam="1">0</pdfrwt>
<pdfrwt beam="2">0</pdfrwt>
<totfact> 0.95139812E+11</totfact>
</mgrwt>
</event>
<event>
 4    1  0.1733759E+006  0.2836282E+01  0.7546771E-02  0.2576593E+00
         22   -1    0    0    0    0  0.00000000000E+00  0.00000000000E+00  0.25578477388E+01  0.25578477388E+01  0.00000000000E+00 0.  1.
         22   -1    0    0    0    0 -0.00000000000E+00 -0.00000000000E+00 -0.62319512589E+01  0.62319512589E+01  0.00000000000E+00 0. -1.
          4    1    1    2  501    0 -0.12616980230E+01  0.21999350215E+01 -0.49301949604E+01  0.56878219336E+01  0.12700000000E+01 0. -1.
         -4    1    1    2    0  501  0.12616980230E+01 -0.21999350215E+01  0.12560914403E+01  0.31019770642E+01  0.12700000000E+01 0.  1.
<mgrwt>
<rscale>  0 0.28362821E+01</rscale>
<asrwt>0</asrwt>
<pdfrwt beam="1">0</pdfrwt>
<pdfrwt beam="2">0</pdfrwt>
<totfact> 0.94879632E+11</totfact>
</mgrwt>
</event>
<event>
 4    1  0.1733759E+006  0.2547651E+01  0.7546771E-02  0.2687888E+00
         22   -1    0    0    0    0  0.00000000000E+00  0.00000000000E+00  0.27341327727E+02  0.27341327727E+02  0.00000000000E+00 0.  1.
         22   -1    0    0    0    0 -0.00000000000E+00 -0.00000000000E+00 -0.27065778142E+00  0.27065778142E+00  0.00000000000E+00 0. -1.
          4    1    1    2  501    0  0.20884679553E+01  0.71828004279E+00  0.86949799097E+01  0.90605297996E+01  0.12700000000E+01 0. -1.
         -4    1    1    2    0  501 -0.20884679553E+01 -0.71828004279E+00  0.18375690036E+02  0.18551455709E+02  0.12700000000E+01 0.  1.
<mgrwt>
<rscale>  0 0.25476508E+01</rscale>
<asrwt>0</asrwt>
<pdfrwt beam="1">0</pdfrwt>
<pdfrwt beam="2">0</pdfrwt>
<totfact> 0.20028945E+12</totfact>
</mgrwt>
</event>
<event>
 4    1  0.1733759E+006  0.3797570E+01  0.7546771E-02  0.2317744E+00
         22   -1    0    0    0    0  0.00000000000E+00  0.00000000000E+00  0.45702607668E+01  0.45702607668E+01  0.00000000000E+00 0. -1.
         22   -1    0    0    0    0 -0.00000000000E+00 -0.00000000000E+00 -0.49616306653E+01  0.49616306653E+01  0.00000000000E+00 0.  1.
          4    1    1    2  501    0 -0.14824903578E+01  0.32574319388E+01  0.26797879837E+01  0.46478816825E+01  0.12700000000E+01 0. -1.
         -4    1    1    2    0  501  0.14824903578E+01 -0.32574319388E+01 -0.30711578822E+01  0.48840097496E+01  0.12700000000E+01 0.  1.
<mgrwt>
<rscale>  0 0.37975703E+01</rscale>
<asrwt>0</asrwt>
<pdfrwt beam="1">0</pdfrwt>
<pdfrwt beam="2">0</pdfrwt>
<totfact> 0.62995400E+11</totfact>
</mgrwt>
</event>
<event>
 4    1  0.1733759E+006  0.3818669E+01  0.7546771E-02  0.2313357E+00
         22   -1    0    0    0    0  0.00000000000E+00  0.00000000000E+00  0.12991094940E+01  0.12991094940E+01  0.00000000000E+00 0. -1.
         22   -1    0    0    0    0 -0.00000000000E+00 -0.00000000000E+00 -0.32685513590E+02  0.32685513590E+02  0.00000000000E+00 0.  1.
          4    1    1    2  501    0 -0.92921182022E+00  0.34793533158E+01 -0.29462029692E+02  0.29708474004E+02  0.12700000000E+01 0. -1.
         -4    1    1    2    0  501  0.92921182022E+00 -0.34793533158E+01 -0.19243744037E+01  0.42761490793E+01  0.12700000000E+01 0.  1.
<mgrwt>
<rscale>  0 0.38186692E+01</rscale>
<asrwt>0</asrwt>
<pdfrwt beam="1">0</pdfrwt>
<pdfrwt beam="2">0</pdfrwt>
<totfact> 0.26995981E+11</totfact>
</mgrwt>
</event>
<event>
 4    1  0.1733759E+006  0.4652353E+01  0.7546771E-02  0.2167613E+00
         22   -1    0    0    0    0  0.00000000000E+00  0.00000000000E+00  0.72976767668E+01  0.72976767668E+01  0.00000000000E+00 0. -1.
         22   -1    0    0    0    0 -0.00000000000E+00 -0.00000000000E+00 -0.45603834040E+01  0.45603834040E+01  0.00000000000E+00 0.  1.
          4    1    1    2  501    0  0.43905048913E+01 -0.86888116712E+00 -0.21371691092E+01  0.51197538500E+01  0.12700000000E+01 0.  1.
         -4    1    1    2    0  501 -0.43905048913E+01  0.86888116712E+00  0.48744624719E+01  0.67383063208E+01  0.12700000000E+01 0. -1.
<mgrwt>
<rscale>  0 0.46523529E+01</rscale>
<asrwt>0</asrwt>
<pdfrwt beam="1">0</pdfrwt>
<pdfrwt beam="2">0</pdfrwt>
<totfact> 0.39895681E+11</totfact>
</mgrwt>
</event>
<event>
 4    1  0.1733759E+006  0.2032575E+01  0.7546771E-02  0.2959078E+00
         22   -1    0    0    0    0  0.00000000000E+00  0.00000000000E+00  0.17740306324E+01  0.17740306324E+01  0.00000000000E+00 0. -1.
         22   -1    0    0    0    0 -0.00000000000E+00 -0.00000000000E+00 -0.23322744186E+01  0.23322744186E+01  0.00000000000E+00 0.  1.
          4    1    1    2  501    0 -0.48052540543E+00  0.15124669601E+01 -0.35837706691E+00  0.20639271045E+01  0.12700000000E+01 0.  1.
         -4    1    1    2    0  501  0.48052540543E+00 -0.15124669601E+01 -0.19986671927E+00  0.20423779465E+01  0.12700000000E+01 0. -1.
<mgrwt>
<rscale>  0 0.20325750E+01</rscale>
<asrwt>0</asrwt>
<pdfrwt beam="1">0</pdfrwt>
<pdfrwt beam="2">0</pdfrwt>
<totfact> 0.46042716E+12</totfact>
</mgrwt>
</event>
<event>
 4    1  0.1733759E+006  0.2660425E+01  0.7546771E-02  0.2641768E+00
         22   -1    0    0    0    0  0.00000000000E+00  0.00000000000E+00  0.13011583975E+02  0.13011583975E+02  0.00000000000E+00 0.  1.
         22   -1    0    0    0    0 -0.00000000000E+00 -0.00000000000E+00 -0.12330640862E+01  0.12330640862E+01  0.00000000000E+00 0. -1.
          4    1    1    2  501    0  0.45167583027E+00 -0.22936757232E+01  0.56487528691E+00  0.27197322421E+01  0.12700000000E+01 0. -1.
         -4    1    1    2    0  501 -0.45167583027E+00  0.22936757232E+01  0.11213644602E+02  0.11524915819E+02  0.12700000000E+01 0.  1.
<mgrwt>
<rscale>  0 0.26604247E+01</rscale>
<asrwt>0</asrwt>
<pdfrwt beam="1">0</pdfrwt>
<pdfrwt beam="2">0</pdfrwt>
<totfact> 0.90633613E+11</totfact>
</mgrwt>
</event>
<event>
 4    1  0.1733759E+006  0.2708891E+01  0.7546771E-02  0.2623035E+00
         22   -1    0    0    0    0  0.00000000000E+00  0.00000000000E+00  0.52044489426E+00  0.52044489426E+00  0.00000000000E+00 0.  1.
         22   -1    0    0    0    0 -0.00000000000E+00 -0.00000000000E+00 -0.58905316668E+02  0.58905316668E+02  0.00000000000E+00 0.  1.
          4    1    1    2  501    0 -0.20476454782E+01 -0.12378763934E+01 -0.55106408349E+02  0.55172949269E+02  0.12700000000E+01 0.  1.
         -4    1    1    2    0  501  0.20476454782E+01  0.12378763934E+01 -0.32784634246E+01  0.42528122926E+01  0.12700000000E+01 0.  1.
<mgrwt>
<rscale>  0 0.27088909E+01</rscale>
<asrwt>0</asrwt>
<pdfrwt beam="1">0</pdfrwt>
<pdfrwt beam="2">0</pdfrwt>
<totfact> 0.35413352E+11</totfact>
</mgrwt>
</event>
<event>
 4    1  0.1733759E+006  0.2379032E+01  0.7546771E-02  0.2764388E+00
         22   -1    0    0    0    0  0.00000000000E+00  0.00000000000E+00  0.67222491348E+00  0.67222491348E+00  0.00000000000E+00 0.  1.
         22   -1    0    0    0    0 -0.00000000000E+00 -0.00000000000E+00 -0.84366389954E+01  0.84366389954E+01  0.00000000000E+00 0. -1.
          4    1    1    2  501    0  0.18552806176E+01  0.77770782104E+00 -0.40875030447E+01  0.47294266847E+01  0.12700000000E+01 0.  1.
         -4    1    1    2    0  501 -0.18552806176E+01 -0.77770782104E+00 -0.36769110371E+01  0.43794372241E+01  0.12700000000E+01 0.  1.
<mgrwt>
<rscale>  0 0.23790325E+01</rscale>
<asrwt>0</asrwt>
<pdfrwt beam="1">0</pdfrwt>
<pdfrwt beam="2">0</pdfrwt>
<totfact> 0.30616038E+12</totfact>
</mgrwt>
</event>
<event>
 4    1  0.1733759E+006  0.2260594E+01  0.7546771E-02  0.2824515E+00
         22   -1    0    0    0    0  0.00000000000E+00  0.00000000000E+00  0.50648801757E+01  0.50648801757E+01  0.00000000000E+00 0. -1.
         22   -1    0    0    0    0 -0.00000000000E+00 -0.00000000000E+00 -0.10386021323E+01  0.10386021323E+01  0.00000000000E+00 0. -1.
          4    1    1    2  501    0 -0.43211407713E+00  0.18195226910E+01  0.14976217221E+01  0.27116703748E+01  0.12700000000E+01 0. -1.
         -4    1    1    2    0  501  0.43211407713E+00 -0.18195226910E+01  0.25286563214E+01  0.33918119332E+01  0.12700000000E+01 0. -1.
<mgrwt>
<rscale>  0 0.22605940E+01</rscale>
<asrwt>0</asrwt>
<pdfrwt beam="1">0</pdfrwt>
<pdfrwt beam="2">0</pdfrwt>
<totfact> 0.34306068E+12</totfact>
</mgrwt>
</event>
<event>
 4    1  0.1733759E+006  0.2224653E+01  0.7546771E-02  0.2843962E+00
         22   -1    0    0    0    0  0.00000000000E+00  0.00000000000E+00  0.18320215643E+00  0.18320215643E+00  0.00000000000E+00 0. -1.
         22   -1    0    0    0    0 -0.00000000000E+00 -0.00000000000E+00 -0.27044065372E+02  0.27044065372E+02  0.00000000000E+00 0. -1.
          4    1    1    2  501    0 -0.18060262250E+01  0.27285914955E+00 -0.12978990125E+02  0.13168267445E+02  0.12700000000E+01 0. -1.
         -4    1    1    2    0  501  0.18060262250E+01 -0.27285914955E+00 -0.13881873091E+02  0.14059000084E+02  0.12700000000E+01 0. -1.
<mgrwt>
<rscale>  0 0.22246534E+01</rscale>
<asrwt>0</asrwt>
<pdfrwt beam="1">0</pdfrwt>
<pdfrwt beam="2">0</pdfrwt>
<totfact> 0.31403685E+12</totfact>
</mgrwt>
</event>
<event>
 4    1  0.1733759E+006  0.3245678E+01  0.7546771E-02  0.2449816E+00
         22   -1    0    0    0    0  0.00000000000E+00  0.00000000000E+00  0.30393390442E+01  0.30393390442E+01  0.00000000000E+00 0.  1.
         22   -1    0    0    0    0 -0.00000000000E+00 -0.00000000000E+00 -0.37095634572E+01  0.37095634572E+01  0.00000000000E+00 0. -1.
          4    1    1    2  501    0 -0.24749136959E+01  0.16722220421E+01  0.52950873783E+00  0.32885869099E+01  0.12700000000E+01 0.  1.
         -4    1    1    2    0  501  0.24749136959E+01 -0.16722220421E+01 -0.11997331508E+01  0.34603155916E+01  0.12700000000E+01 0.  1.
<mgrwt>
<rscale>  0 0.32456778E+01</rscale>
<asrwt>0</asrwt>
<pdfrwt beam="1">0</pdfrwt>
<pdfrwt beam="2">0</pdfrwt>
<totfact> 0.14332338E+12</totfact>
</mgrwt>
</event>
<event>
 4    1  0.1733759E+006  0.2331540E+01  0.7546771E-02  0.2787804E+00
         22   -1    0    0    0    0  0.00000000000E+00  0.00000000000E+00  0.22100170848E+01  0.22100170848E+01  0.00000000000E+00 0.  1.
         22   -1    0    0    0    0 -0.00000000000E+00 -0.00000000000E+00 -0.32460490692E+01  0.32460490692E+01  0.00000000000E+00 0. -1.
          4    1    1    2  501    0  0.18791212927E+01  0.54044817052E+00  0.82464703583E+00  0.24730798191E+01  0.12700000000E+01 0.  1.
         -4    1    1    2    0  501 -0.18791212927E+01 -0.54044817052E+00 -0.18606790202E+01  0.29829863349E+01  0.12700000000E+01 0. -1.
<mgrwt>
<rscale>  0 0.23315405E+01</rscale>
<asrwt>0</asrwt>
<pdfrwt beam="1">0</pdfrwt>
<pdfrwt beam="2">0</pdfrwt>
<totfact> 0.24286567E+12</totfact>
</mgrwt>
</event>
<event>
 4    1  0.1733759E+006  0.2285919E+01  0.7546771E-02  0.2811162E+00
         22   -1    0    0    0    0  0.00000000000E+00  0.00000000000E+00  0.40733544760E+01  0.40733544760E+01  0.00000000000E+00 0.  1.
         22   -1    0    0    0    0 -0.00000000000E+00 -0.00000000000E+00 -0.22986480011E+01  0.22986480011E+01  0.00000000000E+00 0. -1.
          4    1    1    2  501    0 -0.67436109334E+00 -0.17770090279E+01 -0.12306056127E+01  0.25961152022E+01  0.12700000000E+01 0. -1.
         -4    1    1    2    0  501  0.67436109334E+00  0.17770090279E+01  0.30053120876E+01  0.37758872749E+01  0.12700000000E+01 0.  1.
<mgrwt>
<rscale>  0 0.22859186E+01</rscale>
<asrwt>0</asrwt>
<pdfrwt beam="1">0</pdfrwt>
<pdfrwt beam="2">0</pdfrwt>
<totfact> 0.17774970E+12</totfact>
</mgrwt>
</event>
<event>
 4    1  0.1733759E+006  0.3431575E+01  0.7546771E-02  0.2401197E+00
         22   -1    0    0    0    0  0.00000000000E+00  0.00000000000E+00  0.18031023082E+01  0.18031023082E+01  0.00000000000E+00 0. -1.
         22   -1    0    0    0    0 -0.00000000000E+00 -0.00000000000E+00 -0.77208813416E+01  0.77208813416E+01  0.00000000000E+00 0.  1.
          4    1    1    2  501    0  0.22135852822E+01 -0.22940889626E+01 -0.48284657735E+01  0.59236631990E+01  0.12700000000E+01 0.  1.
         -4    1    1    2    0  501 -0.22135852822E+01  0.22940889626E+01 -0.10893132599E+01  0.36003204507E+01  0.12700000000E+01 0. -1.
<mgrwt>
<rscale>  0 0.34315746E+01</rscale>
<asrwt>0</asrwt>
<pdfrwt beam="1">0</pdfrwt>
<pdfrwt beam="2">0</pdfrwt>
<totfact> 0.11014270E+12</totfact>
</mgrwt>
</event>
<event>
 4    1  0.1733759E+006  0.2495690E+01  0.7546771E-02  0.2710433E+00
         22   -1    0    0    0    0  0.00000000000E+00  0.00000000000E+00  0.54949951906E+01  0.54949951906E+01  0.00000000000E+00 0. -1.
         22   -1    0    0    0    0 -0.00000000000E+00 -0.00000000000E+00 -0.11375633587E+01  0.11375633587E+01  0.00000000000E+00 0.  1.
          4    1    1    2  501    0 -0.12598249660E+01 -0.17402326938E+01  0.23773969177E+01  0.34468079259E+01  0.12700000000E+01 0.  1.
         -4    1    1    2    0  501  0.12598249660E+01  0.17402326938E+01  0.19800349142E+01  0.31857506235E+01  0.12700000000E+01 0. -1.
<mgrwt>
<rscale>  0 0.24956900E+01</rscale>
<asrwt>0</asrwt>
<pdfrwt beam="1">0</pdfrwt>
<pdfrwt beam="2">0</pdfrwt>
<totfact> 0.28067345E+12</totfact>
</mgrwt>
</event>
<event>
 4    1  0.1733759E+006  0.2387891E+01  0.7546771E-02  0.2760118E+00
         22   -1    0    0    0    0  0.00000000000E+00  0.00000000000E+00  0.11877616280E+01  0.11877616280E+01  0.00000000000E+00 0. -1.
         22   -1    0    0    0    0 -0.00000000000E+00 -0.00000000000E+00 -0.48469594587E+01  0.48469594587E+01  0.00000000000E+00 0.  1.
          4    1    1    2  501    0  0.14830773402E+01 -0.13746292628E+01 -0.21245449575E+01  0.31962032607E+01  0.12700000000E+01 0. -1.
         -4    1    1    2    0  501 -0.14830773402E+01  0.13746292628E+01 -0.15346528733E+01  0.28385178260E+01  0.12700000000E+01 0. -1.
<mgrwt>
<rscale>  0 0.23878911E+01</rscale>
<asrwt>0</asrwt>
<pdfrwt beam="1">0</pdfrwt>
<pdfrwt beam="2">0</pdfrwt>
<totfact> 0.30996151E+12</totfact>
</mgrwt>
</event>
<event>
 4    1  0.1733759E+006  0.2393155E+01  0.7546771E-02  0.2757594E+00
         22   -1    0    0    0    0  0.00000000000E+00  0.00000000000E+00  0.13263990210E+00  0.13263990210E+00  0.00000000000E+00 0.  1.
         22   -1    0    0    0    0 -0.00000000000E+00 -0.00000000000E+00 -0.52121288271E+02  0.52121288271E+02  0.00000000000E+00 0. -1.
          4    1    1    2  501    0 -0.15691916114E+01  0.12852746297E+01 -0.36816576044E+02  0.36894274147E+02  0.12700000000E+01 0.  1.
         -4    1    1    2    0  501  0.15691916114E+01 -0.12852746297E+01 -0.15172072325E+02  0.15359654026E+02  0.12700000000E+01 0. -1.
<mgrwt>
<rscale>  0 0.23931555E+01</rscale>
<asrwt>0</asrwt>
<pdfrwt beam="1">0</pdfrwt>
<pdfrwt beam="2">0</pdfrwt>
<totfact> 0.19253463E+12</totfact>
</mgrwt>
</event>
<event>
 4    1  0.1733759E+006  0.2089713E+01  0.7546771E-02  0.2922694E+00
         22   -1    0    0    0    0  0.00000000000E+00  0.00000000000E+00  0.78633586968E+00  0.78633586968E+00  0.00000000000E+00 0.  1.
         22   -1    0    0    0    0 -0.00000000000E+00 -0.00000000000E+00 -0.69447230850E+01  0.69447230850E+01  0.00000000000E+00 0.  1.
          4    1    1    2  501    0  0.16539756465E+01 -0.13552034985E+00 -0.48093401828E+01  0.52437252215E+01  0.12700000000E+01 0.  1.
         -4    1    1    2    0  501 -0.16539756465E+01  0.13552034985E+00 -0.13490470325E+01  0.24873337332E+01  0.12700000000E+01 0.  1.
<mgrwt>
<rscale>  0 0.20897132E+01</rscale>
<asrwt>0</asrwt>
<pdfrwt beam="1">0</pdfrwt>
<pdfrwt beam="2">0</pdfrwt>
<totfact> 0.32357369E+12</totfact>
</mgrwt>
</event>
<event>
 4    1  0.1733759E+006  0.2016970E+01  0.7546771E-02  0.2969364E+00
         22   -1    0    0    0    0  0.00000000000E+00  0.00000000000E+00  0.65154540716E+01  0.65154540716E+01  0.00000000000E+00 0.  1.
         22   -1    0    0    0    0 -0.00000000000E+00 -0.00000000000E+00 -0.13285986426E+01  0.13285986426E+01  0.00000000000E+00 0.  1.
          4    1    1    2  501    0 -0.82782706030E-01  0.15647414166E+01 -0.26195958639E+00  0.20339103968E+01  0.12700000000E+01 0.  1.
         -4    1    1    2    0  501  0.82782706030E-01 -0.15647414166E+01  0.54488150153E+01  0.58101423174E+01  0.12700000000E+01 0.  1.
<mgrwt>
<rscale>  0 0.20169702E+01</rscale>
<asrwt>0</asrwt>
<pdfrwt beam="1">0</pdfrwt>
<pdfrwt beam="2">0</pdfrwt>
<totfact> 0.19179064E+12</totfact>
</mgrwt>
</event>
<event>
 4    1  0.1733759E+006  0.4198181E+01  0.7546771E-02  0.2240940E+00
         22   -1    0    0    0    0  0.00000000000E+00  0.00000000000E+00  0.51660284857E+02  0.51660284857E+02  0.00000000000E+00 0. -1.
         22   -1    0    0    0    0 -0.00000000000E+00 -0.00000000000E+00 -0.39481757373E+00  0.39481757373E+00  0.00000000000E+00 0.  1.
          4    1    1    2  501    0 -0.22553080259E+01  0.33053607435E+01  0.16038130965E+02  0.16578491150E+02  0.12700000000E+01 0.  1.
         -4    1    1    2    0  501  0.22553080259E+01 -0.33053607435E+01  0.35227336318E+02  0.35476611281E+02  0.12700000000E+01 0. -1.
<mgrwt>
<rscale>  0 0.41981810E+01</rscale>
<asrwt>0</asrwt>
<pdfrwt beam="1">0</pdfrwt>
<pdfrwt beam="2">0</pdfrwt>
<totfact> 0.57574318E+11</totfact>
</mgrwt>
</event>
<event>
 4    1  0.1733759E+006  0.3269569E+01  0.7546771E-02  0.2443296E+00
         22   -1    0    0    0    0  0.00000000000E+00  0.00000000000E+00  0.15155394157E+01  0.15155394157E+01  0.00000000000E+00 0. -1.
         22   -1    0    0    0    0 -0.00000000000E+00 -0.00000000000E+00 -0.70538114555E+01  0.70538114555E+01  0.00000000000E+00 0.  1.
          4    1    1    2  501    0 -0.24849451615E+01  0.17035932000E+01 -0.27485387019E+01  0.42713636280E+01  0.12700000000E+01 0. -1.
         -4    1    1    2    0  501  0.24849451615E+01 -0.17035932000E+01 -0.27897333379E+01  0.42979872433E+01  0.12700000000E+01 0.  1.
<mgrwt>
<rscale>  0 0.32695691E+01</rscale>
<asrwt>0</asrwt>
<pdfrwt beam="1">0</pdfrwt>
<pdfrwt beam="2">0</pdfrwt>
<totfact> 0.14995611E+12</totfact>
</mgrwt>
</event>
<event>
 4    1  0.1733759E+006  0.3078110E+01  0.7546771E-02  0.2498059E+00
         22   -1    0    0    0    0  0.00000000000E+00  0.00000000000E+00  0.81955456887E+01  0.81955456887E+01  0.00000000000E+00 0. -1.
         22   -1    0    0    0    0 -0.00000000000E+00 -0.00000000000E+00 -0.11746874195E+01  0.11746874195E+01  0.00000000000E+00 0.  1.
          4    1    1    2  501    0  0.11917777791E+01  0.25380160003E+01  0.40999874731E+01  0.51268564220E+01  0.12700000000E+01 0. -1.
         -4    1    1    2    0  501 -0.11917777791E+01 -0.25380160003E+01  0.29208707961E+01  0.42433766861E+01  0.12700000000E+01 0.  1.
<mgrwt>
<rscale>  0 0.30781097E+01</rscale>
<asrwt>0</asrwt>
<pdfrwt beam="1">0</pdfrwt>
<pdfrwt beam="2">0</pdfrwt>
<totfact> 0.16781943E+12</totfact>
</mgrwt>
</event>
<event>
 4    1  0.1733759E+006  0.2379137E+01  0.7546771E-02  0.2764338E+00
         22   -1    0    0    0    0  0.00000000000E+00  0.00000000000E+00  0.64652379352E+00  0.64652379352E+00  0.00000000000E+00 0. -1.
         22   -1    0    0    0    0 -0.00000000000E+00 -0.00000000000E+00 -0.10264715924E+02  0.10264715924E+02  0.00000000000E+00 0.  1.
          4    1    1    2  501    0  0.85995800343E+00  0.18187533379E+01 -0.69013946785E+01  0.72999684917E+01  0.12700000000E+01 0. -1.
         -4    1    1    2    0  501 -0.85995800343E+00 -0.18187533379E+01 -0.27167974523E+01  0.36112712261E+01  0.12700000000E+01 0. -1.
<mgrwt>
<rscale>  0 0.23791367E+01</rscale>
<asrwt>0</asrwt>
<pdfrwt beam="1">0</pdfrwt>
<pdfrwt beam="2">0</pdfrwt>
<totfact> 0.25250666E+12</totfact>
</mgrwt>
</event>
<event>
 4    1  0.1733759E+006  0.2021263E+01  0.7546771E-02  0.2966519E+00
         22   -1    0    0    0    0  0.00000000000E+00  0.00000000000E+00  0.70195645652E+01  0.70195645652E+01  0.00000000000E+00 0.  1.
         22   -1    0    0    0    0 -0.00000000000E+00 -0.00000000000E+00 -0.61042720373E+00  0.61042720373E+00  0.00000000000E+00 0.  1.
          4    1    1    2  501    0  0.15663476086E+01 -0.13842340682E+00  0.23815411738E+01  0.31236587895E+01  0.12700000000E+01 0.  1.
         -4    1    1    2    0  501 -0.15663476086E+01  0.13842340682E+00  0.40275961876E+01  0.45063329794E+01  0.12700000000E+01 0.  1.
<mgrwt>
<rscale>  0 0.20212634E+01</rscale>
<asrwt>0</asrwt>
<pdfrwt beam="1">0</pdfrwt>
<pdfrwt beam="2">0</pdfrwt>
<totfact> 0.42580458E+12</totfact>
</mgrwt>
</event>
<event>
 4    1  0.1733759E+006  0.2092799E+01  0.7546771E-02  0.2920783E+00
         22   -1    0    0    0    0  0.00000000000E+00  0.00000000000E+00  0.16013048465E+01  0.16013048465E+01  0.00000000000E+00 0. -1.
         22   -1    0    0    0    0 -0.00000000000E+00 -0.00000000000E+00 -0.27720339521E+01  0.27720339521E+01  0.00000000000E+00 0. -1.
          4    1    1    2  501    0  0.12359584303E+01  0.11132457854E+01 -0.83759694225E+00  0.22541912204E+01  0.12700000000E+01 0. -1.
         -4    1    1    2    0  501 -0.12359584303E+01 -0.11132457854E+01 -0.33313216331E+00  0.21191475783E+01  0.12700000000E+01 0. -1.
<mgrwt>
<rscale>  0 0.20927994E+01</rscale>
<asrwt>0</asrwt>
<pdfrwt beam="1">0</pdfrwt>
<pdfrwt beam="2">0</pdfrwt>
<totfact> 0.42381967E+12</totfact>
</mgrwt>
</event>
<event>
 4    1  0.1733759E+006  0.3622958E+01  0.7546771E-02  0.2355734E+00
         22   -1    0    0    0    0  0.00000000000E+00  0.00000000000E+00  0.51488386212E+00  0.51488386212E+00  0.00000000000E+00 0. -1.
         22   -1    0    0    0    0 -0.00000000000E+00 -0.00000000000E+00 -0.33725223214E+02  0.33725223214E+02  0.00000000000E+00 0.  1.
          4    1    1    2  501    0 -0.31739948338E+01 -0.11994513225E+01 -0.25063639107E+02  0.25324135364E+02  0.12700000000E+01 0.  1.
         -4    1    1    2    0  501  0.31739948338E+01  0.11994513225E+01 -0.81467002450E+01  0.89159717116E+01  0.12700000000E+01 0. -1.
<mgrwt>
<rscale>  0 0.36229583E+01</rscale>
<asrwt>0</asrwt>
<pdfrwt beam="1">0</pdfrwt>
<pdfrwt beam="2">0</pdfrwt>
<totfact> 0.74361362E+11</totfact>
</mgrwt>
</event>
<event>
 4    1  0.1733759E+006  0.3489845E+01  0.7546771E-02  0.2386896E+00
         22   -1    0    0    0    0  0.00000000000E+00  0.00000000000E+00  0.52723251220E+01  0.52723251220E+01  0.00000000000E+00 0.  1.
         22   -1    0    0    0    0 -0.00000000000E+00 -0.00000000000E+00 -0.22807398294E+02  0.22807398294E+02  0.00000000000E+00 0. -1.
          4    1    1    2  501    0 -0.15254834557E+01  0.28703695370E+01 -0.22077425386E+02  0.22351548777E+02  0.12700000000E+01 0. -1.
         -4    1    1    2    0  501  0.15254834557E+01 -0.28703695370E+01  0.45423522144E+01  0.57281746387E+01  0.12700000000E+01 0.  1.
<mgrwt>
<rscale>  0 0.34898454E+01</rscale>
<asrwt>0</asrwt>
<pdfrwt beam="1">0</pdfrwt>
<pdfrwt beam="2">0</pdfrwt>
<totfact> 0.83289772E+10</totfact>
</mgrwt>
</event>
<event>
 4    1  0.1733759E+006  0.2222232E+01  0.7546771E-02  0.2845294E+00
         22   -1    0    0    0    0  0.00000000000E+00  0.00000000000E+00  0.18791296429E+02  0.18791296429E+02  0.00000000000E+00 0.  1.
         22   -1    0    0    0    0 -0.00000000000E+00 -0.00000000000E+00 -0.28462056361E+00  0.28462056361E+00  0.00000000000E+00 0. -1.
          4    1    1    2  501    0 -0.11265755647E+01 -0.14339607938E+01  0.66122997740E+01  0.69757310988E+01  0.12700000000E+01 0.  1.
         -4    1    1    2    0  501  0.11265755647E+01  0.14339607938E+01  0.11894376091E+02  0.12100185893E+02  0.12700000000E+01 0. -1.
<mgrwt>
<rscale>  0 0.22222322E+01</rscale>
<asrwt>0</asrwt>
<pdfrwt beam="1">0</pdfrwt>
<pdfrwt beam="2">0</pdfrwt>
<totfact> 0.30308882E+12</totfact>
</mgrwt>
</event>
<event>
 4    1  0.1733759E+006  0.4026506E+01  0.7546771E-02  0.2272256E+00
         22   -1    0    0    0    0  0.00000000000E+00  0.00000000000E+00  0.54123460558E+01  0.54123460558E+01  0.00000000000E+00 0. -1.
         22   -1    0    0    0    0 -0.00000000000E+00 -0.00000000000E+00 -0.11926608244E+02  0.11926608244E+02  0.00000000000E+00 0.  1.
          4    1    1    2  501    0 -0.22564657468E+00  0.38143060075E+01 -0.10759299656E+02  0.11488049259E+02  0.12700000000E+01 0.  1.
         -4    1    1    2    0  501  0.22564657468E+00 -0.38143060075E+01  0.42450374675E+01  0.58509050408E+01  0.12700000000E+01 0. -1.
<mgrwt>
<rscale>  0 0.40265055E+01</rscale>
<asrwt>0</asrwt>
<pdfrwt beam="1">0</pdfrwt>
<pdfrwt beam="2">0</pdfrwt>
<totfact> 0.17995227E+11</totfact>
</mgrwt>
</event>
<event>
 4    1  0.1733759E+006  0.2206319E+01  0.7546771E-02  0.2854115E+00
         22   -1    0    0    0    0  0.00000000000E+00  0.00000000000E+00  0.42661743324E+00  0.42661743324E+00  0.00000000000E+00 0. -1.
         22   -1    0    0    0    0 -0.00000000000E+00 -0.00000000000E+00 -0.16255444253E+02  0.16255444253E+02  0.00000000000E+00 0.  1.
          4    1    1    2  501    0  0.44756645870E+00 -0.17477495314E+01 -0.12468197951E+02  0.12661903660E+02  0.12700000000E+01 0.  1.
         -4    1    1    2    0  501 -0.44756645870E+00  0.17477495314E+01 -0.33606288691E+01  0.40201580261E+01  0.12700000000E+01 0. -1.
<mgrwt>
<rscale>  0 0.22063191E+01</rscale>
<asrwt>0</asrwt>
<pdfrwt beam="1">0</pdfrwt>
<pdfrwt beam="2">0</pdfrwt>
<totfact> 0.23019495E+12</totfact>
</mgrwt>
</event>
<event>
 4    1  0.1733759E+006  0.2703167E+01  0.7546771E-02  0.2625215E+00
         22   -1    0    0    0    0  0.00000000000E+00  0.00000000000E+00  0.16242123688E+02  0.16242123688E+02  0.00000000000E+00 0.  1.
         22   -1    0    0    0    0 -0.00000000000E+00 -0.00000000000E+00 -0.57697517297E+00  0.57697517297E+00  0.00000000000E+00 0. -1.
          4    1    1    2  501    0 -0.10032551102E+01 -0.21651077079E+01  0.38857518559E+01  0.47335166302E+01  0.12700000000E+01 0. -1.
         -4    1    1    2    0  501  0.10032551102E+01  0.21651077079E+01  0.11779396659E+02  0.12085582231E+02  0.12700000000E+01 0.  1.
<mgrwt>
<rscale>  0 0.27031671E+01</rscale>
<asrwt>0</asrwt>
<pdfrwt beam="1">0</pdfrwt>
<pdfrwt beam="2">0</pdfrwt>
<totfact> 0.16387373E+12</totfact>
</mgrwt>
</event>
<event>
 4    1  0.1733759E+006  0.3189553E+01  0.7546771E-02  0.2465473E+00
         22   -1    0    0    0    0  0.00000000000E+00  0.00000000000E+00  0.16965665912E+02  0.16965665912E+02  0.00000000000E+00 0. -1.
         22   -1    0    0    0    0 -0.00000000000E+00 -0.00000000000E+00 -0.60305121024E+00  0.60305121024E+00  0.00000000000E+00 0.  1.
          4    1    1    2  501    0  0.15845154695E+01 -0.24596059715E+01  0.75203988223E+01  0.81688217788E+01  0.12700000000E+01 0. -1.
         -4    1    1    2    0  501 -0.15845154695E+01  0.24596059715E+01  0.88422158798E+01  0.93998953437E+01  0.12700000000E+01 0.  1.
<mgrwt>
<rscale>  0 0.31895534E+01</rscale>
<asrwt>0</asrwt>
<pdfrwt beam="1">0</pdfrwt>
<pdfrwt beam="2">0</pdfrwt>
<totfact> 0.14770156E+12</totfact>
</mgrwt>
</event>
<event>
 4    1  0.1733759E+006  0.2181940E+01  0.7546771E-02  0.2867869E+00
         22   -1    0    0    0    0  0.00000000000E+00  0.00000000000E+00  0.13518448676E+01  0.13518448676E+01  0.00000000000E+00 0.  1.
         22   -1    0    0    0    0 -0.00000000000E+00 -0.00000000000E+00 -0.76991579624E+01  0.76991579624E+01  0.00000000000E+00 0. -1.
          4    1    1    2  501    0 -0.17733599938E+01  0.56192577627E-01 -0.65071407108E+01  0.68632167024E+01  0.12700000000E+01 0. -1.
         -4    1    1    2    0  501  0.17733599938E+01 -0.56192577627E-01  0.15982761591E+00  0.21877861276E+01  0.12700000000E+01 0.  1.
<mgrwt>
<rscale>  0 0.21819403E+01</rscale>
<asrwt>0</asrwt>
<pdfrwt beam="1">0</pdfrwt>
<pdfrwt beam="2">0</pdfrwt>
<totfact> 0.15397367E+12</totfact>
</mgrwt>
</event>
<event>
 4    1  0.1733759E+006  0.3350994E+01  0.7546771E-02  0.2421690E+00
         22   -1    0    0    0    0  0.00000000000E+00  0.00000000000E+00  0.75518476347E+01  0.75518476347E+01  0.00000000000E+00 0. -1.
         22   -1    0    0    0    0 -0.00000000000E+00 -0.00000000000E+00 -0.43029141466E+01  0.43029141466E+01  0.00000000000E+00 0.  1.
          4    1    1    2  501    0  0.24293929775E+01 -0.19272541436E+01 -0.31706112910E+01  0.46132347362E+01  0.12700000000E+01 0.  1.
         -4    1    1    2    0  501 -0.24293929775E+01  0.19272541436E+01  0.64195447791E+01  0.72415270450E+01  0.12700000000E+01 0. -1.
<mgrwt>
<rscale>  0 0.33509937E+01</rscale>
<asrwt>0</asrwt>
<pdfrwt beam="1">0</pdfrwt>
<pdfrwt beam="2">0</pdfrwt>
<totfact> 0.41009709E+11</totfact>
</mgrwt>
</event>
<event>
 4    1  0.1733759E+006  0.2666923E+01  0.7546771E-02  0.2639220E+00
         22   -1    0    0    0    0  0.00000000000E+00  0.00000000000E+00  0.31722136171E+02  0.31722136171E+02  0.00000000000E+00 0. -1.
         22   -1    0    0    0    0 -0.00000000000E+00 -0.00000000000E+00 -0.42051785761E+00  0.42051785761E+00  0.00000000000E+00 0.  1.
          4    1    1    2  501    0 -0.22583914122E+01  0.63185847355E+00  0.46702013722E+01  0.53780347487E+01  0.12700000000E+01 0.  1.
         -4    1    1    2    0  501  0.22583914122E+01 -0.63185847355E+00  0.26631416941E+02  0.26764619280E+02  0.12700000000E+01 0. -1.
<mgrwt>
<rscale>  0 0.26669227E+01</rscale>
<asrwt>0</asrwt>
<pdfrwt beam="1">0</pdfrwt>
<pdfrwt beam="2">0</pdfrwt>
<totfact> 0.10106238E+12</totfact>
</mgrwt>
</event>
<event>
 4    1  0.1733759E+006  0.2260957E+01  0.7546771E-02  0.2824321E+00
         22   -1    0    0    0    0  0.00000000000E+00  0.00000000000E+00  0.33805931825E+01  0.33805931825E+01  0.00000000000E+00 0. -1.
         22   -1    0    0    0    0 -0.00000000000E+00 -0.00000000000E+00 -0.15847323789E+01  0.15847323789E+01  0.00000000000E+00 0.  1.
          4    1    1    2  501    0 -0.14856509224E+01  0.11366038028E+01  0.36657119686E+00  0.22904805850E+01  0.12700000000E+01 0. -1.
         -4    1    1    2    0  501  0.14856509224E+01 -0.11366038028E+01  0.14292896068E+01  0.26748449764E+01  0.12700000000E+01 0.  1.
<mgrwt>
<rscale>  0 0.22609571E+01</rscale>
<asrwt>0</asrwt>
<pdfrwt beam="1">0</pdfrwt>
<pdfrwt beam="2">0</pdfrwt>
<totfact> 0.34014095E+12</totfact>
</mgrwt>
</event>
<event>
 4    1  0.1733759E+006  0.2615752E+01  0.7546771E-02  0.2659598E+00
         22   -1    0    0    0    0  0.00000000000E+00  0.00000000000E+00  0.63030671769E+01  0.63030671769E+01  0.00000000000E+00 0.  1.
         22   -1    0    0    0    0 -0.00000000000E+00 -0.00000000000E+00 -0.11937809594E+01  0.11937809594E+01  0.00000000000E+00 0.  1.
          4    1    1    2  501    0  0.80256450876E+00  0.21412959051E+01  0.36834135662E+01  0.45177088711E+01  0.12700000000E+01 0.  1.
         -4    1    1    2    0  501 -0.80256450876E+00 -0.21412959051E+01  0.14258726512E+01  0.29791392652E+01  0.12700000000E+01 0.  1.
<mgrwt>
<rscale>  0 0.26157519E+01</rscale>
<asrwt>0</asrwt>
<pdfrwt beam="1">0</pdfrwt>
<pdfrwt beam="2">0</pdfrwt>
<totfact> 0.22559419E+12</totfact>
</mgrwt>
</event>
<event>
 4    1  0.1733759E+006  0.2111558E+01  0.7546771E-02  0.2909289E+00
         22   -1    0    0    0    0  0.00000000000E+00  0.00000000000E+00  0.89770723148E-01  0.89770723148E-01  0.00000000000E+00 0. -1.
         22   -1    0    0    0    0 -0.00000000000E+00 -0.00000000000E+00 -0.52440969323E+02  0.52440969323E+02  0.00000000000E+00 0.  1.
          4    1    1    2  501    0 -0.18002895153E+00 -0.16773097526E+01 -0.20135171915E+02  0.20245587827E+02  0.12700000000E+01 0. -1.
         -4    1    1    2    0  501  0.18002895153E+00  0.16773097526E+01 -0.32216026685E+02  0.32285152218E+02  0.12700000000E+01 0.  1.
<mgrwt>
<rscale>  0 0.21115583E+01</rscale>
<asrwt>0</asrwt>
<pdfrwt beam="1">0</pdfrwt>
<pdfrwt beam="2">0</pdfrwt>
<totfact> 0.29431881E+12</totfact>
</mgrwt>
</event>
<event>
 4    1  0.1733759E+006  0.3667603E+01  0.7546771E-02  0.2345724E+00
         22   -1    0    0    0    0  0.00000000000E+00  0.00000000000E+00  0.93865476084E+01  0.93865476084E+01  0.00000000000E+00 0. -1.
         22   -1    0    0    0    0 -0.00000000000E+00 -0.00000000000E+00 -0.17528503491E+01  0.17528503491E+01  0.00000000000E+00 0.  1.
          4    1    1    2  501    0 -0.26251768402E+00 -0.34306694770E+01  0.14377918471E+01  0.39393595914E+01  0.12700000000E+01 0.  1.
         -4    1    1    2    0  501  0.26251768402E+00  0.34306694770E+01  0.61959054122E+01  0.72000383660E+01  0.12700000000E+01 0. -1.
<mgrwt>
<rscale>  0 0.36676026E+01</rscale>
<asrwt>0</asrwt>
<pdfrwt beam="1">0</pdfrwt>
<pdfrwt beam="2">0</pdfrwt>
<totfact> 0.89946319E+11</totfact>
</mgrwt>
</event>
<event>
 4    1  0.1733759E+006  0.2494368E+01  0.7546771E-02  0.2711018E+00
         22   -1    0    0    0    0  0.00000000000E+00  0.00000000000E+00  0.18816260866E+02  0.18816260866E+02  0.00000000000E+00 0.  1.
         22   -1    0    0    0    0 -0.00000000000E+00 -0.00000000000E+00 -0.73353193935E+00  0.73353193935E+00  0.00000000000E+00 0. -1.
          4    1    1    2  501    0  0.17335815722E+01 -0.12663596250E+01  0.17972772894E+01  0.30744231040E+01  0.12700000000E+01 0. -1.
         -4    1    1    2    0  501 -0.17335815722E+01  0.12663596250E+01  0.16285451638E+02  0.16475369702E+02  0.12700000000E+01 0.  1.
<mgrwt>
<rscale>  0 0.24943680E+01</rscale>
<asrwt>0</asrwt>
<pdfrwt beam="1">0</pdfrwt>
<pdfrwt beam="2">0</pdfrwt>
<totfact> 0.10402221E+12</totfact>
</mgrwt>
</event>
<event>
 4    1  0.1733759E+006  0.2179191E+01  0.7546771E-02  0.2869439E+00
         22   -1    0    0    0    0  0.00000000000E+00  0.00000000000E+00  0.15264371811E+01  0.15264371811E+01  0.00000000000E+00 0. -1.
         22   -1    0    0    0    0 -0.00000000000E+00 -0.00000000000E+00 -0.31254085625E+01  0.31254085625E+01  0.00000000000E+00 0.  1.
          4    1    1    2  501    0 -0.13557748520E+01 -0.11392315944E+01 -0.95695094552E+00  0.23800481481E+01  0.12700000000E+01 0.  1.
         -4    1    1    2    0  501  0.13557748520E+01  0.11392315944E+01 -0.64202043580E+00  0.22717975955E+01  0.12700000000E+01 0. -1.
<mgrwt>
<rscale>  0 0.21791912E+01</rscale>
<asrwt>0</asrwt>
<pdfrwt beam="1">0</pdfrwt>
<pdfrwt beam="2">0</pdfrwt>
<totfact> 0.38930714E+12</totfact>
</mgrwt>
</event>
<event>
 4    1  0.1733759E+006  0.2324461E+01  0.7546771E-02  0.2791371E+00
         22   -1    0    0    0    0  0.00000000000E+00  0.00000000000E+00  0.19453899906E+02  0.19453899906E+02  0.00000000000E+00 0. -1.
         22   -1    0    0    0    0 -0.00000000000E+00 -0.00000000000E+00 -0.11286952262E+01  0.11286952262E+01  0.00000000000E+00 0.  1.
          4    1    1    2  501    0 -0.54666079382E+00  0.18685239510E+01  0.22676550214E+00  0.23354961725E+01  0.12700000000E+01 0.  1.
         -4    1    1    2    0  501  0.54666079382E+00 -0.18685239510E+01  0.18098439178E+02  0.18247098960E+02  0.12700000000E+01 0. -1.
<mgrwt>
<rscale>  0 0.23244612E+01</rscale>
<asrwt>0</asrwt>
<pdfrwt beam="1">0</pdfrwt>
<pdfrwt beam="2">0</pdfrwt>
<totfact> 0.61055501E+11</totfact>
</mgrwt>
</event>
<event>
 4    1  0.1733759E+006  0.2162218E+01  0.7546771E-02  0.2879214E+00
         22   -1    0    0    0    0  0.00000000000E+00  0.00000000000E+00  0.10797113590E+02  0.10797113590E+02  0.00000000000E+00 0.  1.
         22   -1    0    0    0    0 -0.00000000000E+00 -0.00000000000E+00 -0.87934321334E+01  0.87934321334E+01  0.00000000000E+00 0. -1.
          4    1    1    2  501    0 -0.87349913248E+00  0.15163392390E+01 -0.85492200451E+01  0.88184096526E+01  0.12700000000E+01 0. -1.
         -4    1    1    2    0  501  0.87349913248E+00 -0.15163392390E+01  0.10552901502E+02  0.10772136071E+02  0.12700000000E+01 0.  1.
<mgrwt>
<rscale>  0 0.21622177E+01</rscale>
<asrwt>0</asrwt>
<pdfrwt beam="1">0</pdfrwt>
<pdfrwt beam="2">0</pdfrwt>
<totfact> 0.11367394E+11</totfact>
</mgrwt>
</event>
<event>
 4    1  0.1733759E+006  0.2386255E+01  0.7546771E-02  0.2760904E+00
         22   -1    0    0    0    0  0.00000000000E+00  0.00000000000E+00  0.83332186717E+01  0.83332186717E+01  0.00000000000E+00 0.  1.
         22   -1    0    0    0    0 -0.00000000000E+00 -0.00000000000E+00 -0.12944664008E+01  0.12944664008E+01  0.00000000000E+00 0. -1.
          4    1    1    2  501    0  0.14241994853E+01 -0.14328190365E+01  0.21171628628E+00  0.23956290095E+01  0.12700000000E+01 0. -1.
         -4    1    1    2    0  501 -0.14241994853E+01  0.14328190365E+01  0.68270359846E+01  0.72320560631E+01  0.12700000000E+01 0.  1.
<mgrwt>
<rscale>  0 0.23862553E+01</rscale>
<asrwt>0</asrwt>
<pdfrwt beam="1">0</pdfrwt>
<pdfrwt beam="2">0</pdfrwt>
<totfact> 0.14715921E+12</totfact>
</mgrwt>
</event>
<event>
 4    1  0.1733759E+006  0.3777531E+01  0.7546771E-02  0.2321950E+00
         22   -1    0    0    0    0  0.00000000000E+00  0.00000000000E+00  0.72583766739E+01  0.72583766739E+01  0.00000000000E+00 0. -1.
         22   -1    0    0    0    0 -0.00000000000E+00 -0.00000000000E+00 -0.21668834244E+01  0.21668834244E+01  0.00000000000E+00 0. -1.
          4    1    1    2  501    0 -0.33284958059E+01 -0.12561666517E+01  0.11107469260E+01  0.39374481228E+01  0.12700000000E+01 0. -1.
         -4    1    1    2    0  501  0.33284958059E+01  0.12561666517E+01  0.39807463235E+01  0.54878119755E+01  0.12700000000E+01 0. -1.
<mgrwt>
<rscale>  0 0.37775308E+01</rscale>
<asrwt>0</asrwt>
<pdfrwt beam="1">0</pdfrwt>
<pdfrwt beam="2">0</pdfrwt>
<totfact> 0.95886226E+11</totfact>
</mgrwt>
</event>
<event>
 4    1  0.1733759E+006  0.2457843E+01  0.7546771E-02  0.2727412E+00
         22   -1    0    0    0    0  0.00000000000E+00  0.00000000000E+00  0.27936639043E+00  0.27936639043E+00  0.00000000000E+00 0.  1.
         22   -1    0    0    0    0 -0.00000000000E+00 -0.00000000000E+00 -0.22457567542E+02  0.22457567542E+02  0.00000000000E+00 0. -1.
          4    1    1    2  501    0 -0.69722801610E+00  0.19854385775E+01 -0.13279457004E+02  0.13504998022E+02  0.12700000000E+01 0.  1.
         -4    1    1    2    0  501  0.69722801610E+00 -0.19854385775E+01 -0.88987441470E+01  0.92319359100E+01  0.12700000000E+01 0.  1.
<mgrwt>
<rscale>  0 0.24578432E+01</rscale>
<asrwt>0</asrwt>
<pdfrwt beam="1">0</pdfrwt>
<pdfrwt beam="2">0</pdfrwt>
<totfact> 0.24774007E+12</totfact>
</mgrwt>
</event>
<event>
 4    1  0.1733759E+006  0.3355329E+01  0.7546771E-02  0.2420565E+00
         22   -1    0    0    0    0  0.00000000000E+00  0.00000000000E+00  0.43467385326E+01  0.43467385326E+01  0.00000000000E+00 0. -1.
         22   -1    0    0    0    0 -0.00000000000E+00 -0.00000000000E+00 -0.34280464342E+01  0.34280464342E+01  0.00000000000E+00 0.  1.
          4    1    1    2  501    0 -0.13299642560E-01  0.31056652286E+01 -0.14626757911E+01  0.36602805716E+01  0.12700000000E+01 0.  1.
         -4    1    1    2    0  501  0.13299642560E-01 -0.31056652286E+01  0.23813678895E+01  0.41145043952E+01  0.12700000000E+01 0. -1.
<mgrwt>
<rscale>  0 0.33553291E+01</rscale>
<asrwt>0</asrwt>
<pdfrwt beam="1">0</pdfrwt>
<pdfrwt beam="2">0</pdfrwt>
<totfact> 0.10330761E+12</totfact>
</mgrwt>
</event>
<event>
 4    1  0.1733759E+006  0.2562647E+01  0.7546771E-02  0.2681539E+00
         22   -1    0    0    0    0  0.00000000000E+00  0.00000000000E+00  0.39617643669E+01  0.39617643669E+01  0.00000000000E+00 0.  1.
         22   -1    0    0    0    0 -0.00000000000E+00 -0.00000000000E+00 -0.17076764683E+01  0.17076764683E+01  0.00000000000E+00 0.  1.
          4    1    1    2  501    0  0.13005284865E+01  0.18063454267E+01  0.64178484024E+00  0.26417883954E+01  0.12700000000E+01 0.  1.
         -4    1    1    2    0  501 -0.13005284865E+01 -0.18063454267E+01  0.16123030583E+01  0.30276524399E+01  0.12700000000E+01 0.  1.
<mgrwt>
<rscale>  0 0.25626467E+01</rscale>
<asrwt>0</asrwt>
<pdfrwt beam="1">0</pdfrwt>
<pdfrwt beam="2">0</pdfrwt>
<totfact> 0.25904847E+12</totfact>
</mgrwt>
</event>
<event>
 4    1  0.1733759E+006  0.2114363E+01  0.7546771E-02  0.2907588E+00
         22   -1    0    0    0    0  0.00000000000E+00  0.00000000000E+00  0.27948877182E+01  0.27948877182E+01  0.00000000000E+00 0. -1.
         22   -1    0    0    0    0 -0.00000000000E+00 -0.00000000000E+00 -0.24750627907E+01  0.24750627907E+01  0.00000000000E+00 0.  1.
          4    1    1    2  501    0 -0.16874047514E+01  0.10146720376E+00 -0.14072627018E+01  0.25398658823E+01  0.12700000000E+01 0.  1.
         -4    1    1    2    0  501  0.16874047514E+01 -0.10146720376E+00  0.17270876293E+01  0.27300846265E+01  0.12700000000E+01 0. -1.
<mgrwt>
<rscale>  0 0.21143629E+01</rscale>
<asrwt>0</asrwt>
<pdfrwt beam="1">0</pdfrwt>
<pdfrwt beam="2">0</pdfrwt>
<totfact> 0.25359818E+12</totfact>
</mgrwt>
</event>
<event>
 4    1  0.1733759E+006  0.2715274E+01  0.7546771E-02  0.2620613E+00
         22   -1    0    0    0    0  0.00000000000E+00  0.00000000000E+00  0.30878371695E+02  0.30878371695E+02  0.00000000000E+00 0. -1.
         22   -1    0    0    0    0 -0.00000000000E+00 -0.00000000000E+00 -0.91009258700E+00  0.91009258700E+00  0.00000000000E+00 0.  1.
          4    1    1    2  501    0  0.19932537541E+01  0.13366948538E+01  0.13331668181E+01  0.30249045316E+01  0.12700000000E+01 0.  1.
         -4    1    1    2    0  501 -0.19932537541E+01 -0.13366948538E+01  0.28635112290E+02  0.28763559751E+02  0.12700000000E+01 0. -1.
<mgrwt>
<rscale>  0 0.27152741E+01</rscale>
<asrwt>0</asrwt>
<pdfrwt beam="1">0</pdfrwt>
<pdfrwt beam="2">0</pdfrwt>
<totfact> 0.43616228E+11</totfact>
</mgrwt>
</event>
<event>
 4    1  0.1733759E+006  0.4508475E+01  0.7546771E-02  0.2189498E+00
         22   -1    0    0    0    0  0.00000000000E+00  0.00000000000E+00  0.13660324186E+02  0.13660324186E+02  0.00000000000E+00 0.  1.
         22   -1    0    0    0    0 -0.00000000000E+00 -0.00000000000E+00 -0.15685052670E+01  0.15685052670E+01  0.00000000000E+00 0. -1.
          4    1    1    2  501    0  0.42695546759E+01  0.69595495259E+00  0.43206773480E+01  0.62445658914E+01  0.12700000000E+01 0.  1.
         -4    1    1    2    0  501 -0.42695546759E+01 -0.69595495259E+00  0.77711415711E+01  0.89842635616E+01  0.12700000000E+01 0. -1.
<mgrwt>
<rscale>  0 0.45084754E+01</rscale>
<asrwt>0</asrwt>
<pdfrwt beam="1">0</pdfrwt>
<pdfrwt beam="2">0</pdfrwt>
<totfact> 0.64767609E+11</totfact>
</mgrwt>
</event>
<event>
 4    1  0.1733759E+006  0.2685262E+01  0.7546771E-02  0.2632090E+00
         22   -1    0    0    0    0  0.00000000000E+00  0.00000000000E+00  0.86772431050E+02  0.86772431050E+02  0.00000000000E+00 0.  1.
         22   -1    0    0    0    0 -0.00000000000E+00 -0.00000000000E+00 -0.12428448442E+00  0.12428448442E+00  0.00000000000E+00 0. -1.
          4    1    1    2  501    0 -0.96771152867E+00 -0.21589968003E+01  0.18312488050E+02  0.18508318437E+02  0.12700000000E+01 0. -1.
         -4    1    1    2    0  501  0.96771152867E+00  0.21589968003E+01  0.68335658516E+02  0.68388397098E+02  0.12700000000E+01 0. -1.
<mgrwt>
<rscale>  0 0.26852621E+01</rscale>
<asrwt>0</asrwt>
<pdfrwt beam="1">0</pdfrwt>
<pdfrwt beam="2">0</pdfrwt>
<totfact> 0.10385692E+12</totfact>
</mgrwt>
</event>
<event>
 4    1  0.1733759E+006  0.2366865E+01  0.7546771E-02  0.2770303E+00
         22   -1    0    0    0    0  0.00000000000E+00  0.00000000000E+00  0.96934940534E+01  0.96934940534E+01  0.00000000000E+00 0. -1.
         22   -1    0    0    0    0 -0.00000000000E+00 -0.00000000000E+00 -0.57948640962E+00  0.57948640962E+00  0.00000000000E+00 0. -1.
          4    1    1    2  501    0 -0.16503048334E+01 -0.11250084522E+01  0.48241801365E+01  0.53735243603E+01  0.12700000000E+01 0. -1.
         -4    1    1    2    0  501  0.16503048334E+01  0.11250084522E+01  0.42898275072E+01  0.48994561027E+01  0.12700000000E+01 0. -1.
<mgrwt>
<rscale>  0 0.23668650E+01</rscale>
<asrwt>0</asrwt>
<pdfrwt beam="1">0</pdfrwt>
<pdfrwt beam="2">0</pdfrwt>
<totfact> 0.30635931E+12</totfact>
</mgrwt>
</event>
<event>
 4    1  0.1733759E+006  0.2025629E+01  0.7546771E-02  0.2963637E+00
         22   -1    0    0    0    0  0.00000000000E+00  0.00000000000E+00  0.43231050102E+01  0.43231050102E+01  0.00000000000E+00 0. -1.
         22   -1    0    0    0    0 -0.00000000000E+00 -0.00000000000E+00 -0.96778509836E+00  0.96778509836E+00  0.00000000000E+00 0.  1.
          4    1    1    2  501    0 -0.35318435534E+00  0.15380287764E+01  0.20449876665E+01  0.28783929999E+01  0.12700000000E+01 0.  1.
         -4    1    1    2    0  501  0.35318435534E+00 -0.15380287764E+01  0.13103322454E+01  0.24124971087E+01  0.12700000000E+01 0. -1.
<mgrwt>
<rscale>  0 0.20256287E+01</rscale>
<asrwt>0</asrwt>
<pdfrwt beam="1">0</pdfrwt>
<pdfrwt beam="2">0</pdfrwt>
<totfact> 0.44838229E+12</totfact>
</mgrwt>
</event>
<event>
 4    1  0.1733759E+006  0.3723692E+01  0.7546771E-02  0.2333442E+00
         22   -1    0    0    0    0  0.00000000000E+00  0.00000000000E+00  0.66681642852E+01  0.66681642852E+01  0.00000000000E+00 0. -1.
         22   -1    0    0    0    0 -0.00000000000E+00 -0.00000000000E+00 -0.84748439504E+01  0.84748439504E+01  0.00000000000E+00 0.  1.
          4    1    1    2  501    0 -0.29906237045E+01  0.18191072337E+01 -0.74806927451E+01  0.83562339134E+01  0.12700000000E+01 0.  1.
         -4    1    1    2    0  501  0.29906237045E+01 -0.18191072337E+01  0.56740130799E+01  0.67867743222E+01  0.12700000000E+01 0. -1.
<mgrwt>
<rscale>  0 0.37236919E+01</rscale>
<asrwt>0</asrwt>
<pdfrwt beam="1">0</pdfrwt>
<pdfrwt beam="2">0</pdfrwt>
<totfact> 0.21232677E+11</totfact>
</mgrwt>
</event>
<event>
 4    1  0.1733759E+006  0.2211498E+01  0.7546771E-02  0.2851231E+00
         22   -1    0    0    0    0  0.00000000000E+00  0.00000000000E+00  0.74578743281E+00  0.74578743281E+00  0.00000000000E+00 0.  1.
         22   -1    0    0    0    0 -0.00000000000E+00 -0.00000000000E+00 -0.69793670671E+01  0.69793670671E+01  0.00000000000E+00 0. -1.
          4    1    1    2  501    0  0.20184987244E+00  0.17991883997E+01 -0.21674881066E+01  0.30965669637E+01  0.12700000000E+01 0. -1.
         -4    1    1    2    0  501 -0.20184987244E+00 -0.17991883997E+01 -0.40660915278E+01  0.46285875363E+01  0.12700000000E+01 0. -1.
<mgrwt>
<rscale>  0 0.22114977E+01</rscale>
<asrwt>0</asrwt>
<pdfrwt beam="1">0</pdfrwt>
<pdfrwt beam="2">0</pdfrwt>
<totfact> 0.34161692E+12</totfact>
</mgrwt>
</event>
<event>
 4    1  0.1733759E+006  0.2858494E+01  0.7546771E-02  0.2568881E+00
         22   -1    0    0    0    0  0.00000000000E+00  0.00000000000E+00  0.73654862426E+01  0.73654862426E+01  0.00000000000E+00 0. -1.
         22   -1    0    0    0    0 -0.00000000000E+00 -0.00000000000E+00 -0.14926359234E+01  0.14926359234E+01  0.00000000000E+00 0.  1.
          4    1    1    2  501    0 -0.11867228386E+01  0.22693114232E+01  0.69207944855E+00  0.29410813308E+01  0.12700000000E+01 0.  1.
         -4    1    1    2    0  501  0.11867228386E+01 -0.22693114232E+01  0.51807708707E+01  0.59170408352E+01  0.12700000000E+01 0. -1.
<mgrwt>
<rscale>  0 0.28584936E+01</rscale>
<asrwt>0</asrwt>
<pdfrwt beam="1">0</pdfrwt>
<pdfrwt beam="2">0</pdfrwt>
<totfact> 0.14490688E+12</totfact>
</mgrwt>
</event>
<event>
 4    1  0.1733759E+006  0.2701999E+01  0.7546771E-02  0.2625661E+00
         22   -1    0    0    0    0  0.00000000000E+00  0.00000000000E+00  0.39565593216E+02  0.39565593216E+02  0.00000000000E+00 0. -1.
         22   -1    0    0    0    0 -0.00000000000E+00 -0.00000000000E+00 -0.34107899141E+00  0.34107899141E+00  0.00000000000E+00 0. -1.
          4    1    1    2  501    0 -0.21726246042E+01  0.98366699443E+00  0.60939720292E+01  0.66661303257E+01  0.12700000000E+01 0. -1.
         -4    1    1    2    0  501  0.21726246042E+01 -0.98366699443E+00  0.33130542195E+02  0.33240541881E+02  0.12700000000E+01 0. -1.
<mgrwt>
<rscale>  0 0.27019990E+01</rscale>
<asrwt>0</asrwt>
<pdfrwt beam="1">0</pdfrwt>
<pdfrwt beam="2">0</pdfrwt>
<totfact> 0.96231071E+11</totfact>
</mgrwt>
</event>
<event>
 4    1  0.1733759E+006  0.2426531E+01  0.7546771E-02  0.2741834E+00
         22   -1    0    0    0    0  0.00000000000E+00  0.00000000000E+00  0.19037348642E+01  0.19037348642E+01  0.00000000000E+00 0.  1.
         22   -1    0    0    0    0 -0.00000000000E+00 -0.00000000000E+00 -0.23618244163E+02  0.23618244163E+02  0.00000000000E+00 0.  1.
          4    1    1    2  501    0 -0.19248217086E+01 -0.75512508473E+00 -0.22753387954E+02  0.22882410622E+02  0.12700000000E+01 0.  1.
         -4    1    1    2    0  501  0.19248217086E+01  0.75512508473E+00  0.10388786553E+01  0.26395684049E+01  0.12700000000E+01 0.  1.
<mgrwt>
<rscale>  0 0.24265310E+01</rscale>
<asrwt>0</asrwt>
<pdfrwt beam="1">0</pdfrwt>
<pdfrwt beam="2">0</pdfrwt>
<totfact> 0.26253744E+11</totfact>
</mgrwt>
</event>
<event>
 4    1  0.1733759E+006  0.2898451E+01  0.7546771E-02  0.2555278E+00
         22   -1    0    0    0    0  0.00000000000E+00  0.00000000000E+00  0.32334622999E+01  0.32334622999E+01  0.00000000000E+00 0. -1.
         22   -1    0    0    0    0 -0.00000000000E+00 -0.00000000000E+00 -0.48031996415E+01  0.48031996415E+01  0.00000000000E+00 0. -1.
          4    1    1    2  501    0  0.25919688909E+01  0.26422518324E+00 -0.35075050555E+01  0.45501219097E+01  0.12700000000E+01 0. -1.
         -4    1    1    2    0  501 -0.25919688909E+01 -0.26422518324E+00  0.19377677139E+01  0.34865400316E+01  0.12700000000E+01 0. -1.
<mgrwt>
<rscale>  0 0.28984509E+01</rscale>
<asrwt>0</asrwt>
<pdfrwt beam="1">0</pdfrwt>
<pdfrwt beam="2">0</pdfrwt>
<totfact> 0.98318687E+11</totfact>
</mgrwt>
</event>
<event>
 4    1  0.1733759E+006  0.2344368E+01  0.7546771E-02  0.2781391E+00
         22   -1    0    0    0    0  0.00000000000E+00  0.00000000000E+00  0.16836783184E+01  0.16836783184E+01  0.00000000000E+00 0. -1.
         22   -1    0    0    0    0 -0.00000000000E+00 -0.00000000000E+00 -0.53778650150E+01  0.53778650150E+01  0.00000000000E+00 0. -1.
          4    1    1    2  501    0 -0.14856085640E+01  0.12946530203E+01 -0.40605487430E+01  0.46887221439E+01  0.12700000000E+01 0. -1.
         -4    1    1    2    0  501  0.14856085640E+01 -0.12946530203E+01  0.36636204643E+00  0.23728211895E+01  0.12700000000E+01 0. -1.
<mgrwt>
<rscale>  0 0.23443676E+01</rscale>
<asrwt>0</asrwt>
<pdfrwt beam="1">0</pdfrwt>
<pdfrwt beam="2">0</pdfrwt>
<totfact> 0.18351336E+12</totfact>
</mgrwt>
</event>
<event>
 4    1  0.1733759E+006  0.3157903E+01  0.7546771E-02  0.2474519E+00
         22   -1    0    0    0    0  0.00000000000E+00  0.00000000000E+00  0.66170671488E+01  0.66170671488E+01  0.00000000000E+00 0.  1.
         22   -1    0    0    0    0 -0.00000000000E+00 -0.00000000000E+00 -0.16655110500E+01  0.16655110500E+01  0.00000000000E+00 0. -1.
          4    1    1    2  501    0 -0.26352869184E+01 -0.11894175578E+01  0.11984504439E+01  0.33776670552E+01  0.12700000000E+01 0. -1.
         -4    1    1    2    0  501  0.26352869184E+01  0.11894175578E+01  0.37531056550E+01  0.49049111436E+01  0.12700000000E+01 0.  1.
<mgrwt>
<rscale>  0 0.31579030E+01</rscale>
<asrwt>0</asrwt>
<pdfrwt beam="1">0</pdfrwt>
<pdfrwt beam="2">0</pdfrwt>
<totfact> 0.14518899E+12</totfact>
</mgrwt>
</event>
<event>
 4    1  0.1733759E+006  0.2130449E+01  0.7546771E-02  0.2897913E+00
         22   -1    0    0    0    0  0.00000000000E+00  0.00000000000E+00  0.17067735593E+00  0.17067735593E+00  0.00000000000E+00 0. -1.
         22   -1    0    0    0    0 -0.00000000000E+00 -0.00000000000E+00 -0.26901505165E+02  0.26901505165E+02  0.00000000000E+00 0. -1.
          4    1    1    2  501    0  0.17084118661E+01  0.85097368805E-01 -0.11915712665E+02  0.12104669388E+02  0.12700000000E+01 0. -1.
         -4    1    1    2    0  501 -0.17084118661E+01 -0.85097368805E-01 -0.14815115143E+02  0.14967513133E+02  0.12700000000E+01 0. -1.
<mgrwt>
<rscale>  0 0.21304489E+01</rscale>
<asrwt>0</asrwt>
<pdfrwt beam="1">0</pdfrwt>
<pdfrwt beam="2">0</pdfrwt>
<totfact> 0.34208705E+12</totfact>
</mgrwt>
</event>
<event>
 4    1  0.1733759E+006  0.2179022E+01  0.7546771E-02  0.2869535E+00
         22   -1    0    0    0    0  0.00000000000E+00  0.00000000000E+00  0.61828981965E+01  0.61828981965E+01  0.00000000000E+00 0. -1.
         22   -1    0    0    0    0 -0.00000000000E+00 -0.00000000000E+00 -0.80884684044E+00  0.80884684044E+00  0.00000000000E+00 0.  1.
          4    1    1    2  501    0 -0.66587923603E+00 -0.16406830783E+01  0.19009127013E+01  0.28916440339E+01  0.12700000000E+01 0.  1.
         -4    1    1    2    0  501  0.66587923603E+00  0.16406830783E+01  0.34731386547E+01  0.41001010031E+01  0.12700000000E+01 0. -1.
<mgrwt>
<rscale>  0 0.21790218E+01</rscale>
<asrwt>0</asrwt>
<pdfrwt beam="1">0</pdfrwt>
<pdfrwt beam="2">0</pdfrwt>
<totfact> 0.35997619E+12</totfact>
</mgrwt>
</event>
<event>
 4    1  0.1733759E+006  0.2312219E+01  0.7546771E-02  0.2797590E+00
         22   -1    0    0    0    0  0.00000000000E+00  0.00000000000E+00  0.54820779725E+00  0.54820779725E+00  0.00000000000E+00 0.  1.
         22   -1    0    0    0    0 -0.00000000000E+00 -0.00000000000E+00 -0.20834941347E+02  0.20834941347E+02  0.00000000000E+00 0.  1.
          4    1    1    2  501    0  0.12330111722E+01 -0.14876625311E+01 -0.17941033788E+02  0.18089418170E+02  0.12700000000E+01 0.  1.
         -4    1    1    2    0  501 -0.12330111722E+01  0.14876625311E+01 -0.23456997620E+01  0.32937309742E+01  0.12700000000E+01 0.  1.
<mgrwt>
<rscale>  0 0.23122189E+01</rscale>
<asrwt>0</asrwt>
<pdfrwt beam="1">0</pdfrwt>
<pdfrwt beam="2">0</pdfrwt>
<totfact> 0.12743605E+12</totfact>
</mgrwt>
</event>
<event>
 4    1  0.1733759E+006  0.2010378E+01  0.7546771E-02  0.2973756E+00
         22   -1    0    0    0    0  0.00000000000E+00  0.00000000000E+00  0.10817456695E+02  0.10817456695E+02  0.00000000000E+00 0.  1.
         22   -1    0    0    0    0 -0.00000000000E+00 -0.00000000000E+00 -0.38123824210E+00  0.38123824210E+00  0.00000000000E+00 0. -1.
          4    1    1    2  501    0 -0.10691249599E+01  0.11338837549E+01  0.44265921203E+01  0.48617217474E+01  0.12700000000E+01 0.  1.
         -4    1    1    2    0  501  0.10691249599E+01 -0.11338837549E+01  0.60096263327E+01  0.63369731898E+01  0.12700000000E+01 0. -1.
<mgrwt>
<rscale>  0 0.20103782E+01</rscale>
<asrwt>0</asrwt>
<pdfrwt beam="1">0</pdfrwt>
<pdfrwt beam="2">0</pdfrwt>
<totfact> 0.43015006E+12</totfact>
</mgrwt>
</event>
<event>
 4    1  0.1733759E+006  0.2922769E+01  0.7546771E-02  0.2547163E+00
         22   -1    0    0    0    0  0.00000000000E+00  0.00000000000E+00  0.14119061135E+02  0.14119061135E+02  0.00000000000E+00 0.  1.
         22   -1    0    0    0    0 -0.00000000000E+00 -0.00000000000E+00 -0.64375072783E+00  0.64375072783E+00  0.00000000000E+00 0. -1.
          4    1    1    2  501    0  0.24180732510E+01 -0.10404820449E+01  0.49275571742E+01  0.57291710429E+01  0.12700000000E+01 0. -1.
         -4    1    1    2    0  501 -0.24180732510E+01  0.10404820449E+01  0.85477532328E+01  0.90336408198E+01  0.12700000000E+01 0.  1.
<mgrwt>
<rscale>  0 0.29227694E+01</rscale>
<asrwt>0</asrwt>
<pdfrwt beam="1">0</pdfrwt>
<pdfrwt beam="2">0</pdfrwt>
<totfact> 0.17200552E+12</totfact>
</mgrwt>
</event>
<event>
 4    1  0.1733759E+006  0.4316802E+01  0.7546771E-02  0.2220540E+00
         22   -1    0    0    0    0  0.00000000000E+00  0.00000000000E+00  0.50988315858E+01  0.50988315858E+01  0.00000000000E+00 0. -1.
         22   -1    0    0    0    0 -0.00000000000E+00 -0.00000000000E+00 -0.42849356109E+01  0.42849356109E+01  0.00000000000E+00 0. -1.
          4    1    1    2  501    0 -0.40857402517E+01 -0.57324354161E+00 -0.13924242818E+01  0.45358160173E+01  0.12700000000E+01 0. -1.
         -4    1    1    2    0  501  0.40857402517E+01  0.57324354161E+00  0.22063202567E+01  0.48479511794E+01  0.12700000000E+01 0. -1.
<mgrwt>
<rscale>  0 0.43168022E+01</rscale>
<asrwt>0</asrwt>
<pdfrwt beam="1">0</pdfrwt>
<pdfrwt beam="2">0</pdfrwt>
<totfact> 0.65813628E+11</totfact>
</mgrwt>
</event>
<event>
 4    1  0.1733759E+006  0.2088859E+01  0.7546771E-02  0.2923224E+00
         22   -1    0    0    0    0  0.00000000000E+00  0.00000000000E+00  0.44803403929E+01  0.44803403929E+01  0.00000000000E+00 0.  1.
         22   -1    0    0    0    0 -0.00000000000E+00 -0.00000000000E+00 -0.17764731202E+01  0.17764731202E+01  0.00000000000E+00 0. -1.
          4    1    1    2  501    0  0.15428929551E+01 -0.60820377316E+00 -0.75083073034E+00  0.22197020715E+01  0.12700000000E+01 0. -1.
         -4    1    1    2    0  501 -0.15428929551E+01  0.60820377316E+00  0.34546980030E+01  0.40371114417E+01  0.12700000000E+01 0.  1.
<mgrwt>
<rscale>  0 0.20888587E+01</rscale>
<asrwt>0</asrwt>
<pdfrwt beam="1">0</pdfrwt>
<pdfrwt beam="2">0</pdfrwt>
<totfact> 0.21409262E+12</totfact>
</mgrwt>
</event>
<event>
 4    1  0.1733759E+006  0.2153501E+01  0.7546771E-02  0.2884291E+00
         22   -1    0    0    0    0  0.00000000000E+00  0.00000000000E+00  0.31673254913E+00  0.31673254913E+00  0.00000000000E+00 0.  1.
         22   -1    0    0    0    0 -0.00000000000E+00 -0.00000000000E+00 -0.24270971978E+02  0.24270971978E+02  0.00000000000E+00 0. -1.
          4    1    1    2  501    0  0.17353716985E+01 -0.11468740774E+00 -0.19720605264E+02  0.19837838595E+02  0.12700000000E+01 0. -1.
         -4    1    1    2    0  501 -0.17353716985E+01  0.11468740774E+00 -0.42336341649E+01  0.47498659324E+01  0.12700000000E+01 0.  1.
<mgrwt>
<rscale>  0 0.21535014E+01</rscale>
<asrwt>0</asrwt>
<pdfrwt beam="1">0</pdfrwt>
<pdfrwt beam="2">0</pdfrwt>
<totfact> 0.19519450E+12</totfact>
</mgrwt>
</event>
<event>
 4    1  0.1733759E+006  0.2013470E+01  0.7546771E-02  0.2971693E+00
         22   -1    0    0    0    0  0.00000000000E+00  0.00000000000E+00  0.10620602229E+00  0.10620602229E+00  0.00000000000E+00 0. -1.
         22   -1    0    0    0    0 -0.00000000000E+00 -0.00000000000E+00 -0.38264449210E+02  0.38264449210E+02  0.00000000000E+00 0. -1.
          4    1    1    2  501    0 -0.15595561830E+01 -0.94586846736E-01 -0.20023783602E+02  0.20124760170E+02  0.12700000000E+01 0. -1.
         -4    1    1    2    0  501  0.15595561830E+01  0.94586846736E-01 -0.18134459586E+02  0.18245895063E+02  0.12700000000E+01 0. -1.
<mgrwt>
<rscale>  0 0.20134702E+01</rscale>
<asrwt>0</asrwt>
<pdfrwt beam="1">0</pdfrwt>
<pdfrwt beam="2">0</pdfrwt>
<totfact> 0.36905041E+12</totfact>
</mgrwt>
</event>
<event>
 4    1  0.1733759E+006  0.3908401E+01  0.7546771E-02  0.2295153E+00
         22   -1    0    0    0    0  0.00000000000E+00  0.00000000000E+00  0.20364123496E+02  0.20364123496E+02  0.00000000000E+00 0.  1.
         22   -1    0    0    0    0 -0.00000000000E+00 -0.00000000000E+00 -0.12716712830E+01  0.12716712830E+01  0.00000000000E+00 0. -1.
          4    1    1    2  501    0 -0.53499056688E+00 -0.36573870520E+01  0.26183081515E+01  0.47043737661E+01  0.12700000000E+01 0. -1.
         -4    1    1    2    0  501  0.53499056688E+00  0.36573870520E+01  0.16474144062E+02  0.16931421013E+02  0.12700000000E+01 0.  1.
<mgrwt>
<rscale>  0 0.39084006E+01</rscale>
<asrwt>0</asrwt>
<pdfrwt beam="1">0</pdfrwt>
<pdfrwt beam="2">0</pdfrwt>
<totfact> 0.50308902E+11</totfact>
</mgrwt>
</event>
<event>
 4    1  0.1733759E+006  0.3038051E+01  0.7546771E-02  0.2510291E+00
         22   -1    0    0    0    0  0.00000000000E+00  0.00000000000E+00  0.32812144173E+01  0.32812144173E+01  0.00000000000E+00 0.  1.
         22   -1    0    0    0    0 -0.00000000000E+00 -0.00000000000E+00 -0.36261341101E+01  0.36261341101E+01  0.00000000000E+00 0. -1.
          4    1    1    2  501    0  0.26293459319E+01  0.83868638695E+00 -0.18080144633E+01  0.35353459781E+01  0.12700000000E+01 0. -1.
         -4    1    1    2    0  501 -0.26293459319E+01 -0.83868638695E+00  0.14630947705E+01  0.33720025493E+01  0.12700000000E+01 0.  1.
<mgrwt>
<rscale>  0 0.30380512E+01</rscale>
<asrwt>0</asrwt>
<pdfrwt beam="1">0</pdfrwt>
<pdfrwt beam="2">0</pdfrwt>
<totfact> 0.13459129E+12</totfact>
</mgrwt>
</event>
<event>
 4    1  0.1733759E+006  0.2208879E+01  0.7546771E-02  0.2852688E+00
         22   -1    0    0    0    0  0.00000000000E+00  0.00000000000E+00  0.12767410548E+02  0.12767410548E+02  0.00000000000E+00 0.  1.
         22   -1    0    0    0    0 -0.00000000000E+00 -0.00000000000E+00 -0.38373826505E+00  0.38373826505E+00  0.00000000000E+00 0. -1.
          4    1    1    2  501    0  0.12407536973E+01 -0.13140690257E+01  0.57696476900E+01  0.61780240861E+01  0.12700000000E+01 0.  1.
         -4    1    1    2    0  501 -0.12407536973E+01  0.13140690257E+01  0.66140245931E+01  0.69731247271E+01  0.12700000000E+01 0. -1.
<mgrwt>
<rscale>  0 0.22088792E+01</rscale>
<asrwt>0</asrwt>
<pdfrwt beam="1">0</pdfrwt>
<pdfrwt beam="2">0</pdfrwt>
<totfact> 0.34894476E+12</totfact>
</mgrwt>
</event>
<event>
 4    1  0.1733759E+006  0.4175878E+01  0.7546771E-02  0.2244885E+00
         22   -1    0    0    0    0  0.00000000000E+00  0.00000000000E+00  0.13027025456E+02  0.13027025456E+02  0.00000000000E+00 0.  1.
         22   -1    0    0    0    0 -0.00000000000E+00 -0.00000000000E+00 -0.13539469803E+01  0.13539469803E+01  0.00000000000E+00 0. -1.
          4    1    1    2  501    0  0.29083595695E+01 -0.27141305369E+01  0.66021122593E+01  0.78119041367E+01  0.12700000000E+01 0. -1.
         -4    1    1    2    0  501 -0.29083595695E+01  0.27141305369E+01  0.50709662162E+01  0.65690682994E+01  0.12700000000E+01 0.  1.
<mgrwt>
<rscale>  0 0.41758783E+01</rscale>
<asrwt>0</asrwt>
<pdfrwt beam="1">0</pdfrwt>
<pdfrwt beam="2">0</pdfrwt>
<totfact> 0.81295824E+11</totfact>
</mgrwt>
</event>
<event>
 4    1  0.1733759E+006  0.2372639E+01  0.7546771E-02  0.2767489E+00
         22   -1    0    0    0    0  0.00000000000E+00  0.00000000000E+00  0.61106473662E+01  0.61106473662E+01  0.00000000000E+00 0.  1.
         22   -1    0    0    0    0 -0.00000000000E+00 -0.00000000000E+00 -0.98843851778E+00  0.98843851778E+00  0.00000000000E+00 0.  1.
          4    1    1    2  501    0 -0.52008937220E+00 -0.19354650620E+01  0.34865556966E+01  0.42172845039E+01  0.12700000000E+01 0.  1.
         -4    1    1    2    0  501  0.52008937220E+00  0.19354650620E+01  0.16356531518E+01  0.28818013801E+01  0.12700000000E+01 0.  1.
<mgrwt>
<rscale>  0 0.23726395E+01</rscale>
<asrwt>0</asrwt>
<pdfrwt beam="1">0</pdfrwt>
<pdfrwt beam="2">0</pdfrwt>
<totfact> 0.29047933E+12</totfact>
</mgrwt>
</event>
<event>
 4    1  0.1733759E+006  0.2131390E+01  0.7546771E-02  0.2897351E+00
         22   -1    0    0    0    0  0.00000000000E+00  0.00000000000E+00  0.94443525184E+01  0.94443525184E+01  0.00000000000E+00 0.  1.
         22   -1    0    0    0    0 -0.00000000000E+00 -0.00000000000E+00 -0.60208554887E+00  0.60208554887E+00  0.00000000000E+00 0. -1.
          4    1    1    2  501    0 -0.17115792908E+01  0.20476389109E-01  0.66737237184E+01  0.70058126738E+01  0.12700000000E+01 0.  1.
         -4    1    1    2    0  501  0.17115792908E+01 -0.20476389109E-01  0.21685432512E+01  0.30406253935E+01  0.12700000000E+01 0. -1.
<mgrwt>
<rscale>  0 0.21313899E+01</rscale>
<asrwt>0</asrwt>
<pdfrwt beam="1">0</pdfrwt>
<pdfrwt beam="2">0</pdfrwt>
<totfact> 0.30274299E+12</totfact>
</mgrwt>
</event>
<event>
 4    1  0.1733759E+006  0.2266247E+01  0.7546771E-02  0.2821510E+00
         22   -1    0    0    0    0  0.00000000000E+00  0.00000000000E+00  0.84257089252E+00  0.84257089252E+00  0.00000000000E+00 0. -1.
         22   -1    0    0    0    0 -0.00000000000E+00 -0.00000000000E+00 -0.60954823256E+01  0.60954823256E+01  0.00000000000E+00 0.  1.
          4    1    1    2  501    0 -0.10684620998E+01  0.15431666621E+01 -0.26246589267E+01  0.34676662306E+01  0.12700000000E+01 0.  1.
         -4    1    1    2    0  501  0.10684620998E+01 -0.15431666621E+01 -0.26282525064E+01  0.34703869875E+01  0.12700000000E+01 0. -1.
<mgrwt>
<rscale>  0 0.22662468E+01</rscale>
<asrwt>0</asrwt>
<pdfrwt beam="1">0</pdfrwt>
<pdfrwt beam="2">0</pdfrwt>
<totfact> 0.34950674E+12</totfact>
</mgrwt>
</event>
<event>
 4    1  0.1733759E+006  0.2005463E+01  0.7546771E-02  0.2977050E+00
         22   -1    0    0    0    0  0.00000000000E+00  0.00000000000E+00  0.13637799714E+01  0.13637799714E+01  0.00000000000E+00 0.  1.
         22   -1    0    0    0    0 -0.00000000000E+00 -0.00000000000E+00 -0.32905112940E+01  0.32905112940E+01  0.00000000000E+00 0. -1.
          4    1    1    2  501    0 -0.71405285476E+00 -0.13780817913E+01 -0.17130020896E+01  0.26374717178E+01  0.12700000000E+01 0. -1.
         -4    1    1    2    0  501  0.71405285476E+00  0.13780817913E+01 -0.21372923301E+00  0.20168195477E+01  0.12700000000E+01 0.  1.
<mgrwt>
<rscale>  0 0.20054628E+01</rscale>
<asrwt>0</asrwt>
<pdfrwt beam="1">0</pdfrwt>
<pdfrwt beam="2">0</pdfrwt>
<totfact> 0.41722900E+12</totfact>
</mgrwt>
</event>
<event>
 4    1  0.1733759E+006  0.2182118E+01  0.7546771E-02  0.2867768E+00
         22   -1    0    0    0    0  0.00000000000E+00  0.00000000000E+00  0.56615956451E+01  0.56615956451E+01  0.00000000000E+00 0.  1.
         22   -1    0    0    0    0 -0.00000000000E+00 -0.00000000000E+00 -0.10398254064E+01  0.10398254064E+01  0.00000000000E+00 0.  1.
          4    1    1    2  501    0  0.16323134772E+00  0.17669447653E+01  0.84585335401E+00  0.23403218097E+01  0.12700000000E+01 0.  1.
         -4    1    1    2    0  501 -0.16323134772E+00 -0.17669447653E+01  0.37759168848E+01  0.43610992418E+01  0.12700000000E+01 0.  1.
<mgrwt>
<rscale>  0 0.21821178E+01</rscale>
<asrwt>0</asrwt>
<pdfrwt beam="1">0</pdfrwt>
<pdfrwt beam="2">0</pdfrwt>
<totfact> 0.30019012E+12</totfact>
</mgrwt>
</event>
<event>
 4    1  0.1733759E+006  0.2870963E+01  0.7546771E-02  0.2564599E+00
         22   -1    0    0    0    0  0.00000000000E+00  0.00000000000E+00  0.23785930509E+02  0.23785930509E+02  0.00000000000E+00 0.  1.
         22   -1    0    0    0    0 -0.00000000000E+00 -0.00000000000E+00 -0.44198613145E+00  0.44198613145E+00  0.00000000000E+00 0. -1.
          4    1    1    2  501    0 -0.20235559104E+01  0.15920901502E+01  0.60421576740E+01  0.66895514742E+01  0.12700000000E+01 0. -1.
         -4    1    1    2    0  501  0.20235559104E+01 -0.15920901502E+01  0.17301786704E+02  0.17538365166E+02  0.12700000000E+01 0.  1.
<mgrwt>
<rscale>  0 0.28709632E+01</rscale>
<asrwt>0</asrwt>
<pdfrwt beam="1">0</pdfrwt>
<pdfrwt beam="2">0</pdfrwt>
<totfact> 0.13765425E+12</totfact>
</mgrwt>
</event>
<event>
 4    1  0.1733759E+006  0.2393337E+01  0.7546771E-02  0.2757507E+00
         22   -1    0    0    0    0  0.00000000000E+00  0.00000000000E+00  0.36466126749E+01  0.36466126749E+01  0.00000000000E+00 0.  1.
         22   -1    0    0    0    0 -0.00000000000E+00 -0.00000000000E+00 -0.15802733673E+01  0.15802733673E+01  0.00000000000E+00 0. -1.
          4    1    1    2  501    0 -0.16717569933E+01 -0.11490822834E+01  0.83071132326E+00  0.25334053843E+01  0.12700000000E+01 0. -1.
         -4    1    1    2    0  501  0.16717569933E+01  0.11490822834E+01  0.12356279844E+01  0.26934806579E+01  0.12700000000E+01 0.  1.
<mgrwt>
<rscale>  0 0.23933369E+01</rscale>
<asrwt>0</asrwt>
<pdfrwt beam="1">0</pdfrwt>
<pdfrwt beam="2">0</pdfrwt>
<totfact> 0.31224522E+12</totfact>
</mgrwt>
</event>
<event>
 4    1  0.1733759E+006  0.3351771E+01  0.7546771E-02  0.2421488E+00
         22   -1    0    0    0    0  0.00000000000E+00  0.00000000000E+00  0.84140283470E+01  0.84140283470E+01  0.00000000000E+00 0. -1.
         22   -1    0    0    0    0 -0.00000000000E+00 -0.00000000000E+00 -0.25985691686E+01  0.25985691686E+01  0.00000000000E+00 0.  1.
          4    1    1    2  501    0 -0.45052206751E+00 -0.30689572537E+01 -0.93162853303E+00  0.34788360815E+01  0.12700000000E+01 0.  1.
         -4    1    1    2    0  501  0.45052206751E+00  0.30689572537E+01  0.67470877114E+01  0.75337614340E+01  0.12700000000E+01 0. -1.
<mgrwt>
<rscale>  0 0.33517710E+01</rscale>
<asrwt>0</asrwt>
<pdfrwt beam="1">0</pdfrwt>
<pdfrwt beam="2">0</pdfrwt>
<totfact> 0.65022042E+11</totfact>
</mgrwt>
</event>
<event>
 4    1  0.1733759E+006  0.2214080E+01  0.7546771E-02  0.2849798E+00
         22   -1    0    0    0    0  0.00000000000E+00  0.00000000000E+00  0.78782369542E-01  0.78782369542E-01  0.00000000000E+00 0.  1.
         22   -1    0    0    0    0 -0.00000000000E+00 -0.00000000000E+00 -0.68200379336E+02  0.68200379336E+02  0.00000000000E+00 0.  1.
          4    1    1    2  501    0 -0.30092199169E-01  0.18133796248E+01 -0.44166936657E+02  0.44222397548E+02  0.12700000000E+01 0.  1.
         -4    1    1    2    0  501  0.30092199169E-01 -0.18133796248E+01 -0.23954660310E+02  0.24056764158E+02  0.12700000000E+01 0.  1.
<mgrwt>
<rscale>  0 0.22140802E+01</rscale>
<asrwt>0</asrwt>
<pdfrwt beam="1">0</pdfrwt>
<pdfrwt beam="2">0</pdfrwt>
<totfact> 0.23920804E+12</totfact>
</mgrwt>
</event>
<event>
 4    1  0.1733759E+006  0.3779073E+01  0.7546771E-02  0.2321625E+00
         22   -1    0    0    0    0  0.00000000000E+00  0.00000000000E+00  0.24075950881E+01  0.24075950881E+01  0.00000000000E+00 0.  1.
         22   -1    0    0    0    0 -0.00000000000E+00 -0.00000000000E+00 -0.69328692117E+01  0.69328692117E+01  0.00000000000E+00 0. -1.
          4    1    1    2  501    0  0.18008540034E+01 -0.30700848925E+01 -0.40372836133E+01  0.55300140473E+01  0.12700000000E+01 0. -1.
         -4    1    1    2    0  501 -0.18008540034E+01  0.30700848925E+01 -0.48799051027E+00  0.38104502525E+01  0.12700000000E+01 0.  1.
<mgrwt>
<rscale>  0 0.37790735E+01</rscale>
<asrwt>0</asrwt>
<pdfrwt beam="1">0</pdfrwt>
<pdfrwt beam="2">0</pdfrwt>
<totfact> 0.89638880E+11</totfact>
</mgrwt>
</event>
<event>
 4    1  0.1733759E+006  0.2679115E+01  0.7546771E-02  0.2634470E+00
         22   -1    0    0    0    0  0.00000000000E+00  0.00000000000E+00  0.12742544761E+01  0.12742544761E+01  0.00000000000E+00 0. -1.
         22   -1    0    0    0    0 -0.00000000000E+00 -0.00000000000E+00 -0.56340235217E+01  0.56340235217E+01  0.00000000000E+00 0.  1.
          4    1    1    2  501    0 -0.75991886602E+00  0.22332214472E+01 -0.22302269170E+01  0.34859097545E+01  0.12700000000E+01 0.  1.
         -4    1    1    2    0  501  0.75991886602E+00 -0.22332214472E+01 -0.21295421287E+01  0.34223682433E+01  0.12700000000E+01 0. -1.
<mgrwt>
<rscale>  0 0.26791145E+01</rscale>
<asrwt>0</asrwt>
<pdfrwt beam="1">0</pdfrwt>
<pdfrwt beam="2">0</pdfrwt>
<totfact> 0.23925016E+12</totfact>
</mgrwt>
</event>
<event>
 4    1  0.1733759E+006  0.2649718E+01  0.7546771E-02  0.2645991E+00
         22   -1    0    0    0    0  0.00000000000E+00  0.00000000000E+00  0.18650626687E+00  0.18650626687E+00  0.00000000000E+00 0. -1.
         22   -1    0    0    0    0 -0.00000000000E+00 -0.00000000000E+00 -0.42651236723E+02  0.42651236723E+02  0.00000000000E+00 0.  1.
          4    1    1    2  501    0  0.16120935516E+01 -0.16760849017E+01 -0.28570600382E+02  0.28693208472E+02  0.12700000000E+01 0.  1.
         -4    1    1    2    0  501 -0.16120935516E+01  0.16760849017E+01 -0.13894130074E+02  0.14144534518E+02  0.12700000000E+01 0. -1.
<mgrwt>
<rscale>  0 0.26497181E+01</rscale>
<asrwt>0</asrwt>
<pdfrwt beam="1">0</pdfrwt>
<pdfrwt beam="2">0</pdfrwt>
<totfact> 0.17147950E+12</totfact>
</mgrwt>
</event>
<event>
 4    1  0.1733759E+006  0.2688793E+01  0.7546771E-02  0.2630728E+00
         22   -1    0    0    0    0  0.00000000000E+00  0.00000000000E+00  0.12030423232E+02  0.12030423232E+02  0.00000000000E+00 0. -1.
         22   -1    0    0    0    0 -0.00000000000E+00 -0.00000000000E+00 -0.10689618509E+01  0.10689618509E+01  0.00000000000E+00 0.  1.
          4    1    1    2  501    0 -0.23630544099E+01  0.18078369518E+00  0.11469085127E+01  0.29231845691E+01  0.12700000000E+01 0.  1.
         -4    1    1    2    0  501  0.23630544099E+01 -0.18078369518E+00  0.98145528688E+01  0.10176200514E+02  0.12700000000E+01 0. -1.
<mgrwt>
<rscale>  0 0.26887932E+01</rscale>
<asrwt>0</asrwt>
<pdfrwt beam="1">0</pdfrwt>
<pdfrwt beam="2">0</pdfrwt>
<totfact> 0.11745753E+12</totfact>
</mgrwt>
</event>
<event>
 4    1  0.1733759E+006  0.3334986E+01  0.7546771E-02  0.2425864E+00
         22   -1    0    0    0    0  0.00000000000E+00  0.00000000000E+00  0.14942486931E+01  0.14942486931E+01  0.00000000000E+00 0. -1.
         22   -1    0    0    0    0 -0.00000000000E+00 -0.00000000000E+00 -0.76242250606E+01  0.76242250606E+01  0.00000000000E+00 0.  1.
          4    1    1    2  501    0 -0.27744275914E+01 -0.13460239824E+01 -0.37673380866E+01  0.50313979449E+01  0.12700000000E+01 0. -1.
         -4    1    1    2    0  501  0.27744275914E+01  0.13460239824E+01 -0.23626382809E+01  0.40870758088E+01  0.12700000000E+01 0.  1.
<mgrwt>
<rscale>  0 0.33349856E+01</rscale>
<asrwt>0</asrwt>
<pdfrwt beam="1">0</pdfrwt>
<pdfrwt beam="2">0</pdfrwt>
<totfact> 0.13886015E+12</totfact>
</mgrwt>
</event>
<event>
 4    1  0.1733759E+006  0.4273189E+01  0.7546771E-02  0.2227929E+00
         22   -1    0    0    0    0  0.00000000000E+00  0.00000000000E+00  0.25815414053E+01  0.25815414053E+01  0.00000000000E+00 0.  1.
         22   -1    0    0    0    0 -0.00000000000E+00 -0.00000000000E+00 -0.79087424972E+01  0.79087424972E+01  0.00000000000E+00 0. -1.
          4    1    1    2  501    0  0.87106217912E+00  0.39860375917E+01 -0.43683042466E+01  0.61108286667E+01  0.12700000000E+01 0. -1.
         -4    1    1    2    0  501 -0.87106217912E+00 -0.39860375917E+01 -0.95889684534E+00  0.43794552358E+01  0.12700000000E+01 0.  1.
<mgrwt>
<rscale>  0 0.42731891E+01</rscale>
<asrwt>0</asrwt>
<pdfrwt beam="1">0</pdfrwt>
<pdfrwt beam="2">0</pdfrwt>
<totfact> 0.70586432E+11</totfact>
</mgrwt>
</event>
<event>
 4    1  0.1733759E+006  0.3371019E+01  0.7546771E-02  0.2416517E+00
         22   -1    0    0    0    0  0.00000000000E+00  0.00000000000E+00  0.73307572799E+00  0.73307572799E+00  0.00000000000E+00 0.  1.
         22   -1    0    0    0    0 -0.00000000000E+00 -0.00000000000E+00 -0.15545279598E+02  0.15545279598E+02  0.00000000000E+00 0. -1.
          4    1    1    2  501    0  0.18170755724E+01 -0.25395090287E+01 -0.69741435852E+01  0.77461247401E+01  0.12700000000E+01 0.  1.
         -4    1    1    2    0  501 -0.18170755724E+01  0.25395090287E+01 -0.78380602848E+01  0.85322305858E+01  0.12700000000E+01 0. -1.
<mgrwt>
<rscale>  0 0.33710191E+01</rscale>
<asrwt>0</asrwt>
<pdfrwt beam="1">0</pdfrwt>
<pdfrwt beam="2">0</pdfrwt>
<totfact> 0.13185762E+12</totfact>
</mgrwt>
</event>
<event>
 4    1  0.1733759E+006  0.2985176E+01  0.7546771E-02  0.2526885E+00
         22   -1    0    0    0    0  0.00000000000E+00  0.00000000000E+00  0.44896760363E+01  0.44896760363E+01  0.00000000000E+00 0. -1.
         22   -1    0    0    0    0 -0.00000000000E+00 -0.00000000000E+00 -0.57879976310E+01  0.57879976310E+01  0.00000000000E+00 0.  1.
          4    1    1    2  501    0 -0.10086438951E+01 -0.25061946059E+01 -0.48147170696E+01  0.56650484879E+01  0.12700000000E+01 0.  1.
         -4    1    1    2    0  501  0.10086438951E+01  0.25061946059E+01  0.35163954749E+01  0.46126251794E+01  0.12700000000E+01 0. -1.
<mgrwt>
<rscale>  0 0.29851757E+01</rscale>
<asrwt>0</asrwt>
<pdfrwt beam="1">0</pdfrwt>
<pdfrwt beam="2">0</pdfrwt>
<totfact> 0.53586289E+11</totfact>
</mgrwt>
</event>
<event>
 4    1  0.1733759E+006  0.2800155E+01  0.7546771E-02  0.2589373E+00
         22   -1    0    0    0    0  0.00000000000E+00  0.00000000000E+00  0.61810470294E+02  0.61810470294E+02  0.00000000000E+00 0. -1.
         22   -1    0    0    0    0 -0.00000000000E+00 -0.00000000000E+00 -0.13663665186E+00  0.13663665186E+00  0.00000000000E+00 0.  1.
          4    1    1    2  501    0 -0.15665949892E+01  0.19426137459E+01  0.22548928178E+02  0.22722126441E+02  0.12700000000E+01 0.  1.
         -4    1    1    2    0  501  0.15665949892E+01 -0.19426137459E+01  0.39124905464E+02  0.39224980505E+02  0.12700000000E+01 0. -1.
<mgrwt>
<rscale>  0 0.28001550E+01</rscale>
<asrwt>0</asrwt>
<pdfrwt beam="1">0</pdfrwt>
<pdfrwt beam="2">0</pdfrwt>
<totfact> 0.14844091E+12</totfact>
</mgrwt>
</event>
<event>
 4    1  0.1733759E+006  0.2018640E+01  0.7546771E-02  0.2968256E+00
         22   -1    0    0    0    0  0.00000000000E+00  0.00000000000E+00  0.31828652016E+02  0.31828652016E+02  0.00000000000E+00 0. -1.
         22   -1    0    0    0    0 -0.00000000000E+00 -0.00000000000E+00 -0.21606700131E+00  0.21606700131E+00  0.00000000000E+00 0.  1.
          4    1    1    2  501    0 -0.13151004875E+01  0.85587163135E+00  0.55786881419E+01  0.59326778883E+01  0.12700000000E+01 0.  1.
         -4    1    1    2    0  501  0.13151004875E+01 -0.85587163135E+00  0.26033896873E+02  0.26112041129E+02  0.12700000000E+01 0. -1.
<mgrwt>
<rscale>  0 0.20186395E+01</rscale>
<asrwt>0</asrwt>
<pdfrwt beam="1">0</pdfrwt>
<pdfrwt beam="2">0</pdfrwt>
<totfact> 0.21231122E+12</totfact>
</mgrwt>
</event>
<event>
 4    1  0.1733759E+006  0.2559087E+01  0.7546771E-02  0.2683040E+00
         22   -1    0    0    0    0  0.00000000000E+00  0.00000000000E+00  0.89822481970E+00  0.89822481970E+00  0.00000000000E+00 0.  1.
         22   -1    0    0    0    0 -0.00000000000E+00 -0.00000000000E+00 -0.10867943753E+02  0.10867943753E+02  0.00000000000E+00 0. -1.
          4    1    1    2  501    0 -0.22197204195E+01 -0.94178642201E-01 -0.83599807347E+01  0.87428946146E+01  0.12700000000E+01 0. -1.
         -4    1    1    2    0  501  0.22197204195E+01  0.94178642201E-01 -0.16097381986E+01  0.30232739581E+01  0.12700000000E+01 0.  1.
<mgrwt>
<rscale>  0 0.25590874E+01</rscale>
<asrwt>0</asrwt>
<pdfrwt beam="1">0</pdfrwt>
<pdfrwt beam="2">0</pdfrwt>
<totfact> 0.16213077E+12</totfact>
</mgrwt>
</event>
<event>
 4    1  0.1733759E+006  0.3143747E+01  0.7546771E-02  0.2478618E+00
         22   -1    0    0    0    0  0.00000000000E+00  0.00000000000E+00  0.80440146701E+00  0.80440146701E+00  0.00000000000E+00 0. -1.
         22   -1    0    0    0    0 -0.00000000000E+00 -0.00000000000E+00 -0.18296402349E+02  0.18296402349E+02  0.00000000000E+00 0.  1.
          4    1    1    2  501    0  0.49230356024E+00 -0.28333514305E+01 -0.14219670194E+02  0.14563041013E+02  0.12700000000E+01 0.  1.
         -4    1    1    2    0  501 -0.49230356024E+00  0.28333514305E+01 -0.32723306883E+01  0.45377628032E+01  0.12700000000E+01 0. -1.
<mgrwt>
<rscale>  0 0.31437467E+01</rscale>
<asrwt>0</asrwt>
<pdfrwt beam="1">0</pdfrwt>
<pdfrwt beam="2">0</pdfrwt>
<totfact> 0.96988682E+11</totfact>
</mgrwt>
</event>
<event>
 4    1  0.1733759E+006  0.2362606E+01  0.7546771E-02  0.2772387E+00
         22   -1    0    0    0    0  0.00000000000E+00  0.00000000000E+00  0.18953805900E+02  0.18953805900E+02  0.00000000000E+00 0.  1.
         22   -1    0    0    0    0 -0.00000000000E+00 -0.00000000000E+00 -0.32866801740E+00  0.32866801740E+00  0.00000000000E+00 0. -1.
          4    1    1    2  501    0 -0.17928020998E+01  0.86883210679E+00  0.62040061431E+01  0.66386445019E+01  0.12700000000E+01 0. -1.
         -4    1    1    2    0  501  0.17928020998E+01 -0.86883210679E+00  0.12421131740E+02  0.12643829416E+02  0.12700000000E+01 0.  1.
<mgrwt>
<rscale>  0 0.23626063E+01</rscale>
<asrwt>0</asrwt>
<pdfrwt beam="1">0</pdfrwt>
<pdfrwt beam="2">0</pdfrwt>
<totfact> 0.25517859E+12</totfact>
</mgrwt>
</event>
<event>
 4    1  0.1733759E+006  0.2385010E+01  0.7546771E-02  0.2761503E+00
         22   -1    0    0    0    0  0.00000000000E+00  0.00000000000E+00  0.64175931213E+00  0.64175931213E+00  0.00000000000E+00 0. -1.
         22   -1    0    0    0    0 -0.00000000000E+00 -0.00000000000E+00 -0.11235220167E+02  0.11235220167E+02  0.00000000000E+00 0.  1.
          4    1    1    2  501    0 -0.11558244717E+01  0.16551266909E+01 -0.80251496690E+01  0.83720548125E+01  0.12700000000E+01 0.  1.
         -4    1    1    2    0  501  0.11558244717E+01 -0.16551266909E+01 -0.25683111862E+01  0.35049246670E+01  0.12700000000E+01 0. -1.
<mgrwt>
<rscale>  0 0.23850104E+01</rscale>
<asrwt>0</asrwt>
<pdfrwt beam="1">0</pdfrwt>
<pdfrwt beam="2">0</pdfrwt>
<totfact> 0.22818070E+12</totfact>
</mgrwt>
</event>
<event>
 4    1  0.1733759E+006  0.2403388E+01  0.7546771E-02  0.2752718E+00
         22   -1    0    0    0    0  0.00000000000E+00  0.00000000000E+00  0.67497330358E+02  0.67497330358E+02  0.00000000000E+00 0. -1.
         22   -1    0    0    0    0 -0.00000000000E+00 -0.00000000000E+00 -0.85872345555E-01  0.85872345555E-01  0.00000000000E+00 0. -1.
          4    1    1    2  501    0  0.12337320457E+01  0.16252017341E+01  0.31726791226E+02  0.31817692515E+02  0.12700000000E+01 0. -1.
         -4    1    1    2    0  501 -0.12337320457E+01 -0.16252017341E+01  0.35684666786E+02  0.35765510189E+02  0.12700000000E+01 0. -1.
<mgrwt>
<rscale>  0 0.24033883E+01</rscale>
<asrwt>0</asrwt>
<pdfrwt beam="1">0</pdfrwt>
<pdfrwt beam="2">0</pdfrwt>
<totfact> 0.22056525E+12</totfact>
</mgrwt>
</event>
<event>
 4    1  0.1733759E+006  0.2925939E+01  0.7546771E-02  0.2546115E+00
         22   -1    0    0    0    0  0.00000000000E+00  0.00000000000E+00  0.10874016997E+02  0.10874016997E+02  0.00000000000E+00 0. -1.
         22   -1    0    0    0    0 -0.00000000000E+00 -0.00000000000E+00 -0.78730527550E+00  0.78730527550E+00  0.00000000000E+00 0. -1.
          4    1    1    2  501    0  0.25479272639E+01  0.67548946252E+00  0.50576691810E+01  0.58430417507E+01  0.12700000000E+01 0. -1.
         -4    1    1    2    0  501 -0.25479272639E+01 -0.67548946252E+00  0.50290425408E+01  0.58182805220E+01  0.12700000000E+01 0. -1.
<mgrwt>
<rscale>  0 0.29259391E+01</rscale>
<asrwt>0</asrwt>
<pdfrwt beam="1">0</pdfrwt>
<pdfrwt beam="2">0</pdfrwt>
<totfact> 0.18825674E+12</totfact>
</mgrwt>
</event>
<event>
 4    1  0.1733759E+006  0.4028760E+01  0.7546771E-02  0.2271831E+00
         22   -1    0    0    0    0  0.00000000000E+00  0.00000000000E+00  0.11071840992E+03  0.11071840992E+03  0.00000000000E+00 0.  1.
         22   -1    0    0    0    0 -0.00000000000E+00 -0.00000000000E+00 -0.16664615889E+00  0.16664615889E+00  0.00000000000E+00 0. -1.
          4    1    1    2  501    0 -0.37564533705E+01 -0.71208258718E+00  0.36044894244E+02  0.36269343868E+02  0.12700000000E+01 0. -1.
         -4    1    1    2    0  501  0.37564533705E+01  0.71208258718E+00  0.74506869517E+02  0.74615712211E+02  0.12700000000E+01 0.  1.
<mgrwt>
<rscale>  0 0.40287596E+01</rscale>
<asrwt>0</asrwt>
<pdfrwt beam="1">0</pdfrwt>
<pdfrwt beam="2">0</pdfrwt>
<totfact> 0.53235305E+11</totfact>
</mgrwt>
</event>
<event>
 4    1  0.1733759E+006  0.3690443E+01  0.7546771E-02  0.2340684E+00
         22   -1    0    0    0    0  0.00000000000E+00  0.00000000000E+00  0.36871914214E+00  0.36871914214E+00  0.00000000000E+00 0. -1.
         22   -1    0    0    0    0 -0.00000000000E+00 -0.00000000000E+00 -0.15276601516E+03  0.15276601516E+03  0.00000000000E+00 0. -1.
          4    1    1    2  501    0  0.31904481108E+01  0.13518530944E+01 -0.14286997306E+03  0.14291762861E+03  0.12700000000E+01 0. -1.
         -4    1    1    2    0  501 -0.31904481108E+01 -0.13518530944E+01 -0.95273229565E+01  0.10217105689E+02  0.12700000000E+01 0. -1.
<mgrwt>
<rscale>  0 0.36904425E+01</rscale>
<asrwt>0</asrwt>
<pdfrwt beam="1">0</pdfrwt>
<pdfrwt beam="2">0</pdfrwt>
<totfact> 0.13704422E+11</totfact>
</mgrwt>
</event>
<event>
 4    1  0.1733759E+006  0.2587427E+01  0.7546771E-02  0.2671197E+00
         22   -1    0    0    0    0  0.00000000000E+00  0.00000000000E+00  0.93479731134E+00  0.93479731134E+00  0.00000000000E+00 0. -1.
         22   -1    0    0    0    0 -0.00000000000E+00 -0.00000000000E+00 -0.85324058094E+01  0.85324058094E+01  0.00000000000E+00 0. -1.
          4    1    1    2  501    0 -0.15927275130E+01 -0.15953367786E+01 -0.56960381594E+01  0.62561674435E+01  0.12700000000E+01 0. -1.
         -4    1    1    2    0  501  0.15927275130E+01  0.15953367786E+01 -0.19015703387E+01  0.32110356773E+01  0.12700000000E+01 0. -1.
<mgrwt>
<rscale>  0 0.25874274E+01</rscale>
<asrwt>0</asrwt>
<pdfrwt beam="1">0</pdfrwt>
<pdfrwt beam="2">0</pdfrwt>
<totfact> 0.20757229E+12</totfact>
</mgrwt>
</event>
<event>
 4    1  0.1733759E+006  0.2477625E+01  0.7546771E-02  0.2718477E+00
         22   -1    0    0    0    0  0.00000000000E+00  0.00000000000E+00  0.42883500574E+01  0.42883500574E+01  0.00000000000E+00 0. -1.
         22   -1    0    0    0    0 -0.00000000000E+00 -0.00000000000E+00 -0.91353532264E+01  0.91353532264E+01  0.00000000000E+00 0.  1.
          4    1    1    2  501    0  0.21204028140E+01 -0.17210278385E+00 -0.85871042379E+01  0.89373926094E+01  0.12700000000E+01 0.  1.
         -4    1    1    2    0  501 -0.21204028140E+01  0.17210278385E+00  0.37401010688E+01  0.44863106744E+01  0.12700000000E+01 0. -1.
<mgrwt>
<rscale>  0 0.24776254E+01</rscale>
<asrwt>0</asrwt>
<pdfrwt beam="1">0</pdfrwt>
<pdfrwt beam="2">0</pdfrwt>
<totfact> 0.32745878E+11</totfact>
</mgrwt>
</event>
<event>
 4    1  0.1733759E+006  0.3406735E+01  0.7546771E-02  0.2407424E+00
         22   -1    0    0    0    0  0.00000000000E+00  0.00000000000E+00  0.10453824661E+01  0.10453824661E+01  0.00000000000E+00 0.  1.
         22   -1    0    0    0    0 -0.00000000000E+00 -0.00000000000E+00 -0.12952232646E+02  0.12952232646E+02  0.00000000000E+00 0. -1.
          4    1    1    2  501    0 -0.30236225077E+01  0.92230528149E+00 -0.85986612983E+01  0.92489359509E+01  0.12700000000E+01 0. -1.
         -4    1    1    2    0  501  0.30236225077E+01 -0.92230528149E+00 -0.33081888819E+01  0.47486791616E+01  0.12700000000E+01 0.  1.
<mgrwt>
<rscale>  0 0.34067345E+01</rscale>
<asrwt>0</asrwt>
<pdfrwt beam="1">0</pdfrwt>
<pdfrwt beam="2">0</pdfrwt>
<totfact> 0.11010395E+12</totfact>
</mgrwt>
</event>
<event>
 4    1  0.1733759E+006  0.2014487E+01  0.7546771E-02  0.2971015E+00
         22   -1    0    0    0    0  0.00000000000E+00  0.00000000000E+00  0.29816312766E+01  0.29816312766E+01  0.00000000000E+00 0. -1.
         22   -1    0    0    0    0 -0.00000000000E+00 -0.00000000000E+00 -0.13936107942E+01  0.13936107942E+01  0.00000000000E+00 0. -1.
          4    1    1    2  501    0  0.73095451868E+00  0.13823758468E+01  0.45963785760E+00  0.20662585633E+01  0.12700000000E+01 0. -1.
         -4    1    1    2    0  501 -0.73095451868E+00 -0.13823758468E+01  0.11283826247E+01  0.23089835075E+01  0.12700000000E+01 0. -1.
<mgrwt>
<rscale>  0 0.20144869E+01</rscale>
<asrwt>0</asrwt>
<pdfrwt beam="1">0</pdfrwt>
<pdfrwt beam="2">0</pdfrwt>
<totfact> 0.45671338E+12</totfact>
</mgrwt>
</event>
<event>
 4    1  0.1733759E+006  0.3418056E+01  0.7546771E-02  0.2404576E+00
         22   -1    0    0    0    0  0.00000000000E+00  0.00000000000E+00  0.11949272097E+01  0.11949272097E+01  0.00000000000E+00 0. -1.
         22   -1    0    0    0    0 -0.00000000000E+00 -0.00000000000E+00 -0.10037368139E+02  0.10037368139E+02  0.00000000000E+00 0.  1.
          4    1    1    2  501    0 -0.25212454839E+01 -0.19270520457E+01 -0.35171349743E+01  0.49044211488E+01  0.12700000000E+01 0. -1.
         -4    1    1    2    0  501  0.25212454839E+01  0.19270520457E+01 -0.53253059550E+01  0.63278742000E+01  0.12700000000E+01 0.  1.
<mgrwt>
<rscale>  0 0.34180562E+01</rscale>
<asrwt>0</asrwt>
<pdfrwt beam="1">0</pdfrwt>
<pdfrwt beam="2">0</pdfrwt>
<totfact> 0.12885694E+12</totfact>
</mgrwt>
</event>
<event>
 4    1  0.1733759E+006  0.3000348E+01  0.7546771E-02  0.2522070E+00
         22   -1    0    0    0    0  0.00000000000E+00  0.00000000000E+00  0.37051697637E+01  0.37051697637E+01  0.00000000000E+00 0. -1.
         22   -1    0    0    0    0 -0.00000000000E+00 -0.00000000000E+00 -0.26344128590E+01  0.26344128590E+01  0.00000000000E+00 0.  1.
          4    1    1    2  501    0  0.10368933011E+01 -0.25127755731E+01 -0.34844388826E+00  0.30205135229E+01  0.12700000000E+01 0. -1.
         -4    1    1    2    0  501 -0.10368933011E+01  0.25127755731E+01  0.14192007929E+01  0.33190690998E+01  0.12700000000E+01 0.  1.
<mgrwt>
<rscale>  0 0.30003481E+01</rscale>
<asrwt>0</asrwt>
<pdfrwt beam="1">0</pdfrwt>
<pdfrwt beam="2">0</pdfrwt>
<totfact> 0.16957346E+12</totfact>
</mgrwt>
</event>
<event>
 4    1  0.1733759E+006  0.2637683E+01  0.7546771E-02  0.2650775E+00
         22   -1    0    0    0    0  0.00000000000E+00  0.00000000000E+00  0.10195190119E+02  0.10195190119E+02  0.00000000000E+00 0. -1.
         22   -1    0    0    0    0 -0.00000000000E+00 -0.00000000000E+00 -0.17202020352E+01  0.17202020352E+01  0.00000000000E+00 0.  1.
          4    1    1    2  501    0  0.21224146927E+01  0.91642129657E+00 -0.38996193793E+00  0.26663537713E+01  0.12700000000E+01 0.  1.
         -4    1    1    2    0  501 -0.21224146927E+01 -0.91642129657E+00  0.88649500216E+01  0.92490383827E+01  0.12700000000E+01 0. -1.
<mgrwt>
<rscale>  0 0.26376831E+01</rscale>
<asrwt>0</asrwt>
<pdfrwt beam="1">0</pdfrwt>
<pdfrwt beam="2">0</pdfrwt>
<totfact> 0.83171467E+11</totfact>
</mgrwt>
</event>
<event>
 4    1  0.1733759E+006  0.2328637E+01  0.7546771E-02  0.2789264E+00
         22   -1    0    0    0    0  0.00000000000E+00  0.00000000000E+00  0.35818621264E+00  0.35818621264E+00  0.00000000000E+00 0.  1.
         22   -1    0    0    0    0 -0.00000000000E+00 -0.00000000000E+00 -0.17713948150E+02  0.17713948150E+02  0.00000000000E+00 0. -1.
          4    1    1    2  501    0 -0.18087569469E+01 -0.73351839030E+00 -0.12123070425E+02  0.12344690659E+02  0.12700000000E+01 0. -1.
         -4    1    1    2    0  501  0.18087569469E+01  0.73351839030E+00 -0.52326915125E+01  0.57274437044E+01  0.12700000000E+01 0.  1.
<mgrwt>
<rscale>  0 0.23286371E+01</rscale>
<asrwt>0</asrwt>
<pdfrwt beam="1">0</pdfrwt>
<pdfrwt beam="2">0</pdfrwt>
<totfact> 0.25198330E+12</totfact>
</mgrwt>
</event>
<event>
 4    1  0.1733759E+006  0.2744100E+01  0.7546771E-02  0.2609806E+00
         22   -1    0    0    0    0  0.00000000000E+00  0.00000000000E+00  0.10931536876E+01  0.10931536876E+01  0.00000000000E+00 0.  1.
         22   -1    0    0    0    0 -0.00000000000E+00 -0.00000000000E+00 -0.10139696338E+02  0.10139696338E+02  0.00000000000E+00 0. -1.
          4    1    1    2  501    0  0.14284344353E+01  0.19689489647E+01 -0.77036252731E+01  0.81777703141E+01  0.12700000000E+01 0. -1.
         -4    1    1    2    0  501 -0.14284344353E+01 -0.19689489647E+01 -0.13429173774E+01  0.30550797116E+01  0.12700000000E+01 0.  1.
<mgrwt>
<rscale>  0 0.27441000E+01</rscale>
<asrwt>0</asrwt>
<pdfrwt beam="1">0</pdfrwt>
<pdfrwt beam="2">0</pdfrwt>
<totfact> 0.14093569E+12</totfact>
</mgrwt>
</event>
<event>
 4    1  0.1733759E+006  0.2774758E+01  0.7546771E-02  0.2598537E+00
         22   -1    0    0    0    0  0.00000000000E+00  0.00000000000E+00  0.76107394633E+00  0.76107394633E+00  0.00000000000E+00 0.  1.
         22   -1    0    0    0    0 -0.00000000000E+00 -0.00000000000E+00 -0.12757354478E+02  0.12757354478E+02  0.00000000000E+00 0.  1.
          4    1    1    2  501    0  0.94092421699E+00 -0.22805797395E+01 -0.90735383618E+01  0.94883286586E+01  0.12700000000E+01 0.  1.
         -4    1    1    2    0  501 -0.94092421699E+00  0.22805797395E+01 -0.29227421698E+01  0.40300997657E+01  0.12700000000E+01 0.  1.
<mgrwt>
<rscale>  0 0.27747581E+01</rscale>
<asrwt>0</asrwt>
<pdfrwt beam="1">0</pdfrwt>
<pdfrwt beam="2">0</pdfrwt>
<totfact> 0.16104811E+12</totfact>
</mgrwt>
</event>
<event>
 4    1  0.1733759E+006  0.2044396E+01  0.7546771E-02  0.2951387E+00
         22   -1    0    0    0    0  0.00000000000E+00  0.00000000000E+00  0.93504578445E-01  0.93504578445E-01  0.00000000000E+00 0. -1.
         22   -1    0    0    0    0 -0.00000000000E+00 -0.00000000000E+00 -0.48212872252E+02  0.48212872252E+02  0.00000000000E+00 0.  1.
          4    1    1    2  501    0  0.23799242207E+00 -0.15843030026E+01 -0.30580306865E+02  0.30648568064E+02  0.12700000000E+01 0.  1.
         -4    1    1    2    0  501 -0.23799242207E+00  0.15843030026E+01 -0.17539060809E+02  0.17657808767E+02  0.12700000000E+01 0. -1.
<mgrwt>
<rscale>  0 0.20443963E+01</rscale>
<asrwt>0</asrwt>
<pdfrwt beam="1">0</pdfrwt>
<pdfrwt beam="2">0</pdfrwt>
<totfact> 0.31434381E+12</totfact>
</mgrwt>
</event>
<event>
 4    1  0.1733759E+006  0.2689229E+01  0.7546771E-02  0.2630560E+00
         22   -1    0    0    0    0  0.00000000000E+00  0.00000000000E+00  0.29914160830E+02  0.29914160830E+02  0.00000000000E+00 0. -1.
         22   -1    0    0    0    0 -0.00000000000E+00 -0.00000000000E+00 -0.24924045751E+00  0.24924045751E+00  0.00000000000E+00 0. -1.
          4    1    1    2  501    0 -0.16460624043E+01 -0.17057344747E+01  0.12219106140E+02  0.12511534933E+02  0.12700000000E+01 0. -1.
         -4    1    1    2    0  501  0.16460624043E+01  0.17057344747E+01  0.17445814233E+02  0.17651866354E+02  0.12700000000E+01 0. -1.
<mgrwt>
<rscale>  0 0.26892288E+01</rscale>
<asrwt>0</asrwt>
<pdfrwt beam="1">0</pdfrwt>
<pdfrwt beam="2">0</pdfrwt>
<totfact> 0.19592651E+12</totfact>
</mgrwt>
</event>
<event>
 4    1  0.1733759E+006  0.2608254E+01  0.7546771E-02  0.2662646E+00
         22   -1    0    0    0    0  0.00000000000E+00  0.00000000000E+00  0.26125140306E+02  0.26125140306E+02  0.00000000000E+00 0.  1.
         22   -1    0    0    0    0 -0.00000000000E+00 -0.00000000000E+00 -0.80323505527E+00  0.80323505527E+00  0.00000000000E+00 0. -1.
          4    1    1    2  501    0 -0.22392653985E+01 -0.41925860657E+00  0.15923508965E+01  0.30559071782E+01  0.12700000000E+01 0. -1.
         -4    1    1    2    0  501  0.22392653985E+01  0.41925860657E+00  0.23729554354E+02  0.23872468183E+02  0.12700000000E+01 0.  1.
<mgrwt>
<rscale>  0 0.26082537E+01</rscale>
<asrwt>0</asrwt>
<pdfrwt beam="1">0</pdfrwt>
<pdfrwt beam="2">0</pdfrwt>
<totfact> 0.62179473E+11</totfact>
</mgrwt>
</event>
<event>
 4    1  0.1733759E+006  0.2666760E+01  0.7546771E-02  0.2639283E+00
         22   -1    0    0    0    0  0.00000000000E+00  0.00000000000E+00  0.10034680682E+01  0.10034680682E+01  0.00000000000E+00 0. -1.
         22   -1    0    0    0    0 -0.00000000000E+00 -0.00000000000E+00 -0.12118951602E+02  0.12118951602E+02  0.00000000000E+00 0. -1.
          4    1    1    2  501    0  0.17192486346E+01  0.15946459145E+01 -0.97855784144E+01  0.10142443313E+02  0.12700000000E+01 0. -1.
         -4    1    1    2    0  501 -0.17192486346E+01 -0.15946459145E+01 -0.13299051194E+01  0.29799763568E+01  0.12700000000E+01 0. -1.
<mgrwt>
<rscale>  0 0.26667605E+01</rscale>
<asrwt>0</asrwt>
<pdfrwt beam="1">0</pdfrwt>
<pdfrwt beam="2">0</pdfrwt>
<totfact> 0.12513335E+12</totfact>
</mgrwt>
</event>
<event>
 4    1  0.1733759E+006  0.2081584E+01  0.7546771E-02  0.2927751E+00
         22   -1    0    0    0    0  0.00000000000E+00  0.00000000000E+00  0.61894122755E+00  0.61894122755E+00  0.00000000000E+00 0. -1.
         22   -1    0    0    0    0 -0.00000000000E+00 -0.00000000000E+00 -0.19016701468E+02  0.19016701468E+02  0.00000000000E+00 0. -1.
          4    1    1    2  501    0 -0.50899579292E+00 -0.15687624947E+01 -0.17003079831E+02  0.17130023824E+02  0.12700000000E+01 0. -1.
         -4    1    1    2    0  501  0.50899579292E+00  0.15687624947E+01 -0.13946804089E+01  0.25056188707E+01  0.12700000000E+01 0. -1.
<mgrwt>
<rscale>  0 0.20815841E+01</rscale>
<asrwt>0</asrwt>
<pdfrwt beam="1">0</pdfrwt>
<pdfrwt beam="2">0</pdfrwt>
<totfact> 0.12446755E+12</totfact>
</mgrwt>
</event>
<event>
 4    1  0.1733759E+006  0.2984378E+01  0.7546771E-02  0.2527140E+00
         22   -1    0    0    0    0  0.00000000000E+00  0.00000000000E+00  0.85168289662E+00  0.85168289662E+00  0.00000000000E+00 0. -1.
         22   -1    0    0    0    0 -0.00000000000E+00 -0.00000000000E+00 -0.11073652799E+02  0.11073652799E+02  0.00000000000E+00 0.  1.
          4    1    1    2  501    0 -0.16255034911E+01  0.21566984573E+01 -0.65174356243E+01  0.71682269044E+01  0.12700000000E+01 0.  1.
         -4    1    1    2    0  501  0.16255034911E+01 -0.21566984573E+01 -0.37045342785E+01  0.47571087917E+01  0.12700000000E+01 0. -1.
<mgrwt>
<rscale>  0 0.29843776E+01</rscale>
<asrwt>0</asrwt>
<pdfrwt beam="1">0</pdfrwt>
<pdfrwt beam="2">0</pdfrwt>
<totfact> 0.16838517E+12</totfact>
</mgrwt>
</event>
<event>
 4    1  0.1733759E+006  0.3034590E+01  0.7546771E-02  0.2511361E+00
         22   -1    0    0    0    0  0.00000000000E+00  0.00000000000E+00  0.29747486622E+01  0.29747486622E+01  0.00000000000E+00 0.  1.
         22   -1    0    0    0    0 -0.00000000000E+00 -0.00000000000E+00 -0.19833330140E+02  0.19833330140E+02  0.00000000000E+00 0. -1.
          4    1    1    2  501    0 -0.21436108213E+01  0.17322723019E+01 -0.18905609915E+02  0.19147606141E+02  0.12700000000E+01 0. -1.
         -4    1    1    2    0  501  0.21436108213E+01 -0.17322723019E+01  0.20470284371E+01  0.36604726612E+01  0.12700000000E+01 0.  1.
<mgrwt>
<rscale>  0 0.30345897E+01</rscale>
<asrwt>0</asrwt>
<pdfrwt beam="1">0</pdfrwt>
<pdfrwt beam="2">0</pdfrwt>
<totfact> 0.19450444E+11</totfact>
</mgrwt>
</event>
<event>
 4    1  0.1733759E+006  0.2678340E+01  0.7546771E-02  0.2634771E+00
         22   -1    0    0    0    0  0.00000000000E+00  0.00000000000E+00  0.10142561438E+02  0.10142561438E+02  0.00000000000E+00 0. -1.
         22   -1    0    0    0    0 -0.00000000000E+00 -0.00000000000E+00 -0.11549746946E+01  0.11549746946E+01  0.00000000000E+00 0. -1.
          4    1    1    2  501    0  0.60285515439E+00  0.22797299906E+01  0.97685637087E+00  0.28509211733E+01  0.12700000000E+01 0. -1.
         -4    1    1    2    0  501 -0.60285515439E+00 -0.22797299906E+01  0.80107303723E+01  0.84466149589E+01  0.12700000000E+01 0. -1.
<mgrwt>
<rscale>  0 0.26783396E+01</rscale>
<asrwt>0</asrwt>
<pdfrwt beam="1">0</pdfrwt>
<pdfrwt beam="2">0</pdfrwt>
<totfact> 0.13229127E+12</totfact>
</mgrwt>
</event>
<event>
 4    1  0.1733759E+006  0.2236025E+01  0.7546771E-02  0.2837745E+00
         22   -1    0    0    0    0  0.00000000000E+00  0.00000000000E+00  0.10509797179E+02  0.10509797179E+02  0.00000000000E+00 0.  1.
         22   -1    0    0    0    0 -0.00000000000E+00 -0.00000000000E+00 -0.20931454393E+01  0.20931454393E+01  0.00000000000E+00 0. -1.
          4    1    1    2  501    0  0.30523719759E+00  0.18148658583E+01 -0.13309536687E+01  0.26021616973E+01  0.12700000000E+01 0. -1.
         -4    1    1    2    0  501 -0.30523719759E+00 -0.18148658583E+01  0.97476054084E+01  0.10000780921E+02  0.12700000000E+01 0.  1.
<mgrwt>
<rscale>  0 0.22360250E+01</rscale>
<asrwt>0</asrwt>
<pdfrwt beam="1">0</pdfrwt>
<pdfrwt beam="2">0</pdfrwt>
<totfact> 0.63888499E+11</totfact>
</mgrwt>
</event>
<event>
 4    1  0.1733759E+006  0.2192638E+01  0.7546771E-02  0.2861797E+00
         22   -1    0    0    0    0  0.00000000000E+00  0.00000000000E+00  0.18533372179E+02  0.18533372179E+02  0.00000000000E+00 0.  1.
         22   -1    0    0    0    0 -0.00000000000E+00 -0.00000000000E+00 -0.33410071490E+00  0.33410071490E+00  0.00000000000E+00 0.  1.
          4    1    1    2  501    0  0.12105942014E+01 -0.13150000574E+01  0.46390624877E+01  0.51311367392E+01  0.12700000000E+01 0.  1.
         -4    1    1    2    0  501 -0.12105942014E+01  0.13150000574E+01  0.13560208976E+02  0.13736336154E+02  0.12700000000E+01 0.  1.
<mgrwt>
<rscale>  0 0.21926385E+01</rscale>
<asrwt>0</asrwt>
<pdfrwt beam="1">0</pdfrwt>
<pdfrwt beam="2">0</pdfrwt>
<totfact> 0.25760117E+12</totfact>
</mgrwt>
</event>
<event>
 4    1  0.1733759E+006  0.2519396E+01  0.7546771E-02  0.2700040E+00
         22   -1    0    0    0    0  0.00000000000E+00  0.00000000000E+00  0.32726898003E+01  0.32726898003E+01  0.00000000000E+00 0.  1.
         22   -1    0    0    0    0 -0.00000000000E+00 -0.00000000000E+00 -0.30296268124E+01  0.30296268124E+01  0.00000000000E+00 0. -1.
          4    1    1    2  501    0  0.21724615776E+01 -0.12193685069E+00 -0.17687027350E+01  0.30782571800E+01  0.12700000000E+01 0. -1.
         -4    1    1    2    0  501 -0.21724615776E+01  0.12193685069E+00  0.20117657229E+01  0.32240594327E+01  0.12700000000E+01 0.  1.
<mgrwt>
<rscale>  0 0.25193963E+01</rscale>
<asrwt>0</asrwt>
<pdfrwt beam="1">0</pdfrwt>
<pdfrwt beam="2">0</pdfrwt>
<totfact> 0.16662438E+12</totfact>
</mgrwt>
</event>
<event>
 4    1  0.1733759E+006  0.2613073E+01  0.7546771E-02  0.2660686E+00
         22   -1    0    0    0    0  0.00000000000E+00  0.00000000000E+00  0.15525747150E+01  0.15525747150E+01  0.00000000000E+00 0. -1.
         22   -1    0    0    0    0 -0.00000000000E+00 -0.00000000000E+00 -0.11301586317E+02  0.11301586317E+02  0.00000000000E+00 0.  1.
          4    1    1    2  501    0 -0.22673049258E+01  0.27308939179E+00 -0.98977341313E+01  0.10236859400E+02  0.12700000000E+01 0.  1.
         -4    1    1    2    0  501  0.22673049258E+01 -0.27308939179E+00  0.14872252915E+00  0.26173016320E+01  0.12700000000E+01 0. -1.
<mgrwt>
<rscale>  0 0.26130728E+01</rscale>
<asrwt>0</asrwt>
<pdfrwt beam="1">0</pdfrwt>
<pdfrwt beam="2">0</pdfrwt>
<totfact> 0.82598398E+11</totfact>
</mgrwt>
</event>
<event>
 4    1  0.1733759E+006  0.2420595E+01  0.7546771E-02  0.2744607E+00
         22   -1    0    0    0    0  0.00000000000E+00  0.00000000000E+00  0.18195058034E+01  0.18195058034E+01  0.00000000000E+00 0. -1.
         22   -1    0    0    0    0 -0.00000000000E+00 -0.00000000000E+00 -0.44006819626E+02  0.44006819626E+02  0.00000000000E+00 0.  1.
          4    1    1    2  501    0  0.14573322201E+00  0.20555150373E+01 -0.43152543555E+02  0.43220380557E+02  0.12700000000E+01 0.  1.
         -4    1    1    2    0  501 -0.14573322201E+00 -0.20555150373E+01  0.96522973246E+00  0.26059448722E+01  0.12700000000E+01 0. -1.
<mgrwt>
<rscale>  0 0.24205950E+01</rscale>
<asrwt>0</asrwt>
<pdfrwt beam="1">0</pdfrwt>
<pdfrwt beam="2">0</pdfrwt>
<totfact> 0.12467716E+11</totfact>
</mgrwt>
</event>
<event>
 4    1  0.1733759E+006  0.2159942E+01  0.7546771E-02  0.2880535E+00
         22   -1    0    0    0    0  0.00000000000E+00  0.00000000000E+00  0.71221213686E+00  0.71221213686E+00  0.00000000000E+00 0.  1.
         22   -1    0    0    0    0 -0.00000000000E+00 -0.00000000000E+00 -0.24066856006E+02  0.24066856006E+02  0.00000000000E+00 0. -1.
          4    1    1    2  501    0  0.16576344266E-01 -0.17470477468E+01 -0.22247129708E+02  0.22351736641E+02  0.12700000000E+01 0. -1.
         -4    1    1    2    0  501 -0.16576344266E-01  0.17470477468E+01 -0.11075141611E+01  0.24273315023E+01  0.12700000000E+01 0.  1.
<mgrwt>
<rscale>  0 0.21599423E+01</rscale>
<asrwt>0</asrwt>
<pdfrwt beam="1">0</pdfrwt>
<pdfrwt beam="2">0</pdfrwt>
<totfact> 0.79058060E+11</totfact>
</mgrwt>
</event>
<event>
 4    1  0.1733759E+006  0.2355785E+01  0.7546771E-02  0.2775739E+00
         22   -1    0    0    0    0  0.00000000000E+00  0.00000000000E+00  0.10655942000E+02  0.10655942000E+02  0.00000000000E+00 0.  1.
         22   -1    0    0    0    0 -0.00000000000E+00 -0.00000000000E+00 -0.52693038679E+00  0.52693038679E+00  0.00000000000E+00 0.  1.
          4    1    1    2  501    0  0.17117919354E+01 -0.10032898451E+01  0.56671110243E+01  0.61372526024E+01  0.12700000000E+01 0.  1.
         -4    1    1    2    0  501 -0.17117919354E+01  0.10032898451E+01  0.44619005886E+01  0.50456197841E+01  0.12700000000E+01 0.  1.
<mgrwt>
<rscale>  0 0.23557848E+01</rscale>
<asrwt>0</asrwt>
<pdfrwt beam="1">0</pdfrwt>
<pdfrwt beam="2">0</pdfrwt>
<totfact> 0.30416897E+12</totfact>
</mgrwt>
</event>
<event>
 4    1  0.1733759E+006  0.2452089E+01  0.7546771E-02  0.2730037E+00
         22   -1    0    0    0    0  0.00000000000E+00  0.00000000000E+00  0.11989126599E+02  0.11989126599E+02  0.00000000000E+00 0.  1.
         22   -1    0    0    0    0 -0.00000000000E+00 -0.00000000000E+00 -0.61341897042E+00  0.61341897042E+00  0.00000000000E+00 0. -1.
          4    1    1    2  501    0 -0.61306718625E+00  0.20059881563E+01  0.29965029573E+01  0.38719206902E+01  0.12700000000E+01 0. -1.
         -4    1    1    2    0  501  0.61306718625E+00 -0.20059881563E+01  0.83792046712E+01  0.87306248792E+01  0.12700000000E+01 0.  1.
<mgrwt>
<rscale>  0 0.24520889E+01</rscale>
<asrwt>0</asrwt>
<pdfrwt beam="1">0</pdfrwt>
<pdfrwt beam="2">0</pdfrwt>
<totfact> 0.22190196E+12</totfact>
</mgrwt>
</event>
<event>
 4    1  0.1733759E+006  0.3563582E+01  0.7546771E-02  0.2369384E+00
         22   -1    0    0    0    0  0.00000000000E+00  0.00000000000E+00  0.35499286026E+01  0.35499286026E+01  0.00000000000E+00 0.  1.
         22   -1    0    0    0    0 -0.00000000000E+00 -0.00000000000E+00 -0.37132949252E+01  0.37132949252E+01  0.00000000000E+00 0. -1.
          4    1    1    2  501    0  0.29651732602E+01  0.15145828761E+01  0.61334381337E+00  0.36159790355E+01  0.12700000000E+01 0.  1.
         -4    1    1    2    0  501 -0.29651732602E+01 -0.15145828761E+01 -0.77671013592E+00  0.36472444923E+01  0.12700000000E+01 0. -1.
<mgrwt>
<rscale>  0 0.35635816E+01</rscale>
<asrwt>0</asrwt>
<pdfrwt beam="1">0</pdfrwt>
<pdfrwt beam="2">0</pdfrwt>
<totfact> 0.11935639E+12</totfact>
</mgrwt>
</event>
<event>
 4    1  0.1733759E+006  0.2460631E+01  0.7546771E-02  0.2726145E+00
         22   -1    0    0    0    0  0.00000000000E+00  0.00000000000E+00  0.41324549715E+02  0.41324549715E+02  0.00000000000E+00 0. -1.
         22   -1    0    0    0    0 -0.00000000000E+00 -0.00000000000E+00 -0.31504072870E+00  0.31504072870E+00  0.00000000000E+00 0. -1.
          4    1    1    2  501    0  0.54591286310E+00  0.20356284266E+01  0.52773796675E+01  0.58228378047E+01  0.12700000000E+01 0. -1.
         -4    1    1    2    0  501 -0.54591286310E+00 -0.20356284266E+01  0.35732129319E+02  0.35816752639E+02  0.12700000000E+01 0. -1.
<mgrwt>
<rscale>  0 0.24606308E+01</rscale>
<asrwt>0</asrwt>
<pdfrwt beam="1">0</pdfrwt>
<pdfrwt beam="2">0</pdfrwt>
<totfact> 0.99423074E+11</totfact>
</mgrwt>
</event>
<event>
 4    1  0.1733759E+006  0.2086091E+01  0.7546771E-02  0.2924943E+00
         22   -1    0    0    0    0  0.00000000000E+00  0.00000000000E+00  0.22442001769E+01  0.22442001769E+01  0.00000000000E+00 0. -1.
         22   -1    0    0    0    0 -0.00000000000E+00 -0.00000000000E+00 -0.30246395490E+01  0.30246395490E+01  0.00000000000E+00 0. -1.
          4    1    1    2  501    0 -0.14351306184E+01  0.82418109447E+00 -0.19684374280E+01  0.28681911157E+01  0.12700000000E+01 0. -1.
         -4    1    1    2    0  501  0.14351306184E+01 -0.82418109447E+00  0.11879980559E+01  0.24006486101E+01  0.12700000000E+01 0. -1.
<mgrwt>
<rscale>  0 0.20860907E+01</rscale>
<asrwt>0</asrwt>
<pdfrwt beam="1">0</pdfrwt>
<pdfrwt beam="2">0</pdfrwt>
<totfact> 0.25911417E+12</totfact>
</mgrwt>
</event>
<event>
 4    1  0.1733759E+006  0.3522784E+01  0.7546771E-02  0.2378994E+00
         22   -1    0    0    0    0  0.00000000000E+00  0.00000000000E+00  0.96320428255E+02  0.96320428255E+02  0.00000000000E+00 0. -1.
         22   -1    0    0    0    0 -0.00000000000E+00 -0.00000000000E+00 -0.40584275470E+00  0.40584275470E+00  0.00000000000E+00 0.  1.
          4    1    1    2  501    0  0.25805953467E+01  0.20341175562E+01  0.80017602798E+01  0.87428927793E+01  0.12700000000E+01 0.  1.
         -4    1    1    2    0  501 -0.25805953467E+01 -0.20341175562E+01  0.87912825221E+02  0.87983378231E+02  0.12700000000E+01 0. -1.
<mgrwt>
<rscale>  0 0.35227839E+01</rscale>
<asrwt>0</asrwt>
<pdfrwt beam="1">0</pdfrwt>
<pdfrwt beam="2">0</pdfrwt>
<totfact> 0.23934410E+11</totfact>
</mgrwt>
</event>
<event>
 4    1  0.1733759E+006  0.2286417E+01  0.7546771E-02  0.2810903E+00
         22   -1    0    0    0    0  0.00000000000E+00  0.00000000000E+00  0.25436137979E+00  0.25436137979E+00  0.00000000000E+00 0. -1.
         22   -1    0    0    0    0 -0.00000000000E+00 -0.00000000000E+00 -0.22152826364E+02  0.22152826364E+02  0.00000000000E+00 0. -1.
          4    1    1    2  501    0  0.18856676188E+01  0.24302032748E+00 -0.13960709897E+02  0.14146700042E+02  0.12700000000E+01 0. -1.
         -4    1    1    2    0  501 -0.18856676188E+01 -0.24302032748E+00 -0.79377550875E+01  0.82604877021E+01  0.12700000000E+01 0. -1.
<mgrwt>
<rscale>  0 0.22864167E+01</rscale>
<asrwt>0</asrwt>
<pdfrwt beam="1">0</pdfrwt>
<pdfrwt beam="2">0</pdfrwt>
<totfact> 0.27990877E+12</totfact>
</mgrwt>
</event>
<event>
 4    1  0.1733759E+006  0.4299948E+01  0.7546771E-02  0.2223381E+00
         22   -1    0    0    0    0  0.00000000000E+00  0.00000000000E+00  0.53874476728E+01  0.53874476728E+01  0.00000000000E+00 0. -1.
         22   -1    0    0    0    0 -0.00000000000E+00 -0.00000000000E+00 -0.35133325958E+01  0.35133325958E+01  0.00000000000E+00 0.  1.
          4    1    1    2  501    0 -0.28857909632E+01 -0.29238433428E+01  0.25979740347E+00  0.43077887677E+01  0.12700000000E+01 0.  1.
         -4    1    1    2    0  501  0.28857909632E+01  0.29238433428E+01  0.16143176735E+01  0.45929915009E+01  0.12700000000E+01 0. -1.
<mgrwt>
<rscale>  0 0.42999476E+01</rscale>
<asrwt>0</asrwt>
<pdfrwt beam="1">0</pdfrwt>
<pdfrwt beam="2">0</pdfrwt>
<totfact> 0.77866306E+11</totfact>
</mgrwt>
</event>
<event>
 4    1  0.1733759E+006  0.4610124E+01  0.7546771E-02  0.2173918E+00
         22   -1    0    0    0    0  0.00000000000E+00  0.00000000000E+00  0.92092203852E+01  0.92092203852E+01  0.00000000000E+00 0.  1.
         22   -1    0    0    0    0 -0.00000000000E+00 -0.00000000000E+00 -0.24184534035E+01  0.24184534035E+01  0.00000000000E+00 0. -1.
          4    1    1    2  501    0 -0.17396782680E+01 -0.40760109047E+01  0.46388450039E+01  0.65400403929E+01  0.12700000000E+01 0.  1.
         -4    1    1    2    0  501  0.17396782680E+01  0.40760109047E+01  0.21519219779E+01  0.50876333958E+01  0.12700000000E+01 0. -1.
<mgrwt>
<rscale>  0 0.46101242E+01</rscale>
<asrwt>0</asrwt>
<pdfrwt beam="1">0</pdfrwt>
<pdfrwt beam="2">0</pdfrwt>
<totfact> 0.63398397E+11</totfact>
</mgrwt>
</event>
<event>
 4    1  0.1733759E+006  0.2847758E+01  0.7546771E-02  0.2572595E+00
         22   -1    0    0    0    0  0.00000000000E+00  0.00000000000E+00  0.22917044935E+01  0.22917044935E+01  0.00000000000E+00 0. -1.
         22   -1    0    0    0    0 -0.00000000000E+00 -0.00000000000E+00 -0.35475845585E+01  0.35475845585E+01  0.00000000000E+00 0.  1.
          4    1    1    2  501    0  0.16011275929E+01  0.19832330808E+01 -0.77380518698E+00  0.29510163485E+01  0.12700000000E+01 0.  1.
         -4    1    1    2    0  501 -0.16011275929E+01 -0.19832330808E+01 -0.48207487806E+00  0.28882727035E+01  0.12700000000E+01 0. -1.
<mgrwt>
<rscale>  0 0.28477575E+01</rscale>
<asrwt>0</asrwt>
<pdfrwt beam="1">0</pdfrwt>
<pdfrwt beam="2">0</pdfrwt>
<totfact> 0.20983862E+12</totfact>
</mgrwt>
</event>
<event>
 4    1  0.1733759E+006  0.2251041E+01  0.7546771E-02  0.2829625E+00
         22   -1    0    0    0    0  0.00000000000E+00  0.00000000000E+00  0.37962119926E+01  0.37962119926E+01  0.00000000000E+00 0. -1.
         22   -1    0    0    0    0 -0.00000000000E+00 -0.00000000000E+00 -0.19594796441E+01  0.19594796441E+01  0.00000000000E+00 0. -1.
          4    1    1    2  501    0  0.17447200140E+01  0.64049959292E+00 -0.70652943711E+00  0.23593158969E+01  0.12700000000E+01 0. -1.
         -4    1    1    2    0  501 -0.17447200140E+01 -0.64049959292E+00  0.25432617856E+01  0.33963757398E+01  0.12700000000E+01 0. -1.
<mgrwt>
<rscale>  0 0.22510415E+01</rscale>
<asrwt>0</asrwt>
<pdfrwt beam="1">0</pdfrwt>
<pdfrwt beam="2">0</pdfrwt>
<totfact> 0.23235533E+12</totfact>
</mgrwt>
</event>
<event>
 4    1  0.1733759E+006  0.2028672E+01  0.7546771E-02  0.2961636E+00
         22   -1    0    0    0    0  0.00000000000E+00  0.00000000000E+00  0.70163239839E+02  0.70163239839E+02  0.00000000000E+00 0. -1.
         22   -1    0    0    0    0 -0.00000000000E+00 -0.00000000000E+00 -0.71557130360E-01  0.71557130360E-01  0.00000000000E+00 0.  1.
          4    1    1    2  501    0 -0.11011182986E+01  0.11358468695E+01  0.20134859155E+02  0.20236799718E+02  0.12700000000E+01 0.  1.
         -4    1    1    2    0  501  0.11011182986E+01 -0.11358468695E+01  0.49956823553E+02  0.49997997252E+02  0.12700000000E+01 0. -1.
<mgrwt>
<rscale>  0 0.20286719E+01</rscale>
<asrwt>0</asrwt>
<pdfrwt beam="1">0</pdfrwt>
<pdfrwt beam="2">0</pdfrwt>
<totfact> 0.25595313E+12</totfact>
</mgrwt>
</event>
<event>
 4    1  0.1733759E+006  0.2887868E+01  0.7546771E-02  0.2558848E+00
         22   -1    0    0    0    0  0.00000000000E+00  0.00000000000E+00  0.11417282655E+02  0.11417282655E+02  0.00000000000E+00 0.  1.
         22   -1    0    0    0    0 -0.00000000000E+00 -0.00000000000E+00 -0.10802843897E+01  0.10802843897E+01  0.00000000000E+00 0.  1.
          4    1    1    2  501    0  0.12842328896E+01 -0.22533593820E+01  0.16125451718E+01  0.33075798630E+01  0.12700000000E+01 0.  1.
         -4    1    1    2    0  501 -0.12842328896E+01  0.22533593820E+01  0.87244530933E+01  0.91899871815E+01  0.12700000000E+01 0.  1.
<mgrwt>
<rscale>  0 0.28878682E+01</rscale>
<asrwt>0</asrwt>
<pdfrwt beam="1">0</pdfrwt>
<pdfrwt beam="2">0</pdfrwt>
<totfact> 0.12368787E+12</totfact>
</mgrwt>
</event>
<event>
 4    1  0.1733759E+006  0.2056002E+01  0.7546771E-02  0.2943922E+00
         22   -1    0    0    0    0  0.00000000000E+00  0.00000000000E+00  0.59560519011E+01  0.59560519011E+01  0.00000000000E+00 0.  1.
         22   -1    0    0    0    0 -0.00000000000E+00 -0.00000000000E+00 -0.82348275496E+00  0.82348275496E+00  0.00000000000E+00 0.  1.
          4    1    1    2  501    0  0.15745208937E+01 -0.36759630395E+00  0.13063783516E+01  0.24359325699E+01  0.12700000000E+01 0.  1.
         -4    1    1    2    0  501 -0.15745208937E+01  0.36759630395E+00  0.38261907946E+01  0.43436020863E+01  0.12700000000E+01 0.  1.
<mgrwt>
<rscale>  0 0.20560017E+01</rscale>
<asrwt>0</asrwt>
<pdfrwt beam="1">0</pdfrwt>
<pdfrwt beam="2">0</pdfrwt>
<totfact> 0.36874647E+12</totfact>
</mgrwt>
</event>
<event>
 4    1  0.1733759E+006  0.2254298E+01  0.7546771E-02  0.2827878E+00
         22   -1    0    0    0    0  0.00000000000E+00  0.00000000000E+00  0.45306856277E+01  0.45306856277E+01  0.00000000000E+00 0. -1.
         22   -1    0    0    0    0 -0.00000000000E+00 -0.00000000000E+00 -0.18691414828E+01  0.18691414828E+01  0.00000000000E+00 0. -1.
          4    1    1    2  501    0 -0.13529611357E+01  0.12800217357E+01 -0.69280271649E+00  0.23583543165E+01  0.12700000000E+01 0. -1.
         -4    1    1    2    0  501  0.13529611357E+01 -0.12800217357E+01  0.33543468613E+01  0.40414727940E+01  0.12700000000E+01 0. -1.
<mgrwt>
<rscale>  0 0.22542980E+01</rscale>
<asrwt>0</asrwt>
<pdfrwt beam="1">0</pdfrwt>
<pdfrwt beam="2">0</pdfrwt>
<totfact> 0.19924086E+12</totfact>
</mgrwt>
</event>
<event>
 4    1  0.1733759E+006  0.2084681E+01  0.7546771E-02  0.2925820E+00
         22   -1    0    0    0    0  0.00000000000E+00  0.00000000000E+00  0.18143138722E+01  0.18143138722E+01  0.00000000000E+00 0. -1.
         22   -1    0    0    0    0 -0.00000000000E+00 -0.00000000000E+00 -0.27780259275E+01  0.27780259275E+01  0.00000000000E+00 0.  1.
          4    1    1    2  501    0  0.15229432739E+01 -0.64314699183E+00 -0.13340892694E+01  0.24750128176E+01  0.12700000000E+01 0.  1.
         -4    1    1    2    0  501 -0.15229432739E+01  0.64314699183E+00  0.37037721399E+00  0.21173269821E+01  0.12700000000E+01 0. -1.
<mgrwt>
<rscale>  0 0.20846809E+01</rscale>
<asrwt>0</asrwt>
<pdfrwt beam="1">0</pdfrwt>
<pdfrwt beam="2">0</pdfrwt>
<totfact> 0.36603069E+12</totfact>
</mgrwt>
</event>
<event>
 4    1  0.1733759E+006  0.4562604E+01  0.7546771E-02  0.2181129E+00
         22   -1    0    0    0    0  0.00000000000E+00  0.00000000000E+00  0.53271719262E+02  0.53271719262E+02  0.00000000000E+00 0. -1.
         22   -1    0    0    0    0 -0.00000000000E+00 -0.00000000000E+00 -0.49162270815E+00  0.49162270815E+00  0.00000000000E+00 0.  1.
          4    1    1    2  501    0  0.40872021962E+01  0.15808953096E+01  0.14215035013E+02  0.14929319214E+02  0.12700000000E+01 0.  1.
         -4    1    1    2    0  501 -0.40872021962E+01 -0.15808953096E+01  0.38565061541E+02  0.38834022756E+02  0.12700000000E+01 0. -1.
<mgrwt>
<rscale>  0 0.45626036E+01</rscale>
<asrwt>0</asrwt>
<pdfrwt beam="1">0</pdfrwt>
<pdfrwt beam="2">0</pdfrwt>
<totfact> 0.43174062E+11</totfact>
</mgrwt>
</event>
<event>
 4    1  0.1733759E+006  0.2339971E+01  0.7546771E-02  0.2783582E+00
         22   -1    0    0    0    0  0.00000000000E+00  0.00000000000E+00  0.15702028529E+00  0.15702028529E+00  0.00000000000E+00 0.  1.
         22   -1    0    0    0    0 -0.00000000000E+00 -0.00000000000E+00 -0.35467303586E+02  0.35467303586E+02  0.00000000000E+00 0. -1.
          4    1    1    2  501    0  0.68751306631E+00 -0.18411657260E+01 -0.15345681015E+02  0.15523059984E+02  0.12700000000E+01 0. -1.
         -4    1    1    2    0  501 -0.68751306631E+00  0.18411657260E+01 -0.19964602286E+02  0.20101263887E+02  0.12700000000E+01 0. -1.
<mgrwt>
<rscale>  0 0.23399712E+01</rscale>
<asrwt>0</asrwt>
<pdfrwt beam="1">0</pdfrwt>
<pdfrwt beam="2">0</pdfrwt>
<totfact> 0.26374859E+12</totfact>
</mgrwt>
</event>
<event>
 4    1  0.1733759E+006  0.2288070E+01  0.7546771E-02  0.2810041E+00
         22   -1    0    0    0    0  0.00000000000E+00  0.00000000000E+00  0.82232153849E+01  0.82232153849E+01  0.00000000000E+00 0. -1.
         22   -1    0    0    0    0 -0.00000000000E+00 -0.00000000000E+00 -0.98684537797E+00  0.98684537797E+00  0.00000000000E+00 0.  1.
          4    1    1    2  501    0 -0.18661486715E+01 -0.37396992983E+00  0.87492737757E+00  0.24496453393E+01  0.12700000000E+01 0.  1.
         -4    1    1    2    0  501  0.18661486715E+01  0.37396992983E+00  0.63614426294E+01  0.67604154236E+01  0.12700000000E+01 0. -1.
<mgrwt>
<rscale>  0 0.22880700E+01</rscale>
<asrwt>0</asrwt>
<pdfrwt beam="1">0</pdfrwt>
<pdfrwt beam="2">0</pdfrwt>
<totfact> 0.20398197E+12</totfact>
</mgrwt>
</event>
<event>
 4    1  0.1733759E+006  0.3237521E+01  0.7546771E-02  0.2452062E+00
         22   -1    0    0    0    0  0.00000000000E+00  0.00000000000E+00  0.87555206550E+01  0.87555206550E+01  0.00000000000E+00 0. -1.
         22   -1    0    0    0    0 -0.00000000000E+00 -0.00000000000E+00 -0.12078622106E+01  0.12078622106E+01  0.00000000000E+00 0.  1.
          4    1    1    2  501    0 -0.29116551647E+01  0.62522271646E+00  0.42433056448E+01  0.53373384789E+01  0.12700000000E+01 0. -1.
         -4    1    1    2    0  501  0.29116551647E+01 -0.62522271646E+00  0.33043527996E+01  0.46260443867E+01  0.12700000000E+01 0.  1.
<mgrwt>
<rscale>  0 0.32375205E+01</rscale>
<asrwt>0</asrwt>
<pdfrwt beam="1">0</pdfrwt>
<pdfrwt beam="2">0</pdfrwt>
<totfact> 0.15011853E+12</totfact>
</mgrwt>
</event>
<event>
 4    1  0.1733759E+006  0.2059615E+01  0.7546771E-02  0.2941614E+00
         22   -1    0    0    0    0  0.00000000000E+00  0.00000000000E+00  0.64592803941E+01  0.64592803941E+01  0.00000000000E+00 0.  1.
         22   -1    0    0    0    0 -0.00000000000E+00 -0.00000000000E+00 -0.89961168772E+00  0.89961168772E+00  0.00000000000E+00 0. -1.
          4    1    1    2  501    0 -0.12726635664E+01  0.10047086133E+01  0.86799643709E+00  0.22350458084E+01  0.12700000000E+01 0. -1.
         -4    1    1    2    0  501  0.12726635664E+01 -0.10047086133E+01  0.46916722693E+01  0.51238462734E+01  0.12700000000E+01 0.  1.
<mgrwt>
<rscale>  0 0.20596145E+01</rscale>
<asrwt>0</asrwt>
<pdfrwt beam="1">0</pdfrwt>
<pdfrwt beam="2">0</pdfrwt>
<totfact> 0.30270153E+12</totfact>
</mgrwt>
</event>
<event>
 4    1  0.1733759E+006  0.2002261E+01  0.7546771E-02  0.2979204E+00
         22   -1    0    0    0    0  0.00000000000E+00  0.00000000000E+00  0.26147316303E+00  0.26147316303E+00  0.00000000000E+00 0. -1.
         22   -1    0    0    0    0 -0.00000000000E+00 -0.00000000000E+00 -0.20120077772E+02  0.20120077772E+02  0.00000000000E+00 0. -1.
          4    1    1    2  501    0  0.94817299552E+00  0.12235675488E+01 -0.14900352999E+02  0.15034279799E+02  0.12700000000E+01 0. -1.
         -4    1    1    2    0  501 -0.94817299552E+00 -0.12235675488E+01 -0.49582516099E+01  0.53472711361E+01  0.12700000000E+01 0. -1.
<mgrwt>
<rscale>  0 0.20022611E+01</rscale>
<asrwt>0</asrwt>
<pdfrwt beam="1">0</pdfrwt>
<pdfrwt beam="2">0</pdfrwt>
<totfact> 0.30608624E+12</totfact>
</mgrwt>
</event>
<event>
 4    1  0.1733759E+006  0.2139834E+01  0.7546771E-02  0.2892333E+00
         22   -1    0    0    0    0  0.00000000000E+00  0.00000000000E+00  0.40172772280E+02  0.40172772280E+02  0.00000000000E+00 0. -1.
         22   -1    0    0    0    0 -0.00000000000E+00 -0.00000000000E+00 -0.15033240140E+00  0.15033240140E+00  0.00000000000E+00 0.  1.
          4    1    1    2  501    0 -0.17200331986E+01 -0.86448470138E-01  0.10096853365E+02  0.10321111153E+02  0.12700000000E+01 0.  1.
         -4    1    1    2    0  501  0.17200331986E+01  0.86448470138E-01  0.29925586513E+02  0.30001993529E+02  0.12700000000E+01 0. -1.
<mgrwt>
<rscale>  0 0.21398335E+01</rscale>
<asrwt>0</asrwt>
<pdfrwt beam="1">0</pdfrwt>
<pdfrwt beam="2">0</pdfrwt>
<totfact> 0.23563908E+12</totfact>
</mgrwt>
</event>
<event>
 4    1  0.1733759E+006  0.2160519E+01  0.7546771E-02  0.2880200E+00
         22   -1    0    0    0    0  0.00000000000E+00  0.00000000000E+00  0.31526190970E+02  0.31526190970E+02  0.00000000000E+00 0.  1.
         22   -1    0    0    0    0 -0.00000000000E+00 -0.00000000000E+00 -0.32706152454E+00  0.32706152454E+00  0.00000000000E+00 0. -1.
          4    1    1    2  501    0  0.13331444599E+01 -0.11303398086E+01  0.38171430262E+01  0.43861626869E+01  0.12700000000E+01 0. -1.
         -4    1    1    2    0  501 -0.13331444599E+01  0.11303398086E+01  0.27381986419E+02  0.27467089807E+02  0.12700000000E+01 0.  1.
<mgrwt>
<rscale>  0 0.21605190E+01</rscale>
<asrwt>0</asrwt>
<pdfrwt beam="1">0</pdfrwt>
<pdfrwt beam="2">0</pdfrwt>
<totfact> 0.13512584E+12</totfact>
</mgrwt>
</event>
<event>
 4    1  0.1733759E+006  0.2031478E+01  0.7546771E-02  0.2959796E+00
         22   -1    0    0    0    0  0.00000000000E+00  0.00000000000E+00  0.60763932873E+01  0.60763932873E+01  0.00000000000E+00 0. -1.
         22   -1    0    0    0    0 -0.00000000000E+00 -0.00000000000E+00 -0.79187074821E+00  0.79187074821E+00  0.00000000000E+00 0. -1.
          4    1    1    2  501    0  0.11410283543E+01  0.11009340937E+01  0.13467117686E+01  0.24373211056E+01  0.12700000000E+01 0. -1.
         -4    1    1    2    0  501 -0.11410283543E+01 -0.11009340937E+01  0.39378107705E+01  0.44309429300E+01  0.12700000000E+01 0. -1.
<mgrwt>
<rscale>  0 0.20314777E+01</rscale>
<asrwt>0</asrwt>
<pdfrwt beam="1">0</pdfrwt>
<pdfrwt beam="2">0</pdfrwt>
<totfact> 0.37646491E+12</totfact>
</mgrwt>
</event>
<event>
 4    1  0.1733759E+006  0.2136183E+01  0.7546771E-02  0.2894498E+00
         22   -1    0    0    0    0  0.00000000000E+00  0.00000000000E+00  0.63395711962E-01  0.63395711962E-01  0.00000000000E+00 0.  1.
         22   -1    0    0    0    0 -0.00000000000E+00 -0.00000000000E+00 -0.11702634546E+03  0.11702634546E+03  0.00000000000E+00 0. -1.
          4    1    1    2  501    0 -0.16900758074E+01  0.30663043285E+00 -0.94803714550E+02  0.94827778477E+02  0.12700000000E+01 0. -1.
         -4    1    1    2    0  501  0.16900758074E+01 -0.30663043285E+00 -0.22159235195E+02  0.22261962692E+02  0.12700000000E+01 0.  1.
<mgrwt>
<rscale>  0 0.21361832E+01</rscale>
<asrwt>0</asrwt>
<pdfrwt beam="1">0</pdfrwt>
<pdfrwt beam="2">0</pdfrwt>
<totfact> 0.14339857E+12</totfact>
</mgrwt>
</event>
<event>
 4    1  0.1733759E+006  0.2116162E+01  0.7546771E-02  0.2906499E+00
         22   -1    0    0    0    0  0.00000000000E+00  0.00000000000E+00  0.60597025758E-01  0.60597025758E-01  0.00000000000E+00 0.  1.
         22   -1    0    0    0    0 -0.00000000000E+00 -0.00000000000E+00 -0.74269149031E+02  0.74269149031E+02  0.00000000000E+00 0. -1.
          4    1    1    2  501    0  0.44836555516E+00  0.16322411623E+01 -0.39723116367E+02  0.39779443395E+02  0.12700000000E+01 0.  1.
         -4    1    1    2    0  501 -0.44836555516E+00 -0.16322411623E+01 -0.34485435638E+02  0.34550302662E+02  0.12700000000E+01 0. -1.
<mgrwt>
<rscale>  0 0.21161623E+01</rscale>
<asrwt>0</asrwt>
<pdfrwt beam="1">0</pdfrwt>
<pdfrwt beam="2">0</pdfrwt>
<totfact> 0.28455102E+12</totfact>
</mgrwt>
</event>
<event>
 4    1  0.1733759E+006  0.3079708E+01  0.7546771E-02  0.2497576E+00
         22   -1    0    0    0    0  0.00000000000E+00  0.00000000000E+00  0.51994913103E+00  0.51994913103E+00  0.00000000000E+00 0. -1.
         22   -1    0    0    0    0 -0.00000000000E+00 -0.00000000000E+00 -0.18746264566E+02  0.18746264566E+02  0.00000000000E+00 0.  1.
          4    1    1    2  501    0  0.28002577995E+01  0.17394497927E+00 -0.75322882163E+01  0.81375651378E+01  0.12700000000E+01 0. -1.
         -4    1    1    2    0  501 -0.28002577995E+01 -0.17394497927E+00 -0.10694027219E+02  0.11128648559E+02  0.12700000000E+01 0.  1.
<mgrwt>
<rscale>  0 0.30797079E+01</rscale>
<asrwt>0</asrwt>
<pdfrwt beam="1">0</pdfrwt>
<pdfrwt beam="2">0</pdfrwt>
<totfact> 0.15433659E+12</totfact>
</mgrwt>
</event>
<event>
 4    1  0.1733759E+006  0.2307657E+01  0.7546771E-02  0.2799923E+00
         22   -1    0    0    0    0  0.00000000000E+00  0.00000000000E+00  0.20061203989E+02  0.20061203989E+02  0.00000000000E+00 0. -1.
         22   -1    0    0    0    0 -0.00000000000E+00 -0.00000000000E+00 -0.26550250174E+00  0.26550250174E+00  0.00000000000E+00 0.  1.
          4    1    1    2  501    0 -0.14689373756E+00  0.19211461690E+01  0.97572419958E+01  0.10026417692E+02  0.12700000000E+01 0.  1.
         -4    1    1    2    0  501  0.14689373756E+00 -0.19211461690E+01  0.10038459492E+02  0.10300288799E+02  0.12700000000E+01 0. -1.
<mgrwt>
<rscale>  0 0.23076569E+01</rscale>
<asrwt>0</asrwt>
<pdfrwt beam="1">0</pdfrwt>
<pdfrwt beam="2">0</pdfrwt>
<totfact> 0.30201815E+12</totfact>
</mgrwt>
</event>
<event>
 4    1  0.1733759E+006  0.2227403E+01  0.7546771E-02  0.2842453E+00
         22   -1    0    0    0    0  0.00000000000E+00  0.00000000000E+00  0.10254073294E+02  0.10254073294E+02  0.00000000000E+00 0. -1.
         22   -1    0    0    0    0 -0.00000000000E+00 -0.00000000000E+00 -0.73351643804E+00  0.73351643804E+00  0.00000000000E+00 0.  1.
          4    1    1    2  501    0 -0.68474170110E+00  0.16969242573E+01  0.15550650556E+01  0.27165328011E+01  0.12700000000E+01 0.  1.
         -4    1    1    2    0  501  0.68474170110E+00 -0.16969242573E+01  0.79654918003E+01  0.82710569308E+01  0.12700000000E+01 0. -1.
<mgrwt>
<rscale>  0 0.22274028E+01</rscale>
<asrwt>0</asrwt>
<pdfrwt beam="1">0</pdfrwt>
<pdfrwt beam="2">0</pdfrwt>
<totfact> 0.21907449E+12</totfact>
</mgrwt>
</event>
<event>
 4    1  0.1733759E+006  0.2526179E+01  0.7546771E-02  0.2697100E+00
         22   -1    0    0    0    0  0.00000000000E+00  0.00000000000E+00  0.29370219345E+00  0.29370219345E+00  0.00000000000E+00 0. -1.
         22   -1    0    0    0    0 -0.00000000000E+00 -0.00000000000E+00 -0.21888578937E+02  0.21888578937E+02  0.00000000000E+00 0.  1.
          4    1    1    2  501    0 -0.20706634338E+01 -0.69356681474E+00 -0.11747203631E+02  0.12015755287E+02  0.12700000000E+01 0.  1.
         -4    1    1    2    0  501  0.20706634338E+01  0.69356681474E+00 -0.98476731127E+01  0.10166525843E+02  0.12700000000E+01 0.  1.
<mgrwt>
<rscale>  0 0.25261793E+01</rscale>
<asrwt>0</asrwt>
<pdfrwt beam="1">0</pdfrwt>
<pdfrwt beam="2">0</pdfrwt>
<totfact> 0.24188856E+12</totfact>
</mgrwt>
</event>
<event>
 4    1  0.1733759E+006  0.2029758E+01  0.7546771E-02  0.2960923E+00
         22   -1    0    0    0    0  0.00000000000E+00  0.00000000000E+00  0.60417567927E+00  0.60417567927E+00  0.00000000000E+00 0. -1.
         22   -1    0    0    0    0 -0.00000000000E+00 -0.00000000000E+00 -0.85153848173E+01  0.85153848173E+01  0.00000000000E+00 0.  1.
          4    1    1    2  501    0 -0.12325597943E+01 -0.99388773751E+00 -0.59907476708E+01  0.63252647484E+01  0.12700000000E+01 0.  1.
         -4    1    1    2    0  501  0.12325597943E+01  0.99388773751E+00 -0.19204614672E+01  0.27942957482E+01  0.12700000000E+01 0. -1.
<mgrwt>
<rscale>  0 0.20297577E+01</rscale>
<asrwt>0</asrwt>
<pdfrwt beam="1">0</pdfrwt>
<pdfrwt beam="2">0</pdfrwt>
<totfact> 0.34166099E+12</totfact>
</mgrwt>
</event>
<event>
 4    1  0.1733759E+006  0.3406251E+01  0.7546771E-02  0.2407546E+00
         22   -1    0    0    0    0  0.00000000000E+00  0.00000000000E+00  0.23440521040E+01  0.23440521040E+01  0.00000000000E+00 0. -1.
         22   -1    0    0    0    0 -0.00000000000E+00 -0.00000000000E+00 -0.49504165789E+01  0.49504165789E+01  0.00000000000E+00 0.  1.
          4    1    1    2  501    0  0.10467231951E+01 -0.29822833366E+01 -0.13445255561E+01  0.36620065972E+01  0.12700000000E+01 0. -1.
         -4    1    1    2    0  501 -0.10467231951E+01  0.29822833366E+01 -0.12618389188E+01  0.36324620857E+01  0.12700000000E+01 0.  1.
<mgrwt>
<rscale>  0 0.34062506E+01</rscale>
<asrwt>0</asrwt>
<pdfrwt beam="1">0</pdfrwt>
<pdfrwt beam="2">0</pdfrwt>
<totfact> 0.13803663E+12</totfact>
</mgrwt>
</event>
<event>
 4    1  0.1733759E+006  0.2402049E+01  0.7546771E-02  0.2753354E+00
         22   -1    0    0    0    0  0.00000000000E+00  0.00000000000E+00  0.12738284049E+01  0.12738284049E+01  0.00000000000E+00 0. -1.
         22   -1    0    0    0    0 -0.00000000000E+00 -0.00000000000E+00 -0.52977679216E+01  0.52977679216E+01  0.00000000000E+00 0.  1.
          4    1    1    2  501    0  0.16828204086E+01  0.11511099823E+01 -0.32632179263E+01  0.40519661836E+01  0.12700000000E+01 0.  1.
         -4    1    1    2    0  501 -0.16828204086E+01 -0.11511099823E+01 -0.76072159043E+00  0.25196301429E+01  0.12700000000E+01 0. -1.
<mgrwt>
<rscale>  0 0.24020489E+01</rscale>
<asrwt>0</asrwt>
<pdfrwt beam="1">0</pdfrwt>
<pdfrwt beam="2">0</pdfrwt>
<totfact> 0.25747502E+12</totfact>
</mgrwt>
</event>
<event>
 4    1  0.1733759E+006  0.3145463E+01  0.7546771E-02  0.2478119E+00
         22   -1    0    0    0    0  0.00000000000E+00  0.00000000000E+00  0.94121519404E+00  0.94121519404E+00  0.00000000000E+00 0.  1.
         22   -1    0    0    0    0 -0.00000000000E+00 -0.00000000000E+00 -0.19813601266E+02  0.19813601266E+02  0.00000000000E+00 0. -1.
          4    1    1    2  501    0 -0.17452565499E+01  0.22880377304E+01 -0.16546509886E+02  0.16842830121E+02  0.12700000000E+01 0. -1.
         -4    1    1    2    0  501  0.17452565499E+01 -0.22880377304E+01 -0.23258761851E+01  0.39119863381E+01  0.12700000000E+01 0.  1.
<mgrwt>
<rscale>  0 0.31454629E+01</rscale>
<asrwt>0</asrwt>
<pdfrwt beam="1">0</pdfrwt>
<pdfrwt beam="2">0</pdfrwt>
<totfact> 0.73445979E+11</totfact>
</mgrwt>
</event>
<event>
 4    1  0.1733759E+006  0.2426084E+01  0.7546771E-02  0.2742042E+00
         22   -1    0    0    0    0  0.00000000000E+00  0.00000000000E+00  0.18090266631E+01  0.18090266631E+01  0.00000000000E+00 0. -1.
         22   -1    0    0    0    0 -0.00000000000E+00 -0.00000000000E+00 -0.33630342887E+01  0.33630342887E+01  0.00000000000E+00 0.  1.
          4    1    1    2  501    0 -0.98896728280E+00 -0.18151930278E+01 -0.31054999640E+00  0.24458788430E+01  0.12700000000E+01 0.  1.
         -4    1    1    2    0  501  0.98896728280E+00  0.18151930278E+01 -0.12434576292E+01  0.27261821087E+01  0.12700000000E+01 0. -1.
<mgrwt>
<rscale>  0 0.24260837E+01</rscale>
<asrwt>0</asrwt>
<pdfrwt beam="1">0</pdfrwt>
<pdfrwt beam="2">0</pdfrwt>
<totfact> 0.29377012E+12</totfact>
</mgrwt>
</event>
<event>
 4    1  0.1733759E+006  0.2360833E+01  0.7546771E-02  0.2773256E+00
         22   -1    0    0    0    0  0.00000000000E+00  0.00000000000E+00  0.70581974891E+00  0.70581974891E+00  0.00000000000E+00 0.  1.
         22   -1    0    0    0    0 -0.00000000000E+00 -0.00000000000E+00 -0.79258009898E+01  0.79258009898E+01  0.00000000000E+00 0.  1.
          4    1    1    2  501    0  0.13690479096E+01 -0.14444174555E+01 -0.33477594041E+01  0.40964651826E+01  0.12700000000E+01 0.  1.
         -4    1    1    2    0  501 -0.13690479096E+01  0.14444174555E+01 -0.38722218368E+01  0.45351555561E+01  0.12700000000E+01 0.  1.
<mgrwt>
<rscale>  0 0.23608333E+01</rscale>
<asrwt>0</asrwt>
<pdfrwt beam="1">0</pdfrwt>
<pdfrwt beam="2">0</pdfrwt>
<totfact> 0.31226824E+12</totfact>
</mgrwt>
</event>
<event>
 4    1  0.1733759E+006  0.2038741E+01  0.7546771E-02  0.2955056E+00
         22   -1    0    0    0    0  0.00000000000E+00  0.00000000000E+00  0.80771018179E+01  0.80771018179E+01  0.00000000000E+00 0. -1.
         22   -1    0    0    0    0 -0.00000000000E+00 -0.00000000000E+00 -0.11639716490E+01  0.11639716490E+01  0.00000000000E+00 0.  1.
          4    1    1    2  501    0 -0.33638075200E+00  0.15589776250E+01  0.53784909531E-02  0.20387476974E+01  0.12700000000E+01 0. -1.
         -4    1    1    2    0  501  0.33638075200E+00 -0.15589776250E+01  0.69077516779E+01  0.72023257695E+01  0.12700000000E+01 0. -1.
<mgrwt>
<rscale>  0 0.20387406E+01</rscale>
<asrwt>0</asrwt>
<pdfrwt beam="1">0</pdfrwt>
<pdfrwt beam="2">0</pdfrwt>
<totfact> 0.17256512E+12</totfact>
</mgrwt>
</event>
<event>
 4    1  0.1733759E+006  0.2008496E+01  0.7546771E-02  0.2975016E+00
         22   -1    0    0    0    0  0.00000000000E+00  0.00000000000E+00  0.22202705197E+01  0.22202705197E+01  0.00000000000E+00 0. -1.
         22   -1    0    0    0    0 -0.00000000000E+00 -0.00000000000E+00 -0.57850414783E+01  0.57850414783E+01  0.00000000000E+00 0. -1.
          4    1    1    2  501    0  0.98313585223E+00 -0.12060679978E+01 -0.50974154075E+01  0.54788411143E+01  0.12700000000E+01 0. -1.
         -4    1    1    2    0  501 -0.98313585223E+00  0.12060679978E+01  0.15326444489E+01  0.25264708837E+01  0.12700000000E+01 0. -1.
<mgrwt>
<rscale>  0 0.20084960E+01</rscale>
<asrwt>0</asrwt>
<pdfrwt beam="1">0</pdfrwt>
<pdfrwt beam="2">0</pdfrwt>
<totfact> 0.12218462E+12</totfact>
</mgrwt>
</event>
<event>
 4    1  0.1733759E+006  0.2022046E+01  0.7546771E-02  0.2966001E+00
         22   -1    0    0    0    0  0.00000000000E+00  0.00000000000E+00  0.80113062890E+01  0.80113062890E+01  0.00000000000E+00 0.  1.
         22   -1    0    0    0    0 -0.00000000000E+00 -0.00000000000E+00 -0.51957797858E+00  0.51957797858E+00  0.00000000000E+00 0. -1.
          4    1    1    2  501    0 -0.11152913731E+01 -0.11099083049E+01  0.31778034708E+01  0.37665775170E+01  0.12700000000E+01 0. -1.
         -4    1    1    2    0  501  0.11152913731E+01  0.11099083049E+01  0.43139248396E+01  0.47643067506E+01  0.12700000000E+01 0.  1.
<mgrwt>
<rscale>  0 0.20220463E+01</rscale>
<asrwt>0</asrwt>
<pdfrwt beam="1">0</pdfrwt>
<pdfrwt beam="2">0</pdfrwt>
<totfact> 0.43608812E+12</totfact>
</mgrwt>
</event>
<event>
 4    1  0.1733759E+006  0.4800898E+01  0.7546771E-02  0.2147547E+00
         22   -1    0    0    0    0  0.00000000000E+00  0.00000000000E+00  0.21260125612E+01  0.21260125612E+01  0.00000000000E+00 0.  1.
         22   -1    0    0    0    0 -0.00000000000E+00 -0.00000000000E+00 -0.10911082037E+02  0.10911082037E+02  0.00000000000E+00 0. -1.
          4    1    1    2  501    0  0.40404344138E+01 -0.22606670430E+01 -0.38710328426E+01  0.61671323158E+01  0.12700000000E+01 0.  1.
         -4    1    1    2    0  501 -0.40404344138E+01  0.22606670430E+01 -0.49140366335E+01  0.68699622828E+01  0.12700000000E+01 0. -1.
<mgrwt>
<rscale>  0 0.48008984E+01</rscale>
<asrwt>0</asrwt>
<pdfrwt beam="1">0</pdfrwt>
<pdfrwt beam="2">0</pdfrwt>
<totfact> 0.59959122E+11</totfact>
</mgrwt>
</event>
<event>
 4    1  0.1733759E+006  0.3548632E+01  0.7546771E-02  0.2372884E+00
         22   -1    0    0    0    0  0.00000000000E+00  0.00000000000E+00  0.15230340950E+01  0.15230340950E+01  0.00000000000E+00 0.  1.
         22   -1    0    0    0    0 -0.00000000000E+00 -0.00000000000E+00 -0.22731913343E+02  0.22731913343E+02  0.00000000000E+00 0. -1.
          4    1    1    2  501    0  0.27598173167E+00 -0.33020784118E+01 -0.20278123299E+02  0.20586283596E+02  0.12700000000E+01 0. -1.
         -4    1    1    2    0  501 -0.27598173167E+00  0.33020784118E+01 -0.93075594944E+00  0.36686638427E+01  0.12700000000E+01 0.  1.
<mgrwt>
<rscale>  0 0.35486318E+01</rscale>
<asrwt>0</asrwt>
<pdfrwt beam="1">0</pdfrwt>
<pdfrwt beam="2">0</pdfrwt>
<totfact> 0.35633252E+11</totfact>
</mgrwt>
</event>
<event>
 4    1  0.1733759E+006  0.2345267E+01  0.7546771E-02  0.2780944E+00
         22   -1    0    0    0    0  0.00000000000E+00  0.00000000000E+00  0.21850823631E+00  0.21850823631E+00  0.00000000000E+00 0.  1.
         22   -1    0    0    0    0 -0.00000000000E+00 -0.00000000000E+00 -0.29555873878E+02  0.29555873878E+02  0.00000000000E+00 0.  1.
          4    1    1    2  501    0 -0.13804035318E+01 -0.14077865014E+01 -0.89351442686E+01  0.92378070907E+01  0.12700000000E+01 0.  1.
         -4    1    1    2    0  501  0.13804035318E+01  0.14077865014E+01 -0.20402221373E+02  0.20536575024E+02  0.12700000000E+01 0.  1.
<mgrwt>
<rscale>  0 0.23452669E+01</rscale>
<asrwt>0</asrwt>
<pdfrwt beam="1">0</pdfrwt>
<pdfrwt beam="2">0</pdfrwt>
<totfact> 0.23047282E+12</totfact>
</mgrwt>
</event>
<event>
 4    1  0.1733759E+006  0.2597223E+01  0.7546771E-02  0.2667160E+00
         22   -1    0    0    0    0  0.00000000000E+00  0.00000000000E+00  0.19795934885E+02  0.19795934885E+02  0.00000000000E+00 0.  1.
         22   -1    0    0    0    0 -0.00000000000E+00 -0.00000000000E+00 -0.69756241798E+00  0.69756241798E+00  0.00000000000E+00 0. -1.
          4    1    1    2  501    0 -0.44525113301E+00  0.22213556006E+01  0.22207499742E+01  0.34172064210E+01  0.12700000000E+01 0. -1.
         -4    1    1    2    0  501  0.44525113301E+00 -0.22213556006E+01  0.16877622492E+02  0.17076290882E+02  0.12700000000E+01 0.  1.
<mgrwt>
<rscale>  0 0.25972234E+01</rscale>
<asrwt>0</asrwt>
<pdfrwt beam="1">0</pdfrwt>
<pdfrwt beam="2">0</pdfrwt>
<totfact> 0.10339157E+12</totfact>
</mgrwt>
</event>
<event>
 4    1  0.1733759E+006  0.2597456E+01  0.7546771E-02  0.2667064E+00
         22   -1    0    0    0    0  0.00000000000E+00  0.00000000000E+00  0.10825132015E+01  0.10825132015E+01  0.00000000000E+00 0. -1.
         22   -1    0    0    0    0 -0.00000000000E+00 -0.00000000000E+00 -0.73246436231E+01  0.73246436231E+01  0.00000000000E+00 0.  1.
          4    1    1    2  501    0 -0.11446305757E+01 -0.19554275360E+01 -0.47442332750E+01  0.54087452677E+01  0.12700000000E+01 0.  1.
         -4    1    1    2    0  501  0.11446305757E+01  0.19554275360E+01 -0.14978971465E+01  0.29984115569E+01  0.12700000000E+01 0. -1.
<mgrwt>
<rscale>  0 0.25974557E+01</rscale>
<asrwt>0</asrwt>
<pdfrwt beam="1">0</pdfrwt>
<pdfrwt beam="2">0</pdfrwt>
<totfact> 0.21086585E+12</totfact>
</mgrwt>
</event>
<event>
 4    1  0.1733759E+006  0.2675814E+01  0.7546771E-02  0.2635752E+00
         22   -1    0    0    0    0  0.00000000000E+00  0.00000000000E+00  0.39550547831E+02  0.39550547831E+02  0.00000000000E+00 0. -1.
         22   -1    0    0    0    0 -0.00000000000E+00 -0.00000000000E+00 -0.18757955672E+00  0.18757955672E+00  0.00000000000E+00 0.  1.
          4    1    1    2  501    0 -0.19970579840E+01 -0.12485354937E+01  0.15969822740E+02  0.16192443293E+02  0.12700000000E+01 0. -1.
         -4    1    1    2    0  501  0.19970579840E+01  0.12485354937E+01  0.23393145535E+02  0.23545684094E+02  0.12700000000E+01 0. -1.
<mgrwt>
<rscale>  0 0.26758142E+01</rscale>
<asrwt>0</asrwt>
<pdfrwt beam="1">0</pdfrwt>
<pdfrwt beam="2">0</pdfrwt>
<totfact> 0.18795544E+12</totfact>
</mgrwt>
</event>
<event>
 4    1  0.1733759E+006  0.2340214E+01  0.7546771E-02  0.2783460E+00
         22   -1    0    0    0    0  0.00000000000E+00  0.00000000000E+00  0.26959969791E+02  0.26959969791E+02  0.00000000000E+00 0.  1.
         22   -1    0    0    0    0 -0.00000000000E+00 -0.00000000000E+00 -0.20371362076E+00  0.20371362076E+00  0.00000000000E+00 0. -1.
          4    1    1    2  501    0 -0.19654163267E+01  0.29016908540E-01  0.14099885474E+02  0.14292773478E+02  0.12700000000E+01 0. -1.
         -4    1    1    2    0  501  0.19654163267E+01 -0.29016908540E-01  0.12656370697E+02  0.12870909934E+02  0.12700000000E+01 0.  1.
<mgrwt>
<rscale>  0 0.23402144E+01</rscale>
<asrwt>0</asrwt>
<pdfrwt beam="1">0</pdfrwt>
<pdfrwt beam="2">0</pdfrwt>
<totfact> 0.28009728E+12</totfact>
</mgrwt>
</event>
<event>
 4    1  0.1733759E+006  0.2935077E+01  0.7546771E-02  0.2543103E+00
         22   -1    0    0    0    0  0.00000000000E+00  0.00000000000E+00  0.39646781045E+01  0.39646781045E+01  0.00000000000E+00 0. -1.
         22   -1    0    0    0    0 -0.00000000000E+00 -0.00000000000E+00 -0.22002952844E+01  0.22002952844E+01  0.00000000000E+00 0.  1.
          4    1    1    2  501    0  0.75808106326E+00 -0.25351708039E+01  0.12264149272E+01  0.31810016468E+01  0.12700000000E+01 0.  1.
         -4    1    1    2    0  501 -0.75808106326E+00  0.25351708039E+01  0.53796789287E+00  0.29839717420E+01  0.12700000000E+01 0. -1.
<mgrwt>
<rscale>  0 0.29350772E+01</rscale>
<asrwt>0</asrwt>
<pdfrwt beam="1">0</pdfrwt>
<pdfrwt beam="2">0</pdfrwt>
<totfact> 0.19305787E+12</totfact>
</mgrwt>
</event>
<event>
 4    1  0.1733759E+006  0.2339706E+01  0.7546771E-02  0.2783714E+00
         22   -1    0    0    0    0  0.00000000000E+00  0.00000000000E+00  0.11282686141E+01  0.11282686141E+01  0.00000000000E+00 0.  1.
         22   -1    0    0    0    0 -0.00000000000E+00 -0.00000000000E+00 -0.56634138175E+01  0.56634138175E+01  0.00000000000E+00 0.  1.
          4    1    1    2  501    0 -0.11134899408E+01 -0.16190943258E+01 -0.35530397385E+01  0.42542117563E+01  0.12700000000E+01 0.  1.
         -4    1    1    2    0  501  0.11134899408E+01  0.16190943258E+01 -0.98210546488E+00  0.25374706753E+01  0.12700000000E+01 0.  1.
<mgrwt>
<rscale>  0 0.23397065E+01</rscale>
<asrwt>0</asrwt>
<pdfrwt beam="1">0</pdfrwt>
<pdfrwt beam="2">0</pdfrwt>
<totfact> 0.27333764E+12</totfact>
</mgrwt>
</event>
<event>
 4    1  0.1733759E+006  0.4133620E+01  0.7546771E-02  0.2252458E+00
         22   -1    0    0    0    0  0.00000000000E+00  0.00000000000E+00  0.21694022337E+02  0.21694022337E+02  0.00000000000E+00 0. -1.
         22   -1    0    0    0    0 -0.00000000000E+00 -0.00000000000E+00 -0.21073160579E+01  0.21073160579E+01  0.00000000000E+00 0.  1.
          4    1    1    2  501    0  0.29693473038E+01 -0.25800952087E+01  0.37571012066E+00  0.41506593201E+01  0.12700000000E+01 0.  1.
         -4    1    1    2    0  501 -0.29693473038E+01  0.25800952087E+01  0.19210996158E+02  0.19650679074E+02  0.12700000000E+01 0. -1.
<mgrwt>
<rscale>  0 0.41336200E+01</rscale>
<asrwt>0</asrwt>
<pdfrwt beam="1">0</pdfrwt>
<pdfrwt beam="2">0</pdfrwt>
<totfact> 0.25968550E+11</totfact>
</mgrwt>
</event>
<event>
 4    1  0.1733759E+006  0.2374269E+01  0.7546771E-02  0.2766697E+00
         22   -1    0    0    0    0  0.00000000000E+00  0.00000000000E+00  0.37982220285E+00  0.37982220285E+00  0.00000000000E+00 0. -1.
         22   -1    0    0    0    0 -0.00000000000E+00 -0.00000000000E+00 -0.23878475795E+02  0.23878475795E+02  0.00000000000E+00 0. -1.
          4    1    1    2  501    0  0.15068012875E+01 -0.13243129804E+01 -0.19211014807E+02  0.19357175541E+02  0.12700000000E+01 0. -1.
         -4    1    1    2    0  501 -0.15068012875E+01  0.13243129804E+01 -0.42876387848E+01  0.49011224570E+01  0.12700000000E+01 0. -1.
<mgrwt>
<rscale>  0 0.23742694E+01</rscale>
<asrwt>0</asrwt>
<pdfrwt beam="1">0</pdfrwt>
<pdfrwt beam="2">0</pdfrwt>
<totfact> 0.16247094E+12</totfact>
</mgrwt>
</event>
<event>
 4    1  0.1733759E+006  0.2210270E+01  0.7546771E-02  0.2851914E+00
         22   -1    0    0    0    0  0.00000000000E+00  0.00000000000E+00  0.37151058652E+00  0.37151058652E+00  0.00000000000E+00 0. -1.
         22   -1    0    0    0    0 -0.00000000000E+00 -0.00000000000E+00 -0.25877839530E+02  0.25877839530E+02  0.00000000000E+00 0. -1.
          4    1    1    2  501    0 -0.14462221455E+01 -0.10866626221E+01 -0.21957768604E+02  0.22068731188E+02  0.12700000000E+01 0. -1.
         -4    1    1    2    0  501  0.14462221455E+01  0.10866626221E+01 -0.35485603390E+01  0.41806189288E+01  0.12700000000E+01 0. -1.
<mgrwt>
<rscale>  0 0.22102702E+01</rscale>
<asrwt>0</asrwt>
<pdfrwt beam="1">0</pdfrwt>
<pdfrwt beam="2">0</pdfrwt>
<totfact> 0.15049929E+12</totfact>
</mgrwt>
</event>
<event>
 4    1  0.1733759E+006  0.2743275E+01  0.7546771E-02  0.2610113E+00
         22   -1    0    0    0    0  0.00000000000E+00  0.00000000000E+00  0.54879711153E+00  0.54879711153E+00  0.00000000000E+00 0. -1.
         22   -1    0    0    0    0 -0.00000000000E+00 -0.00000000000E+00 -0.13715755338E+02  0.13715755338E+02  0.00000000000E+00 0.  1.
          4    1    1    2  501    0 -0.67310469853E+00  0.23365761878E+01 -0.66877466930E+01  0.72285208754E+01  0.12700000000E+01 0. -1.
         -4    1    1    2    0  501  0.67310469853E+00 -0.23365761878E+01 -0.64792115336E+01  0.70360315743E+01  0.12700000000E+01 0. -1.
<mgrwt>
<rscale>  0 0.27432751E+01</rscale>
<asrwt>0</asrwt>
<pdfrwt beam="1">0</pdfrwt>
<pdfrwt beam="2">0</pdfrwt>
<totfact> 0.21352423E+12</totfact>
</mgrwt>
</event>
<event>
 4    1  0.1733759E+006  0.2838986E+01  0.7546771E-02  0.2575648E+00
         22   -1    0    0    0    0  0.00000000000E+00  0.00000000000E+00  0.11597919829E+02  0.11597919829E+02  0.00000000000E+00 0.  1.
         22   -1    0    0    0    0 -0.00000000000E+00 -0.00000000000E+00 -0.78925348970E+00  0.78925348970E+00  0.00000000000E+00 0. -1.
          4    1    1    2  501    0  0.17184451001E+01 -0.18691941225E+01  0.32632946603E+01  0.43253823264E+01  0.12700000000E+01 0.  1.
         -4    1    1    2    0  501 -0.17184451001E+01  0.18691941225E+01  0.75453716795E+01  0.80617909928E+01  0.12700000000E+01 0. -1.
<mgrwt>
<rscale>  0 0.28389858E+01</rscale>
<asrwt>0</asrwt>
<pdfrwt beam="1">0</pdfrwt>
<pdfrwt beam="2">0</pdfrwt>
<totfact> 0.17357515E+12</totfact>
</mgrwt>
</event>
<event>
 4    1  0.1733759E+006  0.2017975E+01  0.7546771E-02  0.2968697E+00
         22   -1    0    0    0    0  0.00000000000E+00  0.00000000000E+00  0.63744972171E+02  0.63744972171E+02  0.00000000000E+00 0. -1.
         22   -1    0    0    0    0 -0.00000000000E+00 -0.00000000000E+00 -0.13017850408E+00  0.13017850408E+00  0.00000000000E+00 0.  1.
          4    1    1    2  501    0  0.12549632430E+01 -0.94041935804E+00  0.90158249882E+01  0.92389026149E+01  0.12700000000E+01 0.  1.
         -4    1    1    2    0  501 -0.12549632430E+01  0.94041935804E+00  0.54598968679E+02  0.54636248060E+02  0.12700000000E+01 0. -1.
<mgrwt>
<rscale>  0 0.20179746E+01</rscale>
<asrwt>0</asrwt>
<pdfrwt beam="1">0</pdfrwt>
<pdfrwt beam="2">0</pdfrwt>
<totfact> 0.15026495E+12</totfact>
</mgrwt>
</event>
<event>
 4    1  0.1733759E+006  0.2026080E+01  0.7546771E-02  0.2963340E+00
         22   -1    0    0    0    0  0.00000000000E+00  0.00000000000E+00  0.12668694120E+01  0.12668694120E+01  0.00000000000E+00 0. -1.
         22   -1    0    0    0    0 -0.00000000000E+00 -0.00000000000E+00 -0.16221082543E+02  0.16221082543E+02  0.00000000000E+00 0.  1.
          4    1    1    2  501    0 -0.10924681133E+01  0.11395676547E+01 -0.15299145089E+02  0.15432719833E+02  0.12700000000E+01 0.  1.
         -4    1    1    2    0  501  0.10924681133E+01 -0.11395676547E+01  0.34493195744E+00  0.20552321216E+01  0.12700000000E+01 0. -1.
<mgrwt>
<rscale>  0 0.20260802E+01</rscale>
<asrwt>0</asrwt>
<pdfrwt beam="1">0</pdfrwt>
<pdfrwt beam="2">0</pdfrwt>
<totfact> 0.67003804E+11</totfact>
</mgrwt>
</event>
<event>
 4    1  0.1733759E+006  0.3019300E+01  0.7546771E-02  0.2516116E+00
         22   -1    0    0    0    0  0.00000000000E+00  0.00000000000E+00  0.13116745164E+00  0.13116745164E+00  0.00000000000E+00 0.  1.
         22   -1    0    0    0    0 -0.00000000000E+00 -0.00000000000E+00 -0.82608250960E+02  0.82608250960E+02  0.00000000000E+00 0. -1.
          4    1    1    2  501    0 -0.24509307426E+01  0.12231979518E+01 -0.57717830939E+02  0.57796748897E+02  0.12700000000E+01 0.  1.
         -4    1    1    2    0  501  0.24509307426E+01 -0.12231979518E+01 -0.24759252569E+02  0.24942669514E+02  0.12700000000E+01 0. -1.
<mgrwt>
<rscale>  0 0.30193004E+01</rscale>
<asrwt>0</asrwt>
<pdfrwt beam="1">0</pdfrwt>
<pdfrwt beam="2">0</pdfrwt>
<totfact> 0.10470884E+12</totfact>
</mgrwt>
</event>
<event>
 4    1  0.1733759E+006  0.4466082E+01  0.7546771E-02  0.2196171E+00
         22   -1    0    0    0    0  0.00000000000E+00  0.00000000000E+00  0.92604714809E+01  0.92604714809E+01  0.00000000000E+00 0.  1.
         22   -1    0    0    0    0 -0.00000000000E+00 -0.00000000000E+00 -0.21686056392E+01  0.21686056392E+01  0.00000000000E+00 0. -1.
          4    1    1    2  501    0  0.11864171253E+01  0.41140492982E+01  0.40169306831E+01  0.60067977605E+01  0.12700000000E+01 0.  1.
         -4    1    1    2    0  501 -0.11864171253E+01 -0.41140492982E+01  0.30749351587E+01  0.54222793596E+01  0.12700000000E+01 0.  1.
<mgrwt>
<rscale>  0 0.44660819E+01</rscale>
<asrwt>0</asrwt>
<pdfrwt beam="1">0</pdfrwt>
<pdfrwt beam="2">0</pdfrwt>
<totfact> 0.71473386E+11</totfact>
</mgrwt>
</event>
<event>
 4    1  0.1733759E+006  0.2694843E+01  0.7546771E-02  0.2628401E+00
         22   -1    0    0    0    0  0.00000000000E+00  0.00000000000E+00  0.11427538511E+01  0.11427538511E+01  0.00000000000E+00 0.  1.
         22   -1    0    0    0    0 -0.00000000000E+00 -0.00000000000E+00 -0.43059688205E+02  0.43059688205E+02  0.00000000000E+00 0. -1.
          4    1    1    2  501    0  0.17494800608E+01  0.16089123181E+01 -0.41363707207E+02  0.41451398689E+02  0.12700000000E+01 0. -1.
         -4    1    1    2    0  501 -0.17494800608E+01 -0.16089123181E+01 -0.55322714602E+00  0.27510433668E+01  0.12700000000E+01 0.  1.
<mgrwt>
<rscale>  0 0.26948431E+01</rscale>
<asrwt>0</asrwt>
<pdfrwt beam="1">0</pdfrwt>
<pdfrwt beam="2">0</pdfrwt>
<totfact> 0.21897475E+11</totfact>
</mgrwt>
</event>
<event>
 4    1  0.1733759E+006  0.3609672E+01  0.7546771E-02  0.2358755E+00
         22   -1    0    0    0    0  0.00000000000E+00  0.00000000000E+00  0.22499767129E+01  0.22499767129E+01  0.00000000000E+00 0. -1.
         22   -1    0    0    0    0 -0.00000000000E+00 -0.00000000000E+00 -0.59501595927E+01  0.59501595927E+01  0.00000000000E+00 0.  1.
          4    1    1    2  501    0 -0.19049800048E+01  0.27906778247E+01 -0.11796318812E+01  0.37975337938E+01  0.12700000000E+01 0.  1.
         -4    1    1    2    0  501  0.19049800048E+01 -0.27906778247E+01 -0.25205509987E+01  0.44026025118E+01  0.12700000000E+01 0.  1.
<mgrwt>
<rscale>  0 0.36096719E+01</rscale>
<asrwt>0</asrwt>
<pdfrwt beam="1">0</pdfrwt>
<pdfrwt beam="2">0</pdfrwt>
<totfact> 0.11636831E+12</totfact>
</mgrwt>
</event>
<event>
 4    1  0.1733759E+006  0.2158923E+01  0.7546771E-02  0.2881129E+00
         22   -1    0    0    0    0  0.00000000000E+00  0.00000000000E+00  0.95377952452E+00  0.95377952452E+00  0.00000000000E+00 0.  1.
         22   -1    0    0    0    0 -0.00000000000E+00 -0.00000000000E+00 -0.48947101227E+01  0.48947101227E+01  0.00000000000E+00 0.  1.
          4    1    1    2  501    0 -0.15849433591E+01  0.73212091100E+00 -0.18530402699E+01  0.28451194565E+01  0.12700000000E+01 0.  1.
         -4    1    1    2    0  501  0.15849433591E+01 -0.73212091100E+00 -0.20878903283E+01  0.30033701907E+01  0.12700000000E+01 0.  1.
<mgrwt>
<rscale>  0 0.21589225E+01</rscale>
<asrwt>0</asrwt>
<pdfrwt beam="1">0</pdfrwt>
<pdfrwt beam="2">0</pdfrwt>
<totfact> 0.39371692E+12</totfact>
</mgrwt>
</event>
<event>
 4    1  0.1733759E+006  0.2002958E+01  0.7546771E-02  0.2978735E+00
         22   -1    0    0    0    0  0.00000000000E+00  0.00000000000E+00  0.43885264659E+01  0.43885264659E+01  0.00000000000E+00 0. -1.
         22   -1    0    0    0    0 -0.00000000000E+00 -0.00000000000E+00 -0.15447420554E+01  0.15447420554E+01  0.00000000000E+00 0.  1.
          4    1    1    2  501    0  0.15484977077E+01  0.33093860848E-01 -0.47352520259E+00  0.20581706615E+01  0.12700000000E+01 0.  1.
         -4    1    1    2    0  501 -0.15484977077E+01 -0.33093860848E-01  0.33173096130E+01  0.38750978598E+01  0.12700000000E+01 0. -1.
<mgrwt>
<rscale>  0 0.20029579E+01</rscale>
<asrwt>0</asrwt>
<pdfrwt beam="1">0</pdfrwt>
<pdfrwt beam="2">0</pdfrwt>
<totfact> 0.25774242E+12</totfact>
</mgrwt>
</event>
<event>
 4    1  0.1733759E+006  0.2090223E+01  0.7546771E-02  0.2922378E+00
         22   -1    0    0    0    0  0.00000000000E+00  0.00000000000E+00  0.27538975252E+00  0.27538975252E+00  0.00000000000E+00 0. -1.
         22   -1    0    0    0    0 -0.00000000000E+00 -0.00000000000E+00 -0.22386281890E+02  0.22386281890E+02  0.00000000000E+00 0.  1.
          4    1    1    2  501    0 -0.79465156009E+00 -0.14576214461E+01 -0.17171069264E+02  0.17297822148E+02  0.12700000000E+01 0.  1.
         -4    1    1    2    0  501  0.79465156009E+00  0.14576214461E+01 -0.49398228733E+01  0.53638494947E+01  0.12700000000E+01 0. -1.
<mgrwt>
<rscale>  0 0.20902228E+01</rscale>
<asrwt>0</asrwt>
<pdfrwt beam="1">0</pdfrwt>
<pdfrwt beam="2">0</pdfrwt>
<totfact> 0.25273869E+12</totfact>
</mgrwt>
</event>
<event>
 4    1  0.1733759E+006  0.3244585E+01  0.7546771E-02  0.2450116E+00
         22   -1    0    0    0    0  0.00000000000E+00  0.00000000000E+00  0.14829497199E+02  0.14829497199E+02  0.00000000000E+00 0.  1.
         22   -1    0    0    0    0 -0.00000000000E+00 -0.00000000000E+00 -0.23017172449E+01  0.23017172449E+01  0.00000000000E+00 0.  1.
          4    1    1    2  501    0  0.29798930431E+00  0.29707970868E+01 -0.85938881137E+00  0.33564686927E+01  0.12700000000E+01 0.  1.
         -4    1    1    2    0  501 -0.29798930431E+00 -0.29707970868E+01  0.13387168766E+02  0.13774745752E+02  0.12700000000E+01 0.  1.
<mgrwt>
<rscale>  0 0.32445852E+01</rscale>
<asrwt>0</asrwt>
<pdfrwt beam="1">0</pdfrwt>
<pdfrwt beam="2">0</pdfrwt>
<totfact> 0.37581491E+11</totfact>
</mgrwt>
</event>
<event>
 4    1  0.1733759E+006  0.5336208E+01  0.7546771E-02  0.2084889E+00
         22   -1    0    0    0    0  0.00000000000E+00  0.00000000000E+00  0.47685623932E+01  0.47685623932E+01  0.00000000000E+00 0.  1.
         22   -1    0    0    0    0 -0.00000000000E+00 -0.00000000000E+00 -0.64566525094E+01  0.64566525094E+01  0.00000000000E+00 0. -1.
          4    1    1    2  501    0 -0.27025196725E+01 -0.44225108375E+01 -0.23826725262E+01  0.58439920479E+01  0.12700000000E+01 0. -1.
         -4    1    1    2    0  501  0.27025196725E+01  0.44225108375E+01  0.69458240994E+00  0.53812228548E+01  0.12700000000E+01 0. -1.
<mgrwt>
<rscale>  0 0.53362079E+01</rscale>
<asrwt>0</asrwt>
<pdfrwt beam="1">0</pdfrwt>
<pdfrwt beam="2">0</pdfrwt>
<totfact> 0.43811297E+11</totfact>
</mgrwt>
</event>
<event>
 4    1  0.1733759E+006  0.2077982E+01  0.7546771E-02  0.2930005E+00
         22   -1    0    0    0    0  0.00000000000E+00  0.00000000000E+00  0.87117251386E+00  0.87117251386E+00  0.00000000000E+00 0. -1.
         22   -1    0    0    0    0 -0.00000000000E+00 -0.00000000000E+00 -0.87203626331E+01  0.87203626331E+01  0.00000000000E+00 0.  1.
          4    1    1    2  501    0  0.13472733738E+01 -0.94337804880E+00 -0.70752802634E+01  0.73741167941E+01  0.12700000000E+01 0.  1.
         -4    1    1    2    0  501 -0.13472733738E+01  0.94337804880E+00 -0.77390985580E+00  0.22174183529E+01  0.12700000000E+01 0. -1.
<mgrwt>
<rscale>  0 0.20779816E+01</rscale>
<asrwt>0</asrwt>
<pdfrwt beam="1">0</pdfrwt>
<pdfrwt beam="2">0</pdfrwt>
<totfact> 0.21909568E+12</totfact>
</mgrwt>
</event>
<event>
 4    1  0.1733759E+006  0.2482953E+01  0.7546771E-02  0.2716094E+00
         22   -1    0    0    0    0  0.00000000000E+00  0.00000000000E+00  0.54258865733E+01  0.54258865733E+01  0.00000000000E+00 0.  1.
         22   -1    0    0    0    0 -0.00000000000E+00 -0.00000000000E+00 -0.13801616193E+01  0.13801616193E+01  0.00000000000E+00 0. -1.
          4    1    1    2  501    0 -0.47232540068E-01  0.21330552384E+01  0.59221041570E+00  0.25526003877E+01  0.12700000000E+01 0.  1.
         -4    1    1    2    0  501  0.47232540068E-01 -0.21330552384E+01  0.34535145383E+01  0.42534478049E+01  0.12700000000E+01 0.  1.
<mgrwt>
<rscale>  0 0.24829530E+01</rscale>
<asrwt>0</asrwt>
<pdfrwt beam="1">0</pdfrwt>
<pdfrwt beam="2">0</pdfrwt>
<totfact> 0.22827485E+12</totfact>
</mgrwt>
</event>
<event>
 4    1  0.1733759E+006  0.2917580E+01  0.7546771E-02  0.2548885E+00
         22   -1    0    0    0    0  0.00000000000E+00  0.00000000000E+00  0.17181479256E+02  0.17181479256E+02  0.00000000000E+00 0.  1.
         22   -1    0    0    0    0 -0.00000000000E+00 -0.00000000000E+00 -0.90594043378E+00  0.90594043378E+00  0.00000000000E+00 0. -1.
          4    1    1    2  501    0 -0.81312985224E+00 -0.24976372435E+01  0.20500124354E+01  0.35657850387E+01  0.12700000000E+01 0. -1.
         -4    1    1    2    0  501  0.81312985224E+00  0.24976372435E+01  0.14225526387E+02  0.14521634651E+02  0.12700000000E+01 0.  1.
<mgrwt>
<rscale>  0 0.29175798E+01</rscale>
<asrwt>0</asrwt>
<pdfrwt beam="1">0</pdfrwt>
<pdfrwt beam="2">0</pdfrwt>
<totfact> 0.91575383E+11</totfact>
</mgrwt>
</event>
<event>
 4    1  0.1733759E+006  0.4562588E+01  0.7546771E-02  0.2181132E+00
         22   -1    0    0    0    0  0.00000000000E+00  0.00000000000E+00  0.27691495713E+01  0.27691495713E+01  0.00000000000E+00 0. -1.
         22   -1    0    0    0    0 -0.00000000000E+00 -0.00000000000E+00 -0.75276661849E+01  0.75276661849E+01  0.00000000000E+00 0. -1.
          4    1    1    2  501    0 -0.31907836153E+01 -0.30038663804E+01 -0.21905001279E+01  0.50611761599E+01  0.12700000000E+01 0. -1.
         -4    1    1    2    0  501  0.31907836153E+01  0.30038663804E+01 -0.25680164857E+01  0.52356395963E+01  0.12700000000E+01 0. -1.
<mgrwt>
<rscale>  0 0.45625884E+01</rscale>
<asrwt>0</asrwt>
<pdfrwt beam="1">0</pdfrwt>
<pdfrwt beam="2">0</pdfrwt>
<totfact> 0.69018060E+11</totfact>
</mgrwt>
</event>
<event>
 4    1  0.1733759E+006  0.2346547E+01  0.7546771E-02  0.2780308E+00
         22   -1    0    0    0    0  0.00000000000E+00  0.00000000000E+00  0.31772319330E+02  0.31772319330E+02  0.00000000000E+00 0. -1.
         22   -1    0    0    0    0 -0.00000000000E+00 -0.00000000000E+00 -0.36117828019E+00  0.36117828019E+00  0.00000000000E+00 0. -1.
          4    1    1    2  501    0 -0.16119164759E+01  0.11380280107E+01  0.41177862136E+01  0.47394562747E+01  0.12700000000E+01 0. -1.
         -4    1    1    2    0  501  0.16119164759E+01 -0.11380280107E+01  0.27293354836E+02  0.27394041336E+02  0.12700000000E+01 0. -1.
<mgrwt>
<rscale>  0 0.23465469E+01</rscale>
<asrwt>0</asrwt>
<pdfrwt beam="1">0</pdfrwt>
<pdfrwt beam="2">0</pdfrwt>
<totfact> 0.11968314E+12</totfact>
</mgrwt>
</event>
<event>
 4    1  0.1733759E+006  0.2459845E+01  0.7546771E-02  0.2726502E+00
         22   -1    0    0    0    0  0.00000000000E+00  0.00000000000E+00  0.44423400777E+01  0.44423400777E+01  0.00000000000E+00 0.  1.
         22   -1    0    0    0    0 -0.00000000000E+00 -0.00000000000E+00 -0.13639678294E+01  0.13639678294E+01  0.00000000000E+00 0. -1.
          4    1    1    2  501    0  0.67761609100E+00  0.19946864392E+01  0.14312762888E+01  0.28459426158E+01  0.12700000000E+01 0. -1.
         -4    1    1    2    0  501 -0.67761609100E+00 -0.19946864392E+01  0.16470959595E+01  0.29603652912E+01  0.12700000000E+01 0.  1.
<mgrwt>
<rscale>  0 0.24598450E+01</rscale>
<asrwt>0</asrwt>
<pdfrwt beam="1">0</pdfrwt>
<pdfrwt beam="2">0</pdfrwt>
<totfact> 0.29317994E+12</totfact>
</mgrwt>
</event>
<event>
 4    1  0.1733759E+006  0.3589522E+01  0.7546771E-02  0.2363373E+00
         22   -1    0    0    0    0  0.00000000000E+00  0.00000000000E+00  0.23266079054E+02  0.23266079054E+02  0.00000000000E+00 0.  1.
         22   -1    0    0    0    0 -0.00000000000E+00 -0.00000000000E+00 -0.11106315106E+01  0.11106315106E+01  0.00000000000E+00 0. -1.
          4    1    1    2  501    0 -0.14498567613E+01  0.30281488270E+01  0.24474727082E+01  0.43445129306E+01  0.12700000000E+01 0. -1.
         -4    1    1    2    0  501  0.14498567613E+01 -0.30281488270E+01  0.19707974835E+02  0.20032197634E+02  0.12700000000E+01 0.  1.
<mgrwt>
<rscale>  0 0.35895222E+01</rscale>
<asrwt>0</asrwt>
<pdfrwt beam="1">0</pdfrwt>
<pdfrwt beam="2">0</pdfrwt>
<totfact> 0.49722616E+11</totfact>
</mgrwt>
</event>
<event>
 4    1  0.1733759E+006  0.3326004E+01  0.7546771E-02  0.2428222E+00
         22   -1    0    0    0    0  0.00000000000E+00  0.00000000000E+00  0.53475854246E+00  0.53475854246E+00  0.00000000000E+00 0. -1.
         22   -1    0    0    0    0 -0.00000000000E+00 -0.00000000000E+00 -0.21097075568E+02  0.21097075568E+02  0.00000000000E+00 0.  1.
          4    1    1    2  501    0 -0.16258152308E+01  0.26088557642E+01 -0.87723711957E+01  0.93817269177E+01  0.12700000000E+01 0.  1.
         -4    1    1    2    0  501  0.16258152308E+01 -0.26088557642E+01 -0.11789945830E+02  0.12250107193E+02  0.12700000000E+01 0. -1.
<mgrwt>
<rscale>  0 0.33260041E+01</rscale>
<asrwt>0</asrwt>
<pdfrwt beam="1">0</pdfrwt>
<pdfrwt beam="2">0</pdfrwt>
<totfact> 0.12903980E+12</totfact>
</mgrwt>
</event>
<event>
 4    1  0.1733759E+006  0.2320730E+01  0.7546771E-02  0.2793260E+00
         22   -1    0    0    0    0  0.00000000000E+00  0.00000000000E+00  0.44098523007E+00  0.44098523007E+00  0.00000000000E+00 0.  1.
         22   -1    0    0    0    0 -0.00000000000E+00 -0.00000000000E+00 -0.12233575660E+02  0.12233575660E+02  0.00000000000E+00 0. -1.
          4    1    1    2  501    0 -0.19371964384E+01 -0.14197560286E+00 -0.61556987813E+01  0.65786331862E+01  0.12700000000E+01 0.  1.
         -4    1    1    2    0  501  0.19371964384E+01  0.14197560286E+00 -0.56368916490E+01  0.60959277042E+01  0.12700000000E+01 0. -1.
<mgrwt>
<rscale>  0 0.23207299E+01</rscale>
<asrwt>0</asrwt>
<pdfrwt beam="1">0</pdfrwt>
<pdfrwt beam="2">0</pdfrwt>
<totfact> 0.31435295E+12</totfact>
</mgrwt>
</event>
<event>
 4    1  0.1733759E+006  0.2597337E+01  0.7546771E-02  0.2667113E+00
         22   -1    0    0    0    0  0.00000000000E+00  0.00000000000E+00  0.45375498391E+01  0.45375498391E+01  0.00000000000E+00 0.  1.
         22   -1    0    0    0    0 -0.00000000000E+00 -0.00000000000E+00 -0.15202044959E+01  0.15202044959E+01  0.00000000000E+00 0. -1.
          4    1    1    2  501    0  0.22491561910E+01 -0.27304545139E+00  0.19580612432E+01  0.32527159762E+01  0.12700000000E+01 0.  1.
         -4    1    1    2    0  501 -0.22491561910E+01  0.27304545139E+00  0.10592840999E+01  0.28050383588E+01  0.12700000000E+01 0. -1.
<mgrwt>
<rscale>  0 0.25973366E+01</rscale>
<asrwt>0</asrwt>
<pdfrwt beam="1">0</pdfrwt>
<pdfrwt beam="2">0</pdfrwt>
<totfact> 0.25241681E+12</totfact>
</mgrwt>
</event>
<event>
 4    1  0.1733759E+006  0.2133100E+01  0.7546771E-02  0.2896332E+00
         22   -1    0    0    0    0  0.00000000000E+00  0.00000000000E+00  0.29593394130E+00  0.29593394130E+00  0.00000000000E+00 0. -1.
         22   -1    0    0    0    0 -0.00000000000E+00 -0.00000000000E+00 -0.42880659362E+02  0.42880659362E+02  0.00000000000E+00 0.  1.
          4    1    1    2  501    0 -0.16527474469E+01  0.45347793792E+00 -0.38582369274E+02  0.38641290547E+02  0.12700000000E+01 0.  1.
         -4    1    1    2    0  501  0.16527474469E+01 -0.45347793792E+00 -0.40023561464E+01  0.45353027557E+01  0.12700000000E+01 0. -1.
<mgrwt>
<rscale>  0 0.21331002E+01</rscale>
<asrwt>0</asrwt>
<pdfrwt beam="1">0</pdfrwt>
<pdfrwt beam="2">0</pdfrwt>
<totfact> 0.10163046E+12</totfact>
</mgrwt>
</event>
<event>
 4    1  0.1733759E+006  0.4009562E+01  0.7546771E-02  0.2275470E+00
         22   -1    0    0    0    0  0.00000000000E+00  0.00000000000E+00  0.52401994122E+01  0.52401994122E+01  0.00000000000E+00 0. -1.
         22   -1    0    0    0    0 -0.00000000000E+00 -0.00000000000E+00 -0.22249556138E+02  0.22249556138E+02  0.00000000000E+00 0. -1.
          4    1    1    2  501    0  0.20247364578E+01  0.32193372688E+01 -0.21266799515E+02  0.21641472958E+02  0.12700000000E+01 0. -1.
         -4    1    1    2    0  501 -0.20247364578E+01 -0.32193372688E+01  0.42574427894E+01  0.58482825922E+01  0.12700000000E+01 0. -1.
<mgrwt>
<rscale>  0 0.40095623E+01</rscale>
<asrwt>0</asrwt>
<pdfrwt beam="1">0</pdfrwt>
<pdfrwt beam="2">0</pdfrwt>
<totfact> 0.86542759E+10</totfact>
</mgrwt>
</event>
<event>
 4    1  0.1733759E+006  0.2173646E+01  0.7546771E-02  0.2872616E+00
         22   -1    0    0    0    0  0.00000000000E+00  0.00000000000E+00  0.13752515976E+02  0.13752515976E+02  0.00000000000E+00 0. -1.
         22   -1    0    0    0    0 -0.00000000000E+00 -0.00000000000E+00 -0.45457131118E+00  0.45457131118E+00  0.00000000000E+00 0.  1.
          4    1    1    2  501    0 -0.69433901704E-01 -0.17626724651E+01  0.31384728891E+01  0.38176887460E+01  0.12700000000E+01 0.  1.
         -4    1    1    2    0  501  0.69433901704E-01  0.17626724651E+01  0.10159471775E+02  0.10389398541E+02  0.12700000000E+01 0. -1.
<mgrwt>
<rscale>  0 0.21736456E+01</rscale>
<asrwt>0</asrwt>
<pdfrwt beam="1">0</pdfrwt>
<pdfrwt beam="2">0</pdfrwt>
<totfact> 0.26325542E+12</totfact>
</mgrwt>
</event>
<event>
 4    1  0.1733759E+006  0.5506514E+01  0.7546771E-02  0.2066993E+00
         22   -1    0    0    0    0  0.00000000000E+00  0.00000000000E+00  0.11142305204E+02  0.11142305204E+02  0.00000000000E+00 0.  1.
         22   -1    0    0    0    0 -0.00000000000E+00 -0.00000000000E+00 -0.48761996404E+01  0.48761996404E+01  0.00000000000E+00 0.  1.
          4    1    1    2  501    0 -0.69792031492E+00 -0.53124106489E+01 -0.21912587610E+01  0.59264926075E+01  0.12700000000E+01 0.  1.
         -4    1    1    2    0  501  0.69792031492E+00  0.53124106489E+01  0.84573643243E+01  0.10092012237E+02  0.12700000000E+01 0.  1.
<mgrwt>
<rscale>  0 0.55065143E+01</rscale>
<asrwt>0</asrwt>
<pdfrwt beam="1">0</pdfrwt>
<pdfrwt beam="2">0</pdfrwt>
<totfact> 0.22120988E+11</totfact>
</mgrwt>
</event>
<event>
 4    1  0.1733759E+006  0.3108946E+01  0.7546771E-02  0.2488834E+00
         22   -1    0    0    0    0  0.00000000000E+00  0.00000000000E+00  0.20870178384E+01  0.20870178384E+01  0.00000000000E+00 0. -1.
         22   -1    0    0    0    0 -0.00000000000E+00 -0.00000000000E+00 -0.51449028051E+01  0.51449028051E+01  0.00000000000E+00 0.  1.
          4    1    1    2  501    0  0.14926031985E+01  0.24134584111E+01 -0.26714548189E+01  0.40990507022E+01  0.12700000000E+01 0.  1.
         -4    1    1    2    0  501 -0.14926031985E+01 -0.24134584111E+01 -0.38643014782E+00  0.31328699413E+01  0.12700000000E+01 0. -1.
<mgrwt>
<rscale>  0 0.31089461E+01</rscale>
<asrwt>0</asrwt>
<pdfrwt beam="1">0</pdfrwt>
<pdfrwt beam="2">0</pdfrwt>
<totfact> 0.15089826E+12</totfact>
</mgrwt>
</event>
<event>
 4    1  0.1733759E+006  0.2862283E+01  0.7546771E-02  0.2567577E+00
         22   -1    0    0    0    0  0.00000000000E+00  0.00000000000E+00  0.24905761265E+01  0.24905761265E+01  0.00000000000E+00 0. -1.
         22   -1    0    0    0    0 -0.00000000000E+00 -0.00000000000E+00 -0.34891173374E+01  0.34891173374E+01  0.00000000000E+00 0.  1.
          4    1    1    2  501    0 -0.63776870229E+00  0.24845547904E+01  0.21593189658E+00  0.28704159991E+01  0.12700000000E+01 0. -1.
         -4    1    1    2    0  501  0.63776870229E+00 -0.24845547904E+01 -0.12144731075E+01  0.31092774647E+01  0.12700000000E+01 0.  1.
<mgrwt>
<rscale>  0 0.28622826E+01</rscale>
<asrwt>0</asrwt>
<pdfrwt beam="1">0</pdfrwt>
<pdfrwt beam="2">0</pdfrwt>
<totfact> 0.19424705E+12</totfact>
</mgrwt>
</event>
<event>
 4    1  0.1733759E+006  0.2571956E+01  0.7546771E-02  0.2677632E+00
         22   -1    0    0    0    0  0.00000000000E+00  0.00000000000E+00  0.18384646853E+01  0.18384646853E+01  0.00000000000E+00 0.  1.
         22   -1    0    0    0    0 -0.00000000000E+00 -0.00000000000E+00 -0.35989201841E+01  0.35989201841E+01  0.00000000000E+00 0.  1.
          4    1    1    2  501    0  0.19642529766E+01 -0.10694713511E+01 -0.83890006151E+00  0.27053118193E+01  0.12700000000E+01 0.  1.
         -4    1    1    2    0  501 -0.19642529766E+01  0.10694713511E+01 -0.92155543727E+00  0.27320730500E+01  0.12700000000E+01 0.  1.
<mgrwt>
<rscale>  0 0.25719562E+01</rscale>
<asrwt>0</asrwt>
<pdfrwt beam="1">0</pdfrwt>
<pdfrwt beam="2">0</pdfrwt>
<totfact> 0.26631462E+12</totfact>
</mgrwt>
</event>
<event>
 4    1  0.1733759E+006  0.2018645E+01  0.7546771E-02  0.2968253E+00
         22   -1    0    0    0    0  0.00000000000E+00  0.00000000000E+00  0.18506853016E+01  0.18506853016E+01  0.00000000000E+00 0. -1.
         22   -1    0    0    0    0 -0.00000000000E+00 -0.00000000000E+00 -0.23524519287E+01  0.23524519287E+01  0.00000000000E+00 0. -1.
          4    1    1    2  501    0 -0.15294597961E+01 -0.35039757939E+00 -0.78262768637E+00  0.21650477655E+01  0.12700000000E+01 0. -1.
         -4    1    1    2    0  501  0.15294597961E+01  0.35039757939E+00  0.28086105929E+00  0.20380894647E+01  0.12700000000E+01 0. -1.
<mgrwt>
<rscale>  0 0.20186445E+01</rscale>
<asrwt>0</asrwt>
<pdfrwt beam="1">0</pdfrwt>
<pdfrwt beam="2">0</pdfrwt>
<totfact> 0.43410389E+12</totfact>
</mgrwt>
</event>
<event>
 4    1  0.1733759E+006  0.2972723E+01  0.7546771E-02  0.2530871E+00
         22   -1    0    0    0    0  0.00000000000E+00  0.00000000000E+00  0.14173487802E+02  0.14173487802E+02  0.00000000000E+00 0. -1.
         22   -1    0    0    0    0 -0.00000000000E+00 -0.00000000000E+00 -0.84070410403E+00  0.84070410403E+00  0.00000000000E+00 0.  1.
          4    1    1    2  501    0  0.23279611618E+01  0.13434197944E+01  0.28505468459E+01  0.41185795167E+01  0.12700000000E+01 0.  1.
         -4    1    1    2    0  501 -0.23279611618E+01 -0.13434197944E+01  0.10482236852E+02  0.10895612389E+02  0.12700000000E+01 0. -1.
<mgrwt>
<rscale>  0 0.29727226E+01</rscale>
<asrwt>0</asrwt>
<pdfrwt beam="1">0</pdfrwt>
<pdfrwt beam="2">0</pdfrwt>
<totfact> 0.12641405E+12</totfact>
</mgrwt>
</event>
<event>
 4    1  0.1733759E+006  0.7138868E+01  0.7546771E-02  0.1930455E+00
         22   -1    0    0    0    0  0.00000000000E+00  0.00000000000E+00  0.21984340917E+01  0.21984340917E+01  0.00000000000E+00 0.  1.
         22   -1    0    0    0    0 -0.00000000000E+00 -0.00000000000E+00 -0.23339600193E+02  0.23339600193E+02  0.00000000000E+00 0. -1.
          4    1    1    2  501    0 -0.69394322829E+01 -0.10930737831E+01 -0.11620869225E+02  0.13638476170E+02  0.12700000000E+01 0.  1.
         -4    1    1    2    0  501  0.69394322829E+01  0.10930737831E+01 -0.95202968765E+01  0.11899558115E+02  0.12700000000E+01 0. -1.
<mgrwt>
<rscale>  0 0.71388676E+01</rscale>
<asrwt>0</asrwt>
<pdfrwt beam="1">0</pdfrwt>
<pdfrwt beam="2">0</pdfrwt>
<totfact> 0.22558241E+11</totfact>
</mgrwt>
</event>
<event>
 4    1  0.1733759E+006  0.2191024E+01  0.7546771E-02  0.2862710E+00
         22   -1    0    0    0    0  0.00000000000E+00  0.00000000000E+00  0.49266129479E+01  0.49266129479E+01  0.00000000000E+00 0. -1.
         22   -1    0    0    0    0 -0.00000000000E+00 -0.00000000000E+00 -0.10302725842E+01  0.10302725842E+01  0.00000000000E+00 0. -1.
          4    1    1    2  501    0 -0.15643365258E+01  0.86054450790E+00  0.12546830097E+01  0.25248396129E+01  0.12700000000E+01 0. -1.
         -4    1    1    2    0  501  0.15643365258E+01 -0.86054450790E+00  0.26416573539E+01  0.34320459192E+01  0.12700000000E+01 0. -1.
<mgrwt>
<rscale>  0 0.21910239E+01</rscale>
<asrwt>0</asrwt>
<pdfrwt beam="1">0</pdfrwt>
<pdfrwt beam="2">0</pdfrwt>
<totfact> 0.35776147E+12</totfact>
</mgrwt>
</event>
<event>
 4    1  0.1733759E+006  0.2396502E+01  0.7546771E-02  0.2755995E+00
         22   -1    0    0    0    0  0.00000000000E+00  0.00000000000E+00  0.22631484936E+00  0.22631484936E+00  0.00000000000E+00 0. -1.
         22   -1    0    0    0    0 -0.00000000000E+00 -0.00000000000E+00 -0.25420382382E+02  0.25420382382E+02  0.00000000000E+00 0.  1.
          4    1    1    2  501    0 -0.18735673251E+00  0.20236652412E+01 -0.13125925284E+02  0.13342905910E+02  0.12700000000E+01 0.  1.
         -4    1    1    2    0  501  0.18735673251E+00 -0.20236652412E+01 -0.12068142249E+02  0.12303791322E+02  0.12700000000E+01 0.  1.
<mgrwt>
<rscale>  0 0.23965024E+01</rscale>
<asrwt>0</asrwt>
<pdfrwt beam="1">0</pdfrwt>
<pdfrwt beam="2">0</pdfrwt>
<totfact> 0.26827999E+12</totfact>
</mgrwt>
</event>
<event>
 4    1  0.1733759E+006  0.7650528E+01  0.7546771E-02  0.1897146E+00
         22   -1    0    0    0    0  0.00000000000E+00  0.00000000000E+00  0.22334068522E+02  0.22334068522E+02  0.00000000000E+00 0. -1.
         22   -1    0    0    0    0 -0.00000000000E+00 -0.00000000000E+00 -0.28946525942E+01  0.28946525942E+01  0.00000000000E+00 0.  1.
          4    1    1    2  501    0  0.72415079012E+00 -0.75095461434E+01  0.58389556094E+01  0.96241352991E+01  0.12700000000E+01 0.  1.
         -4    1    1    2    0  501 -0.72415079012E+00  0.75095461434E+01  0.13600460318E+02  0.15604585817E+02  0.12700000000E+01 0. -1.
<mgrwt>
<rscale>  0 0.76505279E+01</rscale>
<asrwt>0</asrwt>
<pdfrwt beam="1">0</pdfrwt>
<pdfrwt beam="2">0</pdfrwt>
<totfact> 0.17310159E+11</totfact>
</mgrwt>
</event>
<event>
 4    1  0.1733759E+006  0.4785260E+01  0.7546771E-02  0.2149543E+00
         22   -1    0    0    0    0  0.00000000000E+00  0.00000000000E+00  0.39209540421E+01  0.39209540421E+01  0.00000000000E+00 0.  1.
         22   -1    0    0    0    0 -0.00000000000E+00 -0.00000000000E+00 -0.69266250692E+01  0.69266250692E+01  0.00000000000E+00 0. -1.
          4    1    1    2  501    0 -0.37412907446E+00 -0.45984608622E+01 -0.36509842830E+01  0.60190033312E+01  0.12700000000E+01 0. -1.
         -4    1    1    2    0  501  0.37412907446E+00  0.45984608622E+01  0.64531325593E+00  0.48285757801E+01  0.12700000000E+01 0.  1.
<mgrwt>
<rscale>  0 0.47852602E+01</rscale>
<asrwt>0</asrwt>
<pdfrwt beam="1">0</pdfrwt>
<pdfrwt beam="2">0</pdfrwt>
<totfact> 0.50742159E+11</totfact>
</mgrwt>
</event>
<event>
 4    1  0.1733759E+006  0.2185997E+01  0.7546771E-02  0.2865560E+00
         22   -1    0    0    0    0  0.00000000000E+00  0.00000000000E+00  0.15159315972E+01  0.15159315972E+01  0.00000000000E+00 0.  1.
         22   -1    0    0    0    0 -0.00000000000E+00 -0.00000000000E+00 -0.53741192221E+01  0.53741192221E+01  0.00000000000E+00 0. -1.
          4    1    1    2  501    0  0.14880396029E+01 -0.97540709840E+00 -0.41442225077E+01  0.46854200517E+01  0.12700000000E+01 0.  1.
         -4    1    1    2    0  501 -0.14880396029E+01  0.97540709840E+00  0.28603488281E+00  0.22046307677E+01  0.12700000000E+01 0. -1.
<mgrwt>
<rscale>  0 0.21859965E+01</rscale>
<asrwt>0</asrwt>
<pdfrwt beam="1">0</pdfrwt>
<pdfrwt beam="2">0</pdfrwt>
<totfact> 0.20726519E+12</totfact>
</mgrwt>
</event>
<event>
 4    1  0.1733759E+006  0.2671396E+01  0.7546771E-02  0.2637473E+00
         22   -1    0    0    0    0  0.00000000000E+00  0.00000000000E+00  0.15689065166E+02  0.15689065166E+02  0.00000000000E+00 0.  1.
         22   -1    0    0    0    0 -0.00000000000E+00 -0.00000000000E+00 -0.45529879837E+00  0.45529879837E+00  0.00000000000E+00 0. -1.
          4    1    1    2  501    0 -0.87567440475E+00  0.21809747530E+01  0.78669631846E+01  0.83081566117E+01  0.12700000000E+01 0.  1.
         -4    1    1    2    0  501  0.87567440475E+00 -0.21809747530E+01  0.73668031828E+01  0.78362073525E+01  0.12700000000E+01 0.  1.
<mgrwt>
<rscale>  0 0.26713960E+01</rscale>
<asrwt>0</asrwt>
<pdfrwt beam="1">0</pdfrwt>
<pdfrwt beam="2">0</pdfrwt>
<totfact> 0.22349752E+12</totfact>
</mgrwt>
</event>
<event>
 4    1  0.1733759E+006  0.4843630E+01  0.7546771E-02  0.2142144E+00
         22   -1    0    0    0    0  0.00000000000E+00  0.00000000000E+00  0.39267790366E+01  0.39267790366E+01  0.00000000000E+00 0.  1.
         22   -1    0    0    0    0 -0.00000000000E+00 -0.00000000000E+00 -0.96861647210E+01  0.96861647210E+01  0.00000000000E+00 0. -1.
          4    1    1    2  501    0 -0.13518451516E+00 -0.46722128300E+01 -0.70930417671E+01  0.85890621777E+01  0.12700000000E+01 0. -1.
         -4    1    1    2    0  501  0.13518451516E+00  0.46722128300E+01  0.13336560827E+01  0.50238815799E+01  0.12700000000E+01 0.  1.
<mgrwt>
<rscale>  0 0.48436296E+01</rscale>
<asrwt>0</asrwt>
<pdfrwt beam="1">0</pdfrwt>
<pdfrwt beam="2">0</pdfrwt>
<totfact> 0.33845173E+11</totfact>
</mgrwt>
</event>
<event>
 4    1  0.1733759E+006  0.2430005E+01  0.7546771E-02  0.2740217E+00
         22   -1    0    0    0    0  0.00000000000E+00  0.00000000000E+00  0.58087369683E-01  0.58087369683E-01  0.00000000000E+00 0.  1.
         22   -1    0    0    0    0 -0.00000000000E+00 -0.00000000000E+00 -0.10318997277E+03  0.10318997277E+03  0.00000000000E+00 0.  1.
          4    1    1    2  501    0  0.77172630992E+00 -0.19226188226E+01 -0.57860340855E+02  0.57911345766E+02  0.12700000000E+01 0.  1.
         -4    1    1    2    0  501 -0.77172630992E+00  0.19226188226E+01 -0.45271544549E+02  0.45336714377E+02  0.12700000000E+01 0.  1.
<mgrwt>
<rscale>  0 0.24300051E+01</rscale>
<asrwt>0</asrwt>
<pdfrwt beam="1">0</pdfrwt>
<pdfrwt beam="2">0</pdfrwt>
<totfact> 0.18889334E+12</totfact>
</mgrwt>
</event>
<event>
 4    1  0.1733759E+006  0.2449742E+01  0.7546771E-02  0.2731111E+00
         22   -1    0    0    0    0  0.00000000000E+00  0.00000000000E+00  0.22653168814E+00  0.22653168814E+00  0.00000000000E+00 0.  1.
         22   -1    0    0    0    0 -0.00000000000E+00 -0.00000000000E+00 -0.42515366135E+02  0.42515366135E+02  0.00000000000E+00 0.  1.
          4    1    1    2  501    0  0.16251204181E+01 -0.13218621612E+01 -0.34264307633E+02  0.34351768710E+02  0.12700000000E+01 0.  1.
         -4    1    1    2    0  501 -0.16251204181E+01  0.13218621612E+01 -0.80245268146E+01  0.83901291137E+01  0.12700000000E+01 0.  1.
<mgrwt>
<rscale>  0 0.24497420E+01</rscale>
<asrwt>0</asrwt>
<pdfrwt beam="1">0</pdfrwt>
<pdfrwt beam="2">0</pdfrwt>
<totfact> 0.13860760E+12</totfact>
</mgrwt>
</event>
<event>
 4    1  0.1733759E+006  0.2618597E+01  0.7546771E-02  0.2658446E+00
         22   -1    0    0    0    0  0.00000000000E+00  0.00000000000E+00  0.45841238079E+01  0.45841238079E+01  0.00000000000E+00 0.  1.
         22   -1    0    0    0    0 -0.00000000000E+00 -0.00000000000E+00 -0.18683012273E+01  0.18683012273E+01  0.00000000000E+00 0. -1.
          4    1    1    2  501    0 -0.22877603240E+01  0.10151483176E+00 -0.82604736282E-01  0.26199000178E+01  0.12700000000E+01 0. -1.
         -4    1    1    2    0  501  0.22877603240E+01 -0.10151483176E+00  0.27984273169E+01  0.38325250174E+01  0.12700000000E+01 0.  1.
<mgrwt>
<rscale>  0 0.26185974E+01</rscale>
<asrwt>0</asrwt>
<pdfrwt beam="1">0</pdfrwt>
<pdfrwt beam="2">0</pdfrwt>
<totfact> 0.19661039E+12</totfact>
</mgrwt>
</event>
<event>
 4    1  0.1733759E+006  0.2590755E+01  0.7546771E-02  0.2669823E+00
         22   -1    0    0    0    0  0.00000000000E+00  0.00000000000E+00  0.43762665891E+01  0.43762665891E+01  0.00000000000E+00 0.  1.
         22   -1    0    0    0    0 -0.00000000000E+00 -0.00000000000E+00 -0.16170415409E+01  0.16170415409E+01  0.00000000000E+00 0.  1.
          4    1    1    2  501    0  0.62095879577E+00 -0.21710642923E+01  0.20598012371E+01  0.33098022786E+01  0.12700000000E+01 0.  1.
         -4    1    1    2    0  501 -0.62095879577E+00  0.21710642923E+01  0.69942381114E+00  0.26835058514E+01  0.12700000000E+01 0.  1.
<mgrwt>
<rscale>  0 0.25907547E+01</rscale>
<asrwt>0</asrwt>
<pdfrwt beam="1">0</pdfrwt>
<pdfrwt beam="2">0</pdfrwt>
<totfact> 0.24534757E+12</totfact>
</mgrwt>
</event>
<event>
 4    1  0.1733759E+006  0.2724837E+01  0.7546771E-02  0.2617005E+00
         22   -1    0    0    0    0  0.00000000000E+00  0.00000000000E+00  0.23787276267E+01  0.23787276267E+01  0.00000000000E+00 0.  1.
         22   -1    0    0    0    0 -0.00000000000E+00 -0.00000000000E+00 -0.75081837779E+01  0.75081837779E+01  0.00000000000E+00 0. -1.
          4    1    1    2  501    0  0.69013587447E+00 -0.23098804375E+01 -0.63434157889E+01  0.69038872406E+01  0.12700000000E+01 0. -1.
         -4    1    1    2    0  501 -0.69013587447E+00  0.23098804375E+01  0.12139596377E+01  0.29830241640E+01  0.12700000000E+01 0.  1.
<mgrwt>
<rscale>  0 0.27248367E+01</rscale>
<asrwt>0</asrwt>
<pdfrwt beam="1">0</pdfrwt>
<pdfrwt beam="2">0</pdfrwt>
<totfact> 0.82627378E+11</totfact>
</mgrwt>
</event>
<event>
 4    1  0.1733759E+006  0.2225736E+01  0.7546771E-02  0.2843367E+00
         22   -1    0    0    0    0  0.00000000000E+00  0.00000000000E+00  0.24340326890E+01  0.24340326890E+01  0.00000000000E+00 0. -1.
         22   -1    0    0    0    0 -0.00000000000E+00 -0.00000000000E+00 -0.21145711744E+01  0.21145711744E+01  0.00000000000E+00 0. -1.
          4    1    1    2  501    0 -0.17129502185E+01  0.63781070221E+00 -0.28071368993E+00  0.22433682530E+01  0.12700000000E+01 0. -1.
         -4    1    1    2    0  501  0.17129502185E+01 -0.63781070221E+00  0.60017520462E+00  0.23052356104E+01  0.12700000000E+01 0. -1.
<mgrwt>
<rscale>  0 0.22257360E+01</rscale>
<asrwt>0</asrwt>
<pdfrwt beam="1">0</pdfrwt>
<pdfrwt beam="2">0</pdfrwt>
<totfact> 0.35762065E+12</totfact>
</mgrwt>
</event>
<event>
 4    1  0.1733759E+006  0.2871199E+01  0.7546771E-02  0.2564519E+00
         22   -1    0    0    0    0  0.00000000000E+00  0.00000000000E+00  0.20547690299E+01  0.20547690299E+01  0.00000000000E+00 0.  1.
         22   -1    0    0    0    0 -0.00000000000E+00 -0.00000000000E+00 -0.17635576282E+02  0.17635576282E+02  0.00000000000E+00 0. -1.
          4    1    1    2  501    0 -0.21285075187E+01  0.14492549573E+01 -0.16443542594E+02  0.16692329892E+02  0.12700000000E+01 0. -1.
         -4    1    1    2    0  501  0.21285075187E+01 -0.14492549573E+01  0.86273534162E+00  0.29980154199E+01  0.12700000000E+01 0.  1.
<mgrwt>
<rscale>  0 0.28711991E+01</rscale>
<asrwt>0</asrwt>
<pdfrwt beam="1">0</pdfrwt>
<pdfrwt beam="2">0</pdfrwt>
<totfact> 0.34609569E+11</totfact>
</mgrwt>
</event>
<event>
 4    1  0.1733759E+006  0.2302374E+01  0.7546771E-02  0.2802636E+00
         22   -1    0    0    0    0  0.00000000000E+00  0.00000000000E+00  0.92650812976E+00  0.92650812976E+00  0.00000000000E+00 0.  1.
         22   -1    0    0    0    0 -0.00000000000E+00 -0.00000000000E+00 -0.14103286028E+02  0.14103286028E+02  0.00000000000E+00 0.  1.
          4    1    1    2  501    0 -0.48266585664E+00 -0.18587792151E+01 -0.12381791084E+02  0.12594033387E+02  0.12700000000E+01 0.  1.
         -4    1    1    2    0  501  0.48266585664E+00  0.18587792151E+01 -0.79498681449E+00  0.24357607712E+01  0.12700000000E+01 0.  1.
<mgrwt>
<rscale>  0 0.23023741E+01</rscale>
<asrwt>0</asrwt>
<pdfrwt beam="1">0</pdfrwt>
<pdfrwt beam="2">0</pdfrwt>
<totfact> 0.11384904E+12</totfact>
</mgrwt>
</event>
<event>
 4    1  0.1733759E+006  0.2645667E+01  0.7546771E-02  0.2647597E+00
         22   -1    0    0    0    0  0.00000000000E+00  0.00000000000E+00  0.81695105752E+01  0.81695105752E+01  0.00000000000E+00 0.  1.
         22   -1    0    0    0    0 -0.00000000000E+00 -0.00000000000E+00 -0.14341523556E+01  0.14341523556E+01  0.00000000000E+00 0. -1.
          4    1    1    2  501    0  0.48675400509E+00  0.22693008448E+01  0.64144055548E+01  0.69385988793E+01  0.12700000000E+01 0.  1.
         -4    1    1    2    0  501 -0.48675400509E+00 -0.22693008448E+01  0.32095266484E+00  0.26650640515E+01  0.12700000000E+01 0. -1.
<mgrwt>
<rscale>  0 0.26456674E+01</rscale>
<asrwt>0</asrwt>
<pdfrwt beam="1">0</pdfrwt>
<pdfrwt beam="2">0</pdfrwt>
<totfact> 0.13398219E+12</totfact>
</mgrwt>
</event>
<event>
 4    1  0.1733759E+006  0.2046131E+01  0.7546771E-02  0.2950266E+00
         22   -1    0    0    0    0  0.00000000000E+00  0.00000000000E+00  0.78518226780E+00  0.78518226780E+00  0.00000000000E+00 0.  1.
         22   -1    0    0    0    0 -0.00000000000E+00 -0.00000000000E+00 -0.78104017373E+01  0.78104017373E+01  0.00000000000E+00 0. -1.
          4    1    1    2  501    0  0.50896576427E+00 -0.15214158097E+01 -0.59335709033E+01  0.62764572714E+01  0.12700000000E+01 0. -1.
         -4    1    1    2    0  501 -0.50896576427E+00  0.15214158097E+01 -0.10916485663E+01  0.23191267338E+01  0.12700000000E+01 0.  1.
<mgrwt>
<rscale>  0 0.20461310E+01</rscale>
<asrwt>0</asrwt>
<pdfrwt beam="1">0</pdfrwt>
<pdfrwt beam="2">0</pdfrwt>
<totfact> 0.28155627E+12</totfact>
</mgrwt>
</event>
<event>
 4    1  0.1733759E+006  0.2659999E+01  0.7546771E-02  0.2641935E+00
         22   -1    0    0    0    0  0.00000000000E+00  0.00000000000E+00  0.40849350250E+02  0.40849350250E+02  0.00000000000E+00 0.  1.
         22   -1    0    0    0    0 -0.00000000000E+00 -0.00000000000E+00 -0.22070609550E+01  0.22070609550E+01  0.00000000000E+00 0. -1.
          4    1    1    2  501    0  0.16623814829E+01  0.16429188382E+01 -0.13450266641E+01  0.29807199182E+01  0.12700000000E+01 0. -1.
         -4    1    1    2    0  501 -0.16623814829E+01 -0.16429188382E+01  0.39987315959E+02  0.40075691287E+02  0.12700000000E+01 0.  1.
<mgrwt>
<rscale>  0 0.26599990E+01</rscale>
<asrwt>0</asrwt>
<pdfrwt beam="1">0</pdfrwt>
<pdfrwt beam="2">0</pdfrwt>
<totfact> 0.10986560E+11</totfact>
</mgrwt>
</event>
<event>
 4    1  0.1733759E+006  0.2255364E+01  0.7546771E-02  0.2827308E+00
         22   -1    0    0    0    0  0.00000000000E+00  0.00000000000E+00  0.83338686083E+01  0.83338686083E+01  0.00000000000E+00 0. -1.
         22   -1    0    0    0    0 -0.00000000000E+00 -0.00000000000E+00 -0.21325632146E+01  0.21325632146E+01  0.00000000000E+00 0.  1.
          4    1    1    2  501    0 -0.18131083386E+01 -0.43174804805E+00 -0.13206868998E+01  0.26135956290E+01  0.12700000000E+01 0.  1.
         -4    1    1    2    0  501  0.18131083386E+01  0.43174804805E+00  0.75219922935E+01  0.78528361939E+01  0.12700000000E+01 0. -1.
<mgrwt>
<rscale>  0 0.22553643E+01</rscale>
<asrwt>0</asrwt>
<pdfrwt beam="1">0</pdfrwt>
<pdfrwt beam="2">0</pdfrwt>
<totfact> 0.82744997E+11</totfact>
</mgrwt>
</event>
<event>
 4    1  0.1733759E+006  0.3058753E+01  0.7546771E-02  0.2503933E+00
         22   -1    0    0    0    0  0.00000000000E+00  0.00000000000E+00  0.22183187282E+01  0.22183187282E+01  0.00000000000E+00 0.  1.
         22   -1    0    0    0    0 -0.00000000000E+00 -0.00000000000E+00 -0.86259297612E+01  0.86259297612E+01  0.00000000000E+00 0. -1.
          4    1    1    2  501    0 -0.20512770025E+01 -0.18802487426E+01 -0.70799836711E+01  0.77124666260E+01  0.12700000000E+01 0. -1.
         -4    1    1    2    0  501  0.20512770025E+01  0.18802487426E+01  0.67237263808E+00  0.31317818633E+01  0.12700000000E+01 0.  1.
<mgrwt>
<rscale>  0 0.30587535E+01</rscale>
<asrwt>0</asrwt>
<pdfrwt beam="1">0</pdfrwt>
<pdfrwt beam="2">0</pdfrwt>
<totfact> 0.75840883E+11</totfact>
</mgrwt>
</event>
<event>
 4    1  0.1733759E+006  0.2329479E+01  0.7546771E-02  0.2788840E+00
         22   -1    0    0    0    0  0.00000000000E+00  0.00000000000E+00  0.15280839031E+02  0.15280839031E+02  0.00000000000E+00 0.  1.
         22   -1    0    0    0    0 -0.00000000000E+00 -0.00000000000E+00 -0.38516617439E+00  0.38516617439E+00  0.00000000000E+00 0.  1.
          4    1    1    2  501    0  0.61384640805E+00  0.18538513937E+01  0.96357329001E+01  0.99133153346E+01  0.12700000000E+01 0.  1.
         -4    1    1    2    0  501 -0.61384640805E+00 -0.18538513937E+01  0.52599399563E+01  0.57526898705E+01  0.12700000000E+01 0.  1.
<mgrwt>
<rscale>  0 0.23294790E+01</rscale>
<asrwt>0</asrwt>
<pdfrwt beam="1">0</pdfrwt>
<pdfrwt beam="2">0</pdfrwt>
<totfact> 0.27873851E+12</totfact>
</mgrwt>
</event>
<event>
 4    1  0.1733759E+006  0.2471694E+01  0.7546771E-02  0.2721142E+00
         22   -1    0    0    0    0  0.00000000000E+00  0.00000000000E+00  0.23350532250E+00  0.23350532250E+00  0.00000000000E+00 0.  1.
         22   -1    0    0    0    0 -0.00000000000E+00 -0.00000000000E+00 -0.32458329922E+02  0.32458329922E+02  0.00000000000E+00 0. -1.
          4    1    1    2  501    0 -0.19760444872E+01 -0.76916805273E+00 -0.23310960183E+02  0.23441632536E+02  0.12700000000E+01 0. -1.
         -4    1    1    2    0  501  0.19760444872E+01  0.76916805273E+00 -0.89138644165E+01  0.92502027083E+01  0.12700000000E+01 0.  1.
<mgrwt>
<rscale>  0 0.24716940E+01</rscale>
<asrwt>0</asrwt>
<pdfrwt beam="1">0</pdfrwt>
<pdfrwt beam="2">0</pdfrwt>
<totfact> 0.18987751E+12</totfact>
</mgrwt>
</event>
<event>
 4    1  0.1733759E+006  0.2029687E+01  0.7546771E-02  0.2960970E+00
         22   -1    0    0    0    0  0.00000000000E+00  0.00000000000E+00  0.12717277358E+01  0.12717277358E+01  0.00000000000E+00 0. -1.
         22   -1    0    0    0    0 -0.00000000000E+00 -0.00000000000E+00 -0.10482810772E+02  0.10482810772E+02  0.00000000000E+00 0.  1.
          4    1    1    2  501    0  0.90710334009E+00  0.12976489183E+01 -0.94910346220E+01  0.97056358566E+01  0.12700000000E+01 0.  1.
         -4    1    1    2    0  501 -0.90710334009E+00 -0.12976489183E+01  0.27995158568E+00  0.20489026514E+01  0.12700000000E+01 0. -1.
<mgrwt>
<rscale>  0 0.20296870E+01</rscale>
<asrwt>0</asrwt>
<pdfrwt beam="1">0</pdfrwt>
<pdfrwt beam="2">0</pdfrwt>
<totfact> 0.11381220E+12</totfact>
</mgrwt>
</event>
<event>
 4    1  0.1733759E+006  0.2360122E+01  0.7546771E-02  0.2773606E+00
         22   -1    0    0    0    0  0.00000000000E+00  0.00000000000E+00  0.69553211431E+01  0.69553211431E+01  0.00000000000E+00 0. -1.
         22   -1    0    0    0    0 -0.00000000000E+00 -0.00000000000E+00 -0.10847057268E+01  0.10847057268E+01  0.00000000000E+00 0.  1.
          4    1    1    2  501    0 -0.19892544464E+01 -0.11887902939E-01  0.87885016223E+00  0.25184424119E+01  0.12700000000E+01 0.  1.
         -4    1    1    2    0  501  0.19892544464E+01  0.11887902939E-01  0.49917652541E+01  0.55215844580E+01  0.12700000000E+01 0. -1.
<mgrwt>
<rscale>  0 0.23601217E+01</rscale>
<asrwt>0</asrwt>
<pdfrwt beam="1">0</pdfrwt>
<pdfrwt beam="2">0</pdfrwt>
<totfact> 0.22381329E+12</totfact>
</mgrwt>
</event>
<event>
 4    1  0.1733759E+006  0.4200421E+01  0.7546771E-02  0.2240546E+00
         22   -1    0    0    0    0  0.00000000000E+00  0.00000000000E+00  0.19410365502E+02  0.19410365502E+02  0.00000000000E+00 0.  1.
         22   -1    0    0    0    0 -0.00000000000E+00 -0.00000000000E+00 -0.22912122682E+01  0.22912122682E+01  0.00000000000E+00 0. -1.
          4    1    1    2  501    0  0.32673539143E+01 -0.23140948955E+01  0.13166540652E+00  0.42024840947E+01  0.12700000000E+01 0. -1.
         -4    1    1    2    0  501 -0.32673539143E+01  0.23140948955E+01  0.16987487827E+02  0.17499093676E+02  0.12700000000E+01 0.  1.
<mgrwt>
<rscale>  0 0.42004210E+01</rscale>
<asrwt>0</asrwt>
<pdfrwt beam="1">0</pdfrwt>
<pdfrwt beam="2">0</pdfrwt>
<totfact> 0.27078128E+11</totfact>
</mgrwt>
</event>
<event>
 4    1  0.1733759E+006  0.3771340E+01  0.7546771E-02  0.2323257E+00
         22   -1    0    0    0    0  0.00000000000E+00  0.00000000000E+00  0.64791560825E+01  0.64791560825E+01  0.00000000000E+00 0.  1.
         22   -1    0    0    0    0 -0.00000000000E+00 -0.00000000000E+00 -0.23298517252E+01  0.23298517252E+01  0.00000000000E+00 0. -1.
          4    1    1    2  501    0 -0.45965862267E+00  0.35211959611E+01  0.10157694241E+01  0.39057386713E+01  0.12700000000E+01 0.  1.
         -4    1    1    2    0  501  0.45965862267E+00 -0.35211959611E+01  0.31335349332E+01  0.49032691363E+01  0.12700000000E+01 0. -1.
<mgrwt>
<rscale>  0 0.37713402E+01</rscale>
<asrwt>0</asrwt>
<pdfrwt beam="1">0</pdfrwt>
<pdfrwt beam="2">0</pdfrwt>
<totfact> 0.10096454E+12</totfact>
</mgrwt>
</event>
<event>
 4    1  0.1733759E+006  0.2516237E+01  0.7546771E-02  0.2701415E+00
         22   -1    0    0    0    0  0.00000000000E+00  0.00000000000E+00  0.42208005689E+00  0.42208005689E+00  0.00000000000E+00 0. -1.
         22   -1    0    0    0    0 -0.00000000000E+00 -0.00000000000E+00 -0.16012661606E+02  0.16012661606E+02  0.00000000000E+00 0.  1.
          4    1    1    2  501    0 -0.21644071694E+01  0.18409476602E+00 -0.98611800921E+01  0.10177147050E+02  0.12700000000E+01 0.  1.
         -4    1    1    2    0  501  0.21644071694E+01 -0.18409476602E+00 -0.57294014572E+01  0.62575946126E+01  0.12700000000E+01 0. -1.
<mgrwt>
<rscale>  0 0.25162371E+01</rscale>
<asrwt>0</asrwt>
<pdfrwt beam="1">0</pdfrwt>
<pdfrwt beam="2">0</pdfrwt>
<totfact> 0.23736338E+12</totfact>
</mgrwt>
</event>
<event>
 4    1  0.1733759E+006  0.2922504E+01  0.7546771E-02  0.2547251E+00
         22   -1    0    0    0    0  0.00000000000E+00  0.00000000000E+00  0.89585492531E+01  0.89585492531E+01  0.00000000000E+00 0.  1.
         22   -1    0    0    0    0 -0.00000000000E+00 -0.00000000000E+00 -0.11014003877E+01  0.11014003877E+01  0.00000000000E+00 0. -1.
          4    1    1    2  501    0 -0.19532963773E+01 -0.17643020109E+01  0.20846919908E+01  0.35898424784E+01  0.12700000000E+01 0.  1.
         -4    1    1    2    0  501  0.19532963773E+01  0.17643020109E+01  0.57724568746E+01  0.64701071623E+01  0.12700000000E+01 0.  1.
<mgrwt>
<rscale>  0 0.29225038E+01</rscale>
<asrwt>0</asrwt>
<pdfrwt beam="1">0</pdfrwt>
<pdfrwt beam="2">0</pdfrwt>
<totfact> 0.16229590E+12</totfact>
</mgrwt>
</event>
<event>
 4    1  0.1733759E+006  0.2280854E+01  0.7546771E-02  0.2813810E+00
         22   -1    0    0    0    0  0.00000000000E+00  0.00000000000E+00  0.66990114607E+01  0.66990114607E+01  0.00000000000E+00 0.  1.
         22   -1    0    0    0    0 -0.00000000000E+00 -0.00000000000E+00 -0.90509324064E+01  0.90509324064E+01  0.00000000000E+00 0.  1.
          4    1    1    2  501    0  0.74617286662E-01  0.18930993098E+01 -0.87055180900E+01  0.89993520851E+01  0.12700000000E+01 0.  1.
         -4    1    1    2    0  501 -0.74617286662E-01 -0.18930993098E+01  0.63535971442E+01  0.67505917820E+01  0.12700000000E+01 0.  1.
<mgrwt>
<rscale>  0 0.22808535E+01</rscale>
<asrwt>0</asrwt>
<pdfrwt beam="1">0</pdfrwt>
<pdfrwt beam="2">0</pdfrwt>
<totfact> 0.19505745E+11</totfact>
</mgrwt>
</event>
<event>
 4    1  0.1733759E+006  0.3494220E+01  0.7546771E-02  0.2385839E+00
         22   -1    0    0    0    0  0.00000000000E+00  0.00000000000E+00  0.56708735467E+02  0.56708735467E+02  0.00000000000E+00 0.  1.
         22   -1    0    0    0    0 -0.00000000000E+00 -0.00000000000E+00 -0.26584018988E+00  0.26584018988E+00  0.00000000000E+00 0. -1.
          4    1    1    2  501    0  0.24265526785E+01  0.21699115512E+01  0.15800768834E+02  0.16182517412E+02  0.12700000000E+01 0. -1.
         -4    1    1    2    0  501 -0.24265526785E+01 -0.21699115512E+01  0.40642126443E+02  0.40792058245E+02  0.12700000000E+01 0.  1.
<mgrwt>
<rscale>  0 0.34942201E+01</rscale>
<asrwt>0</asrwt>
<pdfrwt beam="1">0</pdfrwt>
<pdfrwt beam="2">0</pdfrwt>
<totfact> 0.79302999E+11</totfact>
</mgrwt>
</event>
<event>
 4    1  0.1733759E+006  0.3213509E+01  0.7546771E-02  0.2458731E+00
         22   -1    0    0    0    0  0.00000000000E+00  0.00000000000E+00  0.18587316242E+01  0.18587316242E+01  0.00000000000E+00 0. -1.
         22   -1    0    0    0    0 -0.00000000000E+00 -0.00000000000E+00 -0.58439826119E+01  0.58439826119E+01  0.00000000000E+00 0.  1.
          4    1    1    2  501    0 -0.62837824422E+00 -0.28842467848E+01 -0.11372934605E+01  0.34088231325E+01  0.12700000000E+01 0.  1.
         -4    1    1    2    0  501  0.62837824422E+00  0.28842467848E+01 -0.28479575271E+01  0.42938911036E+01  0.12700000000E+01 0. -1.
<mgrwt>
<rscale>  0 0.32135088E+01</rscale>
<asrwt>0</asrwt>
<pdfrwt beam="1">0</pdfrwt>
<pdfrwt beam="2">0</pdfrwt>
<totfact> 0.14832271E+12</totfact>
</mgrwt>
</event>
<event>
 4    1  0.1733759E+006  0.2381528E+01  0.7546771E-02  0.2763182E+00
         22   -1    0    0    0    0  0.00000000000E+00  0.00000000000E+00  0.15675452078E+02  0.15675452078E+02  0.00000000000E+00 0.  1.
         22   -1    0    0    0    0 -0.00000000000E+00 -0.00000000000E+00 -0.36585697655E+00  0.36585697655E+00  0.00000000000E+00 0. -1.
          4    1    1    2  501    0 -0.50345557410E+00 -0.19507196503E+01  0.84974373306E+01  0.88248578378E+01  0.12700000000E+01 0.  1.
         -4    1    1    2    0  501  0.50345557410E+00  0.19507196503E+01  0.68121577705E+01  0.72164512165E+01  0.12700000000E+01 0.  1.
<mgrwt>
<rscale>  0 0.23815278E+01</rscale>
<asrwt>0</asrwt>
<pdfrwt beam="1">0</pdfrwt>
<pdfrwt beam="2">0</pdfrwt>
<totfact> 0.28620386E+12</totfact>
</mgrwt>
</event>
<event>
 4    1  0.1733759E+006  0.2846797E+01  0.7546771E-02  0.2572929E+00
         22   -1    0    0    0    0  0.00000000000E+00  0.00000000000E+00  0.22948922205E+01  0.22948922205E+01  0.00000000000E+00 0. -1.
         22   -1    0    0    0    0 -0.00000000000E+00 -0.00000000000E+00 -0.35584671462E+01  0.35584671462E+01  0.00000000000E+00 0. -1.
          4    1    1    2  501    0  0.55129838025E+00 -0.24874529119E+01 -0.37668078200E+00  0.28716093579E+01  0.12700000000E+01 0. -1.
         -4    1    1    2    0  501 -0.55129838025E+00  0.24874529119E+01 -0.88689414367E+00  0.29817500088E+01  0.12700000000E+01 0. -1.
<mgrwt>
<rscale>  0 0.28467968E+01</rscale>
<asrwt>0</asrwt>
<pdfrwt beam="1">0</pdfrwt>
<pdfrwt beam="2">0</pdfrwt>
<totfact> 0.20874886E+12</totfact>
</mgrwt>
</event>
<event>
 4    1  0.1733759E+006  0.2104022E+01  0.7546771E-02  0.2913883E+00
         22   -1    0    0    0    0  0.00000000000E+00  0.00000000000E+00  0.19633780377E+01  0.19633780377E+01  0.00000000000E+00 0. -1.
         22   -1    0    0    0    0 -0.00000000000E+00 -0.00000000000E+00 -0.22698552953E+01  0.22698552953E+01  0.00000000000E+00 0.  1.
          4    1    1    2  501    0  0.14572678048E+01 -0.83089054169E+00 -0.32595762228E+00  0.21291211611E+01  0.12700000000E+01 0. -1.
         -4    1    1    2    0  501 -0.14572678048E+01  0.83089054169E+00  0.19480364614E-01  0.21041121719E+01  0.12700000000E+01 0.  1.
<mgrwt>
<rscale>  0 0.21040220E+01</rscale>
<asrwt>0</asrwt>
<pdfrwt beam="1">0</pdfrwt>
<pdfrwt beam="2">0</pdfrwt>
<totfact> 0.42261566E+12</totfact>
</mgrwt>
</event>
<event>
 4    1  0.1733759E+006  0.2100361E+01  0.7546771E-02  0.2916126E+00
         22   -1    0    0    0    0  0.00000000000E+00  0.00000000000E+00  0.95906332784E+01  0.95906332784E+01  0.00000000000E+00 0. -1.
         22   -1    0    0    0    0 -0.00000000000E+00 -0.00000000000E+00 -0.10819134605E+01  0.10819134605E+01  0.00000000000E+00 0.  1.
          4    1    1    2  501    0 -0.54396688869E+00 -0.15819981420E+01  0.20847902960E+00  0.21106827339E+01  0.12700000000E+01 0.  1.
         -4    1    1    2    0  501  0.54396688869E+00  0.15819981420E+01  0.83002407883E+01  0.85618640051E+01  0.12700000000E+01 0. -1.
<mgrwt>
<rscale>  0 0.21003614E+01</rscale>
<asrwt>0</asrwt>
<pdfrwt beam="1">0</pdfrwt>
<pdfrwt beam="2">0</pdfrwt>
<totfact> 0.15253912E+12</totfact>
</mgrwt>
</event>
<event>
 4    1  0.1733759E+006  0.4551008E+01  0.7546771E-02  0.2182908E+00
         22   -1    0    0    0    0  0.00000000000E+00  0.00000000000E+00  0.25253310111E+01  0.25253310111E+01  0.00000000000E+00 0.  1.
         22   -1    0    0    0    0 -0.00000000000E+00 -0.00000000000E+00 -0.84878279302E+01  0.84878279302E+01  0.00000000000E+00 0. -1.
          4    1    1    2  501    0 -0.32801270287E-01 -0.43700914214E+01 -0.39925103120E+01  0.60540741279E+01  0.12700000000E+01 0. -1.
         -4    1    1    2    0  501  0.32801270287E-01  0.43700914214E+01 -0.19699866071E+01  0.49590848134E+01  0.12700000000E+01 0.  1.
<mgrwt>
<rscale>  0 0.45510081E+01</rscale>
<asrwt>0</asrwt>
<pdfrwt beam="1">0</pdfrwt>
<pdfrwt beam="2">0</pdfrwt>
<totfact> 0.66519240E+11</totfact>
</mgrwt>
</event>
<event>
 4    1  0.1733759E+006  0.2727495E+01  0.7546771E-02  0.2616006E+00
         22   -1    0    0    0    0  0.00000000000E+00  0.00000000000E+00  0.39567566461E+00  0.39567566461E+00  0.00000000000E+00 0. -1.
         22   -1    0    0    0    0 -0.00000000000E+00 -0.00000000000E+00 -0.18873566468E+02  0.18873566468E+02  0.00000000000E+00 0.  1.
          4    1    1    2  501    0  0.24077091020E+01 -0.17107448319E+00 -0.86428999116E+01  0.90630540372E+01  0.12700000000E+01 0. -1.
         -4    1    1    2    0  501 -0.24077091020E+01  0.17107448319E+00 -0.98349908921E+01  0.10206188096E+02  0.12700000000E+01 0.  1.
<mgrwt>
<rscale>  0 0.27274951E+01</rscale>
<asrwt>0</asrwt>
<pdfrwt beam="1">0</pdfrwt>
<pdfrwt beam="2">0</pdfrwt>
<totfact> 0.20824436E+12</totfact>
</mgrwt>
</event>
<event>
 4    1  0.1733759E+006  0.2040231E+01  0.7546771E-02  0.2954087E+00
         22   -1    0    0    0    0  0.00000000000E+00  0.00000000000E+00  0.68932169007E+00  0.68932169007E+00  0.00000000000E+00 0. -1.
         22   -1    0    0    0    0 -0.00000000000E+00 -0.00000000000E+00 -0.61487781255E+01  0.61487781255E+01  0.00000000000E+00 0.  1.
          4    1    1    2  501    0 -0.40458945345E+00  0.15446520891E+01 -0.22720659027E+01  0.30536578342E+01  0.12700000000E+01 0. -1.
         -4    1    1    2    0  501  0.40458945345E+00 -0.15446520891E+01 -0.31873905327E+01  0.37844419813E+01  0.12700000000E+01 0.  1.
<mgrwt>
<rscale>  0 0.20402310E+01</rscale>
<asrwt>0</asrwt>
<pdfrwt beam="1">0</pdfrwt>
<pdfrwt beam="2">0</pdfrwt>
<totfact> 0.43454150E+12</totfact>
</mgrwt>
</event>
<event>
 4    1  0.1733759E+006  0.5771801E+01  0.7546771E-02  0.2040778E+00
         22   -1    0    0    0    0  0.00000000000E+00  0.00000000000E+00  0.11539476554E+02  0.11539476554E+02  0.00000000000E+00 0.  1.
         22   -1    0    0    0    0 -0.00000000000E+00 -0.00000000000E+00 -0.47328376393E+01  0.47328376393E+01  0.00000000000E+00 0. -1.
          4    1    1    2  501    0 -0.18272419497E+01  0.53255964087E+01 -0.16778444943E+01  0.60107281088E+01  0.12700000000E+01 0. -1.
         -4    1    1    2    0  501  0.18272419497E+01 -0.53255964087E+01  0.84844834092E+01  0.10261586085E+02  0.12700000000E+01 0.  1.
<mgrwt>
<rscale>  0 0.57718013E+01</rscale>
<asrwt>0</asrwt>
<pdfrwt beam="1">0</pdfrwt>
<pdfrwt beam="2">0</pdfrwt>
<totfact> 0.21959643E+11</totfact>
</mgrwt>
</event>
<event>
 4    1  0.1733759E+006  0.2145061E+01  0.7546771E-02  0.2889246E+00
         22   -1    0    0    0    0  0.00000000000E+00  0.00000000000E+00  0.16936465121E+00  0.16936465121E+00  0.00000000000E+00 0.  1.
         22   -1    0    0    0    0 -0.00000000000E+00 -0.00000000000E+00 -0.27355954780E+02  0.27355954780E+02  0.00000000000E+00 0. -1.
          4    1    1    2  501    0  0.16092829901E+01  0.63134235685E+00 -0.12452262270E+02  0.12635668584E+02  0.12700000000E+01 0. -1.
         -4    1    1    2    0  501 -0.16092829901E+01 -0.63134235685E+00 -0.14734327859E+02  0.14889650848E+02  0.12700000000E+01 0. -1.
<mgrwt>
<rscale>  0 0.21450606E+01</rscale>
<asrwt>0</asrwt>
<pdfrwt beam="1">0</pdfrwt>
<pdfrwt beam="2">0</pdfrwt>
<totfact> 0.33779533E+12</totfact>
</mgrwt>
</event>
<event>
 4    1  0.1733759E+006  0.2245144E+01  0.7546771E-02  0.2832802E+00
         22   -1    0    0    0    0  0.00000000000E+00  0.00000000000E+00  0.87899826439E+02  0.87899826439E+02  0.00000000000E+00 0.  1.
         22   -1    0    0    0    0 -0.00000000000E+00 -0.00000000000E+00 -0.13172394973E+00  0.13172394973E+00  0.00000000000E+00 0.  1.
          4    1    1    2  501    0  0.17852001892E+01 -0.49074614830E+00  0.10809105141E+02  0.11039810934E+02  0.12700000000E+01 0.  1.
         -4    1    1    2    0  501 -0.17852001892E+01  0.49074614830E+00  0.76958997347E+02  0.76991739454E+02  0.12700000000E+01 0.  1.
<mgrwt>
<rscale>  0 0.22451440E+01</rscale>
<asrwt>0</asrwt>
<pdfrwt beam="1">0</pdfrwt>
<pdfrwt beam="2">0</pdfrwt>
<totfact> 0.95633709E+11</totfact>
</mgrwt>
</event>
<event>
 4    1  0.1733759E+006  0.2494291E+01  0.7546771E-02  0.2711052E+00
         22   -1    0    0    0    0  0.00000000000E+00  0.00000000000E+00  0.15519191226E+01  0.15519191226E+01  0.00000000000E+00 0.  1.
         22   -1    0    0    0    0 -0.00000000000E+00 -0.00000000000E+00 -0.48931093520E+01  0.48931093520E+01  0.00000000000E+00 0.  1.
          4    1    1    2  501    0  0.69531420141E+00 -0.20310408697E+01 -0.30404668070E+01  0.39326743137E+01  0.12700000000E+01 0.  1.
         -4    1    1    2    0  501 -0.69531420141E+00  0.20310408697E+01 -0.30072342245E+00  0.25123541609E+01  0.12700000000E+01 0.  1.
<mgrwt>
<rscale>  0 0.24942913E+01</rscale>
<asrwt>0</asrwt>
<pdfrwt beam="1">0</pdfrwt>
<pdfrwt beam="2">0</pdfrwt>
<totfact> 0.22545796E+12</totfact>
</mgrwt>
</event>
<event>
 4    1  0.1733759E+006  0.2607364E+01  0.7546771E-02  0.2663009E+00
         22   -1    0    0    0    0  0.00000000000E+00  0.00000000000E+00  0.80425425791E+01  0.80425425791E+01  0.00000000000E+00 0. -1.
         22   -1    0    0    0    0 -0.00000000000E+00 -0.00000000000E+00 -0.16025220873E+01  0.16025220873E+01  0.00000000000E+00 0.  1.
          4    1    1    2  501    0  0.11254125711E+01  0.19796195344E+01 -0.95003107438E-01  0.26090942004E+01  0.12700000000E+01 0.  1.
         -4    1    1    2    0  501 -0.11254125711E+01 -0.19796195344E+01  0.65350235992E+01  0.70359704660E+01  0.12700000000E+01 0. -1.
<mgrwt>
<rscale>  0 0.26073640E+01</rscale>
<asrwt>0</asrwt>
<pdfrwt beam="1">0</pdfrwt>
<pdfrwt beam="2">0</pdfrwt>
<totfact> 0.12015462E+12</totfact>
</mgrwt>
</event>
<event>
 4    1  0.1733759E+006  0.2427236E+01  0.7546771E-02  0.2741505E+00
         22   -1    0    0    0    0  0.00000000000E+00  0.00000000000E+00  0.37980852814E+02  0.37980852814E+02  0.00000000000E+00 0.  1.
         22   -1    0    0    0    0 -0.00000000000E+00 -0.00000000000E+00 -0.16647702458E+00  0.16647702458E+00  0.00000000000E+00 0. -1.
          4    1    1    2  501    0  0.18442272933E+01 -0.93669702088E+00  0.13924693754E+02  0.14134658531E+02  0.12700000000E+01 0. -1.
         -4    1    1    2    0  501 -0.18442272933E+01  0.93669702088E+00  0.23889682035E+02  0.24012671308E+02  0.12700000000E+01 0.  1.
<mgrwt>
<rscale>  0 0.24272362E+01</rscale>
<asrwt>0</asrwt>
<pdfrwt beam="1">0</pdfrwt>
<pdfrwt beam="2">0</pdfrwt>
<totfact> 0.22623492E+12</totfact>
</mgrwt>
</event>
<event>
 4    1  0.1733759E+006  0.2342727E+01  0.7546771E-02  0.2782208E+00
         22   -1    0    0    0    0  0.00000000000E+00  0.00000000000E+00  0.15350287093E+00  0.15350287093E+00  0.00000000000E+00 0. -1.
         22   -1    0    0    0    0 -0.00000000000E+00 -0.00000000000E+00 -0.35940617460E+02  0.35940617460E+02  0.00000000000E+00 0. -1.
          4    1    1    2  501    0  0.19652138596E+01  0.11577588808E+00 -0.16593752693E+02  0.16758311311E+02  0.12700000000E+01 0. -1.
         -4    1    1    2    0  501 -0.19652138596E+01 -0.11577588808E+00 -0.19193361897E+02  0.19335809020E+02  0.12700000000E+01 0. -1.
<mgrwt>
<rscale>  0 0.23427270E+01</rscale>
<asrwt>0</asrwt>
<pdfrwt beam="1">0</pdfrwt>
<pdfrwt beam="2">0</pdfrwt>
<totfact> 0.26589982E+12</totfact>
</mgrwt>
</event>
<event>
 4    1  0.1733759E+006  0.2375022E+01  0.7546771E-02  0.2766332E+00
         22   -1    0    0    0    0  0.00000000000E+00  0.00000000000E+00  0.16214389407E+01  0.16214389407E+01  0.00000000000E+00 0. -1.
         22   -1    0    0    0    0 -0.00000000000E+00 -0.00000000000E+00 -0.71205059072E+01  0.71205059072E+01  0.00000000000E+00 0.  1.
          4    1    1    2  501    0 -0.19967418999E+01 -0.20211251203E+00 -0.58754160115E+01  0.63372897197E+01  0.12700000000E+01 0.  1.
         -4    1    1    2    0  501  0.19967418999E+01  0.20211251203E+00  0.37634904502E+00  0.24046551283E+01  0.12700000000E+01 0. -1.
<mgrwt>
<rscale>  0 0.23750216E+01</rscale>
<asrwt>0</asrwt>
<pdfrwt beam="1">0</pdfrwt>
<pdfrwt beam="2">0</pdfrwt>
<totfact> 0.13717527E+12</totfact>
</mgrwt>
</event>
<event>
 4    1  0.1733759E+006  0.2746395E+01  0.7546771E-02  0.2608955E+00
         22   -1    0    0    0    0  0.00000000000E+00  0.00000000000E+00  0.36299380817E+01  0.36299380817E+01  0.00000000000E+00 0. -1.
         22   -1    0    0    0    0 -0.00000000000E+00 -0.00000000000E+00 -0.35870703072E+01  0.35870703072E+01  0.00000000000E+00 0.  1.
          4    1    1    2  501    0 -0.16118910032E+01 -0.18252646577E+01 -0.23191542264E+01  0.35946015082E+01  0.12700000000E+01 0.  1.
         -4    1    1    2    0  501  0.16118910032E+01  0.18252646577E+01  0.23620220009E+01  0.36224068807E+01  0.12700000000E+01 0. -1.
<mgrwt>
<rscale>  0 0.27463947E+01</rscale>
<asrwt>0</asrwt>
<pdfrwt beam="1">0</pdfrwt>
<pdfrwt beam="2">0</pdfrwt>
<totfact> 0.12109147E+12</totfact>
</mgrwt>
</event>
<event>
 4    1  0.1733759E+006  0.2641667E+01  0.7546771E-02  0.2649187E+00
         22   -1    0    0    0    0  0.00000000000E+00  0.00000000000E+00  0.78577939958E+00  0.78577939958E+00  0.00000000000E+00 0.  1.
         22   -1    0    0    0    0 -0.00000000000E+00 -0.00000000000E+00 -0.11116007639E+02  0.11116007639E+02  0.00000000000E+00 0. -1.
          4    1    1    2  501    0  0.16066101843E+01  0.16686249117E+01 -0.78335686847E+01  0.82669948421E+01  0.12700000000E+01 0. -1.
         -4    1    1    2    0  501 -0.16066101843E+01 -0.16686249117E+01 -0.24966595550E+01  0.36347921968E+01  0.12700000000E+01 0. -1.
<mgrwt>
<rscale>  0 0.26416672E+01</rscale>
<asrwt>0</asrwt>
<pdfrwt beam="1">0</pdfrwt>
<pdfrwt beam="2">0</pdfrwt>
<totfact> 0.18369116E+12</totfact>
</mgrwt>
</event>
<event>
 4    1  0.1733759E+006  0.4785307E+01  0.7546771E-02  0.2149537E+00
         22   -1    0    0    0    0  0.00000000000E+00  0.00000000000E+00  0.51296321826E+00  0.51296321826E+00  0.00000000000E+00 0.  1.
         22   -1    0    0    0    0 -0.00000000000E+00 -0.00000000000E+00 -0.48571375099E+02  0.48571375099E+02  0.00000000000E+00 0. -1.
          4    1    1    2  501    0 -0.46103822399E+01 -0.17502803316E+00 -0.31010616399E+02  0.31377659069E+02  0.12700000000E+01 0. -1.
         -4    1    1    2    0  501  0.46103822399E+01  0.17502803316E+00 -0.17047795482E+02  0.17706679248E+02  0.12700000000E+01 0.  1.
<mgrwt>
<rscale>  0 0.47853066E+01</rscale>
<asrwt>0</asrwt>
<pdfrwt beam="1">0</pdfrwt>
<pdfrwt beam="2">0</pdfrwt>
<totfact> 0.46490276E+11</totfact>
</mgrwt>
</event>
<event>
 4    1  0.1733759E+006  0.3073308E+01  0.7546771E-02  0.2499510E+00
         22   -1    0    0    0    0  0.00000000000E+00  0.00000000000E+00  0.13531345955E+01  0.13531345955E+01  0.00000000000E+00 0. -1.
         22   -1    0    0    0    0 -0.00000000000E+00 -0.00000000000E+00 -0.16265854717E+02  0.16265854717E+02  0.00000000000E+00 0. -1.
          4    1    1    2  501    0  0.27486180681E+01  0.52670926704E+00 -0.14112424859E+02  0.14443190761E+02  0.12700000000E+01 0. -1.
         -4    1    1    2    0  501 -0.27486180681E+01 -0.52670926704E+00 -0.80029526233E+00  0.31757985520E+01  0.12700000000E+01 0. -1.
<mgrwt>
<rscale>  0 0.30733083E+01</rscale>
<asrwt>0</asrwt>
<pdfrwt beam="1">0</pdfrwt>
<pdfrwt beam="2">0</pdfrwt>
<totfact> 0.61921742E+11</totfact>
</mgrwt>
</event>
