<event>
 4    1  0.1735226E+006  0.2340051E+01  0.7546771E-02  0.2783542E+00
         22   -1    0    0    0    0  0.00000000000E+00  0.00000000000E+00  0.20541820826E+02  0.20541820826E+02  0.00000000000E+00 0. -1.
         22   -1    0    0    0    0 -0.00000000000E+00 -0.00000000000E+00 -0.19751515981E+01  0.19751515981E+01  0.00000000000E+00 0. -1.
          4    1    1    2  501    0 -0.18901512923E+01  0.53876458760E+00  0.19754562424E+02  0.19892676435E+02  0.12700000000E+01 0. -1.
         -4    1    1    2    0  501  0.18901512923E+01 -0.53876458760E+00 -0.11878931966E+01  0.26242959885E+01  0.12700000000E+01 0. -1.
<mgrwt>
<rscale>  0 0.23400511E+01</rscale>
<asrwt>0</asrwt>
<pdfrwt beam="1">0</pdfrwt>
<pdfrwt beam="2">0</pdfrwt>
<totfact> 0.29966126E+11</totfact>
</mgrwt>
</event>
<event>
 4    1  0.1735226E+006  0.3210845E+01  0.7546771E-02  0.2459476E+00
         22   -1    0    0    0    0  0.00000000000E+00  0.00000000000E+00  0.48713978819E+01  0.48713978819E+01  0.00000000000E+00 0. -1.
         22   -1    0    0    0    0 -0.00000000000E+00 -0.00000000000E+00 -0.22489077774E+01  0.22489077774E+01  0.00000000000E+00 0.  1.
          4    1    1    2  501    0 -0.10199012437E+01  0.27670247991E+01  0.21756255692E+01  0.38785140715E+01  0.12700000000E+01 0. -1.
         -4    1    1    2    0  501  0.10199012437E+01 -0.27670247991E+01  0.44686453537E+00  0.32417915878E+01  0.12700000000E+01 0.  1.
<mgrwt>
<rscale>  0 0.32108449E+01</rscale>
<asrwt>0</asrwt>
<pdfrwt beam="1">0</pdfrwt>
<pdfrwt beam="2">0</pdfrwt>
<totfact> 0.14762343E+12</totfact>
</mgrwt>
</event>
<event>
 4    1  0.1735226E+006  0.3894544E+01  0.7546771E-02  0.2297917E+00
         22   -1    0    0    0    0  0.00000000000E+00  0.00000000000E+00  0.12397463812E+02  0.12397463812E+02  0.00000000000E+00 0.  1.
         22   -1    0    0    0    0 -0.00000000000E+00 -0.00000000000E+00 -0.12247327512E+01  0.12247327512E+01  0.00000000000E+00 0.  1.
          4    1    1    2  501    0  0.28767148128E+01  0.22976258383E+01  0.58082067212E+01  0.69930492578E+01  0.12700000000E+01 0.  1.
         -4    1    1    2    0  501 -0.28767148128E+01 -0.22976258383E+01  0.53645243398E+01  0.66291473056E+01  0.12700000000E+01 0.  1.
<mgrwt>
<rscale>  0 0.38945440E+01</rscale>
<asrwt>0</asrwt>
<pdfrwt beam="1">0</pdfrwt>
<pdfrwt beam="2">0</pdfrwt>
<totfact> 0.96902096E+11</totfact>
</mgrwt>
</event>
<event>
 4    1  0.1735226E+006  0.3334837E+01  0.7546771E-02  0.2425903E+00
         22   -1    0    0    0    0  0.00000000000E+00  0.00000000000E+00  0.44763065861E+01  0.44763065861E+01  0.00000000000E+00 0.  1.
         22   -1    0    0    0    0 -0.00000000000E+00 -0.00000000000E+00 -0.27954088572E+01  0.27954088572E+01  0.00000000000E+00 0.  1.
          4    1    1    2  501    0  0.18385810310E+01  0.24754505814E+01  0.20531099425E+01  0.39161711178E+01  0.12700000000E+01 0.  1.
         -4    1    1    2    0  501 -0.18385810310E+01 -0.24754505814E+01 -0.37221221358E+00  0.33555443255E+01  0.12700000000E+01 0.  1.
<mgrwt>
<rscale>  0 0.33348367E+01</rscale>
<asrwt>0</asrwt>
<pdfrwt beam="1">0</pdfrwt>
<pdfrwt beam="2">0</pdfrwt>
<totfact> 0.12666756E+12</totfact>
</mgrwt>
</event>
<event>
 4    1  0.1735226E+006  0.3186418E+01  0.7546771E-02  0.2466362E+00
         22   -1    0    0    0    0  0.00000000000E+00  0.00000000000E+00  0.23175653521E+01  0.23175653521E+01  0.00000000000E+00 0.  1.
         22   -1    0    0    0    0 -0.00000000000E+00 -0.00000000000E+00 -0.51924408851E+01  0.51924408851E+01  0.00000000000E+00 0.  1.
          4    1    1    2  501    0 -0.97107576048E+00 -0.27563326997E+01  0.46967446452E-01  0.31867638797E+01  0.12700000000E+01 0.  1.
         -4    1    1    2    0  501  0.97107576048E+00  0.27563326997E+01 -0.29218429795E+01  0.43232423574E+01  0.12700000000E+01 0.  1.
<mgrwt>
<rscale>  0 0.31864178E+01</rscale>
<asrwt>0</asrwt>
<pdfrwt beam="1">0</pdfrwt>
<pdfrwt beam="2">0</pdfrwt>
<totfact> 0.13218163E+12</totfact>
</mgrwt>
</event>
<event>
 4    1  0.1735226E+006  0.5379563E+01  0.7546771E-02  0.2080249E+00
         22   -1    0    0    0    0  0.00000000000E+00  0.00000000000E+00  0.58238602446E+01  0.58238602446E+01  0.00000000000E+00 0.  1.
         22   -1    0    0    0    0 -0.00000000000E+00 -0.00000000000E+00 -0.50269072170E+01  0.50269072170E+01  0.00000000000E+00 0. -1.
          4    1    1    2  501    0 -0.52239225759E+01  0.19347524425E+00  0.97996542708E+00  0.54680921707E+01  0.12700000000E+01 0.  1.
         -4    1    1    2    0  501  0.52239225759E+01 -0.19347524425E+00 -0.18301239939E+00  0.53826752909E+01  0.12700000000E+01 0. -1.
<mgrwt>
<rscale>  0 0.53795632E+01</rscale>
<asrwt>0</asrwt>
<pdfrwt beam="1">0</pdfrwt>
<pdfrwt beam="2">0</pdfrwt>
<totfact> 0.46540789E+11</totfact>
</mgrwt>
</event>
<event>
 4    1  0.1735226E+006  0.3370575E+01  0.7546771E-02  0.2416631E+00
         22   -1    0    0    0    0  0.00000000000E+00  0.00000000000E+00  0.11183901625E+01  0.11183901625E+01  0.00000000000E+00 0.  1.
         22   -1    0    0    0    0 -0.00000000000E+00 -0.00000000000E+00 -0.10347729607E+02  0.10347729607E+02  0.00000000000E+00 0. -1.
          4    1    1    2  501    0  0.60706658885E-01  0.31215688422E+01 -0.53906619830E+01  0.63576736271E+01  0.12700000000E+01 0.  1.
         -4    1    1    2    0  501 -0.60706658885E-01 -0.31215688422E+01 -0.38386774615E+01  0.51084461423E+01  0.12700000000E+01 0. -1.
<mgrwt>
<rscale>  0 0.33705752E+01</rscale>
<asrwt>0</asrwt>
<pdfrwt beam="1">0</pdfrwt>
<pdfrwt beam="2">0</pdfrwt>
<totfact> 0.13396675E+12</totfact>
</mgrwt>
</event>
<event>
 4    1  0.1735226E+006  0.2475259E+01  0.7546771E-02  0.2719539E+00
         22   -1    0    0    0    0  0.00000000000E+00  0.00000000000E+00  0.31295962388E+02  0.31295962388E+02  0.00000000000E+00 0. -1.
         22   -1    0    0    0    0 -0.00000000000E+00 -0.00000000000E+00 -0.33400268399E+01  0.33400268399E+01  0.00000000000E+00 0.  1.
          4    1    1    2  501    0  0.35059504073E+00  0.20954928872E+01  0.30780758388E+02  0.30880122964E+02  0.12700000000E+01 0. -1.
         -4    1    1    2    0  501 -0.35059504073E+00 -0.20954928872E+01 -0.28248228394E+01  0.37558662645E+01  0.12700000000E+01 0.  1.
<mgrwt>
<rscale>  0 0.24752590E+01</rscale>
<asrwt>0</asrwt>
<pdfrwt beam="1">0</pdfrwt>
<pdfrwt beam="2">0</pdfrwt>
<totfact> 0.95544380E+10</totfact>
</mgrwt>
</event>
<event>
 4    1  0.1735226E+006  0.4133035E+01  0.7546771E-02  0.2252564E+00
         22   -1    0    0    0    0  0.00000000000E+00  0.00000000000E+00  0.15727905573E+01  0.15727905573E+01  0.00000000000E+00 0. -1.
         22   -1    0    0    0    0 -0.00000000000E+00 -0.00000000000E+00 -0.12179274961E+02  0.12179274961E+02  0.00000000000E+00 0.  1.
          4    1    1    2  501    0 -0.38997080951E+01  0.51122943596E+00 -0.30409919801E+01  0.51312387380E+01  0.12700000000E+01 0.  1.
         -4    1    1    2    0  501  0.38997080951E+01 -0.51122943596E+00 -0.75654924235E+01  0.86208267801E+01  0.12700000000E+01 0. -1.
<mgrwt>
<rscale>  0 0.41330351E+01</rscale>
<asrwt>0</asrwt>
<pdfrwt beam="1">0</pdfrwt>
<pdfrwt beam="2">0</pdfrwt>
<totfact> 0.74291675E+11</totfact>
</mgrwt>
</event>
<event>
 4    1  0.1735226E+006  0.3993907E+01  0.7546771E-02  0.2278461E+00
         22   -1    0    0    0    0  0.00000000000E+00  0.00000000000E+00  0.11313397807E+02  0.11313397807E+02  0.00000000000E+00 0. -1.
         22   -1    0    0    0    0 -0.00000000000E+00 -0.00000000000E+00 -0.15942485719E+01  0.15942485719E+01  0.00000000000E+00 0.  1.
          4    1    1    2  501    0 -0.31076669925E+01  0.21635148281E+01  0.70539132172E+01  0.81061077110E+01  0.12700000000E+01 0. -1.
         -4    1    1    2    0  501  0.31076669925E+01 -0.21635148281E+01  0.26652360178E+01  0.48015386678E+01  0.12700000000E+01 0.  1.
<mgrwt>
<rscale>  0 0.39939067E+01</rscale>
<asrwt>0</asrwt>
<pdfrwt beam="1">0</pdfrwt>
<pdfrwt beam="2">0</pdfrwt>
<totfact> 0.80016680E+11</totfact>
</mgrwt>
</event>
<event>
 4    1  0.1735226E+006  0.2183229E+01  0.7546771E-02  0.2867134E+00
         22   -1    0    0    0    0  0.00000000000E+00  0.00000000000E+00  0.59537081499E+01  0.59537081499E+01  0.00000000000E+00 0. -1.
         22   -1    0    0    0    0 -0.00000000000E+00 -0.00000000000E+00 -0.90491844957E+00  0.90491844957E+00  0.00000000000E+00 0.  1.
          4    1    1    2  501    0  0.15747718625E+01 -0.82078272718E+00  0.36887884239E+01  0.42864496662E+01  0.12700000000E+01 0.  1.
         -4    1    1    2    0  501 -0.15747718625E+01  0.82078272718E+00  0.13600012764E+01  0.25721769333E+01  0.12700000000E+01 0. -1.
<mgrwt>
<rscale>  0 0.21832294E+01</rscale>
<asrwt>0</asrwt>
<pdfrwt beam="1">0</pdfrwt>
<pdfrwt beam="2">0</pdfrwt>
<totfact> 0.33135668E+12</totfact>
</mgrwt>
</event>
<event>
 4    1  0.1735226E+006  0.2143237E+01  0.7546771E-02  0.2890322E+00
         22   -1    0    0    0    0  0.00000000000E+00  0.00000000000E+00  0.34276416981E+00  0.34276416981E+00  0.00000000000E+00 0.  1.
         22   -1    0    0    0    0 -0.00000000000E+00 -0.00000000000E+00 -0.13741987270E+02  0.13741987270E+02  0.00000000000E+00 0. -1.
          4    1    1    2  501    0 -0.59747071399E+00 -0.16197508431E+01 -0.55906609424E+01  0.59873995875E+01  0.12700000000E+01 0.  1.
         -4    1    1    2    0  501  0.59747071399E+00  0.16197508431E+01 -0.78085621581E+01  0.80973518526E+01  0.12700000000E+01 0. -1.
<mgrwt>
<rscale>  0 0.21432368E+01</rscale>
<asrwt>0</asrwt>
<pdfrwt beam="1">0</pdfrwt>
<pdfrwt beam="2">0</pdfrwt>
<totfact> 0.36204814E+12</totfact>
</mgrwt>
</event>
<event>
 4    1  0.1735226E+006  0.2651494E+01  0.7546771E-02  0.2645288E+00
         22   -1    0    0    0    0  0.00000000000E+00  0.00000000000E+00  0.67518230286E+00  0.67518230286E+00  0.00000000000E+00 0.  1.
         22   -1    0    0    0    0 -0.00000000000E+00 -0.00000000000E+00 -0.13682652423E+02  0.13682652423E+02  0.00000000000E+00 0. -1.
          4    1    1    2  501    0 -0.23061687708E+01 -0.31480875656E+00 -0.10013270397E+02  0.10358378396E+02  0.12700000000E+01 0.  1.
         -4    1    1    2    0  501  0.23061687708E+01  0.31480875656E+00 -0.29941997234E+01  0.39994563301E+01  0.12700000000E+01 0. -1.
<mgrwt>
<rscale>  0 0.26514937E+01</rscale>
<asrwt>0</asrwt>
<pdfrwt beam="1">0</pdfrwt>
<pdfrwt beam="2">0</pdfrwt>
<totfact> 0.16935009E+12</totfact>
</mgrwt>
</event>
<event>
 4    1  0.1735226E+006  0.2679184E+01  0.7546771E-02  0.2634443E+00
         22   -1    0    0    0    0  0.00000000000E+00  0.00000000000E+00  0.13994269949E+01  0.13994269949E+01  0.00000000000E+00 0.  1.
         22   -1    0    0    0    0 -0.00000000000E+00 -0.00000000000E+00 -0.53042344671E+01  0.53042344671E+01  0.00000000000E+00 0. -1.
          4    1    1    2  501    0 -0.81043249677E+00 -0.22154744925E+01 -0.13436308976E+01  0.29972273934E+01  0.12700000000E+01 0.  1.
         -4    1    1    2    0  501  0.81043249677E+00  0.22154744925E+01 -0.25611765746E+01  0.37064340686E+01  0.12700000000E+01 0. -1.
<mgrwt>
<rscale>  0 0.26791842E+01</rscale>
<asrwt>0</asrwt>
<pdfrwt beam="1">0</pdfrwt>
<pdfrwt beam="2">0</pdfrwt>
<totfact> 0.23079712E+12</totfact>
</mgrwt>
</event>
<event>
 4    1  0.1735226E+006  0.4113401E+01  0.7546771E-02  0.2256128E+00
         22   -1    0    0    0    0  0.00000000000E+00  0.00000000000E+00  0.21524440932E+01  0.21524440932E+01  0.00000000000E+00 0.  1.
         22   -1    0    0    0    0 -0.00000000000E+00 -0.00000000000E+00 -0.80446213845E+01  0.80446213845E+01  0.00000000000E+00 0. -1.
          4    1    1    2  501    0 -0.72815836355E+00  0.38440800005E+01 -0.21755093240E+01  0.46532683644E+01  0.12700000000E+01 0.  1.
         -4    1    1    2    0  501  0.72815836355E+00 -0.38440800005E+01 -0.37166679673E+01  0.55437971132E+01  0.12700000000E+01 0. -1.
<mgrwt>
<rscale>  0 0.41134007E+01</rscale>
<asrwt>0</asrwt>
<pdfrwt beam="1">0</pdfrwt>
<pdfrwt beam="2">0</pdfrwt>
<totfact> 0.85416622E+11</totfact>
</mgrwt>
</event>
<event>
 4    1  0.1735226E+006  0.2032719E+01  0.7546771E-02  0.2958984E+00
         22   -1    0    0    0    0  0.00000000000E+00  0.00000000000E+00  0.12733062187E+02  0.12733062187E+02  0.00000000000E+00 0.  1.
         22   -1    0    0    0    0 -0.00000000000E+00 -0.00000000000E+00 -0.32485928702E+00  0.32485928702E+00  0.00000000000E+00 0.  1.
          4    1    1    2  501    0 -0.91700109190E-01  0.15844988513E+01  0.64196381095E+01  0.67337730120E+01  0.12700000000E+01 0.  1.
         -4    1    1    2    0  501  0.91700109190E-01 -0.15844988513E+01  0.59885647900E+01  0.63241484616E+01  0.12700000000E+01 0.  1.
<mgrwt>
<rscale>  0 0.20327188E+01</rscale>
<asrwt>0</asrwt>
<pdfrwt beam="1">0</pdfrwt>
<pdfrwt beam="2">0</pdfrwt>
<totfact> 0.42213630E+12</totfact>
</mgrwt>
</event>
<event>
 4    1  0.1735226E+006  0.2012162E+01  0.7546771E-02  0.2972565E+00
         22   -1    0    0    0    0  0.00000000000E+00  0.00000000000E+00  0.22349097475E+02  0.22349097475E+02  0.00000000000E+00 0. -1.
         22   -1    0    0    0    0 -0.00000000000E+00 -0.00000000000E+00 -0.25496306115E+00  0.25496306115E+00  0.00000000000E+00 0. -1.
          4    1    1    2  501    0 -0.15284016559E+01 -0.31604265562E+00  0.49664061270E+01  0.53585431229E+01  0.12700000000E+01 0. -1.
         -4    1    1    2    0  501  0.15284016559E+01  0.31604265562E+00  0.17127728287E+02  0.17245517413E+02  0.12700000000E+01 0. -1.
<mgrwt>
<rscale>  0 0.20121617E+01</rscale>
<asrwt>0</asrwt>
<pdfrwt beam="1">0</pdfrwt>
<pdfrwt beam="2">0</pdfrwt>
<totfact> 0.27607865E+12</totfact>
</mgrwt>
</event>
<event>
 4    1  0.1735226E+006  0.2645322E+01  0.7546771E-02  0.2647734E+00
         22   -1    0    0    0    0  0.00000000000E+00  0.00000000000E+00  0.42691554033E+01  0.42691554033E+01  0.00000000000E+00 0. -1.
         22   -1    0    0    0    0 -0.00000000000E+00 -0.00000000000E+00 -0.17253000056E+01  0.17253000056E+01  0.00000000000E+00 0.  1.
          4    1    1    2  501    0  0.46421707940E+00  0.22736165804E+01  0.19417325316E+01  0.32814714802E+01  0.12700000000E+01 0. -1.
         -4    1    1    2    0  501 -0.46421707940E+00 -0.22736165804E+01  0.60212286618E+00  0.27129839287E+01  0.12700000000E+01 0.  1.
<mgrwt>
<rscale>  0 0.26453223E+01</rscale>
<asrwt>0</asrwt>
<pdfrwt beam="1">0</pdfrwt>
<pdfrwt beam="2">0</pdfrwt>
<totfact> 0.23443414E+12</totfact>
</mgrwt>
</event>
<event>
 4    1  0.1735226E+006  0.3082115E+01  0.7546771E-02  0.2496851E+00
         22   -1    0    0    0    0  0.00000000000E+00  0.00000000000E+00  0.33995930013E+01  0.33995930013E+01  0.00000000000E+00 0. -1.
         22   -1    0    0    0    0 -0.00000000000E+00 -0.00000000000E+00 -0.29903419729E+01  0.29903419729E+01  0.00000000000E+00 0.  1.
          4    1    1    2  501    0  0.74249174540E+00  0.27083651171E+01  0.10227057493E+01  0.32473624142E+01  0.12700000000E+01 0.  1.
         -4    1    1    2    0  501 -0.74249174540E+00 -0.27083651171E+01 -0.61345472090E+00  0.31425725599E+01  0.12700000000E+01 0. -1.
<mgrwt>
<rscale>  0 0.30821154E+01</rscale>
<asrwt>0</asrwt>
<pdfrwt beam="1">0</pdfrwt>
<pdfrwt beam="2">0</pdfrwt>
<totfact> 0.16181484E+12</totfact>
</mgrwt>
</event>
<event>
 4    1  0.1735226E+006  0.2222892E+01  0.7546771E-02  0.2844930E+00
         22   -1    0    0    0    0  0.00000000000E+00  0.00000000000E+00  0.24329612301E+01  0.24329612301E+01  0.00000000000E+00 0. -1.
         22   -1    0    0    0    0 -0.00000000000E+00 -0.00000000000E+00 -0.20311926468E+01  0.20311926468E+01  0.00000000000E+00 0.  1.
          4    1    1    2  501    0 -0.59797676866E+00  0.17235935258E+01  0.22468960114E+00  0.22342193882E+01  0.12700000000E+01 0. -1.
         -4    1    1    2    0  501  0.59797676866E+00 -0.17235935258E+01  0.17707898219E+00  0.22299344887E+01  0.12700000000E+01 0. -1.
<mgrwt>
<rscale>  0 0.22228925E+01</rscale>
<asrwt>0</asrwt>
<pdfrwt beam="1">0</pdfrwt>
<pdfrwt beam="2">0</pdfrwt>
<totfact> 0.37487139E+12</totfact>
</mgrwt>
</event>
<event>
 4    1  0.1735226E+006  0.2342552E+01  0.7546771E-02  0.2782295E+00
         22   -1    0    0    0    0  0.00000000000E+00  0.00000000000E+00  0.27032262679E+02  0.27032262679E+02  0.00000000000E+00 0.  1.
         22   -1    0    0    0    0 -0.00000000000E+00 -0.00000000000E+00 -0.21955808247E+00  0.21955808247E+00  0.00000000000E+00 0. -1.
          4    1    1    2  501    0  0.10496716752E+01  0.16651846550E+01  0.17148278639E+02  0.17307542022E+02  0.12700000000E+01 0.  1.
         -4    1    1    2    0  501 -0.10496716752E+01 -0.16651846550E+01  0.96644259582E+01  0.99442787402E+01  0.12700000000E+01 0. -1.
<mgrwt>
<rscale>  0 0.23425521E+01</rscale>
<asrwt>0</asrwt>
<pdfrwt beam="1">0</pdfrwt>
<pdfrwt beam="2">0</pdfrwt>
<totfact> 0.25675745E+12</totfact>
</mgrwt>
</event>
<event>
 4    1  0.1735226E+006  0.3196344E+01  0.7546771E-02  0.2463553E+00
         22   -1    0    0    0    0  0.00000000000E+00  0.00000000000E+00  0.25331494163E+02  0.25331494163E+02  0.00000000000E+00 0.  1.
         22   -1    0    0    0    0 -0.00000000000E+00 -0.00000000000E+00 -0.56917569922E+00  0.56917569922E+00  0.00000000000E+00 0. -1.
          4    1    1    2  501    0 -0.23766267414E+01 -0.17191170574E+01  0.19371963867E+02  0.19633889125E+02  0.12700000000E+01 0.  1.
         -4    1    1    2    0  501  0.23766267414E+01  0.17191170574E+01  0.53903545975E+01  0.62667807375E+01  0.12700000000E+01 0. -1.
<mgrwt>
<rscale>  0 0.31963445E+01</rscale>
<asrwt>0</asrwt>
<pdfrwt beam="1">0</pdfrwt>
<pdfrwt beam="2">0</pdfrwt>
<totfact> 0.95565212E+11</totfact>
</mgrwt>
</event>
<event>
 4    1  0.1735226E+006  0.2444607E+01  0.7546771E-02  0.2733466E+00
         22   -1    0    0    0    0  0.00000000000E+00  0.00000000000E+00  0.84682383428E+01  0.84682383428E+01  0.00000000000E+00 0.  1.
         22   -1    0    0    0    0 -0.00000000000E+00 -0.00000000000E+00 -0.79267852977E+00  0.79267852977E+00  0.00000000000E+00 0. -1.
          4    1    1    2  501    0 -0.11531953960E+01 -0.17416499217E+01  0.23040059996E+01  0.33592480881E+01  0.12700000000E+01 0. -1.
         -4    1    1    2    0  501  0.11531953960E+01  0.17416499217E+01  0.53715538134E+01  0.59016687845E+01  0.12700000000E+01 0.  1.
<mgrwt>
<rscale>  0 0.24446071E+01</rscale>
<asrwt>0</asrwt>
<pdfrwt beam="1">0</pdfrwt>
<pdfrwt beam="2">0</pdfrwt>
<totfact> 0.25274795E+12</totfact>
</mgrwt>
</event>
<event>
 4    1  0.1735226E+006  0.2027520E+01  0.7546771E-02  0.2962393E+00
         22   -1    0    0    0    0  0.00000000000E+00  0.00000000000E+00  0.66266643139E+00  0.66266643139E+00  0.00000000000E+00 0.  1.
         22   -1    0    0    0    0 -0.00000000000E+00 -0.00000000000E+00 -0.62080383033E+01  0.62080383033E+01  0.00000000000E+00 0. -1.
          4    1    1    2  501    0  0.13479513378E+01  0.82520691222E+00 -0.26796175897E+01  0.33602365518E+01  0.12700000000E+01 0. -1.
         -4    1    1    2    0  501 -0.13479513378E+01 -0.82520691222E+00 -0.28657542822E+01  0.35104681828E+01  0.12700000000E+01 0.  1.
<mgrwt>
<rscale>  0 0.20275205E+01</rscale>
<asrwt>0</asrwt>
<pdfrwt beam="1">0</pdfrwt>
<pdfrwt beam="2">0</pdfrwt>
<totfact> 0.44925869E+12</totfact>
</mgrwt>
</event>
<event>
 4    1  0.1735226E+006  0.4044518E+01  0.7546771E-02  0.2268865E+00
         22   -1    0    0    0    0  0.00000000000E+00  0.00000000000E+00  0.24665899175E+02  0.24665899175E+02  0.00000000000E+00 0. -1.
         22   -1    0    0    0    0 -0.00000000000E+00 -0.00000000000E+00 -0.76215717633E+00  0.76215717633E+00  0.00000000000E+00 0.  1.
          4    1    1    2  501    0 -0.37303445427E+01 -0.91091037977E+00  0.16533404800E+02  0.17020916615E+02  0.12700000000E+01 0.  1.
         -4    1    1    2    0  501  0.37303445427E+01  0.91091037977E+00  0.73703371984E+01  0.84071397363E+01  0.12700000000E+01 0. -1.
<mgrwt>
<rscale>  0 0.40445183E+01</rscale>
<asrwt>0</asrwt>
<pdfrwt beam="1">0</pdfrwt>
<pdfrwt beam="2">0</pdfrwt>
<totfact> 0.70973315E+11</totfact>
</mgrwt>
</event>
<event>
 4    1  0.1735226E+006  0.3656154E+01  0.7546771E-02  0.2348271E+00
         22   -1    0    0    0    0  0.00000000000E+00  0.00000000000E+00  0.12064880253E+02  0.12064880253E+02  0.00000000000E+00 0. -1.
         22   -1    0    0    0    0 -0.00000000000E+00 -0.00000000000E+00 -0.15004178769E+01  0.15004178769E+01  0.00000000000E+00 0.  1.
          4    1    1    2  501    0 -0.29853986547E+01  0.16858107541E+01  0.87510936727E+01  0.94841501198E+01  0.12700000000E+01 0. -1.
         -4    1    1    2    0  501  0.29853986547E+01 -0.16858107541E+01  0.18133687034E+01  0.40811480101E+01  0.12700000000E+01 0.  1.
<mgrwt>
<rscale>  0 0.36561541E+01</rscale>
<asrwt>0</asrwt>
<pdfrwt beam="1">0</pdfrwt>
<pdfrwt beam="2">0</pdfrwt>
<totfact> 0.79339659E+11</totfact>
</mgrwt>
</event>
<event>
 4    1  0.1735226E+006  0.1075880E+02  0.7546771E-02  0.1749015E+00
         22   -1    0    0    0    0  0.00000000000E+00  0.00000000000E+00  0.12229824241E+02  0.12229824241E+02  0.00000000000E+00 0. -1.
         22   -1    0    0    0    0 -0.00000000000E+00 -0.00000000000E+00 -0.98225944131E+01  0.98225944131E+01  0.00000000000E+00 0.  1.
          4    1    1    2  501    0  0.89059809906E+01  0.59010564185E+01 -0.90102762463E+00  0.10796467711E+02  0.12700000000E+01 0. -1.
         -4    1    1    2    0  501 -0.89059809906E+01 -0.59010564185E+01  0.33082574527E+01  0.11255950943E+02  0.12700000000E+01 0.  1.
<mgrwt>
<rscale>  0 0.10758804E+02</rscale>
<asrwt>0</asrwt>
<pdfrwt beam="1">0</pdfrwt>
<pdfrwt beam="2">0</pdfrwt>
<totfact> 0.85463574E+10</totfact>
</mgrwt>
</event>
<event>
 4    1  0.1735226E+006  0.2342233E+01  0.7546771E-02  0.2782454E+00
         22   -1    0    0    0    0  0.00000000000E+00  0.00000000000E+00  0.53197262767E+01  0.53197262767E+01  0.00000000000E+00 0. -1.
         22   -1    0    0    0    0 -0.00000000000E+00 -0.00000000000E+00 -0.21179725291E+01  0.21179725291E+01  0.00000000000E+00 0.  1.
          4    1    1    2  501    0  0.92505748801E+00  0.17370731551E+01  0.42646946086E+01  0.48655600506E+01  0.12700000000E+01 0. -1.
         -4    1    1    2    0  501 -0.92505748801E+00 -0.17370731551E+01 -0.10629408609E+01  0.25721387552E+01  0.12700000000E+01 0.  1.
<mgrwt>
<rscale>  0 0.23422328E+01</rscale>
<asrwt>0</asrwt>
<pdfrwt beam="1">0</pdfrwt>
<pdfrwt beam="2">0</pdfrwt>
<totfact> 0.14257829E+12</totfact>
</mgrwt>
</event>
<event>
 4    1  0.1735226E+006  0.2279060E+01  0.7546771E-02  0.2814750E+00
         22   -1    0    0    0    0  0.00000000000E+00  0.00000000000E+00  0.20817610240E+02  0.20817610240E+02  0.00000000000E+00 0. -1.
         22   -1    0    0    0    0 -0.00000000000E+00 -0.00000000000E+00 -0.25171885974E+00  0.25171885974E+00  0.00000000000E+00 0.  1.
          4    1    1    2  501    0  0.59033260639E+00 -0.17979774830E+01  0.92951795612E+01  0.95705004409E+01  0.12700000000E+01 0.  1.
         -4    1    1    2    0  501 -0.59033260639E+00  0.17979774830E+01  0.11270711819E+02  0.11498828659E+02  0.12700000000E+01 0. -1.
<mgrwt>
<rscale>  0 0.22790602E+01</rscale>
<asrwt>0</asrwt>
<pdfrwt beam="1">0</pdfrwt>
<pdfrwt beam="2">0</pdfrwt>
<totfact> 0.30610892E+12</totfact>
</mgrwt>
</event>
<event>
 4    1  0.1735226E+006  0.3029193E+01  0.7546771E-02  0.2513034E+00
         22   -1    0    0    0    0  0.00000000000E+00  0.00000000000E+00  0.61255018103E+00  0.61255018103E+00  0.00000000000E+00 0.  1.
         22   -1    0    0    0    0 -0.00000000000E+00 -0.00000000000E+00 -0.15152377602E+02  0.15152377602E+02  0.00000000000E+00 0.  1.
          4    1    1    2  501    0  0.22728929936E+01 -0.15482471579E+01 -0.64292133726E+01  0.71070947941E+01  0.12700000000E+01 0.  1.
         -4    1    1    2    0  501 -0.22728929936E+01  0.15482471579E+01 -0.81106140489E+01  0.86578329894E+01  0.12700000000E+01 0.  1.
<mgrwt>
<rscale>  0 0.30291933E+01</rscale>
<asrwt>0</asrwt>
<pdfrwt beam="1">0</pdfrwt>
<pdfrwt beam="2">0</pdfrwt>
<totfact> 0.16683394E+12</totfact>
</mgrwt>
</event>
<event>
 4    1  0.1735226E+006  0.2392236E+01  0.7546771E-02  0.2758034E+00
         22   -1    0    0    0    0  0.00000000000E+00  0.00000000000E+00  0.93854568797E+00  0.93854568797E+00  0.00000000000E+00 0.  1.
         22   -1    0    0    0    0 -0.00000000000E+00 -0.00000000000E+00 -0.60976291703E+01  0.60976291703E+01  0.00000000000E+00 0. -1.
          4    1    1    2  501    0  0.11825121671E+01 -0.16466810765E+01 -0.25641198200E+01  0.35067797257E+01  0.12700000000E+01 0.  1.
         -4    1    1    2    0  501 -0.11825121671E+01  0.16466810765E+01 -0.25949636624E+01  0.35293951326E+01  0.12700000000E+01 0.  1.
<mgrwt>
<rscale>  0 0.23922361E+01</rscale>
<asrwt>0</asrwt>
<pdfrwt beam="1">0</pdfrwt>
<pdfrwt beam="2">0</pdfrwt>
<totfact> 0.30895122E+12</totfact>
</mgrwt>
</event>
<event>
 4    1  0.1735226E+006  0.3856716E+01  0.7546771E-02  0.2305550E+00
         22   -1    0    0    0    0  0.00000000000E+00  0.00000000000E+00  0.36389335756E+01  0.36389335756E+01  0.00000000000E+00 0.  1.
         22   -1    0    0    0    0 -0.00000000000E+00 -0.00000000000E+00 -0.10162668222E+02  0.10162668222E+02  0.00000000000E+00 0. -1.
          4    1    1    2  501    0 -0.31512474133E+00 -0.36279545085E+01  0.20736143570E+01  0.43788279276E+01  0.12700000000E+01 0.  1.
         -4    1    1    2    0  501  0.31512474133E+00  0.36279545085E+01 -0.85973490034E+01  0.94227738700E+01  0.12700000000E+01 0. -1.
<mgrwt>
<rscale>  0 0.38567159E+01</rscale>
<asrwt>0</asrwt>
<pdfrwt beam="1">0</pdfrwt>
<pdfrwt beam="2">0</pdfrwt>
<totfact> 0.34921852E+11</totfact>
</mgrwt>
</event>
<event>
 4    1  0.1735226E+006  0.2369916E+01  0.7546771E-02  0.2768815E+00
         22   -1    0    0    0    0  0.00000000000E+00  0.00000000000E+00  0.98778277318E+00  0.98778277318E+00  0.00000000000E+00 0. -1.
         22   -1    0    0    0    0 -0.00000000000E+00 -0.00000000000E+00 -0.58503447228E+01  0.58503447228E+01  0.00000000000E+00 0.  1.
          4    1    1    2  501    0  0.13632362716E+01  0.14646459473E+01 -0.18581721382E+01  0.30115286116E+01  0.12700000000E+01 0.  1.
         -4    1    1    2    0  501 -0.13632362716E+01 -0.14646459473E+01 -0.30043898114E+01  0.38265988844E+01  0.12700000000E+01 0. -1.
<mgrwt>
<rscale>  0 0.23699158E+01</rscale>
<asrwt>0</asrwt>
<pdfrwt beam="1">0</pdfrwt>
<pdfrwt beam="2">0</pdfrwt>
<totfact> 0.30615899E+12</totfact>
</mgrwt>
</event>
<event>
 4    1  0.1735226E+006  0.2001936E+01  0.7546771E-02  0.2979423E+00
         22   -1    0    0    0    0  0.00000000000E+00  0.00000000000E+00  0.26770408284E+01  0.26770408284E+01  0.00000000000E+00 0. -1.
         22   -1    0    0    0    0 -0.00000000000E+00 -0.00000000000E+00 -0.21258497163E+01  0.21258497163E+01  0.00000000000E+00 0. -1.
          4    1    1    2  501    0 -0.11453938657E+01  0.10406349678E+01  0.15816212206E+01  0.25513278757E+01  0.12700000000E+01 0. -1.
         -4    1    1    2    0  501  0.11453938657E+01 -0.10406349678E+01 -0.10304301086E+01  0.22515626690E+01  0.12700000000E+01 0. -1.
<mgrwt>
<rscale>  0 0.20019361E+01</rscale>
<asrwt>0</asrwt>
<pdfrwt beam="1">0</pdfrwt>
<pdfrwt beam="2">0</pdfrwt>
<totfact> 0.31814335E+12</totfact>
</mgrwt>
</event>
<event>
 4    1  0.1735226E+006  0.2438610E+01  0.7546771E-02  0.2736230E+00
         22   -1    0    0    0    0  0.00000000000E+00  0.00000000000E+00  0.26126941428E+01  0.26126941428E+01  0.00000000000E+00 0.  1.
         22   -1    0    0    0    0 -0.00000000000E+00 -0.00000000000E+00 -0.27398277055E+01  0.27398277055E+01  0.00000000000E+00 0. -1.
          4    1    1    2  501    0 -0.79644114411E+00 -0.19234338659E+01  0.10374324657E+01  0.26501098946E+01  0.12700000000E+01 0.  1.
         -4    1    1    2    0  501  0.79644114411E+00  0.19234338659E+01 -0.11645660284E+01  0.27024119536E+01  0.12700000000E+01 0. -1.
<mgrwt>
<rscale>  0 0.24386095E+01</rscale>
<asrwt>0</asrwt>
<pdfrwt beam="1">0</pdfrwt>
<pdfrwt beam="2">0</pdfrwt>
<totfact> 0.24372259E+12</totfact>
</mgrwt>
</event>
<event>
 4    1  0.1735226E+006  0.2127427E+01  0.7546771E-02  0.2899719E+00
         22   -1    0    0    0    0  0.00000000000E+00  0.00000000000E+00  0.11065748136E+02  0.11065748136E+02  0.00000000000E+00 0.  1.
         22   -1    0    0    0    0 -0.00000000000E+00 -0.00000000000E+00 -0.41470759079E+00  0.41470759079E+00  0.00000000000E+00 0. -1.
          4    1    1    2  501    0  0.15260813103E+01 -0.76427959674E+00  0.46524037020E+01  0.51157411657E+01  0.12700000000E+01 0.  1.
         -4    1    1    2    0  501 -0.15260813103E+01  0.76427959674E+00  0.59986368429E+01  0.63647145609E+01  0.12700000000E+01 0. -1.
<mgrwt>
<rscale>  0 0.21274274E+01</rscale>
<asrwt>0</asrwt>
<pdfrwt beam="1">0</pdfrwt>
<pdfrwt beam="2">0</pdfrwt>
<totfact> 0.38065280E+12</totfact>
</mgrwt>
</event>
<event>
 4    1  0.1735226E+006  0.2490399E+01  0.7546771E-02  0.2712778E+00
         22   -1    0    0    0    0  0.00000000000E+00  0.00000000000E+00  0.28811410383E+00  0.28811410383E+00  0.00000000000E+00 0. -1.
         22   -1    0    0    0    0 -0.00000000000E+00 -0.00000000000E+00 -0.28425749811E+02  0.28425749811E+02  0.00000000000E+00 0.  1.
          4    1    1    2  501    0  0.16370597000E+00  0.21359748668E+01 -0.69957697708E+01  0.74258254061E+01  0.12700000000E+01 0. -1.
         -4    1    1    2    0  501 -0.16370597000E+00 -0.21359748668E+01 -0.21141865936E+02  0.21288038508E+02  0.12700000000E+01 0.  1.
<mgrwt>
<rscale>  0 0.24903992E+01</rscale>
<asrwt>0</asrwt>
<pdfrwt beam="1">0</pdfrwt>
<pdfrwt beam="2">0</pdfrwt>
<totfact> 0.17775125E+12</totfact>
</mgrwt>
</event>
<event>
 4    1  0.1735226E+006  0.2688577E+01  0.7546771E-02  0.2630811E+00
         22   -1    0    0    0    0  0.00000000000E+00  0.00000000000E+00  0.16205812348E+01  0.16205812348E+01  0.00000000000E+00 0. -1.
         22   -1    0    0    0    0 -0.00000000000E+00 -0.00000000000E+00 -0.47045391459E+01  0.47045391459E+01  0.00000000000E+00 0.  1.
          4    1    1    2  501    0 -0.23499266663E+01 -0.30560353266E+00 -0.82154462050E+00  0.28112958613E+01  0.12700000000E+01 0. -1.
         -4    1    1    2    0  501  0.23499266663E+01  0.30560353266E+00 -0.22624132906E+01  0.35138245195E+01  0.12700000000E+01 0. -1.
<mgrwt>
<rscale>  0 0.26885775E+01</rscale>
<asrwt>0</asrwt>
<pdfrwt beam="1">0</pdfrwt>
<pdfrwt beam="2">0</pdfrwt>
<totfact> 0.22469716E+12</totfact>
</mgrwt>
</event>
<event>
 4    1  0.1735226E+006  0.2865781E+01  0.7546771E-02  0.2566375E+00
         22   -1    0    0    0    0  0.00000000000E+00  0.00000000000E+00  0.18817415860E+01  0.18817415860E+01  0.00000000000E+00 0. -1.
         22   -1    0    0    0    0 -0.00000000000E+00 -0.00000000000E+00 -0.65044454836E+01  0.65044454836E+01  0.00000000000E+00 0. -1.
          4    1    1    2  501    0 -0.25413525229E+01  0.37593580446E+00  0.93782926463E-01  0.28673150528E+01  0.12700000000E+01 0. -1.
         -4    1    1    2    0  501  0.25413525229E+01 -0.37593580446E+00 -0.47164868241E+01  0.55188720167E+01  0.12700000000E+01 0. -1.
<mgrwt>
<rscale>  0 0.28657809E+01</rscale>
<asrwt>0</asrwt>
<pdfrwt beam="1">0</pdfrwt>
<pdfrwt beam="2">0</pdfrwt>
<totfact> 0.12871468E+12</totfact>
</mgrwt>
</event>
<event>
 4    1  0.1735226E+006  0.3111961E+01  0.7546771E-02  0.2487941E+00
         22   -1    0    0    0    0  0.00000000000E+00  0.00000000000E+00  0.12419375784E+01  0.12419375784E+01  0.00000000000E+00 0.  1.
         22   -1    0    0    0    0 -0.00000000000E+00 -0.00000000000E+00 -0.93941127130E+01  0.93941127130E+01  0.00000000000E+00 0. -1.
          4    1    1    2  501    0  0.13373571266E+01 -0.25065672365E+01 -0.18838381022E+01  0.36377395991E+01  0.12700000000E+01 0.  1.
         -4    1    1    2    0  501 -0.13373571266E+01  0.25065672365E+01 -0.62683370324E+01  0.69983106923E+01  0.12700000000E+01 0. -1.
<mgrwt>
<rscale>  0 0.31119613E+01</rscale>
<asrwt>0</asrwt>
<pdfrwt beam="1">0</pdfrwt>
<pdfrwt beam="2">0</pdfrwt>
<totfact> 0.13356528E+12</totfact>
</mgrwt>
</event>
<event>
 4    1  0.1735226E+006  0.2902979E+01  0.7546771E-02  0.2553758E+00
         22   -1    0    0    0    0  0.00000000000E+00  0.00000000000E+00  0.18188613891E+01  0.18188613891E+01  0.00000000000E+00 0. -1.
         22   -1    0    0    0    0 -0.00000000000E+00 -0.00000000000E+00 -0.46951683410E+01  0.46951683410E+01  0.00000000000E+00 0.  1.
          4    1    1    2  501    0  0.25383052667E+01  0.60941888718E+00 -0.10642012597E+01  0.30918941328E+01  0.12700000000E+01 0.  1.
         -4    1    1    2    0  501 -0.25383052667E+01 -0.60941888718E+00 -0.18121056922E+01  0.34221355974E+01  0.12700000000E+01 0. -1.
<mgrwt>
<rscale>  0 0.29029786E+01</rscale>
<asrwt>0</asrwt>
<pdfrwt beam="1">0</pdfrwt>
<pdfrwt beam="2">0</pdfrwt>
<totfact> 0.19714582E+12</totfact>
</mgrwt>
</event>
<event>
 4    1  0.1735226E+006  0.2116425E+01  0.7546771E-02  0.2906340E+00
         22   -1    0    0    0    0  0.00000000000E+00  0.00000000000E+00  0.97959314971E+00  0.97959314971E+00  0.00000000000E+00 0.  1.
         22   -1    0    0    0    0 -0.00000000000E+00 -0.00000000000E+00 -0.51014293498E+01  0.51014293498E+01  0.00000000000E+00 0. -1.
          4    1    1    2  501    0 -0.13331701933E+01  0.10435566221E+01 -0.10819401933E+01  0.23769408427E+01  0.12700000000E+01 0.  1.
         -4    1    1    2    0  501  0.13331701933E+01 -0.10435566221E+01 -0.30398960068E+01  0.37040816568E+01  0.12700000000E+01 0. -1.
<mgrwt>
<rscale>  0 0.21164246E+01</rscale>
<asrwt>0</asrwt>
<pdfrwt beam="1">0</pdfrwt>
<pdfrwt beam="2">0</pdfrwt>
<totfact> 0.36364121E+12</totfact>
</mgrwt>
</event>
<event>
 4    1  0.1735226E+006  0.2898692E+01  0.7546771E-02  0.2555197E+00
         22   -1    0    0    0    0  0.00000000000E+00  0.00000000000E+00  0.19602428413E+01  0.19602428413E+01  0.00000000000E+00 0.  1.
         22   -1    0    0    0    0 -0.00000000000E+00 -0.00000000000E+00 -0.47402990398E+01  0.47402990398E+01  0.00000000000E+00 0. -1.
          4    1    1    2  501    0 -0.16903391009E+01 -0.19829947081E+01 -0.24267195658E+01  0.37803944423E+01  0.12700000000E+01 0.  1.
         -4    1    1    2    0  501  0.16903391009E+01  0.19829947081E+01 -0.35333663273E+00  0.29201474388E+01  0.12700000000E+01 0. -1.
<mgrwt>
<rscale>  0 0.28986918E+01</rscale>
<asrwt>0</asrwt>
<pdfrwt beam="1">0</pdfrwt>
<pdfrwt beam="2">0</pdfrwt>
<totfact> 0.17876950E+12</totfact>
</mgrwt>
</event>
<event>
 4    1  0.1735226E+006  0.4055458E+01  0.7546771E-02  0.2266817E+00
         22   -1    0    0    0    0  0.00000000000E+00  0.00000000000E+00  0.64758047183E+02  0.64758047183E+02  0.00000000000E+00 0.  1.
         22   -1    0    0    0    0 -0.00000000000E+00 -0.00000000000E+00 -0.47181169184E+00  0.47181169184E+00  0.00000000000E+00 0. -1.
          4    1    1    2  501    0  0.25786868012E+01 -0.28608064948E+01  0.54304684863E+02  0.54455904524E+02  0.12700000000E+01 0.  1.
         -4    1    1    2    0  501 -0.25786868012E+01  0.28608064948E+01  0.99815506282E+01  0.10773954351E+02  0.12700000000E+01 0. -1.
<mgrwt>
<rscale>  0 0.40554580E+01</rscale>
<asrwt>0</asrwt>
<pdfrwt beam="1">0</pdfrwt>
<pdfrwt beam="2">0</pdfrwt>
<totfact> 0.34840518E+11</totfact>
</mgrwt>
</event>
<event>
 4    1  0.1735226E+006  0.2543307E+01  0.7546771E-02  0.2689740E+00
         22   -1    0    0    0    0  0.00000000000E+00  0.00000000000E+00  0.13358657607E+01  0.13358657607E+01  0.00000000000E+00 0. -1.
         22   -1    0    0    0    0 -0.00000000000E+00 -0.00000000000E+00 -0.55884908411E+01  0.55884908411E+01  0.00000000000E+00 0.  1.
          4    1    1    2  501    0  0.21951136720E+01  0.19232242974E+00 -0.86104680104E+00  0.26851095962E+01  0.12700000000E+01 0. -1.
         -4    1    1    2    0  501 -0.21951136720E+01 -0.19232242974E+00 -0.33915782793E+01  0.42392470056E+01  0.12700000000E+01 0.  1.
<mgrwt>
<rscale>  0 0.25433073E+01</rscale>
<asrwt>0</asrwt>
<pdfrwt beam="1">0</pdfrwt>
<pdfrwt beam="2">0</pdfrwt>
<totfact> 0.22882503E+12</totfact>
</mgrwt>
</event>
<event>
 4    1  0.1735226E+006  0.2487083E+01  0.7546771E-02  0.2714252E+00
         22   -1    0    0    0    0  0.00000000000E+00  0.00000000000E+00  0.70659840406E+02  0.70659840406E+02  0.00000000000E+00 0. -1.
         22   -1    0    0    0    0 -0.00000000000E+00 -0.00000000000E+00 -0.91291282844E-01  0.91291282844E-01  0.00000000000E+00 0.  1.
          4    1    1    2  501    0  0.21291784948E+01 -0.19819477112E+00  0.42454988934E+02  0.42527775249E+02  0.12700000000E+01 0.  1.
         -4    1    1    2    0  501 -0.21291784948E+01  0.19819477112E+00  0.28113560189E+02  0.28223356440E+02  0.12700000000E+01 0. -1.
<mgrwt>
<rscale>  0 0.24870831E+01</rscale>
<asrwt>0</asrwt>
<pdfrwt beam="1">0</pdfrwt>
<pdfrwt beam="2">0</pdfrwt>
<totfact> 0.19373620E+12</totfact>
</mgrwt>
</event>
<event>
 4    1  0.1735226E+006  0.4175906E+01  0.7546771E-02  0.2244880E+00
         22   -1    0    0    0    0  0.00000000000E+00  0.00000000000E+00  0.10732272819E+02  0.10732272819E+02  0.00000000000E+00 0.  1.
         22   -1    0    0    0    0 -0.00000000000E+00 -0.00000000000E+00 -0.16345796783E+01  0.16345796783E+01  0.00000000000E+00 0. -1.
          4    1    1    2  501    0 -0.39124499521E+01 -0.71974304350E+00  0.50262261688E+01  0.65346112490E+01  0.12700000000E+01 0. -1.
         -4    1    1    2    0  501  0.39124499521E+01  0.71974304350E+00  0.40714669720E+01  0.58322412484E+01  0.12700000000E+01 0.  1.
<mgrwt>
<rscale>  0 0.41759064E+01</rscale>
<asrwt>0</asrwt>
<pdfrwt beam="1">0</pdfrwt>
<pdfrwt beam="2">0</pdfrwt>
<totfact> 0.82891512E+11</totfact>
</mgrwt>
</event>
<event>
 4    1  0.1735226E+006  0.2299058E+01  0.7546771E-02  0.2804345E+00
         22   -1    0    0    0    0  0.00000000000E+00  0.00000000000E+00  0.63640094395E+01  0.63640094395E+01  0.00000000000E+00 0.  1.
         22   -1    0    0    0    0 -0.00000000000E+00 -0.00000000000E+00 -0.90868672914E+00  0.90868672914E+00  0.00000000000E+00 0. -1.
          4    1    1    2  501    0  0.74327977605E+00  0.17664373411E+01  0.37939370776E+01  0.44361722525E+01  0.12700000000E+01 0.  1.
         -4    1    1    2    0  501 -0.74327977605E+00 -0.17664373411E+01  0.16613856328E+01  0.28365239161E+01  0.12700000000E+01 0. -1.
<mgrwt>
<rscale>  0 0.22990576E+01</rscale>
<asrwt>0</asrwt>
<pdfrwt beam="1">0</pdfrwt>
<pdfrwt beam="2">0</pdfrwt>
<totfact> 0.30462553E+12</totfact>
</mgrwt>
</event>
<event>
 4    1  0.1735226E+006  0.2491459E+01  0.7546771E-02  0.2712308E+00
         22   -1    0    0    0    0  0.00000000000E+00  0.00000000000E+00  0.21788330569E+01  0.21788330569E+01  0.00000000000E+00 0. -1.
         22   -1    0    0    0    0 -0.00000000000E+00 -0.00000000000E+00 -0.51697853354E+01  0.51697853354E+01  0.00000000000E+00 0. -1.
          4    1    1    2  501    0  0.20692408407E+01  0.55920510623E+00  0.96637846449E+00  0.26723127333E+01  0.12700000000E+01 0. -1.
         -4    1    1    2    0  501 -0.20692408407E+01 -0.55920510623E+00 -0.39573307429E+01  0.46763056590E+01  0.12700000000E+01 0. -1.
<mgrwt>
<rscale>  0 0.24914590E+01</rscale>
<asrwt>0</asrwt>
<pdfrwt beam="1">0</pdfrwt>
<pdfrwt beam="2">0</pdfrwt>
<totfact> 0.14273123E+12</totfact>
</mgrwt>
</event>
<event>
 4    1  0.1735226E+006  0.4016369E+01  0.7546771E-02  0.2274176E+00
         22   -1    0    0    0    0  0.00000000000E+00  0.00000000000E+00  0.28463047097E+01  0.28463047097E+01  0.00000000000E+00 0. -1.
         22   -1    0    0    0    0 -0.00000000000E+00 -0.00000000000E+00 -0.79798559312E+01  0.79798559312E+01  0.00000000000E+00 0.  1.
          4    1    1    2  501    0 -0.33304880542E+00 -0.37957080475E+01  0.34716867926E+00  0.40313455794E+01  0.12700000000E+01 0. -1.
         -4    1    1    2    0  501  0.33304880542E+00  0.37957080475E+01 -0.54807199008E+01  0.67948150615E+01  0.12700000000E+01 0.  1.
<mgrwt>
<rscale>  0 0.40163691E+01</rscale>
<asrwt>0</asrwt>
<pdfrwt beam="1">0</pdfrwt>
<pdfrwt beam="2">0</pdfrwt>
<totfact> 0.62321381E+11</totfact>
</mgrwt>
</event>
<event>
 4    1  0.1735226E+006  0.2168877E+01  0.7546771E-02  0.2875361E+00
         22   -1    0    0    0    0  0.00000000000E+00  0.00000000000E+00  0.23941613831E+01  0.23941613831E+01  0.00000000000E+00 0.  1.
         22   -1    0    0    0    0 -0.00000000000E+00 -0.00000000000E+00 -0.25729505032E+01  0.25729505032E+01  0.00000000000E+00 0. -1.
          4    1    1    2  501    0 -0.12666476111E+01  0.12193167240E+01  0.11180482686E+01  0.24400945422E+01  0.12700000000E+01 0.  1.
         -4    1    1    2    0  501  0.12666476111E+01 -0.12193167240E+01 -0.12968373887E+01  0.25270173440E+01  0.12700000000E+01 0. -1.
<mgrwt>
<rscale>  0 0.21688775E+01</rscale>
<asrwt>0</asrwt>
<pdfrwt beam="1">0</pdfrwt>
<pdfrwt beam="2">0</pdfrwt>
<totfact> 0.29026497E+12</totfact>
</mgrwt>
</event>
<event>
 4    1  0.1735226E+006  0.3262201E+01  0.7546771E-02  0.2445298E+00
         22   -1    0    0    0    0  0.00000000000E+00  0.00000000000E+00  0.81563574445E+00  0.81563574445E+00  0.00000000000E+00 0. -1.
         22   -1    0    0    0    0 -0.00000000000E+00 -0.00000000000E+00 -0.13449521029E+02  0.13449521029E+02  0.00000000000E+00 0. -1.
          4    1    1    2  501    0  0.24171144302E+01 -0.17851078570E+01 -0.75502009394E+01  0.82248092048E+01  0.12700000000E+01 0. -1.
         -4    1    1    2    0  501 -0.24171144302E+01  0.17851078570E+01 -0.50836843455E+01  0.60403475690E+01  0.12700000000E+01 0. -1.
<mgrwt>
<rscale>  0 0.32622005E+01</rscale>
<asrwt>0</asrwt>
<pdfrwt beam="1">0</pdfrwt>
<pdfrwt beam="2">0</pdfrwt>
<totfact> 0.13953536E+12</totfact>
</mgrwt>
</event>
<event>
 4    1  0.1735226E+006  0.2662157E+01  0.7546771E-02  0.2641088E+00
         22   -1    0    0    0    0  0.00000000000E+00  0.00000000000E+00  0.14783160961E+02  0.14783160961E+02  0.00000000000E+00 0.  1.
         22   -1    0    0    0    0 -0.00000000000E+00 -0.00000000000E+00 -0.40343839173E+01  0.40343839173E+01  0.00000000000E+00 0. -1.
          4    1    1    2  501    0 -0.21322235213E+01 -0.96322459871E+00  0.14206469519E+02  0.14453748821E+02  0.12700000000E+01 0.  1.
         -4    1    1    2    0  501  0.21322235213E+01  0.96322459871E+00 -0.34576924758E+01  0.43637960573E+01  0.12700000000E+01 0. -1.
<mgrwt>
<rscale>  0 0.26621568E+01</rscale>
<asrwt>0</asrwt>
<pdfrwt beam="1">0</pdfrwt>
<pdfrwt beam="2">0</pdfrwt>
<totfact> 0.19578622E+11</totfact>
</mgrwt>
</event>
<event>
 4    1  0.1735226E+006  0.3855596E+01  0.7546771E-02  0.2305777E+00
         22   -1    0    0    0    0  0.00000000000E+00  0.00000000000E+00  0.24214620295E+01  0.24214620295E+01  0.00000000000E+00 0.  1.
         22   -1    0    0    0    0 -0.00000000000E+00 -0.00000000000E+00 -0.62591861660E+01  0.62591861660E+01  0.00000000000E+00 0.  1.
          4    1    1    2  501    0 -0.16846266085E+01  0.32271903499E+01 -0.25200215295E+01  0.46060973583E+01  0.12700000000E+01 0.  1.
         -4    1    1    2    0  501  0.16846266085E+01 -0.32271903499E+01 -0.13177026070E+01  0.40745508372E+01  0.12700000000E+01 0.  1.
<mgrwt>
<rscale>  0 0.38555965E+01</rscale>
<asrwt>0</asrwt>
<pdfrwt beam="1">0</pdfrwt>
<pdfrwt beam="2">0</pdfrwt>
<totfact> 0.10060006E+12</totfact>
</mgrwt>
</event>
<event>
 4    1  0.1735226E+006  0.2193935E+01  0.7546771E-02  0.2861065E+00
         22   -1    0    0    0    0  0.00000000000E+00  0.00000000000E+00  0.72564277363E+00  0.72564277363E+00  0.00000000000E+00 0. -1.
         22   -1    0    0    0    0 -0.00000000000E+00 -0.00000000000E+00 -0.69137035697E+01  0.69137035697E+01  0.00000000000E+00 0.  1.
          4    1    1    2  501    0 -0.17208719280E+01  0.48892885152E+00 -0.38633748976E+01  0.44428613769E+01  0.12700000000E+01 0.  1.
         -4    1    1    2    0  501  0.17208719280E+01 -0.48892885152E+00 -0.23246858984E+01  0.31964849665E+01  0.12700000000E+01 0. -1.
<mgrwt>
<rscale>  0 0.21939352E+01</rscale>
<asrwt>0</asrwt>
<pdfrwt beam="1">0</pdfrwt>
<pdfrwt beam="2">0</pdfrwt>
<totfact> 0.35641591E+12</totfact>
</mgrwt>
</event>
<event>
 4    1  0.1735226E+006  0.2505692E+01  0.7546771E-02  0.2706026E+00
         22   -1    0    0    0    0  0.00000000000E+00  0.00000000000E+00  0.76577134949E+00  0.76577134949E+00  0.00000000000E+00 0.  1.
         22   -1    0    0    0    0 -0.00000000000E+00 -0.00000000000E+00 -0.12472699581E+02  0.12472699581E+02  0.00000000000E+00 0.  1.
          4    1    1    2  501    0  0.18720019597E+01  0.10775898840E+01 -0.97281286395E+01  0.10045644734E+02  0.12700000000E+01 0.  1.
         -4    1    1    2    0  501 -0.18720019597E+01 -0.10775898840E+01 -0.19787995918E+01  0.31928261963E+01  0.12700000000E+01 0.  1.
<mgrwt>
<rscale>  0 0.25056918E+01</rscale>
<asrwt>0</asrwt>
<pdfrwt beam="1">0</pdfrwt>
<pdfrwt beam="2">0</pdfrwt>
<totfact> 0.16439356E+12</totfact>
</mgrwt>
</event>
<event>
 4    1  0.1735226E+006  0.2055344E+01  0.7546771E-02  0.2944342E+00
         22   -1    0    0    0    0  0.00000000000E+00  0.00000000000E+00  0.70438222253E+00  0.70438222253E+00  0.00000000000E+00 0.  1.
         22   -1    0    0    0    0 -0.00000000000E+00 -0.00000000000E+00 -0.15723716142E+02  0.15723716142E+02  0.00000000000E+00 0.  1.
          4    1    1    2  501    0  0.10520514874E+01 -0.12266735572E+01 -0.13969995084E+02  0.14120382538E+02  0.12700000000E+01 0.  1.
         -4    1    1    2    0  501 -0.10520514874E+01  0.12266735572E+01 -0.10493388354E+01  0.23077158273E+01  0.12700000000E+01 0.  1.
<mgrwt>
<rscale>  0 0.20553443E+01</rscale>
<asrwt>0</asrwt>
<pdfrwt beam="1">0</pdfrwt>
<pdfrwt beam="2">0</pdfrwt>
<totfact> 0.13603087E+12</totfact>
</mgrwt>
</event>
<event>
 4    1  0.1735226E+006  0.2549742E+01  0.7546771E-02  0.2686999E+00
         22   -1    0    0    0    0  0.00000000000E+00  0.00000000000E+00  0.39546008736E+01  0.39546008736E+01  0.00000000000E+00 0. -1.
         22   -1    0    0    0    0 -0.00000000000E+00 -0.00000000000E+00 -0.17149548596E+01  0.17149548596E+01  0.00000000000E+00 0. -1.
          4    1    1    2  501    0 -0.48849368313E+00  0.21563065408E+01  0.16966198880E+01  0.30626300822E+01  0.12700000000E+01 0. -1.
         -4    1    1    2    0  501  0.48849368313E+00 -0.21563065408E+01  0.54302612592E+00  0.26069256510E+01  0.12700000000E+01 0. -1.
<mgrwt>
<rscale>  0 0.25497419E+01</rscale>
<asrwt>0</asrwt>
<pdfrwt beam="1">0</pdfrwt>
<pdfrwt beam="2">0</pdfrwt>
<totfact> 0.25832970E+12</totfact>
</mgrwt>
</event>
<event>
 4    1  0.1735226E+006  0.8478012E+01  0.7546771E-02  0.1849860E+00
         22   -1    0    0    0    0  0.00000000000E+00  0.00000000000E+00  0.62184603462E+01  0.62184603462E+01  0.00000000000E+00 0.  1.
         22   -1    0    0    0    0 -0.00000000000E+00 -0.00000000000E+00 -0.12349622099E+02  0.12349622099E+02  0.00000000000E+00 0. -1.
          4    1    1    2  501    0  0.56554964919E+01 -0.61870146784E+01 -0.71592243487E+00  0.85081864186E+01  0.12700000000E+01 0.  1.
         -4    1    1    2    0  501 -0.56554964919E+01  0.61870146784E+01 -0.54152393182E+01  0.10059896027E+02  0.12700000000E+01 0. -1.
<mgrwt>
<rscale>  0 0.84780122E+01</rscale>
<asrwt>0</asrwt>
<pdfrwt beam="1">0</pdfrwt>
<pdfrwt beam="2">0</pdfrwt>
<totfact> 0.14621380E+11</totfact>
</mgrwt>
</event>
<event>
 4    1  0.1735226E+006  0.2900128E+01  0.7546771E-02  0.2554714E+00
         22   -1    0    0    0    0  0.00000000000E+00  0.00000000000E+00  0.11476116801E+01  0.11476116801E+01  0.00000000000E+00 0.  1.
         22   -1    0    0    0    0 -0.00000000000E+00 -0.00000000000E+00 -0.11439045797E+02  0.11439045797E+02  0.00000000000E+00 0. -1.
          4    1    1    2  501    0  0.19528671381E+01  0.17274702196E+01 -0.13733532290E+01  0.32088693508E+01  0.12700000000E+01 0.  1.
         -4    1    1    2    0  501 -0.19528671381E+01 -0.17274702196E+01 -0.89180808879E+01  0.93777881263E+01  0.12700000000E+01 0. -1.
<mgrwt>
<rscale>  0 0.29001282E+01</rscale>
<asrwt>0</asrwt>
<pdfrwt beam="1">0</pdfrwt>
<pdfrwt beam="2">0</pdfrwt>
<totfact> 0.11515393E+12</totfact>
</mgrwt>
</event>
<event>
 4    1  0.1735226E+006  0.2049928E+01  0.7546771E-02  0.2947819E+00
         22   -1    0    0    0    0  0.00000000000E+00  0.00000000000E+00  0.27659984957E+01  0.27659984957E+01  0.00000000000E+00 0. -1.
         22   -1    0    0    0    0 -0.00000000000E+00 -0.00000000000E+00 -0.29961186422E+01  0.29961186422E+01  0.00000000000E+00 0.  1.
          4    1    1    2  501    0  0.34904537412E+00 -0.15708193014E+01  0.19077052472E+01  0.28002759259E+01  0.12700000000E+01 0. -1.
         -4    1    1    2    0  501 -0.34904537412E+00  0.15708193014E+01 -0.21378253937E+01  0.29618412119E+01  0.12700000000E+01 0.  1.
<mgrwt>
<rscale>  0 0.20499283E+01</rscale>
<asrwt>0</asrwt>
<pdfrwt beam="1">0</pdfrwt>
<pdfrwt beam="2">0</pdfrwt>
<totfact> 0.20544400E+12</totfact>
</mgrwt>
</event>
<event>
 4    1  0.1735226E+006  0.2409682E+01  0.7546771E-02  0.2749739E+00
         22   -1    0    0    0    0  0.00000000000E+00  0.00000000000E+00  0.16216688974E+01  0.16216688974E+01  0.00000000000E+00 0.  1.
         22   -1    0    0    0    0 -0.00000000000E+00 -0.00000000000E+00 -0.44421197701E+01  0.44421197701E+01  0.00000000000E+00 0.  1.
          4    1    1    2  501    0  0.18045219669E+01 -0.96817799172E+00 -0.75019153170E-01  0.24108496482E+01  0.12700000000E+01 0.  1.
         -4    1    1    2    0  501 -0.18045219669E+01  0.96817799172E+00 -0.27454317195E+01  0.36529390194E+01  0.12700000000E+01 0.  1.
<mgrwt>
<rscale>  0 0.24096822E+01</rscale>
<asrwt>0</asrwt>
<pdfrwt beam="1">0</pdfrwt>
<pdfrwt beam="2">0</pdfrwt>
<totfact> 0.24026605E+12</totfact>
</mgrwt>
</event>
<event>
 4    1  0.1735226E+006  0.2203019E+01  0.7546771E-02  0.2855960E+00
         22   -1    0    0    0    0  0.00000000000E+00  0.00000000000E+00  0.12662882059E+03  0.12662882059E+03  0.00000000000E+00 0. -1.
         22   -1    0    0    0    0 -0.00000000000E+00 -0.00000000000E+00 -0.48655072277E-01  0.48655072277E-01  0.00000000000E+00 0. -1.
          4    1    1    2  501    0  0.17812659566E+01 -0.25977698329E+00  0.92472192827E+02  0.92498431007E+02  0.12700000000E+01 0. -1.
         -4    1    1    2    0  501 -0.17812659566E+01  0.25977698329E+00  0.34107972693E+02  0.34179044658E+02  0.12700000000E+01 0. -1.
<mgrwt>
<rscale>  0 0.22030189E+01</rscale>
<asrwt>0</asrwt>
<pdfrwt beam="1">0</pdfrwt>
<pdfrwt beam="2">0</pdfrwt>
<totfact> 0.17126563E+12</totfact>
</mgrwt>
</event>
<event>
 4    1  0.1735226E+006  0.3360310E+01  0.7546771E-02  0.2419277E+00
         22   -1    0    0    0    0  0.00000000000E+00  0.00000000000E+00  0.15534499050E+02  0.15534499050E+02  0.00000000000E+00 0. -1.
         22   -1    0    0    0    0 -0.00000000000E+00 -0.00000000000E+00 -0.14203308256E+01  0.14203308256E+01  0.00000000000E+00 0. -1.
          4    1    1    2  501    0  0.16799307017E+00  0.31065354686E+01  0.12980567460E+02  0.13408460608E+02  0.12700000000E+01 0. -1.
         -4    1    1    2    0  501 -0.16799307017E+00 -0.31065354686E+01  0.11336007643E+01  0.35463692675E+01  0.12700000000E+01 0. -1.
<mgrwt>
<rscale>  0 0.33603101E+01</rscale>
<asrwt>0</asrwt>
<pdfrwt beam="1">0</pdfrwt>
<pdfrwt beam="2">0</pdfrwt>
<totfact> 0.61988696E+11</totfact>
</mgrwt>
</event>
<event>
 4    1  0.1735226E+006  0.2232105E+01  0.7546771E-02  0.2839881E+00
         22   -1    0    0    0    0  0.00000000000E+00  0.00000000000E+00  0.72815474542E+00  0.72815474542E+00  0.00000000000E+00 0.  1.
         22   -1    0    0    0    0 -0.00000000000E+00 -0.00000000000E+00 -0.73609965829E+01  0.73609965829E+01  0.00000000000E+00 0. -1.
          4    1    1    2  501    0  0.61814869060E+00 -0.17283765533E+01 -0.22428313226E+01  0.31642670013E+01  0.12700000000E+01 0.  1.
         -4    1    1    2    0  501 -0.61814869060E+00  0.17283765533E+01 -0.43900105149E+01  0.49248843270E+01  0.12700000000E+01 0. -1.
<mgrwt>
<rscale>  0 0.22321051E+01</rscale>
<asrwt>0</asrwt>
<pdfrwt beam="1">0</pdfrwt>
<pdfrwt beam="2">0</pdfrwt>
<totfact> 0.32935895E+12</totfact>
</mgrwt>
</event>
<event>
 4    1  0.1735226E+006  0.3827068E+01  0.7546771E-02  0.2311622E+00
         22   -1    0    0    0    0  0.00000000000E+00  0.00000000000E+00  0.21263477245E+02  0.21263477245E+02  0.00000000000E+00 0. -1.
         22   -1    0    0    0    0 -0.00000000000E+00 -0.00000000000E+00 -0.69742480409E+00  0.69742480409E+00  0.00000000000E+00 0.  1.
          4    1    1    2  501    0 -0.33862246150E+01  0.12518114218E+01  0.11503559533E+02  0.12123462002E+02  0.12700000000E+01 0. -1.
         -4    1    1    2    0  501  0.33862246150E+01 -0.12518114218E+01  0.90624929085E+01  0.98374400479E+01  0.12700000000E+01 0.  1.
<mgrwt>
<rscale>  0 0.38270679E+01</rscale>
<asrwt>0</asrwt>
<pdfrwt beam="1">0</pdfrwt>
<pdfrwt beam="2">0</pdfrwt>
<totfact> 0.94583394E+11</totfact>
</mgrwt>
</event>
<event>
 4    1  0.1735226E+006  0.2402542E+01  0.7546771E-02  0.2753120E+00
         22   -1    0    0    0    0  0.00000000000E+00  0.00000000000E+00  0.14981540806E+01  0.14981540806E+01  0.00000000000E+00 0. -1.
         22   -1    0    0    0    0 -0.00000000000E+00 -0.00000000000E+00 -0.46670583383E+01  0.46670583383E+01  0.00000000000E+00 0.  1.
          4    1    1    2  501    0  0.71282412502E+00 -0.19108084647E+01 -0.29692518700E+00  0.24208204784E+01  0.12700000000E+01 0. -1.
         -4    1    1    2    0  501 -0.71282412502E+00  0.19108084647E+01 -0.28719790707E+01  0.37443919405E+01  0.12700000000E+01 0.  1.
<mgrwt>
<rscale>  0 0.24025418E+01</rscale>
<asrwt>0</asrwt>
<pdfrwt beam="1">0</pdfrwt>
<pdfrwt beam="2">0</pdfrwt>
<totfact> 0.24830015E+12</totfact>
</mgrwt>
</event>
<event>
 4    1  0.1735226E+006  0.3163385E+01  0.7546771E-02  0.2472941E+00
         22   -1    0    0    0    0  0.00000000000E+00  0.00000000000E+00  0.98485551243E+01  0.98485551243E+01  0.00000000000E+00 0. -1.
         22   -1    0    0    0    0 -0.00000000000E+00 -0.00000000000E+00 -0.12782395467E+01  0.12782395467E+01  0.00000000000E+00 0.  1.
          4    1    1    2  501    0 -0.72187597300E+00  0.28058867506E+01  0.68046301709E+01  0.75039987433E+01  0.12700000000E+01 0. -1.
         -4    1    1    2    0  501  0.72187597300E+00 -0.28058867506E+01  0.17656854067E+01  0.36227959276E+01  0.12700000000E+01 0.  1.
<mgrwt>
<rscale>  0 0.31633851E+01</rscale>
<asrwt>0</asrwt>
<pdfrwt beam="1">0</pdfrwt>
<pdfrwt beam="2">0</pdfrwt>
<totfact> 0.12204962E+12</totfact>
</mgrwt>
</event>
<event>
 4    1  0.1735226E+006  0.2259679E+01  0.7546771E-02  0.2825002E+00
         22   -1    0    0    0    0  0.00000000000E+00  0.00000000000E+00  0.62602431679E+00  0.62602431679E+00  0.00000000000E+00 0. -1.
         22   -1    0    0    0    0 -0.00000000000E+00 -0.00000000000E+00 -0.10564439609E+02  0.10564439609E+02  0.00000000000E+00 0.  1.
          4    1    1    2  501    0  0.29078747041E+00 -0.18462648131E+01 -0.22979240560E+01  0.32228257912E+01  0.12700000000E+01 0.  1.
         -4    1    1    2    0  501 -0.29078747041E+00  0.18462648131E+01 -0.76404912361E+01  0.79676381345E+01  0.12700000000E+01 0. -1.
<mgrwt>
<rscale>  0 0.22596794E+01</rscale>
<asrwt>0</asrwt>
<pdfrwt beam="1">0</pdfrwt>
<pdfrwt beam="2">0</pdfrwt>
<totfact> 0.25291055E+12</totfact>
</mgrwt>
</event>
<event>
 4    1  0.1735226E+006  0.3268256E+01  0.7546771E-02  0.2443652E+00
         22   -1    0    0    0    0  0.00000000000E+00  0.00000000000E+00  0.87018385266E+01  0.87018385266E+01  0.00000000000E+00 0. -1.
         22   -1    0    0    0    0 -0.00000000000E+00 -0.00000000000E+00 -0.13333485971E+01  0.13333485971E+01  0.00000000000E+00 0.  1.
          4    1    1    2  501    0 -0.29950841678E+01 -0.31315647265E+00  0.50979821703E+01  0.60556517698E+01  0.12700000000E+01 0.  1.
         -4    1    1    2    0  501  0.29950841678E+01  0.31315647265E+00  0.22705077592E+01  0.39795353539E+01  0.12700000000E+01 0. -1.
<mgrwt>
<rscale>  0 0.32682558E+01</rscale>
<asrwt>0</asrwt>
<pdfrwt beam="1">0</pdfrwt>
<pdfrwt beam="2">0</pdfrwt>
<totfact> 0.13502665E+12</totfact>
</mgrwt>
</event>
<event>
 4    1  0.1735226E+006  0.2201333E+01  0.7546771E-02  0.2856904E+00
         22   -1    0    0    0    0  0.00000000000E+00  0.00000000000E+00  0.24143039929E+01  0.24143039929E+01  0.00000000000E+00 0.  1.
         22   -1    0    0    0    0 -0.00000000000E+00 -0.00000000000E+00 -0.20498957949E+01  0.20498957949E+01  0.00000000000E+00 0.  1.
          4    1    1    2  501    0 -0.17133491246E+01  0.54534554306E+00  0.50453454213E+00  0.22584114081E+01  0.12700000000E+01 0.  1.
         -4    1    1    2    0  501  0.17133491246E+01 -0.54534554306E+00 -0.14012634412E+00  0.22057883798E+01  0.12700000000E+01 0.  1.
<mgrwt>
<rscale>  0 0.22013330E+01</rscale>
<asrwt>0</asrwt>
<pdfrwt beam="1">0</pdfrwt>
<pdfrwt beam="2">0</pdfrwt>
<totfact> 0.37424601E+12</totfact>
</mgrwt>
</event>
<event>
 4    1  0.1735226E+006  0.2246705E+01  0.7546771E-02  0.2831960E+00
         22   -1    0    0    0    0  0.00000000000E+00  0.00000000000E+00  0.10194605234E+01  0.10194605234E+01  0.00000000000E+00 0. -1.
         22   -1    0    0    0    0 -0.00000000000E+00 -0.00000000000E+00 -0.59500444293E+01  0.59500444293E+01  0.00000000000E+00 0.  1.
          4    1    1    2  501    0  0.87052226811E-02 -0.18532959635E+01 -0.10376039960E+01  0.24747330688E+01  0.12700000000E+01 0. -1.
         -4    1    1    2    0  501 -0.87052226811E-02  0.18532959635E+01 -0.38929799099E+01  0.44947718839E+01  0.12700000000E+01 0.  1.
<mgrwt>
<rscale>  0 0.22467046E+01</rscale>
<asrwt>0</asrwt>
<pdfrwt beam="1">0</pdfrwt>
<pdfrwt beam="2">0</pdfrwt>
<totfact> 0.28943551E+12</totfact>
</mgrwt>
</event>
<event>
 4    1  0.1735226E+006  0.2102757E+01  0.7546771E-02  0.2914657E+00
         22   -1    0    0    0    0  0.00000000000E+00  0.00000000000E+00  0.64984959420E+00  0.64984959420E+00  0.00000000000E+00 0. -1.
         22   -1    0    0    0    0 -0.00000000000E+00 -0.00000000000E+00 -0.68919018538E+01  0.68919018538E+01  0.00000000000E+00 0. -1.
          4    1    1    2  501    0 -0.15576704854E+01  0.61834572952E+00 -0.35468456130E+01  0.41233120891E+01  0.12700000000E+01 0. -1.
         -4    1    1    2    0  501  0.15576704854E+01 -0.61834572952E+00 -0.26952066466E+01  0.34184393588E+01  0.12700000000E+01 0. -1.
<mgrwt>
<rscale>  0 0.21027574E+01</rscale>
<asrwt>0</asrwt>
<pdfrwt beam="1">0</pdfrwt>
<pdfrwt beam="2">0</pdfrwt>
<totfact> 0.40546613E+12</totfact>
</mgrwt>
</event>
<event>
 4    1  0.1735226E+006  0.2268264E+01  0.7546771E-02  0.2820441E+00
         22   -1    0    0    0    0  0.00000000000E+00  0.00000000000E+00  0.48443994457E+02  0.48443994457E+02  0.00000000000E+00 0.  1.
         22   -1    0    0    0    0 -0.00000000000E+00 -0.00000000000E+00 -0.10896001574E+00  0.10896001574E+00  0.00000000000E+00 0.  1.
          4    1    1    2  501    0  0.18519226831E+01  0.32016140609E+00  0.28027372127E+02  0.28119007971E+02  0.12700000000E+01 0.  1.
         -4    1    1    2    0  501 -0.18519226831E+01 -0.32016140609E+00  0.20307662314E+02  0.20433946501E+02  0.12700000000E+01 0.  1.
<mgrwt>
<rscale>  0 0.22682639E+01</rscale>
<asrwt>0</asrwt>
<pdfrwt beam="1">0</pdfrwt>
<pdfrwt beam="2">0</pdfrwt>
<totfact> 0.26372685E+12</totfact>
</mgrwt>
</event>
<event>
 4    1  0.1735226E+006  0.2040902E+01  0.7546771E-02  0.2953652E+00
         22   -1    0    0    0    0  0.00000000000E+00  0.00000000000E+00  0.27248892392E+01  0.27248892392E+01  0.00000000000E+00 0. -1.
         22   -1    0    0    0    0 -0.00000000000E+00 -0.00000000000E+00 -0.16371446989E+01  0.16371446989E+01  0.00000000000E+00 0.  1.
          4    1    1    2  501    0  0.79703841100E+00 -0.13845978005E+01 -0.17703501240E-01  0.20409788612E+01  0.12700000000E+01 0. -1.
         -4    1    1    2    0  501 -0.79703841100E+00  0.13845978005E+01  0.11054480415E+01  0.23210550770E+01  0.12700000000E+01 0.  1.
<mgrwt>
<rscale>  0 0.20409021E+01</rscale>
<asrwt>0</asrwt>
<pdfrwt beam="1">0</pdfrwt>
<pdfrwt beam="2">0</pdfrwt>
<totfact> 0.42148373E+12</totfact>
</mgrwt>
</event>
<event>
 4    1  0.1735226E+006  0.2129237E+01  0.7546771E-02  0.2898637E+00
         22   -1    0    0    0    0  0.00000000000E+00  0.00000000000E+00  0.10712152247E+02  0.10712152247E+02  0.00000000000E+00 0. -1.
         22   -1    0    0    0    0 -0.00000000000E+00 -0.00000000000E+00 -0.43761651307E+00  0.43761651307E+00  0.00000000000E+00 0. -1.
          4    1    1    2  501    0  0.14610541309E+01 -0.88660575495E+00  0.61482526804E+01  0.65065090456E+01  0.12700000000E+01 0. -1.
         -4    1    1    2    0  501 -0.14610541309E+01  0.88660575495E+00  0.41262830535E+01  0.46432597145E+01  0.12700000000E+01 0. -1.
<mgrwt>
<rscale>  0 0.21292367E+01</rscale>
<asrwt>0</asrwt>
<pdfrwt beam="1">0</pdfrwt>
<pdfrwt beam="2">0</pdfrwt>
<totfact> 0.37269505E+12</totfact>
</mgrwt>
</event>
<event>
 4    1  0.1735226E+006  0.2095710E+01  0.7546771E-02  0.2918987E+00
         22   -1    0    0    0    0  0.00000000000E+00  0.00000000000E+00  0.67683705497E+00  0.67683705497E+00  0.00000000000E+00 0.  1.
         22   -1    0    0    0    0 -0.00000000000E+00 -0.00000000000E+00 -0.12081855142E+02  0.12081855142E+02  0.00000000000E+00 0. -1.
          4    1    1    2  501    0 -0.33118448396E+00 -0.16338350186E+01 -0.13621477029E+01  0.24994892268E+01  0.12700000000E+01 0.  1.
         -4    1    1    2    0  501  0.33118448396E+00  0.16338350186E+01 -0.10042870384E+02  0.10259202970E+02  0.12700000000E+01 0. -1.
<mgrwt>
<rscale>  0 0.20957099E+01</rscale>
<asrwt>0</asrwt>
<pdfrwt beam="1">0</pdfrwt>
<pdfrwt beam="2">0</pdfrwt>
<totfact> 0.19661503E+12</totfact>
</mgrwt>
</event>
<event>
 4    1  0.1735226E+006  0.2435349E+01  0.7546771E-02  0.2737737E+00
         22   -1    0    0    0    0  0.00000000000E+00  0.00000000000E+00  0.43597347971E+00  0.43597347971E+00  0.00000000000E+00 0.  1.
         22   -1    0    0    0    0 -0.00000000000E+00 -0.00000000000E+00 -0.14464322420E+02  0.14464322420E+02  0.00000000000E+00 0. -1.
          4    1    1    2  501    0  0.15018400121E+01 -0.14361415629E+01 -0.51970712934E+01  0.57393794124E+01  0.12700000000E+01 0. -1.
         -4    1    1    2    0  501 -0.15018400121E+01  0.14361415629E+01 -0.88312776464E+01  0.91609164868E+01  0.12700000000E+01 0.  1.
<mgrwt>
<rscale>  0 0.24353493E+01</rscale>
<asrwt>0</asrwt>
<pdfrwt beam="1">0</pdfrwt>
<pdfrwt beam="2">0</pdfrwt>
<totfact> 0.25938678E+12</totfact>
</mgrwt>
</event>
<event>
 4    1  0.1735226E+006  0.3994889E+01  0.7546771E-02  0.2278273E+00
         22   -1    0    0    0    0  0.00000000000E+00  0.00000000000E+00  0.19925127400E+01  0.19925127400E+01  0.00000000000E+00 0.  1.
         22   -1    0    0    0    0 -0.00000000000E+00 -0.00000000000E+00 -0.89258688875E+01  0.89258688875E+01  0.00000000000E+00 0. -1.
          4    1    1    2  501    0  0.29490504051E+01 -0.23768339340E+01 -0.17175344996E+01  0.43484551968E+01  0.12700000000E+01 0.  1.
         -4    1    1    2    0  501 -0.29490504051E+01  0.23768339340E+01 -0.52158216479E+01  0.65699264306E+01  0.12700000000E+01 0. -1.
<mgrwt>
<rscale>  0 0.39948890E+01</rscale>
<asrwt>0</asrwt>
<pdfrwt beam="1">0</pdfrwt>
<pdfrwt beam="2">0</pdfrwt>
<totfact> 0.82420819E+11</totfact>
</mgrwt>
</event>
<event>
 4    1  0.1735226E+006  0.2294541E+01  0.7546771E-02  0.2806680E+00
         22   -1    0    0    0    0  0.00000000000E+00  0.00000000000E+00  0.10881729550E+03  0.10881729550E+03  0.00000000000E+00 0. -1.
         22   -1    0    0    0    0 -0.00000000000E+00 -0.00000000000E+00 -0.48474047789E-01  0.48474047789E-01  0.00000000000E+00 0. -1.
          4    1    1    2  501    0  0.10217422689E+01  0.16149493266E+01  0.56742128265E+02  0.56788502698E+02  0.12700000000E+01 0. -1.
         -4    1    1    2    0  501 -0.10217422689E+01 -0.16149493266E+01  0.52026693188E+02  0.52077266851E+02  0.12700000000E+01 0. -1.
<mgrwt>
<rscale>  0 0.22945410E+01</rscale>
<asrwt>0</asrwt>
<pdfrwt beam="1">0</pdfrwt>
<pdfrwt beam="2">0</pdfrwt>
<totfact> 0.21378360E+12</totfact>
</mgrwt>
</event>
<event>
 4    1  0.1735226E+006  0.2476699E+01  0.7546771E-02  0.2718893E+00
         22   -1    0    0    0    0  0.00000000000E+00  0.00000000000E+00  0.12606444738E+01  0.12606444738E+01  0.00000000000E+00 0.  1.
         22   -1    0    0    0    0 -0.00000000000E+00 -0.00000000000E+00 -0.49796995577E+01  0.49796995577E+01  0.00000000000E+00 0. -1.
          4    1    1    2  501    0 -0.21262863809E+01  0.67191712176E-02 -0.13876324218E+01  0.28389368888E+01  0.12700000000E+01 0.  1.
         -4    1    1    2    0  501  0.21262863809E+01 -0.67191712176E-02 -0.23314226622E+01  0.34014071427E+01  0.12700000000E+01 0. -1.
<mgrwt>
<rscale>  0 0.24766992E+01</rscale>
<asrwt>0</asrwt>
<pdfrwt beam="1">0</pdfrwt>
<pdfrwt beam="2">0</pdfrwt>
<totfact> 0.28040283E+12</totfact>
</mgrwt>
</event>
<event>
 4    1  0.1735226E+006  0.2176609E+01  0.7546771E-02  0.2870916E+00
         22   -1    0    0    0    0  0.00000000000E+00  0.00000000000E+00  0.18648563312E+00  0.18648563312E+00  0.00000000000E+00 0.  1.
         22   -1    0    0    0    0 -0.00000000000E+00 -0.00000000000E+00 -0.28427378294E+02  0.28427378294E+02  0.00000000000E+00 0.  1.
          4    1    1    2  501    0 -0.11827496542E+01  0.13137084403E+01 -0.18785624928E+02  0.18911301662E+02  0.12700000000E+01 0.  1.
         -4    1    1    2    0  501  0.11827496542E+01 -0.13137084403E+01 -0.94552677330E+01  0.97025622654E+01  0.12700000000E+01 0.  1.
<mgrwt>
<rscale>  0 0.21766090E+01</rscale>
<asrwt>0</asrwt>
<pdfrwt beam="1">0</pdfrwt>
<pdfrwt beam="2">0</pdfrwt>
<totfact> 0.28899669E+12</totfact>
</mgrwt>
</event>
<event>
 4    1  0.1735226E+006  0.2788538E+01  0.7546771E-02  0.2593546E+00
         22   -1    0    0    0    0  0.00000000000E+00  0.00000000000E+00  0.99353108679E+01  0.99353108679E+01  0.00000000000E+00 0.  1.
         22   -1    0    0    0    0 -0.00000000000E+00 -0.00000000000E+00 -0.96478805867E+00  0.96478805867E+00  0.00000000000E+00 0. -1.
          4    1    1    2  501    0  0.23562919593E+01 -0.78162000674E+00  0.68532323315E+01  0.73988333554E+01  0.12700000000E+01 0.  1.
         -4    1    1    2    0  501 -0.23562919593E+01  0.78162000674E+00  0.21172904778E+01  0.35012655711E+01  0.12700000000E+01 0. -1.
<mgrwt>
<rscale>  0 0.27885375E+01</rscale>
<asrwt>0</asrwt>
<pdfrwt beam="1">0</pdfrwt>
<pdfrwt beam="2">0</pdfrwt>
<totfact> 0.16661403E+12</totfact>
</mgrwt>
</event>
<event>
 4    1  0.1735226E+006  0.5207163E+01  0.7546771E-02  0.2099059E+00
         22   -1    0    0    0    0  0.00000000000E+00  0.00000000000E+00  0.59418847618E+01  0.59418847618E+01  0.00000000000E+00 0. -1.
         22   -1    0    0    0    0 -0.00000000000E+00 -0.00000000000E+00 -0.55830310906E+01  0.55830310906E+01  0.00000000000E+00 0.  1.
          4    1    1    2  501    0  0.64300157685E+00 -0.50088121223E+01 -0.22833069474E+01  0.56857752788E+01  0.12700000000E+01 0.  1.
         -4    1    1    2    0  501 -0.64300157685E+00  0.50088121223E+01  0.26421606185E+01  0.58391405736E+01  0.12700000000E+01 0. -1.
<mgrwt>
<rscale>  0 0.52071633E+01</rscale>
<asrwt>0</asrwt>
<pdfrwt beam="1">0</pdfrwt>
<pdfrwt beam="2">0</pdfrwt>
<totfact> 0.40125781E+11</totfact>
</mgrwt>
</event>
<event>
 4    1  0.1735226E+006  0.8893293E+01  0.7546771E-02  0.1828665E+00
         22   -1    0    0    0    0  0.00000000000E+00  0.00000000000E+00  0.34070186790E+01  0.34070186790E+01  0.00000000000E+00 0. -1.
         22   -1    0    0    0    0 -0.00000000000E+00 -0.00000000000E+00 -0.23385454013E+02  0.23385454013E+02  0.00000000000E+00 0.  1.
          4    1    1    2  501    0 -0.57500708760E+01 -0.66644159917E+01 -0.11136149574E+02  0.14251473009E+02  0.12700000000E+01 0.  1.
         -4    1    1    2    0  501  0.57500708760E+01  0.66644159917E+01 -0.88422857605E+01  0.12540999683E+02  0.12700000000E+01 0. -1.
<mgrwt>
<rscale>  0 0.88932927E+01</rscale>
<asrwt>0</asrwt>
<pdfrwt beam="1">0</pdfrwt>
<pdfrwt beam="2">0</pdfrwt>
<totfact> 0.13503486E+11</totfact>
</mgrwt>
</event>
<event>
 4    1  0.1735226E+006  0.2431248E+01  0.7546771E-02  0.2739639E+00
         22   -1    0    0    0    0  0.00000000000E+00  0.00000000000E+00  0.17329534867E+01  0.17329534867E+01  0.00000000000E+00 0.  1.
         22   -1    0    0    0    0 -0.00000000000E+00 -0.00000000000E+00 -0.11233136224E+02  0.11233136224E+02  0.00000000000E+00 0. -1.
          4    1    1    2  501    0  0.90588098068E+00  0.18647918188E+01  0.65986012482E+00  0.25192031008E+01  0.12700000000E+01 0.  1.
         -4    1    1    2    0  501 -0.90588098068E+00 -0.18647918188E+01 -0.10160042862E+02  0.10446886610E+02  0.12700000000E+01 0. -1.
<mgrwt>
<rscale>  0 0.24312484E+01</rscale>
<asrwt>0</asrwt>
<pdfrwt beam="1">0</pdfrwt>
<pdfrwt beam="2">0</pdfrwt>
<totfact> 0.73308005E+11</totfact>
</mgrwt>
</event>
<event>
 4    1  0.1735226E+006  0.2420087E+01  0.7546771E-02  0.2744845E+00
         22   -1    0    0    0    0  0.00000000000E+00  0.00000000000E+00  0.19229679456E+02  0.19229679456E+02  0.00000000000E+00 0.  1.
         22   -1    0    0    0    0 -0.00000000000E+00 -0.00000000000E+00 -0.30635023919E+00  0.30635023919E+00  0.00000000000E+00 0. -1.
          4    1    1    2  501    0  0.76249809830E+00 -0.19137703069E+01  0.87174405930E+01  0.90471316245E+01  0.12700000000E+01 0.  1.
         -4    1    1    2    0  501 -0.76249809830E+00  0.19137703069E+01  0.10205888624E+02  0.10488898071E+02  0.12700000000E+01 0.  1.
<mgrwt>
<rscale>  0 0.24200868E+01</rscale>
<asrwt>0</asrwt>
<pdfrwt beam="1">0</pdfrwt>
<pdfrwt beam="2">0</pdfrwt>
<totfact> 0.27121039E+12</totfact>
</mgrwt>
</event>
<event>
 4    1  0.1735226E+006  0.2049628E+01  0.7546771E-02  0.2948011E+00
         22   -1    0    0    0    0  0.00000000000E+00  0.00000000000E+00  0.98268320272E+01  0.98268320272E+01  0.00000000000E+00 0.  1.
         22   -1    0    0    0    0 -0.00000000000E+00 -0.00000000000E+00 -0.11143343524E+01  0.11143343524E+01  0.00000000000E+00 0.  1.
          4    1    1    2  501    0  0.39115392674E+00  0.15604727687E+01  0.86511352203E+01  0.88906196216E+01  0.12700000000E+01 0.  1.
         -4    1    1    2    0  501 -0.39115392674E+00 -0.15604727687E+01  0.61362454547E-01  0.20505467581E+01  0.12700000000E+01 0.  1.
<mgrwt>
<rscale>  0 0.20496284E+01</rscale>
<asrwt>0</asrwt>
<pdfrwt beam="1">0</pdfrwt>
<pdfrwt beam="2">0</pdfrwt>
<totfact> 0.14319413E+12</totfact>
</mgrwt>
</event>
<event>
 4    1  0.1735226E+006  0.2118950E+01  0.7546771E-02  0.2904815E+00
         22   -1    0    0    0    0  0.00000000000E+00  0.00000000000E+00  0.10364889018E+01  0.10364889018E+01  0.00000000000E+00 0.  1.
         22   -1    0    0    0    0 -0.00000000000E+00 -0.00000000000E+00 -0.48879141811E+01  0.48879141811E+01  0.00000000000E+00 0. -1.
          4    1    1    2  501    0  0.46762631319E+00  0.16304520519E+01 -0.92662741075E+00  0.23127011525E+01  0.12700000000E+01 0.  1.
         -4    1    1    2    0  501 -0.46762631319E+00 -0.16304520519E+01 -0.29247978685E+01  0.36117019304E+01  0.12700000000E+01 0. -1.
<mgrwt>
<rscale>  0 0.21189498E+01</rscale>
<asrwt>0</asrwt>
<pdfrwt beam="1">0</pdfrwt>
<pdfrwt beam="2">0</pdfrwt>
<totfact> 0.35863620E+12</totfact>
</mgrwt>
</event>
<event>
 4    1  0.1735226E+006  0.2098381E+01  0.7546771E-02  0.2917343E+00
         22   -1    0    0    0    0  0.00000000000E+00  0.00000000000E+00  0.10841264735E+02  0.10841264735E+02  0.00000000000E+00 0. -1.
         22   -1    0    0    0    0 -0.00000000000E+00 -0.00000000000E+00 -0.19570541817E+01  0.19570541817E+01  0.00000000000E+00 0. -1.
          4    1    1    2  501    0 -0.12942088539E+01  0.10560898716E+01  0.10138678681E+02  0.10353550491E+02  0.12700000000E+01 0. -1.
         -4    1    1    2    0  501  0.12942088539E+01 -0.10560898716E+01 -0.12544681273E+01  0.24447684260E+01  0.12700000000E+01 0. -1.
<mgrwt>
<rscale>  0 0.20983809E+01</rscale>
<asrwt>0</asrwt>
<pdfrwt beam="1">0</pdfrwt>
<pdfrwt beam="2">0</pdfrwt>
<totfact> 0.66502878E+11</totfact>
</mgrwt>
</event>
<event>
 4    1  0.1735226E+006  0.2902885E+01  0.7546771E-02  0.2553789E+00
         22   -1    0    0    0    0  0.00000000000E+00  0.00000000000E+00  0.44460625052E+01  0.44460625052E+01  0.00000000000E+00 0. -1.
         22   -1    0    0    0    0 -0.00000000000E+00 -0.00000000000E+00 -0.24044410245E+01  0.24044410245E+01  0.00000000000E+00 0.  1.
          4    1    1    2  501    0  0.15186291860E+01 -0.21231124856E+01  0.25969444874E+01  0.38949790631E+01  0.12700000000E+01 0. -1.
         -4    1    1    2    0  501 -0.15186291860E+01  0.21231124856E+01 -0.55532300672E+00  0.29555244666E+01  0.12700000000E+01 0.  1.
<mgrwt>
<rscale>  0 0.29028850E+01</rscale>
<asrwt>0</asrwt>
<pdfrwt beam="1">0</pdfrwt>
<pdfrwt beam="2">0</pdfrwt>
<totfact> 0.15216344E+12</totfact>
</mgrwt>
</event>
<event>
 4    1  0.1735226E+006  0.2352373E+01  0.7546771E-02  0.2777423E+00
         22   -1    0    0    0    0  0.00000000000E+00  0.00000000000E+00  0.91443248499E+01  0.91443248499E+01  0.00000000000E+00 0. -1.
         22   -1    0    0    0    0 -0.00000000000E+00 -0.00000000000E+00 -0.70392133906E+00  0.70392133906E+00  0.00000000000E+00 0. -1.
          4    1    1    2  501    0  0.17447768621E+01 -0.93622190946E+00  0.60647483062E+01  0.65049849946E+01  0.12700000000E+01 0. -1.
         -4    1    1    2    0  501 -0.17447768621E+01  0.93622190946E+00  0.23756552046E+01  0.33432611944E+01  0.12700000000E+01 0. -1.
<mgrwt>
<rscale>  0 0.23523728E+01</rscale>
<asrwt>0</asrwt>
<pdfrwt beam="1">0</pdfrwt>
<pdfrwt beam="2">0</pdfrwt>
<totfact> 0.26367997E+12</totfact>
</mgrwt>
</event>
<event>
 4    1  0.1735226E+006  0.2339188E+01  0.7546771E-02  0.2783973E+00
         22   -1    0    0    0    0  0.00000000000E+00  0.00000000000E+00  0.23176602258E+01  0.23176602258E+01  0.00000000000E+00 0. -1.
         22   -1    0    0    0    0 -0.00000000000E+00 -0.00000000000E+00 -0.23946608934E+01  0.23946608934E+01  0.00000000000E+00 0.  1.
          4    1    1    2  501    0 -0.18338894829E+01  0.70409459523E+00  0.24119836186E+00  0.23515902033E+01  0.12700000000E+01 0. -1.
         -4    1    1    2    0  501  0.18338894829E+01 -0.70409459523E+00 -0.31819902952E+00  0.23607309159E+01  0.12700000000E+01 0.  1.
<mgrwt>
<rscale>  0 0.23391879E+01</rscale>
<asrwt>0</asrwt>
<pdfrwt beam="1">0</pdfrwt>
<pdfrwt beam="2">0</pdfrwt>
<totfact> 0.32768841E+12</totfact>
</mgrwt>
</event>
<event>
 4    1  0.1735226E+006  0.3559156E+01  0.7546771E-02  0.2370417E+00
         22   -1    0    0    0    0  0.00000000000E+00  0.00000000000E+00  0.25743336128E+01  0.25743336128E+01  0.00000000000E+00 0.  1.
         22   -1    0    0    0    0 -0.00000000000E+00 -0.00000000000E+00 -0.56281258667E+01  0.56281258667E+01  0.00000000000E+00 0. -1.
          4    1    1    2  501    0 -0.28454738010E+01  0.17198757352E+01 -0.72896537344E-01  0.35599027518E+01  0.12700000000E+01 0.  1.
         -4    1    1    2    0  501  0.28454738010E+01 -0.17198757352E+01 -0.29808957166E+01  0.46425567277E+01  0.12700000000E+01 0. -1.
<mgrwt>
<rscale>  0 0.35591563E+01</rscale>
<asrwt>0</asrwt>
<pdfrwt beam="1">0</pdfrwt>
<pdfrwt beam="2">0</pdfrwt>
<totfact> 0.10631540E+12</totfact>
</mgrwt>
</event>
<event>
 4    1  0.1735226E+006  0.2001797E+01  0.7546771E-02  0.2979516E+00
         22   -1    0    0    0    0  0.00000000000E+00  0.00000000000E+00  0.67702546450E+02  0.67702546450E+02  0.00000000000E+00 0.  1.
         22   -1    0    0    0    0 -0.00000000000E+00 -0.00000000000E+00 -0.68039247653E-01  0.68039247653E-01  0.00000000000E+00 0. -1.
          4    1    1    2  501    0 -0.46287648950E+00 -0.14764950884E+01  0.46038869738E+02  0.46082368853E+02  0.12700000000E+01 0. -1.
         -4    1    1    2    0  501  0.46287648950E+00  0.14764950884E+01  0.21595637465E+02  0.21688216845E+02  0.12700000000E+01 0.  1.
<mgrwt>
<rscale>  0 0.20017973E+01</rscale>
<asrwt>0</asrwt>
<pdfrwt beam="1">0</pdfrwt>
<pdfrwt beam="2">0</pdfrwt>
<totfact> 0.28399501E+12</totfact>
</mgrwt>
</event>
<event>
 4    1  0.1735226E+006  0.2111039E+01  0.7546771E-02  0.2909605E+00
         22   -1    0    0    0    0  0.00000000000E+00  0.00000000000E+00  0.27408564233E+01  0.27408564233E+01  0.00000000000E+00 0.  1.
         22   -1    0    0    0    0 -0.00000000000E+00 -0.00000000000E+00 -0.20582790428E+01  0.20582790428E+01  0.00000000000E+00 0.  1.
          4    1    1    2  501    0  0.11408118025E+01 -0.12418261808E+01  0.14410292216E+01  0.25559829908E+01  0.12700000000E+01 0.  1.
         -4    1    1    2    0  501 -0.11408118025E+01  0.12418261808E+01 -0.75845184115E+00  0.22431524752E+01  0.12700000000E+01 0.  1.
<mgrwt>
<rscale>  0 0.21110386E+01</rscale>
<asrwt>0</asrwt>
<pdfrwt beam="1">0</pdfrwt>
<pdfrwt beam="2">0</pdfrwt>
<totfact> 0.32134230E+12</totfact>
</mgrwt>
</event>
<event>
 4    1  0.1735226E+006  0.3844466E+01  0.7546771E-02  0.2308049E+00
         22   -1    0    0    0    0  0.00000000000E+00  0.00000000000E+00  0.53524076970E+01  0.53524076970E+01  0.00000000000E+00 0.  1.
         22   -1    0    0    0    0 -0.00000000000E+00 -0.00000000000E+00 -0.52001130557E+01  0.52001130557E+01  0.00000000000E+00 0. -1.
          4    1    1    2  501    0 -0.45708864367E+00 -0.35997342232E+01 -0.35371514471E+01  0.52241130219E+01  0.12700000000E+01 0. -1.
         -4    1    1    2    0  501  0.45708864367E+00  0.35997342232E+01  0.36894460884E+01  0.53284077308E+01  0.12700000000E+01 0.  1.
<mgrwt>
<rscale>  0 0.38444657E+01</rscale>
<asrwt>0</asrwt>
<pdfrwt beam="1">0</pdfrwt>
<pdfrwt beam="2">0</pdfrwt>
<totfact> 0.49425434E+11</totfact>
</mgrwt>
</event>
<event>
 4    1  0.1735226E+006  0.2151263E+01  0.7546771E-02  0.2885601E+00
         22   -1    0    0    0    0  0.00000000000E+00  0.00000000000E+00  0.17707725596E+01  0.17707725596E+01  0.00000000000E+00 0. -1.
         22   -1    0    0    0    0 -0.00000000000E+00 -0.00000000000E+00 -0.31911704879E+01  0.31911704879E+01  0.00000000000E+00 0. -1.
          4    1    1    2  501    0  0.11772223190E+01  0.12763937482E+01  0.34536065673E+00  0.21788087048E+01  0.12700000000E+01 0. -1.
         -4    1    1    2    0  501 -0.11772223190E+01 -0.12763937482E+01 -0.17657585851E+01  0.27831343427E+01  0.12700000000E+01 0. -1.
<mgrwt>
<rscale>  0 0.21512632E+01</rscale>
<asrwt>0</asrwt>
<pdfrwt beam="1">0</pdfrwt>
<pdfrwt beam="2">0</pdfrwt>
<totfact> 0.32016843E+12</totfact>
</mgrwt>
</event>
<event>
 4    1  0.1735226E+006  0.2564384E+01  0.7546771E-02  0.2680808E+00
         22   -1    0    0    0    0  0.00000000000E+00  0.00000000000E+00  0.29733655755E+00  0.29733655755E+00  0.00000000000E+00 0.  1.
         22   -1    0    0    0    0 -0.00000000000E+00 -0.00000000000E+00 -0.38613163039E+02  0.38613163039E+02  0.00000000000E+00 0. -1.
          4    1    1    2  501    0 -0.35020155280E+00 -0.22001187700E+01 -0.64414511996E+01  0.69331347373E+01  0.12700000000E+01 0.  1.
         -4    1    1    2    0  501  0.35020155280E+00  0.22001187700E+01 -0.31874375282E+02  0.31977364859E+02  0.12700000000E+01 0. -1.
<mgrwt>
<rscale>  0 0.25643837E+01</rscale>
<asrwt>0</asrwt>
<pdfrwt beam="1">0</pdfrwt>
<pdfrwt beam="2">0</pdfrwt>
<totfact> 0.11585365E+12</totfact>
</mgrwt>
</event>
<event>
 4    1  0.1735226E+006  0.2386219E+01  0.7546771E-02  0.2760922E+00
         22   -1    0    0    0    0  0.00000000000E+00  0.00000000000E+00  0.88706206671E+01  0.88706206671E+01  0.00000000000E+00 0.  1.
         22   -1    0    0    0    0 -0.00000000000E+00 -0.00000000000E+00 -0.50357816018E+01  0.50357816018E+01  0.00000000000E+00 0. -1.
          4    1    1    2  501    0 -0.17151931676E+01 -0.10673573028E+01  0.84123662405E+01  0.87442521109E+01  0.12700000000E+01 0.  1.
         -4    1    1    2    0  501  0.17151931676E+01  0.10673573028E+01 -0.45775271752E+01  0.51621501580E+01  0.12700000000E+01 0. -1.
<mgrwt>
<rscale>  0 0.23862186E+01</rscale>
<asrwt>0</asrwt>
<pdfrwt beam="1">0</pdfrwt>
<pdfrwt beam="2">0</pdfrwt>
<totfact> 0.28061612E+11</totfact>
</mgrwt>
</event>
<event>
 4    1  0.1735226E+006  0.2219123E+01  0.7546771E-02  0.2847008E+00
         22   -1    0    0    0    0  0.00000000000E+00  0.00000000000E+00  0.87797129153E+01  0.87797129153E+01  0.00000000000E+00 0.  1.
         22   -1    0    0    0    0 -0.00000000000E+00 -0.00000000000E+00 -0.56089858229E+00  0.56089858229E+00  0.00000000000E+00 0. -1.
          4    1    1    2  501    0 -0.60298779042E+00 -0.17169773148E+01  0.40992807245E+01  0.46613954814E+01  0.12700000000E+01 0.  1.
         -4    1    1    2    0  501  0.60298779042E+00  0.17169773148E+01  0.41195336084E+01  0.46792160162E+01  0.12700000000E+01 0.  1.
<mgrwt>
<rscale>  0 0.22191227E+01</rscale>
<asrwt>0</asrwt>
<pdfrwt beam="1">0</pdfrwt>
<pdfrwt beam="2">0</pdfrwt>
<totfact> 0.35822770E+12</totfact>
</mgrwt>
</event>
<event>
 4    1  0.1735226E+006  0.2190136E+01  0.7546771E-02  0.2863212E+00
         22   -1    0    0    0    0  0.00000000000E+00  0.00000000000E+00  0.33579250110E+02  0.33579250110E+02  0.00000000000E+00 0. -1.
         22   -1    0    0    0    0 -0.00000000000E+00 -0.00000000000E+00 -0.20219516400E+00  0.20219516400E+00  0.00000000000E+00 0.  1.
          4    1    1    2  501    0  0.17824069270E+01 -0.82594644705E-01  0.25839481277E+02  0.25932132365E+02  0.12700000000E+01 0. -1.
         -4    1    1    2    0  501 -0.17824069270E+01  0.82594644705E-01  0.75375736689E+01  0.78493129089E+01  0.12700000000E+01 0.  1.
<mgrwt>
<rscale>  0 0.21901361E+01</rscale>
<asrwt>0</asrwt>
<pdfrwt beam="1">0</pdfrwt>
<pdfrwt beam="2">0</pdfrwt>
<totfact> 0.21348896E+12</totfact>
</mgrwt>
</event>
<event>
 4    1  0.1735226E+006  0.2242525E+01  0.7546771E-02  0.2834218E+00
         22   -1    0    0    0    0  0.00000000000E+00  0.00000000000E+00  0.25151434599E+01  0.25151434599E+01  0.00000000000E+00 0.  1.
         22   -1    0    0    0    0 -0.00000000000E+00 -0.00000000000E+00 -0.25581404966E+01  0.25581404966E+01  0.00000000000E+00 0.  1.
          4    1    1    2  501    0  0.18072424821E+01 -0.38715830673E+00  0.11639441564E+01  0.25265951284E+01  0.12700000000E+01 0.  1.
         -4    1    1    2    0  501 -0.18072424821E+01  0.38715830673E+00 -0.12069411932E+01  0.25466888281E+01  0.12700000000E+01 0.  1.
<mgrwt>
<rscale>  0 0.22425247E+01</rscale>
<asrwt>0</asrwt>
<pdfrwt beam="1">0</pdfrwt>
<pdfrwt beam="2">0</pdfrwt>
<totfact> 0.27594733E+12</totfact>
</mgrwt>
</event>
<event>
 4    1  0.1735226E+006  0.2440969E+01  0.7546771E-02  0.2735141E+00
         22   -1    0    0    0    0  0.00000000000E+00  0.00000000000E+00  0.45557952659E+01  0.45557952659E+01  0.00000000000E+00 0. -1.
         22   -1    0    0    0    0 -0.00000000000E+00 -0.00000000000E+00 -0.13125559116E+01  0.13125559116E+01  0.00000000000E+00 0.  1.
          4    1    1    2  501    0 -0.14751424980E+01 -0.14728832104E+01  0.14460661816E+01  0.28371531052E+01  0.12700000000E+01 0.  1.
         -4    1    1    2    0  501  0.14751424980E+01  0.14728832104E+01  0.17971731727E+01  0.30311980723E+01  0.12700000000E+01 0. -1.
<mgrwt>
<rscale>  0 0.24409691E+01</rscale>
<asrwt>0</asrwt>
<pdfrwt beam="1">0</pdfrwt>
<pdfrwt beam="2">0</pdfrwt>
<totfact> 0.29741408E+12</totfact>
</mgrwt>
</event>
<event>
 4    1  0.1735226E+006  0.2235016E+01  0.7546771E-02  0.2838294E+00
         22   -1    0    0    0    0  0.00000000000E+00  0.00000000000E+00  0.11222043865E+01  0.11222043865E+01  0.00000000000E+00 0. -1.
         22   -1    0    0    0    0 -0.00000000000E+00 -0.00000000000E+00 -0.50553936413E+01  0.50553936413E+01  0.00000000000E+00 0. -1.
          4    1    1    2  501    0  0.21536352962E+00  0.18264766056E+01 -0.89888113686E+00  0.24090009421E+01  0.12700000000E+01 0. -1.
         -4    1    1    2    0  501 -0.21536352962E+00 -0.18264766056E+01 -0.30343081179E+01  0.37685970858E+01  0.12700000000E+01 0. -1.
<mgrwt>
<rscale>  0 0.22350164E+01</rscale>
<asrwt>0</asrwt>
<pdfrwt beam="1">0</pdfrwt>
<pdfrwt beam="2">0</pdfrwt>
<totfact> 0.31469151E+12</totfact>
</mgrwt>
</event>
<event>
 4    1  0.1735226E+006  0.3274220E+01  0.7546771E-02  0.2442036E+00
         22   -1    0    0    0    0  0.00000000000E+00  0.00000000000E+00  0.26990301559E+00  0.26990301559E+00  0.00000000000E+00 0.  1.
         22   -1    0    0    0    0 -0.00000000000E+00 -0.00000000000E+00 -0.42031309279E+02  0.42031309279E+02  0.00000000000E+00 0. -1.
          4    1    1    2  501    0 -0.16996017527E+01 -0.24937863820E+01 -0.25840640933E+02  0.26047250152E+02  0.12700000000E+01 0.  1.
         -4    1    1    2    0  501  0.16996017527E+01  0.24937863820E+01 -0.15920765330E+02  0.16253962143E+02  0.12700000000E+01 0. -1.
<mgrwt>
<rscale>  0 0.32742200E+01</rscale>
<asrwt>0</asrwt>
<pdfrwt beam="1">0</pdfrwt>
<pdfrwt beam="2">0</pdfrwt>
<totfact> 0.11566183E+12</totfact>
</mgrwt>
</event>
<event>
 4    1  0.1735226E+006  0.2570922E+01  0.7546771E-02  0.2678065E+00
         22   -1    0    0    0    0  0.00000000000E+00  0.00000000000E+00  0.66828171704E+01  0.66828171704E+01  0.00000000000E+00 0.  1.
         22   -1    0    0    0    0 -0.00000000000E+00 -0.00000000000E+00 -0.16793351343E+01  0.16793351343E+01  0.00000000000E+00 0. -1.
          4    1    1    2  501    0  0.24939335726E+00 -0.22213836528E+01  0.51823505286E+01  0.57850150718E+01  0.12700000000E+01 0.  1.
         -4    1    1    2    0  501 -0.24939335726E+00  0.22213836528E+01 -0.17886849243E+00  0.25771372329E+01  0.12700000000E+01 0. -1.
<mgrwt>
<rscale>  0 0.25709225E+01</rscale>
<asrwt>0</asrwt>
<pdfrwt beam="1">0</pdfrwt>
<pdfrwt beam="2">0</pdfrwt>
<totfact> 0.14212093E+12</totfact>
</mgrwt>
</event>
<event>
 4    1  0.1735226E+006  0.2358741E+01  0.7546771E-02  0.2774284E+00
         22   -1    0    0    0    0  0.00000000000E+00  0.00000000000E+00  0.65929502291E+00  0.65929502291E+00  0.00000000000E+00 0.  1.
         22   -1    0    0    0    0 -0.00000000000E+00 -0.00000000000E+00 -0.10351020756E+02  0.10351020756E+02  0.00000000000E+00 0. -1.
          4    1    1    2  501    0  0.14947988240E+01 -0.13100899773E+01 -0.24796864104E+01  0.34223535713E+01  0.12700000000E+01 0.  1.
         -4    1    1    2    0  501 -0.14947988240E+01  0.13100899773E+01 -0.72120393226E+01  0.75879622076E+01  0.12700000000E+01 0. -1.
<mgrwt>
<rscale>  0 0.23587410E+01</rscale>
<asrwt>0</asrwt>
<pdfrwt beam="1">0</pdfrwt>
<pdfrwt beam="2">0</pdfrwt>
<totfact> 0.24447321E+12</totfact>
</mgrwt>
</event>
<event>
 4    1  0.1735226E+006  0.2201955E+01  0.7546771E-02  0.2856556E+00
         22   -1    0    0    0    0  0.00000000000E+00  0.00000000000E+00  0.10733868087E+01  0.10733868087E+01  0.00000000000E+00 0. -1.
         22   -1    0    0    0    0 -0.00000000000E+00 -0.00000000000E+00 -0.45199256255E+01  0.45199256255E+01  0.00000000000E+00 0.  1.
          4    1    1    2  501    0  0.15888860604E+01  0.84329457754E+00 -0.17930891044E+01  0.28396783610E+01  0.12700000000E+01 0.  1.
         -4    1    1    2    0  501 -0.15888860604E+01 -0.84329457754E+00 -0.16534497124E+01  0.27536340732E+01  0.12700000000E+01 0. -1.
<mgrwt>
<rscale>  0 0.22019547E+01</rscale>
<asrwt>0</asrwt>
<pdfrwt beam="1">0</pdfrwt>
<pdfrwt beam="2">0</pdfrwt>
<totfact> 0.37798489E+12</totfact>
</mgrwt>
</event>
<event>
 4    1  0.1735226E+006  0.2731059E+01  0.7546771E-02  0.2614669E+00
         22   -1    0    0    0    0  0.00000000000E+00  0.00000000000E+00  0.46412538773E+01  0.46412538773E+01  0.00000000000E+00 0.  1.
         22   -1    0    0    0    0 -0.00000000000E+00 -0.00000000000E+00 -0.17915883129E+01  0.17915883129E+01  0.00000000000E+00 0. -1.
          4    1    1    2  501    0 -0.12698636031E+01  0.20574816744E+01  0.39252815814E+00  0.27591235504E+01  0.12700000000E+01 0. -1.
         -4    1    1    2    0  501  0.12698636031E+01 -0.20574816744E+01  0.24571374063E+01  0.36737186398E+01  0.12700000000E+01 0.  1.
<mgrwt>
<rscale>  0 0.27310592E+01</rscale>
<asrwt>0</asrwt>
<pdfrwt beam="1">0</pdfrwt>
<pdfrwt beam="2">0</pdfrwt>
<totfact> 0.20337171E+12</totfact>
</mgrwt>
</event>
<event>
 4    1  0.1735226E+006  0.2135612E+01  0.7546771E-02  0.2894837E+00
         22   -1    0    0    0    0  0.00000000000E+00  0.00000000000E+00  0.23228686952E+00  0.23228686952E+00  0.00000000000E+00 0.  1.
         22   -1    0    0    0    0 -0.00000000000E+00 -0.00000000000E+00 -0.42785863281E+02  0.42785863281E+02  0.00000000000E+00 0. -1.
          4    1    1    2  501    0  0.11980255319E+01  0.12299083091E+01 -0.54548477324E+01  0.58580033635E+01  0.12700000000E+01 0.  1.
         -4    1    1    2    0  501 -0.11980255319E+01 -0.12299083091E+01 -0.37098728679E+02  0.37160146787E+02  0.12700000000E+01 0. -1.
<mgrwt>
<rscale>  0 0.21356122E+01</rscale>
<asrwt>0</asrwt>
<pdfrwt beam="1">0</pdfrwt>
<pdfrwt beam="2">0</pdfrwt>
<totfact> 0.13365783E+12</totfact>
</mgrwt>
</event>
<event>
 4    1  0.1735226E+006  0.2104909E+01  0.7546771E-02  0.2913341E+00
         22   -1    0    0    0    0  0.00000000000E+00  0.00000000000E+00  0.52974160206E+01  0.52974160206E+01  0.00000000000E+00 0.  1.
         22   -1    0    0    0    0 -0.00000000000E+00 -0.00000000000E+00 -0.12799373900E+01  0.12799373900E+01  0.00000000000E+00 0. -1.
          4    1    1    2  501    0  0.12561113823E+01  0.11135205124E+01  0.39447268978E+01  0.44711870945E+01  0.12700000000E+01 0. -1.
         -4    1    1    2    0  501 -0.12561113823E+01 -0.11135205124E+01  0.72751732823E-01  0.21061663161E+01  0.12700000000E+01 0. -1.
<mgrwt>
<rscale>  0 0.21049094E+01</rscale>
<asrwt>0</asrwt>
<pdfrwt beam="1">0</pdfrwt>
<pdfrwt beam="2">0</pdfrwt>
<totfact> 0.25607261E+12</totfact>
</mgrwt>
</event>
<event>
 4    1  0.1735226E+006  0.2225611E+01  0.7546771E-02  0.2843436E+00
         22   -1    0    0    0    0  0.00000000000E+00  0.00000000000E+00  0.12605745641E+01  0.12605745641E+01  0.00000000000E+00 0.  1.
         22   -1    0    0    0    0 -0.00000000000E+00 -0.00000000000E+00 -0.39426013313E+01  0.39426013313E+01  0.00000000000E+00 0.  1.
          4    1    1    2  501    0 -0.15794405520E+01 -0.91967973756E+00 -0.11906601979E+01  0.25240869604E+01  0.12700000000E+01 0.  1.
         -4    1    1    2    0  501  0.15794405520E+01  0.91967973756E+00 -0.14913665693E+01  0.26790889349E+01  0.12700000000E+01 0.  1.
<mgrwt>
<rscale>  0 0.22256108E+01</rscale>
<asrwt>0</asrwt>
<pdfrwt beam="1">0</pdfrwt>
<pdfrwt beam="2">0</pdfrwt>
<totfact> 0.36938146E+12</totfact>
</mgrwt>
</event>
<event>
 4    1  0.1735226E+006  0.2043160E+01  0.7546771E-02  0.2952187E+00
         22   -1    0    0    0    0  0.00000000000E+00  0.00000000000E+00  0.38080823994E+01  0.38080823994E+01  0.00000000000E+00 0.  1.
         22   -1    0    0    0    0 -0.00000000000E+00 -0.00000000000E+00 -0.19070883366E+01  0.19070883366E+01  0.00000000000E+00 0.  1.
          4    1    1    2  501    0  0.46100359749E+00 -0.15326709256E+01  0.28138210798E+01  0.34773687685E+01  0.12700000000E+01 0.  1.
         -4    1    1    2    0  501 -0.46100359749E+00  0.15326709256E+01 -0.91282701701E+00  0.22378019676E+01  0.12700000000E+01 0.  1.
<mgrwt>
<rscale>  0 0.20431604E+01</rscale>
<asrwt>0</asrwt>
<pdfrwt beam="1">0</pdfrwt>
<pdfrwt beam="2">0</pdfrwt>
<totfact> 0.23886383E+12</totfact>
</mgrwt>
</event>
<event>
 4    1  0.1735226E+006  0.2392883E+01  0.7546771E-02  0.2757725E+00
         22   -1    0    0    0    0  0.00000000000E+00  0.00000000000E+00  0.24989567954E+01  0.24989567954E+01  0.00000000000E+00 0. -1.
         22   -1    0    0    0    0 -0.00000000000E+00 -0.00000000000E+00 -0.33632191149E+02  0.33632191149E+02  0.00000000000E+00 0.  1.
          4    1    1    2  501    0 -0.19645179345E+01  0.50364276567E+00  0.18727121312E+01  0.30385749089E+01  0.12700000000E+01 0. -1.
         -4    1    1    2    0  501  0.19645179345E+01 -0.50364276567E+00 -0.33005946485E+02  0.33092573036E+02  0.12700000000E+01 0.  1.
<mgrwt>
<rscale>  0 0.23928825E+01</rscale>
<asrwt>0</asrwt>
<pdfrwt beam="1">0</pdfrwt>
<pdfrwt beam="2">0</pdfrwt>
<totfact> 0.12224137E+11</totfact>
</mgrwt>
</event>
<event>
 4    1  0.1735226E+006  0.2667339E+01  0.7546771E-02  0.2639057E+00
         22   -1    0    0    0    0  0.00000000000E+00  0.00000000000E+00  0.98375033424E+01  0.98375033424E+01  0.00000000000E+00 0. -1.
         22   -1    0    0    0    0 -0.00000000000E+00 -0.00000000000E+00 -0.51915264018E+01  0.51915264018E+01  0.00000000000E+00 0.  1.
          4    1    1    2  501    0  0.18665907103E+01  0.14204344272E+01  0.92944656547E+01  0.96696321878E+01  0.12700000000E+01 0. -1.
         -4    1    1    2    0  501 -0.18665907103E+01 -0.14204344272E+01 -0.46484887141E+01  0.53593975564E+01  0.12700000000E+01 0.  1.
<mgrwt>
<rscale>  0 0.26673385E+01</rscale>
<asrwt>0</asrwt>
<pdfrwt beam="1">0</pdfrwt>
<pdfrwt beam="2">0</pdfrwt>
<totfact> 0.23887909E+11</totfact>
</mgrwt>
</event>
<event>
 4    1  0.1735226E+006  0.2793811E+01  0.7546771E-02  0.2591648E+00
         22   -1    0    0    0    0  0.00000000000E+00  0.00000000000E+00  0.10393306109E+01  0.10393306109E+01  0.00000000000E+00 0.  1.
         22   -1    0    0    0    0 -0.00000000000E+00 -0.00000000000E+00 -0.76695286257E+01  0.76695286257E+01  0.00000000000E+00 0. -1.
          4    1    1    2  501    0  0.22407157417E+01  0.10824379535E+01 -0.39430970645E+01  0.48325348854E+01  0.12700000000E+01 0. -1.
         -4    1    1    2    0  501 -0.22407157417E+01 -0.10824379535E+01 -0.26871009503E+01  0.38763243512E+01  0.12700000000E+01 0.  1.
<mgrwt>
<rscale>  0 0.27938108E+01</rscale>
<asrwt>0</asrwt>
<pdfrwt beam="1">0</pdfrwt>
<pdfrwt beam="2">0</pdfrwt>
<totfact> 0.20905748E+12</totfact>
</mgrwt>
</event>
<event>
 4    1  0.1735226E+006  0.3003504E+01  0.7546771E-02  0.2521074E+00
         22   -1    0    0    0    0  0.00000000000E+00  0.00000000000E+00  0.52976645181E+00  0.52976645181E+00  0.00000000000E+00 0.  1.
         22   -1    0    0    0    0 -0.00000000000E+00 -0.00000000000E+00 -0.21896981110E+02  0.21896981110E+02  0.00000000000E+00 0. -1.
          4    1    1    2  501    0 -0.26865799187E+01 -0.43637562003E+00 -0.53961274849E+01  0.61756964931E+01  0.12700000000E+01 0.  1.
         -4    1    1    2    0  501  0.26865799187E+01  0.43637562003E+00 -0.15971087173E+02  0.16251051069E+02  0.12700000000E+01 0. -1.
<mgrwt>
<rscale>  0 0.30035038E+01</rscale>
<asrwt>0</asrwt>
<pdfrwt beam="1">0</pdfrwt>
<pdfrwt beam="2">0</pdfrwt>
<totfact> 0.12448006E+12</totfact>
</mgrwt>
</event>
<event>
 4    1  0.1735226E+006  0.2583414E+01  0.7546771E-02  0.2672860E+00
         22   -1    0    0    0    0  0.00000000000E+00  0.00000000000E+00  0.55608767618E+01  0.55608767618E+01  0.00000000000E+00 0. -1.
         22   -1    0    0    0    0 -0.00000000000E+00 -0.00000000000E+00 -0.13008030837E+01  0.13008030837E+01  0.00000000000E+00 0.  1.
          4    1    1    2  501    0  0.15754686147E+01  0.16059343618E+01  0.30842684233E+01  0.40232745665E+01  0.12700000000E+01 0. -1.
         -4    1    1    2    0  501 -0.15754686147E+01 -0.16059343618E+01  0.11758052549E+01  0.28384052790E+01  0.12700000000E+01 0. -1.
<mgrwt>
<rscale>  0 0.25834137E+01</rscale>
<asrwt>0</asrwt>
<pdfrwt beam="1">0</pdfrwt>
<pdfrwt beam="2">0</pdfrwt>
<totfact> 0.23731099E+12</totfact>
</mgrwt>
</event>
<event>
 4    1  0.1735226E+006  0.2165561E+01  0.7546771E-02  0.2877277E+00
         22   -1    0    0    0    0  0.00000000000E+00  0.00000000000E+00  0.15880045645E+01  0.15880045645E+01  0.00000000000E+00 0. -1.
         22   -1    0    0    0    0 -0.00000000000E+00 -0.00000000000E+00 -0.32220521627E+01  0.32220521627E+01  0.00000000000E+00 0.  1.
          4    1    1    2  501    0 -0.17314838935E+01 -0.28056708357E+00 -0.12226925658E+00  0.21690099430E+01  0.12700000000E+01 0. -1.
         -4    1    1    2    0  501  0.17314838935E+01  0.28056708357E+00 -0.15117783417E+01  0.26410467842E+01  0.12700000000E+01 0.  1.
<mgrwt>
<rscale>  0 0.21655610E+01</rscale>
<asrwt>0</asrwt>
<pdfrwt beam="1">0</pdfrwt>
<pdfrwt beam="2">0</pdfrwt>
<totfact> 0.35895946E+12</totfact>
</mgrwt>
</event>
<event>
 4    1  0.1735226E+006  0.2516936E+01  0.7546771E-02  0.2701110E+00
         22   -1    0    0    0    0  0.00000000000E+00  0.00000000000E+00  0.26128597820E+00  0.26128597820E+00  0.00000000000E+00 0.  1.
         22   -1    0    0    0    0 -0.00000000000E+00 -0.00000000000E+00 -0.24936546154E+02  0.24936546154E+02  0.00000000000E+00 0.  1.
          4    1    1    2  501    0  0.19882818689E+01 -0.87681474577E+00 -0.14435202754E+02  0.14652987662E+02  0.12700000000E+01 0.  1.
         -4    1    1    2    0  501 -0.19882818689E+01  0.87681474577E+00 -0.10240057422E+02  0.10544844470E+02  0.12700000000E+01 0.  1.
<mgrwt>
<rscale>  0 0.25169364E+01</rscale>
<asrwt>0</asrwt>
<pdfrwt beam="1">0</pdfrwt>
<pdfrwt beam="2">0</pdfrwt>
<totfact> 0.23406894E+12</totfact>
</mgrwt>
</event>
<event>
 4    1  0.1735226E+006  0.2705924E+01  0.7546771E-02  0.2624164E+00
         22   -1    0    0    0    0  0.00000000000E+00  0.00000000000E+00  0.23741061087E+01  0.23741061087E+01  0.00000000000E+00 0. -1.
         22   -1    0    0    0    0 -0.00000000000E+00 -0.00000000000E+00 -0.40069372906E+01  0.40069372906E+01  0.00000000000E+00 0.  1.
          4    1    1    2  501    0 -0.70559768878E+00  0.22828179309E+01  0.71471954341E+00  0.27987228927E+01  0.12700000000E+01 0. -1.
         -4    1    1    2    0  501  0.70559768878E+00 -0.22828179309E+01 -0.23475507253E+01  0.35823205066E+01  0.12700000000E+01 0.  1.
<mgrwt>
<rscale>  0 0.27059242E+01</rscale>
<asrwt>0</asrwt>
<pdfrwt beam="1">0</pdfrwt>
<pdfrwt beam="2">0</pdfrwt>
<totfact> 0.17455676E+12</totfact>
</mgrwt>
</event>
<event>
 4    1  0.1735226E+006  0.2038985E+01  0.7546771E-02  0.2954897E+00
         22   -1    0    0    0    0  0.00000000000E+00  0.00000000000E+00  0.31858406308E+00  0.31858406308E+00  0.00000000000E+00 0. -1.
         22   -1    0    0    0    0 -0.00000000000E+00 -0.00000000000E+00 -0.13255612138E+02  0.13255612138E+02  0.00000000000E+00 0. -1.
          4    1    1    2  501    0  0.13470452057E+01 -0.85441779655E+00 -0.56228219438E+01  0.59811025044E+01  0.12700000000E+01 0. -1.
         -4    1    1    2    0  501 -0.13470452057E+01  0.85441779655E+00 -0.73142061311E+01  0.75930936966E+01  0.12700000000E+01 0. -1.
<mgrwt>
<rscale>  0 0.20389852E+01</rscale>
<asrwt>0</asrwt>
<pdfrwt beam="1">0</pdfrwt>
<pdfrwt beam="2">0</pdfrwt>
<totfact> 0.41076615E+12</totfact>
</mgrwt>
</event>
<event>
 4    1  0.1735226E+006  0.2869610E+01  0.7546771E-02  0.2565062E+00
         22   -1    0    0    0    0  0.00000000000E+00  0.00000000000E+00  0.61304139444E+01  0.61304139444E+01  0.00000000000E+00 0.  1.
         22   -1    0    0    0    0 -0.00000000000E+00 -0.00000000000E+00 -0.26539064407E+01  0.26539064407E+01  0.00000000000E+00 0. -1.
          4    1    1    2  501    0  0.11059232980E+01 -0.23235088382E+01  0.48248534559E+01  0.56137216295E+01  0.12700000000E+01 0.  1.
         -4    1    1    2    0  501 -0.11059232980E+01  0.23235088382E+01 -0.13483459522E+01  0.31705987556E+01  0.12700000000E+01 0. -1.
<mgrwt>
<rscale>  0 0.28696097E+01</rscale>
<asrwt>0</asrwt>
<pdfrwt beam="1">0</pdfrwt>
<pdfrwt beam="2">0</pdfrwt>
<totfact> 0.92689867E+11</totfact>
</mgrwt>
</event>
<event>
 4    1  0.1735226E+006  0.4262692E+01  0.7546771E-02  0.2229727E+00
         22   -1    0    0    0    0  0.00000000000E+00  0.00000000000E+00  0.15978667876E+01  0.15978667876E+01  0.00000000000E+00 0.  1.
         22   -1    0    0    0    0 -0.00000000000E+00 -0.00000000000E+00 -0.14325972225E+02  0.14325972225E+02  0.00000000000E+00 0. -1.
          4    1    1    2  501    0  0.19320000032E+01 -0.35812037662E+01 -0.99796261192E+01  0.10851888403E+02  0.12700000000E+01 0. -1.
         -4    1    1    2    0  501 -0.19320000032E+01  0.35812037662E+01 -0.27484793185E+01  0.50719506101E+01  0.12700000000E+01 0.  1.
<mgrwt>
<rscale>  0 0.42626922E+01</rscale>
<asrwt>0</asrwt>
<pdfrwt beam="1">0</pdfrwt>
<pdfrwt beam="2">0</pdfrwt>
<totfact> 0.59803583E+11</totfact>
</mgrwt>
</event>
<event>
 4    1  0.1735226E+006  0.3685722E+01  0.7546771E-02  0.2341721E+00
         22   -1    0    0    0    0  0.00000000000E+00  0.00000000000E+00  0.68449297142E+02  0.68449297142E+02  0.00000000000E+00 0. -1.
         22   -1    0    0    0    0 -0.00000000000E+00 -0.00000000000E+00 -0.25492485642E+00  0.25492485642E+00  0.00000000000E+00 0.  1.
          4    1    1    2  501    0 -0.34596273344E+01 -0.51261215506E-01  0.50264234988E+02  0.50399185191E+02  0.12700000000E+01 0. -1.
         -4    1    1    2    0  501  0.34596273344E+01  0.51261215506E-01  0.17930137298E+02  0.18305036807E+02  0.12700000000E+01 0.  1.
<mgrwt>
<rscale>  0 0.36857223E+01</rscale>
<asrwt>0</asrwt>
<pdfrwt beam="1">0</pdfrwt>
<pdfrwt beam="2">0</pdfrwt>
<totfact> 0.64555524E+11</totfact>
</mgrwt>
</event>
<event>
 4    1  0.1735226E+006  0.2657121E+01  0.7546771E-02  0.2643067E+00
         22   -1    0    0    0    0  0.00000000000E+00  0.00000000000E+00  0.21897486905E+02  0.21897486905E+02  0.00000000000E+00 0. -1.
         22   -1    0    0    0    0 -0.00000000000E+00 -0.00000000000E+00 -0.38912419863E+00  0.38912419863E+00  0.00000000000E+00 0.  1.
          4    1    1    2  501    0  0.19361916958E+01 -0.13032863855E+01  0.61406789382E+01  0.66909066283E+01  0.12700000000E+01 0.  1.
         -4    1    1    2    0  501 -0.19361916958E+01  0.13032863855E+01  0.15367683768E+02  0.15595704476E+02  0.12700000000E+01 0. -1.
<mgrwt>
<rscale>  0 0.26571213E+01</rscale>
<asrwt>0</asrwt>
<pdfrwt beam="1">0</pdfrwt>
<pdfrwt beam="2">0</pdfrwt>
<totfact> 0.17627263E+12</totfact>
</mgrwt>
</event>
<event>
 4    1  0.1735226E+006  0.3603867E+01  0.7546771E-02  0.2360081E+00
         22   -1    0    0    0    0  0.00000000000E+00  0.00000000000E+00  0.24544148755E+02  0.24544148755E+02  0.00000000000E+00 0.  1.
         22   -1    0    0    0    0 -0.00000000000E+00 -0.00000000000E+00 -0.96025756093E+00  0.96025756093E+00  0.00000000000E+00 0.  1.
          4    1    1    2  501    0 -0.13170863750E+01  0.31048741591E+01  0.20336266106E+02  0.20653125168E+02  0.12700000000E+01 0.  1.
         -4    1    1    2    0  501  0.13170863750E+01 -0.31048741591E+01  0.32476250873E+01  0.48512811474E+01  0.12700000000E+01 0.  1.
<mgrwt>
<rscale>  0 0.36038674E+01</rscale>
<asrwt>0</asrwt>
<pdfrwt beam="1">0</pdfrwt>
<pdfrwt beam="2">0</pdfrwt>
<totfact> 0.54893728E+11</totfact>
</mgrwt>
</event>
<event>
 4    1  0.1735226E+006  0.2141934E+01  0.7546771E-02  0.2891091E+00
         22   -1    0    0    0    0  0.00000000000E+00  0.00000000000E+00  0.13062271948E+02  0.13062271948E+02  0.00000000000E+00 0.  1.
         22   -1    0    0    0    0 -0.00000000000E+00 -0.00000000000E+00 -0.42529836792E+00  0.42529836792E+00  0.00000000000E+00 0. -1.
          4    1    1    2  501    0  0.19268143182E-01  0.17247063191E+01  0.91327742709E+01  0.93805889491E+01  0.12700000000E+01 0.  1.
         -4    1    1    2    0  501 -0.19268143182E-01 -0.17247063191E+01  0.35041993088E+01  0.41069813664E+01  0.12700000000E+01 0. -1.
<mgrwt>
<rscale>  0 0.21419344E+01</rscale>
<asrwt>0</asrwt>
<pdfrwt beam="1">0</pdfrwt>
<pdfrwt beam="2">0</pdfrwt>
<totfact> 0.30223718E+12</totfact>
</mgrwt>
</event>
<event>
 4    1  0.1735226E+006  0.4209563E+01  0.7546771E-02  0.2238940E+00
         22   -1    0    0    0    0  0.00000000000E+00  0.00000000000E+00  0.36825376226E+01  0.36825376226E+01  0.00000000000E+00 0. -1.
         22   -1    0    0    0    0 -0.00000000000E+00 -0.00000000000E+00 -0.93164038541E+01  0.93164038541E+01  0.00000000000E+00 0.  1.
          4    1    1    2  501    0  0.13426590643E+01 -0.37821675132E+01  0.17023734339E+01  0.45407598229E+01  0.12700000000E+01 0. -1.
         -4    1    1    2    0  501 -0.13426590643E+01  0.37821675132E+01 -0.73362396654E+01  0.84581816538E+01  0.12700000000E+01 0.  1.
<mgrwt>
<rscale>  0 0.42095635E+01</rscale>
<asrwt>0</asrwt>
<pdfrwt beam="1">0</pdfrwt>
<pdfrwt beam="2">0</pdfrwt>
<totfact> 0.38256180E+11</totfact>
</mgrwt>
</event>
<event>
 4    1  0.1735226E+006  0.2652441E+01  0.7546771E-02  0.2644914E+00
         22   -1    0    0    0    0  0.00000000000E+00  0.00000000000E+00  0.74305862470E+00  0.74305862470E+00  0.00000000000E+00 0.  1.
         22   -1    0    0    0    0 -0.00000000000E+00 -0.00000000000E+00 -0.10079943837E+02  0.10079943837E+02  0.00000000000E+00 0. -1.
          4    1    1    2  501    0  0.20628614879E+01 -0.10803451690E+01 -0.33353322970E+01  0.42614416262E+01  0.12700000000E+01 0.  1.
         -4    1    1    2    0  501 -0.20628614879E+01  0.10803451690E+01 -0.60015529151E+01  0.65615608353E+01  0.12700000000E+01 0.  1.
<mgrwt>
<rscale>  0 0.26524410E+01</rscale>
<asrwt>0</asrwt>
<pdfrwt beam="1">0</pdfrwt>
<pdfrwt beam="2">0</pdfrwt>
<totfact> 0.22041782E+12</totfact>
</mgrwt>
</event>
<event>
 4    1  0.1735226E+006  0.2105409E+01  0.7546771E-02  0.2913035E+00
         22   -1    0    0    0    0  0.00000000000E+00  0.00000000000E+00  0.28941200252E+01  0.28941200252E+01  0.00000000000E+00 0.  1.
         22   -1    0    0    0    0 -0.00000000000E+00 -0.00000000000E+00 -0.18945158466E+01  0.18945158466E+01  0.00000000000E+00 0.  1.
          4    1    1    2  501    0 -0.35844390524E+00  0.16405382791E+01  0.15476835734E+01  0.26130580403E+01  0.12700000000E+01 0.  1.
         -4    1    1    2    0  501  0.35844390524E+00 -0.16405382791E+01 -0.54807939476E+00  0.21755778316E+01  0.12700000000E+01 0.  1.
<mgrwt>
<rscale>  0 0.21054092E+01</rscale>
<asrwt>0</asrwt>
<pdfrwt beam="1">0</pdfrwt>
<pdfrwt beam="2">0</pdfrwt>
<totfact> 0.33194671E+12</totfact>
</mgrwt>
</event>
<event>
 4    1  0.1735226E+006  0.2958681E+01  0.7546771E-02  0.2535401E+00
         22   -1    0    0    0    0  0.00000000000E+00  0.00000000000E+00  0.21153343347E+00  0.21153343347E+00  0.00000000000E+00 0.  1.
         22   -1    0    0    0    0 -0.00000000000E+00 -0.00000000000E+00 -0.56772997352E+02  0.56772997352E+02  0.00000000000E+00 0.  1.
          4    1    1    2  501    0 -0.14457057075E+01 -0.22474043814E+01 -0.13445928835E+02  0.13767599416E+02  0.12700000000E+01 0.  1.
         -4    1    1    2    0  501  0.14457057075E+01  0.22474043814E+01 -0.43115535083E+02  0.43216931369E+02  0.12700000000E+01 0.  1.
<mgrwt>
<rscale>  0 0.29586807E+01</rscale>
<asrwt>0</asrwt>
<pdfrwt beam="1">0</pdfrwt>
<pdfrwt beam="2">0</pdfrwt>
<totfact> 0.10222817E+12</totfact>
</mgrwt>
</event>
<event>
 4    1  0.1735226E+006  0.3249495E+01  0.7546771E-02  0.2448769E+00
         22   -1    0    0    0    0  0.00000000000E+00  0.00000000000E+00  0.17237691413E+01  0.17237691413E+01  0.00000000000E+00 0. -1.
         22   -1    0    0    0    0 -0.00000000000E+00 -0.00000000000E+00 -0.10006540334E+02  0.10006540334E+02  0.00000000000E+00 0.  1.
          4    1    1    2  501    0 -0.29430283625E+01 -0.53375939891E+00 -0.48877894604E+00  0.32860492839E+01  0.12700000000E+01 0. -1.
         -4    1    1    2    0  501  0.29430283625E+01  0.53375939891E+00 -0.77939922470E+01  0.84442601916E+01  0.12700000000E+01 0.  1.
<mgrwt>
<rscale>  0 0.32494946E+01</rscale>
<asrwt>0</asrwt>
<pdfrwt beam="1">0</pdfrwt>
<pdfrwt beam="2">0</pdfrwt>
<totfact> 0.84872931E+11</totfact>
</mgrwt>
</event>
<event>
 4    1  0.1735226E+006  0.2627104E+01  0.7546771E-02  0.2655015E+00
         22   -1    0    0    0    0  0.00000000000E+00  0.00000000000E+00  0.26729197310E+02  0.26729197310E+02  0.00000000000E+00 0.  1.
         22   -1    0    0    0    0 -0.00000000000E+00 -0.00000000000E+00 -0.12825726140E+01  0.12825726140E+01  0.00000000000E+00 0.  1.
          4    1    1    2  501    0 -0.16152907620E+01 -0.16369514745E+01  0.25240218669E+02  0.25376570155E+02  0.12700000000E+01 0.  1.
         -4    1    1    2    0  501  0.16152907620E+01  0.16369514745E+01  0.20640602723E+00  0.26351997692E+01  0.12700000000E+01 0.  1.
<mgrwt>
<rscale>  0 0.26271038E+01</rscale>
<asrwt>0</asrwt>
<pdfrwt beam="1">0</pdfrwt>
<pdfrwt beam="2">0</pdfrwt>
<totfact> 0.35393622E+11</totfact>
</mgrwt>
</event>
<event>
 4    1  0.1735226E+006  0.4623626E+01  0.7546771E-02  0.2171891E+00
         22   -1    0    0    0    0  0.00000000000E+00  0.00000000000E+00  0.27952027123E+02  0.27952027123E+02  0.00000000000E+00 0. -1.
         22   -1    0    0    0    0 -0.00000000000E+00 -0.00000000000E+00 -0.11304165352E+01  0.11304165352E+01  0.00000000000E+00 0.  1.
          4    1    1    2  501    0  0.17313486198E+01 -0.40948079459E+01  0.21680511964E+02  0.22168051767E+02  0.12700000000E+01 0. -1.
         -4    1    1    2    0  501 -0.17313486198E+01  0.40948079459E+01  0.51410986245E+01  0.69143918911E+01  0.12700000000E+01 0.  1.
<mgrwt>
<rscale>  0 0.46236263E+01</rscale>
<asrwt>0</asrwt>
<pdfrwt beam="1">0</pdfrwt>
<pdfrwt beam="2">0</pdfrwt>
<totfact> 0.38650019E+11</totfact>
</mgrwt>
</event>
<event>
 4    1  0.1735226E+006  0.3914083E+01  0.7546771E-02  0.2294025E+00
         22   -1    0    0    0    0  0.00000000000E+00  0.00000000000E+00  0.56886028095E+01  0.56886028095E+01  0.00000000000E+00 0. -1.
         22   -1    0    0    0    0 -0.00000000000E+00 -0.00000000000E+00 -0.28977267591E+01  0.28977267591E+01  0.00000000000E+00 0.  1.
          4    1    1    2  501    0  0.36985620827E+01 -0.16668058947E+00  0.25461722401E+00  0.39223556479E+01  0.12700000000E+01 0.  1.
         -4    1    1    2    0  501 -0.36985620827E+01  0.16668058947E+00  0.25362588264E+01  0.46639739207E+01  0.12700000000E+01 0. -1.
<mgrwt>
<rscale>  0 0.39140828E+01</rscale>
<asrwt>0</asrwt>
<pdfrwt beam="1">0</pdfrwt>
<pdfrwt beam="2">0</pdfrwt>
<totfact> 0.91448950E+11</totfact>
</mgrwt>
</event>
<event>
 4    1  0.1735226E+006  0.2052580E+01  0.7546771E-02  0.2946114E+00
         22   -1    0    0    0    0  0.00000000000E+00  0.00000000000E+00  0.73336365146E+01  0.73336365146E+01  0.00000000000E+00 0.  1.
         22   -1    0    0    0    0 -0.00000000000E+00 -0.00000000000E+00 -0.60604693785E+00  0.60604693785E+00  0.00000000000E+00 0. -1.
          4    1    1    2  501    0 -0.97985630087E+00  0.12806509067E+01  0.42696989276E+01  0.47374480523E+01  0.12700000000E+01 0.  1.
         -4    1    1    2    0  501  0.97985630087E+00 -0.12806509067E+01  0.24578906492E+01  0.32022354002E+01  0.12700000000E+01 0. -1.
<mgrwt>
<rscale>  0 0.20525801E+01</rscale>
<asrwt>0</asrwt>
<pdfrwt beam="1">0</pdfrwt>
<pdfrwt beam="2">0</pdfrwt>
<totfact> 0.40738151E+12</totfact>
</mgrwt>
</event>
<event>
 4    1  0.1735226E+006  0.2091486E+01  0.7546771E-02  0.2921595E+00
         22   -1    0    0    0    0  0.00000000000E+00  0.00000000000E+00  0.14593085391E+01  0.14593085391E+01  0.00000000000E+00 0. -1.
         22   -1    0    0    0    0 -0.00000000000E+00 -0.00000000000E+00 -0.30623559484E+01  0.30623559484E+01  0.00000000000E+00 0.  1.
          4    1    1    2  501    0  0.21334175697E+00  0.16479989698E+01 -0.47257491545E+00  0.21442113610E+01  0.12700000000E+01 0. -1.
         -4    1    1    2    0  501 -0.21334175697E+00 -0.16479989698E+01 -0.11304724938E+01  0.23774531266E+01  0.12700000000E+01 0.  1.
<mgrwt>
<rscale>  0 0.20914864E+01</rscale>
<asrwt>0</asrwt>
<pdfrwt beam="1">0</pdfrwt>
<pdfrwt beam="2">0</pdfrwt>
<totfact> 0.41985806E+12</totfact>
</mgrwt>
</event>
<event>
 4    1  0.1735226E+006  0.2835697E+01  0.7546771E-02  0.2576798E+00
         22   -1    0    0    0    0  0.00000000000E+00  0.00000000000E+00  0.47043172145E+00  0.47043172145E+00  0.00000000000E+00 0. -1.
         22   -1    0    0    0    0 -0.00000000000E+00 -0.00000000000E+00 -0.17913367461E+02  0.17913367461E+02  0.00000000000E+00 0.  1.
          4    1    1    2  501    0  0.39315613916E+00  0.25047363213E+01 -0.67546132402E+01  0.73257065061E+01  0.12700000000E+01 0. -1.
         -4    1    1    2    0  501 -0.39315613916E+00 -0.25047363213E+01 -0.10688322499E+02  0.11058092676E+02  0.12700000000E+01 0.  1.
<mgrwt>
<rscale>  0 0.28356967E+01</rscale>
<asrwt>0</asrwt>
<pdfrwt beam="1">0</pdfrwt>
<pdfrwt beam="2">0</pdfrwt>
<totfact> 0.18283083E+12</totfact>
</mgrwt>
</event>
<event>
 4    1  0.1735226E+006  0.2239481E+01  0.7546771E-02  0.2835867E+00
         22   -1    0    0    0    0  0.00000000000E+00  0.00000000000E+00  0.35134502030E+02  0.35134502030E+02  0.00000000000E+00 0.  1.
         22   -1    0    0    0    0 -0.00000000000E+00 -0.00000000000E+00 -0.14499785392E+00  0.14499785392E+00  0.00000000000E+00 0. -1.
          4    1    1    2  501    0  0.13475288424E+01  0.12595804044E+01  0.15296022163E+02  0.15459093466E+02  0.12700000000E+01 0. -1.
         -4    1    1    2    0  501 -0.13475288424E+01 -0.12595804044E+01  0.19693482013E+02  0.19820406418E+02  0.12700000000E+01 0.  1.
<mgrwt>
<rscale>  0 0.22394814E+01</rscale>
<asrwt>0</asrwt>
<pdfrwt beam="1">0</pdfrwt>
<pdfrwt beam="2">0</pdfrwt>
<totfact> 0.29168819E+12</totfact>
</mgrwt>
</event>
<event>
 4    1  0.1735226E+006  0.3574971E+01  0.7546771E-02  0.2366736E+00
         22   -1    0    0    0    0  0.00000000000E+00  0.00000000000E+00  0.31917712108E+02  0.31917712108E+02  0.00000000000E+00 0. -1.
         22   -1    0    0    0    0 -0.00000000000E+00 -0.00000000000E+00 -0.42298109760E+00  0.42298109760E+00  0.00000000000E+00 0.  1.
          4    1    1    2  501    0  0.26128617165E+01  0.20833797439E+01  0.12012620926E+02  0.12533294819E+02  0.12700000000E+01 0.  1.
         -4    1    1    2    0  501 -0.26128617165E+01 -0.20833797439E+01  0.19482110085E+02  0.19807398387E+02  0.12700000000E+01 0. -1.
<mgrwt>
<rscale>  0 0.35749710E+01</rscale>
<asrwt>0</asrwt>
<pdfrwt beam="1">0</pdfrwt>
<pdfrwt beam="2">0</pdfrwt>
<totfact> 0.99615493E+11</totfact>
</mgrwt>
</event>
<event>
 4    1  0.1735226E+006  0.2580767E+01  0.7546771E-02  0.2673959E+00
         22   -1    0    0    0    0  0.00000000000E+00  0.00000000000E+00  0.91651789336E+00  0.91651789336E+00  0.00000000000E+00 0. -1.
         22   -1    0    0    0    0 -0.00000000000E+00 -0.00000000000E+00 -0.75756170016E+01  0.75756170016E+01  0.00000000000E+00 0. -1.
          4    1    1    2  501    0  0.16475671913E+01  0.15274091655E+01 -0.24725673988E+01  0.35740657451E+01  0.12700000000E+01 0. -1.
         -4    1    1    2    0  501 -0.16475671913E+01 -0.15274091655E+01 -0.41865317094E+01  0.49180691498E+01  0.12700000000E+01 0. -1.
<mgrwt>
<rscale>  0 0.25807666E+01</rscale>
<asrwt>0</asrwt>
<pdfrwt beam="1">0</pdfrwt>
<pdfrwt beam="2">0</pdfrwt>
<totfact> 0.24491672E+12</totfact>
</mgrwt>
</event>
<event>
 4    1  0.1735226E+006  0.2340952E+01  0.7546771E-02  0.2783092E+00
         22   -1    0    0    0    0  0.00000000000E+00  0.00000000000E+00  0.16429169172E+01  0.16429169172E+01  0.00000000000E+00 0. -1.
         22   -1    0    0    0    0 -0.00000000000E+00 -0.00000000000E+00 -0.35325723760E+01  0.35325723760E+01  0.00000000000E+00 0.  1.
          4    1    1    2  501    0  0.24224682730E+00 -0.19515304714E+01 -0.15559359246E+01  0.28108702047E+01  0.12700000000E+01 0.  1.
         -4    1    1    2    0  501 -0.24224682730E+00  0.19515304714E+01 -0.33371953420E+00  0.23646190885E+01  0.12700000000E+01 0. -1.
<mgrwt>
<rscale>  0 0.23409517E+01</rscale>
<asrwt>0</asrwt>
<pdfrwt beam="1">0</pdfrwt>
<pdfrwt beam="2">0</pdfrwt>
<totfact> 0.30990636E+12</totfact>
</mgrwt>
</event>
<event>
 4    1  0.1735226E+006  0.2528048E+01  0.7546771E-02  0.2696292E+00
         22   -1    0    0    0    0  0.00000000000E+00  0.00000000000E+00  0.88024416712E+01  0.88024416712E+01  0.00000000000E+00 0. -1.
         22   -1    0    0    0    0 -0.00000000000E+00 -0.00000000000E+00 -0.73933270854E+00  0.73933270854E+00  0.00000000000E+00 0.  1.
          4    1    1    2  501    0 -0.13507396743E+01  0.17186121527E+01  0.46709933953E+01  0.53112338207E+01  0.12700000000E+01 0. -1.
         -4    1    1    2    0  501  0.13507396743E+01 -0.17186121527E+01  0.33921155673E+01  0.42305405590E+01  0.12700000000E+01 0.  1.
<mgrwt>
<rscale>  0 0.25280477E+01</rscale>
<asrwt>0</asrwt>
<pdfrwt beam="1">0</pdfrwt>
<pdfrwt beam="2">0</pdfrwt>
<totfact> 0.26111834E+12</totfact>
</mgrwt>
</event>
<event>
 4    1  0.1735226E+006  0.2461622E+01  0.7546771E-02  0.2725695E+00
         22   -1    0    0    0    0  0.00000000000E+00  0.00000000000E+00  0.67308245757E+01  0.67308245757E+01  0.00000000000E+00 0.  1.
         22   -1    0    0    0    0 -0.00000000000E+00 -0.00000000000E+00 -0.13213315891E+01  0.13213315891E+01  0.00000000000E+00 0.  1.
          4    1    1    2  501    0  0.15359525818E+01 -0.14448298313E+01  0.49774733705E+01  0.55529113741E+01  0.12700000000E+01 0.  1.
         -4    1    1    2    0  501 -0.15359525818E+01  0.14448298313E+01  0.43201961610E+00  0.24992447906E+01  0.12700000000E+01 0.  1.
<mgrwt>
<rscale>  0 0.24616221E+01</rscale>
<asrwt>0</asrwt>
<pdfrwt beam="1">0</pdfrwt>
<pdfrwt beam="2">0</pdfrwt>
<totfact> 0.18566765E+12</totfact>
</mgrwt>
</event>
<event>
 4    1  0.1735226E+006  0.2030260E+01  0.7546771E-02  0.2960594E+00
         22   -1    0    0    0    0  0.00000000000E+00  0.00000000000E+00  0.59495264664E+02  0.59495264664E+02  0.00000000000E+00 0.  1.
         22   -1    0    0    0    0 -0.00000000000E+00 -0.00000000000E+00 -0.12804810683E+00  0.12804810683E+00  0.00000000000E+00 0.  1.
          4    1    1    2  501    0 -0.51191475436E+00 -0.14989996893E+01  0.49879480870E+02  0.49920782933E+02  0.12700000000E+01 0.  1.
         -4    1    1    2    0  501  0.51191475436E+00  0.14989996893E+01  0.94877356875E+01  0.97025298382E+01  0.12700000000E+01 0.  1.
<mgrwt>
<rscale>  0 0.20302603E+01</rscale>
<asrwt>0</asrwt>
<pdfrwt beam="1">0</pdfrwt>
<pdfrwt beam="2">0</pdfrwt>
<totfact> 0.16788380E+12</totfact>
</mgrwt>
</event>
<event>
 4    1  0.1735226E+006  0.3373292E+01  0.7546771E-02  0.2415934E+00
         22   -1    0    0    0    0  0.00000000000E+00  0.00000000000E+00  0.17263045252E+02  0.17263045252E+02  0.00000000000E+00 0.  1.
         22   -1    0    0    0    0 -0.00000000000E+00 -0.00000000000E+00 -0.14173022340E+01  0.14173022340E+01  0.00000000000E+00 0. -1.
          4    1    1    2  501    0 -0.25760145395E+01 -0.17692783841E+01  0.14754107104E+02  0.15134819898E+02  0.12700000000E+01 0.  1.
         -4    1    1    2    0  501  0.25760145395E+01  0.17692783841E+01  0.10916359137E+01  0.35455275878E+01  0.12700000000E+01 0. -1.
<mgrwt>
<rscale>  0 0.33732917E+01</rscale>
<asrwt>0</asrwt>
<pdfrwt beam="1">0</pdfrwt>
<pdfrwt beam="2">0</pdfrwt>
<totfact> 0.54547243E+11</totfact>
</mgrwt>
</event>
<event>
 4    1  0.1735226E+006  0.2412511E+01  0.7546771E-02  0.2748405E+00
         22   -1    0    0    0    0  0.00000000000E+00  0.00000000000E+00  0.56060584302E+01  0.56060584302E+01  0.00000000000E+00 0. -1.
         22   -1    0    0    0    0 -0.00000000000E+00 -0.00000000000E+00 -0.10929179593E+01  0.10929179593E+01  0.00000000000E+00 0. -1.
          4    1    1    2  501    0  0.11641961885E+01 -0.16887730347E+01  0.30060355731E+01  0.38544074765E+01  0.12700000000E+01 0. -1.
         -4    1    1    2    0  501 -0.11641961885E+01  0.16887730347E+01  0.15071048978E+01  0.28445689130E+01  0.12700000000E+01 0. -1.
<mgrwt>
<rscale>  0 0.24125105E+01</rscale>
<asrwt>0</asrwt>
<pdfrwt beam="1">0</pdfrwt>
<pdfrwt beam="2">0</pdfrwt>
<totfact> 0.28692778E+12</totfact>
</mgrwt>
</event>
<event>
 4    1  0.1735226E+006  0.2293738E+01  0.7546771E-02  0.2807096E+00
         22   -1    0    0    0    0  0.00000000000E+00  0.00000000000E+00  0.58703247195E-01  0.58703247195E-01  0.00000000000E+00 0.  1.
         22   -1    0    0    0    0 -0.00000000000E+00 -0.00000000000E+00 -0.92470393157E+02  0.92470393157E+02  0.00000000000E+00 0. -1.
          4    1    1    2  501    0 -0.17363900417E+01  0.79579147827E+00 -0.54322468561E+02  0.54370872947E+02  0.12700000000E+01 0.  1.
         -4    1    1    2    0  501  0.17363900417E+01 -0.79579147827E+00 -0.38089221349E+02  0.38158223457E+02  0.12700000000E+01 0. -1.
<mgrwt>
<rscale>  0 0.22937381E+01</rscale>
<asrwt>0</asrwt>
<pdfrwt beam="1">0</pdfrwt>
<pdfrwt beam="2">0</pdfrwt>
<totfact> 0.21779391E+12</totfact>
</mgrwt>
</event>
<event>
 4    1  0.1735226E+006  0.2869509E+01  0.7546771E-02  0.2565097E+00
         22   -1    0    0    0    0  0.00000000000E+00  0.00000000000E+00  0.12050338190E+02  0.12050338190E+02  0.00000000000E+00 0.  1.
         22   -1    0    0    0    0 -0.00000000000E+00 -0.00000000000E+00 -0.12702077662E+01  0.12702077662E+01  0.00000000000E+00 0. -1.
          4    1    1    2  501    0 -0.16731445912E+01 -0.19549349444E+01  0.99173403945E+01  0.10324133085E+02  0.12700000000E+01 0.  1.
         -4    1    1    2    0  501  0.16731445912E+01  0.19549349444E+01  0.86279002951E+00  0.29964128713E+01  0.12700000000E+01 0. -1.
<mgrwt>
<rscale>  0 0.28695093E+01</rscale>
<asrwt>0</asrwt>
<pdfrwt beam="1">0</pdfrwt>
<pdfrwt beam="2">0</pdfrwt>
<totfact> 0.96210904E+11</totfact>
</mgrwt>
</event>
<event>
 4    1  0.1735226E+006  0.2725840E+01  0.7546771E-02  0.2616628E+00
         22   -1    0    0    0    0  0.00000000000E+00  0.00000000000E+00  0.45863225227E+01  0.45863225227E+01  0.00000000000E+00 0. -1.
         22   -1    0    0    0    0 -0.00000000000E+00 -0.00000000000E+00 -0.96362414530E+01  0.96362414530E+01  0.00000000000E+00 0.  1.
          4    1    1    2  501    0 -0.16696094246E+00  0.24061226031E+01  0.39610463763E+01  0.48083355054E+01  0.12700000000E+01 0. -1.
         -4    1    1    2    0  501  0.16696094246E+00 -0.24061226031E+01 -0.90109653065E+01  0.94142284704E+01  0.12700000000E+01 0.  1.
<mgrwt>
<rscale>  0 0.27258397E+01</rscale>
<asrwt>0</asrwt>
<pdfrwt beam="1">0</pdfrwt>
<pdfrwt beam="2">0</pdfrwt>
<totfact> 0.28361604E+11</totfact>
</mgrwt>
</event>
<event>
 4    1  0.1735226E+006  0.2065862E+01  0.7546771E-02  0.2937643E+00
         22   -1    0    0    0    0  0.00000000000E+00  0.00000000000E+00  0.94673649984E+01  0.94673649984E+01  0.00000000000E+00 0. -1.
         22   -1    0    0    0    0 -0.00000000000E+00 -0.00000000000E+00 -0.86336560899E+00  0.86336560899E+00  0.00000000000E+00 0.  1.
          4    1    1    2  501    0  0.33601634107E+00  0.15943588205E+01  0.78727197354E+01  0.81392569109E+01  0.12700000000E+01 0. -1.
         -4    1    1    2    0  501 -0.33601634107E+00 -0.15943588205E+01  0.73127965402E+00  0.21914736965E+01  0.12700000000E+01 0.  1.
<mgrwt>
<rscale>  0 0.20658623E+01</rscale>
<asrwt>0</asrwt>
<pdfrwt beam="1">0</pdfrwt>
<pdfrwt beam="2">0</pdfrwt>
<totfact> 0.20045257E+12</totfact>
</mgrwt>
</event>
<event>
 4    1  0.1735226E+006  0.2393018E+01  0.7546771E-02  0.2757660E+00
         22   -1    0    0    0    0  0.00000000000E+00  0.00000000000E+00  0.21722843829E+00  0.21722843829E+00  0.00000000000E+00 0. -1.
         22   -1    0    0    0    0 -0.00000000000E+00 -0.00000000000E+00 -0.65770108925E+02  0.65770108925E+02  0.00000000000E+00 0. -1.
          4    1    1    2  501    0  0.16049468382E+01 -0.12400722991E+01 -0.72370689413E+01  0.76224471479E+01  0.12700000000E+01 0. -1.
         -4    1    1    2    0  501 -0.16049468382E+01  0.12400722991E+01 -0.58315811545E+02  0.58364890215E+02  0.12700000000E+01 0. -1.
<mgrwt>
<rscale>  0 0.23930177E+01</rscale>
<asrwt>0</asrwt>
<pdfrwt beam="1">0</pdfrwt>
<pdfrwt beam="2">0</pdfrwt>
<totfact> 0.81475510E+11</totfact>
</mgrwt>
</event>
<event>
 4    1  0.1735226E+006  0.4180274E+01  0.7546771E-02  0.2244104E+00
         22   -1    0    0    0    0  0.00000000000E+00  0.00000000000E+00  0.19136345401E+01  0.19136345401E+01  0.00000000000E+00 0. -1.
         22   -1    0    0    0    0 -0.00000000000E+00 -0.00000000000E+00 -0.39606112294E+02  0.39606112294E+02  0.00000000000E+00 0.  1.
          4    1    1    2  501    0  0.27461471432E+01 -0.28845222491E+01 -0.63617679669E+00  0.42284055688E+01  0.12700000000E+01 0. -1.
         -4    1    1    2    0  501 -0.27461471432E+01  0.28845222491E+01 -0.37056300957E+02  0.37291341265E+02  0.12700000000E+01 0.  1.
<mgrwt>
<rscale>  0 0.41802742E+01</rscale>
<asrwt>0</asrwt>
<pdfrwt beam="1">0</pdfrwt>
<pdfrwt beam="2">0</pdfrwt>
<totfact> 0.13491252E+11</totfact>
</mgrwt>
</event>
<event>
 4    1  0.1735226E+006  0.4148726E+01  0.7546771E-02  0.2249736E+00
         22   -1    0    0    0    0  0.00000000000E+00  0.00000000000E+00  0.86188535348E+00  0.86188535348E+00  0.00000000000E+00 0. -1.
         22   -1    0    0    0    0 -0.00000000000E+00 -0.00000000000E+00 -0.28308032902E+02  0.28308032902E+02  0.00000000000E+00 0.  1.
          4    1    1    2  501    0  0.61078742144E+00 -0.39020463227E+01 -0.58075461617E+01  0.71371926693E+01  0.12700000000E+01 0. -1.
         -4    1    1    2    0  501 -0.61078742144E+00  0.39020463227E+01 -0.21638601387E+02  0.22032725586E+02  0.12700000000E+01 0.  1.
<mgrwt>
<rscale>  0 0.41487259E+01</rscale>
<asrwt>0</asrwt>
<pdfrwt beam="1">0</pdfrwt>
<pdfrwt beam="2">0</pdfrwt>
<totfact> 0.51838464E+11</totfact>
</mgrwt>
</event>
<event>
 4    1  0.1735226E+006  0.2282223E+01  0.7546771E-02  0.2813093E+00
         22   -1    0    0    0    0  0.00000000000E+00  0.00000000000E+00  0.10646068276E+00  0.10646068276E+00  0.00000000000E+00 0.  1.
         22   -1    0    0    0    0 -0.00000000000E+00 -0.00000000000E+00 -0.50680834520E+02  0.50680834520E+02  0.00000000000E+00 0. -1.
          4    1    1    2  501    0  0.32254567284E+00 -0.18685841428E+01 -0.20560041034E+02  0.20686319869E+02  0.12700000000E+01 0.  1.
         -4    1    1    2    0  501 -0.32254567284E+00  0.18685841428E+01 -0.30014332803E+02  0.30100975333E+02  0.12700000000E+01 0. -1.
<mgrwt>
<rscale>  0 0.22822231E+01</rscale>
<asrwt>0</asrwt>
<pdfrwt beam="1">0</pdfrwt>
<pdfrwt beam="2">0</pdfrwt>
<totfact> 0.25496527E+12</totfact>
</mgrwt>
</event>
<event>
 4    1  0.1735226E+006  0.2345868E+01  0.7546771E-02  0.2780646E+00
         22   -1    0    0    0    0  0.00000000000E+00  0.00000000000E+00  0.43659407108E-01  0.43659407108E-01  0.00000000000E+00 0.  1.
         22   -1    0    0    0    0 -0.00000000000E+00 -0.00000000000E+00 -0.15678685168E+03  0.15678685168E+03  0.00000000000E+00 0.  1.
          4    1    1    2  501    0  0.88944230607E-01  0.19703514705E+01 -0.43649710091E+02  0.43712701667E+02  0.12700000000E+01 0.  1.
         -4    1    1    2    0  501 -0.88944230607E-01 -0.19703514705E+01 -0.11309348218E+03  0.11311780942E+03  0.12700000000E+01 0.  1.
<mgrwt>
<rscale>  0 0.23458679E+01</rscale>
<asrwt>0</asrwt>
<pdfrwt beam="1">0</pdfrwt>
<pdfrwt beam="2">0</pdfrwt>
<totfact> 0.14086405E+12</totfact>
</mgrwt>
</event>
<event>
 4    1  0.1735226E+006  0.2093017E+01  0.7546771E-02  0.2920649E+00
         22   -1    0    0    0    0  0.00000000000E+00  0.00000000000E+00  0.62341923038E+01  0.62341923038E+01  0.00000000000E+00 0.  1.
         22   -1    0    0    0    0 -0.00000000000E+00 -0.00000000000E+00 -0.16342127602E+01  0.16342127602E+01  0.00000000000E+00 0.  1.
          4    1    1    2  501    0 -0.91880354417E+00 -0.13869464418E+01  0.52702777646E+01  0.56706743957E+01  0.12700000000E+01 0.  1.
         -4    1    1    2    0  501  0.91880354417E+00  0.13869464418E+01 -0.67029822101E+00  0.21977306683E+01  0.12700000000E+01 0.  1.
<mgrwt>
<rscale>  0 0.20930171E+01</rscale>
<asrwt>0</asrwt>
<pdfrwt beam="1">0</pdfrwt>
<pdfrwt beam="2">0</pdfrwt>
<totfact> 0.15932010E+12</totfact>
</mgrwt>
</event>
<event>
 4    1  0.1735226E+006  0.2394583E+01  0.7546771E-02  0.2756912E+00
         22   -1    0    0    0    0  0.00000000000E+00  0.00000000000E+00  0.52263310122E+00  0.52263310122E+00  0.00000000000E+00 0. -1.
         22   -1    0    0    0    0 -0.00000000000E+00 -0.00000000000E+00 -0.12905950889E+02  0.12905950889E+02  0.00000000000E+00 0.  1.
          4    1    1    2  501    0 -0.11243628837E+01  0.16902474357E+01 -0.35921408672E+01  0.43171175914E+01  0.12700000000E+01 0. -1.
         -4    1    1    2    0  501  0.11243628837E+01 -0.16902474357E+01 -0.87911769209E+01  0.91114663992E+01  0.12700000000E+01 0.  1.
<mgrwt>
<rscale>  0 0.23945831E+01</rscale>
<asrwt>0</asrwt>
<pdfrwt beam="1">0</pdfrwt>
<pdfrwt beam="2">0</pdfrwt>
<totfact> 0.24309642E+12</totfact>
</mgrwt>
</event>
<event>
 4    1  0.1735226E+006  0.2029063E+01  0.7546771E-02  0.2961379E+00
         22   -1    0    0    0    0  0.00000000000E+00  0.00000000000E+00  0.21830525264E+01  0.21830525264E+01  0.00000000000E+00 0.  1.
         22   -1    0    0    0    0 -0.00000000000E+00 -0.00000000000E+00 -0.19698973037E+01  0.19698973037E+01  0.00000000000E+00 0. -1.
          4    1    1    2  501    0  0.68331512779E+00  0.14273324248E+01  0.53526865015E+00  0.20984780062E+01  0.12700000000E+01 0.  1.
         -4    1    1    2    0  501 -0.68331512779E+00 -0.14273324248E+01 -0.32211342746E+00  0.20544718238E+01  0.12700000000E+01 0.  1.
<mgrwt>
<rscale>  0 0.20290632E+01</rscale>
<asrwt>0</asrwt>
<pdfrwt beam="1">0</pdfrwt>
<pdfrwt beam="2">0</pdfrwt>
<totfact> 0.44046975E+12</totfact>
</mgrwt>
</event>
<event>
 4    1  0.1735226E+006  0.2083679E+01  0.7546771E-02  0.2926444E+00
         22   -1    0    0    0    0  0.00000000000E+00  0.00000000000E+00  0.44311714567E+01  0.44311714567E+01  0.00000000000E+00 0. -1.
         22   -1    0    0    0    0 -0.00000000000E+00 -0.00000000000E+00 -0.10430222060E+01  0.10430222060E+01  0.00000000000E+00 0.  1.
          4    1    1    2  501    0 -0.16376337272E+01 -0.21673862311E+00  0.23678780250E+01  0.31541347778E+01  0.12700000000E+01 0.  1.
         -4    1    1    2    0  501  0.16376337272E+01  0.21673862311E+00  0.10202712257E+01  0.23200588849E+01  0.12700000000E+01 0.  1.
<mgrwt>
<rscale>  0 0.20836794E+01</rscale>
<asrwt>0</asrwt>
<pdfrwt beam="1">0</pdfrwt>
<pdfrwt beam="2">0</pdfrwt>
<totfact> 0.39982893E+12</totfact>
</mgrwt>
</event>
<event>
 4    1  0.1735226E+006  0.3950232E+01  0.7546771E-02  0.2286910E+00
         22   -1    0    0    0    0  0.00000000000E+00  0.00000000000E+00  0.77987967341E+00  0.77987967341E+00  0.00000000000E+00 0.  1.
         22   -1    0    0    0    0 -0.00000000000E+00 -0.00000000000E+00 -0.29208683793E+02  0.29208683793E+02  0.00000000000E+00 0. -1.
          4    1    1    2  501    0  0.27497128362E+01  0.25358453636E+01 -0.57991990505E+01  0.70167686308E+01  0.12700000000E+01 0.  1.
         -4    1    1    2    0  501 -0.27497128362E+01 -0.25358453636E+01 -0.22629605069E+02  0.22971794835E+02  0.12700000000E+01 0.  1.
<mgrwt>
<rscale>  0 0.39502319E+01</rscale>
<asrwt>0</asrwt>
<pdfrwt beam="1">0</pdfrwt>
<pdfrwt beam="2">0</pdfrwt>
<totfact> 0.55818341E+11</totfact>
</mgrwt>
</event>
<event>
 4    1  0.1735226E+006  0.3071973E+01  0.7546771E-02  0.2499914E+00
         22   -1    0    0    0    0  0.00000000000E+00  0.00000000000E+00  0.66714715641E+01  0.66714715641E+01  0.00000000000E+00 0.  1.
         22   -1    0    0    0    0 -0.00000000000E+00 -0.00000000000E+00 -0.55564988115E+01  0.55564988115E+01  0.00000000000E+00 0. -1.
          4    1    1    2  501    0 -0.13866522075E+01 -0.24292624447E+01  0.58361865526E+01  0.65953084725E+01  0.12700000000E+01 0.  1.
         -4    1    1    2    0  501  0.13866522075E+01  0.24292624447E+01 -0.47212138000E+01  0.56326619031E+01  0.12700000000E+01 0. -1.
<mgrwt>
<rscale>  0 0.30719734E+01</rscale>
<asrwt>0</asrwt>
<pdfrwt beam="1">0</pdfrwt>
<pdfrwt beam="2">0</pdfrwt>
<totfact> 0.35149169E+11</totfact>
</mgrwt>
</event>
<event>
 4    1  0.1735226E+006  0.2171326E+01  0.7546771E-02  0.2873950E+00
         22   -1    0    0    0    0  0.00000000000E+00  0.00000000000E+00  0.61669488362E+01  0.61669488362E+01  0.00000000000E+00 0. -1.
         22   -1    0    0    0    0 -0.00000000000E+00 -0.00000000000E+00 -0.76450426523E+00  0.76450426523E+00  0.00000000000E+00 0.  1.
          4    1    1    2  501    0 -0.13516404624E+01  0.11290810752E+01  0.26986119104E+01  0.34636919980E+01  0.12700000000E+01 0. -1.
         -4    1    1    2    0  501  0.13516404624E+01 -0.11290810752E+01  0.27038326606E+01  0.34677611035E+01  0.12700000000E+01 0.  1.
<mgrwt>
<rscale>  0 0.21713259E+01</rscale>
<asrwt>0</asrwt>
<pdfrwt beam="1">0</pdfrwt>
<pdfrwt beam="2">0</pdfrwt>
<totfact> 0.38499703E+12</totfact>
</mgrwt>
</event>
<event>
 4    1  0.1735226E+006  0.5548076E+01  0.7546771E-02  0.2062756E+00
         22   -1    0    0    0    0  0.00000000000E+00  0.00000000000E+00  0.20088734027E+02  0.20088734027E+02  0.00000000000E+00 0.  1.
         22   -1    0    0    0    0 -0.00000000000E+00 -0.00000000000E+00 -0.19030977318E+01  0.19030977318E+01  0.00000000000E+00 0. -1.
          4    1    1    2  501    0  0.20115750383E+01  0.50121663032E+01  0.13946746457E+02  0.15009759556E+02  0.12700000000E+01 0.  1.
         -4    1    1    2    0  501 -0.20115750383E+01 -0.50121663032E+01  0.42388898377E+01  0.69820722026E+01  0.12700000000E+01 0. -1.
<mgrwt>
<rscale>  0 0.55480758E+01</rscale>
<asrwt>0</asrwt>
<pdfrwt beam="1">0</pdfrwt>
<pdfrwt beam="2">0</pdfrwt>
<totfact> 0.32166971E+11</totfact>
</mgrwt>
</event>
<event>
 4    1  0.1735226E+006  0.2844613E+01  0.7546771E-02  0.2573688E+00
         22   -1    0    0    0    0  0.00000000000E+00  0.00000000000E+00  0.33647255363E+01  0.33647255363E+01  0.00000000000E+00 0.  1.
         22   -1    0    0    0    0 -0.00000000000E+00 -0.00000000000E+00 -0.25370821612E+01  0.25370821612E+01  0.00000000000E+00 0. -1.
          4    1    1    2  501    0 -0.25427056811E+01  0.11649105900E+00  0.10873830904E+01  0.30453611170E+01  0.12700000000E+01 0. -1.
         -4    1    1    2    0  501  0.25427056811E+01 -0.11649105900E+00 -0.25973971520E+00  0.28564465805E+01  0.12700000000E+01 0. -1.
<mgrwt>
<rscale>  0 0.28446129E+01</rscale>
<asrwt>0</asrwt>
<pdfrwt beam="1">0</pdfrwt>
<pdfrwt beam="2">0</pdfrwt>
<totfact> 0.19837430E+12</totfact>
</mgrwt>
</event>
<event>
 4    1  0.1735226E+006  0.2495973E+01  0.7546771E-02  0.2710308E+00
         22   -1    0    0    0    0  0.00000000000E+00  0.00000000000E+00  0.24932549747E+00  0.24932549747E+00  0.00000000000E+00 0. -1.
         22   -1    0    0    0    0 -0.00000000000E+00 -0.00000000000E+00 -0.54496594749E+02  0.54496594749E+02  0.00000000000E+00 0.  1.
          4    1    1    2  501    0 -0.19114066373E+01 -0.98158307567E+00 -0.69808660511E+01  0.74136611394E+01  0.12700000000E+01 0. -1.
         -4    1    1    2    0  501  0.19114066373E+01  0.98158307567E+00 -0.47266403201E+02  0.47332259107E+02  0.12700000000E+01 0.  1.
<mgrwt>
<rscale>  0 0.24959729E+01</rscale>
<asrwt>0</asrwt>
<pdfrwt beam="1">0</pdfrwt>
<pdfrwt beam="2">0</pdfrwt>
<totfact> 0.89830894E+11</totfact>
</mgrwt>
</event>
<event>
 4    1  0.1735226E+006  0.2182082E+01  0.7546771E-02  0.2867788E+00
         22   -1    0    0    0    0  0.00000000000E+00  0.00000000000E+00  0.16004127903E+00  0.16004127903E+00  0.00000000000E+00 0.  1.
         22   -1    0    0    0    0 -0.00000000000E+00 -0.00000000000E+00 -0.57989763683E+02  0.57989763683E+02  0.00000000000E+00 0. -1.
          4    1    1    2  501    0  0.14164083493E+01  0.10688173264E+01 -0.86258504484E+01  0.88975715252E+01  0.12700000000E+01 0.  1.
         -4    1    1    2    0  501 -0.14164083493E+01 -0.10688173264E+01 -0.49203871955E+02  0.49252233436E+02  0.12700000000E+01 0.  1.
<mgrwt>
<rscale>  0 0.21820823E+01</rscale>
<asrwt>0</asrwt>
<pdfrwt beam="1">0</pdfrwt>
<pdfrwt beam="2">0</pdfrwt>
<totfact> 0.13560255E+12</totfact>
</mgrwt>
</event>
<event>
 4    1  0.1735226E+006  0.2838115E+01  0.7546771E-02  0.2575952E+00
         22   -1    0    0    0    0  0.00000000000E+00  0.00000000000E+00  0.18495192134E+01  0.18495192134E+01  0.00000000000E+00 0. -1.
         22   -1    0    0    0    0 -0.00000000000E+00 -0.00000000000E+00 -0.52520161252E+01  0.52520161252E+01  0.00000000000E+00 0.  1.
          4    1    1    2  501    0  0.98312726861E+00  0.23399692165E+01 -0.23391751890E+00  0.28477381491E+01  0.12700000000E+01 0. -1.
         -4    1    1    2    0  501 -0.98312726861E+00 -0.23399692165E+01 -0.31685793929E+01  0.42537971895E+01  0.12700000000E+01 0. -1.
<mgrwt>
<rscale>  0 0.28381147E+01</rscale>
<asrwt>0</asrwt>
<pdfrwt beam="1">0</pdfrwt>
<pdfrwt beam="2">0</pdfrwt>
<totfact> 0.16934793E+12</totfact>
</mgrwt>
</event>
<event>
 4    1  0.1735226E+006  0.2736140E+01  0.7546771E-02  0.2612770E+00
         22   -1    0    0    0    0  0.00000000000E+00  0.00000000000E+00  0.62197308532E+02  0.62197308532E+02  0.00000000000E+00 0.  1.
         22   -1    0    0    0    0 -0.00000000000E+00 -0.00000000000E+00 -0.16708702674E+00  0.16708702674E+00  0.00000000000E+00 0. -1.
          4    1    1    2  501    0  0.21383195088E+01  0.11406800026E+01  0.47503948883E+02  0.47582681941E+02  0.12700000000E+01 0. -1.
         -4    1    1    2    0  501 -0.21383195088E+01 -0.11406800026E+01  0.14526272622E+02  0.14781713618E+02  0.12700000000E+01 0. -1.
<mgrwt>
<rscale>  0 0.27361398E+01</rscale>
<asrwt>0</asrwt>
<pdfrwt beam="1">0</pdfrwt>
<pdfrwt beam="2">0</pdfrwt>
<totfact> 0.11769541E+12</totfact>
</mgrwt>
</event>
<event>
 4    1  0.1735226E+006  0.2141359E+01  0.7546771E-02  0.2891431E+00
         22   -1    0    0    0    0  0.00000000000E+00  0.00000000000E+00  0.63730825561E+01  0.63730825561E+01  0.00000000000E+00 0. -1.
         22   -1    0    0    0    0 -0.00000000000E+00 -0.00000000000E+00 -0.23009952575E+01  0.23009952575E+01  0.00000000000E+00 0. -1.
          4    1    1    2  501    0  0.16288493407E+01  0.56512627702E+00  0.56316300306E+01  0.60250041233E+01  0.12700000000E+01 0. -1.
         -4    1    1    2    0  501 -0.16288493407E+01 -0.56512627702E+00 -0.15595427320E+01  0.26490736903E+01  0.12700000000E+01 0. -1.
<mgrwt>
<rscale>  0 0.21413589E+01</rscale>
<asrwt>0</asrwt>
<pdfrwt beam="1">0</pdfrwt>
<pdfrwt beam="2">0</pdfrwt>
<totfact> 0.10446461E+12</totfact>
</mgrwt>
</event>
<event>
 4    1  0.1735226E+006  0.5796197E+01  0.7546771E-02  0.2038462E+00
         22   -1    0    0    0    0  0.00000000000E+00  0.00000000000E+00  0.84261959394E+00  0.84261959394E+00  0.00000000000E+00 0. -1.
         22   -1    0    0    0    0 -0.00000000000E+00 -0.00000000000E+00 -0.40147432589E+02  0.40147432589E+02  0.00000000000E+00 0.  1.
          4    1    1    2  501    0  0.81399154019E+00 -0.55964642371E+01 -0.17951059904E+02  0.18863627590E+02  0.12700000000E+01 0.  1.
         -4    1    1    2    0  501 -0.81399154019E+00  0.55964642371E+01 -0.21353753091E+02  0.22126424593E+02  0.12700000000E+01 0. -1.
<mgrwt>
<rscale>  0 0.57961965E+01</rscale>
<asrwt>0</asrwt>
<pdfrwt beam="1">0</pdfrwt>
<pdfrwt beam="2">0</pdfrwt>
<totfact> 0.33965494E+11</totfact>
</mgrwt>
</event>
<event>
 4    1  0.1735226E+006  0.2574147E+01  0.7546771E-02  0.2676717E+00
         22   -1    0    0    0    0  0.00000000000E+00  0.00000000000E+00  0.11938906849E+02  0.11938906849E+02  0.00000000000E+00 0.  1.
         22   -1    0    0    0    0 -0.00000000000E+00 -0.00000000000E+00 -0.92400480791E+00  0.92400480791E+00  0.00000000000E+00 0. -1.
          4    1    1    2  501    0  0.18273435419E+01  0.12938895053E+01  0.95717086504E+01  0.99118031135E+01  0.12700000000E+01 0.  1.
         -4    1    1    2    0  501 -0.18273435419E+01 -0.12938895053E+01  0.14431933907E+01  0.29511085434E+01  0.12700000000E+01 0. -1.
<mgrwt>
<rscale>  0 0.25741473E+01</rscale>
<asrwt>0</asrwt>
<pdfrwt beam="1">0</pdfrwt>
<pdfrwt beam="2">0</pdfrwt>
<totfact> 0.14001874E+12</totfact>
</mgrwt>
</event>
<event>
 4    1  0.1735226E+006  0.2420016E+01  0.7546771E-02  0.2744878E+00
         22   -1    0    0    0    0  0.00000000000E+00  0.00000000000E+00  0.24271705770E+02  0.24271705770E+02  0.00000000000E+00 0.  1.
         22   -1    0    0    0    0 -0.00000000000E+00 -0.00000000000E+00 -0.28942979402E+01  0.28942979402E+01  0.00000000000E+00 0. -1.
          4    1    1    2  501    0  0.19878550348E+01 -0.54037998849E+00  0.23693200885E+02  0.23816470065E+02  0.12700000000E+01 0.  1.
         -4    1    1    2    0  501 -0.19878550348E+01  0.54037998849E+00 -0.23157930548E+01  0.33495336457E+01  0.12700000000E+01 0. -1.
<mgrwt>
<rscale>  0 0.24200162E+01</rscale>
<asrwt>0</asrwt>
<pdfrwt beam="1">0</pdfrwt>
<pdfrwt beam="2">0</pdfrwt>
<totfact> 0.15593344E+11</totfact>
</mgrwt>
</event>
<event>
 4    1  0.1735226E+006  0.3379735E+01  0.7546771E-02  0.2414283E+00
         22   -1    0    0    0    0  0.00000000000E+00  0.00000000000E+00  0.56721146164E+02  0.56721146164E+02  0.00000000000E+00 0.  1.
         22   -1    0    0    0    0 -0.00000000000E+00 -0.00000000000E+00 -0.26454437232E+00  0.26454437232E+00  0.00000000000E+00 0.  1.
          4    1    1    2  501    0  0.11366070892E+01 -0.29185321735E+01  0.42150777865E+02  0.42286057754E+02  0.12700000000E+01 0.  1.
         -4    1    1    2    0  501 -0.11366070892E+01  0.29185321735E+01  0.14305823926E+02  0.14699632782E+02  0.12700000000E+01 0.  1.
<mgrwt>
<rscale>  0 0.33797346E+01</rscale>
<asrwt>0</asrwt>
<pdfrwt beam="1">0</pdfrwt>
<pdfrwt beam="2">0</pdfrwt>
<totfact> 0.79714658E+11</totfact>
</mgrwt>
</event>
<event>
 4    1  0.1735226E+006  0.3062268E+01  0.7546771E-02  0.2502862E+00
         22   -1    0    0    0    0  0.00000000000E+00  0.00000000000E+00  0.37138215669E+02  0.37138215669E+02  0.00000000000E+00 0.  1.
         22   -1    0    0    0    0 -0.00000000000E+00 -0.00000000000E+00 -0.29359679295E+00  0.29359679295E+00  0.00000000000E+00 0. -1.
          4    1    1    2  501    0  0.17080139429E+01  0.22016527426E+01  0.25424385095E+02  0.25608140188E+02  0.12700000000E+01 0.  1.
         -4    1    1    2    0  501 -0.17080139429E+01 -0.22016527426E+01  0.11420233781E+02  0.11823672274E+02  0.12700000000E+01 0. -1.
<mgrwt>
<rscale>  0 0.30622682E+01</rscale>
<asrwt>0</asrwt>
<pdfrwt beam="1">0</pdfrwt>
<pdfrwt beam="2">0</pdfrwt>
<totfact> 0.12358135E+12</totfact>
</mgrwt>
</event>
<event>
 4    1  0.1735226E+006  0.2891483E+01  0.7546771E-02  0.2557626E+00
         22   -1    0    0    0    0  0.00000000000E+00  0.00000000000E+00  0.24221028599E+02  0.24221028599E+02  0.00000000000E+00 0.  1.
         22   -1    0    0    0    0 -0.00000000000E+00 -0.00000000000E+00 -0.47527777442E+00  0.47527777442E+00  0.00000000000E+00 0.  1.
          4    1    1    2  501    0 -0.24887354129E+01  0.74429147493E+00  0.18333271067E+02  0.18559889594E+02  0.12700000000E+01 0.  1.
         -4    1    1    2    0  501  0.24887354129E+01 -0.74429147493E+00  0.54124797580E+01  0.61364167791E+01  0.12700000000E+01 0.  1.
<mgrwt>
<rscale>  0 0.28914830E+01</rscale>
<asrwt>0</asrwt>
<pdfrwt beam="1">0</pdfrwt>
<pdfrwt beam="2">0</pdfrwt>
<totfact> 0.12396865E+12</totfact>
</mgrwt>
</event>
<event>
 4    1  0.1735226E+006  0.2366308E+01  0.7546771E-02  0.2770575E+00
         22   -1    0    0    0    0  0.00000000000E+00  0.00000000000E+00  0.23196310501E+01  0.23196310501E+01  0.00000000000E+00 0.  1.
         22   -1    0    0    0    0 -0.00000000000E+00 -0.00000000000E+00 -0.26785016539E+01  0.26785016539E+01  0.00000000000E+00 0. -1.
          4    1    1    2  501    0 -0.48329949082E+00 -0.19372488442E+01  0.60599737858E+00  0.24426715508E+01  0.12700000000E+01 0. -1.
         -4    1    1    2    0  501  0.48329949082E+00  0.19372488442E+01 -0.96486798240E+00  0.25554611532E+01  0.12700000000E+01 0. -1.
<mgrwt>
<rscale>  0 0.23663076E+01</rscale>
<asrwt>0</asrwt>
<pdfrwt beam="1">0</pdfrwt>
<pdfrwt beam="2">0</pdfrwt>
<totfact> 0.28736254E+12</totfact>
</mgrwt>
</event>
<event>
 4    1  0.1735226E+006  0.2176611E+01  0.7546771E-02  0.2870915E+00
         22   -1    0    0    0    0  0.00000000000E+00  0.00000000000E+00  0.22040143955E+00  0.22040143955E+00  0.00000000000E+00 0.  1.
         22   -1    0    0    0    0 -0.00000000000E+00 -0.00000000000E+00 -0.33948620182E+02  0.33948620182E+02  0.00000000000E+00 0. -1.
          4    1    1    2  501    0  0.17084018470E+01 -0.45397871736E+00 -0.65167146407E+01  0.68706042860E+01  0.12700000000E+01 0.  1.
         -4    1    1    2    0  501 -0.17084018470E+01  0.45397871736E+00 -0.27211504102E+02  0.27298417336E+02  0.12700000000E+01 0. -1.
<mgrwt>
<rscale>  0 0.21766106E+01</rscale>
<asrwt>0</asrwt>
<pdfrwt beam="1">0</pdfrwt>
<pdfrwt beam="2">0</pdfrwt>
<totfact> 0.19119531E+12</totfact>
</mgrwt>
</event>
<event>
 4    1  0.1735226E+006  0.2691586E+01  0.7546771E-02  0.2629652E+00
         22   -1    0    0    0    0  0.00000000000E+00  0.00000000000E+00  0.43326087654E+01  0.43326087654E+01  0.00000000000E+00 0. -1.
         22   -1    0    0    0    0 -0.00000000000E+00 -0.00000000000E+00 -0.33749207792E+01  0.33749207792E+01  0.00000000000E+00 0.  1.
          4    1    1    2  501    0  0.99570485351E+00 -0.21541371565E+01  0.32162267614E+01  0.41938943269E+01  0.12700000000E+01 0. -1.
         -4    1    1    2    0  501 -0.99570485351E+00  0.21541371565E+01 -0.22585387752E+01  0.35136352177E+01  0.12700000000E+01 0.  1.
<mgrwt>
<rscale>  0 0.26915860E+01</rscale>
<asrwt>0</asrwt>
<pdfrwt beam="1">0</pdfrwt>
<pdfrwt beam="2">0</pdfrwt>
<totfact> 0.10561907E+12</totfact>
</mgrwt>
</event>
<event>
 4    1  0.1735226E+006  0.2069196E+01  0.7546771E-02  0.2935533E+00
         22   -1    0    0    0    0  0.00000000000E+00  0.00000000000E+00  0.21857996304E+01  0.21857996304E+01  0.00000000000E+00 0. -1.
         22   -1    0    0    0    0 -0.00000000000E+00 -0.00000000000E+00 -0.19589441127E+01  0.19589441127E+01  0.00000000000E+00 0. -1.
          4    1    1    2  501    0 -0.11151318827E+01 -0.11937985360E+01  0.96512839612E-01  0.20714460622E+01  0.12700000000E+01 0. -1.
         -4    1    1    2    0  501  0.11151318827E+01  0.11937985360E+01  0.13034267813E+00  0.20732976810E+01  0.12700000000E+01 0. -1.
<mgrwt>
<rscale>  0 0.20691965E+01</rscale>
<asrwt>0</asrwt>
<pdfrwt beam="1">0</pdfrwt>
<pdfrwt beam="2">0</pdfrwt>
<totfact> 0.44268017E+12</totfact>
</mgrwt>
</event>
<event>
 4    1  0.1735226E+006  0.2139718E+01  0.7546771E-02  0.2892402E+00
         22   -1    0    0    0    0  0.00000000000E+00  0.00000000000E+00  0.36297462105E+01  0.36297462105E+01  0.00000000000E+00 0.  1.
         22   -1    0    0    0    0 -0.00000000000E+00 -0.00000000000E+00 -0.12710523358E+01  0.12710523358E+01  0.00000000000E+00 0.  1.
          4    1    1    2  501    0  0.13334243242E+01  0.10897119153E+01  0.13933986184E+01  0.25534197063E+01  0.12700000000E+01 0.  1.
         -4    1    1    2    0  501 -0.13334243242E+01 -0.10897119153E+01  0.96529525631E+00  0.23473788400E+01  0.12700000000E+01 0.  1.
<mgrwt>
<rscale>  0 0.21397179E+01</rscale>
<asrwt>0</asrwt>
<pdfrwt beam="1">0</pdfrwt>
<pdfrwt beam="2">0</pdfrwt>
<totfact> 0.40321400E+12</totfact>
</mgrwt>
</event>
<event>
 4    1  0.1735226E+006  0.2337340E+01  0.7546771E-02  0.2784896E+00
         22   -1    0    0    0    0  0.00000000000E+00  0.00000000000E+00  0.36852267020E+01  0.36852267020E+01  0.00000000000E+00 0.  1.
         22   -1    0    0    0    0 -0.00000000000E+00 -0.00000000000E+00 -0.30814785043E+01  0.30814785043E+01  0.00000000000E+00 0. -1.
          4    1    1    2  501    0 -0.12730346992E+01  0.14931988524E+01  0.27391009048E+01  0.36008101762E+01  0.12700000000E+01 0.  1.
         -4    1    1    2    0  501  0.12730346992E+01 -0.14931988524E+01 -0.21353527071E+01  0.31658950301E+01  0.12700000000E+01 0. -1.
<mgrwt>
<rscale>  0 0.23373404E+01</rscale>
<asrwt>0</asrwt>
<pdfrwt beam="1">0</pdfrwt>
<pdfrwt beam="2">0</pdfrwt>
<totfact> 0.14212377E+12</totfact>
</mgrwt>
</event>
<event>
 4    1  0.1735226E+006  0.2592209E+01  0.7546771E-02  0.2669223E+00
         22   -1    0    0    0    0  0.00000000000E+00  0.00000000000E+00  0.43029026292E+01  0.43029026292E+01  0.00000000000E+00 0.  1.
         22   -1    0    0    0    0 -0.00000000000E+00 -0.00000000000E+00 -0.11526510094E+02  0.11526510094E+02  0.00000000000E+00 0.  1.
          4    1    1    2  501    0  0.66454759477E+00 -0.21598663568E+01  0.37472488509E+01  0.45564701399E+01  0.12700000000E+01 0.  1.
         -4    1    1    2    0  501 -0.66454759477E+00  0.21598663568E+01 -0.10970856315E+02  0.11272942583E+02  0.12700000000E+01 0.  1.
<mgrwt>
<rscale>  0 0.25922087E+01</rscale>
<asrwt>0</asrwt>
<pdfrwt beam="1">0</pdfrwt>
<pdfrwt beam="2">0</pdfrwt>
<totfact> 0.24605820E+11</totfact>
</mgrwt>
</event>
<event>
 4    1  0.1735226E+006  0.1899979E+02  0.7546771E-02  0.1548651E+00
         22   -1    0    0    0    0  0.00000000000E+00  0.00000000000E+00  0.20049184231E+02  0.20049184231E+02  0.00000000000E+00 0.  1.
         22   -1    0    0    0    0 -0.00000000000E+00 -0.00000000000E+00 -0.19178795886E+02  0.19178795886E+02  0.00000000000E+00 0. -1.
          4    1    1    2  501    0 -0.12460952756E+01 -0.18916294190E+02  0.52868908946E+01  0.19721639248E+02  0.12700000000E+01 0.  1.
         -4    1    1    2    0  501  0.12460952756E+01  0.18916294190E+02 -0.44165025492E+01  0.19506340868E+02  0.12700000000E+01 0. -1.
<mgrwt>
<rscale>  0 0.18999785E+02</rscale>
<asrwt>0</asrwt>
<pdfrwt beam="1">0</pdfrwt>
<pdfrwt beam="2">0</pdfrwt>
<totfact> 0.20448399E+10</totfact>
</mgrwt>
</event>
<event>
 4    1  0.1735226E+006  0.2801218E+01  0.7546771E-02  0.2588992E+00
         22   -1    0    0    0    0  0.00000000000E+00  0.00000000000E+00  0.30352292710E+01  0.30352292710E+01  0.00000000000E+00 0. -1.
         22   -1    0    0    0    0 -0.00000000000E+00 -0.00000000000E+00 -0.31645509545E+01  0.31645509545E+01  0.00000000000E+00 0. -1.
          4    1    1    2  501    0  0.12962607546E+01  0.21339241495E+01  0.12616418552E+01  0.30722246647E+01  0.12700000000E+01 0. -1.
         -4    1    1    2    0  501 -0.12962607546E+01 -0.21339241495E+01 -0.13909635387E+01  0.31275555608E+01  0.12700000000E+01 0. -1.
<mgrwt>
<rscale>  0 0.28012183E+01</rscale>
<asrwt>0</asrwt>
<pdfrwt beam="1">0</pdfrwt>
<pdfrwt beam="2">0</pdfrwt>
<totfact> 0.17293530E+12</totfact>
</mgrwt>
</event>
<event>
 4    1  0.1735226E+006  0.2116457E+01  0.7546771E-02  0.2906320E+00
         22   -1    0    0    0    0  0.00000000000E+00  0.00000000000E+00  0.14699821069E+01  0.14699821069E+01  0.00000000000E+00 0. -1.
         22   -1    0    0    0    0 -0.00000000000E+00 -0.00000000000E+00 -0.60310500570E+01  0.60310500570E+01  0.00000000000E+00 0. -1.
          4    1    1    2  501    0 -0.14211166817E+01 -0.92028124209E+00  0.35749801403E+00  0.21464377507E+01  0.12700000000E+01 0. -1.
         -4    1    1    2    0  501  0.14211166817E+01  0.92028124209E+00 -0.49185659641E+01  0.53545944133E+01  0.12700000000E+01 0. -1.
<mgrwt>
<rscale>  0 0.21164570E+01</rscale>
<asrwt>0</asrwt>
<pdfrwt beam="1">0</pdfrwt>
<pdfrwt beam="2">0</pdfrwt>
<totfact> 0.18722812E+12</totfact>
</mgrwt>
</event>
<event>
 4    1  0.1735226E+006  0.3727286E+01  0.7546771E-02  0.2332666E+00
         22   -1    0    0    0    0  0.00000000000E+00  0.00000000000E+00  0.37106767976E+02  0.37106767976E+02  0.00000000000E+00 0.  1.
         22   -1    0    0    0    0 -0.00000000000E+00 -0.00000000000E+00 -0.38137722595E+00  0.38137722595E+00  0.00000000000E+00 0. -1.
          4    1    1    2  501    0  0.10790853807E+01  0.33339672604E+01  0.20898530618E+02  0.21228312344E+02  0.12700000000E+01 0. -1.
         -4    1    1    2    0  501 -0.10790853807E+01 -0.33339672604E+01  0.15826860132E+02  0.16259832859E+02  0.12700000000E+01 0.  1.
<mgrwt>
<rscale>  0 0.37272863E+01</rscale>
<asrwt>0</asrwt>
<pdfrwt beam="1">0</pdfrwt>
<pdfrwt beam="2">0</pdfrwt>
<totfact> 0.92229221E+11</totfact>
</mgrwt>
</event>
<event>
 4    1  0.1735226E+006  0.2027019E+01  0.7546771E-02  0.2962722E+00
         22   -1    0    0    0    0  0.00000000000E+00  0.00000000000E+00  0.77613868467E+01  0.77613868467E+01  0.00000000000E+00 0.  1.
         22   -1    0    0    0    0 -0.00000000000E+00 -0.00000000000E+00 -0.53335543373E+00  0.53335543373E+00  0.00000000000E+00 0.  1.
          4    1    1    2  501    0 -0.15718831436E+01 -0.15839924868E+00  0.39715889688E+01  0.44589601788E+01  0.12700000000E+01 0.  1.
         -4    1    1    2    0  501  0.15718831436E+01  0.15839924868E+00  0.32564424442E+01  0.38357821017E+01  0.12700000000E+01 0.  1.
<mgrwt>
<rscale>  0 0.20270192E+01</rscale>
<asrwt>0</asrwt>
<pdfrwt beam="1">0</pdfrwt>
<pdfrwt beam="2">0</pdfrwt>
<totfact> 0.43980351E+12</totfact>
</mgrwt>
</event>
<event>
 4    1  0.1735226E+006  0.2764654E+01  0.7546771E-02  0.2602226E+00
         22   -1    0    0    0    0  0.00000000000E+00  0.00000000000E+00  0.49639604200E+00  0.49639604200E+00  0.00000000000E+00 0. -1.
         22   -1    0    0    0    0 -0.00000000000E+00 -0.00000000000E+00 -0.25404581036E+02  0.25404581036E+02  0.00000000000E+00 0.  1.
          4    1    1    2  501    0  0.97434588328E+00 -0.22541206351E+01 -0.43261320325E+01  0.51340751942E+01  0.12700000000E+01 0. -1.
         -4    1    1    2    0  501 -0.97434588328E+00  0.22541206351E+01 -0.20582052962E+02  0.20766901884E+02  0.12700000000E+01 0.  1.
<mgrwt>
<rscale>  0 0.27646536E+01</rscale>
<asrwt>0</asrwt>
<pdfrwt beam="1">0</pdfrwt>
<pdfrwt beam="2">0</pdfrwt>
<totfact> 0.11114098E+12</totfact>
</mgrwt>
</event>
<event>
 4    1  0.1735226E+006  0.2133267E+01  0.7546771E-02  0.2896233E+00
         22   -1    0    0    0    0  0.00000000000E+00  0.00000000000E+00  0.24047281016E+01  0.24047281016E+01  0.00000000000E+00 0. -1.
         22   -1    0    0    0    0 -0.00000000000E+00 -0.00000000000E+00 -0.20117080813E+01  0.20117080813E+01  0.00000000000E+00 0. -1.
          4    1    1    2  501    0  0.17140183387E+01 -0.81989193953E-02  0.73416615025E+00  0.22560642774E+01  0.12700000000E+01 0. -1.
         -4    1    1    2    0  501 -0.17140183387E+01  0.81989193953E-02 -0.34114612989E+00  0.21603719054E+01  0.12700000000E+01 0. -1.
<mgrwt>
<rscale>  0 0.21332665E+01</rscale>
<asrwt>0</asrwt>
<pdfrwt beam="1">0</pdfrwt>
<pdfrwt beam="2">0</pdfrwt>
<totfact> 0.38424883E+12</totfact>
</mgrwt>
</event>
<event>
 4    1  0.1735226E+006  0.2607803E+01  0.7546771E-02  0.2662830E+00
         22   -1    0    0    0    0  0.00000000000E+00  0.00000000000E+00  0.23753269545E+01  0.23753269545E+01  0.00000000000E+00 0. -1.
         22   -1    0    0    0    0 -0.00000000000E+00 -0.00000000000E+00 -0.30224828472E+01  0.30224828472E+01  0.00000000000E+00 0. -1.
          4    1    1    2  501    0 -0.22226559589E+01  0.49753333041E+00  0.29631688781E+00  0.26245842765E+01  0.12700000000E+01 0. -1.
         -4    1    1    2    0  501  0.22226559589E+01 -0.49753333041E+00 -0.94347278043E+00  0.27732255252E+01  0.12700000000E+01 0. -1.
<mgrwt>
<rscale>  0 0.26078035E+01</rscale>
<asrwt>0</asrwt>
<pdfrwt beam="1">0</pdfrwt>
<pdfrwt beam="2">0</pdfrwt>
<totfact> 0.24280082E+12</totfact>
</mgrwt>
</event>
<event>
 4    1  0.1735226E+006  0.2540304E+01  0.7546771E-02  0.2691024E+00
         22   -1    0    0    0    0  0.00000000000E+00  0.00000000000E+00  0.27310664202E+01  0.27310664202E+01  0.00000000000E+00 0.  1.
         22   -1    0    0    0    0 -0.00000000000E+00 -0.00000000000E+00 -0.68149023787E+01  0.68149023787E+01  0.00000000000E+00 0. -1.
          4    1    1    2  501    0 -0.19381798972E+01 -0.10410097368E+01  0.18158808110E+01  0.31225895833E+01  0.12700000000E+01 0.  1.
         -4    1    1    2    0  501  0.19381798972E+01  0.10410097368E+01 -0.58997167696E+01  0.64233792156E+01  0.12700000000E+01 0. -1.
<mgrwt>
<rscale>  0 0.25403036E+01</rscale>
<asrwt>0</asrwt>
<pdfrwt beam="1">0</pdfrwt>
<pdfrwt beam="2">0</pdfrwt>
<totfact> 0.79008673E+11</totfact>
</mgrwt>
</event>
<event>
 4    1  0.1735226E+006  0.2028176E+01  0.7546771E-02  0.2961961E+00
         22   -1    0    0    0    0  0.00000000000E+00  0.00000000000E+00  0.24886599839E+00  0.24886599839E+00  0.00000000000E+00 0.  1.
         22   -1    0    0    0    0 -0.00000000000E+00 -0.00000000000E+00 -0.17081442066E+02  0.17081442066E+02  0.00000000000E+00 0. -1.
          4    1    1    2  501    0  0.15194512837E+01  0.43802663533E+00 -0.68579282302E+01  0.71515508211E+01  0.12700000000E+01 0. -1.
         -4    1    1    2    0  501 -0.15194512837E+01 -0.43802663533E+00 -0.99746478378E+01  0.10178757244E+02  0.12700000000E+01 0. -1.
<mgrwt>
<rscale>  0 0.20281764E+01</rscale>
<asrwt>0</asrwt>
<pdfrwt beam="1">0</pdfrwt>
<pdfrwt beam="2">0</pdfrwt>
<totfact> 0.39646907E+12</totfact>
</mgrwt>
</event>
<event>
 4    1  0.1735226E+006  0.2304720E+01  0.7546771E-02  0.2801430E+00
         22   -1    0    0    0    0  0.00000000000E+00  0.00000000000E+00  0.79831487255E+01  0.79831487255E+01  0.00000000000E+00 0.  1.
         22   -1    0    0    0    0 -0.00000000000E+00 -0.00000000000E+00 -0.68157109198E+00  0.68157109198E+00  0.00000000000E+00 0. -1.
          4    1    1    2  501    0 -0.16320908453E+01 -0.10174062274E+01  0.29828129869E+01  0.37694706888E+01  0.12700000000E+01 0.  1.
         -4    1    1    2    0  501  0.16320908453E+01  0.10174062274E+01  0.43187646466E+01  0.48952491287E+01  0.12700000000E+01 0. -1.
<mgrwt>
<rscale>  0 0.23047204E+01</rscale>
<asrwt>0</asrwt>
<pdfrwt beam="1">0</pdfrwt>
<pdfrwt beam="2">0</pdfrwt>
<totfact> 0.32210327E+12</totfact>
</mgrwt>
</event>
<event>
 4    1  0.1735226E+006  0.4247805E+01  0.7546771E-02  0.2232289E+00
         22   -1    0    0    0    0  0.00000000000E+00  0.00000000000E+00  0.98052581813E+00  0.98052581813E+00  0.00000000000E+00 0.  1.
         22   -1    0    0    0    0 -0.00000000000E+00 -0.00000000000E+00 -0.18680239337E+02  0.18680239337E+02  0.00000000000E+00 0. -1.
          4    1    1    2  501    0 -0.18779265885E+01 -0.35922609842E+01 -0.76505774418E+01  0.87507246811E+01  0.12700000000E+01 0. -1.
         -4    1    1    2    0  501  0.18779265885E+01  0.35922609842E+01 -0.10049136077E+02  0.10910040474E+02  0.12700000000E+01 0. -1.
<mgrwt>
<rscale>  0 0.42478050E+01</rscale>
<asrwt>0</asrwt>
<pdfrwt beam="1">0</pdfrwt>
<pdfrwt beam="2">0</pdfrwt>
<totfact> 0.75427761E+11</totfact>
</mgrwt>
</event>
<event>
 4    1  0.1735226E+006  0.3221673E+01  0.7546771E-02  0.2456454E+00
         22   -1    0    0    0    0  0.00000000000E+00  0.00000000000E+00  0.34356370087E+02  0.34356370087E+02  0.00000000000E+00 0.  1.
         22   -1    0    0    0    0 -0.00000000000E+00 -0.00000000000E+00 -0.30962986973E+00  0.30962986973E+00  0.00000000000E+00 0. -1.
          4    1    1    2  501    0  0.28052273630E+01  0.94708826398E+00  0.19725757040E+02  0.19987112537E+02  0.12700000000E+01 0. -1.
         -4    1    1    2    0  501 -0.28052273630E+01 -0.94708826398E+00  0.14320983177E+02  0.14678887420E+02  0.12700000000E+01 0.  1.
<mgrwt>
<rscale>  0 0.32216730E+01</rscale>
<asrwt>0</asrwt>
<pdfrwt beam="1">0</pdfrwt>
<pdfrwt beam="2">0</pdfrwt>
<totfact> 0.12871202E+12</totfact>
</mgrwt>
</event>
<event>
 4    1  0.1735226E+006  0.2464455E+01  0.7546771E-02  0.2724411E+00
         22   -1    0    0    0    0  0.00000000000E+00  0.00000000000E+00  0.53949877371E+00  0.53949877371E+00  0.00000000000E+00 0. -1.
         22   -1    0    0    0    0 -0.00000000000E+00 -0.00000000000E+00 -0.14462907311E+02  0.14462907311E+02  0.00000000000E+00 0.  1.
          4    1    1    2  501    0  0.45722299613E+00 -0.20619368653E+01 -0.34304537841E+01  0.42239258599E+01  0.12700000000E+01 0. -1.
         -4    1    1    2    0  501 -0.45722299613E+00  0.20619368653E+01 -0.10492954753E+02  0.10778480225E+02  0.12700000000E+01 0.  1.
<mgrwt>
<rscale>  0 0.24644546E+01</rscale>
<asrwt>0</asrwt>
<pdfrwt beam="1">0</pdfrwt>
<pdfrwt beam="2">0</pdfrwt>
<totfact> 0.20396628E+12</totfact>
</mgrwt>
</event>
<event>
 4    1  0.1735226E+006  0.3919072E+01  0.7546771E-02  0.2293036E+00
         22   -1    0    0    0    0  0.00000000000E+00  0.00000000000E+00  0.60588024164E+01  0.60588024164E+01  0.00000000000E+00 0.  1.
         22   -1    0    0    0    0 -0.00000000000E+00 -0.00000000000E+00 -0.54060799073E+01  0.54060799073E+01  0.00000000000E+00 0.  1.
          4    1    1    2  501    0  0.22747596327E+01  0.29277457275E+01  0.45038976053E+01  0.59702780564E+01  0.12700000000E+01 0.  1.
         -4    1    1    2    0  501 -0.22747596327E+01 -0.29277457275E+01 -0.38511750962E+01  0.54946042672E+01  0.12700000000E+01 0.  1.
<mgrwt>
<rscale>  0 0.39190721E+01</rscale>
<asrwt>0</asrwt>
<pdfrwt beam="1">0</pdfrwt>
<pdfrwt beam="2">0</pdfrwt>
<totfact> 0.40733897E+11</totfact>
</mgrwt>
</event>
<event>
 4    1  0.1735226E+006  0.2866858E+01  0.7546771E-02  0.2566005E+00
         22   -1    0    0    0    0  0.00000000000E+00  0.00000000000E+00  0.65755779035E+01  0.65755779035E+01  0.00000000000E+00 0. -1.
         22   -1    0    0    0    0 -0.00000000000E+00 -0.00000000000E+00 -0.22586707201E+01  0.22586707201E+01  0.00000000000E+00 0.  1.
          4    1    1    2  501    0  0.13762008848E+01 -0.21707252075E+01  0.51103925044E+01  0.58596065013E+01  0.12700000000E+01 0. -1.
         -4    1    1    2    0  501 -0.13762008848E+01  0.21707252075E+01 -0.79348532098E+00  0.29746421224E+01  0.12700000000E+01 0.  1.
<mgrwt>
<rscale>  0 0.28668584E+01</rscale>
<asrwt>0</asrwt>
<pdfrwt beam="1">0</pdfrwt>
<pdfrwt beam="2">0</pdfrwt>
<totfact> 0.10283752E+12</totfact>
</mgrwt>
</event>
<event>
 4    1  0.1735226E+006  0.2943297E+01  0.7546771E-02  0.2540408E+00
         22   -1    0    0    0    0  0.00000000000E+00  0.00000000000E+00  0.11595761288E+02  0.11595761288E+02  0.00000000000E+00 0.  1.
         22   -1    0    0    0    0 -0.00000000000E+00 -0.00000000000E+00 -0.10033162852E+01  0.10033162852E+01  0.00000000000E+00 0.  1.
          4    1    1    2  501    0  0.10041264805E+00 -0.26533020506E+01  0.84797434873E+01  0.89760260741E+01  0.12700000000E+01 0.  1.
         -4    1    1    2    0  501 -0.10041264805E+00  0.26533020506E+01  0.21127015154E+01  0.36230514990E+01  0.12700000000E+01 0.  1.
<mgrwt>
<rscale>  0 0.29432965E+01</rscale>
<asrwt>0</asrwt>
<pdfrwt beam="1">0</pdfrwt>
<pdfrwt beam="2">0</pdfrwt>
<totfact> 0.13207194E+12</totfact>
</mgrwt>
</event>
<event>
 4    1  0.1735226E+006  0.4063393E+01  0.7546771E-02  0.2265338E+00
         22   -1    0    0    0    0  0.00000000000E+00  0.00000000000E+00  0.18147906867E+01  0.18147906867E+01  0.00000000000E+00 0.  1.
         22   -1    0    0    0    0 -0.00000000000E+00 -0.00000000000E+00 -0.93996801677E+01  0.93996801677E+01  0.00000000000E+00 0. -1.
          4    1    1    2  501    0 -0.41520109545E+00 -0.38374303628E+01 -0.47967993072E+01  0.62865290369E+01  0.12700000000E+01 0. -1.
         -4    1    1    2    0  501  0.41520109545E+00  0.38374303628E+01 -0.27880901738E+01  0.49279418175E+01  0.12700000000E+01 0.  1.
<mgrwt>
<rscale>  0 0.40633931E+01</rscale>
<asrwt>0</asrwt>
<pdfrwt beam="1">0</pdfrwt>
<pdfrwt beam="2">0</pdfrwt>
<totfact> 0.86265276E+11</totfact>
</mgrwt>
</event>
<event>
 4    1  0.1735226E+006  0.3192250E+01  0.7546771E-02  0.2464710E+00
         22   -1    0    0    0    0  0.00000000000E+00  0.00000000000E+00  0.91202267349E+01  0.91202267349E+01  0.00000000000E+00 0.  1.
         22   -1    0    0    0    0 -0.00000000000E+00 -0.00000000000E+00 -0.13295922658E+01  0.13295922658E+01  0.00000000000E+00 0. -1.
          4    1    1    2  501    0 -0.28157729038E+01  0.80559418343E+00  0.59828746085E+01  0.67812423356E+01  0.12700000000E+01 0.  1.
         -4    1    1    2    0  501  0.28157729038E+01 -0.80559418343E+00  0.18077598606E+01  0.36685766651E+01  0.12700000000E+01 0. -1.
<mgrwt>
<rscale>  0 0.31922498E+01</rscale>
<asrwt>0</asrwt>
<pdfrwt beam="1">0</pdfrwt>
<pdfrwt beam="2">0</pdfrwt>
<totfact> 0.12800656E+12</totfact>
</mgrwt>
</event>
<event>
 4    1  0.1735226E+006  0.2343256E+01  0.7546771E-02  0.2781944E+00
         22   -1    0    0    0    0  0.00000000000E+00  0.00000000000E+00  0.57695225016E+01  0.57695225016E+01  0.00000000000E+00 0. -1.
         22   -1    0    0    0    0 -0.00000000000E+00 -0.00000000000E+00 -0.21876847179E+01  0.21876847179E+01  0.00000000000E+00 0. -1.
          4    1    1    2  501    0  0.48115757642E+00 -0.19095639986E+01  0.47814276470E+01  0.53247439020E+01  0.12700000000E+01 0. -1.
         -4    1    1    2    0  501 -0.48115757642E+00  0.19095639986E+01 -0.11995898632E+01  0.26324633175E+01  0.12700000000E+01 0. -1.
<mgrwt>
<rscale>  0 0.23432557E+01</rscale>
<asrwt>0</asrwt>
<pdfrwt beam="1">0</pdfrwt>
<pdfrwt beam="2">0</pdfrwt>
<totfact> 0.12470587E+12</totfact>
</mgrwt>
</event>
<event>
 4    1  0.1735226E+006  0.2178271E+01  0.7546771E-02  0.2869964E+00
         22   -1    0    0    0    0  0.00000000000E+00  0.00000000000E+00  0.30527441791E+02  0.30527441791E+02  0.00000000000E+00 0.  1.
         22   -1    0    0    0    0 -0.00000000000E+00 -0.00000000000E+00 -0.81995046254E+00  0.81995046254E+00  0.00000000000E+00 0. -1.
          4    1    1    2  501    0 -0.16286835545E+01  0.69235528328E+00  0.28963905966E+02  0.29045700452E+02  0.12700000000E+01 0.  1.
         -4    1    1    2    0  501  0.16286835545E+01 -0.69235528328E+00  0.74358536330E+00  0.23016918021E+01  0.12700000000E+01 0. -1.
<mgrwt>
<rscale>  0 0.21782713E+01</rscale>
<asrwt>0</asrwt>
<pdfrwt beam="1">0</pdfrwt>
<pdfrwt beam="2">0</pdfrwt>
<totfact> 0.49836829E+11</totfact>
</mgrwt>
</event>
<event>
 4    1  0.1735226E+006  0.3798159E+01  0.7546771E-02  0.2317621E+00
         22   -1    0    0    0    0  0.00000000000E+00  0.00000000000E+00  0.12988664164E+01  0.12988664164E+01  0.00000000000E+00 0.  1.
         22   -1    0    0    0    0 -0.00000000000E+00 -0.00000000000E+00 -0.23506978224E+02  0.23506978224E+02  0.00000000000E+00 0. -1.
          4    1    1    2  501    0 -0.29637824113E+01 -0.20072632261E+01 -0.20957569769E+01  0.43379959828E+01  0.12700000000E+01 0.  1.
         -4    1    1    2    0  501  0.29637824113E+01  0.20072632261E+01 -0.20112354831E+02  0.20467848658E+02  0.12700000000E+01 0. -1.
<mgrwt>
<rscale>  0 0.37981590E+01</rscale>
<asrwt>0</asrwt>
<pdfrwt beam="1">0</pdfrwt>
<pdfrwt beam="2">0</pdfrwt>
<totfact> 0.41022916E+11</totfact>
</mgrwt>
</event>
<event>
 4    1  0.1735226E+006  0.2336644E+01  0.7546771E-02  0.2785244E+00
         22   -1    0    0    0    0  0.00000000000E+00  0.00000000000E+00  0.75611269408E-01  0.75611269408E-01  0.00000000000E+00 0. -1.
         22   -1    0    0    0    0 -0.00000000000E+00 -0.00000000000E+00 -0.72508580409E+02  0.72508580409E+02  0.00000000000E+00 0.  1.
          4    1    1    2  501    0 -0.16779362107E+01  0.10156452066E+01 -0.33888391607E+02  0.33968853246E+02  0.12700000000E+01 0.  1.
         -4    1    1    2    0  501  0.16779362107E+01 -0.10156452066E+01 -0.38544577532E+02  0.38615338432E+02  0.12700000000E+01 0. -1.
<mgrwt>
<rscale>  0 0.23366440E+01</rscale>
<asrwt>0</asrwt>
<pdfrwt beam="1">0</pdfrwt>
<pdfrwt beam="2">0</pdfrwt>
<totfact> 0.23034383E+12</totfact>
</mgrwt>
</event>
<event>
 4    1  0.1735226E+006  0.2793643E+01  0.7546771E-02  0.2591708E+00
         22   -1    0    0    0    0  0.00000000000E+00  0.00000000000E+00  0.13361136392E+02  0.13361136392E+02  0.00000000000E+00 0.  1.
         22   -1    0    0    0    0 -0.00000000000E+00 -0.00000000000E+00 -0.60428271979E+00  0.60428271979E+00  0.00000000000E+00 0. -1.
          4    1    1    2  501    0  0.24332436528E+01 -0.52044751383E+00  0.76540788092E+01  0.81479667835E+01  0.12700000000E+01 0.  1.
         -4    1    1    2    0  501 -0.24332436528E+01  0.52044751383E+00  0.51027748628E+01  0.58174523280E+01  0.12700000000E+01 0. -1.
<mgrwt>
<rscale>  0 0.27936428E+01</rscale>
<asrwt>0</asrwt>
<pdfrwt beam="1">0</pdfrwt>
<pdfrwt beam="2">0</pdfrwt>
<totfact> 0.19772080E+12</totfact>
</mgrwt>
</event>
<event>
 4    1  0.1735226E+006  0.3094520E+01  0.7546771E-02  0.2493129E+00
         22   -1    0    0    0    0  0.00000000000E+00  0.00000000000E+00  0.31115102882E+00  0.31115102882E+00  0.00000000000E+00 0.  1.
         22   -1    0    0    0    0 -0.00000000000E+00 -0.00000000000E+00 -0.31221580520E+02  0.31221580520E+02  0.00000000000E+00 0.  1.
          4    1    1    2  501    0 -0.23134751367E+01 -0.16158557221E+01 -0.13572202657E+02  0.13920515144E+02  0.12700000000E+01 0.  1.
         -4    1    1    2    0  501  0.23134751367E+01  0.16158557221E+01 -0.17338226835E+02  0.17612216405E+02  0.12700000000E+01 0.  1.
<mgrwt>
<rscale>  0 0.30945205E+01</rscale>
<asrwt>0</asrwt>
<pdfrwt beam="1">0</pdfrwt>
<pdfrwt beam="2">0</pdfrwt>
<totfact> 0.14469922E+12</totfact>
</mgrwt>
</event>
<event>
 4    1  0.1735226E+006  0.2479164E+01  0.7546771E-02  0.2717788E+00
         22   -1    0    0    0    0  0.00000000000E+00  0.00000000000E+00  0.22283218812E+01  0.22283218812E+01  0.00000000000E+00 0. -1.
         22   -1    0    0    0    0 -0.00000000000E+00 -0.00000000000E+00 -0.32898255334E+01  0.32898255334E+01  0.00000000000E+00 0.  1.
          4    1    1    2  501    0 -0.15892706465E+01  0.14168891524E+01 -0.16398288339E+01  0.29724223560E+01  0.12700000000E+01 0. -1.
         -4    1    1    2    0  501  0.15892706465E+01 -0.14168891524E+01  0.57832518166E+00  0.25457250586E+01  0.12700000000E+01 0.  1.
<mgrwt>
<rscale>  0 0.24791644E+01</rscale>
<asrwt>0</asrwt>
<pdfrwt beam="1">0</pdfrwt>
<pdfrwt beam="2">0</pdfrwt>
<totfact> 0.23681354E+12</totfact>
</mgrwt>
</event>
<event>
 4    1  0.1735226E+006  0.3456891E+01  0.7546771E-02  0.2394932E+00
         22   -1    0    0    0    0  0.00000000000E+00  0.00000000000E+00  0.65930273977E+00  0.65930273977E+00  0.00000000000E+00 0.  1.
         22   -1    0    0    0    0 -0.00000000000E+00 -0.00000000000E+00 -0.25061068078E+02  0.25061068078E+02  0.00000000000E+00 0. -1.
          4    1    1    2  501    0  0.11256997937E+01  0.30116429026E+01 -0.54354877377E+01  0.64416317766E+01  0.12700000000E+01 0.  1.
         -4    1    1    2    0  501 -0.11256997937E+01 -0.30116429026E+01 -0.18966277601E+02  0.19278739041E+02  0.12700000000E+01 0. -1.
<mgrwt>
<rscale>  0 0.34568907E+01</rscale>
<asrwt>0</asrwt>
<pdfrwt beam="1">0</pdfrwt>
<pdfrwt beam="2">0</pdfrwt>
<totfact> 0.82010825E+11</totfact>
</mgrwt>
</event>
<event>
 4    1  0.1735226E+006  0.2661465E+01  0.7546771E-02  0.2641359E+00
         22   -1    0    0    0    0  0.00000000000E+00  0.00000000000E+00  0.72989614562E+00  0.72989614562E+00  0.00000000000E+00 0.  1.
         22   -1    0    0    0    0 -0.00000000000E+00 -0.00000000000E+00 -0.20424317959E+02  0.20424317959E+02  0.00000000000E+00 0. -1.
          4    1    1    2  501    0  0.17311066672E+01  0.15728203565E+01 -0.21844799760E+01  0.34431594405E+01  0.12700000000E+01 0.  1.
         -4    1    1    2    0  501 -0.17311066672E+01 -0.15728203565E+01 -0.17509941837E+02  0.17711054664E+02  0.12700000000E+01 0.  1.
<mgrwt>
<rscale>  0 0.26614647E+01</rscale>
<asrwt>0</asrwt>
<pdfrwt beam="1">0</pdfrwt>
<pdfrwt beam="2">0</pdfrwt>
<totfact> 0.94452866E+11</totfact>
</mgrwt>
</event>
<event>
 4    1  0.1735226E+006  0.2316514E+01  0.7546771E-02  0.2795401E+00
         22   -1    0    0    0    0  0.00000000000E+00  0.00000000000E+00  0.18568141349E+01  0.18568141349E+01  0.00000000000E+00 0.  1.
         22   -1    0    0    0    0 -0.00000000000E+00 -0.00000000000E+00 -0.30381704196E+01  0.30381704196E+01  0.00000000000E+00 0.  1.
          4    1    1    2  501    0  0.16841608283E+01 -0.95756933385E+00 -0.11311354435E+01  0.25779263209E+01  0.12700000000E+01 0.  1.
         -4    1    1    2    0  501 -0.16841608283E+01  0.95756933385E+00 -0.50220841194E-01  0.23170582335E+01  0.12700000000E+01 0.  1.
<mgrwt>
<rscale>  0 0.23165139E+01</rscale>
<asrwt>0</asrwt>
<pdfrwt beam="1">0</pdfrwt>
<pdfrwt beam="2">0</pdfrwt>
<totfact> 0.32102576E+12</totfact>
</mgrwt>
</event>
<event>
 4    1  0.1735226E+006  0.4219969E+01  0.7546771E-02  0.2237120E+00
         22   -1    0    0    0    0  0.00000000000E+00  0.00000000000E+00  0.38769911552E+00  0.38769911552E+00  0.00000000000E+00 0.  1.
         22   -1    0    0    0    0 -0.00000000000E+00 -0.00000000000E+00 -0.64367139670E+02  0.64367139670E+02  0.00000000000E+00 0. -1.
          4    1    1    2  501    0 -0.22245074000E+01  0.33536252441E+01 -0.14662734396E+02  0.15257913207E+02  0.12700000000E+01 0.  1.
         -4    1    1    2    0  501  0.22245074000E+01 -0.33536252441E+01 -0.49316706159E+02  0.49496925579E+02  0.12700000000E+01 0. -1.
<mgrwt>
<rscale>  0 0.42199687E+01</rscale>
<asrwt>0</asrwt>
<pdfrwt beam="1">0</pdfrwt>
<pdfrwt beam="2">0</pdfrwt>
<totfact> 0.43823111E+11</totfact>
</mgrwt>
</event>
<event>
 4    1  0.1735226E+006  0.5350812E+01  0.7546771E-02  0.2083319E+00
         22   -1    0    0    0    0  0.00000000000E+00  0.00000000000E+00  0.78960897267E+01  0.78960897267E+01  0.00000000000E+00 0. -1.
         22   -1    0    0    0    0 -0.00000000000E+00 -0.00000000000E+00 -0.13327231211E+02  0.13327231211E+02  0.00000000000E+00 0.  1.
          4    1    1    2  501    0 -0.50249253766E+01  0.13298190837E+01  0.63381456346E+01  0.82947744949E+01  0.12700000000E+01 0. -1.
         -4    1    1    2    0  501  0.50249253766E+01 -0.13298190837E+01 -0.11769287119E+02  0.12928546443E+02  0.12700000000E+01 0.  1.
<mgrwt>
<rscale>  0 0.53508124E+01</rscale>
<asrwt>0</asrwt>
<pdfrwt beam="1">0</pdfrwt>
<pdfrwt beam="2">0</pdfrwt>
<totfact> 0.10010473E+11</totfact>
</mgrwt>
</event>
<event>
 4    1  0.1735226E+006  0.2054552E+01  0.7546771E-02  0.2944850E+00
         22   -1    0    0    0    0  0.00000000000E+00  0.00000000000E+00  0.48533037936E+00  0.48533037936E+00  0.00000000000E+00 0.  1.
         22   -1    0    0    0    0 -0.00000000000E+00 -0.00000000000E+00 -0.86976175719E+01  0.86976175719E+01  0.00000000000E+00 0. -1.
          4    1    1    2  501    0 -0.77487507365E-01  0.16131581933E+01 -0.41192442790E+01  0.46031898831E+01  0.12700000000E+01 0. -1.
         -4    1    1    2    0  501  0.77487507365E-01 -0.16131581933E+01 -0.40930429135E+01  0.45797580681E+01  0.12700000000E+01 0. -1.
<mgrwt>
<rscale>  0 0.20545519E+01</rscale>
<asrwt>0</asrwt>
<pdfrwt beam="1">0</pdfrwt>
<pdfrwt beam="2">0</pdfrwt>
<totfact> 0.42665051E+12</totfact>
</mgrwt>
</event>
<event>
 4    1  0.1735226E+006  0.2978764E+01  0.7546771E-02  0.2528934E+00
         22   -1    0    0    0    0  0.00000000000E+00  0.00000000000E+00  0.59654235401E+01  0.59654235401E+01  0.00000000000E+00 0.  1.
         22   -1    0    0    0    0 -0.00000000000E+00 -0.00000000000E+00 -0.15582068625E+01  0.15582068625E+01  0.00000000000E+00 0. -1.
          4    1    1    2  501    0 -0.26430597878E+01 -0.52380176808E+00  0.14017631735E+01  0.32921077334E+01  0.12700000000E+01 0.  1.
         -4    1    1    2    0  501  0.26430597878E+01  0.52380176808E+00  0.30054535041E+01  0.42315226691E+01  0.12700000000E+01 0. -1.
<mgrwt>
<rscale>  0 0.29787637E+01</rscale>
<asrwt>0</asrwt>
<pdfrwt beam="1">0</pdfrwt>
<pdfrwt beam="2">0</pdfrwt>
<totfact> 0.17739080E+12</totfact>
</mgrwt>
</event>
<event>
 4    1  0.1735226E+006  0.2387089E+01  0.7546771E-02  0.2760503E+00
         22   -1    0    0    0    0  0.00000000000E+00  0.00000000000E+00  0.21936724660E+00  0.21936724660E+00  0.00000000000E+00 0.  1.
         22   -1    0    0    0    0 -0.00000000000E+00 -0.00000000000E+00 -0.33327530822E+02  0.33327530822E+02  0.00000000000E+00 0. -1.
          4    1    1    2  501    0 -0.12718209349E+01  0.15709119352E+01 -0.24432189621E+02  0.24548525057E+02  0.12700000000E+01 0.  1.
         -4    1    1    2    0  501  0.12718209349E+01 -0.15709119352E+01 -0.86759739548E+01  0.89983730120E+01  0.12700000000E+01 0. -1.
<mgrwt>
<rscale>  0 0.23870888E+01</rscale>
<asrwt>0</asrwt>
<pdfrwt beam="1">0</pdfrwt>
<pdfrwt beam="2">0</pdfrwt>
<totfact> 0.19681877E+12</totfact>
</mgrwt>
</event>
<event>
 4    1  0.1735226E+006  0.2061804E+01  0.7546771E-02  0.2940220E+00
         22   -1    0    0    0    0  0.00000000000E+00  0.00000000000E+00  0.18428096146E+00  0.18428096146E+00  0.00000000000E+00 0.  1.
         22   -1    0    0    0    0 -0.00000000000E+00 -0.00000000000E+00 -0.57652578862E+02  0.57652578862E+02  0.00000000000E+00 0.  1.
          4    1    1    2  501    0 -0.15464825903E+01  0.49651319632E+00 -0.63363570536E+01  0.66633666016E+01  0.12700000000E+01 0.  1.
         -4    1    1    2    0  501  0.15464825903E+01 -0.49651319632E+00 -0.51131940846E+02  0.51173493221E+02  0.12700000000E+01 0.  1.
<mgrwt>
<rscale>  0 0.20618035E+01</rscale>
<asrwt>0</asrwt>
<pdfrwt beam="1">0</pdfrwt>
<pdfrwt beam="2">0</pdfrwt>
<totfact> 0.11679507E+12</totfact>
</mgrwt>
</event>
<event>
 4    1  0.1735226E+006  0.2071174E+01  0.7546771E-02  0.2934285E+00
         22   -1    0    0    0    0  0.00000000000E+00  0.00000000000E+00  0.21312203452E+01  0.21312203452E+01  0.00000000000E+00 0. -1.
         22   -1    0    0    0    0 -0.00000000000E+00 -0.00000000000E+00 -0.56093879079E+01  0.56093879079E+01  0.00000000000E+00 0. -1.
          4    1    1    2  501    0  0.77385392703E+00  0.14415307164E+01  0.13599874002E+01  0.24777664207E+01  0.12700000000E+01 0. -1.
         -4    1    1    2    0  501 -0.77385392703E+00 -0.14415307164E+01 -0.48381549630E+01  0.52628418324E+01  0.12700000000E+01 0. -1.
<mgrwt>
<rscale>  0 0.20711738E+01</rscale>
<asrwt>0</asrwt>
<pdfrwt beam="1">0</pdfrwt>
<pdfrwt beam="2">0</pdfrwt>
<totfact> 0.13290964E+12</totfact>
</mgrwt>
</event>
<event>
 4    1  0.1735226E+006  0.2612427E+01  0.7546771E-02  0.2660948E+00
         22   -1    0    0    0    0  0.00000000000E+00  0.00000000000E+00  0.38796932656E+02  0.38796932656E+02  0.00000000000E+00 0.  1.
         22   -1    0    0    0    0 -0.00000000000E+00 -0.00000000000E+00 -0.18197122874E+00  0.18197122874E+00  0.00000000000E+00 0.  1.
          4    1    1    2  501    0  0.14429590245E+01  0.17691081244E+01  0.15750568299E+02  0.15965750094E+02  0.12700000000E+01 0.  1.
         -4    1    1    2    0  501 -0.14429590245E+01 -0.17691081244E+01  0.22864393128E+02  0.23013153791E+02  0.12700000000E+01 0.  1.
<mgrwt>
<rscale>  0 0.26124269E+01</rscale>
<asrwt>0</asrwt>
<pdfrwt beam="1">0</pdfrwt>
<pdfrwt beam="2">0</pdfrwt>
<totfact> 0.19933046E+12</totfact>
</mgrwt>
</event>
<event>
 4    1  0.1735226E+006  0.3285705E+01  0.7546771E-02  0.2438939E+00
         22   -1    0    0    0    0  0.00000000000E+00  0.00000000000E+00  0.10428781210E+02  0.10428781210E+02  0.00000000000E+00 0.  1.
         22   -1    0    0    0    0 -0.00000000000E+00 -0.00000000000E+00 -0.10464924656E+01  0.10464924656E+01  0.00000000000E+00 0. -1.
          4    1    1    2  501    0  0.29634752914E+01 -0.63306524191E+00  0.52872051724E+01  0.62249816015E+01  0.12700000000E+01 0.  1.
         -4    1    1    2    0  501 -0.29634752914E+01  0.63306524191E+00  0.40950835723E+01  0.52502920745E+01  0.12700000000E+01 0. -1.
<mgrwt>
<rscale>  0 0.32857050E+01</rscale>
<asrwt>0</asrwt>
<pdfrwt beam="1">0</pdfrwt>
<pdfrwt beam="2">0</pdfrwt>
<totfact> 0.14318181E+12</totfact>
</mgrwt>
</event>
<event>
 4    1  0.1735226E+006  0.2192762E+01  0.7546771E-02  0.2861727E+00
         22   -1    0    0    0    0  0.00000000000E+00  0.00000000000E+00  0.66368406487E+01  0.66368406487E+01  0.00000000000E+00 0. -1.
         22   -1    0    0    0    0 -0.00000000000E+00 -0.00000000000E+00 -0.10723942131E+01  0.10723942131E+01  0.00000000000E+00 0. -1.
          4    1    1    2  501    0 -0.96565763528E+00  0.15042646979E+01  0.49777814782E+01  0.54393488025E+01  0.12700000000E+01 0. -1.
         -4    1    1    2    0  501  0.96565763528E+00 -0.15042646979E+01  0.58666495739E+00  0.22698860593E+01  0.12700000000E+01 0. -1.
<mgrwt>
<rscale>  0 0.21927624E+01</rscale>
<asrwt>0</asrwt>
<pdfrwt beam="1">0</pdfrwt>
<pdfrwt beam="2">0</pdfrwt>
<totfact> 0.23981056E+12</totfact>
</mgrwt>
</event>
<event>
 4    1  0.1735226E+006  0.3102736E+01  0.7546771E-02  0.2490679E+00
         22   -1    0    0    0    0  0.00000000000E+00  0.00000000000E+00  0.26645059445E+01  0.26645059445E+01  0.00000000000E+00 0. -1.
         22   -1    0    0    0    0 -0.00000000000E+00 -0.00000000000E+00 -0.10795122767E+02  0.10795122767E+02  0.00000000000E+00 0.  1.
          4    1    1    2  501    0  0.63880852433E+00  0.27578970792E+01  0.14239594705E+01  0.34138882823E+01  0.12700000000E+01 0. -1.
         -4    1    1    2    0  501 -0.63880852433E+00 -0.27578970792E+01 -0.95545762928E+01  0.10045740429E+02  0.12700000000E+01 0.  1.
<mgrwt>
<rscale>  0 0.31027363E+01</rscale>
<asrwt>0</asrwt>
<pdfrwt beam="1">0</pdfrwt>
<pdfrwt beam="2">0</pdfrwt>
<totfact> 0.46726434E+11</totfact>
</mgrwt>
</event>
<event>
 4    1  0.1735226E+006  0.5311135E+01  0.7546771E-02  0.2087599E+00
         22   -1    0    0    0    0  0.00000000000E+00  0.00000000000E+00  0.37489897840E+02  0.37489897840E+02  0.00000000000E+00 0.  1.
         22   -1    0    0    0    0 -0.00000000000E+00 -0.00000000000E+00 -0.13359320246E+01  0.13359320246E+01  0.00000000000E+00 0. -1.
          4    1    1    2  501    0 -0.33727620083E+01  0.39012477090E+01  0.30906886518E+02  0.31359907390E+02  0.12700000000E+01 0.  1.
         -4    1    1    2    0  501  0.33727620083E+01 -0.39012477090E+01  0.52470792976E+01  0.74659224753E+01  0.12700000000E+01 0. -1.
<mgrwt>
<rscale>  0 0.53111352E+01</rscale>
<asrwt>0</asrwt>
<pdfrwt beam="1">0</pdfrwt>
<pdfrwt beam="2">0</pdfrwt>
<totfact> 0.21915104E+11</totfact>
</mgrwt>
</event>
<event>
 4    1  0.1735226E+006  0.2033352E+01  0.7546771E-02  0.2958569E+00
         22   -1    0    0    0    0  0.00000000000E+00  0.00000000000E+00  0.76441010247E+00  0.76441010247E+00  0.00000000000E+00 0. -1.
         22   -1    0    0    0    0 -0.00000000000E+00 -0.00000000000E+00 -0.58597027520E+01  0.58597027520E+01  0.00000000000E+00 0. -1.
          4    1    1    2  501    0  0.15718954103E+01  0.22531505294E+00 -0.34664305733E+01  0.40187887446E+01  0.12700000000E+01 0. -1.
         -4    1    1    2    0  501 -0.15718954103E+01 -0.22531505294E+00 -0.16288620762E+01  0.26053241098E+01  0.12700000000E+01 0. -1.
<mgrwt>
<rscale>  0 0.20333524E+01</rscale>
<asrwt>0</asrwt>
<pdfrwt beam="1">0</pdfrwt>
<pdfrwt beam="2">0</pdfrwt>
<totfact> 0.40918865E+12</totfact>
</mgrwt>
</event>
<event>
 4    1  0.1735226E+006  0.2990218E+01  0.7546771E-02  0.2525280E+00
         22   -1    0    0    0    0  0.00000000000E+00  0.00000000000E+00  0.31919342384E+01  0.31919342384E+01  0.00000000000E+00 0. -1.
         22   -1    0    0    0    0 -0.00000000000E+00 -0.00000000000E+00 -0.29320689457E+01  0.29320689457E+01  0.00000000000E+00 0.  1.
          4    1    1    2  501    0  0.17839955379E+01 -0.20361387164E+01  0.77671201625E+00  0.30894469583E+01  0.12700000000E+01 0.  1.
         -4    1    1    2    0  501 -0.17839955379E+01  0.20361387164E+01 -0.51684672356E+00  0.30345562258E+01  0.12700000000E+01 0. -1.
<mgrwt>
<rscale>  0 0.29902175E+01</rscale>
<asrwt>0</asrwt>
<pdfrwt beam="1">0</pdfrwt>
<pdfrwt beam="2">0</pdfrwt>
<totfact> 0.17825804E+12</totfact>
</mgrwt>
</event>
<event>
 4    1  0.1735226E+006  0.2018269E+01  0.7546771E-02  0.2968502E+00
         22   -1    0    0    0    0  0.00000000000E+00  0.00000000000E+00  0.49501196228E+00  0.49501196228E+00  0.00000000000E+00 0. -1.
         22   -1    0    0    0    0 -0.00000000000E+00 -0.00000000000E+00 -0.22401891768E+02  0.22401891768E+02  0.00000000000E+00 0.  1.
          4    1    1    2  501    0  0.82484913548E+00  0.13342168298E+01 -0.18472862323E+01  0.27360330899E+01  0.12700000000E+01 0. -1.
         -4    1    1    2    0  501 -0.82484913548E+00 -0.13342168298E+01 -0.20059593573E+02  0.20160870640E+02  0.12700000000E+01 0.  1.
<mgrwt>
<rscale>  0 0.20182692E+01</rscale>
<asrwt>0</asrwt>
<pdfrwt beam="1">0</pdfrwt>
<pdfrwt beam="2">0</pdfrwt>
<totfact> 0.13059457E+12</totfact>
</mgrwt>
</event>
<event>
 4    1  0.1735226E+006  0.2164997E+01  0.7546771E-02  0.2877603E+00
         22   -1    0    0    0    0  0.00000000000E+00  0.00000000000E+00  0.13742226137E+00  0.13742226137E+00  0.00000000000E+00 0. -1.
         22   -1    0    0    0    0 -0.00000000000E+00 -0.00000000000E+00 -0.72203473145E+02  0.72203473145E+02  0.00000000000E+00 0. -1.
          4    1    1    2  501    0 -0.11930739695E+01  0.12848678595E+01 -0.97599440827E+01  0.99971855745E+01  0.12700000000E+01 0. -1.
         -4    1    1    2    0  501  0.11930739695E+01 -0.12848678595E+01 -0.62306106801E+02  0.62343709832E+02  0.12700000000E+01 0. -1.
<mgrwt>
<rscale>  0 0.21649967E+01</rscale>
<asrwt>0</asrwt>
<pdfrwt beam="1">0</pdfrwt>
<pdfrwt beam="2">0</pdfrwt>
<totfact> 0.11955113E+12</totfact>
</mgrwt>
</event>
<event>
 4    1  0.1735226E+006  0.2094923E+01  0.7546771E-02  0.2919472E+00
         22   -1    0    0    0    0  0.00000000000E+00  0.00000000000E+00  0.45937834390E+00  0.45937834390E+00  0.00000000000E+00 0. -1.
         22   -1    0    0    0    0 -0.00000000000E+00 -0.00000000000E+00 -0.10198302473E+02  0.10198302473E+02  0.00000000000E+00 0. -1.
          4    1    1    2  501    0 -0.16651763592E+01  0.54691310063E-01 -0.35296054165E+01  0.41044875250E+01  0.12700000000E+01 0. -1.
         -4    1    1    2    0  501  0.16651763592E+01 -0.54691310063E-01 -0.62093187130E+01  0.65531932923E+01  0.12700000000E+01 0. -1.
<mgrwt>
<rscale>  0 0.20949233E+01</rscale>
<asrwt>0</asrwt>
<pdfrwt beam="1">0</pdfrwt>
<pdfrwt beam="2">0</pdfrwt>
<totfact> 0.37452456E+12</totfact>
</mgrwt>
</event>
<event>
 4    1  0.1735226E+006  0.2014000E+01  0.7546771E-02  0.2971339E+00
         22   -1    0    0    0    0  0.00000000000E+00  0.00000000000E+00  0.14482865385E+01  0.14482865385E+01  0.00000000000E+00 0. -1.
         22   -1    0    0    0    0 -0.00000000000E+00 -0.00000000000E+00 -0.29468960103E+01  0.29468960103E+01  0.00000000000E+00 0.  1.
          4    1    1    2  501    0 -0.15294611633E+01  0.32256227102E+00 -0.25980666752E+00  0.20306888913E+01  0.12700000000E+01 0. -1.
         -4    1    1    2    0  501  0.15294611633E+01 -0.32256227102E+00 -0.12388028042E+01  0.23644936575E+01  0.12700000000E+01 0.  1.
<mgrwt>
<rscale>  0 0.20140005E+01</rscale>
<asrwt>0</asrwt>
<pdfrwt beam="1">0</pdfrwt>
<pdfrwt beam="2">0</pdfrwt>
<totfact> 0.44297265E+12</totfact>
</mgrwt>
</event>
<event>
 4    1  0.1735226E+006  0.4355104E+01  0.7546771E-02  0.2214153E+00
         22   -1    0    0    0    0  0.00000000000E+00  0.00000000000E+00  0.77576793243E+01  0.77576793243E+01  0.00000000000E+00 0.  1.
         22   -1    0    0    0    0 -0.00000000000E+00 -0.00000000000E+00 -0.39072852023E+01  0.39072852023E+01  0.00000000000E+00 0. -1.
          4    1    1    2  501    0 -0.25294013507E+01 -0.33100093417E+01  0.54933483686E+01  0.70102645694E+01  0.12700000000E+01 0.  1.
         -4    1    1    2    0  501  0.25294013507E+01  0.33100093417E+01 -0.16429542466E+01  0.46546999572E+01  0.12700000000E+01 0. -1.
<mgrwt>
<rscale>  0 0.43551043E+01</rscale>
<asrwt>0</asrwt>
<pdfrwt beam="1">0</pdfrwt>
<pdfrwt beam="2">0</pdfrwt>
<totfact> 0.44483776E+11</totfact>
</mgrwt>
</event>
<event>
 4    1  0.1735226E+006  0.2085486E+01  0.7546771E-02  0.2925319E+00
         22   -1    0    0    0    0  0.00000000000E+00  0.00000000000E+00  0.99601839888E+00  0.99601839888E+00  0.00000000000E+00 0.  1.
         22   -1    0    0    0    0 -0.00000000000E+00 -0.00000000000E+00 -0.93759940916E+01  0.93759940916E+01  0.00000000000E+00 0.  1.
          4    1    1    2  501    0 -0.16390936615E+01  0.22298436368E+00 -0.79806528054E+01  0.82486404491E+01  0.12700000000E+01 0.  1.
         -4    1    1    2    0  501  0.16390936615E+01 -0.22298436368E+00 -0.39932288729E+00  0.21233720414E+01  0.12700000000E+01 0.  1.
<mgrwt>
<rscale>  0 0.20854856E+01</rscale>
<asrwt>0</asrwt>
<pdfrwt beam="1">0</pdfrwt>
<pdfrwt beam="2">0</pdfrwt>
<totfact> 0.17231057E+12</totfact>
</mgrwt>
</event>
<event>
 4    1  0.1735226E+006  0.2434966E+01  0.7546771E-02  0.2737915E+00
         22   -1    0    0    0    0  0.00000000000E+00  0.00000000000E+00  0.18986301640E+01  0.18986301640E+01  0.00000000000E+00 0.  1.
         22   -1    0    0    0    0 -0.00000000000E+00 -0.00000000000E+00 -0.32760791831E+01  0.32760791831E+01  0.00000000000E+00 0.  1.
          4    1    1    2  501    0  0.20765119120E+01  0.65235190883E-01 -0.12908404174E+00  0.24383847196E+01  0.12700000000E+01 0.  1.
         -4    1    1    2    0  501 -0.20765119120E+01 -0.65235190883E-01 -0.12483649774E+01  0.27363246276E+01  0.12700000000E+01 0.  1.
<mgrwt>
<rscale>  0 0.24349656E+01</rscale>
<asrwt>0</asrwt>
<pdfrwt beam="1">0</pdfrwt>
<pdfrwt beam="2">0</pdfrwt>
<totfact> 0.28646363E+12</totfact>
</mgrwt>
</event>
<event>
 4    1  0.1735226E+006  0.2011010E+01  0.7546771E-02  0.2973334E+00
         22   -1    0    0    0    0  0.00000000000E+00  0.00000000000E+00  0.11303847462E+02  0.11303847462E+02  0.00000000000E+00 0. -1.
         22   -1    0    0    0    0 -0.00000000000E+00 -0.00000000000E+00 -0.55799697133E+00  0.55799697133E+00  0.00000000000E+00 0.  1.
          4    1    1    2  501    0 -0.10206356701E+01  0.11787980803E+01  0.89257114686E+01  0.91494528419E+01  0.12700000000E+01 0. -1.
         -4    1    1    2    0  501  0.10206356701E+01 -0.11787980803E+01  0.18201390218E+01  0.27123915911E+01  0.12700000000E+01 0. -1.
<mgrwt>
<rscale>  0 0.20110102E+01</rscale>
<asrwt>0</asrwt>
<pdfrwt beam="1">0</pdfrwt>
<pdfrwt beam="2">0</pdfrwt>
<totfact> 0.26533982E+12</totfact>
</mgrwt>
</event>
<event>
 4    1  0.1735226E+006  0.2940686E+01  0.7546771E-02  0.2541262E+00
         22   -1    0    0    0    0  0.00000000000E+00  0.00000000000E+00  0.59981566572E+00  0.59981566572E+00  0.00000000000E+00 0. -1.
         22   -1    0    0    0    0 -0.00000000000E+00 -0.00000000000E+00 -0.15495903475E+02  0.15495903475E+02  0.00000000000E+00 0.  1.
          4    1    1    2  501    0  0.17424870233E+00 -0.26465775130E+01 -0.95714454561E+01  0.10013001711E+02  0.12700000000E+01 0.  1.
         -4    1    1    2    0  501 -0.17424870233E+00  0.26465775130E+01 -0.53246423533E+01  0.60827174300E+01  0.12700000000E+01 0. -1.
<mgrwt>
<rscale>  0 0.29406862E+01</rscale>
<asrwt>0</asrwt>
<pdfrwt beam="1">0</pdfrwt>
<pdfrwt beam="2">0</pdfrwt>
<totfact> 0.16619742E+12</totfact>
</mgrwt>
</event>
<event>
 4    1  0.1735226E+006  0.2642676E+01  0.7546771E-02  0.2648786E+00
         22   -1    0    0    0    0  0.00000000000E+00  0.00000000000E+00  0.14491188898E+02  0.14491188898E+02  0.00000000000E+00 0. -1.
         22   -1    0    0    0    0 -0.00000000000E+00 -0.00000000000E+00 -0.12002648021E+01  0.12002648021E+01  0.00000000000E+00 0. -1.
          4    1    1    2  501    0  0.13603908348E+01  0.18762124135E+01  0.12715035244E+02  0.12986757004E+02  0.12700000000E+01 0. -1.
         -4    1    1    2    0  501 -0.13603908348E+01 -0.18762124135E+01  0.57588885195E+00  0.27046966953E+01  0.12700000000E+01 0. -1.
<mgrwt>
<rscale>  0 0.26426760E+01</rscale>
<asrwt>0</asrwt>
<pdfrwt beam="1">0</pdfrwt>
<pdfrwt beam="2">0</pdfrwt>
<totfact> 0.81914651E+11</totfact>
</mgrwt>
</event>
<event>
 4    1  0.1735226E+006  0.4491531E+01  0.7546771E-02  0.2192153E+00
         22   -1    0    0    0    0  0.00000000000E+00  0.00000000000E+00  0.53604283166E+01  0.53604283166E+01  0.00000000000E+00 0. -1.
         22   -1    0    0    0    0 -0.00000000000E+00 -0.00000000000E+00 -0.40950924976E+01  0.40950924976E+01  0.00000000000E+00 0.  1.
          4    1    1    2  501    0  0.17337267130E+01 -0.39440002530E+01  0.19780365490E+01  0.49077973572E+01  0.12700000000E+01 0. -1.
         -4    1    1    2    0  501 -0.17337267130E+01  0.39440002530E+01 -0.71270072988E+00  0.45477234570E+01  0.12700000000E+01 0.  1.
<mgrwt>
<rscale>  0 0.44915305E+01</rscale>
<asrwt>0</asrwt>
<pdfrwt beam="1">0</pdfrwt>
<pdfrwt beam="2">0</pdfrwt>
<totfact> 0.65424963E+11</totfact>
</mgrwt>
</event>
<event>
 4    1  0.1735226E+006  0.2606948E+01  0.7546771E-02  0.2663179E+00
         22   -1    0    0    0    0  0.00000000000E+00  0.00000000000E+00  0.26649006724E+00  0.26649006724E+00  0.00000000000E+00 0. -1.
         22   -1    0    0    0    0 -0.00000000000E+00 -0.00000000000E+00 -0.32722834259E+02  0.32722834259E+02  0.00000000000E+00 0.  1.
          4    1    1    2  501    0 -0.21511772737E+01 -0.74546411155E+00 -0.84800822287E+01  0.88717515187E+01  0.12700000000E+01 0. -1.
         -4    1    1    2    0  501  0.21511772737E+01  0.74546411155E+00 -0.23976261963E+02  0.24117572808E+02  0.12700000000E+01 0. -1.
<mgrwt>
<rscale>  0 0.26069485E+01</rscale>
<asrwt>0</asrwt>
<pdfrwt beam="1">0</pdfrwt>
<pdfrwt beam="2">0</pdfrwt>
<totfact> 0.16209695E+12</totfact>
</mgrwt>
</event>
<event>
 4    1  0.1735226E+006  0.2101058E+01  0.7546771E-02  0.2915699E+00
         22   -1    0    0    0    0  0.00000000000E+00  0.00000000000E+00  0.46411112018E+00  0.46411112018E+00  0.00000000000E+00 0.  1.
         22   -1    0    0    0    0 -0.00000000000E+00 -0.00000000000E+00 -0.96115971197E+01  0.96115971197E+01  0.00000000000E+00 0.  1.
          4    1    1    2  501    0 -0.16624322231E+01  0.19458307841E+00 -0.40599097756E+01  0.45713576601E+01  0.12700000000E+01 0.  1.
         -4    1    1    2    0  501  0.16624322231E+01 -0.19458307841E+00 -0.50875762239E+01  0.55043505798E+01  0.12700000000E+01 0.  1.
<mgrwt>
<rscale>  0 0.21010577E+01</rscale>
<asrwt>0</asrwt>
<pdfrwt beam="1">0</pdfrwt>
<pdfrwt beam="2">0</pdfrwt>
<totfact> 0.39774824E+12</totfact>
</mgrwt>
</event>
<event>
 4    1  0.1735226E+006  0.2625782E+01  0.7546771E-02  0.2655547E+00
         22   -1    0    0    0    0  0.00000000000E+00  0.00000000000E+00  0.13633616259E+02  0.13633616259E+02  0.00000000000E+00 0.  1.
         22   -1    0    0    0    0 -0.00000000000E+00 -0.00000000000E+00 -0.50573409005E+00  0.50573409005E+00  0.00000000000E+00 0.  1.
          4    1    1    2  501    0  0.22597026408E+01  0.41901584125E+00  0.65210140019E+01  0.70298189104E+01  0.12700000000E+01 0.  1.
         -4    1    1    2    0  501 -0.22597026408E+01 -0.41901584125E+00  0.66068681668E+01  0.71095314384E+01  0.12700000000E+01 0.  1.
<mgrwt>
<rscale>  0 0.26257818E+01</rscale>
<asrwt>0</asrwt>
<pdfrwt beam="1">0</pdfrwt>
<pdfrwt beam="2">0</pdfrwt>
<totfact> 0.23591194E+12</totfact>
</mgrwt>
</event>
<event>
 4    1  0.1735226E+006  0.3798040E+01  0.7546771E-02  0.2317646E+00
         22   -1    0    0    0    0  0.00000000000E+00  0.00000000000E+00  0.23682443995E+01  0.23682443995E+01  0.00000000000E+00 0.  1.
         22   -1    0    0    0    0 -0.00000000000E+00 -0.00000000000E+00 -0.12623824844E+02  0.12623824844E+02  0.00000000000E+00 0.  1.
          4    1    1    2  501    0 -0.65727257250E+00  0.35185510352E+01  0.26464278470E+00  0.38072489314E+01  0.12700000000E+01 0.  1.
         -4    1    1    2    0  501  0.65727257250E+00 -0.35185510352E+01 -0.10520223229E+02  0.11184820312E+02  0.12700000000E+01 0.  1.
<mgrwt>
<rscale>  0 0.37980401E+01</rscale>
<asrwt>0</asrwt>
<pdfrwt beam="1">0</pdfrwt>
<pdfrwt beam="2">0</pdfrwt>
<totfact> 0.44292895E+11</totfact>
</mgrwt>
</event>
<event>
 4    1  0.1735226E+006  0.4412204E+01  0.7546771E-02  0.2204806E+00
         22   -1    0    0    0    0  0.00000000000E+00  0.00000000000E+00  0.80886522909E+01  0.80886522909E+01  0.00000000000E+00 0.  1.
         22   -1    0    0    0    0 -0.00000000000E+00 -0.00000000000E+00 -0.33930569740E+01  0.33930569740E+01  0.00000000000E+00 0. -1.
          4    1    1    2  501    0  0.37417533918E+01  0.19631411598E+01  0.54429511258E+01  0.70066581632E+01  0.12700000000E+01 0.  1.
         -4    1    1    2    0  501 -0.37417533918E+01 -0.19631411598E+01 -0.74735580890E+00  0.44750511017E+01  0.12700000000E+01 0. -1.
<mgrwt>
<rscale>  0 0.44122037E+01</rscale>
<asrwt>0</asrwt>
<pdfrwt beam="1">0</pdfrwt>
<pdfrwt beam="2">0</pdfrwt>
<totfact> 0.49928538E+11</totfact>
</mgrwt>
</event>
<event>
 4    1  0.1735226E+006  0.5112189E+01  0.7546771E-02  0.2109846E+00
         22   -1    0    0    0    0  0.00000000000E+00  0.00000000000E+00  0.66700566366E+00  0.66700566366E+00  0.00000000000E+00 0.  1.
         22   -1    0    0    0    0 -0.00000000000E+00 -0.00000000000E+00 -0.47312878340E+02  0.47312878340E+02  0.00000000000E+00 0. -1.
          4    1    1    2  501    0 -0.13817154581E+01 -0.47552540385E+01 -0.13377731253E+02  0.14321248970E+02  0.12700000000E+01 0.  1.
         -4    1    1    2    0  501  0.13817154581E+01  0.47552540385E+01 -0.33268141424E+02  0.33658635034E+02  0.12700000000E+01 0. -1.
<mgrwt>
<rscale>  0 0.51121892E+01</rscale>
<asrwt>0</asrwt>
<pdfrwt beam="1">0</pdfrwt>
<pdfrwt beam="2">0</pdfrwt>
<totfact> 0.35748871E+11</totfact>
</mgrwt>
</event>
<event>
 4    1  0.1735226E+006  0.2016794E+01  0.7546771E-02  0.2969481E+00
         22   -1    0    0    0    0  0.00000000000E+00  0.00000000000E+00  0.55247924916E+00  0.55247924916E+00  0.00000000000E+00 0. -1.
         22   -1    0    0    0    0 -0.00000000000E+00 -0.00000000000E+00 -0.76077672821E+01  0.76077672821E+01  0.00000000000E+00 0. -1.
          4    1    1    2  501    0  0.14799411033E+01 -0.51413296162E+00 -0.27945884451E+01  0.34463289090E+01  0.12700000000E+01 0. -1.
         -4    1    1    2    0  501 -0.14799411033E+01  0.51413296162E+00 -0.42606995879E+01  0.47139176223E+01  0.12700000000E+01 0. -1.
<mgrwt>
<rscale>  0 0.20167941E+01</rscale>
<asrwt>0</asrwt>
<pdfrwt beam="1">0</pdfrwt>
<pdfrwt beam="2">0</pdfrwt>
<totfact> 0.43288854E+12</totfact>
</mgrwt>
</event>
<event>
 4    1  0.1735226E+006  0.2151888E+01  0.7546771E-02  0.2885236E+00
         22   -1    0    0    0    0  0.00000000000E+00  0.00000000000E+00  0.82891999630E+00  0.82891999630E+00  0.00000000000E+00 0. -1.
         22   -1    0    0    0    0 -0.00000000000E+00 -0.00000000000E+00 -0.10382403163E+02  0.10382403163E+02  0.00000000000E+00 0. -1.
          4    1    1    2  501    0 -0.17261541539E+01 -0.19522472340E+00 -0.96677804960E+00  0.23590847066E+01  0.12700000000E+01 0. -1.
         -4    1    1    2    0  501  0.17261541539E+01  0.19522472340E+00 -0.85867051170E+01  0.88522384526E+01  0.12700000000E+01 0. -1.
<mgrwt>
<rscale>  0 0.21518877E+01</rscale>
<asrwt>0</asrwt>
<pdfrwt beam="1">0</pdfrwt>
<pdfrwt beam="2">0</pdfrwt>
<totfact> 0.18778117E+12</totfact>
</mgrwt>
</event>
<event>
 4    1  0.1735226E+006  0.2365862E+01  0.7546771E-02  0.2770793E+00
         22   -1    0    0    0    0  0.00000000000E+00  0.00000000000E+00  0.11024647170E+02  0.11024647170E+02  0.00000000000E+00 0. -1.
         22   -1    0    0    0    0 -0.00000000000E+00 -0.00000000000E+00 -0.66496801402E+00  0.66496801402E+00  0.00000000000E+00 0. -1.
          4    1    1    2  501    0  0.19474410232E+01  0.43803661567E+00  0.23374810052E+01  0.33258262229E+01  0.12700000000E+01 0. -1.
         -4    1    1    2    0  501 -0.19474410232E+01 -0.43803661567E+00  0.80221981506E+01  0.83637889610E+01  0.12700000000E+01 0. -1.
<mgrwt>
<rscale>  0 0.23658619E+01</rscale>
<asrwt>0</asrwt>
<pdfrwt beam="1">0</pdfrwt>
<pdfrwt beam="2">0</pdfrwt>
<totfact> 0.22427135E+12</totfact>
</mgrwt>
</event>
<event>
 4    1  0.1735226E+006  0.2353247E+01  0.7546771E-02  0.2776991E+00
         22   -1    0    0    0    0  0.00000000000E+00  0.00000000000E+00  0.18399824697E+02  0.18399824697E+02  0.00000000000E+00 0.  1.
         22   -1    0    0    0    0 -0.00000000000E+00 -0.00000000000E+00 -0.20575054696E+01  0.20575054696E+01  0.00000000000E+00 0.  1.
          4    1    1    2  501    0  0.19751357064E+01  0.15398721961E+00  0.17622144532E+02  0.17778575618E+02  0.12700000000E+01 0.  1.
         -4    1    1    2    0  501 -0.19751357064E+01 -0.15398721961E+00 -0.12798253040E+01  0.26787545485E+01  0.12700000000E+01 0.  1.
<mgrwt>
<rscale>  0 0.23532474E+01</rscale>
<asrwt>0</asrwt>
<pdfrwt beam="1">0</pdfrwt>
<pdfrwt beam="2">0</pdfrwt>
<totfact> 0.32783110E+11</totfact>
</mgrwt>
</event>
<event>
 4    1  0.1735226E+006  0.2157362E+01  0.7546771E-02  0.2882037E+00
         22   -1    0    0    0    0  0.00000000000E+00  0.00000000000E+00  0.46127918924E+02  0.46127918924E+02  0.00000000000E+00 0. -1.
         22   -1    0    0    0    0 -0.00000000000E+00 -0.00000000000E+00 -0.10806717182E+00  0.10806717182E+00  0.00000000000E+00 0. -1.
          4    1    1    2  501    0 -0.53235439276E+00 -0.16606959888E+01  0.28964343673E+02  0.29044576374E+02  0.12700000000E+01 0. -1.
         -4    1    1    2    0  501  0.53235439276E+00  0.16606959888E+01  0.17055508079E+02  0.17191409721E+02  0.12700000000E+01 0. -1.
<mgrwt>
<rscale>  0 0.21573624E+01</rscale>
<asrwt>0</asrwt>
<pdfrwt beam="1">0</pdfrwt>
<pdfrwt beam="2">0</pdfrwt>
<totfact> 0.28382092E+12</totfact>
</mgrwt>
</event>
<event>
 4    1  0.1735226E+006  0.3207390E+01  0.7546771E-02  0.2460445E+00
         22   -1    0    0    0    0  0.00000000000E+00  0.00000000000E+00  0.24562654872E+01  0.24562654872E+01  0.00000000000E+00 0.  1.
         22   -1    0    0    0    0 -0.00000000000E+00 -0.00000000000E+00 -0.53162713705E+01  0.53162713705E+01  0.00000000000E+00 0. -1.
          4    1    1    2  501    0 -0.22503433911E+00  0.29366320893E+01  0.36017479301E+00  0.32275492813E+01  0.12700000000E+01 0.  1.
         -4    1    1    2    0  501  0.22503433911E+00 -0.29366320893E+01 -0.32201806763E+01  0.45449875764E+01  0.12700000000E+01 0. -1.
<mgrwt>
<rscale>  0 0.32073897E+01</rscale>
<asrwt>0</asrwt>
<pdfrwt beam="1">0</pdfrwt>
<pdfrwt beam="2">0</pdfrwt>
<totfact> 0.12014437E+12</totfact>
</mgrwt>
</event>
<event>
 4    1  0.1735226E+006  0.2160518E+01  0.7546771E-02  0.2880201E+00
         22   -1    0    0    0    0  0.00000000000E+00  0.00000000000E+00  0.13513699839E+01  0.13513699839E+01  0.00000000000E+00 0. -1.
         22   -1    0    0    0    0 -0.00000000000E+00 -0.00000000000E+00 -0.51022541259E+01  0.51022541259E+01  0.00000000000E+00 0. -1.
          4    1    1    2  501    0  0.95600943687E+00 -0.14632103755E+01 -0.41504449739E-01  0.21609167651E+01  0.12700000000E+01 0. -1.
         -4    1    1    2    0  501 -0.95600943687E+00  0.14632103755E+01 -0.37093796922E+01  0.42927073447E+01  0.12700000000E+01 0. -1.
<mgrwt>
<rscale>  0 0.21605181E+01</rscale>
<asrwt>0</asrwt>
<pdfrwt beam="1">0</pdfrwt>
<pdfrwt beam="2">0</pdfrwt>
<totfact> 0.25154942E+12</totfact>
</mgrwt>
</event>
<event>
 4    1  0.1735226E+006  0.2222799E+01  0.7546771E-02  0.2844981E+00
         22   -1    0    0    0    0  0.00000000000E+00  0.00000000000E+00  0.44819640803E+00  0.44819640803E+00  0.00000000000E+00 0.  1.
         22   -1    0    0    0    0 -0.00000000000E+00 -0.00000000000E+00 -0.17981120333E+02  0.17981120333E+02  0.00000000000E+00 0. -1.
          4    1    1    2  501    0 -0.41759189740E+00  0.17758247834E+01 -0.30346592759E+01  0.37616477207E+01  0.12700000000E+01 0.  1.
         -4    1    1    2    0  501  0.41759189740E+00 -0.17758247834E+01 -0.14498264649E+02  0.14667669021E+02  0.12700000000E+01 0.  1.
<mgrwt>
<rscale>  0 0.22227993E+01</rscale>
<asrwt>0</asrwt>
<pdfrwt beam="1">0</pdfrwt>
<pdfrwt beam="2">0</pdfrwt>
<totfact> 0.19217965E+12</totfact>
</mgrwt>
</event>
<event>
 4    1  0.1735226E+006  0.3257356E+01  0.7546771E-02  0.2446619E+00
         22   -1    0    0    0    0  0.00000000000E+00  0.00000000000E+00  0.25151091003E+00  0.25151091003E+00  0.00000000000E+00 0.  1.
         22   -1    0    0    0    0 -0.00000000000E+00 -0.00000000000E+00 -0.69521875372E+02  0.69521875372E+02  0.00000000000E+00 0. -1.
          4    1    1    2  501    0 -0.14816029081E+01  0.26081253470E+01 -0.12759500965E+02  0.13168721649E+02  0.12700000000E+01 0.  1.
         -4    1    1    2    0  501  0.14816029081E+01 -0.26081253470E+01 -0.56510863497E+02  0.56604664633E+02  0.12700000000E+01 0. -1.
<mgrwt>
<rscale>  0 0.32573555E+01</rscale>
<asrwt>0</asrwt>
<pdfrwt beam="1">0</pdfrwt>
<pdfrwt beam="2">0</pdfrwt>
<totfact> 0.64170044E+11</totfact>
</mgrwt>
</event>
<event>
 4    1  0.1735226E+006  0.2510700E+01  0.7546771E-02  0.2703832E+00
         22   -1    0    0    0    0  0.00000000000E+00  0.00000000000E+00  0.34526851650E+01  0.34526851650E+01  0.00000000000E+00 0. -1.
         22   -1    0    0    0    0 -0.00000000000E+00 -0.00000000000E+00 -0.23984558610E+01  0.23984558610E+01  0.00000000000E+00 0.  1.
          4    1    1    2  501    0 -0.19401541979E+01  0.96255706907E+00 -0.90251748433E+00  0.26679865503E+01  0.12700000000E+01 0.  1.
         -4    1    1    2    0  501  0.19401541979E+01 -0.96255706907E+00  0.19567467883E+01  0.31831544758E+01  0.12700000000E+01 0. -1.
<mgrwt>
<rscale>  0 0.25107000E+01</rscale>
<asrwt>0</asrwt>
<pdfrwt beam="1">0</pdfrwt>
<pdfrwt beam="2">0</pdfrwt>
<totfact> 0.20545708E+12</totfact>
</mgrwt>
</event>
<event>
 4    1  0.1735226E+006  0.2261377E+01  0.7546771E-02  0.2824098E+00
         22   -1    0    0    0    0  0.00000000000E+00  0.00000000000E+00  0.98308859028E-01  0.98308859028E-01  0.00000000000E+00 0. -1.
         22   -1    0    0    0    0 -0.00000000000E+00 -0.00000000000E+00 -0.56831157491E+02  0.56831157491E+02  0.00000000000E+00 0.  1.
          4    1    1    2  501    0 -0.59105940443E+00  0.17752668724E+01 -0.36650268177E+02  0.36719967063E+02  0.12700000000E+01 0. -1.
         -4    1    1    2    0  501  0.59105940443E+00 -0.17752668724E+01 -0.20082580456E+02  0.20209499288E+02  0.12700000000E+01 0. -1.
<mgrwt>
<rscale>  0 0.22613765E+01</rscale>
<asrwt>0</asrwt>
<pdfrwt beam="1">0</pdfrwt>
<pdfrwt beam="2">0</pdfrwt>
<totfact> 0.23922946E+12</totfact>
</mgrwt>
</event>
<event>
 4    1  0.1735226E+006  0.4966489E+01  0.7546771E-02  0.2127025E+00
         22   -1    0    0    0    0  0.00000000000E+00  0.00000000000E+00  0.34628992837E+02  0.34628992837E+02  0.00000000000E+00 0.  1.
         22   -1    0    0    0    0 -0.00000000000E+00 -0.00000000000E+00 -0.26271660228E+01  0.26271660228E+01  0.00000000000E+00 0. -1.
          4    1    1    2  501    0  0.45078861732E+01 -0.16528989278E+01  0.31904469148E+02  0.32288715742E+02  0.12700000000E+01 0.  1.
         -4    1    1    2    0  501 -0.45078861732E+01  0.16528989278E+01  0.97357665816E-01  0.49674431181E+01  0.12700000000E+01 0. -1.
<mgrwt>
<rscale>  0 0.49664890E+01</rscale>
<asrwt>0</asrwt>
<pdfrwt beam="1">0</pdfrwt>
<pdfrwt beam="2">0</pdfrwt>
<totfact> 0.11108589E+11</totfact>
</mgrwt>
</event>
<event>
 4    1  0.1735226E+006  0.2541620E+01  0.7546771E-02  0.2690461E+00
         22   -1    0    0    0    0  0.00000000000E+00  0.00000000000E+00  0.10903974055E+03  0.10903974055E+03  0.00000000000E+00 0. -1.
         22   -1    0    0    0    0 -0.00000000000E+00 -0.00000000000E+00 -0.20064439708E+00  0.20064439708E+00  0.00000000000E+00 0.  1.
          4    1    1    2  501    0 -0.21464857595E+01 -0.48941680071E+00  0.10027243867E+03  0.10030464489E+03  0.12700000000E+01 0. -1.
         -4    1    1    2    0  501  0.21464857595E+01  0.48941680071E+00  0.85666574883E+01  0.89357400613E+01  0.12700000000E+01 0.  1.
<mgrwt>
<rscale>  0 0.25416195E+01</rscale>
<asrwt>0</asrwt>
<pdfrwt beam="1">0</pdfrwt>
<pdfrwt beam="2">0</pdfrwt>
<totfact> 0.44235798E+11</totfact>
</mgrwt>
</event>
<event>
 4    1  0.1735226E+006  0.2647434E+01  0.7546771E-02  0.2646896E+00
         22   -1    0    0    0    0  0.00000000000E+00  0.00000000000E+00  0.33781249055E+01  0.33781249055E+01  0.00000000000E+00 0.  1.
         22   -1    0    0    0    0 -0.00000000000E+00 -0.00000000000E+00 -0.23745989267E+01  0.23745989267E+01  0.00000000000E+00 0. -1.
          4    1    1    2  501    0  0.23069604804E+01 -0.27191679377E+00  0.15238066987E+01  0.30546509221E+01  0.12700000000E+01 0.  1.
         -4    1    1    2    0  501 -0.23069604804E+01  0.27191679377E+00 -0.52028071988E+00  0.26980729101E+01  0.12700000000E+01 0. -1.
<mgrwt>
<rscale>  0 0.26474337E+01</rscale>
<asrwt>0</asrwt>
<pdfrwt beam="1">0</pdfrwt>
<pdfrwt beam="2">0</pdfrwt>
<totfact> 0.21324599E+12</totfact>
</mgrwt>
</event>
<event>
 4    1  0.1735226E+006  0.3937774E+01  0.7546771E-02  0.2289349E+00
         22   -1    0    0    0    0  0.00000000000E+00  0.00000000000E+00  0.86767992241E+00  0.86767992241E+00  0.00000000000E+00 0.  1.
         22   -1    0    0    0    0 -0.00000000000E+00 -0.00000000000E+00 -0.18000717096E+02  0.18000717096E+02  0.00000000000E+00 0. -1.
          4    1    1    2  501    0 -0.52330118263E+00  0.36904358672E+01 -0.77647768577E+01  0.87061943849E+01  0.12700000000E+01 0.  1.
         -4    1    1    2    0  501  0.52330118263E+00 -0.36904358672E+01 -0.93682603157E+01  0.10162202633E+02  0.12700000000E+01 0. -1.
<mgrwt>
<rscale>  0 0.39377736E+01</rscale>
<asrwt>0</asrwt>
<pdfrwt beam="1">0</pdfrwt>
<pdfrwt beam="2">0</pdfrwt>
<totfact> 0.90796028E+11</totfact>
</mgrwt>
</event>
<event>
 4    1  0.1735226E+006  0.2561855E+01  0.7546771E-02  0.2681873E+00
         22   -1    0    0    0    0  0.00000000000E+00  0.00000000000E+00  0.75211948891E+00  0.75211948891E+00  0.00000000000E+00 0.  1.
         22   -1    0    0    0    0 -0.00000000000E+00 -0.00000000000E+00 -0.66318842165E+02  0.66318842165E+02  0.00000000000E+00 0. -1.
          4    1    1    2  501    0  0.20396586551E+01  0.88881688065E+00 -0.15319393676E+01  0.29849524457E+01  0.12700000000E+01 0.  1.
         -4    1    1    2    0  501 -0.20396586551E+01 -0.88881688065E+00 -0.64034783308E+02  0.64086009208E+02  0.12700000000E+01 0. -1.
<mgrwt>
<rscale>  0 0.25618554E+01</rscale>
<asrwt>0</asrwt>
<pdfrwt beam="1">0</pdfrwt>
<pdfrwt beam="2">0</pdfrwt>
<totfact> 0.19898183E+11</totfact>
</mgrwt>
</event>
<event>
 4    1  0.1735226E+006  0.2358032E+01  0.7546771E-02  0.2774633E+00
         22   -1    0    0    0    0  0.00000000000E+00  0.00000000000E+00  0.11307666325E+03  0.11307666325E+03  0.00000000000E+00 0. -1.
         22   -1    0    0    0    0 -0.00000000000E+00 -0.00000000000E+00 -0.77633856096E-01  0.77633856096E-01  0.00000000000E+00 0.  1.
          4    1    1    2  501    0  0.79910010943E+00 -0.18190253640E+01  0.90755760000E+02  0.90786388228E+02  0.12700000000E+01 0. -1.
         -4    1    1    2    0  501 -0.79910010943E+00  0.18190253640E+01  0.22243269390E+02  0.22367908875E+02  0.12700000000E+01 0.  1.
<mgrwt>
<rscale>  0 0.23580319E+01</rscale>
<asrwt>0</asrwt>
<pdfrwt beam="1">0</pdfrwt>
<pdfrwt beam="2">0</pdfrwt>
<totfact> 0.12046670E+12</totfact>
</mgrwt>
</event>
<event>
 4    1  0.1735226E+006  0.2364698E+01  0.7546771E-02  0.2771363E+00
         22   -1    0    0    0    0  0.00000000000E+00  0.00000000000E+00  0.73872548928E+01  0.73872548928E+01  0.00000000000E+00 0. -1.
         22   -1    0    0    0    0 -0.00000000000E+00 -0.00000000000E+00 -0.15377874224E+01  0.15377874224E+01  0.00000000000E+00 0.  1.
          4    1    1    2  501    0 -0.19792862539E+01 -0.24762948594E+00  0.61046230222E+01  0.65466187211E+01  0.12700000000E+01 0.  1.
         -4    1    1    2    0  501  0.19792862539E+01  0.24762948594E+00 -0.25515555174E+00  0.23784235941E+01  0.12700000000E+01 0. -1.
<mgrwt>
<rscale>  0 0.23646975E+01</rscale>
<asrwt>0</asrwt>
<pdfrwt beam="1">0</pdfrwt>
<pdfrwt beam="2">0</pdfrwt>
<totfact> 0.13952263E+12</totfact>
</mgrwt>
</event>
<event>
 4    1  0.1735226E+006  0.2051585E+01  0.7546771E-02  0.2946754E+00
         22   -1    0    0    0    0  0.00000000000E+00  0.00000000000E+00  0.18931895833E+01  0.18931895833E+01  0.00000000000E+00 0.  1.
         22   -1    0    0    0    0 -0.00000000000E+00 -0.00000000000E+00 -0.82646040736E+01  0.82646040736E+01  0.00000000000E+00 0. -1.
          4    1    1    2  501    0 -0.50048317510E+00 -0.15315402672E+01  0.11566561874E+01  0.23551756908E+01  0.12700000000E+01 0.  1.
         -4    1    1    2    0  501  0.50048317510E+00  0.15315402672E+01 -0.75280706776E+01  0.78026179662E+01  0.12700000000E+01 0. -1.
<mgrwt>
<rscale>  0 0.20515845E+01</rscale>
<asrwt>0</asrwt>
<pdfrwt beam="1">0</pdfrwt>
<pdfrwt beam="2">0</pdfrwt>
<totfact> 0.95925598E+11</totfact>
</mgrwt>
</event>
<event>
 4    1  0.1735226E+006  0.2875874E+01  0.7546771E-02  0.2562922E+00
         22   -1    0    0    0    0  0.00000000000E+00  0.00000000000E+00  0.12264663234E+02  0.12264663234E+02  0.00000000000E+00 0. -1.
         22   -1    0    0    0    0 -0.00000000000E+00 -0.00000000000E+00 -0.27548569462E+01  0.27548569462E+01  0.00000000000E+00 0.  1.
          4    1    1    2  501    0 -0.24648277271E+01  0.76313717085E+00  0.11281117074E+02  0.11641918077E+02  0.12700000000E+01 0. -1.
         -4    1    1    2    0  501  0.24648277271E+01 -0.76313717085E+00 -0.17713107865E+01  0.33776021033E+01  0.12700000000E+01 0.  1.
<mgrwt>
<rscale>  0 0.28758745E+01</rscale>
<asrwt>0</asrwt>
<pdfrwt beam="1">0</pdfrwt>
<pdfrwt beam="2">0</pdfrwt>
<totfact> 0.38477653E+11</totfact>
</mgrwt>
</event>
<event>
 4    1  0.1735226E+006  0.3619786E+01  0.7546771E-02  0.2356454E+00
         22   -1    0    0    0    0  0.00000000000E+00  0.00000000000E+00  0.41837460443E+02  0.41837460443E+02  0.00000000000E+00 0.  1.
         22   -1    0    0    0    0 -0.00000000000E+00 -0.00000000000E+00 -0.43155901139E+00  0.43155901139E+00  0.00000000000E+00 0. -1.
          4    1    1    2  501    0 -0.12181775344E+00 -0.33874930871E+01  0.31771761664E+02  0.31977299577E+02  0.12700000000E+01 0.  1.
         -4    1    1    2    0  501  0.12181775344E+00  0.33874930871E+01  0.96341397675E+01  0.10291719878E+02  0.12700000000E+01 0. -1.
<mgrwt>
<rscale>  0 0.36197858E+01</rscale>
<asrwt>0</asrwt>
<pdfrwt beam="1">0</pdfrwt>
<pdfrwt beam="2">0</pdfrwt>
<totfact> 0.68684996E+11</totfact>
</mgrwt>
</event>
<event>
 4    1  0.1735226E+006  0.2341114E+01  0.7546771E-02  0.2783012E+00
         22   -1    0    0    0    0  0.00000000000E+00  0.00000000000E+00  0.25737659268E+01  0.25737659268E+01  0.00000000000E+00 0.  1.
         22   -1    0    0    0    0 -0.00000000000E+00 -0.00000000000E+00 -0.25523273812E+01  0.25523273812E+01  0.00000000000E+00 0. -1.
          4    1    1    2  501    0 -0.18301466485E+01  0.72005362711E+00  0.10539346400E+01  0.25674096296E+01  0.12700000000E+01 0.  1.
         -4    1    1    2    0  501  0.18301466485E+01 -0.72005362711E+00 -0.10324960945E+01  0.25586836784E+01  0.12700000000E+01 0. -1.
<mgrwt>
<rscale>  0 0.23411138E+01</rscale>
<asrwt>0</asrwt>
<pdfrwt beam="1">0</pdfrwt>
<pdfrwt beam="2">0</pdfrwt>
<totfact> 0.26936332E+12</totfact>
</mgrwt>
</event>
<event>
 4    1  0.1735226E+006  0.2610407E+01  0.7546771E-02  0.2661770E+00
         22   -1    0    0    0    0  0.00000000000E+00  0.00000000000E+00  0.24081245308E+01  0.24081245308E+01  0.00000000000E+00 0. -1.
         22   -1    0    0    0    0 -0.00000000000E+00 -0.00000000000E+00 -0.11691864269E+02  0.11691864269E+02  0.00000000000E+00 0.  1.
          4    1    1    2  501    0 -0.21778235522E+01 -0.67705810650E+00  0.14959941754E+01  0.30086910239E+01  0.12700000000E+01 0. -1.
         -4    1    1    2    0  501  0.21778235522E+01  0.67705810650E+00 -0.10779733913E+02  0.11091297776E+02  0.12700000000E+01 0.  1.
<mgrwt>
<rscale>  0 0.26104067E+01</rscale>
<asrwt>0</asrwt>
<pdfrwt beam="1">0</pdfrwt>
<pdfrwt beam="2">0</pdfrwt>
<totfact> 0.47701219E+11</totfact>
</mgrwt>
</event>
<event>
 4    1  0.1735226E+006  0.3149406E+01  0.7546771E-02  0.2476975E+00
         22   -1    0    0    0    0  0.00000000000E+00  0.00000000000E+00  0.14463856639E+01  0.14463856639E+01  0.00000000000E+00 0.  1.
         22   -1    0    0    0    0 -0.00000000000E+00 -0.00000000000E+00 -0.84887175307E+01  0.84887175307E+01  0.00000000000E+00 0. -1.
          4    1    1    2  501    0 -0.28722053416E+01 -0.23726789738E+00 -0.13436484574E+01  0.34240547245E+01  0.12700000000E+01 0.  1.
         -4    1    1    2    0  501  0.28722053416E+01  0.23726789738E+00 -0.56986834094E+01  0.65110484701E+01  0.12700000000E+01 0. -1.
<mgrwt>
<rscale>  0 0.31494062E+01</rscale>
<asrwt>0</asrwt>
<pdfrwt beam="1">0</pdfrwt>
<pdfrwt beam="2">0</pdfrwt>
<totfact> 0.12670276E+12</totfact>
</mgrwt>
</event>
<event>
 4    1  0.1735226E+006  0.7078156E+01  0.7546771E-02  0.1934649E+00
         22   -1    0    0    0    0  0.00000000000E+00  0.00000000000E+00  0.17818462317E+01  0.17818462317E+01  0.00000000000E+00 0.  1.
         22   -1    0    0    0    0 -0.00000000000E+00 -0.00000000000E+00 -0.34639888841E+02  0.34639888841E+02  0.00000000000E+00 0. -1.
          4    1    1    2  501    0  0.61752889889E+01  0.32176395834E+01 -0.85266035190E+01  0.11081663510E+02  0.12700000000E+01 0.  1.
         -4    1    1    2    0  501 -0.61752889889E+01 -0.32176395834E+01 -0.24331439090E+02  0.25340071563E+02  0.12700000000E+01 0. -1.
<mgrwt>
<rscale>  0 0.70781564E+01</rscale>
<asrwt>0</asrwt>
<pdfrwt beam="1">0</pdfrwt>
<pdfrwt beam="2">0</pdfrwt>
<totfact> 0.17417707E+11</totfact>
</mgrwt>
</event>
<event>
 4    1  0.1735226E+006  0.2017201E+01  0.7546771E-02  0.2969211E+00
         22   -1    0    0    0    0  0.00000000000E+00  0.00000000000E+00  0.85968050491E+00  0.85968050491E+00  0.00000000000E+00 0. -1.
         22   -1    0    0    0    0 -0.00000000000E+00 -0.00000000000E+00 -0.51910473384E+01  0.51910473384E+01  0.00000000000E+00 0. -1.
          4    1    1    2  501    0  0.80951611734E+00  0.13419694169E+01 -0.12672659172E+01  0.23822386877E+01  0.12700000000E+01 0. -1.
         -4    1    1    2    0  501 -0.80951611734E+00 -0.13419694169E+01 -0.30641009162E+01  0.36684891556E+01  0.12700000000E+01 0. -1.
<mgrwt>
<rscale>  0 0.20172006E+01</rscale>
<asrwt>0</asrwt>
<pdfrwt beam="1">0</pdfrwt>
<pdfrwt beam="2">0</pdfrwt>
<totfact> 0.41338991E+12</totfact>
</mgrwt>
</event>
<event>
 4    1  0.1735226E+006  0.2156763E+01  0.7546771E-02  0.2882387E+00
         22   -1    0    0    0    0  0.00000000000E+00  0.00000000000E+00  0.33704461010E+02  0.33704461010E+02  0.00000000000E+00 0.  1.
         22   -1    0    0    0    0 -0.00000000000E+00 -0.00000000000E+00 -0.19759192650E+00  0.19759192650E+00  0.00000000000E+00 0. -1.
          4    1    1    2  501    0 -0.93960070355E+00  0.14682904891E+01  0.26061527182E+02  0.26150618071E+02  0.12700000000E+01 0.  1.
         -4    1    1    2    0  501  0.93960070355E+00 -0.14682904891E+01  0.74453419018E+01  0.77514348657E+01  0.12700000000E+01 0. -1.
<mgrwt>
<rscale>  0 0.21567630E+01</rscale>
<asrwt>0</asrwt>
<pdfrwt beam="1">0</pdfrwt>
<pdfrwt beam="2">0</pdfrwt>
<totfact> 0.21799902E+12</totfact>
</mgrwt>
</event>
<event>
 4    1  0.1735226E+006  0.2474790E+01  0.7546771E-02  0.2719750E+00
         22   -1    0    0    0    0  0.00000000000E+00  0.00000000000E+00  0.17178509712E+01  0.17178509712E+01  0.00000000000E+00 0.  1.
         22   -1    0    0    0    0 -0.00000000000E+00 -0.00000000000E+00 -0.52352110777E+01  0.52352110777E+01  0.00000000000E+00 0. -1.
          4    1    1    2  501    0  0.21019454738E+01  0.30579362492E+00  0.20482014142E+00  0.24832510558E+01  0.12700000000E+01 0.  1.
         -4    1    1    2    0  501 -0.21019454738E+01 -0.30579362492E+00 -0.37221802479E+01  0.44698109931E+01  0.12700000000E+01 0. -1.
<mgrwt>
<rscale>  0 0.24747898E+01</rscale>
<asrwt>0</asrwt>
<pdfrwt beam="1">0</pdfrwt>
<pdfrwt beam="2">0</pdfrwt>
<totfact> 0.18512084E+12</totfact>
</mgrwt>
</event>
<event>
 4    1  0.1735226E+006  0.2247520E+01  0.7546771E-02  0.2831520E+00
         22   -1    0    0    0    0  0.00000000000E+00  0.00000000000E+00  0.30742200137E+01  0.30742200137E+01  0.00000000000E+00 0.  1.
         22   -1    0    0    0    0 -0.00000000000E+00 -0.00000000000E+00 -0.18801156444E+01  0.18801156444E+01  0.00000000000E+00 0. -1.
          4    1    1    2  501    0 -0.98361466202E+00  0.15719256597E+01  0.14765255534E+01  0.26891403446E+01  0.12700000000E+01 0.  1.
         -4    1    1    2    0  501  0.98361466202E+00 -0.15719256597E+01 -0.28242118405E+00  0.22651953135E+01  0.12700000000E+01 0.  1.
<mgrwt>
<rscale>  0 0.22475204E+01</rscale>
<asrwt>0</asrwt>
<pdfrwt beam="1">0</pdfrwt>
<pdfrwt beam="2">0</pdfrwt>
<totfact> 0.31209611E+12</totfact>
</mgrwt>
</event>
<event>
 4    1  0.1735226E+006  0.2254022E+01  0.7546771E-02  0.2828026E+00
         22   -1    0    0    0    0  0.00000000000E+00  0.00000000000E+00  0.16536210895E+01  0.16536210895E+01  0.00000000000E+00 0. -1.
         22   -1    0    0    0    0 -0.00000000000E+00 -0.00000000000E+00 -0.17081854592E+02  0.17081854592E+02  0.00000000000E+00 0.  1.
          4    1    1    2  501    0 -0.17661286304E+01  0.59034240669E+00  0.76943199423E+00  0.23817304822E+01  0.12700000000E+01 0. -1.
         -4    1    1    2    0  501  0.17661286304E+01 -0.59034240669E+00 -0.16197665497E+02  0.16353745199E+02  0.12700000000E+01 0.  1.
<mgrwt>
<rscale>  0 0.22540218E+01</rscale>
<asrwt>0</asrwt>
<pdfrwt beam="1">0</pdfrwt>
<pdfrwt beam="2">0</pdfrwt>
<totfact> 0.46272751E+11</totfact>
</mgrwt>
</event>
<event>
 4    1  0.1735226E+006  0.2622832E+01  0.7546771E-02  0.2656735E+00
         22   -1    0    0    0    0  0.00000000000E+00  0.00000000000E+00  0.53161429766E+02  0.53161429766E+02  0.00000000000E+00 0. -1.
         22   -1    0    0    0    0 -0.00000000000E+00 -0.00000000000E+00 -0.23754766596E+00  0.23754766596E+00  0.00000000000E+00 0.  1.
          4    1    1    2  501    0  0.22337409040E+01 -0.52606922792E+00  0.44476770693E+02  0.44554038858E+02  0.12700000000E+01 0. -1.
         -4    1    1    2    0  501 -0.22337409040E+01  0.52606922792E+00  0.84471114065E+01  0.88449385737E+01  0.12700000000E+01 0.  1.
<mgrwt>
<rscale>  0 0.26228319E+01</rscale>
<asrwt>0</asrwt>
<pdfrwt beam="1">0</pdfrwt>
<pdfrwt beam="2">0</pdfrwt>
<totfact> 0.97999134E+11</totfact>
</mgrwt>
</event>
<event>
 4    1  0.1735226E+006  0.2057263E+01  0.7546771E-02  0.2943115E+00
         22   -1    0    0    0    0  0.00000000000E+00  0.00000000000E+00  0.26338791135E+01  0.26338791135E+01  0.00000000000E+00 0. -1.
         22   -1    0    0    0    0 -0.00000000000E+00 -0.00000000000E+00 -0.16176050246E+01  0.16176050246E+01  0.00000000000E+00 0. -1.
          4    1    1    2  501    0  0.15155501465E+01 -0.56792461481E+00  0.33505547067E+00  0.20843686773E+01  0.12700000000E+01 0. -1.
         -4    1    1    2    0  501 -0.15155501465E+01  0.56792461481E+00  0.68121861822E+00  0.21671154608E+01  0.12700000000E+01 0. -1.
<mgrwt>
<rscale>  0 0.20572629E+01</rscale>
<asrwt>0</asrwt>
<pdfrwt beam="1">0</pdfrwt>
<pdfrwt beam="2">0</pdfrwt>
<totfact> 0.44461185E+12</totfact>
</mgrwt>
</event>
<event>
 4    1  0.1735226E+006  0.2106632E+01  0.7546771E-02  0.2912289E+00
         22   -1    0    0    0    0  0.00000000000E+00  0.00000000000E+00  0.51991435620E+00  0.51991435620E+00  0.00000000000E+00 0.  1.
         22   -1    0    0    0    0 -0.00000000000E+00 -0.00000000000E+00 -0.85439711591E+01  0.85439711591E+01  0.00000000000E+00 0.  1.
          4    1    1    2  501    0 -0.15269305974E+01  0.70248337716E+00 -0.41519320946E+01  0.46557963940E+01  0.12700000000E+01 0.  1.
         -4    1    1    2    0  501  0.15269305974E+01 -0.70248337716E+00 -0.38721247084E+01  0.44080891213E+01  0.12700000000E+01 0.  1.
<mgrwt>
<rscale>  0 0.21066324E+01</rscale>
<asrwt>0</asrwt>
<pdfrwt beam="1">0</pdfrwt>
<pdfrwt beam="2">0</pdfrwt>
<totfact> 0.40331308E+12</totfact>
</mgrwt>
</event>
<event>
 4    1  0.1735226E+006  0.2229802E+01  0.7546771E-02  0.2841139E+00
         22   -1    0    0    0    0  0.00000000000E+00  0.00000000000E+00  0.14981035132E+02  0.14981035132E+02  0.00000000000E+00 0.  1.
         22   -1    0    0    0    0 -0.00000000000E+00 -0.00000000000E+00 -0.37336116392E+00  0.37336116392E+00  0.00000000000E+00 0. -1.
          4    1    1    2  501    0 -0.10820950502E+01 -0.14792527936E+01  0.98625660444E+01  0.10111489876E+02  0.12700000000E+01 0.  1.
         -4    1    1    2    0  501  0.10820950502E+01  0.14792527936E+01  0.47451079242E+01  0.52429064208E+01  0.12700000000E+01 0. -1.
<mgrwt>
<rscale>  0 0.22298024E+01</rscale>
<asrwt>0</asrwt>
<pdfrwt beam="1">0</pdfrwt>
<pdfrwt beam="2">0</pdfrwt>
<totfact> 0.29579413E+12</totfact>
</mgrwt>
</event>
<event>
 4    1  0.1735226E+006  0.6628515E+01  0.7546771E-02  0.1967519E+00
         22   -1    0    0    0    0  0.00000000000E+00  0.00000000000E+00  0.35436023276E+01  0.35436023276E+01  0.00000000000E+00 0. -1.
         22   -1    0    0    0    0 -0.00000000000E+00 -0.00000000000E+00 -0.12511120601E+02  0.12511120601E+02  0.00000000000E+00 0.  1.
          4    1    1    2  501    0  0.61490581776E+01 -0.21244738803E+01 -0.37239168951E+01  0.76029443495E+01  0.12700000000E+01 0. -1.
         -4    1    1    2    0  501 -0.61490581776E+01  0.21244738803E+01 -0.52436013787E+01  0.84517785796E+01  0.12700000000E+01 0.  1.
<mgrwt>
<rscale>  0 0.66285146E+01</rscale>
<asrwt>0</asrwt>
<pdfrwt beam="1">0</pdfrwt>
<pdfrwt beam="2">0</pdfrwt>
<totfact> 0.27976853E+11</totfact>
</mgrwt>
</event>
<event>
 4    1  0.1735226E+006  0.2786808E+01  0.7546771E-02  0.2594170E+00
         22   -1    0    0    0    0  0.00000000000E+00  0.00000000000E+00  0.96305364724E+00  0.96305364724E+00  0.00000000000E+00 0.  1.
         22   -1    0    0    0    0 -0.00000000000E+00 -0.00000000000E+00 -0.83625379406E+01  0.83625379406E+01  0.00000000000E+00 0.  1.
          4    1    1    2  501    0 -0.84501576477E+00 -0.23322412818E+01 -0.28191020196E+01  0.39640430416E+01  0.12700000000E+01 0.  1.
         -4    1    1    2    0  501  0.84501576477E+00  0.23322412818E+01 -0.45803822737E+01  0.53615485461E+01  0.12700000000E+01 0.  1.
<mgrwt>
<rscale>  0 0.27868084E+01</rscale>
<asrwt>0</asrwt>
<pdfrwt beam="1">0</pdfrwt>
<pdfrwt beam="2">0</pdfrwt>
<totfact> 0.20555594E+12</totfact>
</mgrwt>
</event>
<event>
 4    1  0.1735226E+006  0.2171138E+01  0.7546771E-02  0.2874058E+00
         22   -1    0    0    0    0  0.00000000000E+00  0.00000000000E+00  0.47712771679E+01  0.47712771679E+01  0.00000000000E+00 0.  1.
         22   -1    0    0    0    0 -0.00000000000E+00 -0.00000000000E+00 -0.12741989208E+01  0.12741989208E+01  0.00000000000E+00 0. -1.
          4    1    1    2  501    0  0.16831553394E+01 -0.51761818958E+00  0.31812043792E+01  0.38514804672E+01  0.12700000000E+01 0.  1.
         -4    1    1    2    0  501 -0.16831553394E+01  0.51761818958E+00  0.31587386779E+00  0.21939956215E+01  0.12700000000E+01 0. -1.
<mgrwt>
<rscale>  0 0.21711381E+01</rscale>
<asrwt>0</asrwt>
<pdfrwt beam="1">0</pdfrwt>
<pdfrwt beam="2">0</pdfrwt>
<totfact> 0.29134409E+12</totfact>
</mgrwt>
</event>
<event>
 4    1  0.1735226E+006  0.2202170E+01  0.7546771E-02  0.2856436E+00
         22   -1    0    0    0    0  0.00000000000E+00  0.00000000000E+00  0.17529376567E+00  0.17529376567E+00  0.00000000000E+00 0. -1.
         22   -1    0    0    0    0 -0.00000000000E+00 -0.00000000000E+00 -0.48723752461E+02  0.48723752461E+02  0.00000000000E+00 0. -1.
          4    1    1    2  501    0 -0.88395718538E+00 -0.15669304230E+01 -0.82006183899E+01  0.84911538222E+01  0.12700000000E+01 0. -1.
         -4    1    1    2    0  501  0.88395718538E+00  0.15669304230E+01 -0.40347840306E+02  0.40407892405E+02  0.12700000000E+01 0. -1.
<mgrwt>
<rscale>  0 0.22021697E+01</rscale>
<asrwt>0</asrwt>
<pdfrwt beam="1">0</pdfrwt>
<pdfrwt beam="2">0</pdfrwt>
<totfact> 0.15433540E+12</totfact>
</mgrwt>
</event>
<event>
 4    1  0.1735226E+006  0.2703376E+01  0.7546771E-02  0.2625136E+00
         22   -1    0    0    0    0  0.00000000000E+00  0.00000000000E+00  0.22648791531E+02  0.22648791531E+02  0.00000000000E+00 0.  1.
         22   -1    0    0    0    0 -0.00000000000E+00 -0.00000000000E+00 -0.35602199685E+00  0.35602199685E+00  0.00000000000E+00 0.  1.
          4    1    1    2  501    0 -0.11953336450E+01  0.20655549096E+01  0.14666581530E+02  0.14913646548E+02  0.12700000000E+01 0.  1.
         -4    1    1    2    0  501  0.11953336450E+01 -0.20655549096E+01  0.76261880041E+01  0.80911669790E+01  0.12700000000E+01 0.  1.
<mgrwt>
<rscale>  0 0.27033756E+01</rscale>
<asrwt>0</asrwt>
<pdfrwt beam="1">0</pdfrwt>
<pdfrwt beam="2">0</pdfrwt>
<totfact> 0.18673960E+12</totfact>
</mgrwt>
</event>
<event>
 4    1  0.1735226E+006  0.3520358E+01  0.7546771E-02  0.2379572E+00
         22   -1    0    0    0    0  0.00000000000E+00  0.00000000000E+00  0.45005363625E+00  0.45005363625E+00  0.00000000000E+00 0.  1.
         22   -1    0    0    0    0 -0.00000000000E+00 -0.00000000000E+00 -0.33021256611E+02  0.33021256611E+02  0.00000000000E+00 0.  1.
          4    1    1    2  501    0 -0.58913202192E+00 -0.32300064126E+01 -0.94649918975E+01  0.10098464714E+02  0.12700000000E+01 0.  1.
         -4    1    1    2    0  501  0.58913202192E+00  0.32300064126E+01 -0.23106211077E+02  0.23372845533E+02  0.12700000000E+01 0.  1.
<mgrwt>
<rscale>  0 0.35203576E+01</rscale>
<asrwt>0</asrwt>
<pdfrwt beam="1">0</pdfrwt>
<pdfrwt beam="2">0</pdfrwt>
<totfact> 0.88932267E+11</totfact>
</mgrwt>
</event>
<event>
 4    1  0.1735226E+006  0.2185229E+01  0.7546771E-02  0.2865997E+00
         22   -1    0    0    0    0  0.00000000000E+00  0.00000000000E+00  0.29780236265E+01  0.29780236265E+01  0.00000000000E+00 0. -1.
         22   -1    0    0    0    0 -0.00000000000E+00 -0.00000000000E+00 -0.21577529781E+01  0.21577529781E+01  0.00000000000E+00 0. -1.
          4    1    1    2  501    0  0.81924766191E+00  0.15783403096E+01  0.17116049085E+01  0.27757550734E+01  0.12700000000E+01 0. -1.
         -4    1    1    2    0  501 -0.81924766191E+00 -0.15783403096E+01 -0.89133426012E+00  0.23600215312E+01  0.12700000000E+01 0. -1.
<mgrwt>
<rscale>  0 0.21852288E+01</rscale>
<asrwt>0</asrwt>
<pdfrwt beam="1">0</pdfrwt>
<pdfrwt beam="2">0</pdfrwt>
<totfact> 0.27616530E+12</totfact>
</mgrwt>
</event>
<event>
 4    1  0.1735226E+006  0.4562400E+01  0.7546771E-02  0.2181161E+00
         22   -1    0    0    0    0  0.00000000000E+00  0.00000000000E+00  0.55967945286E+01  0.55967945286E+01  0.00000000000E+00 0.  1.
         22   -1    0    0    0    0 -0.00000000000E+00 -0.00000000000E+00 -0.42784914276E+01  0.42784914276E+01  0.00000000000E+00 0. -1.
          4    1    1    2  501    0 -0.43756486034E+01  0.23725575605E+00  0.24444090679E+01  0.51759662562E+01  0.12700000000E+01 0.  1.
         -4    1    1    2    0  501  0.43756486034E+01 -0.23725575605E+00 -0.11261059668E+01  0.46993197000E+01  0.12700000000E+01 0. -1.
<mgrwt>
<rscale>  0 0.45623997E+01</rscale>
<asrwt>0</asrwt>
<pdfrwt beam="1">0</pdfrwt>
<pdfrwt beam="2">0</pdfrwt>
<totfact> 0.59030933E+11</totfact>
</mgrwt>
</event>
<event>
 4    1  0.1735226E+006  0.1049963E+02  0.7546771E-02  0.1758812E+00
         22   -1    0    0    0    0  0.00000000000E+00  0.00000000000E+00  0.26806207257E+02  0.26806207257E+02  0.00000000000E+00 0. -1.
         22   -1    0    0    0    0 -0.00000000000E+00 -0.00000000000E+00 -0.87076742151E+01  0.87076742151E+01  0.00000000000E+00 0.  1.
          4    1    1    2  501    0  0.10033677767E+02  0.28203846631E+01  0.21948537704E+02  0.24330648707E+02  0.12700000000E+01 0. -1.
         -4    1    1    2    0  501 -0.10033677767E+02 -0.28203846631E+01 -0.38500046618E+01  0.11183232765E+02  0.12700000000E+01 0.  1.
<mgrwt>
<rscale>  0 0.10499627E+02</rscale>
<asrwt>0</asrwt>
<pdfrwt beam="1">0</pdfrwt>
<pdfrwt beam="2">0</pdfrwt>
<totfact> 0.37303091E+10</totfact>
</mgrwt>
</event>
<event>
 4    1  0.1735226E+006  0.2185693E+01  0.7546771E-02  0.2865733E+00
         22   -1    0    0    0    0  0.00000000000E+00  0.00000000000E+00  0.26192596570E+01  0.26192596570E+01  0.00000000000E+00 0.  1.
         22   -1    0    0    0    0 -0.00000000000E+00 -0.00000000000E+00 -0.24445866480E+01  0.24445866480E+01  0.00000000000E+00 0. -1.
          4    1    1    2  501    0  0.46320826917E+00 -0.17174961102E+01  0.13631456966E+01  0.25759310898E+01  0.12700000000E+01 0.  1.
         -4    1    1    2    0  501 -0.46320826917E+00  0.17174961102E+01 -0.11884726875E+01  0.24879152152E+01  0.12700000000E+01 0. -1.
<mgrwt>
<rscale>  0 0.21856932E+01</rscale>
<asrwt>0</asrwt>
<pdfrwt beam="1">0</pdfrwt>
<pdfrwt beam="2">0</pdfrwt>
<totfact> 0.27749531E+12</totfact>
</mgrwt>
</event>
<event>
 4    1  0.1735226E+006  0.2259077E+01  0.7546771E-02  0.2825324E+00
         22   -1    0    0    0    0  0.00000000000E+00  0.00000000000E+00  0.19464344299E+01  0.19464344299E+01  0.00000000000E+00 0. -1.
         22   -1    0    0    0    0 -0.00000000000E+00 -0.00000000000E+00 -0.26630943787E+01  0.26630943787E+01  0.00000000000E+00 0.  1.
          4    1    1    2  501    0 -0.21004166852E+00  0.18564508679E+01 -0.71806535748E-01  0.22602175794E+01  0.12700000000E+01 0. -1.
         -4    1    1    2    0  501  0.21004166852E+00 -0.18564508679E+01 -0.64485341307E+00  0.23493112293E+01  0.12700000000E+01 0.  1.
<mgrwt>
<rscale>  0 0.22590767E+01</rscale>
<asrwt>0</asrwt>
<pdfrwt beam="1">0</pdfrwt>
<pdfrwt beam="2">0</pdfrwt>
<totfact> 0.35451334E+12</totfact>
</mgrwt>
</event>
<event>
 4    1  0.1735226E+006  0.2048356E+01  0.7546771E-02  0.2948831E+00
         22   -1    0    0    0    0  0.00000000000E+00  0.00000000000E+00  0.37027550850E+02  0.37027550850E+02  0.00000000000E+00 0.  1.
         22   -1    0    0    0    0 -0.00000000000E+00 -0.00000000000E+00 -0.11509559590E+00  0.11509559590E+00  0.00000000000E+00 0. -1.
          4    1    1    2  501    0  0.14686622419E+01  0.65260472374E+00  0.16146045086E+02  0.16275458016E+02  0.12700000000E+01 0. -1.
         -4    1    1    2    0  501 -0.14686622419E+01 -0.65260472374E+00  0.20766410168E+02  0.20867188430E+02  0.12700000000E+01 0.  1.
<mgrwt>
<rscale>  0 0.20483559E+01</rscale>
<asrwt>0</asrwt>
<pdfrwt beam="1">0</pdfrwt>
<pdfrwt beam="2">0</pdfrwt>
<totfact> 0.35225227E+12</totfact>
</mgrwt>
</event>
<event>
 4    1  0.1735226E+006  0.2139612E+01  0.7546771E-02  0.2892465E+00
         22   -1    0    0    0    0  0.00000000000E+00  0.00000000000E+00  0.50937936481E+02  0.50937936481E+02  0.00000000000E+00 0.  1.
         22   -1    0    0    0    0 -0.00000000000E+00 -0.00000000000E+00 -0.10570485377E+00  0.10570485377E+00  0.00000000000E+00 0. -1.
          4    1    1    2  501    0  0.27344880567E+00  0.17000775431E+01  0.35293274438E+02  0.35358070627E+02  0.12700000000E+01 0. -1.
         -4    1    1    2    0  501 -0.27344880567E+00 -0.17000775431E+01  0.15538957189E+02  0.15685570707E+02  0.12700000000E+01 0.  1.
<mgrwt>
<rscale>  0 0.21396116E+01</rscale>
<asrwt>0</asrwt>
<pdfrwt beam="1">0</pdfrwt>
<pdfrwt beam="2">0</pdfrwt>
<totfact> 0.25526561E+12</totfact>
</mgrwt>
</event>
<event>
 4    1  0.1735226E+006  0.5543714E+01  0.7546771E-02  0.2063199E+00
         22   -1    0    0    0    0  0.00000000000E+00  0.00000000000E+00  0.20531745095E+01  0.20531745095E+01  0.00000000000E+00 0. -1.
         22   -1    0    0    0    0 -0.00000000000E+00 -0.00000000000E+00 -0.54486539323E+02  0.54486539323E+02  0.00000000000E+00 0.  1.
          4    1    1    2  501    0  0.53941783023E+01 -0.15070128207E+00 -0.21410805130E+01  0.59428104628E+01  0.12700000000E+01 0. -1.
         -4    1    1    2    0  501 -0.53941783023E+01  0.15070128207E+00 -0.50292284300E+02  0.50596903370E+02  0.12700000000E+01 0.  1.
<mgrwt>
<rscale>  0 0.55437145E+01</rscale>
<asrwt>0</asrwt>
<pdfrwt beam="1">0</pdfrwt>
<pdfrwt beam="2">0</pdfrwt>
<totfact> 0.81836780E+10</totfact>
</mgrwt>
</event>
<event>
 4    1  0.1735226E+006  0.2124779E+01  0.7546771E-02  0.2901307E+00
         22   -1    0    0    0    0  0.00000000000E+00  0.00000000000E+00  0.17762674784E+00  0.17762674784E+00  0.00000000000E+00 0. -1.
         22   -1    0    0    0    0 -0.00000000000E+00 -0.00000000000E+00 -0.32896862915E+02  0.32896862915E+02  0.00000000000E+00 0.  1.
          4    1    1    2  501    0  0.16461643763E+01 -0.43809630400E+00 -0.84738957560E+01  0.87362231432E+01  0.12700000000E+01 0. -1.
         -4    1    1    2    0  501 -0.16461643763E+01  0.43809630400E+00 -0.24245340411E+02  0.24338266520E+02  0.12700000000E+01 0.  1.
<mgrwt>
<rscale>  0 0.21247789E+01</rscale>
<asrwt>0</asrwt>
<pdfrwt beam="1">0</pdfrwt>
<pdfrwt beam="2">0</pdfrwt>
<totfact> 0.25323571E+12</totfact>
</mgrwt>
</event>
<event>
 4    1  0.1735226E+006  0.2460270E+01  0.7546771E-02  0.2726309E+00
         22   -1    0    0    0    0  0.00000000000E+00  0.00000000000E+00  0.20109416090E+02  0.20109416090E+02  0.00000000000E+00 0. -1.
         22   -1    0    0    0    0 -0.00000000000E+00 -0.00000000000E+00 -0.35600841406E+00  0.35600841406E+00  0.00000000000E+00 0.  1.
          4    1    1    2  501    0 -0.20988922688E+01 -0.18622498474E+00  0.13899021072E+02  0.14115088213E+02  0.12700000000E+01 0. -1.
         -4    1    1    2    0  501  0.20988922688E+01  0.18622498474E+00  0.58543866040E+01  0.63503362911E+01  0.12700000000E+01 0.  1.
<mgrwt>
<rscale>  0 0.24602700E+01</rscale>
<asrwt>0</asrwt>
<pdfrwt beam="1">0</pdfrwt>
<pdfrwt beam="2">0</pdfrwt>
<totfact> 0.21669912E+12</totfact>
</mgrwt>
</event>
<event>
 4    1  0.1735226E+006  0.2992989E+01  0.7546771E-02  0.2524400E+00
         22   -1    0    0    0    0  0.00000000000E+00  0.00000000000E+00  0.25035829834E+01  0.25035829834E+01  0.00000000000E+00 0.  1.
         22   -1    0    0    0    0 -0.00000000000E+00 -0.00000000000E+00 -0.38064930971E+01  0.38064930971E+01  0.00000000000E+00 0. -1.
          4    1    1    2  501    0 -0.55966542765E+00  0.26517646336E+01  0.12143450013E+00  0.29954511180E+01  0.12700000000E+01 0.  1.
         -4    1    1    2    0  501  0.55966542765E+00 -0.26517646336E+01 -0.14243446139E+01  0.33146249625E+01  0.12700000000E+01 0. -1.
<mgrwt>
<rscale>  0 0.29929887E+01</rscale>
<asrwt>0</asrwt>
<pdfrwt beam="1">0</pdfrwt>
<pdfrwt beam="2">0</pdfrwt>
<totfact> 0.17431733E+12</totfact>
</mgrwt>
</event>
<event>
 4    1  0.1735226E+006  0.2254615E+01  0.7546771E-02  0.2827709E+00
         22   -1    0    0    0    0  0.00000000000E+00  0.00000000000E+00  0.76495007338E+00  0.76495007338E+00  0.00000000000E+00 0.  1.
         22   -1    0    0    0    0 -0.00000000000E+00 -0.00000000000E+00 -0.14758217535E+02  0.14758217535E+02  0.00000000000E+00 0. -1.
          4    1    1    2  501    0 -0.10278814657E+01  0.15536564655E+01 -0.12419280385E+01  0.25740384560E+01  0.12700000000E+01 0.  1.
         -4    1    1    2    0  501  0.10278814657E+01 -0.15536564655E+01 -0.12751339423E+02  0.12949129152E+02  0.12700000000E+01 0. -1.
<mgrwt>
<rscale>  0 0.22546150E+01</rscale>
<asrwt>0</asrwt>
<pdfrwt beam="1">0</pdfrwt>
<pdfrwt beam="2">0</pdfrwt>
<totfact> 0.13392287E+12</totfact>
</mgrwt>
</event>
<event>
 4    1  0.1735226E+006  0.3288368E+01  0.7546771E-02  0.2438224E+00
         22   -1    0    0    0    0  0.00000000000E+00  0.00000000000E+00  0.54326656937E+00  0.54326656937E+00  0.00000000000E+00 0. -1.
         22   -1    0    0    0    0 -0.00000000000E+00 -0.00000000000E+00 -0.22023272632E+02  0.22023272632E+02  0.00000000000E+00 0. -1.
          4    1    1    2  501    0 -0.28329404326E+01  0.10839350258E+01 -0.14239872392E+02  0.14614627343E+02  0.12700000000E+01 0. -1.
         -4    1    1    2    0  501  0.28329404326E+01 -0.10839350258E+01 -0.72401336708E+01  0.79519118585E+01  0.12700000000E+01 0. -1.
<mgrwt>
<rscale>  0 0.32883684E+01</rscale>
<asrwt>0</asrwt>
<pdfrwt beam="1">0</pdfrwt>
<pdfrwt beam="2">0</pdfrwt>
<totfact> 0.12012095E+12</totfact>
</mgrwt>
</event>
<event>
 4    1  0.1735226E+006  0.2460337E+01  0.7546771E-02  0.2726279E+00
         22   -1    0    0    0    0  0.00000000000E+00  0.00000000000E+00  0.33120065977E+01  0.33120065977E+01  0.00000000000E+00 0.  1.
         22   -1    0    0    0    0 -0.00000000000E+00 -0.00000000000E+00 -0.19263092135E+01  0.19263092135E+01  0.00000000000E+00 0. -1.
          4    1    1    2  501    0 -0.30308798787E+00 -0.20853047396E+01  0.10016711226E+00  0.24623752021E+01  0.12700000000E+01 0. -1.
         -4    1    1    2    0  501  0.30308798787E+00  0.20853047396E+01  0.12855302720E+01  0.27759406092E+01  0.12700000000E+01 0.  1.
<mgrwt>
<rscale>  0 0.24603370E+01</rscale>
<asrwt>0</asrwt>
<pdfrwt beam="1">0</pdfrwt>
<pdfrwt beam="2">0</pdfrwt>
<totfact> 0.27813514E+12</totfact>
</mgrwt>
</event>
<event>
 4    1  0.1735226E+006  0.4488529E+01  0.7546771E-02  0.2192624E+00
         22   -1    0    0    0    0  0.00000000000E+00  0.00000000000E+00  0.13147511619E+02  0.13147511619E+02  0.00000000000E+00 0.  1.
         22   -1    0    0    0    0 -0.00000000000E+00 -0.00000000000E+00 -0.28509123279E+01  0.28509123279E+01  0.00000000000E+00 0. -1.
          4    1    1    2  501    0  0.42429390235E+01  0.72901577928E+00  0.10588335619E+02  0.11500423764E+02  0.12700000000E+01 0.  1.
         -4    1    1    2    0  501 -0.42429390235E+01 -0.72901577928E+00 -0.29173632786E+00  0.44980001832E+01  0.12700000000E+01 0. -1.
<mgrwt>
<rscale>  0 0.44885293E+01</rscale>
<asrwt>0</asrwt>
<pdfrwt beam="1">0</pdfrwt>
<pdfrwt beam="2">0</pdfrwt>
<totfact> 0.33959527E+11</totfact>
</mgrwt>
</event>
<event>
 4    1  0.1735226E+006  0.2387205E+01  0.7546771E-02  0.2760448E+00
         22   -1    0    0    0    0  0.00000000000E+00  0.00000000000E+00  0.43929411118E+01  0.43929411118E+01  0.00000000000E+00 0. -1.
         22   -1    0    0    0    0 -0.00000000000E+00 -0.00000000000E+00 -0.14074681582E+01  0.14074681582E+01  0.00000000000E+00 0.  1.
          4    1    1    2  501    0 -0.15683091171E+01  0.12752459653E+01  0.23043226257E+01  0.33179283480E+01  0.12700000000E+01 0. -1.
         -4    1    1    2    0  501  0.15683091171E+01 -0.12752459653E+01  0.68115032790E+00  0.24824809220E+01  0.12700000000E+01 0.  1.
<mgrwt>
<rscale>  0 0.23872046E+01</rscale>
<asrwt>0</asrwt>
<pdfrwt beam="1">0</pdfrwt>
<pdfrwt beam="2">0</pdfrwt>
<totfact> 0.28654797E+12</totfact>
</mgrwt>
</event>
<event>
 4    1  0.1735226E+006  0.2677614E+01  0.7546771E-02  0.2635053E+00
         22   -1    0    0    0    0  0.00000000000E+00  0.00000000000E+00  0.11112042745E+01  0.11112042745E+01  0.00000000000E+00 0. -1.
         22   -1    0    0    0    0 -0.00000000000E+00 -0.00000000000E+00 -0.21241688114E+02  0.21241688114E+02  0.00000000000E+00 0.  1.
          4    1    1    2  501    0  0.15354487097E+01 -0.17886065004E+01 -0.73942122681E+00  0.27778336350E+01  0.12700000000E+01 0. -1.
         -4    1    1    2    0  501 -0.15354487097E+01  0.17886065004E+01 -0.19391062613E+02  0.19575058753E+02  0.12700000000E+01 0.  1.
<mgrwt>
<rscale>  0 0.26776139E+01</rscale>
<asrwt>0</asrwt>
<pdfrwt beam="1">0</pdfrwt>
<pdfrwt beam="2">0</pdfrwt>
<totfact> 0.55699318E+11</totfact>
</mgrwt>
</event>
<event>
 4    1  0.1735226E+006  0.2282583E+01  0.7546771E-02  0.2812905E+00
         22   -1    0    0    0    0  0.00000000000E+00  0.00000000000E+00  0.15532930691E+00  0.15532930691E+00  0.00000000000E+00 0.  1.
         22   -1    0    0    0    0 -0.00000000000E+00 -0.00000000000E+00 -0.36247313075E+02  0.36247313075E+02  0.00000000000E+00 0. -1.
          4    1    1    2  501    0  0.47846817057E+00  0.18353075992E+01 -0.13074273759E+02  0.13272031499E+02  0.12700000000E+01 0. -1.
         -4    1    1    2    0  501 -0.47846817057E+00 -0.18353075992E+01 -0.23017710009E+02  0.23130610883E+02  0.12700000000E+01 0.  1.
<mgrwt>
<rscale>  0 0.22825831E+01</rscale>
<asrwt>0</asrwt>
<pdfrwt beam="1">0</pdfrwt>
<pdfrwt beam="2">0</pdfrwt>
<totfact> 0.25956341E+12</totfact>
</mgrwt>
</event>
<event>
 4    1  0.1735226E+006  0.3943948E+01  0.7546771E-02  0.2288139E+00
         22   -1    0    0    0    0  0.00000000000E+00  0.00000000000E+00  0.25288857289E+01  0.25288857289E+01  0.00000000000E+00 0.  1.
         22   -1    0    0    0    0 -0.00000000000E+00 -0.00000000000E+00 -0.74587346573E+01  0.74587346573E+01  0.00000000000E+00 0. -1.
          4    1    1    2  501    0  0.37253415769E+01 -0.25229669888E+00 -0.37375616140E+00  0.39616179973E+01  0.12700000000E+01 0.  1.
         -4    1    1    2    0  501 -0.37253415769E+01  0.25229669888E+00 -0.45560927670E+01  0.60260023888E+01  0.12700000000E+01 0. -1.
<mgrwt>
<rscale>  0 0.39439477E+01</rscale>
<asrwt>0</asrwt>
<pdfrwt beam="1">0</pdfrwt>
<pdfrwt beam="2">0</pdfrwt>
<totfact> 0.77564269E+11</totfact>
</mgrwt>
</event>
<event>
 4    1  0.1735226E+006  0.2124828E+01  0.7546771E-02  0.2901278E+00
         22   -1    0    0    0    0  0.00000000000E+00  0.00000000000E+00  0.20273642103E+01  0.20273642103E+01  0.00000000000E+00 0.  1.
         22   -1    0    0    0    0 -0.00000000000E+00 -0.00000000000E+00 -0.28512871759E+01  0.28512871759E+01  0.00000000000E+00 0. -1.
          4    1    1    2  501    0 -0.16329880970E+00  0.16956792018E+01  0.72946868555E+00  0.22465571481E+01  0.12700000000E+01 0.  1.
         -4    1    1    2    0  501  0.16329880970E+00 -0.16956792018E+01 -0.15533916512E+01  0.26320942381E+01  0.12700000000E+01 0. -1.
<mgrwt>
<rscale>  0 0.21248281E+01</rscale>
<asrwt>0</asrwt>
<pdfrwt beam="1">0</pdfrwt>
<pdfrwt beam="2">0</pdfrwt>
<totfact> 0.31230152E+12</totfact>
</mgrwt>
</event>
<event>
 4    1  0.1735226E+006  0.2242724E+01  0.7546771E-02  0.2834110E+00
         22   -1    0    0    0    0  0.00000000000E+00  0.00000000000E+00  0.15727441615E+01  0.15727441615E+01  0.00000000000E+00 0.  1.
         22   -1    0    0    0    0 -0.00000000000E+00 -0.00000000000E+00 -0.33555844270E+01  0.33555844270E+01  0.00000000000E+00 0. -1.
          4    1    1    2  501    0  0.15700905625E+01 -0.97556448349E+00 -0.35760708382E+00  0.22710555393E+01  0.12700000000E+01 0. -1.
         -4    1    1    2    0  501 -0.15700905625E+01  0.97556448349E+00 -0.14252331817E+01  0.26572730492E+01  0.12700000000E+01 0.  1.
<mgrwt>
<rscale>  0 0.22427239E+01</rscale>
<asrwt>0</asrwt>
<pdfrwt beam="1">0</pdfrwt>
<pdfrwt beam="2">0</pdfrwt>
<totfact> 0.34612579E+12</totfact>
</mgrwt>
</event>
<event>
 4    1  0.1735226E+006  0.2105787E+01  0.7546771E-02  0.2912805E+00
         22   -1    0    0    0    0  0.00000000000E+00  0.00000000000E+00  0.11370842208E+01  0.11370842208E+01  0.00000000000E+00 0.  1.
         22   -1    0    0    0    0 -0.00000000000E+00 -0.00000000000E+00 -0.56187731926E+01  0.56187731926E+01  0.00000000000E+00 0.  1.
          4    1    1    2  501    0 -0.14298855808E+01 -0.88140022726E+00 -0.37243889542E+00  0.21384690472E+01  0.12700000000E+01 0.  1.
         -4    1    1    2    0  501  0.14298855808E+01  0.88140022726E+00 -0.41092500764E+01  0.46173883663E+01  0.12700000000E+01 0.  1.
<mgrwt>
<rscale>  0 0.21057871E+01</rscale>
<asrwt>0</asrwt>
<pdfrwt beam="1">0</pdfrwt>
<pdfrwt beam="2">0</pdfrwt>
<totfact> 0.27346064E+12</totfact>
</mgrwt>
</event>
<event>
 4    1  0.1735226E+006  0.4338123E+01  0.7546771E-02  0.2216973E+00
         22   -1    0    0    0    0  0.00000000000E+00  0.00000000000E+00  0.16184522033E+02  0.16184522033E+02  0.00000000000E+00 0. -1.
         22   -1    0    0    0    0 -0.00000000000E+00 -0.00000000000E+00 -0.13324524669E+01  0.13324524669E+01  0.00000000000E+00 0.  1.
          4    1    1    2  501    0 -0.40827790246E+01 -0.73302431099E+00  0.10551304630E+02  0.11408301302E+02  0.12700000000E+01 0.  1.
         -4    1    1    2    0  501  0.40827790246E+01  0.73302431099E+00  0.43007649365E+01  0.61086731983E+01  0.12700000000E+01 0. -1.
<mgrwt>
<rscale>  0 0.43381228E+01</rscale>
<asrwt>0</asrwt>
<pdfrwt beam="1">0</pdfrwt>
<pdfrwt beam="2">0</pdfrwt>
<totfact> 0.63418341E+11</totfact>
</mgrwt>
</event>
<event>
 4    1  0.1735226E+006  0.3154358E+01  0.7546771E-02  0.2475543E+00
         22   -1    0    0    0    0  0.00000000000E+00  0.00000000000E+00  0.12188174073E+02  0.12188174073E+02  0.00000000000E+00 0.  1.
         22   -1    0    0    0    0 -0.00000000000E+00 -0.00000000000E+00 -0.89533622240E+00  0.89533622240E+00  0.00000000000E+00 0. -1.
          4    1    1    2  501    0  0.27309002572E+01 -0.93768742921E+00  0.75892776948E+01  0.82187048772E+01  0.12700000000E+01 0.  1.
         -4    1    1    2    0  501 -0.27309002572E+01  0.93768742921E+00  0.37035601561E+01  0.48648054185E+01  0.12700000000E+01 0. -1.
<mgrwt>
<rscale>  0 0.31543579E+01</rscale>
<asrwt>0</asrwt>
<pdfrwt beam="1">0</pdfrwt>
<pdfrwt beam="2">0</pdfrwt>
<totfact> 0.14153221E+12</totfact>
</mgrwt>
</event>
<event>
 4    1  0.1735226E+006  0.2603243E+01  0.7546771E-02  0.2664692E+00
         22   -1    0    0    0    0  0.00000000000E+00  0.00000000000E+00  0.15425131869E+02  0.15425131869E+02  0.00000000000E+00 0. -1.
         22   -1    0    0    0    0 -0.00000000000E+00 -0.00000000000E+00 -0.46210007958E+00  0.46210007958E+00  0.00000000000E+00 0. -1.
          4    1    1    2  501    0 -0.22311644683E+01 -0.43113804863E+00  0.92444605317E+01  0.96040056968E+01  0.12700000000E+01 0. -1.
         -4    1    1    2    0  501  0.22311644683E+01  0.43113804863E+00  0.57185712574E+01  0.62832262515E+01  0.12700000000E+01 0. -1.
<mgrwt>
<rscale>  0 0.26032432E+01</rscale>
<asrwt>0</asrwt>
<pdfrwt beam="1">0</pdfrwt>
<pdfrwt beam="2">0</pdfrwt>
<totfact> 0.22443479E+12</totfact>
</mgrwt>
</event>
<event>
 4    1  0.1735226E+006  0.2938472E+01  0.7546771E-02  0.2541988E+00
         22   -1    0    0    0    0  0.00000000000E+00  0.00000000000E+00  0.58624819728E+01  0.58624819728E+01  0.00000000000E+00 0. -1.
         22   -1    0    0    0    0 -0.00000000000E+00 -0.00000000000E+00 -0.23291695530E+01  0.23291695530E+01  0.00000000000E+00 0.  1.
          4    1    1    2  501    0 -0.20209811173E+01 -0.17138712371E+01  0.42501103154E+01  0.51670162557E+01  0.12700000000E+01 0. -1.
         -4    1    1    2    0  501  0.20209811173E+01  0.17138712371E+01 -0.71679789558E+00  0.30246352701E+01  0.12700000000E+01 0.  1.
<mgrwt>
<rscale>  0 0.29384723E+01</rscale>
<asrwt>0</asrwt>
<pdfrwt beam="1">0</pdfrwt>
<pdfrwt beam="2">0</pdfrwt>
<totfact> 0.11377909E+12</totfact>
</mgrwt>
</event>
<event>
 4    1  0.1735226E+006  0.2381382E+01  0.7546771E-02  0.2763253E+00
         22   -1    0    0    0    0  0.00000000000E+00  0.00000000000E+00  0.22159401667E+01  0.22159401667E+01  0.00000000000E+00 0. -1.
         22   -1    0    0    0    0 -0.00000000000E+00 -0.00000000000E+00 -0.35821062886E+01  0.35821062886E+01  0.00000000000E+00 0. -1.
          4    1    1    2  501    0  0.36616749046E+00  0.19809094318E+01  0.86610980384E+00  0.25339942779E+01  0.12700000000E+01 0. -1.
         -4    1    1    2    0  501 -0.36616749046E+00 -0.19809094318E+01 -0.22322759258E+01  0.32640521774E+01  0.12700000000E+01 0. -1.
<mgrwt>
<rscale>  0 0.23813821E+01</rscale>
<asrwt>0</asrwt>
<pdfrwt beam="1">0</pdfrwt>
<pdfrwt beam="2">0</pdfrwt>
<totfact> 0.21571607E+12</totfact>
</mgrwt>
</event>
<event>
 4    1  0.1735226E+006  0.2205085E+01  0.7546771E-02  0.2854805E+00
         22   -1    0    0    0    0  0.00000000000E+00  0.00000000000E+00  0.32089761624E+01  0.32089761624E+01  0.00000000000E+00 0.  1.
         22   -1    0    0    0    0 -0.00000000000E+00 -0.00000000000E+00 -0.46163054741E+01  0.46163054741E+01  0.00000000000E+00 0.  1.
          4    1    1    2  501    0  0.16527572348E+01 -0.71964771952E+00  0.25031770181E+01  0.33359098461E+01  0.12700000000E+01 0.  1.
         -4    1    1    2    0  501 -0.16527572348E+01  0.71964771952E+00 -0.39105063298E+01  0.44893717905E+01  0.12700000000E+01 0.  1.
<mgrwt>
<rscale>  0 0.22050849E+01</rscale>
<asrwt>0</asrwt>
<pdfrwt beam="1">0</pdfrwt>
<pdfrwt beam="2">0</pdfrwt>
<totfact> 0.10395528E+12</totfact>
</mgrwt>
</event>
<event>
 4    1  0.1735226E+006  0.2843621E+01  0.7546771E-02  0.2574033E+00
         22   -1    0    0    0    0  0.00000000000E+00  0.00000000000E+00  0.21490022009E+00  0.21490022009E+00  0.00000000000E+00 0.  1.
         22   -1    0    0    0    0 -0.00000000000E+00 -0.00000000000E+00 -0.71070465265E+02  0.71070465265E+02  0.00000000000E+00 0. -1.
          4    1    1    2  501    0  0.24911501641E+01 -0.51715845365E+00 -0.10977860963E+02  0.11340176954E+02  0.12700000000E+01 0.  1.
         -4    1    1    2    0  501 -0.24911501641E+01  0.51715845365E+00 -0.59877704082E+02  0.59945188532E+02  0.12700000000E+01 0. -1.
<mgrwt>
<rscale>  0 0.28436213E+01</rscale>
<asrwt>0</asrwt>
<pdfrwt beam="1">0</pdfrwt>
<pdfrwt beam="2">0</pdfrwt>
<totfact> 0.74249928E+11</totfact>
</mgrwt>
</event>
<event>
 4    1  0.1735226E+006  0.3153101E+01  0.7546771E-02  0.2475906E+00
         22   -1    0    0    0    0  0.00000000000E+00  0.00000000000E+00  0.53848520966E+00  0.53848520966E+00  0.00000000000E+00 0. -1.
         22   -1    0    0    0    0 -0.00000000000E+00 -0.00000000000E+00 -0.18811908997E+02  0.18811908997E+02  0.00000000000E+00 0.  1.
          4    1    1    2  501    0 -0.28448341689E+01  0.48586450336E+00 -0.78190403400E+01  0.84308622099E+01  0.12700000000E+01 0. -1.
         -4    1    1    2    0  501  0.28448341689E+01 -0.48586450336E+00 -0.10454383448E+02  0.10919531997E+02  0.12700000000E+01 0.  1.
<mgrwt>
<rscale>  0 0.31531010E+01</rscale>
<asrwt>0</asrwt>
<pdfrwt beam="1">0</pdfrwt>
<pdfrwt beam="2">0</pdfrwt>
<totfact> 0.14770273E+12</totfact>
</mgrwt>
</event>
<event>
 4    1  0.1735226E+006  0.2166317E+01  0.7546771E-02  0.2876839E+00
         22   -1    0    0    0    0  0.00000000000E+00  0.00000000000E+00  0.44956335558E+01  0.44956335558E+01  0.00000000000E+00 0.  1.
         22   -1    0    0    0    0 -0.00000000000E+00 -0.00000000000E+00 -0.52672494748E+01  0.52672494748E+01  0.00000000000E+00 0.  1.
          4    1    1    2  501    0 -0.61539789750E+00 -0.16435682745E+01  0.39852377641E+01  0.45359730248E+01  0.12700000000E+01 0.  1.
         -4    1    1    2    0  501  0.61539789750E+00  0.16435682745E+01 -0.47568536831E+01  0.52269100057E+01  0.12700000000E+01 0.  1.
<mgrwt>
<rscale>  0 0.21663174E+01</rscale>
<asrwt>0</asrwt>
<pdfrwt beam="1">0</pdfrwt>
<pdfrwt beam="2">0</pdfrwt>
<totfact> 0.59835747E+11</totfact>
</mgrwt>
</event>
<event>
 4    1  0.1735226E+006  0.2193465E+01  0.7546771E-02  0.2861331E+00
         22   -1    0    0    0    0  0.00000000000E+00  0.00000000000E+00  0.34495813721E+01  0.34495813721E+01  0.00000000000E+00 0.  1.
         22   -1    0    0    0    0 -0.00000000000E+00 -0.00000000000E+00 -0.35072241562E+01  0.35072241562E+01  0.00000000000E+00 0.  1.
          4    1    1    2  501    0  0.12186484100E+01  0.13089242222E+01  0.26707468851E+01  0.34560346484E+01  0.12700000000E+01 0.  1.
         -4    1    1    2    0  501 -0.12186484100E+01 -0.13089242222E+01 -0.27283896692E+01  0.35007708799E+01  0.12700000000E+01 0.  1.
<mgrwt>
<rscale>  0 0.21934645E+01</rscale>
<asrwt>0</asrwt>
<pdfrwt beam="1">0</pdfrwt>
<pdfrwt beam="2">0</pdfrwt>
<totfact> 0.13198342E+12</totfact>
</mgrwt>
</event>
<event>
 4    1  0.1735226E+006  0.2582173E+01  0.7546771E-02  0.2673375E+00
         22   -1    0    0    0    0  0.00000000000E+00  0.00000000000E+00  0.28364025775E+01  0.28364025775E+01  0.00000000000E+00 0.  1.
         22   -1    0    0    0    0 -0.00000000000E+00 -0.00000000000E+00 -0.24585833037E+01  0.24585833037E+01  0.00000000000E+00 0.  1.
          4    1    1    2  501    0 -0.15945175430E+01  0.15850022488E+01  0.74341770799E+00  0.26870593987E+01  0.12700000000E+01 0.  1.
         -4    1    1    2    0  501  0.15945175430E+01 -0.15850022488E+01 -0.36559843424E+00  0.26079264826E+01  0.12700000000E+01 0.  1.
<mgrwt>
<rscale>  0 0.25821732E+01</rscale>
<asrwt>0</asrwt>
<pdfrwt beam="1">0</pdfrwt>
<pdfrwt beam="2">0</pdfrwt>
<totfact> 0.25123400E+12</totfact>
</mgrwt>
</event>
<event>
 4    1  0.1735226E+006  0.3173450E+01  0.7546771E-02  0.2470056E+00
         22   -1    0    0    0    0  0.00000000000E+00  0.00000000000E+00  0.18449309909E+02  0.18449309909E+02  0.00000000000E+00 0.  1.
         22   -1    0    0    0    0 -0.00000000000E+00 -0.00000000000E+00 -0.57039082222E+00  0.57039082222E+00  0.00000000000E+00 0.  1.
          4    1    1    2  501    0 -0.28970205839E+01  0.25525412281E+00  0.10911532692E+02  0.11363640641E+02  0.12700000000E+01 0.  1.
         -4    1    1    2    0  501  0.28970205839E+01 -0.25525412281E+00  0.69673863954E+01  0.76560600908E+01  0.12700000000E+01 0.  1.
<mgrwt>
<rscale>  0 0.31734497E+01</rscale>
<asrwt>0</asrwt>
<pdfrwt beam="1">0</pdfrwt>
<pdfrwt beam="2">0</pdfrwt>
<totfact> 0.14178164E+12</totfact>
</mgrwt>
</event>
<event>
 4    1  0.1735226E+006  0.5492246E+01  0.7546771E-02  0.2068458E+00
         22   -1    0    0    0    0  0.00000000000E+00  0.00000000000E+00  0.11023473946E+01  0.11023473946E+01  0.00000000000E+00 0. -1.
         22   -1    0    0    0    0 -0.00000000000E+00 -0.00000000000E+00 -0.31747541104E+02  0.31747541104E+02  0.00000000000E+00 0.  1.
          4    1    1    2  501    0 -0.53136055270E+01 -0.56343592668E+00 -0.92194253643E+01  0.10731382380E+02  0.12700000000E+01 0. -1.
         -4    1    1    2    0  501  0.53136055270E+01  0.56343592668E+00 -0.21425768345E+02  0.22118506118E+02  0.12700000000E+01 0.  1.
<mgrwt>
<rscale>  0 0.54922458E+01</rscale>
<asrwt>0</asrwt>
<pdfrwt beam="1">0</pdfrwt>
<pdfrwt beam="2">0</pdfrwt>
<totfact> 0.33822203E+11</totfact>
</mgrwt>
</event>
<event>
 4    1  0.1735226E+006  0.2396245E+01  0.7546771E-02  0.2756118E+00
         22   -1    0    0    0    0  0.00000000000E+00  0.00000000000E+00  0.39451177879E+01  0.39451177879E+01  0.00000000000E+00 0. -1.
         22   -1    0    0    0    0 -0.00000000000E+00 -0.00000000000E+00 -0.21176028911E+01  0.21176028911E+01  0.00000000000E+00 0.  1.
          4    1    1    2  501    0 -0.12922911920E+01  0.15681428357E+01  0.26088323408E+01  0.35423148731E+01  0.12700000000E+01 0. -1.
         -4    1    1    2    0  501  0.12922911920E+01 -0.15681428357E+01 -0.78131744397E+00  0.25204058059E+01  0.12700000000E+01 0.  1.
<mgrwt>
<rscale>  0 0.23962447E+01</rscale>
<asrwt>0</asrwt>
<pdfrwt beam="1">0</pdfrwt>
<pdfrwt beam="2">0</pdfrwt>
<totfact> 0.20299697E+12</totfact>
</mgrwt>
</event>
<event>
 4    1  0.1735226E+006  0.2053275E+01  0.7546771E-02  0.2945668E+00
         22   -1    0    0    0    0  0.00000000000E+00  0.00000000000E+00  0.13086487313E+02  0.13086487313E+02  0.00000000000E+00 0. -1.
         22   -1    0    0    0    0 -0.00000000000E+00 -0.00000000000E+00 -0.32219056487E+00  0.32219056487E+00  0.00000000000E+00 0.  1.
          4    1    1    2  501    0  0.44090307248E+00 -0.15519806653E+01  0.64477126094E+01  0.67667523524E+01  0.12700000000E+01 0.  1.
         -4    1    1    2    0  501 -0.44090307248E+00  0.15519806653E+01  0.63165841391E+01  0.66419255259E+01  0.12700000000E+01 0. -1.
<mgrwt>
<rscale>  0 0.20532753E+01</rscale>
<asrwt>0</asrwt>
<pdfrwt beam="1">0</pdfrwt>
<pdfrwt beam="2">0</pdfrwt>
<totfact> 0.41203683E+12</totfact>
</mgrwt>
</event>
<event>
 4    1  0.1735226E+006  0.2909081E+01  0.7546771E-02  0.2551716E+00
         22   -1    0    0    0    0  0.00000000000E+00  0.00000000000E+00  0.28394649350E+02  0.28394649350E+02  0.00000000000E+00 0. -1.
         22   -1    0    0    0    0 -0.00000000000E+00 -0.00000000000E+00 -0.30516472689E+00  0.30516472689E+00  0.00000000000E+00 0.  1.
          4    1    1    2  501    0  0.21010089636E+01 -0.15606458572E+01  0.16237306028E+02  0.16495843755E+02  0.12700000000E+01 0.  1.
         -4    1    1    2    0  501 -0.21010089636E+01  0.15606458572E+01  0.11852178595E+02  0.12203970322E+02  0.12700000000E+01 0. -1.
<mgrwt>
<rscale>  0 0.29090813E+01</rscale>
<asrwt>0</asrwt>
<pdfrwt beam="1">0</pdfrwt>
<pdfrwt beam="2">0</pdfrwt>
<totfact> 0.16689137E+12</totfact>
</mgrwt>
</event>
<event>
 4    1  0.1735226E+006  0.2445561E+01  0.7546771E-02  0.2733028E+00
         22   -1    0    0    0    0  0.00000000000E+00  0.00000000000E+00  0.29147339557E+02  0.29147339557E+02  0.00000000000E+00 0. -1.
         22   -1    0    0    0    0 -0.00000000000E+00 -0.00000000000E+00 -0.20691958884E+00  0.20691958884E+00  0.00000000000E+00 0.  1.
          4    1    1    2  501    0 -0.10943994871E+01  0.17804942428E+01  0.13128700384E+02  0.13354532704E+02  0.12700000000E+01 0.  1.
         -4    1    1    2    0  501  0.10943994871E+01 -0.17804942428E+01  0.15811719585E+02  0.15999726442E+02  0.12700000000E+01 0.  1.
<mgrwt>
<rscale>  0 0.24455613E+01</rscale>
<asrwt>0</asrwt>
<pdfrwt beam="1">0</pdfrwt>
<pdfrwt beam="2">0</pdfrwt>
<totfact> 0.24931007E+12</totfact>
</mgrwt>
</event>
<event>
 4    1  0.1735226E+006  0.2365586E+01  0.7546771E-02  0.2770928E+00
         22   -1    0    0    0    0  0.00000000000E+00  0.00000000000E+00  0.47662012892E+00  0.47662012892E+00  0.00000000000E+00 0. -1.
         22   -1    0    0    0    0 -0.00000000000E+00 -0.00000000000E+00 -0.11883068531E+02  0.11883068531E+02  0.00000000000E+00 0. -1.
          4    1    1    2  501    0  0.11444407578E+01 -0.16350395223E+01 -0.50275210992E+01  0.55562547900E+01  0.12700000000E+01 0. -1.
         -4    1    1    2    0  501 -0.11444407578E+01  0.16350395223E+01 -0.63789273027E+01  0.68034338698E+01  0.12700000000E+01 0. -1.
<mgrwt>
<rscale>  0 0.23655864E+01</rscale>
<asrwt>0</asrwt>
<pdfrwt beam="1">0</pdfrwt>
<pdfrwt beam="2">0</pdfrwt>
<totfact> 0.29836999E+12</totfact>
</mgrwt>
</event>
<event>
 4    1  0.1735226E+006  0.2229410E+01  0.7546771E-02  0.2841354E+00
         22   -1    0    0    0    0  0.00000000000E+00  0.00000000000E+00  0.59758255791E+01  0.59758255791E+01  0.00000000000E+00 0. -1.
         22   -1    0    0    0    0 -0.00000000000E+00 -0.00000000000E+00 -0.99574798347E+00  0.99574798347E+00  0.00000000000E+00 0.  1.
          4    1    1    2  501    0  0.17161086168E+01  0.64213681204E+00  0.39047667328E+01  0.44963842927E+01  0.12700000000E+01 0. -1.
         -4    1    1    2    0  501 -0.17161086168E+01 -0.64213681204E+00  0.10753108629E+01  0.24751892699E+01  0.12700000000E+01 0.  1.
<mgrwt>
<rscale>  0 0.22294099E+01</rscale>
<asrwt>0</asrwt>
<pdfrwt beam="1">0</pdfrwt>
<pdfrwt beam="2">0</pdfrwt>
<totfact> 0.29579389E+12</totfact>
</mgrwt>
</event>
<event>
 4    1  0.1735226E+006  0.2268789E+01  0.7546771E-02  0.2820163E+00
         22   -1    0    0    0    0  0.00000000000E+00  0.00000000000E+00  0.77539928478E+00  0.77539928478E+00  0.00000000000E+00 0. -1.
         22   -1    0    0    0    0 -0.00000000000E+00 -0.00000000000E+00 -0.11554074896E+02  0.11554074896E+02  0.00000000000E+00 0.  1.
          4    1    1    2  501    0  0.10072212999E+01  0.15874538023E+01 -0.13682930655E+01  0.26494584795E+01  0.12700000000E+01 0. -1.
         -4    1    1    2    0  501 -0.10072212999E+01 -0.15874538023E+01 -0.94103825460E+01  0.96800157016E+01  0.12700000000E+01 0.  1.
<mgrwt>
<rscale>  0 0.22687892E+01</rscale>
<asrwt>0</asrwt>
<pdfrwt beam="1">0</pdfrwt>
<pdfrwt beam="2">0</pdfrwt>
<totfact> 0.17791667E+12</totfact>
</mgrwt>
</event>
<event>
 4    1  0.1735226E+006  0.4459095E+01  0.7546771E-02  0.2197281E+00
         22   -1    0    0    0    0  0.00000000000E+00  0.00000000000E+00  0.42621321688E+01  0.42621321688E+01  0.00000000000E+00 0. -1.
         22   -1    0    0    0    0 -0.00000000000E+00 -0.00000000000E+00 -0.10841120914E+02  0.10841120914E+02  0.00000000000E+00 0.  1.
          4    1    1    2  501    0  0.32594311994E+01  0.27652736313E+01  0.24102537890E+01  0.50688118259E+01  0.12700000000E+01 0. -1.
         -4    1    1    2    0  501 -0.32594311994E+01 -0.27652736313E+01 -0.89892425339E+01  0.10034441257E+02  0.12700000000E+01 0.  1.
<mgrwt>
<rscale>  0 0.44590952E+01</rscale>
<asrwt>0</asrwt>
<pdfrwt beam="1">0</pdfrwt>
<pdfrwt beam="2">0</pdfrwt>
<totfact> 0.26810008E+11</totfact>
</mgrwt>
</event>
<event>
 4    1  0.1735226E+006  0.2211762E+01  0.7546771E-02  0.2851084E+00
         22   -1    0    0    0    0  0.00000000000E+00  0.00000000000E+00  0.24169621853E+02  0.24169621853E+02  0.00000000000E+00 0.  1.
         22   -1    0    0    0    0 -0.00000000000E+00 -0.00000000000E+00 -0.20245707207E+00  0.20245707207E+00  0.00000000000E+00 0.  1.
          4    1    1    2  501    0  0.17575099199E+01  0.43606044082E+00  0.11775916392E+02  0.11981823596E+02  0.12700000000E+01 0.  1.
         -4    1    1    2    0  501 -0.17575099199E+01 -0.43606044082E+00  0.12191248390E+02  0.12390255329E+02  0.12700000000E+01 0.  1.
<mgrwt>
<rscale>  0 0.22117617E+01</rscale>
<asrwt>0</asrwt>
<pdfrwt beam="1">0</pdfrwt>
<pdfrwt beam="2">0</pdfrwt>
<totfact> 0.32375539E+12</totfact>
</mgrwt>
</event>
<event>
 4    1  0.1735226E+006  0.3205658E+01  0.7546771E-02  0.2460931E+00
         22   -1    0    0    0    0  0.00000000000E+00  0.00000000000E+00  0.27666305626E+01  0.27666305626E+01  0.00000000000E+00 0. -1.
         22   -1    0    0    0    0 -0.00000000000E+00 -0.00000000000E+00 -0.37485887467E+01  0.37485887467E+01  0.00000000000E+00 0.  1.
          4    1    1    2  501    0 -0.27708939484E+01 -0.99272006229E+00 -0.17966685967E+00  0.32106894238E+01  0.12700000000E+01 0.  1.
         -4    1    1    2    0  501  0.27708939484E+01  0.99272006229E+00 -0.80229132444E+00  0.33045298856E+01  0.12700000000E+01 0. -1.
<mgrwt>
<rscale>  0 0.32056585E+01</rscale>
<asrwt>0</asrwt>
<pdfrwt beam="1">0</pdfrwt>
<pdfrwt beam="2">0</pdfrwt>
<totfact> 0.15799173E+12</totfact>
</mgrwt>
</event>
<event>
 4    1  0.1735226E+006  0.9823348E+01  0.7546771E-02  0.1786148E+00
         22   -1    0    0    0    0  0.00000000000E+00  0.00000000000E+00  0.20989243587E+02  0.20989243587E+02  0.00000000000E+00 0. -1.
         22   -1    0    0    0    0 -0.00000000000E+00 -0.00000000000E+00 -0.53839318497E+01  0.53839318497E+01  0.00000000000E+00 0.  1.
          4    1    1    2  501    0  0.62398950614E+01  0.74799051418E+01  0.12842435741E+02  0.16168683529E+02  0.12700000000E+01 0. -1.
         -4    1    1    2    0  501 -0.62398950614E+01 -0.74799051418E+01  0.27628759957E+01  0.10204491907E+02  0.12700000000E+01 0.  1.
<mgrwt>
<rscale>  0 0.98233483E+01</rscale>
<asrwt>0</asrwt>
<pdfrwt beam="1">0</pdfrwt>
<pdfrwt beam="2">0</pdfrwt>
<totfact> 0.90155855E+10</totfact>
</mgrwt>
</event>
<event>
 4    1  0.1735226E+006  0.2113699E+01  0.7546771E-02  0.2907991E+00
         22   -1    0    0    0    0  0.00000000000E+00  0.00000000000E+00  0.58788327005E+00  0.58788327005E+00  0.00000000000E+00 0. -1.
         22   -1    0    0    0    0 -0.00000000000E+00 -0.00000000000E+00 -0.13968297815E+02  0.13968297815E+02  0.00000000000E+00 0. -1.
          4    1    1    2  501    0  0.11225293789E+01 -0.12628340132E+01 -0.17758303157E+01  0.27606693503E+01  0.12700000000E+01 0. -1.
         -4    1    1    2    0  501 -0.11225293789E+01  0.12628340132E+01 -0.11604584229E+02  0.11795511734E+02  0.12700000000E+01 0. -1.
<mgrwt>
<rscale>  0 0.21136986E+01</rscale>
<asrwt>0</asrwt>
<pdfrwt beam="1">0</pdfrwt>
<pdfrwt beam="2">0</pdfrwt>
<totfact> 0.19314780E+12</totfact>
</mgrwt>
</event>
<event>
 4    1  0.1735226E+006  0.3579485E+01  0.7546771E-02  0.2365690E+00
         22   -1    0    0    0    0  0.00000000000E+00  0.00000000000E+00  0.71904872778E+01  0.71904872778E+01  0.00000000000E+00 0. -1.
         22   -1    0    0    0    0 -0.00000000000E+00 -0.00000000000E+00 -0.25164640235E+01  0.25164640235E+01  0.00000000000E+00 0.  1.
          4    1    1    2  501    0 -0.19307205746E+01 -0.27335193019E+01  0.49592557689E+01  0.61161202974E+01  0.12700000000E+01 0. -1.
         -4    1    1    2    0  501  0.19307205746E+01  0.27335193019E+01 -0.28523251457E+00  0.35908310039E+01  0.12700000000E+01 0.  1.
<mgrwt>
<rscale>  0 0.35794846E+01</rscale>
<asrwt>0</asrwt>
<pdfrwt beam="1">0</pdfrwt>
<pdfrwt beam="2">0</pdfrwt>
<totfact> 0.81508682E+11</totfact>
</mgrwt>
</event>
<event>
 4    1  0.1735226E+006  0.2799569E+01  0.7546771E-02  0.2589582E+00
         22   -1    0    0    0    0  0.00000000000E+00  0.00000000000E+00  0.87939325787E+00  0.87939325787E+00  0.00000000000E+00 0.  1.
         22   -1    0    0    0    0 -0.00000000000E+00 -0.00000000000E+00 -0.20085251970E+02  0.20085251970E+02  0.00000000000E+00 0. -1.
          4    1    1    2  501    0  0.24090428842E+01 -0.64899799853E+00 -0.17848675442E+01  0.33201412877E+01  0.12700000000E+01 0.  1.
         -4    1    1    2    0  501 -0.24090428842E+01  0.64899799853E+00 -0.17420991168E+02  0.17644503940E+02  0.12700000000E+01 0. -1.
<mgrwt>
<rscale>  0 0.27995689E+01</rscale>
<asrwt>0</asrwt>
<pdfrwt beam="1">0</pdfrwt>
<pdfrwt beam="2">0</pdfrwt>
<totfact> 0.78024270E+11</totfact>
</mgrwt>
</event>
<event>
 4    1  0.1735226E+006  0.5080719E+01  0.7546771E-02  0.2113490E+00
         22   -1    0    0    0    0  0.00000000000E+00  0.00000000000E+00  0.19131024811E+02  0.19131024811E+02  0.00000000000E+00 0. -1.
         22   -1    0    0    0    0 -0.00000000000E+00 -0.00000000000E+00 -0.20533073794E+01  0.20533073794E+01  0.00000000000E+00 0.  1.
          4    1    1    2  501    0 -0.48374630210E+01  0.89429313112E+00  0.14741017875E+02  0.15592027343E+02  0.12700000000E+01 0. -1.
         -4    1    1    2    0  501  0.48374630210E+01 -0.89429313112E+00  0.23366995567E+01  0.55923048470E+01  0.12700000000E+01 0.  1.
<mgrwt>
<rscale>  0 0.50807193E+01</rscale>
<asrwt>0</asrwt>
<pdfrwt beam="1">0</pdfrwt>
<pdfrwt beam="2">0</pdfrwt>
<totfact> 0.31308343E+11</totfact>
</mgrwt>
</event>
<event>
 4    1  0.1735226E+006  0.4244056E+01  0.7546771E-02  0.2232936E+00
         22   -1    0    0    0    0  0.00000000000E+00  0.00000000000E+00  0.36254937341E+00  0.36254937341E+00  0.00000000000E+00 0. -1.
         22   -1    0    0    0    0 -0.00000000000E+00 -0.00000000000E+00 -0.50119449796E+02  0.50119449796E+02  0.00000000000E+00 0. -1.
          4    1    1    2  501    0 -0.36063057502E+01 -0.18421923601E+01 -0.27237798715E+02  0.27566459560E+02  0.12700000000E+01 0. -1.
         -4    1    1    2    0  501  0.36063057502E+01  0.18421923601E+01 -0.22519101708E+02  0.22915539609E+02  0.12700000000E+01 0. -1.
<mgrwt>
<rscale>  0 0.42440563E+01</rscale>
<asrwt>0</asrwt>
<pdfrwt beam="1">0</pdfrwt>
<pdfrwt beam="2">0</pdfrwt>
<totfact> 0.65954522E+11</totfact>
</mgrwt>
</event>
<event>
 4    1  0.1735226E+006  0.2674079E+01  0.7546771E-02  0.2636427E+00
         22   -1    0    0    0    0  0.00000000000E+00  0.00000000000E+00  0.49371399436E+00  0.49371399436E+00  0.00000000000E+00 0.  1.
         22   -1    0    0    0    0 -0.00000000000E+00 -0.00000000000E+00 -0.20188270208E+02  0.20188270208E+02  0.00000000000E+00 0. -1.
          4    1    1    2  501    0 -0.11034307304E+01 -0.20785180055E+01 -0.43501923386E+01  0.51063558296E+01  0.12700000000E+01 0. -1.
         -4    1    1    2    0  501  0.11034307304E+01  0.20785180055E+01 -0.15344363875E+02  0.15575628373E+02  0.12700000000E+01 0. -1.
<mgrwt>
<rscale>  0 0.26740786E+01</rscale>
<asrwt>0</asrwt>
<pdfrwt beam="1">0</pdfrwt>
<pdfrwt beam="2">0</pdfrwt>
<totfact> 0.14920394E+12</totfact>
</mgrwt>
</event>
<event>
 4    1  0.1735226E+006  0.2183053E+01  0.7546771E-02  0.2867235E+00
         22   -1    0    0    0    0  0.00000000000E+00  0.00000000000E+00  0.24132896792E+01  0.24132896792E+01  0.00000000000E+00 0. -1.
         22   -1    0    0    0    0 -0.00000000000E+00 -0.00000000000E+00 -0.36844073050E+01  0.36844073050E+01  0.00000000000E+00 0.  1.
          4    1    1    2  501    0 -0.17310101074E+01  0.39550789294E+00  0.14412782115E+01  0.26159138687E+01  0.12700000000E+01 0. -1.
         -4    1    1    2    0  501  0.17310101074E+01 -0.39550789294E+00 -0.27123958373E+01  0.34817831155E+01  0.12700000000E+01 0.  1.
<mgrwt>
<rscale>  0 0.21830535E+01</rscale>
<asrwt>0</asrwt>
<pdfrwt beam="1">0</pdfrwt>
<pdfrwt beam="2">0</pdfrwt>
<totfact> 0.18901334E+12</totfact>
</mgrwt>
</event>
<event>
 4    1  0.1735226E+006  0.2120175E+01  0.7546771E-02  0.2904076E+00
         22   -1    0    0    0    0  0.00000000000E+00  0.00000000000E+00  0.15059405916E+01  0.15059405916E+01  0.00000000000E+00 0. -1.
         22   -1    0    0    0    0 -0.00000000000E+00 -0.00000000000E+00 -0.39600576934E+01  0.39600576934E+01  0.00000000000E+00 0. -1.
          4    1    1    2  501    0 -0.26097163461E+00  0.16775388366E+01  0.12912100502E+00  0.21241033346E+01  0.12700000000E+01 0. -1.
         -4    1    1    2    0  501  0.26097163461E+00 -0.16775388366E+01 -0.25832381069E+01  0.33418949503E+01  0.12700000000E+01 0. -1.
<mgrwt>
<rscale>  0 0.21201752E+01</rscale>
<asrwt>0</asrwt>
<pdfrwt beam="1">0</pdfrwt>
<pdfrwt beam="2">0</pdfrwt>
<totfact> 0.29955767E+12</totfact>
</mgrwt>
</event>
<event>
 4    1  0.1735226E+006  0.2160814E+01  0.7546771E-02  0.2880029E+00
         22   -1    0    0    0    0  0.00000000000E+00  0.00000000000E+00  0.42755882143E+01  0.42755882143E+01  0.00000000000E+00 0.  1.
         22   -1    0    0    0    0 -0.00000000000E+00 -0.00000000000E+00 -0.34538659827E+01  0.34538659827E+01  0.00000000000E+00 0. -1.
          4    1    1    2  501    0  0.31631809388E+00 -0.17193489445E+01  0.36067372673E+01  0.42044823278E+01  0.12700000000E+01 0.  1.
         -4    1    1    2    0  501 -0.31631809388E+00  0.17193489445E+01 -0.27850150357E+01  0.35249718692E+01  0.12700000000E+01 0. -1.
<mgrwt>
<rscale>  0 0.21608142E+01</rscale>
<asrwt>0</asrwt>
<pdfrwt beam="1">0</pdfrwt>
<pdfrwt beam="2">0</pdfrwt>
<totfact> 0.10440731E+12</totfact>
</mgrwt>
</event>
<event>
 4    1  0.1735226E+006  0.5621641E+01  0.7546771E-02  0.2055379E+00
         22   -1    0    0    0    0  0.00000000000E+00  0.00000000000E+00  0.13887140407E+01  0.13887140407E+01  0.00000000000E+00 0.  1.
         22   -1    0    0    0    0 -0.00000000000E+00 -0.00000000000E+00 -0.23782213837E+02  0.23782213837E+02  0.00000000000E+00 0. -1.
          4    1    1    2  501    0 -0.51988806906E+01  0.17209268704E+01 -0.85835780882E+01  0.10260636556E+02  0.12700000000E+01 0.  1.
         -4    1    1    2    0  501  0.51988806906E+01 -0.17209268704E+01 -0.13809921708E+02  0.14910291322E+02  0.12700000000E+01 0. -1.
<mgrwt>
<rscale>  0 0.56216412E+01</rscale>
<asrwt>0</asrwt>
<pdfrwt beam="1">0</pdfrwt>
<pdfrwt beam="2">0</pdfrwt>
<totfact> 0.37438395E+11</totfact>
</mgrwt>
</event>
<event>
 4    1  0.1735226E+006  0.2072061E+01  0.7546771E-02  0.2933726E+00
         22   -1    0    0    0    0  0.00000000000E+00  0.00000000000E+00  0.21183098713E+00  0.21183098713E+00  0.00000000000E+00 0. -1.
         22   -1    0    0    0    0 -0.00000000000E+00 -0.00000000000E+00 -0.23412192456E+02  0.23412192456E+02  0.00000000000E+00 0.  1.
          4    1    1    2  501    0  0.25206886916E+00  0.16177135927E+01 -0.72716297162E+01  0.75610868738E+01  0.12700000000E+01 0. -1.
         -4    1    1    2    0  501 -0.25206886916E+00 -0.16177135927E+01 -0.15928731753E+02  0.16062936569E+02  0.12700000000E+01 0.  1.
<mgrwt>
<rscale>  0 0.20720608E+01</rscale>
<asrwt>0</asrwt>
<pdfrwt beam="1">0</pdfrwt>
<pdfrwt beam="2">0</pdfrwt>
<totfact> 0.32037486E+12</totfact>
</mgrwt>
</event>
<event>
 4    1  0.1735226E+006  0.2095145E+01  0.7546771E-02  0.2919335E+00
         22   -1    0    0    0    0  0.00000000000E+00  0.00000000000E+00  0.82837905437E+01  0.82837905437E+01  0.00000000000E+00 0.  1.
         22   -1    0    0    0    0 -0.00000000000E+00 -0.00000000000E+00 -0.98575672870E+00  0.98575672870E+00  0.00000000000E+00 0. -1.
          4    1    1    2  501    0 -0.16464435577E+01 -0.25682164595E+00  0.68007888277E+01  0.71162042147E+01  0.12700000000E+01 0.  1.
         -4    1    1    2    0  501  0.16464435577E+01  0.25682164595E+00  0.49724498725E+00  0.21533430576E+01  0.12700000000E+01 0. -1.
<mgrwt>
<rscale>  0 0.20951453E+01</rscale>
<asrwt>0</asrwt>
<pdfrwt beam="1">0</pdfrwt>
<pdfrwt beam="2">0</pdfrwt>
<totfact> 0.20243574E+12</totfact>
</mgrwt>
</event>
<event>
 4    1  0.1735226E+006  0.2184619E+01  0.7546771E-02  0.2866343E+00
         22   -1    0    0    0    0  0.00000000000E+00  0.00000000000E+00  0.61900076550E+01  0.61900076550E+01  0.00000000000E+00 0.  1.
         22   -1    0    0    0    0 -0.00000000000E+00 -0.00000000000E+00 -0.39761733173E+01  0.39761733173E+01  0.00000000000E+00 0. -1.
          4    1    1    2  501    0  0.16576914198E+01 -0.64165361516E+00  0.56706503248E+01  0.60769100135E+01  0.12700000000E+01 0.  1.
         -4    1    1    2    0  501 -0.16576914198E+01  0.64165361516E+00 -0.34568159871E+01  0.40892709588E+01  0.12700000000E+01 0. -1.
<mgrwt>
<rscale>  0 0.21846190E+01</rscale>
<asrwt>0</asrwt>
<pdfrwt beam="1">0</pdfrwt>
<pdfrwt beam="2">0</pdfrwt>
<totfact> 0.57078886E+11</totfact>
</mgrwt>
</event>
<event>
 4    1  0.1735226E+006  0.2295806E+01  0.7546771E-02  0.2806025E+00
         22   -1    0    0    0    0  0.00000000000E+00  0.00000000000E+00  0.24084663426E+02  0.24084663426E+02  0.00000000000E+00 0.  1.
         22   -1    0    0    0    0 -0.00000000000E+00 -0.00000000000E+00 -0.24450944921E+00  0.24450944921E+00  0.00000000000E+00 0. -1.
          4    1    1    2  501    0 -0.11977633968E+01 -0.14910355742E+01  0.15861426797E+02  0.16026714706E+02  0.12700000000E+01 0.  1.
         -4    1    1    2    0  501  0.11977633968E+01  0.14910355742E+01  0.79787271799E+01  0.83024581691E+01  0.12700000000E+01 0. -1.
<mgrwt>
<rscale>  0 0.22958058E+01</rscale>
<asrwt>0</asrwt>
<pdfrwt beam="1">0</pdfrwt>
<pdfrwt beam="2">0</pdfrwt>
<totfact> 0.26338844E+12</totfact>
</mgrwt>
</event>
<event>
 4    1  0.1735226E+006  0.2177693E+01  0.7546771E-02  0.2870295E+00
         22   -1    0    0    0    0  0.00000000000E+00  0.00000000000E+00  0.33551934994E+01  0.33551934994E+01  0.00000000000E+00 0. -1.
         22   -1    0    0    0    0 -0.00000000000E+00 -0.00000000000E+00 -0.21288771020E+01  0.21288771020E+01  0.00000000000E+00 0. -1.
          4    1    1    2  501    0 -0.74878225693E+00 -0.16027391555E+01  0.22027478111E+01  0.30974902079E+01  0.12700000000E+01 0. -1.
         -4    1    1    2    0  501  0.74878225693E+00  0.16027391555E+01 -0.97643141371E+00  0.23865803935E+01  0.12700000000E+01 0. -1.
<mgrwt>
<rscale>  0 0.21776932E+01</rscale>
<asrwt>0</asrwt>
<pdfrwt beam="1">0</pdfrwt>
<pdfrwt beam="2">0</pdfrwt>
<totfact> 0.24399069E+12</totfact>
</mgrwt>
</event>
<event>
 4    1  0.1735226E+006  0.2297384E+01  0.7546771E-02  0.2805209E+00
         22   -1    0    0    0    0  0.00000000000E+00  0.00000000000E+00  0.15158442321E+02  0.15158442321E+02  0.00000000000E+00 0.  1.
         22   -1    0    0    0    0 -0.00000000000E+00 -0.00000000000E+00 -0.35309777412E+00  0.35309777412E+00  0.00000000000E+00 0.  1.
          4    1    1    2  501    0 -0.13118221562E+00 -0.19099381999E+01  0.83173160656E+01  0.86287727537E+01  0.12700000000E+01 0.  1.
         -4    1    1    2    0  501  0.13118221562E+00  0.19099381999E+01  0.64880284809E+01  0.68827673410E+01  0.12700000000E+01 0.  1.
<mgrwt>
<rscale>  0 0.22973839E+01</rscale>
<asrwt>0</asrwt>
<pdfrwt beam="1">0</pdfrwt>
<pdfrwt beam="2">0</pdfrwt>
<totfact> 0.31041556E+12</totfact>
</mgrwt>
</event>
<event>
 4    1  0.1735226E+006  0.2009343E+01  0.7546771E-02  0.2974449E+00
         22   -1    0    0    0    0  0.00000000000E+00  0.00000000000E+00  0.68312839788E+02  0.68312839788E+02  0.00000000000E+00 0.  1.
         22   -1    0    0    0    0 -0.00000000000E+00 -0.00000000000E+00 -0.72947866398E-01  0.72947866398E-01  0.00000000000E+00 0. -1.
          4    1    1    2  501    0  0.80258478772E+00  0.13343228970E+01  0.49016359270E+02  0.49057526802E+02  0.12700000000E+01 0.  1.
         -4    1    1    2    0  501 -0.80258478772E+00 -0.13343228970E+01  0.19223532652E+02  0.19328260852E+02  0.12700000000E+01 0. -1.
<mgrwt>
<rscale>  0 0.20093432E+01</rscale>
<asrwt>0</asrwt>
<pdfrwt beam="1">0</pdfrwt>
<pdfrwt beam="2">0</pdfrwt>
<totfact> 0.25981560E+12</totfact>
</mgrwt>
</event>
<event>
 4    1  0.1735226E+006  0.2812292E+01  0.7546771E-02  0.2585046E+00
         22   -1    0    0    0    0  0.00000000000E+00  0.00000000000E+00  0.18476759457E+01  0.18476759457E+01  0.00000000000E+00 0. -1.
         22   -1    0    0    0    0 -0.00000000000E+00 -0.00000000000E+00 -0.45155324507E+01  0.45155324507E+01  0.00000000000E+00 0.  1.
          4    1    1    2  501    0 -0.19072342521E+01  0.16305039294E+01 -0.60807095735E+00  0.28772792435E+01  0.12700000000E+01 0. -1.
         -4    1    1    2    0  501  0.19072342521E+01 -0.16305039294E+01 -0.20597855476E+01  0.34859291528E+01  0.12700000000E+01 0.  1.
<mgrwt>
<rscale>  0 0.28122919E+01</rscale>
<asrwt>0</asrwt>
<pdfrwt beam="1">0</pdfrwt>
<pdfrwt beam="2">0</pdfrwt>
<totfact> 0.20272767E+12</totfact>
</mgrwt>
</event>
<event>
 4    1  0.1735226E+006  0.3326282E+01  0.7546771E-02  0.2428149E+00
         22   -1    0    0    0    0  0.00000000000E+00  0.00000000000E+00  0.35496972461E+00  0.35496972461E+00  0.00000000000E+00 0.  1.
         22   -1    0    0    0    0 -0.00000000000E+00 -0.00000000000E+00 -0.43837670141E+02  0.43837670141E+02  0.00000000000E+00 0.  1.
          4    1    1    2  501    0  0.53895103326E+00  0.30266786128E+01 -0.98629791317E+01  0.10408770772E+02  0.12700000000E+01 0.  1.
         -4    1    1    2    0  501 -0.53895103326E+00 -0.30266786128E+01 -0.33619721285E+02  0.33783869093E+02  0.12700000000E+01 0.  1.
<mgrwt>
<rscale>  0 0.33262820E+01</rscale>
<asrwt>0</asrwt>
<pdfrwt beam="1">0</pdfrwt>
<pdfrwt beam="2">0</pdfrwt>
<totfact> 0.80517812E+11</totfact>
</mgrwt>
</event>
<event>
 4    1  0.1735226E+006  0.2192300E+01  0.7546771E-02  0.2861988E+00
         22   -1    0    0    0    0  0.00000000000E+00  0.00000000000E+00  0.12808154787E+02  0.12808154787E+02  0.00000000000E+00 0. -1.
         22   -1    0    0    0    0 -0.00000000000E+00 -0.00000000000E+00 -0.40868874857E+00  0.40868874857E+00  0.00000000000E+00 0.  1.
          4    1    1    2  501    0 -0.28269319511E-01  0.17867513104E+01  0.80901922856E+01  0.83819681828E+01  0.12700000000E+01 0. -1.
         -4    1    1    2    0  501  0.28269319511E-01 -0.17867513104E+01  0.43092737528E+01  0.48348753527E+01  0.12700000000E+01 0.  1.
<mgrwt>
<rscale>  0 0.21923000E+01</rscale>
<asrwt>0</asrwt>
<pdfrwt beam="1">0</pdfrwt>
<pdfrwt beam="2">0</pdfrwt>
<totfact> 0.32379765E+12</totfact>
</mgrwt>
</event>
<event>
 4    1  0.1735226E+006  0.2074140E+01  0.7546771E-02  0.2932417E+00
         22   -1    0    0    0    0  0.00000000000E+00  0.00000000000E+00  0.12062642527E+01  0.12062642527E+01  0.00000000000E+00 0.  1.
         22   -1    0    0    0    0 -0.00000000000E+00 -0.00000000000E+00 -0.35908556600E+01  0.35908556600E+01  0.00000000000E+00 0. -1.
          4    1    1    2  501    0  0.13238784653E+01 -0.96772997712E+00 -0.13901228817E+01  0.24968975000E+01  0.12700000000E+01 0.  1.
         -4    1    1    2    0  501 -0.13238784653E+01  0.96772997712E+00 -0.99446852566E+00  0.23002224127E+01  0.12700000000E+01 0. -1.
<mgrwt>
<rscale>  0 0.20741397E+01</rscale>
<asrwt>0</asrwt>
<pdfrwt beam="1">0</pdfrwt>
<pdfrwt beam="2">0</pdfrwt>
<totfact> 0.43357670E+12</totfact>
</mgrwt>
</event>
<event>
 4    1  0.1735226E+006  0.2881217E+01  0.7546771E-02  0.2561103E+00
         22   -1    0    0    0    0  0.00000000000E+00  0.00000000000E+00  0.19853343396E+02  0.19853343396E+02  0.00000000000E+00 0. -1.
         22   -1    0    0    0    0 -0.00000000000E+00 -0.00000000000E+00 -0.63661999624E+00  0.63661999624E+00  0.00000000000E+00 0.  1.
          4    1    1    2  501    0 -0.26067343614E+00  0.25730447567E+01  0.15610144095E+02  0.15873815188E+02  0.12700000000E+01 0. -1.
         -4    1    1    2    0  501  0.26067343614E+00 -0.25730447567E+01  0.36065793046E+01  0.46161482039E+01  0.12700000000E+01 0.  1.
<mgrwt>
<rscale>  0 0.28812167E+01</rscale>
<asrwt>0</asrwt>
<pdfrwt beam="1">0</pdfrwt>
<pdfrwt beam="2">0</pdfrwt>
<totfact> 0.11427602E+12</totfact>
</mgrwt>
</event>
<event>
 4    1  0.1735226E+006  0.2639060E+01  0.7546771E-02  0.2650226E+00
         22   -1    0    0    0    0  0.00000000000E+00  0.00000000000E+00  0.50137052997E+00  0.50137052997E+00  0.00000000000E+00 0. -1.
         22   -1    0    0    0    0 -0.00000000000E+00 -0.00000000000E+00 -0.13955126114E+02  0.13955126114E+02  0.00000000000E+00 0.  1.
          4    1    1    2  501    0  0.22965219572E+01  0.27879152007E+00 -0.62376527468E+01  0.67729572272E+01  0.12700000000E+01 0. -1.
         -4    1    1    2    0  501 -0.22965219572E+01 -0.27879152007E+00 -0.72161028373E+01  0.76835394169E+01  0.12700000000E+01 0.  1.
<mgrwt>
<rscale>  0 0.26390600E+01</rscale>
<asrwt>0</asrwt>
<pdfrwt beam="1">0</pdfrwt>
<pdfrwt beam="2">0</pdfrwt>
<totfact> 0.23151953E+12</totfact>
</mgrwt>
</event>
<event>
 4    1  0.1735226E+006  0.2223823E+01  0.7546771E-02  0.2844418E+00
         22   -1    0    0    0    0  0.00000000000E+00  0.00000000000E+00  0.13487129050E+01  0.13487129050E+01  0.00000000000E+00 0. -1.
         22   -1    0    0    0    0 -0.00000000000E+00 -0.00000000000E+00 -0.71648492706E+01  0.71648492706E+01  0.00000000000E+00 0.  1.
          4    1    1    2  501    0 -0.16370471740E+01  0.80781540612E+00  0.66295228241E-01  0.22248110566E+01  0.12700000000E+01 0. -1.
         -4    1    1    2    0  501  0.16370471740E+01 -0.80781540612E+00 -0.58824315939E+01  0.62887511190E+01  0.12700000000E+01 0.  1.
<mgrwt>
<rscale>  0 0.22238231E+01</rscale>
<asrwt>0</asrwt>
<pdfrwt beam="1">0</pdfrwt>
<pdfrwt beam="2">0</pdfrwt>
<totfact> 0.16828378E+12</totfact>
</mgrwt>
</event>
<event>
 4    1  0.1735226E+006  0.3112143E+01  0.7546771E-02  0.2487887E+00
         22   -1    0    0    0    0  0.00000000000E+00  0.00000000000E+00  0.21316211152E+01  0.21316211152E+01  0.00000000000E+00 0. -1.
         22   -1    0    0    0    0 -0.00000000000E+00 -0.00000000000E+00 -0.11924224341E+02  0.11924224341E+02  0.00000000000E+00 0.  1.
          4    1    1    2  501    0 -0.13491208784E+01 -0.25004815223E+01  0.63281412672E+00  0.31758288220E+01  0.12700000000E+01 0. -1.
         -4    1    1    2    0  501  0.13491208784E+01  0.25004815223E+01 -0.10425417352E+02  0.10880016634E+02  0.12700000000E+01 0.  1.
<mgrwt>
<rscale>  0 0.31121432E+01</rscale>
<asrwt>0</asrwt>
<pdfrwt beam="1">0</pdfrwt>
<pdfrwt beam="2">0</pdfrwt>
<totfact> 0.53653618E+11</totfact>
</mgrwt>
</event>
<event>
 4    1  0.1735226E+006  0.2126670E+01  0.7546771E-02  0.2900173E+00
         22   -1    0    0    0    0  0.00000000000E+00  0.00000000000E+00  0.20817335864E+01  0.20817335864E+01  0.00000000000E+00 0. -1.
         22   -1    0    0    0    0 -0.00000000000E+00 -0.00000000000E+00 -0.50598428642E+01  0.50598428642E+01  0.00000000000E+00 0.  1.
          4    1    1    2  501    0  0.22086501915E+00 -0.16914624816E+01  0.12083056595E+01  0.24459618251E+01  0.12700000000E+01 0. -1.
         -4    1    1    2    0  501 -0.22086501915E+00  0.16914624816E+01 -0.41864149373E+01  0.46956146254E+01  0.12700000000E+01 0.  1.
<mgrwt>
<rscale>  0 0.21266703E+01</rscale>
<asrwt>0</asrwt>
<pdfrwt beam="1">0</pdfrwt>
<pdfrwt beam="2">0</pdfrwt>
<totfact> 0.15434843E+12</totfact>
</mgrwt>
</event>
<event>
 4    1  0.1735226E+006  0.2153081E+01  0.7546771E-02  0.2884537E+00
         22   -1    0    0    0    0  0.00000000000E+00  0.00000000000E+00  0.56581272468E+01  0.56581272468E+01  0.00000000000E+00 0. -1.
         22   -1    0    0    0    0 -0.00000000000E+00 -0.00000000000E+00 -0.24690608677E+01  0.24690608677E+01  0.00000000000E+00 0.  1.
          4    1    1    2  501    0  0.12058510413E+01  0.12525100067E+01  0.49161815273E+01  0.53669916023E+01  0.12700000000E+01 0. -1.
         -4    1    1    2    0  501 -0.12058510413E+01 -0.12525100067E+01 -0.17271151482E+01  0.27601965122E+01  0.12700000000E+01 0.  1.
<mgrwt>
<rscale>  0 0.21530811E+01</rscale>
<asrwt>0</asrwt>
<pdfrwt beam="1">0</pdfrwt>
<pdfrwt beam="2">0</pdfrwt>
<totfact> 0.11089564E+12</totfact>
</mgrwt>
</event>
<event>
 4    1  0.1735226E+006  0.2016593E+01  0.7546771E-02  0.2969614E+00
         22   -1    0    0    0    0  0.00000000000E+00  0.00000000000E+00  0.29295146446E+01  0.29295146446E+01  0.00000000000E+00 0. -1.
         22   -1    0    0    0    0 -0.00000000000E+00 -0.00000000000E+00 -0.15381549623E+01  0.15381549623E+01  0.00000000000E+00 0.  1.
          4    1    1    2  501    0  0.14530708540E+01 -0.58509300026E+00  0.13932414737E+01  0.24510753823E+01  0.12700000000E+01 0. -1.
         -4    1    1    2    0  501 -0.14530708540E+01  0.58509300026E+00 -0.18817914568E-02  0.20165942246E+01  0.12700000000E+01 0.  1.
<mgrwt>
<rscale>  0 0.20165933E+01</rscale>
<asrwt>0</asrwt>
<pdfrwt beam="1">0</pdfrwt>
<pdfrwt beam="2">0</pdfrwt>
<totfact> 0.41619413E+12</totfact>
</mgrwt>
</event>
<event>
 4    1  0.1735226E+006  0.2572674E+01  0.7546771E-02  0.2677332E+00
         22   -1    0    0    0    0  0.00000000000E+00  0.00000000000E+00  0.15219957635E+02  0.15219957635E+02  0.00000000000E+00 0.  1.
         22   -1    0    0    0    0 -0.00000000000E+00 -0.00000000000E+00 -0.80020532091E+00  0.80020532091E+00  0.00000000000E+00 0. -1.
          4    1    1    2  501    0  0.85024228682E+00 -0.20695024899E+01  0.12622203042E+02  0.12881718136E+02  0.12700000000E+01 0. -1.
         -4    1    1    2    0  501 -0.85024228682E+00  0.20695024899E+01  0.17975492721E+01  0.31384448199E+01  0.12700000000E+01 0.  1.
<mgrwt>
<rscale>  0 0.25726742E+01</rscale>
<asrwt>0</asrwt>
<pdfrwt beam="1">0</pdfrwt>
<pdfrwt beam="2">0</pdfrwt>
<totfact> 0.12250500E+12</totfact>
</mgrwt>
</event>
<event>
 4    1  0.1735226E+006  0.2039114E+01  0.7546771E-02  0.2954813E+00
         22   -1    0    0    0    0  0.00000000000E+00  0.00000000000E+00  0.93440490190E+00  0.93440490190E+00  0.00000000000E+00 0. -1.
         22   -1    0    0    0    0 -0.00000000000E+00 -0.00000000000E+00 -0.51560451535E+01  0.51560451535E+01  0.00000000000E+00 0.  1.
          4    1    1    2  501    0  0.15694901613E+01 -0.28598419844E+00 -0.32377977170E+01  0.38263978340E+01  0.12700000000E+01 0. -1.
         -4    1    1    2    0  501 -0.15694901613E+01  0.28598419844E+00 -0.98384253466E+00  0.22640522214E+01  0.12700000000E+01 0.  1.
<mgrwt>
<rscale>  0 0.20391141E+01</rscale>
<asrwt>0</asrwt>
<pdfrwt beam="1">0</pdfrwt>
<pdfrwt beam="2">0</pdfrwt>
<totfact> 0.37895478E+12</totfact>
</mgrwt>
</event>
<event>
 4    1  0.1735226E+006  0.2863264E+01  0.7546771E-02  0.2567239E+00
         22   -1    0    0    0    0  0.00000000000E+00  0.00000000000E+00  0.17414070954E+01  0.17414070954E+01  0.00000000000E+00 0. -1.
         22   -1    0    0    0    0 -0.00000000000E+00 -0.00000000000E+00 -0.34380564126E+02  0.34380564126E+02  0.00000000000E+00 0.  1.
          4    1    1    2  501    0 -0.24981401250E+01 -0.58709009214E+00  0.45932600451E+00  0.28998722798E+01  0.12700000000E+01 0. -1.
         -4    1    1    2    0  501  0.24981401250E+01  0.58709009214E+00 -0.33098483036E+02  0.33222098942E+02  0.12700000000E+01 0.  1.
<mgrwt>
<rscale>  0 0.28632637E+01</rscale>
<asrwt>0</asrwt>
<pdfrwt beam="1">0</pdfrwt>
<pdfrwt beam="2">0</pdfrwt>
<totfact> 0.18058773E+11</totfact>
</mgrwt>
</event>
<event>
 4    1  0.1735226E+006  0.2800072E+01  0.7546771E-02  0.2589402E+00
         22   -1    0    0    0    0  0.00000000000E+00  0.00000000000E+00  0.75652620555E+02  0.75652620555E+02  0.00000000000E+00 0. -1.
         22   -1    0    0    0    0 -0.00000000000E+00 -0.00000000000E+00 -0.38444923329E+01  0.38444923329E+01  0.00000000000E+00 0.  1.
          4    1    1    2  501    0  0.24936372531E+01  0.96317862746E-01  0.75113204699E+02  0.75165377163E+02  0.12700000000E+01 0. -1.
         -4    1    1    2    0  501 -0.24936372531E+01 -0.96317862746E-01 -0.33050764764E+01  0.43317357255E+01  0.12700000000E+01 0.  1.
<mgrwt>
<rscale>  0 0.28000721E+01</rscale>
<asrwt>0</asrwt>
<pdfrwt beam="1">0</pdfrwt>
<pdfrwt beam="2">0</pdfrwt>
<totfact> 0.25306372E+10</totfact>
</mgrwt>
</event>
<event>
 4    1  0.1735226E+006  0.2290786E+01  0.7546771E-02  0.2808628E+00
         22   -1    0    0    0    0  0.00000000000E+00  0.00000000000E+00  0.32748065434E+01  0.32748065434E+01  0.00000000000E+00 0.  1.
         22   -1    0    0    0    0 -0.00000000000E+00 -0.00000000000E+00 -0.32194103947E+01  0.32194103947E+01  0.00000000000E+00 0.  1.
          4    1    1    2  501    0 -0.15022201629E+01  0.11739392969E+01  0.23289222393E+01  0.32667380806E+01  0.12700000000E+01 0.  1.
         -4    1    1    2    0  501  0.15022201629E+01 -0.11739392969E+01 -0.22735260906E+01  0.32274788575E+01  0.12700000000E+01 0.  1.
<mgrwt>
<rscale>  0 0.22907856E+01</rscale>
<asrwt>0</asrwt>
<pdfrwt beam="1">0</pdfrwt>
<pdfrwt beam="2">0</pdfrwt>
<totfact> 0.15507557E+12</totfact>
</mgrwt>
</event>
<event>
 4    1  0.1735226E+006  0.2690211E+01  0.7546771E-02  0.2630182E+00
         22   -1    0    0    0    0  0.00000000000E+00  0.00000000000E+00  0.16726312130E+01  0.16726312130E+01  0.00000000000E+00 0.  1.
         22   -1    0    0    0    0 -0.00000000000E+00 -0.00000000000E+00 -0.52404668816E+01  0.52404668816E+01  0.00000000000E+00 0. -1.
          4    1    1    2  501    0 -0.11015335143E+01 -0.21002286495E+01 -0.34067944612E+00  0.27116966918E+01  0.12700000000E+01 0.  1.
         -4    1    1    2    0  501  0.11015335143E+01  0.21002286495E+01 -0.32271562225E+01  0.42014014028E+01  0.12700000000E+01 0. -1.
<mgrwt>
<rscale>  0 0.26902112E+01</rscale>
<asrwt>0</asrwt>
<pdfrwt beam="1">0</pdfrwt>
<pdfrwt beam="2">0</pdfrwt>
<totfact> 0.19068112E+12</totfact>
</mgrwt>
</event>
<event>
 4    1  0.1735226E+006  0.2455446E+01  0.7546771E-02  0.2728504E+00
         22   -1    0    0    0    0  0.00000000000E+00  0.00000000000E+00  0.24500218402E+01  0.24500218402E+01  0.00000000000E+00 0.  1.
         22   -1    0    0    0    0 -0.00000000000E+00 -0.00000000000E+00 -0.16101987456E+02  0.16101987456E+02  0.00000000000E+00 0.  1.
          4    1    1    2  501    0 -0.16159554772E+01 -0.13435036497E+01  0.17118176796E+01  0.29932480567E+01  0.12700000000E+01 0.  1.
         -4    1    1    2    0  501  0.16159554772E+01  0.13435036497E+01 -0.15363783295E+02  0.15558761239E+02  0.12700000000E+01 0.  1.
<mgrwt>
<rscale>  0 0.24554458E+01</rscale>
<asrwt>0</asrwt>
<pdfrwt beam="1">0</pdfrwt>
<pdfrwt beam="2">0</pdfrwt>
<totfact> 0.31578984E+11</totfact>
</mgrwt>
</event>
<event>
 4    1  0.1735226E+006  0.2548755E+01  0.7546771E-02  0.2687418E+00
         22   -1    0    0    0    0  0.00000000000E+00  0.00000000000E+00  0.16203521274E+01  0.16203521274E+01  0.00000000000E+00 0. -1.
         22   -1    0    0    0    0 -0.00000000000E+00 -0.00000000000E+00 -0.50965827628E+01  0.50965827628E+01  0.00000000000E+00 0.  1.
          4    1    1    2  501    0  0.50492345513E+00  0.21513492976E+01 -0.18675361321E+00  0.25555876834E+01  0.12700000000E+01 0. -1.
         -4    1    1    2    0  501 -0.50492345513E+00 -0.21513492976E+01 -0.32894770222E+01  0.41613472067E+01  0.12700000000E+01 0. -1.
<mgrwt>
<rscale>  0 0.25487549E+01</rscale>
<asrwt>0</asrwt>
<pdfrwt beam="1">0</pdfrwt>
<pdfrwt beam="2">0</pdfrwt>
<totfact> 0.20442365E+12</totfact>
</mgrwt>
</event>
<event>
 4    1  0.1735226E+006  0.2056121E+01  0.7546771E-02  0.2943845E+00
         22   -1    0    0    0    0  0.00000000000E+00  0.00000000000E+00  0.12669508166E+01  0.12669508166E+01  0.00000000000E+00 0. -1.
         22   -1    0    0    0    0 -0.00000000000E+00 -0.00000000000E+00 -0.36328486975E+01  0.36328486975E+01  0.00000000000E+00 0. -1.
          4    1    1    2  501    0 -0.11847246721E+01  0.11005277063E+01 -0.48364757286E+00  0.21122378549E+01  0.12700000000E+01 0. -1.
         -4    1    1    2    0  501  0.11847246721E+01 -0.11005277063E+01 -0.18822503081E+01  0.27875616591E+01  0.12700000000E+01 0. -1.
<mgrwt>
<rscale>  0 0.20561211E+01</rscale>
<asrwt>0</asrwt>
<pdfrwt beam="1">0</pdfrwt>
<pdfrwt beam="2">0</pdfrwt>
<totfact> 0.40429650E+12</totfact>
</mgrwt>
</event>
<event>
 4    1  0.1735226E+006  0.2045775E+01  0.7546771E-02  0.2950496E+00
         22   -1    0    0    0    0  0.00000000000E+00  0.00000000000E+00  0.11486942572E+02  0.11486942572E+02  0.00000000000E+00 0.  1.
         22   -1    0    0    0    0 -0.00000000000E+00 -0.00000000000E+00 -0.96860491697E+00  0.96860491697E+00  0.00000000000E+00 0. -1.
          4    1    1    2  501    0 -0.16666234299E+00 -0.15951544940E+01  0.10178112871E+02  0.10381675000E+02  0.12700000000E+01 0.  1.
         -4    1    1    2    0  501  0.16666234299E+00  0.15951544940E+01  0.34022478417E+00  0.20738724889E+01  0.12700000000E+01 0. -1.
<mgrwt>
<rscale>  0 0.20457747E+01</rscale>
<asrwt>0</asrwt>
<pdfrwt beam="1">0</pdfrwt>
<pdfrwt beam="2">0</pdfrwt>
<totfact> 0.13906154E+12</totfact>
</mgrwt>
</event>
<event>
 4    1  0.1735226E+006  0.4291645E+01  0.7546771E-02  0.2224787E+00
         22   -1    0    0    0    0  0.00000000000E+00  0.00000000000E+00  0.44319677868E+00  0.44319677868E+00  0.00000000000E+00 0.  1.
         22   -1    0    0    0    0 -0.00000000000E+00 -0.00000000000E+00 -0.41569223937E+02  0.41569223937E+02  0.00000000000E+00 0. -1.
          4    1    1    2  501    0 -0.31109069239E+01 -0.26697523466E+01 -0.20212600185E+02  0.20663190115E+02  0.12700000000E+01 0. -1.
         -4    1    1    2    0  501  0.31109069239E+01  0.26697523466E+01 -0.20913426973E+02  0.21349230601E+02  0.12700000000E+01 0.  1.
<mgrwt>
<rscale>  0 0.42916453E+01</rscale>
<asrwt>0</asrwt>
<pdfrwt beam="1">0</pdfrwt>
<pdfrwt beam="2">0</pdfrwt>
<totfact> 0.67216155E+11</totfact>
</mgrwt>
</event>
<event>
 4    1  0.1735226E+006  0.3178379E+01  0.7546771E-02  0.2468649E+00
         22   -1    0    0    0    0  0.00000000000E+00  0.00000000000E+00  0.12386849960E+01  0.12386849960E+01  0.00000000000E+00 0. -1.
         22   -1    0    0    0    0 -0.00000000000E+00 -0.00000000000E+00 -0.83839409850E+01  0.83839409850E+01  0.00000000000E+00 0.  1.
          4    1    1    2  501    0 -0.25341903647E+01 -0.14377314872E+01 -0.27784301509E+01  0.42215834395E+01  0.12700000000E+01 0. -1.
         -4    1    1    2    0  501  0.25341903647E+01  0.14377314872E+01 -0.43668258382E+01  0.54010425415E+01  0.12700000000E+01 0.  1.
<mgrwt>
<rscale>  0 0.31783789E+01</rscale>
<asrwt>0</asrwt>
<pdfrwt beam="1">0</pdfrwt>
<pdfrwt beam="2">0</pdfrwt>
<totfact> 0.15366382E+12</totfact>
</mgrwt>
</event>
<event>
 4    1  0.1735226E+006  0.2249584E+01  0.7546771E-02  0.2830409E+00
         22   -1    0    0    0    0  0.00000000000E+00  0.00000000000E+00  0.47008133194E+02  0.47008133194E+02  0.00000000000E+00 0.  1.
         22   -1    0    0    0    0 -0.00000000000E+00 -0.00000000000E+00 -0.32242508757E+00  0.32242508757E+00  0.00000000000E+00 0.  1.
          4    1    1    2  501    0  0.15074514666E+01 -0.10841215942E+01  0.42657412435E+02  0.42716688369E+02  0.12700000000E+01 0.  1.
         -4    1    1    2    0  501 -0.15074514666E+01  0.10841215942E+01  0.40282956718E+01  0.46138699130E+01  0.12700000000E+01 0.  1.
<mgrwt>
<rscale>  0 0.22495843E+01</rscale>
<asrwt>0</asrwt>
<pdfrwt beam="1">0</pdfrwt>
<pdfrwt beam="2">0</pdfrwt>
<totfact> 0.81856409E+11</totfact>
</mgrwt>
</event>
<event>
 4    1  0.1735226E+006  0.2475625E+01  0.7546771E-02  0.2719375E+00
         22   -1    0    0    0    0  0.00000000000E+00  0.00000000000E+00  0.41549355677E+01  0.41549355677E+01  0.00000000000E+00 0.  1.
         22   -1    0    0    0    0 -0.00000000000E+00 -0.00000000000E+00 -0.16487914871E+01  0.16487914871E+01  0.00000000000E+00 0. -1.
          4    1    1    2  501    0 -0.21056895240E+01 -0.28616930679E+00  0.21950718952E+01  0.33086344417E+01  0.12700000000E+01 0.  1.
         -4    1    1    2    0  501  0.21056895240E+01  0.28616930679E+00  0.31107218527E+00  0.24950926131E+01  0.12700000000E+01 0. -1.
<mgrwt>
<rscale>  0 0.24756254E+01</rscale>
<asrwt>0</asrwt>
<pdfrwt beam="1">0</pdfrwt>
<pdfrwt beam="2">0</pdfrwt>
<totfact> 0.25504333E+12</totfact>
</mgrwt>
</event>
<event>
 4    1  0.1735226E+006  0.2240220E+01  0.7546771E-02  0.2835466E+00
         22   -1    0    0    0    0  0.00000000000E+00  0.00000000000E+00  0.61835937449E+00  0.61835937449E+00  0.00000000000E+00 0. -1.
         22   -1    0    0    0    0 -0.00000000000E+00 -0.00000000000E+00 -0.88326399417E+01  0.88326399417E+01  0.00000000000E+00 0.  1.
          4    1    1    2  501    0 -0.52361793970E+00  0.17696075472E+01 -0.27610883082E+01  0.35555864866E+01  0.12700000000E+01 0. -1.
         -4    1    1    2    0  501  0.52361793970E+00 -0.17696075472E+01 -0.54531922590E+01  0.58954128296E+01  0.12700000000E+01 0.  1.
<mgrwt>
<rscale>  0 0.22402202E+01</rscale>
<asrwt>0</asrwt>
<pdfrwt beam="1">0</pdfrwt>
<pdfrwt beam="2">0</pdfrwt>
<totfact> 0.31846758E+12</totfact>
</mgrwt>
</event>
<event>
 4    1  0.1735226E+006  0.2012885E+01  0.7546771E-02  0.2972083E+00
         22   -1    0    0    0    0  0.00000000000E+00  0.00000000000E+00  0.16362383340E+02  0.16362383340E+02  0.00000000000E+00 0.  1.
         22   -1    0    0    0    0 -0.00000000000E+00 -0.00000000000E+00 -0.28453879584E+00  0.28453879584E+00  0.00000000000E+00 0. -1.
          4    1    1    2  501    0  0.15601298411E+01 -0.69291636239E-01  0.11036965475E+02  0.11219015703E+02  0.12700000000E+01 0.  1.
         -4    1    1    2    0  501 -0.15601298411E+01  0.69291636239E-01  0.50408790692E+01  0.54279064327E+01  0.12700000000E+01 0. -1.
<mgrwt>
<rscale>  0 0.20128851E+01</rscale>
<asrwt>0</asrwt>
<pdfrwt beam="1">0</pdfrwt>
<pdfrwt beam="2">0</pdfrwt>
<totfact> 0.35989389E+12</totfact>
</mgrwt>
</event>
<event>
 4    1  0.1735226E+006  0.2101038E+01  0.7546771E-02  0.2915711E+00
         22   -1    0    0    0    0  0.00000000000E+00  0.00000000000E+00  0.17088976084E+01  0.17088976084E+01  0.00000000000E+00 0. -1.
         22   -1    0    0    0    0 -0.00000000000E+00 -0.00000000000E+00 -0.29578792080E+01  0.29578792080E+01  0.00000000000E+00 0.  1.
          4    1    1    2  501    0 -0.11641251366E+01 -0.12026106506E+01  0.20602618748E+00  0.21111149899E+01  0.12700000000E+01 0. -1.
         -4    1    1    2    0  501  0.11641251366E+01  0.12026106506E+01 -0.14550077871E+01  0.25556618265E+01  0.12700000000E+01 0.  1.
<mgrwt>
<rscale>  0 0.21010378E+01</rscale>
<asrwt>0</asrwt>
<pdfrwt beam="1">0</pdfrwt>
<pdfrwt beam="2">0</pdfrwt>
<totfact> 0.36453312E+12</totfact>
</mgrwt>
</event>
<event>
 4    1  0.1735226E+006  0.2324477E+01  0.7546771E-02  0.2791364E+00
         22   -1    0    0    0    0  0.00000000000E+00  0.00000000000E+00  0.12606251609E+02  0.12606251609E+02  0.00000000000E+00 0.  1.
         22   -1    0    0    0    0 -0.00000000000E+00 -0.00000000000E+00 -0.10501713586E+01  0.10501713586E+01  0.00000000000E+00 0. -1.
          4    1    1    2  501    0  0.11918207916E+01  0.15394331792E+01  0.11031170352E+02  0.11273416104E+02  0.12700000000E+01 0.  1.
         -4    1    1    2    0  501 -0.11918207916E+01 -0.15394331792E+01  0.52490989865E+00  0.23830068641E+01  0.12700000000E+01 0. -1.
<mgrwt>
<rscale>  0 0.23244766E+01</rscale>
<asrwt>0</asrwt>
<pdfrwt beam="1">0</pdfrwt>
<pdfrwt beam="2">0</pdfrwt>
<totfact> 0.11321065E+12</totfact>
</mgrwt>
</event>
<event>
 4    1  0.1735226E+006  0.2172457E+01  0.7546771E-02  0.2873299E+00
         22   -1    0    0    0    0  0.00000000000E+00  0.00000000000E+00  0.38281990474E+02  0.38281990474E+02  0.00000000000E+00 0. -1.
         22   -1    0    0    0    0 -0.00000000000E+00 -0.00000000000E+00 -0.31053998112E+00  0.31053998112E+00  0.00000000000E+00 0.  1.
          4    1    1    2  501    0 -0.17359112539E+01 -0.30541990929E+00  0.33969870546E+02  0.34039266651E+02  0.12700000000E+01 0. -1.
         -4    1    1    2    0  501  0.17359112539E+01  0.30541990929E+00  0.40015799472E+01  0.45532638048E+01  0.12700000000E+01 0.  1.
<mgrwt>
<rscale>  0 0.21724570E+01</rscale>
<asrwt>0</asrwt>
<pdfrwt beam="1">0</pdfrwt>
<pdfrwt beam="2">0</pdfrwt>
<totfact> 0.11157451E+12</totfact>
</mgrwt>
</event>
<event>
 4    1  0.1735226E+006  0.2044139E+01  0.7546771E-02  0.2951554E+00
         22   -1    0    0    0    0  0.00000000000E+00  0.00000000000E+00  0.64685087672E+02  0.64685087672E+02  0.00000000000E+00 0.  1.
         22   -1    0    0    0    0 -0.00000000000E+00 -0.00000000000E+00 -0.80988676231E-01  0.80988676231E-01  0.00000000000E+00 0. -1.
          4    1    1    2  501    0 -0.68353372535E+00 -0.14485801619E+01  0.46870349823E+02  0.46914903766E+02  0.12700000000E+01 0.  1.
         -4    1    1    2    0  501  0.68353372535E+00  0.14485801619E+01  0.17733749173E+02  0.17851172582E+02  0.12700000000E+01 0. -1.
<mgrwt>
<rscale>  0 0.20441387E+01</rscale>
<asrwt>0</asrwt>
<pdfrwt beam="1">0</pdfrwt>
<pdfrwt beam="2">0</pdfrwt>
<totfact> 0.24919462E+12</totfact>
</mgrwt>
</event>
<event>
 4    1  0.1735226E+006  0.2889339E+01  0.7546771E-02  0.2558350E+00
         22   -1    0    0    0    0  0.00000000000E+00  0.00000000000E+00  0.71235832612E+01  0.71235832612E+01  0.00000000000E+00 0.  1.
         22   -1    0    0    0    0 -0.00000000000E+00 -0.00000000000E+00 -0.86726426910E+01  0.86726426910E+01  0.00000000000E+00 0. -1.
          4    1    1    2  501    0 -0.69669688978E-01 -0.25943253379E+01  0.65705943601E+01  0.71778122064E+01  0.12700000000E+01 0.  1.
         -4    1    1    2    0  501  0.69669688978E-01  0.25943253379E+01 -0.81196537899E+01  0.86184137458E+01  0.12700000000E+01 0. -1.
<mgrwt>
<rscale>  0 0.28893386E+01</rscale>
<asrwt>0</asrwt>
<pdfrwt beam="1">0</pdfrwt>
<pdfrwt beam="2">0</pdfrwt>
<totfact> 0.19082305E+11</totfact>
</mgrwt>
</event>
<event>
 4    1  0.1735226E+006  0.2883072E+01  0.7546771E-02  0.2560473E+00
         22   -1    0    0    0    0  0.00000000000E+00  0.00000000000E+00  0.63382923359E+00  0.63382923359E+00  0.00000000000E+00 0.  1.
         22   -1    0    0    0    0 -0.00000000000E+00 -0.00000000000E+00 -0.13618935546E+02  0.13618935546E+02  0.00000000000E+00 0. -1.
          4    1    1    2  501    0  0.15152227256E+01 -0.20984057835E+01 -0.51205096066E+01  0.58763700847E+01  0.12700000000E+01 0.  1.
         -4    1    1    2    0  501 -0.15152227256E+01  0.20984057835E+01 -0.78645967061E+01  0.83763946952E+01  0.12700000000E+01 0. -1.
<mgrwt>
<rscale>  0 0.28830724E+01</rscale>
<asrwt>0</asrwt>
<pdfrwt beam="1">0</pdfrwt>
<pdfrwt beam="2">0</pdfrwt>
<totfact> 0.18297764E+12</totfact>
</mgrwt>
</event>
<event>
 4    1  0.1735226E+006  0.2022199E+01  0.7546771E-02  0.2965900E+00
         22   -1    0    0    0    0  0.00000000000E+00  0.00000000000E+00  0.39826486872E+01  0.39826486872E+01  0.00000000000E+00 0. -1.
         22   -1    0    0    0    0 -0.00000000000E+00 -0.00000000000E+00 -0.11302561803E+01  0.11302561803E+01  0.00000000000E+00 0.  1.
          4    1    1    2  501    0  0.11674796128E+01  0.10551683434E+01  0.21997267543E+01  0.29879904071E+01  0.12700000000E+01 0.  1.
         -4    1    1    2    0  501 -0.11674796128E+01 -0.10551683434E+01  0.65266575258E+00  0.21249144604E+01  0.12700000000E+01 0. -1.
<mgrwt>
<rscale>  0 0.20221990E+01</rscale>
<asrwt>0</asrwt>
<pdfrwt beam="1">0</pdfrwt>
<pdfrwt beam="2">0</pdfrwt>
<totfact> 0.41360115E+12</totfact>
</mgrwt>
</event>
<event>
 4    1  0.1735226E+006  0.2438087E+01  0.7546771E-02  0.2736471E+00
         22   -1    0    0    0    0  0.00000000000E+00  0.00000000000E+00  0.10231317996E+02  0.10231317996E+02  0.00000000000E+00 0.  1.
         22   -1    0    0    0    0 -0.00000000000E+00 -0.00000000000E+00 -0.62745985951E+00  0.62745985951E+00  0.00000000000E+00 0. -1.
          4    1    1    2  501    0  0.18089787563E+01  0.10290600460E+01  0.62795224934E+01  0.67362208593E+01  0.12700000000E+01 0.  1.
         -4    1    1    2    0  501 -0.18089787563E+01 -0.10290600460E+01  0.33243356427E+01  0.41225569959E+01  0.12700000000E+01 0. -1.
<mgrwt>
<rscale>  0 0.24380871E+01</rscale>
<asrwt>0</asrwt>
<pdfrwt beam="1">0</pdfrwt>
<pdfrwt beam="2">0</pdfrwt>
<totfact> 0.26225500E+12</totfact>
</mgrwt>
</event>
<event>
 4    1  0.1735226E+006  0.2421837E+01  0.7546771E-02  0.2744026E+00
         22   -1    0    0    0    0  0.00000000000E+00  0.00000000000E+00  0.11521802068E+01  0.11521802068E+01  0.00000000000E+00 0.  1.
         22   -1    0    0    0    0 -0.00000000000E+00 -0.00000000000E+00 -0.67205915644E+01  0.67205915644E+01  0.00000000000E+00 0. -1.
          4    1    1    2  501    0  0.91197552403E+00 -0.18495115942E+01 -0.84561491883E+00  0.25652206697E+01  0.12700000000E+01 0.  1.
         -4    1    1    2    0  501 -0.91197552403E+00  0.18495115942E+01 -0.47227964387E+01  0.53075511015E+01  0.12700000000E+01 0. -1.
<mgrwt>
<rscale>  0 0.24218366E+01</rscale>
<asrwt>0</asrwt>
<pdfrwt beam="1">0</pdfrwt>
<pdfrwt beam="2">0</pdfrwt>
<totfact> 0.21763097E+12</totfact>
</mgrwt>
</event>
<event>
 4    1  0.1735226E+006  0.2292497E+01  0.7546771E-02  0.2807740E+00
         22   -1    0    0    0    0  0.00000000000E+00  0.00000000000E+00  0.67084502861E+01  0.67084502861E+01  0.00000000000E+00 0. -1.
         22   -1    0    0    0    0 -0.00000000000E+00 -0.00000000000E+00 -0.14309792692E+01  0.14309792692E+01  0.00000000000E+00 0.  1.
          4    1    1    2  501    0  0.16277781929E+01  0.99648372351E+00  0.53764407512E+01  0.58447974138E+01  0.12700000000E+01 0. -1.
         -4    1    1    2    0  501 -0.16277781929E+01 -0.99648372351E+00 -0.98969734368E-01  0.22946321415E+01  0.12700000000E+01 0.  1.
<mgrwt>
<rscale>  0 0.22924968E+01</rscale>
<asrwt>0</asrwt>
<pdfrwt beam="1">0</pdfrwt>
<pdfrwt beam="2">0</pdfrwt>
<totfact> 0.17009273E+12</totfact>
</mgrwt>
</event>
<event>
 4    1  0.1735226E+006  0.3225545E+01  0.7546771E-02  0.2455377E+00
         22   -1    0    0    0    0  0.00000000000E+00  0.00000000000E+00  0.15053385731E+02  0.15053385731E+02  0.00000000000E+00 0. -1.
         22   -1    0    0    0    0 -0.00000000000E+00 -0.00000000000E+00 -0.69888642204E+00  0.69888642204E+00  0.00000000000E+00 0.  1.
          4    1    1    2  501    0  0.28529281195E+01 -0.80749099858E+00  0.63485579322E+01  0.71209780498E+01  0.12700000000E+01 0. -1.
         -4    1    1    2    0  501 -0.28529281195E+01  0.80749099858E+00  0.80059413770E+01  0.86312941035E+01  0.12700000000E+01 0.  1.
<mgrwt>
<rscale>  0 0.32255450E+01</rscale>
<asrwt>0</asrwt>
<pdfrwt beam="1">0</pdfrwt>
<pdfrwt beam="2">0</pdfrwt>
<totfact> 0.14482956E+12</totfact>
</mgrwt>
</event>
<event>
 4    1  0.1735226E+006  0.2130269E+01  0.7546771E-02  0.2898020E+00
         22   -1    0    0    0    0  0.00000000000E+00  0.00000000000E+00  0.86473039229E+00  0.86473039229E+00  0.00000000000E+00 0. -1.
         22   -1    0    0    0    0 -0.00000000000E+00 -0.00000000000E+00 -0.42804354161E+02  0.42804354161E+02  0.00000000000E+00 0. -1.
          4    1    1    2  501    0  0.18112228540E+00  0.17006884191E+01 -0.51750864251E+00  0.21922275375E+01  0.12700000000E+01 0. -1.
         -4    1    1    2    0  501 -0.18112228540E+00 -0.17006884191E+01 -0.41422115126E+02  0.41476857016E+02  0.12700000000E+01 0. -1.
<mgrwt>
<rscale>  0 0.21302691E+01</rscale>
<asrwt>0</asrwt>
<pdfrwt beam="1">0</pdfrwt>
<pdfrwt beam="2">0</pdfrwt>
<totfact> 0.30336906E+11</totfact>
</mgrwt>
</event>
<event>
 4    1  0.1735226E+006  0.2568864E+01  0.7546771E-02  0.2678927E+00
         22   -1    0    0    0    0  0.00000000000E+00  0.00000000000E+00  0.25459058698E+01  0.25459058698E+01  0.00000000000E+00 0. -1.
         22   -1    0    0    0    0 -0.00000000000E+00 -0.00000000000E+00 -0.26097690973E+01  0.26097690973E+01  0.00000000000E+00 0.  1.
          4    1    1    2  501    0  0.16461660987E+01 -0.15087404434E+01  0.18060742957E+00  0.25752047673E+01  0.12700000000E+01 0. -1.
         -4    1    1    2    0  501 -0.16461660987E+01  0.15087404434E+01 -0.24447065707E+00  0.25804701998E+01  0.12700000000E+01 0.  1.
<mgrwt>
<rscale>  0 0.25688637E+01</rscale>
<asrwt>0</asrwt>
<pdfrwt beam="1">0</pdfrwt>
<pdfrwt beam="2">0</pdfrwt>
<totfact> 0.26582580E+12</totfact>
</mgrwt>
</event>
<event>
 4    1  0.1735226E+006  0.2684155E+01  0.7546771E-02  0.2632518E+00
         22   -1    0    0    0    0  0.00000000000E+00  0.00000000000E+00  0.12066164161E+02  0.12066164161E+02  0.00000000000E+00 0.  1.
         22   -1    0    0    0    0 -0.00000000000E+00 -0.00000000000E+00 -0.70921116613E+00  0.70921116613E+00  0.00000000000E+00 0.  1.
          4    1    1    2  501    0 -0.21380463888E+01 -0.10102208248E+01  0.82181812859E+01  0.86454145142E+01  0.12700000000E+01 0.  1.
         -4    1    1    2    0  501  0.21380463888E+01  0.10102208248E+01  0.31387717094E+01  0.41299608133E+01  0.12700000000E+01 0.  1.
<mgrwt>
<rscale>  0 0.26841551E+01</rscale>
<asrwt>0</asrwt>
<pdfrwt beam="1">0</pdfrwt>
<pdfrwt beam="2">0</pdfrwt>
<totfact> 0.18677142E+12</totfact>
</mgrwt>
</event>
<event>
 4    1  0.1735226E+006  0.3284865E+01  0.7546771E-02  0.2439165E+00
         22   -1    0    0    0    0  0.00000000000E+00  0.00000000000E+00  0.51162953802E+02  0.51162953802E+02  0.00000000000E+00 0.  1.
         22   -1    0    0    0    0 -0.00000000000E+00 -0.00000000000E+00 -0.65296696143E+00  0.65296696143E+00  0.00000000000E+00 0. -1.
          4    1    1    2  501    0 -0.25610095795E+01 -0.16182300764E+01  0.46572232767E+02  0.46687934239E+02  0.12700000000E+01 0.  1.
         -4    1    1    2    0  501  0.25610095795E+01  0.16182300764E+01  0.39377540739E+01  0.51279865243E+01  0.12700000000E+01 0. -1.
<mgrwt>
<rscale>  0 0.32848651E+01</rscale>
<asrwt>0</asrwt>
<pdfrwt beam="1">0</pdfrwt>
<pdfrwt beam="2">0</pdfrwt>
<totfact> 0.33035457E+11</totfact>
</mgrwt>
</event>
<event>
 4    1  0.1735226E+006  0.2061586E+01  0.7546771E-02  0.2940359E+00
         22   -1    0    0    0    0  0.00000000000E+00  0.00000000000E+00  0.13135509980E+01  0.13135509980E+01  0.00000000000E+00 0. -1.
         22   -1    0    0    0    0 -0.00000000000E+00 -0.00000000000E+00 -0.32469440900E+01  0.32469440900E+01  0.00000000000E+00 0.  1.
          4    1    1    2  501    0  0.58351440927E+00  0.15155028545E+01 -0.11014218734E+01  0.23373634957E+01  0.12700000000E+01 0.  1.
         -4    1    1    2    0  501 -0.58351440927E+00 -0.15155028545E+01 -0.83197121866E+00  0.22231315923E+01  0.12700000000E+01 0. -1.
<mgrwt>
<rscale>  0 0.20615863E+01</rscale>
<asrwt>0</asrwt>
<pdfrwt beam="1">0</pdfrwt>
<pdfrwt beam="2">0</pdfrwt>
<totfact> 0.44245608E+12</totfact>
</mgrwt>
</event>
<event>
 4    1  0.1735226E+006  0.2634803E+01  0.7546771E-02  0.2651926E+00
         22   -1    0    0    0    0  0.00000000000E+00  0.00000000000E+00  0.32180057000E+02  0.32180057000E+02  0.00000000000E+00 0. -1.
         22   -1    0    0    0    0 -0.00000000000E+00 -0.00000000000E+00 -0.22488192535E+00  0.22488192535E+00  0.00000000000E+00 0.  1.
          4    1    1    2  501    0 -0.13274141538E+01  0.18887185219E+01  0.19246273707E+02  0.19425787953E+02  0.12700000000E+01 0.  1.
         -4    1    1    2    0  501  0.13274141538E+01 -0.18887185219E+01  0.12708901369E+02  0.12979150973E+02  0.12700000000E+01 0. -1.
<mgrwt>
<rscale>  0 0.26348028E+01</rscale>
<asrwt>0</asrwt>
<pdfrwt beam="1">0</pdfrwt>
<pdfrwt beam="2">0</pdfrwt>
<totfact> 0.20022910E+12</totfact>
</mgrwt>
</event>
<event>
 4    1  0.1735226E+006  0.2024870E+01  0.7546771E-02  0.2964137E+00
         22   -1    0    0    0    0  0.00000000000E+00  0.00000000000E+00  0.31846121605E+02  0.31846121605E+02  0.00000000000E+00 0.  1.
         22   -1    0    0    0    0 -0.00000000000E+00 -0.00000000000E+00 -0.12887275900E+00  0.12887275900E+00  0.00000000000E+00 0. -1.
          4    1    1    2  501    0 -0.99533625200E+00  0.12233174833E+01  0.15359655803E+02  0.15492550672E+02  0.12700000000E+01 0. -1.
         -4    1    1    2    0  501  0.99533625200E+00 -0.12233174833E+01  0.16357593043E+02  0.16482443693E+02  0.12700000000E+01 0. -1.
<mgrwt>
<rscale>  0 0.20248703E+01</rscale>
<asrwt>0</asrwt>
<pdfrwt beam="1">0</pdfrwt>
<pdfrwt beam="2">0</pdfrwt>
<totfact> 0.37714403E+12</totfact>
</mgrwt>
</event>
<event>
 4    1  0.1735226E+006  0.2540992E+01  0.7546771E-02  0.2690729E+00
         22   -1    0    0    0    0  0.00000000000E+00  0.00000000000E+00  0.12713002419E+02  0.12713002419E+02  0.00000000000E+00 0.  1.
         22   -1    0    0    0    0 -0.00000000000E+00 -0.00000000000E+00 -0.76572023476E+00  0.76572023476E+00  0.00000000000E+00 0. -1.
          4    1    1    2  501    0  0.69567114448E+00 -0.20880092060E+01  0.98844050077E+01  0.10205787728E+02  0.12700000000E+01 0.  1.
         -4    1    1    2    0  501 -0.69567114448E+00  0.20880092060E+01  0.20628771767E+01  0.32729349263E+01  0.12700000000E+01 0. -1.
<mgrwt>
<rscale>  0 0.25409921E+01</rscale>
<asrwt>0</asrwt>
<pdfrwt beam="1">0</pdfrwt>
<pdfrwt beam="2">0</pdfrwt>
<totfact> 0.16061798E+12</totfact>
</mgrwt>
</event>
<event>
 4    1  0.1735226E+006  0.3521438E+01  0.7546771E-02  0.2379315E+00
         22   -1    0    0    0    0  0.00000000000E+00  0.00000000000E+00  0.31493830603E+01  0.31493830603E+01  0.00000000000E+00 0. -1.
         22   -1    0    0    0    0 -0.00000000000E+00 -0.00000000000E+00 -0.95946945162E+01  0.95946945162E+01  0.00000000000E+00 0.  1.
          4    1    1    2  501    0  0.21106927943E+01 -0.25164659708E+01  0.16702344920E+01  0.38974617781E+01  0.12700000000E+01 0. -1.
         -4    1    1    2    0  501 -0.21106927943E+01  0.25164659708E+01 -0.81155459478E+01  0.88466157984E+01  0.12700000000E+01 0.  1.
<mgrwt>
<rscale>  0 0.35214379E+01</rscale>
<asrwt>0</asrwt>
<pdfrwt beam="1">0</pdfrwt>
<pdfrwt beam="2">0</pdfrwt>
<totfact> 0.44345399E+11</totfact>
</mgrwt>
</event>
<event>
 4    1  0.1735226E+006  0.3128251E+01  0.7546771E-02  0.2483142E+00
         22   -1    0    0    0    0  0.00000000000E+00  0.00000000000E+00  0.43324996283E+01  0.43324996283E+01  0.00000000000E+00 0.  1.
         22   -1    0    0    0    0 -0.00000000000E+00 -0.00000000000E+00 -0.63661006930E+01  0.63661006930E+01  0.00000000000E+00 0. -1.
          4    1    1    2  501    0 -0.26676438260E+01  0.10279740940E+01  0.32799691521E+01  0.45325657148E+01  0.12700000000E+01 0.  1.
         -4    1    1    2    0  501  0.26676438260E+01 -0.10279740940E+01 -0.53135702168E+01  0.61660346065E+01  0.12700000000E+01 0. -1.
<mgrwt>
<rscale>  0 0.31282510E+01</rscale>
<asrwt>0</asrwt>
<pdfrwt beam="1">0</pdfrwt>
<pdfrwt beam="2">0</pdfrwt>
<totfact> 0.49897673E+11</totfact>
</mgrwt>
</event>
<event>
 4    1  0.1735226E+006  0.2175012E+01  0.7546771E-02  0.2871832E+00
         22   -1    0    0    0    0  0.00000000000E+00  0.00000000000E+00  0.25020530842E+02  0.25020530842E+02  0.00000000000E+00 0. -1.
         22   -1    0    0    0    0 -0.00000000000E+00 -0.00000000000E+00 -0.25294358504E+00  0.25294358504E+00  0.00000000000E+00 0. -1.
          4    1    1    2  501    0  0.43530181466E+00  0.17112243995E+01  0.18733851332E+02  0.18859688819E+02  0.12700000000E+01 0. -1.
         -4    1    1    2    0  501 -0.43530181466E+00 -0.17112243995E+01  0.60337359245E+01  0.64137856078E+01  0.12700000000E+01 0. -1.
<mgrwt>
<rscale>  0 0.21750119E+01</rscale>
<asrwt>0</asrwt>
<pdfrwt beam="1">0</pdfrwt>
<pdfrwt beam="2">0</pdfrwt>
<totfact> 0.24168476E+12</totfact>
</mgrwt>
</event>
<event>
 4    1  0.1735226E+006  0.3667982E+01  0.7546771E-02  0.2345640E+00
         22   -1    0    0    0    0  0.00000000000E+00  0.00000000000E+00  0.20458144299E+01  0.20458144299E+01  0.00000000000E+00 0.  1.
         22   -1    0    0    0    0 -0.00000000000E+00 -0.00000000000E+00 -0.23699932704E+02  0.23699932704E+02  0.00000000000E+00 0. -1.
          4    1    1    2  501    0 -0.48384587548E+00  0.34069168809E+01  0.11498996589E+00  0.36697836662E+01  0.12700000000E+01 0.  1.
         -4    1    1    2    0  501  0.48384587548E+00 -0.34069168809E+01 -0.21769108240E+02  0.22075963468E+02  0.12700000000E+01 0. -1.
<mgrwt>
<rscale>  0 0.36679817E+01</rscale>
<asrwt>0</asrwt>
<pdfrwt beam="1">0</pdfrwt>
<pdfrwt beam="2">0</pdfrwt>
<totfact> 0.24052034E+11</totfact>
</mgrwt>
</event>
<event>
 4    1  0.1735226E+006  0.2524573E+01  0.7546771E-02  0.2697795E+00
         22   -1    0    0    0    0  0.00000000000E+00  0.00000000000E+00  0.30012090172E+01  0.30012090172E+01  0.00000000000E+00 0. -1.
         22   -1    0    0    0    0 -0.00000000000E+00 -0.00000000000E+00 -0.21670498206E+01  0.21670498206E+01  0.00000000000E+00 0.  1.
          4    1    1    2  501    0  0.18931438896E+01 -0.10847014327E+01  0.51315258508E-01  0.25250948973E+01  0.12700000000E+01 0.  1.
         -4    1    1    2    0  501 -0.18931438896E+01  0.10847014327E+01  0.78284393810E+00  0.26431639405E+01  0.12700000000E+01 0. -1.
<mgrwt>
<rscale>  0 0.25245734E+01</rscale>
<asrwt>0</asrwt>
<pdfrwt beam="1">0</pdfrwt>
<pdfrwt beam="2">0</pdfrwt>
<totfact> 0.27232574E+12</totfact>
</mgrwt>
</event>
<event>
 4    1  0.1735226E+006  0.2487442E+01  0.7546771E-02  0.2714093E+00
         22   -1    0    0    0    0  0.00000000000E+00  0.00000000000E+00  0.64524083441E+00  0.64524083441E+00  0.00000000000E+00 0.  1.
         22   -1    0    0    0    0 -0.00000000000E+00 -0.00000000000E+00 -0.15612237064E+02  0.15612237064E+02  0.00000000000E+00 0.  1.
          4    1    1    2  501    0  0.16416092122E+00  0.21324911331E+01 -0.24345949149E+01  0.34806062174E+01  0.12700000000E+01 0.  1.
         -4    1    1    2    0  501 -0.16416092122E+00 -0.21324911331E+01 -0.12532401315E+02  0.12776871681E+02  0.12700000000E+01 0.  1.
<mgrwt>
<rscale>  0 0.24874419E+01</rscale>
<asrwt>0</asrwt>
<pdfrwt beam="1">0</pdfrwt>
<pdfrwt beam="2">0</pdfrwt>
<totfact> 0.15159692E+12</totfact>
</mgrwt>
</event>
<event>
 4    1  0.1735226E+006  0.2298310E+01  0.7546771E-02  0.2804731E+00
         22   -1    0    0    0    0  0.00000000000E+00  0.00000000000E+00  0.73810266513E+01  0.73810266513E+01  0.00000000000E+00 0. -1.
         22   -1    0    0    0    0 -0.00000000000E+00 -0.00000000000E+00 -0.17719818845E+01  0.17719818845E+01  0.00000000000E+00 0.  1.
          4    1    1    2  501    0  0.17278862809E+00 -0.19077398067E+01  0.63380179975E+01  0.67418617026E+01  0.12700000000E+01 0. -1.
         -4    1    1    2    0  501 -0.17278862809E+00  0.19077398067E+01 -0.72897323075E+00  0.24111468332E+01  0.12700000000E+01 0.  1.
<mgrwt>
<rscale>  0 0.22983096E+01</rscale>
<asrwt>0</asrwt>
<pdfrwt beam="1">0</pdfrwt>
<pdfrwt beam="2">0</pdfrwt>
<totfact> 0.11860616E+12</totfact>
</mgrwt>
</event>
<event>
 4    1  0.1735226E+006  0.2190616E+01  0.7546771E-02  0.2862941E+00
         22   -1    0    0    0    0  0.00000000000E+00  0.00000000000E+00  0.45464275270E+01  0.45464275270E+01  0.00000000000E+00 0.  1.
         22   -1    0    0    0    0 -0.00000000000E+00 -0.00000000000E+00 -0.27817066210E+01  0.27817066210E+01  0.00000000000E+00 0. -1.
          4    1    1    2  501    0  0.14206534679E+01 -0.10805740015E+01  0.37687369177E+01  0.43591483576E+01  0.12700000000E+01 0.  1.
         -4    1    1    2    0  501 -0.14206534679E+01  0.10805740015E+01 -0.20040160117E+01  0.29689857904E+01  0.12700000000E+01 0. -1.
<mgrwt>
<rscale>  0 0.21906155E+01</rscale>
<asrwt>0</asrwt>
<pdfrwt beam="1">0</pdfrwt>
<pdfrwt beam="2">0</pdfrwt>
<totfact> 0.12507050E+12</totfact>
</mgrwt>
</event>
<event>
 4    1  0.1735226E+006  0.3140026E+01  0.7546771E-02  0.2479701E+00
         22   -1    0    0    0    0  0.00000000000E+00  0.00000000000E+00  0.21133528411E+01  0.21133528411E+01  0.00000000000E+00 0. -1.
         22   -1    0    0    0    0 -0.00000000000E+00 -0.00000000000E+00 -0.76690669321E+01  0.76690669321E+01  0.00000000000E+00 0.  1.
          4    1    1    2  501    0 -0.19224823381E+01 -0.21332896660E+01  0.28316589495E+00  0.31527680003E+01  0.12700000000E+01 0. -1.
         -4    1    1    2    0  501  0.19224823381E+01  0.21332896660E+01 -0.58388799860E+01  0.66296517729E+01  0.12700000000E+01 0.  1.
<mgrwt>
<rscale>  0 0.31400260E+01</rscale>
<asrwt>0</asrwt>
<pdfrwt beam="1">0</pdfrwt>
<pdfrwt beam="2">0</pdfrwt>
<totfact> 0.92405075E+11</totfact>
</mgrwt>
</event>
<event>
 4    1  0.1735226E+006  0.2719841E+01  0.7546771E-02  0.2618887E+00
         22   -1    0    0    0    0  0.00000000000E+00  0.00000000000E+00  0.35952541105E+00  0.35952541105E+00  0.00000000000E+00 0.  1.
         22   -1    0    0    0    0 -0.00000000000E+00 -0.00000000000E+00 -0.28499104502E+02  0.28499104502E+02  0.00000000000E+00 0.  1.
          4    1    1    2  501    0  0.24015587242E+01 -0.13095378457E+00 -0.64615794219E+01  0.70106734217E+01  0.12700000000E+01 0.  1.
         -4    1    1    2    0  501 -0.24015587242E+01  0.13095378457E+00 -0.21677999669E+02  0.21847956491E+02  0.12700000000E+01 0.  1.
<mgrwt>
<rscale>  0 0.27198407E+01</rscale>
<asrwt>0</asrwt>
<pdfrwt beam="1">0</pdfrwt>
<pdfrwt beam="2">0</pdfrwt>
<totfact> 0.13818876E+12</totfact>
</mgrwt>
</event>
<event>
 4    1  0.1735226E+006  0.2201965E+01  0.7546771E-02  0.2856550E+00
         22   -1    0    0    0    0  0.00000000000E+00  0.00000000000E+00  0.25973240813E+01  0.25973240813E+01  0.00000000000E+00 0.  1.
         22   -1    0    0    0    0 -0.00000000000E+00 -0.00000000000E+00 -0.22313740976E+01  0.22313740976E+01  0.00000000000E+00 0. -1.
          4    1    1    2  501    0  0.80942053185E+00  0.16064204438E+01 -0.79294701778E+00  0.23403874065E+01  0.12700000000E+01 0.  1.
         -4    1    1    2    0  501 -0.80942053185E+00 -0.16064204438E+01  0.11588970015E+01  0.24883107724E+01  0.12700000000E+01 0. -1.
<mgrwt>
<rscale>  0 0.22019646E+01</rscale>
<asrwt>0</asrwt>
<pdfrwt beam="1">0</pdfrwt>
<pdfrwt beam="2">0</pdfrwt>
<totfact> 0.31155844E+12</totfact>
</mgrwt>
</event>
<event>
 4    1  0.1735226E+006  0.2619582E+01  0.7546771E-02  0.2658048E+00
         22   -1    0    0    0    0  0.00000000000E+00  0.00000000000E+00  0.21016989661E+01  0.21016989661E+01  0.00000000000E+00 0. -1.
         22   -1    0    0    0    0 -0.00000000000E+00 -0.00000000000E+00 -0.37922253451E+01  0.37922253451E+01  0.00000000000E+00 0.  1.
          4    1    1    2  501    0 -0.19144020956E+01 -0.12587199087E+01  0.25347311747E+00  0.26318168275E+01  0.12700000000E+01 0. -1.
         -4    1    1    2    0  501  0.19144020956E+01  0.12587199087E+01 -0.19439994965E+01  0.32621074836E+01  0.12700000000E+01 0.  1.
<mgrwt>
<rscale>  0 0.26195823E+01</rscale>
<asrwt>0</asrwt>
<pdfrwt beam="1">0</pdfrwt>
<pdfrwt beam="2">0</pdfrwt>
<totfact> 0.21452253E+12</totfact>
</mgrwt>
</event>
<event>
 4    1  0.1735226E+006  0.2015635E+01  0.7546771E-02  0.2970252E+00
         22   -1    0    0    0    0  0.00000000000E+00  0.00000000000E+00  0.39516311711E+00  0.39516311711E+00  0.00000000000E+00 0. -1.
         22   -1    0    0    0    0 -0.00000000000E+00 -0.00000000000E+00 -0.17496166439E+02  0.17496166439E+02  0.00000000000E+00 0.  1.
          4    1    1    2  501    0  0.10938672444E+01 -0.11195259533E+01 -0.28059541814E+01  0.34548752187E+01  0.12700000000E+01 0. -1.
         -4    1    1    2    0  501 -0.10938672444E+01  0.11195259533E+01 -0.14295049141E+02  0.14436454338E+02  0.12700000000E+01 0.  1.
<mgrwt>
<rscale>  0 0.20156349E+01</rscale>
<asrwt>0</asrwt>
<pdfrwt beam="1">0</pdfrwt>
<pdfrwt beam="2">0</pdfrwt>
<totfact> 0.22909176E+12</totfact>
</mgrwt>
</event>
<event>
 4    1  0.1735226E+006  0.2424489E+01  0.7546771E-02  0.2742786E+00
         22   -1    0    0    0    0  0.00000000000E+00  0.00000000000E+00  0.20339465229E+02  0.20339465229E+02  0.00000000000E+00 0. -1.
         22   -1    0    0    0    0 -0.00000000000E+00 -0.00000000000E+00 -0.44506189846E+00  0.44506189846E+00  0.00000000000E+00 0. -1.
          4    1    1    2  501    0  0.44278319877E+00 -0.20172236825E+01  0.16101031074E+02  0.16282547405E+02  0.12700000000E+01 0. -1.
         -4    1    1    2    0  501 -0.44278319877E+00  0.20172236825E+01  0.37933722571E+01  0.45019797231E+01  0.12700000000E+01 0. -1.
<mgrwt>
<rscale>  0 0.24244893E+01</rscale>
<asrwt>0</asrwt>
<pdfrwt beam="1">0</pdfrwt>
<pdfrwt beam="2">0</pdfrwt>
<totfact> 0.16617225E+12</totfact>
</mgrwt>
</event>
<event>
 4    1  0.1735226E+006  0.3150927E+01  0.7546771E-02  0.2476535E+00
         22   -1    0    0    0    0  0.00000000000E+00  0.00000000000E+00  0.54157981520E+00  0.54157981520E+00  0.00000000000E+00 0.  1.
         22   -1    0    0    0    0 -0.00000000000E+00 -0.00000000000E+00 -0.32041458946E+02  0.32041458946E+02  0.00000000000E+00 0.  1.
          4    1    1    2  501    0  0.23394448729E+01 -0.16859527396E+01 -0.50934847949E+01  0.59893176832E+01  0.12700000000E+01 0.  1.
         -4    1    1    2    0  501 -0.23394448729E+01  0.16859527396E+01 -0.26406394335E+02  0.26593721078E+02  0.12700000000E+01 0.  1.
<mgrwt>
<rscale>  0 0.31509267E+01</rscale>
<asrwt>0</asrwt>
<pdfrwt beam="1">0</pdfrwt>
<pdfrwt beam="2">0</pdfrwt>
<totfact> 0.74995900E+11</totfact>
</mgrwt>
</event>
<event>
 4    1  0.1735226E+006  0.2190721E+01  0.7546771E-02  0.2862882E+00
         22   -1    0    0    0    0  0.00000000000E+00  0.00000000000E+00  0.16869412233E+00  0.16869412233E+00  0.00000000000E+00 0. -1.
         22   -1    0    0    0    0 -0.00000000000E+00 -0.00000000000E+00 -0.37523656276E+02  0.37523656276E+02  0.00000000000E+00 0.  1.
          4    1    1    2  501    0  0.16666108065E+01 -0.63934785535E+00 -0.27945238384E+02  0.28030975823E+02  0.12700000000E+01 0.  1.
         -4    1    1    2    0  501 -0.16666108065E+01  0.63934785535E+00 -0.94097237703E+01  0.96613745758E+01  0.12700000000E+01 0. -1.
<mgrwt>
<rscale>  0 0.21907207E+01</rscale>
<asrwt>0</asrwt>
<pdfrwt beam="1">0</pdfrwt>
<pdfrwt beam="2">0</pdfrwt>
<totfact> 0.22643534E+12</totfact>
</mgrwt>
</event>
<event>
 4    1  0.1735226E+006  0.2750806E+01  0.7546771E-02  0.2607322E+00
         22   -1    0    0    0    0  0.00000000000E+00  0.00000000000E+00  0.39156935376E+01  0.39156935376E+01  0.00000000000E+00 0.  1.
         22   -1    0    0    0    0 -0.00000000000E+00 -0.00000000000E+00 -0.20368625208E+01  0.20368625208E+01  0.00000000000E+00 0.  1.
          4    1    1    2  501    0 -0.41472789084E+00 -0.24045866623E+01  0.16132296294E+01  0.31889568949E+01  0.12700000000E+01 0.  1.
         -4    1    1    2    0  501  0.41472789084E+00  0.24045866623E+01  0.26560138740E+00  0.27635991636E+01  0.12700000000E+01 0.  1.
<mgrwt>
<rscale>  0 0.27508065E+01</rscale>
<asrwt>0</asrwt>
<pdfrwt beam="1">0</pdfrwt>
<pdfrwt beam="2">0</pdfrwt>
<totfact> 0.21423025E+12</totfact>
</mgrwt>
</event>
<event>
 4    1  0.1735226E+006  0.2198160E+01  0.7546771E-02  0.2858686E+00
         22   -1    0    0    0    0  0.00000000000E+00  0.00000000000E+00  0.35060683194E+01  0.35060683194E+01  0.00000000000E+00 0. -1.
         22   -1    0    0    0    0 -0.00000000000E+00 -0.00000000000E+00 -0.13848631398E+01  0.13848631398E+01  0.00000000000E+00 0.  1.
          4    1    1    2  501    0 -0.52526198788E+00  0.17155489845E+01  0.12307919978E+01  0.25192771614E+01  0.12700000000E+01 0.  1.
         -4    1    1    2    0  501  0.52526198788E+00 -0.17155489845E+01  0.89041318175E+00  0.23716542978E+01  0.12700000000E+01 0. -1.
<mgrwt>
<rscale>  0 0.21981602E+01</rscale>
<asrwt>0</asrwt>
<pdfrwt beam="1">0</pdfrwt>
<pdfrwt beam="2">0</pdfrwt>
<totfact> 0.38058670E+12</totfact>
</mgrwt>
</event>
<event>
 4    1  0.1735226E+006  0.2423885E+01  0.7546771E-02  0.2743068E+00
         22   -1    0    0    0    0  0.00000000000E+00  0.00000000000E+00  0.65092725425E+01  0.65092725425E+01  0.00000000000E+00 0.  1.
         22   -1    0    0    0    0 -0.00000000000E+00 -0.00000000000E+00 -0.23865798957E+01  0.23865798957E+01  0.00000000000E+00 0. -1.
          4    1    1    2  501    0 -0.13035896974E+01  0.16009284887E+01  0.55687418764E+01  0.60733931382E+01  0.12700000000E+01 0.  1.
         -4    1    1    2    0  501  0.13035896974E+01 -0.16009284887E+01 -0.14460492297E+01  0.28224593000E+01  0.12700000000E+01 0. -1.
<mgrwt>
<rscale>  0 0.24238849E+01</rscale>
<asrwt>0</asrwt>
<pdfrwt beam="1">0</pdfrwt>
<pdfrwt beam="2">0</pdfrwt>
<totfact> 0.97636787E+11</totfact>
</mgrwt>
</event>
<event>
 4    1  0.1735226E+006  0.2054556E+01  0.7546771E-02  0.2944847E+00
         22   -1    0    0    0    0  0.00000000000E+00  0.00000000000E+00  0.84905003048E+01  0.84905003048E+01  0.00000000000E+00 0. -1.
         22   -1    0    0    0    0 -0.00000000000E+00 -0.00000000000E+00 -0.50519163597E+00  0.50519163597E+00  0.00000000000E+00 0. -1.
          4    1    1    2  501    0  0.14025945155E+01 -0.80064262266E+00  0.45595175493E+01  0.50010399185E+01  0.12700000000E+01 0. -1.
         -4    1    1    2    0  501 -0.14025945155E+01  0.80064262266E+00  0.34257911195E+01  0.39946520222E+01  0.12700000000E+01 0. -1.
<mgrwt>
<rscale>  0 0.20545559E+01</rscale>
<asrwt>0</asrwt>
<pdfrwt beam="1">0</pdfrwt>
<pdfrwt beam="2">0</pdfrwt>
<totfact> 0.41977000E+12</totfact>
</mgrwt>
</event>
<event>
 4    1  0.1735226E+006  0.2115457E+01  0.7546771E-02  0.2906925E+00
         22   -1    0    0    0    0  0.00000000000E+00  0.00000000000E+00  0.63226079163E+01  0.63226079163E+01  0.00000000000E+00 0. -1.
         22   -1    0    0    0    0 -0.00000000000E+00 -0.00000000000E+00 -0.77165764078E+00  0.77165764078E+00  0.00000000000E+00 0. -1.
          4    1    1    2  501    0  0.14095011323E+01  0.93571665723E+00  0.37958559597E+01  0.43455358210E+01  0.12700000000E+01 0. -1.
         -4    1    1    2    0  501 -0.14095011323E+01 -0.93571665723E+00  0.17550943158E+01  0.27487297361E+01  0.12700000000E+01 0. -1.
<mgrwt>
<rscale>  0 0.21154572E+01</rscale>
<asrwt>0</asrwt>
<pdfrwt beam="1">0</pdfrwt>
<pdfrwt beam="2">0</pdfrwt>
<totfact> 0.36978596E+12</totfact>
</mgrwt>
</event>
<event>
 4    1  0.1735226E+006  0.2107791E+01  0.7546771E-02  0.2911582E+00
         22   -1    0    0    0    0  0.00000000000E+00  0.00000000000E+00  0.14698331597E+01  0.14698331597E+01  0.00000000000E+00 0. -1.
         22   -1    0    0    0    0 -0.00000000000E+00 -0.00000000000E+00 -0.32645989817E+01  0.32645989817E+01  0.00000000000E+00 0. -1.
          4    1    1    2  501    0  0.13818275756E+01 -0.95939403400E+00 -0.25293316729E+00  0.21229129865E+01  0.12700000000E+01 0. -1.
         -4    1    1    2    0  501 -0.13818275756E+01  0.95939403400E+00 -0.15418326547E+01  0.26115191549E+01  0.12700000000E+01 0. -1.
<mgrwt>
<rscale>  0 0.21077913E+01</rscale>
<asrwt>0</asrwt>
<pdfrwt beam="1">0</pdfrwt>
<pdfrwt beam="2">0</pdfrwt>
<totfact> 0.38639160E+12</totfact>
</mgrwt>
</event>
<event>
 4    1  0.1735226E+006  0.2092904E+01  0.7546771E-02  0.2920719E+00
         22   -1    0    0    0    0  0.00000000000E+00  0.00000000000E+00  0.40308111891E+00  0.40308111891E+00  0.00000000000E+00 0. -1.
         22   -1    0    0    0    0 -0.00000000000E+00 -0.00000000000E+00 -0.17848571790E+02  0.17848571790E+02  0.00000000000E+00 0. -1.
          4    1    1    2  501    0 -0.57822628897E+00  0.15598087585E+01 -0.30151961798E+01  0.36703755949E+01  0.12700000000E+01 0. -1.
         -4    1    1    2    0  501  0.57822628897E+00 -0.15598087585E+01 -0.14430294491E+02  0.14581277314E+02  0.12700000000E+01 0. -1.
<mgrwt>
<rscale>  0 0.20929044E+01</rscale>
<asrwt>0</asrwt>
<pdfrwt beam="1">0</pdfrwt>
<pdfrwt beam="2">0</pdfrwt>
<totfact> 0.21856836E+12</totfact>
</mgrwt>
</event>
<event>
 4    1  0.1735226E+006  0.2432652E+01  0.7546771E-02  0.2738987E+00
         22   -1    0    0    0    0  0.00000000000E+00  0.00000000000E+00  0.93404290327E+00  0.93404290327E+00  0.00000000000E+00 0.  1.
         22   -1    0    0    0    0 -0.00000000000E+00 -0.00000000000E+00 -0.19420155972E+02  0.19420155972E+02  0.00000000000E+00 0. -1.
          4    1    1    2  501    0  0.11953290202E+01  0.16959020408E+01 -0.88941454042E+00  0.25901454444E+01  0.12700000000E+01 0.  1.
         -4    1    1    2    0  501 -0.11953290202E+01 -0.16959020408E+01 -0.17596698528E+02  0.17764053431E+02  0.12700000000E+01 0. -1.
<mgrwt>
<rscale>  0 0.24326519E+01</rscale>
<asrwt>0</asrwt>
<pdfrwt beam="1">0</pdfrwt>
<pdfrwt beam="2">0</pdfrwt>
<totfact> 0.75961733E+11</totfact>
</mgrwt>
</event>
<event>
 4    1  0.1735226E+006  0.6418866E+01  0.7546771E-02  0.1984042E+00
         22   -1    0    0    0    0  0.00000000000E+00  0.00000000000E+00  0.13698680014E+02  0.13698680014E+02  0.00000000000E+00 0.  1.
         22   -1    0    0    0    0 -0.00000000000E+00 -0.00000000000E+00 -0.10340114349E+02  0.10340114349E+02  0.00000000000E+00 0. -1.
          4    1    1    2  501    0 -0.62055994039E+01 -0.10389786973E+01  0.11800734875E+02  0.13433509753E+02  0.12700000000E+01 0.  1.
         -4    1    1    2    0  501  0.62055994039E+01  0.10389786973E+01 -0.84421692101E+01  0.10605284610E+02  0.12700000000E+01 0. -1.
<mgrwt>
<rscale>  0 0.64188660E+01</rscale>
<asrwt>0</asrwt>
<pdfrwt beam="1">0</pdfrwt>
<pdfrwt beam="2">0</pdfrwt>
<totfact> 0.69907916E+10</totfact>
</mgrwt>
</event>
<event>
 4    1  0.1735226E+006  0.2504952E+01  0.7546771E-02  0.2706351E+00
         22   -1    0    0    0    0  0.00000000000E+00  0.00000000000E+00  0.22798185001E+02  0.22798185001E+02  0.00000000000E+00 0. -1.
         22   -1    0    0    0    0 -0.00000000000E+00 -0.00000000000E+00 -0.27574784054E+00  0.27574784054E+00  0.00000000000E+00 0. -1.
          4    1    1    2  501    0  0.21242238763E+01  0.38672367777E+00  0.10762061984E+02  0.11049740288E+02  0.12700000000E+01 0. -1.
         -4    1    1    2    0  501 -0.21242238763E+01 -0.38672367777E+00  0.11760375176E+02  0.12024192554E+02  0.12700000000E+01 0. -1.
<mgrwt>
<rscale>  0 0.25049516E+01</rscale>
<asrwt>0</asrwt>
<pdfrwt beam="1">0</pdfrwt>
<pdfrwt beam="2">0</pdfrwt>
<totfact> 0.24668201E+12</totfact>
</mgrwt>
</event>
<event>
 4    1  0.1735226E+006  0.2222066E+01  0.7546771E-02  0.2845385E+00
         22   -1    0    0    0    0  0.00000000000E+00  0.00000000000E+00  0.24444487563E+00  0.24444487563E+00  0.00000000000E+00 0. -1.
         22   -1    0    0    0    0 -0.00000000000E+00 -0.00000000000E+00 -0.20287116008E+02  0.20287116008E+02  0.00000000000E+00 0.  1.
          4    1    1    2  501    0  0.71650582904E+00  0.16766927572E+01 -0.10697316196E+02  0.10925664877E+02  0.12700000000E+01 0.  1.
         -4    1    1    2    0  501 -0.71650582904E+00 -0.16766927572E+01 -0.93453549363E+01  0.96058960067E+01  0.12700000000E+01 0. -1.
<mgrwt>
<rscale>  0 0.22220664E+01</rscale>
<asrwt>0</asrwt>
<pdfrwt beam="1">0</pdfrwt>
<pdfrwt beam="2">0</pdfrwt>
<totfact> 0.32667300E+12</totfact>
</mgrwt>
</event>
<event>
 4    1  0.1735226E+006  0.2127230E+01  0.7546771E-02  0.2899837E+00
         22   -1    0    0    0    0  0.00000000000E+00  0.00000000000E+00  0.59498314860E+00  0.59498314860E+00  0.00000000000E+00 0. -1.
         22   -1    0    0    0    0 -0.00000000000E+00 -0.00000000000E+00 -0.11028454492E+02  0.11028454492E+02  0.00000000000E+00 0.  1.
          4    1    1    2  501    0  0.16225424415E+01  0.52873952238E+00 -0.19789242696E+01  0.29053830594E+01  0.12700000000E+01 0. -1.
         -4    1    1    2    0  501 -0.16225424415E+01 -0.52873952238E+00 -0.84545470739E+01  0.87180545813E+01  0.12700000000E+01 0.  1.
<mgrwt>
<rscale>  0 0.21272305E+01</rscale>
<asrwt>0</asrwt>
<pdfrwt beam="1">0</pdfrwt>
<pdfrwt beam="2">0</pdfrwt>
<totfact> 0.25427353E+12</totfact>
</mgrwt>
</event>
<event>
 4    1  0.1735226E+006  0.2424854E+01  0.7546771E-02  0.2742616E+00
         22   -1    0    0    0    0  0.00000000000E+00  0.00000000000E+00  0.23274524600E+01  0.23274524600E+01  0.00000000000E+00 0. -1.
         22   -1    0    0    0    0 -0.00000000000E+00 -0.00000000000E+00 -0.26683641505E+01  0.26683641505E+01  0.00000000000E+00 0.  1.
          4    1    1    2  501    0  0.78765859455E+00 -0.19096101482E+01  0.40584293544E+00  0.24585820035E+01  0.12700000000E+01 0. -1.
         -4    1    1    2    0  501 -0.78765859455E+00  0.19096101482E+01 -0.74675462590E+00  0.25372346070E+01  0.12700000000E+01 0. -1.
<mgrwt>
<rscale>  0 0.24248540E+01</rscale>
<asrwt>0</asrwt>
<pdfrwt beam="1">0</pdfrwt>
<pdfrwt beam="2">0</pdfrwt>
<totfact> 0.28751050E+12</totfact>
</mgrwt>
</event>
<event>
 4    1  0.1735226E+006  0.2040440E+01  0.7546771E-02  0.2953952E+00
         22   -1    0    0    0    0  0.00000000000E+00  0.00000000000E+00  0.27897387168E+01  0.27897387168E+01  0.00000000000E+00 0. -1.
         22   -1    0    0    0    0 -0.00000000000E+00 -0.00000000000E+00 -0.29089957473E+01  0.29089957473E+01  0.00000000000E+00 0. -1.
          4    1    1    2  501    0  0.96521297654E+00  0.12723436852E+01  0.19287565024E+01  0.28077564333E+01  0.12700000000E+01 0. -1.
         -4    1    1    2    0  501 -0.96521297654E+00 -0.12723436852E+01 -0.20480135329E+01  0.28909780308E+01  0.12700000000E+01 0. -1.
<mgrwt>
<rscale>  0 0.20404398E+01</rscale>
<asrwt>0</asrwt>
<pdfrwt beam="1">0</pdfrwt>
<pdfrwt beam="2">0</pdfrwt>
<totfact> 0.21053771E+12</totfact>
</mgrwt>
</event>
<event>
 4    1  0.1735226E+006  0.2436651E+01  0.7546771E-02  0.2737135E+00
         22   -1    0    0    0    0  0.00000000000E+00  0.00000000000E+00  0.71155514997E+01  0.71155514997E+01  0.00000000000E+00 0.  1.
         22   -1    0    0    0    0 -0.00000000000E+00 -0.00000000000E+00 -0.11241872977E+01  0.11241872977E+01  0.00000000000E+00 0. -1.
          4    1    1    2  501    0 -0.56494346484E-01 -0.20787443951E+01  0.50873759986E+01  0.56408035263E+01  0.12700000000E+01 0.  1.
         -4    1    1    2    0  501  0.56494346484E-01  0.20787443951E+01  0.90398820340E+00  0.25989352711E+01  0.12700000000E+01 0. -1.
<mgrwt>
<rscale>  0 0.24366514E+01</rscale>
<asrwt>0</asrwt>
<pdfrwt beam="1">0</pdfrwt>
<pdfrwt beam="2">0</pdfrwt>
<totfact> 0.20907094E+12</totfact>
</mgrwt>
</event>
<event>
 4    1  0.1735226E+006  0.2659583E+01  0.7546771E-02  0.2642099E+00
         22   -1    0    0    0    0  0.00000000000E+00  0.00000000000E+00  0.12531005247E+02  0.12531005247E+02  0.00000000000E+00 0. -1.
         22   -1    0    0    0    0 -0.00000000000E+00 -0.00000000000E+00 -0.62994506906E+00  0.62994506906E+00  0.00000000000E+00 0.  1.
          4    1    1    2  501    0 -0.12787771313E+01  0.19558143542E+01  0.80720288497E+01  0.84988840732E+01  0.12700000000E+01 0. -1.
         -4    1    1    2    0  501  0.12787771313E+01 -0.19558143542E+01  0.38290313282E+01  0.46620662428E+01  0.12700000000E+01 0.  1.
<mgrwt>
<rscale>  0 0.26595828E+01</rscale>
<asrwt>0</asrwt>
<pdfrwt beam="1">0</pdfrwt>
<pdfrwt beam="2">0</pdfrwt>
<totfact> 0.20401303E+12</totfact>
</mgrwt>
</event>
<event>
 4    1  0.1735226E+006  0.2181957E+01  0.7546771E-02  0.2867859E+00
         22   -1    0    0    0    0  0.00000000000E+00  0.00000000000E+00  0.20761549892E+01  0.20761549892E+01  0.00000000000E+00 0.  1.
         22   -1    0    0    0    0 -0.00000000000E+00 -0.00000000000E+00 -0.58796656519E+01  0.58796656519E+01  0.00000000000E+00 0. -1.
          4    1    1    2  501    0 -0.16557244320E+01 -0.63766260524E+00  0.12050566721E+01  0.24926087892E+01  0.12700000000E+01 0.  1.
         -4    1    1    2    0  501  0.16557244320E+01  0.63766260524E+00 -0.50085673348E+01  0.54632118520E+01  0.12700000000E+01 0. -1.
<mgrwt>
<rscale>  0 0.21819571E+01</rscale>
<asrwt>0</asrwt>
<pdfrwt beam="1">0</pdfrwt>
<pdfrwt beam="2">0</pdfrwt>
<totfact> 0.12955268E+12</totfact>
</mgrwt>
</event>
<event>
 4    1  0.1735226E+006  0.2717897E+01  0.7546771E-02  0.2619621E+00
         22   -1    0    0    0    0  0.00000000000E+00  0.00000000000E+00  0.29229849651E+00  0.29229849651E+00  0.00000000000E+00 0.  1.
         22   -1    0    0    0    0 -0.00000000000E+00 -0.00000000000E+00 -0.25559855125E+02  0.25559855125E+02  0.00000000000E+00 0. -1.
          4    1    1    2  501    0  0.13613174960E+01  0.19801211888E+01 -0.11262010516E+02  0.11585328917E+02  0.12700000000E+01 0.  1.
         -4    1    1    2    0  501 -0.13613174960E+01 -0.19801211888E+01 -0.14005546112E+02  0.14266824705E+02  0.12700000000E+01 0. -1.
<mgrwt>
<rscale>  0 0.27178972E+01</rscale>
<asrwt>0</asrwt>
<pdfrwt beam="1">0</pdfrwt>
<pdfrwt beam="2">0</pdfrwt>
<totfact> 0.20010590E+12</totfact>
</mgrwt>
</event>
<event>
 4    1  0.1735226E+006  0.7501927E+01  0.7546771E-02  0.1906463E+00
         22   -1    0    0    0    0  0.00000000000E+00  0.00000000000E+00  0.13569170498E+02  0.13569170498E+02  0.00000000000E+00 0. -1.
         22   -1    0    0    0    0 -0.00000000000E+00 -0.00000000000E+00 -0.47185988476E+01  0.47185988476E+01  0.00000000000E+00 0.  1.
          4    1    1    2  501    0 -0.62692328040E+01  0.39195310972E+01  0.12443251926E+01  0.76044229997E+01  0.12700000000E+01 0.  1.
         -4    1    1    2    0  501  0.62692328040E+01 -0.39195310972E+01  0.76062464580E+01  0.10683346346E+02  0.12700000000E+01 0. -1.
<mgrwt>
<rscale>  0 0.75019267E+01</rscale>
<asrwt>0</asrwt>
<pdfrwt beam="1">0</pdfrwt>
<pdfrwt beam="2">0</pdfrwt>
<totfact> 0.18081187E+11</totfact>
</mgrwt>
</event>
<event>
 4    1  0.1735226E+006  0.3014484E+01  0.7546771E-02  0.2517623E+00
         22   -1    0    0    0    0  0.00000000000E+00  0.00000000000E+00  0.25082374989E+01  0.25082374989E+01  0.00000000000E+00 0.  1.
         22   -1    0    0    0    0 -0.00000000000E+00 -0.00000000000E+00 -0.50450418350E+01  0.50450418350E+01  0.00000000000E+00 0. -1.
          4    1    1    2  501    0 -0.47252110106E+00  0.26927568957E+01  0.73673120643E+00  0.31032062066E+01  0.12700000000E+01 0.  1.
         -4    1    1    2    0  501  0.47252110106E+00 -0.26927568957E+01 -0.32735355425E+01  0.44500731273E+01  0.12700000000E+01 0. -1.
<mgrwt>
<rscale>  0 0.30144843E+01</rscale>
<asrwt>0</asrwt>
<pdfrwt beam="1">0</pdfrwt>
<pdfrwt beam="2">0</pdfrwt>
<totfact> 0.12476159E+12</totfact>
</mgrwt>
</event>
<event>
 4    1  0.1735226E+006  0.4257060E+01  0.7546771E-02  0.2230694E+00
         22   -1    0    0    0    0  0.00000000000E+00  0.00000000000E+00  0.12830441322E+02  0.12830441322E+02  0.00000000000E+00 0.  1.
         22   -1    0    0    0    0 -0.00000000000E+00 -0.00000000000E+00 -0.46444837616E+01  0.46444837616E+01  0.00000000000E+00 0. -1.
          4    1    1    2  501    0  0.22099605649E+01 -0.34096524769E+01  0.11381736351E+02  0.12151809663E+02  0.12700000000E+01 0.  1.
         -4    1    1    2    0  501 -0.22099605649E+01  0.34096524769E+01 -0.31957787903E+01  0.53231154212E+01  0.12700000000E+01 0. -1.
<mgrwt>
<rscale>  0 0.42570595E+01</rscale>
<asrwt>0</asrwt>
<pdfrwt beam="1">0</pdfrwt>
<pdfrwt beam="2">0</pdfrwt>
<totfact> 0.19729199E+11</totfact>
</mgrwt>
</event>
<event>
 4    1  0.1735226E+006  0.2253658E+01  0.7546771E-02  0.2828221E+00
         22   -1    0    0    0    0  0.00000000000E+00  0.00000000000E+00  0.93702679669E+01  0.93702679669E+01  0.00000000000E+00 0. -1.
         22   -1    0    0    0    0 -0.00000000000E+00 -0.00000000000E+00 -0.54531119856E+00  0.54531119856E+00  0.00000000000E+00 0.  1.
          4    1    1    2  501    0 -0.55406955831E+00 -0.17773810227E+01  0.47969916196E+01  0.53000099032E+01  0.12700000000E+01 0. -1.
         -4    1    1    2    0  501  0.55406955831E+00  0.17773810227E+01  0.40279651488E+01  0.46155692623E+01  0.12700000000E+01 0.  1.
<mgrwt>
<rscale>  0 0.22536584E+01</rscale>
<asrwt>0</asrwt>
<pdfrwt beam="1">0</pdfrwt>
<pdfrwt beam="2">0</pdfrwt>
<totfact> 0.34189323E+12</totfact>
</mgrwt>
</event>
<event>
 4    1  0.1735226E+006  0.2383686E+01  0.7546771E-02  0.2762142E+00
         22   -1    0    0    0    0  0.00000000000E+00  0.00000000000E+00  0.12340250231E+02  0.12340250231E+02  0.00000000000E+00 0. -1.
         22   -1    0    0    0    0 -0.00000000000E+00 -0.00000000000E+00 -0.72146965125E+00  0.72146965125E+00  0.00000000000E+00 0.  1.
          4    1    1    2  501    0 -0.25307383716E+00  0.20012521884E+01  0.97376976233E+01  0.10025203823E+02  0.12700000000E+01 0. -1.
         -4    1    1    2    0  501  0.25307383716E+00 -0.20012521884E+01  0.18810829560E+01  0.30365160589E+01  0.12700000000E+01 0. -1.
<mgrwt>
<rscale>  0 0.23836855E+01</rscale>
<asrwt>0</asrwt>
<pdfrwt beam="1">0</pdfrwt>
<pdfrwt beam="2">0</pdfrwt>
<totfact> 0.17821615E+12</totfact>
</mgrwt>
</event>
<event>
 4    1  0.1735226E+006  0.2273915E+01  0.7546771E-02  0.2817456E+00
         22   -1    0    0    0    0  0.00000000000E+00  0.00000000000E+00  0.25525728008E+01  0.25525728008E+01  0.00000000000E+00 0. -1.
         22   -1    0    0    0    0 -0.00000000000E+00 -0.00000000000E+00 -0.21093618757E+01  0.21093618757E+01  0.00000000000E+00 0. -1.
          4    1    1    2  501    0  0.14935760866E+01 -0.11519634523E+01  0.68588848137E+00  0.23751068041E+01  0.12700000000E+01 0. -1.
         -4    1    1    2    0  501 -0.14935760866E+01  0.11519634523E+01 -0.24267755635E+00  0.22868278724E+01  0.12700000000E+01 0. -1.
<mgrwt>
<rscale>  0 0.22739150E+01</rscale>
<asrwt>0</asrwt>
<pdfrwt beam="1">0</pdfrwt>
<pdfrwt beam="2">0</pdfrwt>
<totfact> 0.33934945E+12</totfact>
</mgrwt>
</event>
<event>
 4    1  0.1735226E+006  0.2026087E+01  0.7546771E-02  0.2963335E+00
         22   -1    0    0    0    0  0.00000000000E+00  0.00000000000E+00  0.78203226469E+02  0.78203226469E+02  0.00000000000E+00 0.  1.
         22   -1    0    0    0    0 -0.00000000000E+00 -0.00000000000E+00 -0.66623142768E-01  0.66623142768E-01  0.00000000000E+00 0. -1.
          4    1    1    2  501    0 -0.15470505073E+01  0.31426745616E+00  0.21044623294E+02  0.21141929877E+02  0.12700000000E+01 0. -1.
         -4    1    1    2    0  501  0.15470505073E+01 -0.31426745616E+00  0.57091980032E+02  0.57127919735E+02  0.12700000000E+01 0.  1.
<mgrwt>
<rscale>  0 0.20260872E+01</rscale>
<asrwt>0</asrwt>
<pdfrwt beam="1">0</pdfrwt>
<pdfrwt beam="2">0</pdfrwt>
<totfact> 0.23884166E+12</totfact>
</mgrwt>
</event>
<event>
 4    1  0.1735226E+006  0.4172219E+01  0.7546771E-02  0.2245535E+00
         22   -1    0    0    0    0  0.00000000000E+00  0.00000000000E+00  0.11547779709E+02  0.11547779709E+02  0.00000000000E+00 0.  1.
         22   -1    0    0    0    0 -0.00000000000E+00 -0.00000000000E+00 -0.21355272306E+01  0.21355272306E+01  0.00000000000E+00 0. -1.
          4    1    1    2  501    0  0.14430026439E+01 -0.37030056696E+01  0.84165525465E+01  0.93939216724E+01  0.12700000000E+01 0. -1.
         -4    1    1    2    0  501 -0.14430026439E+01  0.37030056696E+01  0.99569993221E+00  0.42893852676E+01  0.12700000000E+01 0.  1.
<mgrwt>
<rscale>  0 0.41722185E+01</rscale>
<asrwt>0</asrwt>
<pdfrwt beam="1">0</pdfrwt>
<pdfrwt beam="2">0</pdfrwt>
<totfact> 0.55673998E+11</totfact>
</mgrwt>
</event>
<event>
 4    1  0.1735226E+006  0.4140917E+01  0.7546771E-02  0.2251141E+00
         22   -1    0    0    0    0  0.00000000000E+00  0.00000000000E+00  0.43698885546E+00  0.43698885546E+00  0.00000000000E+00 0. -1.
         22   -1    0    0    0    0 -0.00000000000E+00 -0.00000000000E+00 -0.39250698361E+02  0.39250698361E+02  0.00000000000E+00 0.  1.
          4    1    1    2  501    0 -0.32225419050E+01 -0.22692556410E+01 -0.19742948867E+02  0.20172536466E+02  0.12700000000E+01 0. -1.
         -4    1    1    2    0  501  0.32225419050E+01  0.22692556410E+01 -0.19070760638E+02  0.19515150751E+02  0.12700000000E+01 0.  1.
<mgrwt>
<rscale>  0 0.41409175E+01</rscale>
<asrwt>0</asrwt>
<pdfrwt beam="1">0</pdfrwt>
<pdfrwt beam="2">0</pdfrwt>
<totfact> 0.73578036E+11</totfact>
</mgrwt>
</event>
<event>
 4    1  0.1735226E+006  0.2449246E+01  0.7546771E-02  0.2731338E+00
         22   -1    0    0    0    0  0.00000000000E+00  0.00000000000E+00  0.30817951671E+02  0.30817951671E+02  0.00000000000E+00 0.  1.
         22   -1    0    0    0    0 -0.00000000000E+00 -0.00000000000E+00 -0.44784555046E+00  0.44784555046E+00  0.00000000000E+00 0.  1.
          4    1    1    2  501    0 -0.19656647707E+01 -0.72254384998E+00  0.26939462578E+02  0.27050572112E+02  0.12700000000E+01 0.  1.
         -4    1    1    2    0  501  0.19656647707E+01  0.72254384998E+00  0.34306435427E+01  0.42152251094E+01  0.12700000000E+01 0.  1.
<mgrwt>
<rscale>  0 0.24492463E+01</rscale>
<asrwt>0</asrwt>
<pdfrwt beam="1">0</pdfrwt>
<pdfrwt beam="2">0</pdfrwt>
<totfact> 0.97681411E+11</totfact>
</mgrwt>
</event>
<event>
 4    1  0.1735226E+006  0.2474234E+01  0.7546771E-02  0.2720000E+00
         22   -1    0    0    0    0  0.00000000000E+00  0.00000000000E+00  0.68881926767E+01  0.68881926767E+01  0.00000000000E+00 0. -1.
         22   -1    0    0    0    0 -0.00000000000E+00 -0.00000000000E+00 -0.10371383687E+01  0.10371383687E+01  0.00000000000E+00 0.  1.
          4    1    1    2  501    0 -0.20268992836E+01 -0.63293981958E+00  0.44244494986E+01  0.50692787343E+01  0.12700000000E+01 0. -1.
         -4    1    1    2    0  501  0.20268992836E+01  0.63293981958E+00  0.14266048094E+01  0.28560523110E+01  0.12700000000E+01 0.  1.
<mgrwt>
<rscale>  0 0.24742339E+01</rscale>
<asrwt>0</asrwt>
<pdfrwt beam="1">0</pdfrwt>
<pdfrwt beam="2">0</pdfrwt>
<totfact> 0.23833643E+12</totfact>
</mgrwt>
</event>
<event>
 4    1  0.1735226E+006  0.2361846E+01  0.7546771E-02  0.2772759E+00
         22   -1    0    0    0    0  0.00000000000E+00  0.00000000000E+00  0.90654827335E+01  0.90654827335E+01  0.00000000000E+00 0. -1.
         22   -1    0    0    0    0 -0.00000000000E+00 -0.00000000000E+00 -0.61534943198E+00  0.61534943198E+00  0.00000000000E+00 0. -1.
          4    1    1    2  501    0 -0.18944129819E+01 -0.61369109031E+00  0.42477354859E+01  0.48602030882E+01  0.12700000000E+01 0. -1.
         -4    1    1    2    0  501  0.18944129819E+01  0.61369109031E+00  0.42023978156E+01  0.48206290773E+01  0.12700000000E+01 0. -1.
<mgrwt>
<rscale>  0 0.23618462E+01</rscale>
<asrwt>0</asrwt>
<pdfrwt beam="1">0</pdfrwt>
<pdfrwt beam="2">0</pdfrwt>
<totfact> 0.31034493E+12</totfact>
</mgrwt>
</event>
<event>
 4    1  0.1735226E+006  0.2744851E+01  0.7546771E-02  0.2609528E+00
         22   -1    0    0    0    0  0.00000000000E+00  0.00000000000E+00  0.81067317084E+01  0.81067317084E+01  0.00000000000E+00 0.  1.
         22   -1    0    0    0    0 -0.00000000000E+00 -0.00000000000E+00 -0.83882245451E+01  0.83882245451E+01  0.00000000000E+00 0. -1.
          4    1    1    2  501    0  0.24197167188E+01 -0.25744003981E+00  0.76364314934E+01  0.81147575643E+01  0.12700000000E+01 0.  1.
         -4    1    1    2    0  501 -0.24197167188E+01  0.25744003981E+00 -0.79179243302E+01  0.83801986892E+01  0.12700000000E+01 0. -1.
<mgrwt>
<rscale>  0 0.27448505E+01</rscale>
<asrwt>0</asrwt>
<pdfrwt beam="1">0</pdfrwt>
<pdfrwt beam="2">0</pdfrwt>
<totfact> 0.17010757E+11</totfact>
</mgrwt>
</event>
<event>
 4    1  0.1735226E+006  0.2470041E+01  0.7546771E-02  0.2721887E+00
         22   -1    0    0    0    0  0.00000000000E+00  0.00000000000E+00  0.52607357303E+01  0.52607357303E+01  0.00000000000E+00 0. -1.
         22   -1    0    0    0    0 -0.00000000000E+00 -0.00000000000E+00 -0.19174142793E+01  0.19174142793E+01  0.00000000000E+00 0.  1.
          4    1    1    2  501    0  0.33030764813E+00  0.20926303640E+01  0.39277941263E+01  0.46398999646E+01  0.12700000000E+01 0. -1.
         -4    1    1    2    0  501 -0.33030764813E+00 -0.20926303640E+01 -0.58447267539E+00  0.25382500450E+01  0.12700000000E+01 0.  1.
<mgrwt>
<rscale>  0 0.24700415E+01</rscale>
<asrwt>0</asrwt>
<pdfrwt beam="1">0</pdfrwt>
<pdfrwt beam="2">0</pdfrwt>
<totfact> 0.16211304E+12</totfact>
</mgrwt>
</event>
<event>
 4    1  0.1735226E+006  0.2176295E+01  0.7546771E-02  0.2871096E+00
         22   -1    0    0    0    0  0.00000000000E+00  0.00000000000E+00  0.59240602586E+01  0.59240602586E+01  0.00000000000E+00 0. -1.
         22   -1    0    0    0    0 -0.00000000000E+00 -0.00000000000E+00 -0.18646289339E+01  0.18646289339E+01  0.00000000000E+00 0.  1.
          4    1    1    2  501    0 -0.17449131713E+01  0.28042117936E+00  0.49730542822E+01  0.54284000320E+01  0.12700000000E+01 0. -1.
         -4    1    1    2    0  501  0.17449131713E+01 -0.28042117936E+00 -0.91362295753E+00  0.23602891606E+01  0.12700000000E+01 0.  1.
<mgrwt>
<rscale>  0 0.21762946E+01</rscale>
<asrwt>0</asrwt>
<pdfrwt beam="1">0</pdfrwt>
<pdfrwt beam="2">0</pdfrwt>
<totfact> 0.14539708E+12</totfact>
</mgrwt>
</event>
<event>
 4    1  0.1735226E+006  0.2627300E+01  0.7546771E-02  0.2654936E+00
         22   -1    0    0    0    0  0.00000000000E+00  0.00000000000E+00  0.70425923476E+01  0.70425923476E+01  0.00000000000E+00 0. -1.
         22   -1    0    0    0    0 -0.00000000000E+00 -0.00000000000E+00 -0.11639955740E+02  0.11639955740E+02  0.00000000000E+00 0.  1.
          4    1    1    2  501    0 -0.11362135364E+01  0.19997055382E+01  0.66406564207E+01  0.71414999221E+01  0.12700000000E+01 0. -1.
         -4    1    1    2    0  501  0.11362135364E+01 -0.19997055382E+01 -0.11238019813E+02  0.11541048166E+02  0.12700000000E+01 0.  1.
<mgrwt>
<rscale>  0 0.26272996E+01</rscale>
<asrwt>0</asrwt>
<pdfrwt beam="1">0</pdfrwt>
<pdfrwt beam="2">0</pdfrwt>
<totfact> 0.13545027E+11</totfact>
</mgrwt>
</event>
<event>
 4    1  0.1735226E+006  0.2958032E+01  0.7546771E-02  0.2535611E+00
         22   -1    0    0    0    0  0.00000000000E+00  0.00000000000E+00  0.21648654227E+01  0.21648654227E+01  0.00000000000E+00 0. -1.
         22   -1    0    0    0    0 -0.00000000000E+00 -0.00000000000E+00 -0.62550500742E+01  0.62550500742E+01  0.00000000000E+00 0. -1.
          4    1    1    2  501    0  0.20368357812E+01  0.17286858138E+01  0.45915670367E+00  0.29934561164E+01  0.12700000000E+01 0. -1.
         -4    1    1    2    0  501 -0.20368357812E+01 -0.17286858138E+01 -0.45493413552E+01  0.54264593805E+01  0.12700000000E+01 0. -1.
<mgrwt>
<rscale>  0 0.29580322E+01</rscale>
<asrwt>0</asrwt>
<pdfrwt beam="1">0</pdfrwt>
<pdfrwt beam="2">0</pdfrwt>
<totfact> 0.11465950E+12</totfact>
</mgrwt>
</event>
<event>
 4    1  0.1735226E+006  0.4601477E+01  0.7546771E-02  0.2175221E+00
         22   -1    0    0    0    0  0.00000000000E+00  0.00000000000E+00  0.38587376671E+02  0.38587376671E+02  0.00000000000E+00 0. -1.
         22   -1    0    0    0    0 -0.00000000000E+00 -0.00000000000E+00 -0.66564293238E+00  0.66564293238E+00  0.00000000000E+00 0.  1.
          4    1    1    2  501    0 -0.27366621500E+01  0.34743874366E+01  0.27186626118E+02  0.27573288297E+02  0.12700000000E+01 0. -1.
         -4    1    1    2    0  501  0.27366621500E+01 -0.34743874366E+01  0.10735107620E+02  0.11679731307E+02  0.12700000000E+01 0.  1.
<mgrwt>
<rscale>  0 0.46014767E+01</rscale>
<asrwt>0</asrwt>
<pdfrwt beam="1">0</pdfrwt>
<pdfrwt beam="2">0</pdfrwt>
<totfact> 0.46741838E+11</totfact>
</mgrwt>
</event>
<event>
 4    1  0.1735226E+006  0.2058481E+01  0.7546771E-02  0.2942337E+00
         22   -1    0    0    0    0  0.00000000000E+00  0.00000000000E+00  0.23949345114E+01  0.23949345114E+01  0.00000000000E+00 0. -1.
         22   -1    0    0    0    0 -0.00000000000E+00 -0.00000000000E+00 -0.18120683447E+01  0.18120683447E+01  0.00000000000E+00 0.  1.
          4    1    1    2  501    0 -0.74607789055E+00  0.14379892350E+01  0.61461196413E+00  0.21482767804E+01  0.12700000000E+01 0. -1.
         -4    1    1    2    0  501  0.74607789055E+00 -0.14379892350E+01 -0.31745797395E-01  0.20587260756E+01  0.12700000000E+01 0.  1.
<mgrwt>
<rscale>  0 0.20584813E+01</rscale>
<asrwt>0</asrwt>
<pdfrwt beam="1">0</pdfrwt>
<pdfrwt beam="2">0</pdfrwt>
<totfact> 0.43566132E+12</totfact>
</mgrwt>
</event>
<event>
 4    1  0.1735226E+006  0.2371536E+01  0.7546771E-02  0.2768025E+00
         22   -1    0    0    0    0  0.00000000000E+00  0.00000000000E+00  0.39198085813E+01  0.39198085813E+01  0.00000000000E+00 0. -1.
         22   -1    0    0    0    0 -0.00000000000E+00 -0.00000000000E+00 -0.14938299133E+01  0.14938299133E+01  0.00000000000E+00 0. -1.
          4    1    1    2  501    0  0.13094320618E+01 -0.15154775995E+01  0.17510163565E+01  0.29479218035E+01  0.12700000000E+01 0. -1.
         -4    1    1    2    0  501 -0.13094320618E+01  0.15154775995E+01  0.67496231149E+00  0.24657166911E+01  0.12700000000E+01 0. -1.
<mgrwt>
<rscale>  0 0.23715364E+01</rscale>
<asrwt>0</asrwt>
<pdfrwt beam="1">0</pdfrwt>
<pdfrwt beam="2">0</pdfrwt>
<totfact> 0.30602244E+12</totfact>
</mgrwt>
</event>
<event>
 4    1  0.1735226E+006  0.2343561E+01  0.7546771E-02  0.2781792E+00
         22   -1    0    0    0    0  0.00000000000E+00  0.00000000000E+00  0.17612745710E+02  0.17612745710E+02  0.00000000000E+00 0.  1.
         22   -1    0    0    0    0 -0.00000000000E+00 -0.00000000000E+00 -0.77421362399E+00  0.77421362399E+00  0.00000000000E+00 0.  1.
          4    1    1    2  501    0 -0.25620153564E+00  0.19528800818E+01  0.15524005264E+02  0.15699905072E+02  0.12700000000E+01 0.  1.
         -4    1    1    2    0  501  0.25620153564E+00 -0.19528800818E+01  0.13145268223E+01  0.26870542621E+01  0.12700000000E+01 0.  1.
<mgrwt>
<rscale>  0 0.23435614E+01</rscale>
<asrwt>0</asrwt>
<pdfrwt beam="1">0</pdfrwt>
<pdfrwt beam="2">0</pdfrwt>
<totfact> 0.10619719E+12</totfact>
</mgrwt>
</event>
<event>
 4    1  0.1735226E+006  0.2011552E+01  0.7546771E-02  0.2972972E+00
         22   -1    0    0    0    0  0.00000000000E+00  0.00000000000E+00  0.28168349173E+01  0.28168349173E+01  0.00000000000E+00 0.  1.
         22   -1    0    0    0    0 -0.00000000000E+00 -0.00000000000E+00 -0.20017371627E+01  0.20017371627E+01  0.00000000000E+00 0. -1.
          4    1    1    2  501    0  0.13573966598E+01 -0.76871005152E+00  0.16878319146E+01  0.26258555572E+01  0.12700000000E+01 0.  1.
         -4    1    1    2    0  501 -0.13573966598E+01  0.76871005152E+00 -0.87273416004E+00  0.21927165228E+01  0.12700000000E+01 0. -1.
<mgrwt>
<rscale>  0 0.20115518E+01</rscale>
<asrwt>0</asrwt>
<pdfrwt beam="1">0</pdfrwt>
<pdfrwt beam="2">0</pdfrwt>
<totfact> 0.32145016E+12</totfact>
</mgrwt>
</event>
<event>
 4    1  0.1735226E+006  0.2054292E+01  0.7546771E-02  0.2945017E+00
         22   -1    0    0    0    0  0.00000000000E+00  0.00000000000E+00  0.66786713359E+00  0.66786713359E+00  0.00000000000E+00 0.  1.
         22   -1    0    0    0    0 -0.00000000000E+00 -0.00000000000E+00 -0.19462094965E+02  0.19462094965E+02  0.00000000000E+00 0.  1.
          4    1    1    2  501    0  0.26735565811E+00  0.15923994660E+01 -0.11258783921E+01  0.23425877275E+01  0.12700000000E+01 0.  1.
         -4    1    1    2    0  501 -0.26735565811E+00 -0.15923994660E+01 -0.17668349439E+02  0.17787374371E+02  0.12700000000E+01 0.  1.
<mgrwt>
<rscale>  0 0.20542919E+01</rscale>
<asrwt>0</asrwt>
<pdfrwt beam="1">0</pdfrwt>
<pdfrwt beam="2">0</pdfrwt>
<totfact> 0.11093873E+12</totfact>
</mgrwt>
</event>
<event>
 4    1  0.1735226E+006  0.3650449E+01  0.7546771E-02  0.2349545E+00
         22   -1    0    0    0    0  0.00000000000E+00  0.00000000000E+00  0.12870117274E+01  0.12870117274E+01  0.00000000000E+00 0.  1.
         22   -1    0    0    0    0 -0.00000000000E+00 -0.00000000000E+00 -0.10410449663E+02  0.10410449663E+02  0.00000000000E+00 0. -1.
          4    1    1    2  501    0 -0.27957135249E+01 -0.19740474732E+01 -0.49922295105E+01  0.61845075006E+01  0.12700000000E+01 0.  1.
         -4    1    1    2    0  501  0.27957135249E+01  0.19740474732E+01 -0.41312084253E+01  0.55129538900E+01  0.12700000000E+01 0. -1.
<mgrwt>
<rscale>  0 0.36504490E+01</rscale>
<asrwt>0</asrwt>
<pdfrwt beam="1">0</pdfrwt>
<pdfrwt beam="2">0</pdfrwt>
<totfact> 0.11322397E+12</totfact>
</mgrwt>
</event>
<event>
 4    1  0.1735226E+006  0.2117430E+01  0.7546771E-02  0.2905732E+00
         22   -1    0    0    0    0  0.00000000000E+00  0.00000000000E+00  0.50718802209E+00  0.50718802209E+00  0.00000000000E+00 0.  1.
         22   -1    0    0    0    0 -0.00000000000E+00 -0.00000000000E+00 -0.99263750744E+01  0.99263750744E+01  0.00000000000E+00 0. -1.
          4    1    1    2  501    0 -0.79221474739E+00 -0.14976672865E+01 -0.29837187994E+01  0.36587005044E+01  0.12700000000E+01 0.  1.
         -4    1    1    2    0  501  0.79221474739E+00  0.14976672865E+01 -0.64354682530E+01  0.67748625921E+01  0.12700000000E+01 0. -1.
<mgrwt>
<rscale>  0 0.21174304E+01</rscale>
<asrwt>0</asrwt>
<pdfrwt beam="1">0</pdfrwt>
<pdfrwt beam="2">0</pdfrwt>
<totfact> 0.34607345E+12</totfact>
</mgrwt>
</event>
<event>
 4    1  0.1735226E+006  0.3321005E+01  0.7546771E-02  0.2429539E+00
         22   -1    0    0    0    0  0.00000000000E+00  0.00000000000E+00  0.59629378871E+00  0.59629378871E+00  0.00000000000E+00 0.  1.
         22   -1    0    0    0    0 -0.00000000000E+00 -0.00000000000E+00 -0.31445104178E+02  0.31445104178E+02  0.00000000000E+00 0. -1.
          4    1    1    2  501    0 -0.29967161617E+01  0.66020384202E+00 -0.51436730059E+01  0.61226178109E+01  0.12700000000E+01 0.  1.
         -4    1    1    2    0  501  0.29967161617E+01 -0.66020384202E+00 -0.25705137383E+02  0.25918780156E+02  0.12700000000E+01 0. -1.
<mgrwt>
<rscale>  0 0.33210054E+01</rscale>
<asrwt>0</asrwt>
<pdfrwt beam="1">0</pdfrwt>
<pdfrwt beam="2">0</pdfrwt>
<totfact> 0.68893946E+11</totfact>
</mgrwt>
</event>
<event>
 4    1  0.1735226E+006  0.2051061E+01  0.7546771E-02  0.2947090E+00
         22   -1    0    0    0    0  0.00000000000E+00  0.00000000000E+00  0.92464187903E+00  0.92464187903E+00  0.00000000000E+00 0. -1.
         22   -1    0    0    0    0 -0.00000000000E+00 -0.00000000000E+00 -0.11576576581E+02  0.11576576581E+02  0.00000000000E+00 0. -1.
          4    1    1    2  501    0 -0.70234920534E+00 -0.14493641135E+01 -0.45614426882E+00  0.21011707055E+01  0.12700000000E+01 0. -1.
         -4    1    1    2    0  501  0.70234920534E+00  0.14493641135E+01 -0.10195790433E+02  0.10400047755E+02  0.12700000000E+01 0. -1.
<mgrwt>
<rscale>  0 0.20510609E+01</rscale>
<asrwt>0</asrwt>
<pdfrwt beam="1">0</pdfrwt>
<pdfrwt beam="2">0</pdfrwt>
<totfact> 0.14524891E+12</totfact>
</mgrwt>
</event>
<event>
 4    1  0.1735226E+006  0.2173539E+01  0.7546771E-02  0.2872677E+00
         22   -1    0    0    0    0  0.00000000000E+00  0.00000000000E+00  0.36199867573E+01  0.36199867573E+01  0.00000000000E+00 0.  1.
         22   -1    0    0    0    0 -0.00000000000E+00 -0.00000000000E+00 -0.13596720100E+01  0.13596720100E+01  0.00000000000E+00 0.  1.
          4    1    1    2  501    0 -0.93305308850E-01 -0.17614386324E+01  0.16291881404E+01  0.27163442222E+01  0.12700000000E+01 0.  1.
         -4    1    1    2    0  501  0.93305308850E-01  0.17614386324E+01  0.63112660689E+00  0.22633145452E+01  0.12700000000E+01 0.  1.
<mgrwt>
<rscale>  0 0.21735390E+01</rscale>
<asrwt>0</asrwt>
<pdfrwt beam="1">0</pdfrwt>
<pdfrwt beam="2">0</pdfrwt>
<totfact> 0.37438406E+12</totfact>
</mgrwt>
</event>
<event>
 4    1  0.1735226E+006  0.3768252E+01  0.7546771E-02  0.2323910E+00
         22   -1    0    0    0    0  0.00000000000E+00  0.00000000000E+00  0.47782643695E+01  0.47782643695E+01  0.00000000000E+00 0.  1.
         22   -1    0    0    0    0 -0.00000000000E+00 -0.00000000000E+00 -0.78362576313E+01  0.78362576313E+01  0.00000000000E+00 0. -1.
          4    1    1    2  501    0 -0.86801446455E+00 -0.34399668772E+01  0.34404347383E+01  0.51025789965E+01  0.12700000000E+01 0.  1.
         -4    1    1    2    0  501  0.86801446455E+00  0.34399668772E+01 -0.64984280001E+01  0.75119430043E+01  0.12700000000E+01 0. -1.
<mgrwt>
<rscale>  0 0.37682517E+01</rscale>
<asrwt>0</asrwt>
<pdfrwt beam="1">0</pdfrwt>
<pdfrwt beam="2">0</pdfrwt>
<totfact> 0.34664948E+11</totfact>
</mgrwt>
</event>
<event>
 4    1  0.1735226E+006  0.3034779E+01  0.7546771E-02  0.2511303E+00
         22   -1    0    0    0    0  0.00000000000E+00  0.00000000000E+00  0.33530066448E+00  0.33530066448E+00  0.00000000000E+00 0.  1.
         22   -1    0    0    0    0 -0.00000000000E+00 -0.00000000000E+00 -0.28011354975E+02  0.28011354975E+02  0.00000000000E+00 0. -1.
          4    1    1    2  501    0 -0.24426610323E+00  0.27454176362E+01 -0.15812862701E+02  0.16101444368E+02  0.12700000000E+01 0. -1.
         -4    1    1    2    0  501  0.24426610323E+00 -0.27454176362E+01 -0.11863191610E+02  0.12245211272E+02  0.12700000000E+01 0. -1.
<mgrwt>
<rscale>  0 0.30347791E+01</rscale>
<asrwt>0</asrwt>
<pdfrwt beam="1">0</pdfrwt>
<pdfrwt beam="2">0</pdfrwt>
<totfact> 0.15276805E+12</totfact>
</mgrwt>
</event>
<event>
 4    1  0.1735226E+006  0.7629288E+01  0.7546771E-02  0.1898460E+00
         22   -1    0    0    0    0  0.00000000000E+00  0.00000000000E+00  0.36719800778E+01  0.36719800778E+01  0.00000000000E+00 0. -1.
         22   -1    0    0    0    0 -0.00000000000E+00 -0.00000000000E+00 -0.17985679857E+02  0.17985679857E+02  0.00000000000E+00 0.  1.
          4    1    1    2  501    0 -0.74967344734E+01 -0.62618091915E+00 -0.34265509136E+01  0.83634491373E+01  0.12700000000E+01 0. -1.
         -4    1    1    2    0  501  0.74967344734E+01  0.62618091915E+00 -0.10887148866E+02  0.13294210798E+02  0.12700000000E+01 0.  1.
<mgrwt>
<rscale>  0 0.76292877E+01</rscale>
<asrwt>0</asrwt>
<pdfrwt beam="1">0</pdfrwt>
<pdfrwt beam="2">0</pdfrwt>
<totfact> 0.17165566E+11</totfact>
</mgrwt>
</event>
<event>
 4    1  0.1735226E+006  0.2442022E+01  0.7546771E-02  0.2734656E+00
         22   -1    0    0    0    0  0.00000000000E+00  0.00000000000E+00  0.33246687725E+01  0.33246687725E+01  0.00000000000E+00 0.  1.
         22   -1    0    0    0    0 -0.00000000000E+00 -0.00000000000E+00 -0.18182886256E+01  0.18182886256E+01  0.00000000000E+00 0. -1.
          4    1    1    2  501    0 -0.16743147972E+01  0.12438825486E+01  0.10521944774E+01  0.26590575497E+01  0.12700000000E+01 0.  1.
         -4    1    1    2    0  501  0.16743147972E+01 -0.12438825486E+01  0.45418566946E+00  0.24838998484E+01  0.12700000000E+01 0.  1.
<mgrwt>
<rscale>  0 0.24420225E+01</rscale>
<asrwt>0</asrwt>
<pdfrwt beam="1">0</pdfrwt>
<pdfrwt beam="2">0</pdfrwt>
<totfact> 0.29599412E+12</totfact>
</mgrwt>
</event>
<event>
 4    1  0.1735226E+006  0.2081083E+01  0.7546771E-02  0.2928064E+00
         22   -1    0    0    0    0  0.00000000000E+00  0.00000000000E+00  0.10519094162E+02  0.10519094162E+02  0.00000000000E+00 0. -1.
         22   -1    0    0    0    0 -0.00000000000E+00 -0.00000000000E+00 -0.41605584478E+00  0.41605584478E+00  0.00000000000E+00 0. -1.
          4    1    1    2  501    0  0.95966893637E+00 -0.13405386428E+01  0.56097557408E+01  0.59833324988E+01  0.12700000000E+01 0. -1.
         -4    1    1    2    0  501 -0.95966893637E+00  0.13405386428E+01  0.44932825765E+01  0.49518175080E+01  0.12700000000E+01 0. -1.
<mgrwt>
<rscale>  0 0.20810834E+01</rscale>
<asrwt>0</asrwt>
<pdfrwt beam="1">0</pdfrwt>
<pdfrwt beam="2">0</pdfrwt>
<totfact> 0.40332409E+12</totfact>
</mgrwt>
</event>
<event>
 4    1  0.1735226E+006  0.2156106E+01  0.7546771E-02  0.2882770E+00
         22   -1    0    0    0    0  0.00000000000E+00  0.00000000000E+00  0.37611651566E+01  0.37611651566E+01  0.00000000000E+00 0.  1.
         22   -1    0    0    0    0 -0.00000000000E+00 -0.00000000000E+00 -0.18363114301E+01  0.18363114301E+01  0.00000000000E+00 0. -1.
          4    1    1    2  501    0 -0.12602609030E+01 -0.12031771354E+01  0.25626411239E+01  0.33490181087E+01  0.12700000000E+01 0.  1.
         -4    1    1    2    0  501  0.12602609030E+01  0.12031771354E+01 -0.63778739739E+00  0.22484584779E+01  0.12700000000E+01 0.  1.
<mgrwt>
<rscale>  0 0.21561059E+01</rscale>
<asrwt>0</asrwt>
<pdfrwt beam="1">0</pdfrwt>
<pdfrwt beam="2">0</pdfrwt>
<totfact> 0.25320627E+12</totfact>
</mgrwt>
</event>
<event>
 4    1  0.1735226E+006  0.2111672E+01  0.7546771E-02  0.2909221E+00
         22   -1    0    0    0    0  0.00000000000E+00  0.00000000000E+00  0.18139112194E+01  0.18139112194E+01  0.00000000000E+00 0. -1.
         22   -1    0    0    0    0 -0.00000000000E+00 -0.00000000000E+00 -0.26448594304E+01  0.26448594304E+01  0.00000000000E+00 0.  1.
          4    1    1    2  501    0 -0.33468803407E+00  0.16535540382E+01  0.17660562840E+00  0.21190437903E+01  0.12700000000E+01 0.  1.
         -4    1    1    2    0  501  0.33468803407E+00 -0.16535540382E+01 -0.10075538394E+01  0.23397268594E+01  0.12700000000E+01 0. -1.
<mgrwt>
<rscale>  0 0.21116716E+01</rscale>
<asrwt>0</asrwt>
<pdfrwt beam="1">0</pdfrwt>
<pdfrwt beam="2">0</pdfrwt>
<totfact> 0.38769825E+12</totfact>
</mgrwt>
</event>
<event>
 4    1  0.1735226E+006  0.3727697E+01  0.7546771E-02  0.2332578E+00
         22   -1    0    0    0    0  0.00000000000E+00  0.00000000000E+00  0.63691443464E+00  0.63691443464E+00  0.00000000000E+00 0. -1.
         22   -1    0    0    0    0 -0.00000000000E+00 -0.00000000000E+00 -0.22956653618E+02  0.22956653618E+02  0.00000000000E+00 0.  1.
          4    1    1    2  501    0  0.31758477995E+01 -0.14821658271E+01 -0.13788001366E+02  0.14283021615E+02  0.12700000000E+01 0.  1.
         -4    1    1    2    0  501 -0.31758477995E+01  0.14821658271E+01 -0.85317378176E+01  0.93105464379E+01  0.12700000000E+01 0. -1.
<mgrwt>
<rscale>  0 0.37276970E+01</rscale>
<asrwt>0</asrwt>
<pdfrwt beam="1">0</pdfrwt>
<pdfrwt beam="2">0</pdfrwt>
<totfact> 0.95240642E+11</totfact>
</mgrwt>
</event>
<event>
 4    1  0.1735226E+006  0.2179539E+01  0.7546771E-02  0.2869240E+00
         22   -1    0    0    0    0  0.00000000000E+00  0.00000000000E+00  0.31046320041E+01  0.31046320041E+01  0.00000000000E+00 0. -1.
         22   -1    0    0    0    0 -0.00000000000E+00 -0.00000000000E+00 -0.15314266064E+01  0.15314266064E+01  0.00000000000E+00 0.  1.
          4    1    1    2  501    0  0.11806999966E+01 -0.13203931732E+01  0.71832153377E+00  0.22948586971E+01  0.12700000000E+01 0. -1.
         -4    1    1    2    0  501 -0.11806999966E+01  0.13203931732E+01  0.85488386388E+00  0.23411999134E+01  0.12700000000E+01 0.  1.
<mgrwt>
<rscale>  0 0.21795391E+01</rscale>
<asrwt>0</asrwt>
<pdfrwt beam="1">0</pdfrwt>
<pdfrwt beam="2">0</pdfrwt>
<totfact> 0.39088412E+12</totfact>
</mgrwt>
</event>
<event>
 4    1  0.1735226E+006  0.2053996E+01  0.7546771E-02  0.2945206E+00
         22   -1    0    0    0    0  0.00000000000E+00  0.00000000000E+00  0.15857610661E+02  0.15857610661E+02  0.00000000000E+00 0.  1.
         22   -1    0    0    0    0 -0.00000000000E+00 -0.00000000000E+00 -0.34884676388E+00  0.34884676388E+00  0.00000000000E+00 0.  1.
          4    1    1    2  501    0 -0.73722273086E-01 -0.16126266272E+01  0.11702138447E+02  0.11881032945E+02  0.12700000000E+01 0.  1.
         -4    1    1    2    0  501  0.73722273086E-01  0.16126266272E+01  0.38066254502E+01  0.43254244798E+01  0.12700000000E+01 0.  1.
<mgrwt>
<rscale>  0 0.20539960E+01</rscale>
<asrwt>0</asrwt>
<pdfrwt beam="1">0</pdfrwt>
<pdfrwt beam="2">0</pdfrwt>
<totfact> 0.29764202E+12</totfact>
</mgrwt>
</event>
<event>
 4    1  0.1735226E+006  0.2657904E+01  0.7546771E-02  0.2642759E+00
         22   -1    0    0    0    0  0.00000000000E+00  0.00000000000E+00  0.25252426099E+01  0.25252426099E+01  0.00000000000E+00 0. -1.
         22   -1    0    0    0    0 -0.00000000000E+00 -0.00000000000E+00 -0.29074408074E+01  0.29074408074E+01  0.00000000000E+00 0.  1.
          4    1    1    2  501    0  0.17319528909E+01  0.15658514617E+01  0.33703183320E+00  0.26791868305E+01  0.12700000000E+01 0. -1.
         -4    1    1    2    0  501 -0.17319528909E+01 -0.15658514617E+01 -0.71923003067E+00  0.27534965868E+01  0.12700000000E+01 0.  1.
<mgrwt>
<rscale>  0 0.26579036E+01</rscale>
<asrwt>0</asrwt>
<pdfrwt beam="1">0</pdfrwt>
<pdfrwt beam="2">0</pdfrwt>
<totfact> 0.23660853E+12</totfact>
</mgrwt>
</event>
<event>
 4    1  0.1735226E+006  0.3632596E+01  0.7546771E-02  0.2353556E+00
         22   -1    0    0    0    0  0.00000000000E+00  0.00000000000E+00  0.46411332714E+02  0.46411332714E+02  0.00000000000E+00 0. -1.
         22   -1    0    0    0    0 -0.00000000000E+00 -0.00000000000E+00 -0.27864782303E+01  0.27864782303E+01  0.00000000000E+00 0.  1.
          4    1    1    2  501    0 -0.32360826687E+01  0.10538601387E+01  0.45122583662E+02  0.45268568661E+02  0.12700000000E+01 0. -1.
         -4    1    1    2    0  501  0.32360826687E+01 -0.10538601387E+01 -0.14977291786E+01  0.39292422836E+01  0.12700000000E+01 0.  1.
<mgrwt>
<rscale>  0 0.36325958E+01</rscale>
<asrwt>0</asrwt>
<pdfrwt beam="1">0</pdfrwt>
<pdfrwt beam="2">0</pdfrwt>
<totfact> 0.70917130E+10</totfact>
</mgrwt>
</event>
<event>
 4    1  0.1735226E+006  0.2113155E+01  0.7546771E-02  0.2908320E+00
         22   -1    0    0    0    0  0.00000000000E+00  0.00000000000E+00  0.34264433747E+01  0.34264433747E+01  0.00000000000E+00 0. -1.
         22   -1    0    0    0    0 -0.00000000000E+00 -0.00000000000E+00 -0.16343811010E+01  0.16343811010E+01  0.00000000000E+00 0. -1.
          4    1    1    2  501    0 -0.44974492384E+00  0.16279601924E+01  0.20350510974E+01  0.29337446810E+01  0.12700000000E+01 0. -1.
         -4    1    1    2    0  501  0.44974492384E+00 -0.16279601924E+01 -0.24298882373E+00  0.21270797947E+01  0.12700000000E+01 0. -1.
<mgrwt>
<rscale>  0 0.21131552E+01</rscale>
<asrwt>0</asrwt>
<pdfrwt beam="1">0</pdfrwt>
<pdfrwt beam="2">0</pdfrwt>
<totfact> 0.32311152E+12</totfact>
</mgrwt>
</event>
<event>
 4    1  0.1735226E+006  0.2165222E+01  0.7546771E-02  0.2877473E+00
         22   -1    0    0    0    0  0.00000000000E+00  0.00000000000E+00  0.42757383902E+02  0.42757383902E+02  0.00000000000E+00 0.  1.
         22   -1    0    0    0    0 -0.00000000000E+00 -0.00000000000E+00 -0.11284949179E+00  0.11284949179E+00  0.00000000000E+00 0. -1.
          4    1    1    2  501    0 -0.11036083409E+01 -0.13628411239E+01  0.17710912681E+02  0.17842774876E+02  0.12700000000E+01 0. -1.
         -4    1    1    2    0  501  0.11036083409E+01  0.13628411239E+01  0.24933621730E+02  0.25027458518E+02  0.12700000000E+01 0.  1.
<mgrwt>
<rscale>  0 0.21652222E+01</rscale>
<asrwt>0</asrwt>
<pdfrwt beam="1">0</pdfrwt>
<pdfrwt beam="2">0</pdfrwt>
<totfact> 0.29873611E+12</totfact>
</mgrwt>
</event>
<event>
 4    1  0.1735226E+006  0.2877011E+01  0.7546771E-02  0.2562535E+00
         22   -1    0    0    0    0  0.00000000000E+00  0.00000000000E+00  0.37596661546E+01  0.37596661546E+01  0.00000000000E+00 0.  1.
         22   -1    0    0    0    0 -0.00000000000E+00 -0.00000000000E+00 -0.28990149117E+01  0.28990149117E+01  0.00000000000E+00 0. -1.
          4    1    1    2  501    0 -0.25653994732E+01  0.28813145082E+00  0.20633241658E+01  0.35404096943E+01  0.12700000000E+01 0. -1.
         -4    1    1    2    0  501  0.25653994732E+01 -0.28813145082E+00 -0.12026729229E+01  0.31182713720E+01  0.12700000000E+01 0. -1.
<mgrwt>
<rscale>  0 0.28770113E+01</rscale>
<asrwt>0</asrwt>
<pdfrwt beam="1">0</pdfrwt>
<pdfrwt beam="2">0</pdfrwt>
<totfact> 0.14908902E+12</totfact>
</mgrwt>
</event>
<event>
 4    1  0.1735226E+006  0.2451561E+01  0.7546771E-02  0.2730278E+00
         22   -1    0    0    0    0  0.00000000000E+00  0.00000000000E+00  0.43242183517E+00  0.43242183517E+00  0.00000000000E+00 0.  1.
         22   -1    0    0    0    0 -0.00000000000E+00 -0.00000000000E+00 -0.29778510461E+02  0.29778510461E+02  0.00000000000E+00 0.  1.
          4    1    1    2  501    0  0.20903468189E+01  0.16643893376E+00 -0.36423281208E+01  0.43905245566E+01  0.12700000000E+01 0.  1.
         -4    1    1    2    0  501 -0.20903468189E+01 -0.16643893376E+00 -0.25703760505E+02  0.25820407740E+02  0.12700000000E+01 0.  1.
<mgrwt>
<rscale>  0 0.24515611E+01</rscale>
<asrwt>0</asrwt>
<pdfrwt beam="1">0</pdfrwt>
<pdfrwt beam="2">0</pdfrwt>
<totfact> 0.10616184E+12</totfact>
</mgrwt>
</event>
<event>
 4    1  0.1735226E+006  0.2169156E+01  0.7546771E-02  0.2875200E+00
         22   -1    0    0    0    0  0.00000000000E+00  0.00000000000E+00  0.14764648178E+00  0.14764648178E+00  0.00000000000E+00 0.  1.
         22   -1    0    0    0    0 -0.00000000000E+00 -0.00000000000E+00 -0.49048884920E+02  0.49048884920E+02  0.00000000000E+00 0.  1.
          4    1    1    2  501    0 -0.15359888547E+01  0.85619788408E+00 -0.98923620122E+01  0.10127391706E+02  0.12700000000E+01 0.  1.
         -4    1    1    2    0  501  0.15359888547E+01 -0.85619788408E+00 -0.39008876426E+02  0.39069139697E+02  0.12700000000E+01 0.  1.
<mgrwt>
<rscale>  0 0.21691557E+01</rscale>
<asrwt>0</asrwt>
<pdfrwt beam="1">0</pdfrwt>
<pdfrwt beam="2">0</pdfrwt>
<totfact> 0.18518461E+12</totfact>
</mgrwt>
</event>
<event>
 4    1  0.1735226E+006  0.2069606E+01  0.7546771E-02  0.2935274E+00
         22   -1    0    0    0    0  0.00000000000E+00  0.00000000000E+00  0.70578756841E+00  0.70578756841E+00  0.00000000000E+00 0.  1.
         22   -1    0    0    0    0 -0.00000000000E+00 -0.00000000000E+00 -0.13826499586E+02  0.13826499586E+02  0.00000000000E+00 0.  1.
          4    1    1    2  501    0 -0.39249748538E+00 -0.15862899023E+01 -0.11176500350E+01  0.23521078910E+01  0.12700000000E+01 0.  1.
         -4    1    1    2    0  501  0.39249748538E+00  0.15862899023E+01 -0.12003061983E+02  0.12180179264E+02  0.12700000000E+01 0.  1.
<mgrwt>
<rscale>  0 0.20696062E+01</rscale>
<asrwt>0</asrwt>
<pdfrwt beam="1">0</pdfrwt>
<pdfrwt beam="2">0</pdfrwt>
<totfact> 0.15897496E+12</totfact>
</mgrwt>
</event>
<event>
 4    1  0.1735226E+006  0.2909572E+01  0.7546771E-02  0.2551552E+00
         22   -1    0    0    0    0  0.00000000000E+00  0.00000000000E+00  0.73606052241E+00  0.73606052241E+00  0.00000000000E+00 0. -1.
         22   -1    0    0    0    0 -0.00000000000E+00 -0.00000000000E+00 -0.15710442325E+02  0.15710442325E+02  0.00000000000E+00 0.  1.
          4    1    1    2  501    0 -0.25960724511E+01 -0.33632692944E+00 -0.32307234594E+01  0.43477789785E+01  0.12700000000E+01 0. -1.
         -4    1    1    2    0  501  0.25960724511E+01  0.33632692944E+00 -0.11743658343E+02  0.12098723869E+02  0.12700000000E+01 0.  1.
<mgrwt>
<rscale>  0 0.29095718E+01</rscale>
<asrwt>0</asrwt>
<pdfrwt beam="1">0</pdfrwt>
<pdfrwt beam="2">0</pdfrwt>
<totfact> 0.12955047E+12</totfact>
</mgrwt>
</event>
<event>
 4    1  0.1735226E+006  0.2168060E+01  0.7546771E-02  0.2875833E+00
         22   -1    0    0    0    0  0.00000000000E+00  0.00000000000E+00  0.10760120252E+02  0.10760120252E+02  0.00000000000E+00 0.  1.
         22   -1    0    0    0    0 -0.00000000000E+00 -0.00000000000E+00 -0.12464991621E+01  0.12464991621E+01  0.00000000000E+00 0.  1.
          4    1    1    2  501    0 -0.14926251008E+01 -0.92717451188E+00  0.95951361278E+01  0.98370279850E+01  0.12700000000E+01 0.  1.
         -4    1    1    2    0  501  0.14926251008E+01  0.92717451188E+00 -0.81515038084E-01  0.21695914289E+01  0.12700000000E+01 0.  1.
<mgrwt>
<rscale>  0 0.21680596E+01</rscale>
<asrwt>0</asrwt>
<pdfrwt beam="1">0</pdfrwt>
<pdfrwt beam="2">0</pdfrwt>
<totfact> 0.11283014E+12</totfact>
</mgrwt>
</event>
<event>
 4    1  0.1735226E+006  0.2289610E+01  0.7546771E-02  0.2809240E+00
         22   -1    0    0    0    0  0.00000000000E+00  0.00000000000E+00  0.20243752707E+01  0.20243752707E+01  0.00000000000E+00 0.  1.
         22   -1    0    0    0    0 -0.00000000000E+00 -0.00000000000E+00 -0.35412674912E+01  0.35412674912E+01  0.00000000000E+00 0. -1.
          4    1    1    2  501    0  0.18842864223E+01  0.28085051222E+00  0.68416640198E+00  0.23896434874E+01  0.12700000000E+01 0.  1.
         -4    1    1    2    0  501 -0.18842864223E+01 -0.28085051222E+00 -0.22010586225E+01  0.31759992744E+01  0.12700000000E+01 0. -1.
<mgrwt>
<rscale>  0 0.22896096E+01</rscale>
<asrwt>0</asrwt>
<pdfrwt beam="1">0</pdfrwt>
<pdfrwt beam="2">0</pdfrwt>
<totfact> 0.24278714E+12</totfact>
</mgrwt>
</event>
<event>
 4    1  0.1735226E+006  0.2713669E+01  0.7546771E-02  0.2621221E+00
         22   -1    0    0    0    0  0.00000000000E+00  0.00000000000E+00  0.18246605109E+01  0.18246605109E+01  0.00000000000E+00 0. -1.
         22   -1    0    0    0    0 -0.00000000000E+00 -0.00000000000E+00 -0.10896243708E+02  0.10896243708E+02  0.00000000000E+00 0.  1.
          4    1    1    2  501    0  0.14826116700E+01 -0.18849302576E+01  0.51111289265E+00  0.27613829558E+01  0.12700000000E+01 0. -1.
         -4    1    1    2    0  501 -0.14826116700E+01  0.18849302576E+01 -0.95826960894E+01  0.99595212627E+01  0.12700000000E+01 0.  1.
<mgrwt>
<rscale>  0 0.27136690E+01</rscale>
<asrwt>0</asrwt>
<pdfrwt beam="1">0</pdfrwt>
<pdfrwt beam="2">0</pdfrwt>
<totfact> 0.71676509E+11</totfact>
</mgrwt>
</event>
<event>
 4    1  0.1735226E+006  0.2106647E+01  0.7546771E-02  0.2912279E+00
         22   -1    0    0    0    0  0.00000000000E+00  0.00000000000E+00  0.22991307566E+01  0.22991307566E+01  0.00000000000E+00 0. -1.
         22   -1    0    0    0    0 -0.00000000000E+00 -0.00000000000E+00 -0.21834857513E+01  0.21834857513E+01  0.00000000000E+00 0. -1.
          4    1    1    2  501    0  0.15386978642E+01  0.67636688120E+00  0.82106800243E+00  0.22609988810E+01  0.12700000000E+01 0. -1.
         -4    1    1    2    0  501 -0.15386978642E+01 -0.67636688120E+00 -0.70542299711E+00  0.22216176269E+01  0.12700000000E+01 0. -1.
<mgrwt>
<rscale>  0 0.21066474E+01</rscale>
<asrwt>0</asrwt>
<pdfrwt beam="1">0</pdfrwt>
<pdfrwt beam="2">0</pdfrwt>
<totfact> 0.36815674E+12</totfact>
</mgrwt>
</event>
<event>
 4    1  0.1735226E+006  0.2659745E+01  0.7546771E-02  0.2642035E+00
         22   -1    0    0    0    0  0.00000000000E+00  0.00000000000E+00  0.49132612963E+01  0.49132612963E+01  0.00000000000E+00 0. -1.
         22   -1    0    0    0    0 -0.00000000000E+00 -0.00000000000E+00 -0.16535469311E+01  0.16535469311E+01  0.00000000000E+00 0. -1.
          4    1    1    2  501    0 -0.21194552424E+01 -0.98450611618E+00  0.28102846388E+01  0.38693594519E+01  0.12700000000E+01 0. -1.
         -4    1    1    2    0  501  0.21194552424E+01  0.98450611618E+00  0.44942972643E+00  0.26974487755E+01  0.12700000000E+01 0. -1.
<mgrwt>
<rscale>  0 0.26597449E+01</rscale>
<asrwt>0</asrwt>
<pdfrwt beam="1">0</pdfrwt>
<pdfrwt beam="2">0</pdfrwt>
<totfact> 0.20855446E+12</totfact>
</mgrwt>
</event>
<event>
 4    1  0.1735226E+006  0.2081734E+01  0.7546771E-02  0.2927658E+00
         22   -1    0    0    0    0  0.00000000000E+00  0.00000000000E+00  0.20056597085E+02  0.20056597085E+02  0.00000000000E+00 0. -1.
         22   -1    0    0    0    0 -0.00000000000E+00 -0.00000000000E+00 -0.32943561531E+00  0.32943561531E+00  0.00000000000E+00 0.  1.
          4    1    1    2  501    0  0.14815873807E+01  0.72499445322E+00  0.15843002024E+02  0.15979184311E+02  0.12700000000E+01 0. -1.
         -4    1    1    2    0  501 -0.14815873807E+01 -0.72499445322E+00  0.38841594461E+01  0.44068483894E+01  0.12700000000E+01 0.  1.
<mgrwt>
<rscale>  0 0.20817344E+01</rscale>
<asrwt>0</asrwt>
<pdfrwt beam="1">0</pdfrwt>
<pdfrwt beam="2">0</pdfrwt>
<totfact> 0.23718721E+12</totfact>
</mgrwt>
</event>
<event>
 4    1  0.1735226E+006  0.2335538E+01  0.7546771E-02  0.2785798E+00
         22   -1    0    0    0    0  0.00000000000E+00  0.00000000000E+00  0.39004798294E+01  0.39004798294E+01  0.00000000000E+00 0.  1.
         22   -1    0    0    0    0 -0.00000000000E+00 -0.00000000000E+00 -0.16510531907E+01  0.16510531907E+01  0.00000000000E+00 0. -1.
          4    1    1    2  501    0 -0.13959283390E+01  0.13759447086E+01  0.22103805858E+01  0.32156682203E+01  0.12700000000E+01 0.  1.
         -4    1    1    2    0  501  0.13959283390E+01 -0.13759447086E+01  0.39046053028E-01  0.23358647998E+01  0.12700000000E+01 0. -1.
<mgrwt>
<rscale>  0 0.23355384E+01</rscale>
<asrwt>0</asrwt>
<pdfrwt beam="1">0</pdfrwt>
<pdfrwt beam="2">0</pdfrwt>
<totfact> 0.27429893E+12</totfact>
</mgrwt>
</event>
<event>
 4    1  0.1735226E+006  0.2289826E+01  0.7546771E-02  0.2809127E+00
         22   -1    0    0    0    0  0.00000000000E+00  0.00000000000E+00  0.41176201370E+00  0.41176201370E+00  0.00000000000E+00 0. -1.
         22   -1    0    0    0    0 -0.00000000000E+00 -0.00000000000E+00 -0.14196154704E+02  0.14196154704E+02  0.00000000000E+00 0. -1.
          4    1    1    2  501    0 -0.17364809444E+01 -0.78424245759E+00 -0.92364073662E+01  0.95160140467E+01  0.12700000000E+01 0. -1.
         -4    1    1    2    0  501  0.17364809444E+01  0.78424245759E+00 -0.45479853240E+01  0.50919026709E+01  0.12700000000E+01 0. -1.
<mgrwt>
<rscale>  0 0.22898258E+01</rscale>
<asrwt>0</asrwt>
<pdfrwt beam="1">0</pdfrwt>
<pdfrwt beam="2">0</pdfrwt>
<totfact> 0.28305799E+12</totfact>
</mgrwt>
</event>
<event>
 4    1  0.1735226E+006  0.2101352E+01  0.7546771E-02  0.2915519E+00
         22   -1    0    0    0    0  0.00000000000E+00  0.00000000000E+00  0.12900181127E+00  0.12900181127E+00  0.00000000000E+00 0. -1.
         22   -1    0    0    0    0 -0.00000000000E+00 -0.00000000000E+00 -0.75332769251E+02  0.75332769251E+02  0.00000000000E+00 0.  1.
          4    1    1    2  501    0 -0.55123348967E-01 -0.16732425815E+01 -0.97315139550E+01  0.99558044967E+01  0.12700000000E+01 0. -1.
         -4    1    1    2    0  501  0.55123348967E-01  0.16732425815E+01 -0.65472253484E+02  0.65505966565E+02  0.12700000000E+01 0.  1.
<mgrwt>
<rscale>  0 0.21013518E+01</rscale>
<asrwt>0</asrwt>
<pdfrwt beam="1">0</pdfrwt>
<pdfrwt beam="2">0</pdfrwt>
<totfact> 0.12103522E+12</totfact>
</mgrwt>
</event>
<event>
 4    1  0.1735226E+006  0.2447489E+01  0.7546771E-02  0.2732143E+00
         22   -1    0    0    0    0  0.00000000000E+00  0.00000000000E+00  0.26038816745E+01  0.26038816745E+01  0.00000000000E+00 0. -1.
         22   -1    0    0    0    0 -0.00000000000E+00 -0.00000000000E+00 -0.34892401749E+01  0.34892401749E+01  0.00000000000E+00 0.  1.
          4    1    1    2  501    0  0.17631949095E+00  0.20847575921E+01  0.13355583971E+01  0.27881748534E+01  0.12700000000E+01 0. -1.
         -4    1    1    2    0  501 -0.17631949095E+00 -0.20847575921E+01 -0.22209168975E+01  0.33049469960E+01  0.12700000000E+01 0. -1.
<mgrwt>
<rscale>  0 0.24474891E+01</rscale>
<asrwt>0</asrwt>
<pdfrwt beam="1">0</pdfrwt>
<pdfrwt beam="2">0</pdfrwt>
<totfact> 0.18443485E+12</totfact>
</mgrwt>
</event>
<event>
 4    1  0.1735226E+006  0.2306083E+01  0.7546771E-02  0.2800730E+00
         22   -1    0    0    0    0  0.00000000000E+00  0.00000000000E+00  0.30217243217E+00  0.30217243217E+00  0.00000000000E+00 0. -1.
         22   -1    0    0    0    0 -0.00000000000E+00 -0.00000000000E+00 -0.23793317395E+02  0.23793317395E+02  0.00000000000E+00 0.  1.
          4    1    1    2  501    0 -0.17265880821E+01 -0.85089000219E+00 -0.17892595407E+02  0.18040592856E+02  0.12700000000E+01 0. -1.
         -4    1    1    2    0  501  0.17265880821E+01  0.85089000219E+00 -0.55985495558E+01  0.60548969710E+01  0.12700000000E+01 0.  1.
<mgrwt>
<rscale>  0 0.23060833E+01</rscale>
<asrwt>0</asrwt>
<pdfrwt beam="1">0</pdfrwt>
<pdfrwt beam="2">0</pdfrwt>
<totfact> 0.21099489E+12</totfact>
</mgrwt>
</event>
<event>
 4    1  0.1735226E+006  0.2083623E+01  0.7546771E-02  0.2926479E+00
         22   -1    0    0    0    0  0.00000000000E+00  0.00000000000E+00  0.48863422313E+01  0.48863422313E+01  0.00000000000E+00 0.  1.
         22   -1    0    0    0    0 -0.00000000000E+00 -0.00000000000E+00 -0.90174302030E+00  0.90174302030E+00  0.00000000000E+00 0.  1.
          4    1    1    2  501    0  0.16431329641E+01  0.16940967230E+00  0.23430967212E+01  0.31355362890E+01  0.12700000000E+01 0.  1.
         -4    1    1    2    0  501 -0.16431329641E+01 -0.16940967230E+00  0.16415024898E+01  0.26525489626E+01  0.12700000000E+01 0.  1.
<mgrwt>
<rscale>  0 0.20836232E+01</rscale>
<asrwt>0</asrwt>
<pdfrwt beam="1">0</pdfrwt>
<pdfrwt beam="2">0</pdfrwt>
<totfact> 0.42057408E+12</totfact>
</mgrwt>
</event>
<event>
 4    1  0.1735226E+006  0.2188814E+01  0.7546771E-02  0.2863961E+00
         22   -1    0    0    0    0  0.00000000000E+00  0.00000000000E+00  0.35939723575E+02  0.35939723575E+02  0.00000000000E+00 0.  1.
         22   -1    0    0    0    0 -0.00000000000E+00 -0.00000000000E+00 -0.13344105350E+00  0.13344105350E+00  0.00000000000E+00 0. -1.
          4    1    1    2  501    0  0.60532040815E+00 -0.16767808213E+01  0.17324977047E+02  0.17462695565E+02  0.12700000000E+01 0. -1.
         -4    1    1    2    0  501 -0.60532040815E+00  0.16767808213E+01  0.18481305474E+02  0.18610469063E+02  0.12700000000E+01 0.  1.
<mgrwt>
<rscale>  0 0.21888140E+01</rscale>
<asrwt>0</asrwt>
<pdfrwt beam="1">0</pdfrwt>
<pdfrwt beam="2">0</pdfrwt>
<totfact> 0.31068044E+12</totfact>
</mgrwt>
</event>
<event>
 4    1  0.1735226E+006  0.2317661E+01  0.7546771E-02  0.2794818E+00
         22   -1    0    0    0    0  0.00000000000E+00  0.00000000000E+00  0.68483873647E+01  0.68483873647E+01  0.00000000000E+00 0. -1.
         22   -1    0    0    0    0 -0.00000000000E+00 -0.00000000000E+00 -0.21694757530E+01  0.21694757530E+01  0.00000000000E+00 0. -1.
          4    1    1    2  501    0 -0.11771494100E+01 -0.15404457564E+01  0.59422575044E+01  0.63782425566E+01  0.12700000000E+01 0. -1.
         -4    1    1    2    0  501  0.11771494100E+01  0.15404457564E+01 -0.12633458927E+01  0.26396205611E+01  0.12700000000E+01 0. -1.
<mgrwt>
<rscale>  0 0.23176613E+01</rscale>
<asrwt>0</asrwt>
<pdfrwt beam="1">0</pdfrwt>
<pdfrwt beam="2">0</pdfrwt>
<totfact> 0.10264644E+12</totfact>
</mgrwt>
</event>
<event>
 4    1  0.1735226E+006  0.2894826E+01  0.7546771E-02  0.2556498E+00
         22   -1    0    0    0    0  0.00000000000E+00  0.00000000000E+00  0.26029907994E+00  0.26029907994E+00  0.00000000000E+00 0. -1.
         22   -1    0    0    0    0 -0.00000000000E+00 -0.00000000000E+00 -0.52462970815E+02  0.52462970815E+02  0.00000000000E+00 0.  1.
          4    1    1    2  501    0 -0.22138728939E+01  0.13659728972E+01 -0.97156754669E+01  0.10137769228E+02  0.12700000000E+01 0. -1.
         -4    1    1    2    0  501  0.22138728939E+01 -0.13659728972E+01 -0.42486996268E+02  0.42585500667E+02  0.12700000000E+01 0.  1.
<mgrwt>
<rscale>  0 0.28948256E+01</rscale>
<asrwt>0</asrwt>
<pdfrwt beam="1">0</pdfrwt>
<pdfrwt beam="2">0</pdfrwt>
<totfact> 0.90033622E+11</totfact>
</mgrwt>
</event>
<event>
 4    1  0.1735226E+006  0.2770649E+01  0.7546771E-02  0.2600034E+00
         22   -1    0    0    0    0  0.00000000000E+00  0.00000000000E+00  0.12584634793E+01  0.12584634793E+01  0.00000000000E+00 0. -1.
         22   -1    0    0    0    0 -0.00000000000E+00 -0.00000000000E+00 -0.30367607667E+02  0.30367607667E+02  0.00000000000E+00 0.  1.
          4    1    1    2  501    0  0.19022521077E+01  0.15636607904E+01 -0.41864299335E+00  0.28020992318E+01  0.12700000000E+01 0. -1.
         -4    1    1    2    0  501 -0.19022521077E+01 -0.15636607904E+01 -0.28690501194E+02  0.28823971915E+02  0.12700000000E+01 0.  1.
<mgrwt>
<rscale>  0 0.27706494E+01</rscale>
<asrwt>0</asrwt>
<pdfrwt beam="1">0</pdfrwt>
<pdfrwt beam="2">0</pdfrwt>
<totfact> 0.30757973E+11</totfact>
</mgrwt>
</event>
<event>
 4    1  0.1735226E+006  0.2067439E+01  0.7546771E-02  0.2936644E+00
         22   -1    0    0    0    0  0.00000000000E+00  0.00000000000E+00  0.77185167949E+01  0.77185167949E+01  0.00000000000E+00 0. -1.
         22   -1    0    0    0    0 -0.00000000000E+00 -0.00000000000E+00 -0.10650383298E+01  0.10650383298E+01  0.00000000000E+00 0.  1.
          4    1    1    2  501    0  0.13535231544E+01 -0.91070273736E+00  0.63695923366E+01  0.66967164297E+01  0.12700000000E+01 0. -1.
         -4    1    1    2    0  501 -0.13535231544E+01  0.91070273736E+00  0.28388612853E+00  0.20868386951E+01  0.12700000000E+01 0.  1.
<mgrwt>
<rscale>  0 0.20674391E+01</rscale>
<asrwt>0</asrwt>
<pdfrwt beam="1">0</pdfrwt>
<pdfrwt beam="2">0</pdfrwt>
<totfact> 0.20173429E+12</totfact>
</mgrwt>
</event>
<event>
 4    1  0.1735226E+006  0.2189426E+01  0.7546771E-02  0.2863615E+00
         22   -1    0    0    0    0  0.00000000000E+00  0.00000000000E+00  0.18332521724E+00  0.18332521724E+00  0.00000000000E+00 0.  1.
         22   -1    0    0    0    0 -0.00000000000E+00 -0.00000000000E+00 -0.28023662441E+02  0.28023662441E+02  0.00000000000E+00 0.  1.
          4    1    1    2  501    0  0.13850266095E+01 -0.11235595438E+01 -0.17568913641E+02  0.17704810399E+02  0.12700000000E+01 0.  1.
         -4    1    1    2    0  501 -0.13850266095E+01  0.11235595438E+01 -0.10271423583E+02  0.10502177259E+02  0.12700000000E+01 0.  1.
<mgrwt>
<rscale>  0 0.21894257E+01</rscale>
<asrwt>0</asrwt>
<pdfrwt beam="1">0</pdfrwt>
<pdfrwt beam="2">0</pdfrwt>
<totfact> 0.29995500E+12</totfact>
</mgrwt>
</event>
<event>
 4    1  0.1735226E+006  0.2055920E+01  0.7546771E-02  0.2943974E+00
         22   -1    0    0    0    0  0.00000000000E+00  0.00000000000E+00  0.82497467186E-01  0.82497467186E-01  0.00000000000E+00 0.  1.
         22   -1    0    0    0    0 -0.00000000000E+00 -0.00000000000E+00 -0.51404203821E+02  0.51404203821E+02  0.00000000000E+00 0.  1.
          4    1    1    2  501    0 -0.13783186228E+01 -0.84507178842E+00 -0.24186577188E+02  0.24273799139E+02  0.12700000000E+01 0.  1.
         -4    1    1    2    0  501  0.13783186228E+01  0.84507178842E+00 -0.27135129166E+02  0.27212902149E+02  0.12700000000E+01 0.  1.
<mgrwt>
<rscale>  0 0.20559204E+01</rscale>
<asrwt>0</asrwt>
<pdfrwt beam="1">0</pdfrwt>
<pdfrwt beam="2">0</pdfrwt>
<totfact> 0.33177058E+12</totfact>
</mgrwt>
</event>
<event>
 4    1  0.1735226E+006  0.2257019E+01  0.7546771E-02  0.2826423E+00
         22   -1    0    0    0    0  0.00000000000E+00  0.00000000000E+00  0.76835464489E+00  0.76835464489E+00  0.00000000000E+00 0. -1.
         22   -1    0    0    0    0 -0.00000000000E+00 -0.00000000000E+00 -0.19034368859E+02  0.19034368859E+02  0.00000000000E+00 0.  1.
          4    1    1    2  501    0 -0.17255668119E+01  0.70968543761E+00 -0.11399240953E+01  0.25285492255E+01  0.12700000000E+01 0. -1.
         -4    1    1    2    0  501  0.17255668119E+01 -0.70968543761E+00 -0.17126090118E+02  0.17274174278E+02  0.12700000000E+01 0.  1.
<mgrwt>
<rscale>  0 0.22570189E+01</rscale>
<asrwt>0</asrwt>
<pdfrwt beam="1">0</pdfrwt>
<pdfrwt beam="2">0</pdfrwt>
<totfact> 0.97274085E+11</totfact>
</mgrwt>
</event>
<event>
 4    1  0.1735226E+006  0.3057946E+01  0.7546771E-02  0.2504180E+00
         22   -1    0    0    0    0  0.00000000000E+00  0.00000000000E+00  0.54048719047E+02  0.54048719047E+02  0.00000000000E+00 0. -1.
         22   -1    0    0    0    0 -0.00000000000E+00 -0.00000000000E+00 -0.22550133216E+00  0.22550133216E+00  0.00000000000E+00 0. -1.
          4    1    1    2  501    0  0.31385849561E+00 -0.27639878113E+01  0.40004263718E+02  0.40120968974E+02  0.12700000000E+01 0. -1.
         -4    1    1    2    0  501 -0.31385849561E+00  0.27639878113E+01  0.13818953997E+02  0.14153251405E+02  0.12700000000E+01 0. -1.
<mgrwt>
<rscale>  0 0.30579463E+01</rscale>
<asrwt>0</asrwt>
<pdfrwt beam="1">0</pdfrwt>
<pdfrwt beam="2">0</pdfrwt>
<totfact> 0.10161446E+12</totfact>
</mgrwt>
</event>
<event>
 4    1  0.1735226E+006  0.2414258E+01  0.7546771E-02  0.2747582E+00
         22   -1    0    0    0    0  0.00000000000E+00  0.00000000000E+00  0.20918700824E+01  0.20918700824E+01  0.00000000000E+00 0.  1.
         22   -1    0    0    0    0 -0.00000000000E+00 -0.00000000000E+00 -0.35404698679E+01  0.35404698679E+01  0.00000000000E+00 0.  1.
          4    1    1    2  501    0  0.20121999509E+01 -0.40840450541E+00  0.57543272087E+00  0.24818875274E+01  0.12700000000E+01 0.  1.
         -4    1    1    2    0  501 -0.20121999509E+01  0.40840450541E+00 -0.20240325064E+01  0.31504524229E+01  0.12700000000E+01 0.  1.
<mgrwt>
<rscale>  0 0.24142582E+01</rscale>
<asrwt>0</asrwt>
<pdfrwt beam="1">0</pdfrwt>
<pdfrwt beam="2">0</pdfrwt>
<totfact> 0.23380328E+12</totfact>
</mgrwt>
</event>
<event>
 4    1  0.1735226E+006  0.4101989E+01  0.7546771E-02  0.2258213E+00
         22   -1    0    0    0    0  0.00000000000E+00  0.00000000000E+00  0.14089505740E+03  0.14089505740E+03  0.00000000000E+00 0. -1.
         22   -1    0    0    0    0 -0.00000000000E+00 -0.00000000000E+00 -0.48167172478E+00  0.48167172478E+00  0.00000000000E+00 0.  1.
          4    1    1    2  501    0 -0.25789792959E+01 -0.29261375277E+01  0.13150873178E+03  0.13157269036E+03  0.12700000000E+01 0. -1.
         -4    1    1    2    0  501  0.25789792959E+01  0.29261375277E+01  0.89046538928E+01  0.98040387591E+01  0.12700000000E+01 0.  1.
<mgrwt>
<rscale>  0 0.41019892E+01</rscale>
<asrwt>0</asrwt>
<pdfrwt beam="1">0</pdfrwt>
<pdfrwt beam="2">0</pdfrwt>
<totfact> 0.11432538E+11</totfact>
</mgrwt>
</event>
<event>
 4    1  0.1735226E+006  0.4269958E+01  0.7546771E-02  0.2228482E+00
         22   -1    0    0    0    0  0.00000000000E+00  0.00000000000E+00  0.29142201051E+02  0.29142201051E+02  0.00000000000E+00 0. -1.
         22   -1    0    0    0    0 -0.00000000000E+00 -0.00000000000E+00 -0.79380937148E+00  0.79380937148E+00  0.00000000000E+00 0.  1.
          4    1    1    2  501    0 -0.40763917317E+01  0.51720788733E-01  0.21063549366E+02  0.21491990520E+02  0.12700000000E+01 0. -1.
         -4    1    1    2    0  501  0.40763917317E+01 -0.51720788733E-01  0.72848423129E+01  0.84440199025E+01  0.12700000000E+01 0.  1.
<mgrwt>
<rscale>  0 0.42699584E+01</rscale>
<asrwt>0</asrwt>
<pdfrwt beam="1">0</pdfrwt>
<pdfrwt beam="2">0</pdfrwt>
<totfact> 0.54864602E+11</totfact>
</mgrwt>
</event>
<event>
 4    1  0.1735226E+006  0.4177082E+01  0.7546771E-02  0.2244671E+00
         22   -1    0    0    0    0  0.00000000000E+00  0.00000000000E+00  0.83093584635E+01  0.83093584635E+01  0.00000000000E+00 0. -1.
         22   -1    0    0    0    0 -0.00000000000E+00 -0.00000000000E+00 -0.21311111034E+01  0.21311111034E+01  0.00000000000E+00 0. -1.
          4    1    1    2  501    0  0.26491302328E+01  0.29693812285E+01  0.24563981826E+01  0.48458134407E+01  0.12700000000E+01 0. -1.
         -4    1    1    2    0  501 -0.26491302328E+01 -0.29693812285E+01  0.37218491774E+01  0.55946561262E+01  0.12700000000E+01 0. -1.
<mgrwt>
<rscale>  0 0.41770822E+01</rscale>
<asrwt>0</asrwt>
<pdfrwt beam="1">0</pdfrwt>
<pdfrwt beam="2">0</pdfrwt>
<totfact> 0.83109388E+11</totfact>
</mgrwt>
</event>
<event>
 4    1  0.1735226E+006  0.2253864E+01  0.7546771E-02  0.2828111E+00
         22   -1    0    0    0    0  0.00000000000E+00  0.00000000000E+00  0.43286524484E+01  0.43286524484E+01  0.00000000000E+00 0. -1.
         22   -1    0    0    0    0 -0.00000000000E+00 -0.00000000000E+00 -0.11748031486E+01  0.11748031486E+01  0.00000000000E+00 0.  1.
          4    1    1    2  501    0 -0.17776888688E+01 -0.55391973910E+00  0.14871746365E+01  0.27002950192E+01  0.12700000000E+01 0. -1.
         -4    1    1    2    0  501  0.17776888688E+01  0.55391973910E+00  0.16666746634E+01  0.28031605778E+01  0.12700000000E+01 0.  1.
<mgrwt>
<rscale>  0 0.22538644E+01</rscale>
<asrwt>0</asrwt>
<pdfrwt beam="1">0</pdfrwt>
<pdfrwt beam="2">0</pdfrwt>
<totfact> 0.35873025E+12</totfact>
</mgrwt>
</event>
<event>
 4    1  0.1735226E+006  0.2429774E+01  0.7546771E-02  0.2740324E+00
         22   -1    0    0    0    0  0.00000000000E+00  0.00000000000E+00  0.92992697546E+00  0.92992697546E+00  0.00000000000E+00 0. -1.
         22   -1    0    0    0    0 -0.00000000000E+00 -0.00000000000E+00 -0.63775814764E+01  0.63775814764E+01  0.00000000000E+00 0.  1.
          4    1    1    2  501    0  0.20072020219E+01  0.51190089257E+00 -0.24778344976E+01  0.34703697610E+01  0.12700000000E+01 0. -1.
         -4    1    1    2    0  501 -0.20072020219E+01 -0.51190089257E+00 -0.29698200033E+01  0.38371386908E+01  0.12700000000E+01 0.  1.
<mgrwt>
<rscale>  0 0.24297742E+01</rscale>
<asrwt>0</asrwt>
<pdfrwt beam="1">0</pdfrwt>
<pdfrwt beam="2">0</pdfrwt>
<totfact> 0.29595613E+12</totfact>
</mgrwt>
</event>
<event>
 4    1  0.1735226E+006  0.2012294E+01  0.7546771E-02  0.2972477E+00
         22   -1    0    0    0    0  0.00000000000E+00  0.00000000000E+00  0.40973404812E+00  0.40973404812E+00  0.00000000000E+00 0. -1.
         22   -1    0    0    0    0 -0.00000000000E+00 -0.00000000000E+00 -0.12081482151E+02  0.12081482151E+02  0.00000000000E+00 0. -1.
          4    1    1    2  501    0 -0.12559095147E+01 -0.92688537710E+00 -0.31715042275E+01  0.37560303881E+01  0.12700000000E+01 0. -1.
         -4    1    1    2    0  501  0.12559095147E+01  0.92688537710E+00 -0.85002438750E+01  0.87351858106E+01  0.12700000000E+01 0. -1.
<mgrwt>
<rscale>  0 0.20122935E+01</rscale>
<asrwt>0</asrwt>
<pdfrwt beam="1">0</pdfrwt>
<pdfrwt beam="2">0</pdfrwt>
<totfact> 0.34671747E+12</totfact>
</mgrwt>
</event>
<event>
 4    1  0.1735226E+006  0.3006113E+01  0.7546771E-02  0.2520252E+00
         22   -1    0    0    0    0  0.00000000000E+00  0.00000000000E+00  0.92303550863E+00  0.92303550863E+00  0.00000000000E+00 0. -1.
         22   -1    0    0    0    0 -0.00000000000E+00 -0.00000000000E+00 -0.16294321855E+02  0.16294321855E+02  0.00000000000E+00 0.  1.
          4    1    1    2  501    0  0.93945461113E+00 -0.25575852119E+01 -0.22467296908E+01  0.37529337039E+01  0.12700000000E+01 0. -1.
         -4    1    1    2    0  501 -0.93945461113E+00  0.25575852119E+01 -0.13124556656E+02  0.13464423660E+02  0.12700000000E+01 0.  1.
<mgrwt>
<rscale>  0 0.30061133E+01</rscale>
<asrwt>0</asrwt>
<pdfrwt beam="1">0</pdfrwt>
<pdfrwt beam="2">0</pdfrwt>
<totfact> 0.95718053E+11</totfact>
</mgrwt>
</event>
<event>
 4    1  0.1735226E+006  0.2812904E+01  0.7546771E-02  0.2584829E+00
         22   -1    0    0    0    0  0.00000000000E+00  0.00000000000E+00  0.29928427168E+01  0.29928427168E+01  0.00000000000E+00 0.  1.
         22   -1    0    0    0    0 -0.00000000000E+00 -0.00000000000E+00 -0.40390745480E+01  0.40390745480E+01  0.00000000000E+00 0. -1.
          4    1    1    2  501    0  0.18611456664E+00 -0.25029763463E+01  0.15433829568E+01  0.32084981180E+01  0.12700000000E+01 0.  1.
         -4    1    1    2    0  501 -0.18611456664E+00  0.25029763463E+01 -0.25896147879E+01  0.38234191468E+01  0.12700000000E+01 0. -1.
<mgrwt>
<rscale>  0 0.28129041E+01</rscale>
<asrwt>0</asrwt>
<pdfrwt beam="1">0</pdfrwt>
<pdfrwt beam="2">0</pdfrwt>
<totfact> 0.13203287E+12</totfact>
</mgrwt>
</event>
<event>
 4    1  0.1735226E+006  0.2863453E+01  0.7546771E-02  0.2567174E+00
         22   -1    0    0    0    0  0.00000000000E+00  0.00000000000E+00  0.12610214564E+02  0.12610214564E+02  0.00000000000E+00 0. -1.
         22   -1    0    0    0    0 -0.00000000000E+00 -0.00000000000E+00 -0.76853720793E+00  0.76853720793E+00  0.00000000000E+00 0. -1.
          4    1    1    2  501    0 -0.16312972925E+01 -0.19812452522E+01  0.85455672565E+01  0.90125514335E+01  0.12700000000E+01 0. -1.
         -4    1    1    2    0  501  0.16312972925E+01  0.19812452522E+01  0.32961100991E+01  0.43662003380E+01  0.12700000000E+01 0. -1.
<mgrwt>
<rscale>  0 0.28634531E+01</rscale>
<asrwt>0</asrwt>
<pdfrwt beam="1">0</pdfrwt>
<pdfrwt beam="2">0</pdfrwt>
<totfact> 0.16154595E+12</totfact>
</mgrwt>
</event>
<event>
 4    1  0.1735226E+006  0.2085391E+01  0.7546771E-02  0.2925378E+00
         22   -1    0    0    0    0  0.00000000000E+00  0.00000000000E+00  0.37380406890E+00  0.37380406890E+00  0.00000000000E+00 0.  1.
         22   -1    0    0    0    0 -0.00000000000E+00 -0.00000000000E+00 -0.19650250861E+02  0.19650250861E+02  0.00000000000E+00 0.  1.
          4    1    1    2  501    0  0.16265988546E+01  0.30021893890E+00 -0.32434924456E+01  0.38560470030E+01  0.12700000000E+01 0.  1.
         -4    1    1    2    0  501 -0.16265988546E+01 -0.30021893890E+00 -0.16032954346E+02  0.16168007926E+02  0.12700000000E+01 0.  1.
<mgrwt>
<rscale>  0 0.20853909E+01</rscale>
<asrwt>0</asrwt>
<pdfrwt beam="1">0</pdfrwt>
<pdfrwt beam="2">0</pdfrwt>
<totfact> 0.21111401E+12</totfact>
</mgrwt>
</event>
<event>
 4    1  0.1735226E+006  0.2016049E+01  0.7546771E-02  0.2969976E+00
         22   -1    0    0    0    0  0.00000000000E+00  0.00000000000E+00  0.14823367352E+01  0.14823367352E+01  0.00000000000E+00 0.  1.
         22   -1    0    0    0    0 -0.00000000000E+00 -0.00000000000E+00 -0.25787532132E+02  0.25787532132E+02  0.00000000000E+00 0. -1.
          4    1    1    2  501    0  0.56959977361E-01  0.15647076483E+01  0.73708571188E+00  0.21465669825E+01  0.12700000000E+01 0.  1.
         -4    1    1    2    0  501 -0.56959977361E-01 -0.15647076483E+01 -0.25042281109E+02  0.25123301885E+02  0.12700000000E+01 0. -1.
<mgrwt>
<rscale>  0 0.20160492E+01</rscale>
<asrwt>0</asrwt>
<pdfrwt beam="1">0</pdfrwt>
<pdfrwt beam="2">0</pdfrwt>
<totfact> 0.31358526E+11</totfact>
</mgrwt>
</event>
<event>
 4    1  0.1735226E+006  0.2195306E+01  0.7546771E-02  0.2860292E+00
         22   -1    0    0    0    0  0.00000000000E+00  0.00000000000E+00  0.22150820203E+01  0.22150820203E+01  0.00000000000E+00 0. -1.
         22   -1    0    0    0    0 -0.00000000000E+00 -0.00000000000E+00 -0.22234699190E+01  0.22234699190E+01  0.00000000000E+00 0. -1.
          4    1    1    2  501    0  0.16875065315E+00  0.17826917015E+01  0.32107844789E+00  0.22186612755E+01  0.12700000000E+01 0. -1.
         -4    1    1    2    0  501 -0.16875065315E+00 -0.17826917015E+01 -0.32946634654E+00  0.22198906638E+01  0.12700000000E+01 0. -1.
<mgrwt>
<rscale>  0 0.21953056E+01</rscale>
<asrwt>0</asrwt>
<pdfrwt beam="1">0</pdfrwt>
<pdfrwt beam="2">0</pdfrwt>
<totfact> 0.37641811E+12</totfact>
</mgrwt>
</event>
<event>
 4    1  0.1735226E+006  0.2568412E+01  0.7546771E-02  0.2679117E+00
         22   -1    0    0    0    0  0.00000000000E+00  0.00000000000E+00  0.23542077883E+01  0.23542077883E+01  0.00000000000E+00 0.  1.
         22   -1    0    0    0    0 -0.00000000000E+00 -0.00000000000E+00 -0.25395909868E+02  0.25395909868E+02  0.00000000000E+00 0. -1.
          4    1    1    2  501    0 -0.73965439003E+00 -0.21063598266E+01  0.15663754816E+01  0.30083670795E+01  0.12700000000E+01 0.  1.
         -4    1    1    2    0  501  0.73965439003E+00  0.21063598266E+01 -0.24608077561E+02  0.24741750576E+02  0.12700000000E+01 0. -1.
<mgrwt>
<rscale>  0 0.25684120E+01</rscale>
<asrwt>0</asrwt>
<pdfrwt beam="1">0</pdfrwt>
<pdfrwt beam="2">0</pdfrwt>
<totfact> 0.18732409E+11</totfact>
</mgrwt>
</event>
<event>
 4    1  0.1735226E+006  0.2035752E+01  0.7546771E-02  0.2957002E+00
         22   -1    0    0    0    0  0.00000000000E+00  0.00000000000E+00  0.14592134435E+01  0.14592134435E+01  0.00000000000E+00 0.  1.
         22   -1    0    0    0    0 -0.00000000000E+00 -0.00000000000E+00 -0.52621910792E+01  0.52621910792E+01  0.00000000000E+00 0.  1.
          4    1    1    2  501    0  0.81200201530E+00 -0.13682251873E+01  0.37855651369E+00  0.20706502529E+01  0.12700000000E+01 0.  1.
         -4    1    1    2    0  501 -0.81200201530E+00  0.13682251873E+01 -0.41815341494E+01  0.46507542698E+01  0.12700000000E+01 0.  1.
<mgrwt>
<rscale>  0 0.20357523E+01</rscale>
<asrwt>0</asrwt>
<pdfrwt beam="1">0</pdfrwt>
<pdfrwt beam="2">0</pdfrwt>
<totfact> 0.22202522E+12</totfact>
</mgrwt>
</event>
<event>
 4    1  0.1735226E+006  0.2619889E+01  0.7546771E-02  0.2657924E+00
         22   -1    0    0    0    0  0.00000000000E+00  0.00000000000E+00  0.11162915118E+01  0.11162915118E+01  0.00000000000E+00 0.  1.
         22   -1    0    0    0    0 -0.00000000000E+00 -0.00000000000E+00 -0.10943902408E+02  0.10943902408E+02  0.00000000000E+00 0.  1.
          4    1    1    2  501    0  0.19518364834E+01  0.12005209358E+01 -0.92228244099E+00  0.27774846671E+01  0.12700000000E+01 0.  1.
         -4    1    1    2    0  501 -0.19518364834E+01 -0.12005209358E+01 -0.89053284555E+01  0.92827092529E+01  0.12700000000E+01 0.  1.
<mgrwt>
<rscale>  0 0.26198886E+01</rscale>
<asrwt>0</asrwt>
<pdfrwt beam="1">0</pdfrwt>
<pdfrwt beam="2">0</pdfrwt>
<totfact> 0.12542858E+12</totfact>
</mgrwt>
</event>
<event>
 4    1  0.1735226E+006  0.2218627E+01  0.7546771E-02  0.2847281E+00
         22   -1    0    0    0    0  0.00000000000E+00  0.00000000000E+00  0.11458399608E+01  0.11458399608E+01  0.00000000000E+00 0. -1.
         22   -1    0    0    0    0 -0.00000000000E+00 -0.00000000000E+00 -0.44245586679E+01  0.44245586679E+01  0.00000000000E+00 0.  1.
          4    1    1    2  501    0  0.16392866247E+01 -0.78876204129E+00 -0.11642436404E+01  0.25055477345E+01  0.12700000000E+01 0. -1.
         -4    1    1    2    0  501 -0.16392866247E+01  0.78876204129E+00 -0.21144750667E+01  0.30648508941E+01  0.12700000000E+01 0.  1.
<mgrwt>
<rscale>  0 0.22186271E+01</rscale>
<asrwt>0</asrwt>
<pdfrwt beam="1">0</pdfrwt>
<pdfrwt beam="2">0</pdfrwt>
<totfact> 0.35970966E+12</totfact>
</mgrwt>
</event>
<event>
 4    1  0.1735226E+006  0.2001308E+01  0.7546771E-02  0.2979846E+00
         22   -1    0    0    0    0  0.00000000000E+00  0.00000000000E+00  0.67771694787E+00  0.67771694787E+00  0.00000000000E+00 0.  1.
         22   -1    0    0    0    0 -0.00000000000E+00 -0.00000000000E+00 -0.74807154026E+01  0.74807154026E+01  0.00000000000E+00 0. -1.
          4    1    1    2  501    0 -0.69697267690E+00 -0.13807830350E+01 -0.52707565667E+01  0.56379169458E+01  0.12700000000E+01 0. -1.
         -4    1    1    2    0  501  0.69697267690E+00  0.13807830350E+01 -0.15322418881E+01  0.25205154047E+01  0.12700000000E+01 0.  1.
<mgrwt>
<rscale>  0 0.20013077E+01</rscale>
<asrwt>0</asrwt>
<pdfrwt beam="1">0</pdfrwt>
<pdfrwt beam="2">0</pdfrwt>
<totfact> 0.35045712E+12</totfact>
</mgrwt>
</event>
<event>
 4    1  0.1735226E+006  0.2557727E+01  0.7546771E-02  0.2683614E+00
         22   -1    0    0    0    0  0.00000000000E+00  0.00000000000E+00  0.19182209659E+02  0.19182209659E+02  0.00000000000E+00 0.  1.
         22   -1    0    0    0    0 -0.00000000000E+00 -0.00000000000E+00 -0.51315779429E+00  0.51315779429E+00  0.00000000000E+00 0. -1.
          4    1    1    2  501    0  0.15027719175E+01 -0.16342415681E+01  0.15037705299E+02  0.15253673315E+02  0.12700000000E+01 0.  1.
         -4    1    1    2    0  501 -0.15027719175E+01  0.16342415681E+01  0.36313465658E+01  0.44416941385E+01  0.12700000000E+01 0. -1.
<mgrwt>
<rscale>  0 0.25577273E+01</rscale>
<asrwt>0</asrwt>
<pdfrwt beam="1">0</pdfrwt>
<pdfrwt beam="2">0</pdfrwt>
<totfact> 0.15222766E+12</totfact>
</mgrwt>
</event>
<event>
 4    1  0.1735226E+006  0.2566744E+01  0.7546771E-02  0.2679816E+00
         22   -1    0    0    0    0  0.00000000000E+00  0.00000000000E+00  0.54523987753E+00  0.54523987753E+00  0.00000000000E+00 0. -1.
         22   -1    0    0    0    0 -0.00000000000E+00 -0.00000000000E+00 -0.25460984961E+02  0.25460984961E+02  0.00000000000E+00 0.  1.
          4    1    1    2  501    0  0.15627259091E+01  0.15915919415E+01 -0.30323862351E+01  0.39728507968E+01  0.12700000000E+01 0. -1.
         -4    1    1    2    0  501 -0.15627259091E+01 -0.15915919415E+01 -0.21883358849E+02  0.22033374042E+02  0.12700000000E+01 0.  1.
<mgrwt>
<rscale>  0 0.25667445E+01</rscale>
<asrwt>0</asrwt>
<pdfrwt beam="1">0</pdfrwt>
<pdfrwt beam="2">0</pdfrwt>
<totfact> 0.99677927E+11</totfact>
</mgrwt>
</event>
<event>
 4    1  0.1735226E+006  0.2002768E+01  0.7546771E-02  0.2978862E+00
         22   -1    0    0    0    0  0.00000000000E+00  0.00000000000E+00  0.40914227444E+00  0.40914227444E+00  0.00000000000E+00 0. -1.
         22   -1    0    0    0    0 -0.00000000000E+00 -0.00000000000E+00 -0.99827770231E+01  0.99827770231E+01  0.00000000000E+00 0.  1.
          4    1    1    2  501    0 -0.14605655155E+01  0.51471339911E+00 -0.40907699015E+01  0.45547206166E+01  0.12700000000E+01 0.  1.
         -4    1    1    2    0  501  0.14605655155E+01 -0.51471339911E+00 -0.54828648471E+01  0.58371986809E+01  0.12700000000E+01 0. -1.
<mgrwt>
<rscale>  0 0.20027685E+01</rscale>
<asrwt>0</asrwt>
<pdfrwt beam="1">0</pdfrwt>
<pdfrwt beam="2">0</pdfrwt>
<totfact> 0.43790748E+12</totfact>
</mgrwt>
</event>
<event>
 4    1  0.1735226E+006  0.2030285E+01  0.7546771E-02  0.2960577E+00
         22   -1    0    0    0    0  0.00000000000E+00  0.00000000000E+00  0.39275963070E+01  0.39275963070E+01  0.00000000000E+00 0.  1.
         22   -1    0    0    0    0 -0.00000000000E+00 -0.00000000000E+00 -0.52830984060E+01  0.52830984060E+01  0.00000000000E+00 0. -1.
          4    1    1    2  501    0 -0.10178143151E+01  0.12137595882E+01  0.34448591275E+01  0.39986388592E+01  0.12700000000E+01 0.  1.
         -4    1    1    2    0  501  0.10178143151E+01 -0.12137595882E+01 -0.48003612266E+01  0.52120558538E+01  0.12700000000E+01 0. -1.
<mgrwt>
<rscale>  0 0.20302853E+01</rscale>
<asrwt>0</asrwt>
<pdfrwt beam="1">0</pdfrwt>
<pdfrwt beam="2">0</pdfrwt>
<totfact> 0.69906795E+11</totfact>
</mgrwt>
</event>
<event>
 4    1  0.1735226E+006  0.2560611E+01  0.7546771E-02  0.2682397E+00
         22   -1    0    0    0    0  0.00000000000E+00  0.00000000000E+00  0.47704446104E+01  0.47704446104E+01  0.00000000000E+00 0.  1.
         22   -1    0    0    0    0 -0.00000000000E+00 -0.00000000000E+00 -0.22549183354E+02  0.22549183354E+02  0.00000000000E+00 0. -1.
          4    1    1    2  501    0 -0.60601818849E-01 -0.22226463607E+01  0.43475940524E+01  0.50456222083E+01  0.12700000000E+01 0.  1.
         -4    1    1    2    0  501  0.60601818849E-01  0.22226463607E+01 -0.22126332796E+02  0.22274005756E+02  0.12700000000E+01 0. -1.
<mgrwt>
<rscale>  0 0.25606111E+01</rscale>
<asrwt>0</asrwt>
<pdfrwt beam="1">0</pdfrwt>
<pdfrwt beam="2">0</pdfrwt>
<totfact> 0.95110010E+10</totfact>
</mgrwt>
</event>
<event>
 4    1  0.1735226E+006  0.2344160E+01  0.7546771E-02  0.2781494E+00
         22   -1    0    0    0    0  0.00000000000E+00  0.00000000000E+00  0.28302582074E+01  0.28302582074E+01  0.00000000000E+00 0.  1.
         22   -1    0    0    0    0 -0.00000000000E+00 -0.00000000000E+00 -0.57200817023E+01  0.57200817023E+01  0.00000000000E+00 0.  1.
          4    1    1    2  501    0 -0.18193380013E+01  0.75643701487E+00  0.20297601802E+01  0.31008086219E+01  0.12700000000E+01 0.  1.
         -4    1    1    2    0  501  0.18193380013E+01 -0.75643701487E+00 -0.49195836751E+01  0.54495312878E+01  0.12700000000E+01 0.  1.
<mgrwt>
<rscale>  0 0.23441603E+01</rscale>
<asrwt>0</asrwt>
<pdfrwt beam="1">0</pdfrwt>
<pdfrwt beam="2">0</pdfrwt>
<totfact> 0.93378981E+11</totfact>
</mgrwt>
</event>
<event>
 4    1  0.1735226E+006  0.2252634E+01  0.7546771E-02  0.2828770E+00
         22   -1    0    0    0    0  0.00000000000E+00  0.00000000000E+00  0.28690422523E+01  0.28690422523E+01  0.00000000000E+00 0.  1.
         22   -1    0    0    0    0 -0.00000000000E+00 -0.00000000000E+00 -0.19940280753E+01  0.19940280753E+01  0.00000000000E+00 0. -1.
          4    1    1    2  501    0  0.13587192958E+01  0.12709615888E+01  0.12549561696E+01  0.25786191019E+01  0.12700000000E+01 0. -1.
         -4    1    1    2    0  501 -0.13587192958E+01 -0.12709615888E+01 -0.37994199264E+00  0.22844512257E+01  0.12700000000E+01 0.  1.
<mgrwt>
<rscale>  0 0.22526343E+01</rscale>
<asrwt>0</asrwt>
<pdfrwt beam="1">0</pdfrwt>
<pdfrwt beam="2">0</pdfrwt>
<totfact> 0.31606393E+12</totfact>
</mgrwt>
</event>
<event>
 4    1  0.1735226E+006  0.2022197E+01  0.7546771E-02  0.2965902E+00
         22   -1    0    0    0    0  0.00000000000E+00  0.00000000000E+00  0.63631894492E+00  0.63631894492E+00  0.00000000000E+00 0.  1.
         22   -1    0    0    0    0 -0.00000000000E+00 -0.00000000000E+00 -0.70524663152E+01  0.70524663152E+01  0.00000000000E+00 0.  1.
          4    1    1    2  501    0 -0.13004100811E+01  0.88617868340E+00 -0.20627027675E+01  0.28886020399E+01  0.12700000000E+01 0.  1.
         -4    1    1    2    0  501  0.13004100811E+01 -0.88617868340E+00 -0.43534446028E+01  0.48001832202E+01  0.12700000000E+01 0.  1.
<mgrwt>
<rscale>  0 0.20221966E+01</rscale>
<asrwt>0</asrwt>
<pdfrwt beam="1">0</pdfrwt>
<pdfrwt beam="2">0</pdfrwt>
<totfact> 0.40396136E+12</totfact>
</mgrwt>
</event>
<event>
 4    1  0.1735226E+006  0.2022332E+01  0.7546771E-02  0.2965812E+00
         22   -1    0    0    0    0  0.00000000000E+00  0.00000000000E+00  0.78696287897E+01  0.78696287897E+01  0.00000000000E+00 0. -1.
         22   -1    0    0    0    0 -0.00000000000E+00 -0.00000000000E+00 -0.52097423976E+00  0.52097423976E+00  0.00000000000E+00 0.  1.
          4    1    1    2  501    0  0.10957852237E+01 -0.11296815409E+01  0.38820207417E+01  0.43772035227E+01  0.12700000000E+01 0. -1.
         -4    1    1    2    0  501 -0.10957852237E+01  0.11296815409E+01  0.34666338083E+01  0.40133995068E+01  0.12700000000E+01 0.  1.
<mgrwt>
<rscale>  0 0.20223317E+01</rscale>
<asrwt>0</asrwt>
<pdfrwt beam="1">0</pdfrwt>
<pdfrwt beam="2">0</pdfrwt>
<totfact> 0.44418615E+12</totfact>
</mgrwt>
</event>
<event>
 4    1  0.1735226E+006  0.2311621E+01  0.7546771E-02  0.2797895E+00
         22   -1    0    0    0    0  0.00000000000E+00  0.00000000000E+00  0.30102424312E+01  0.30102424312E+01  0.00000000000E+00 0.  1.
         22   -1    0    0    0    0 -0.00000000000E+00 -0.00000000000E+00 -0.19022997431E+01  0.19022997431E+01  0.00000000000E+00 0. -1.
          4    1    1    2  501    0 -0.14136717944E+01  0.13161399067E+01  0.11890347111E+01  0.25994991326E+01  0.12700000000E+01 0.  1.
         -4    1    1    2    0  501  0.14136717944E+01 -0.13161399067E+01 -0.81092023037E-01  0.23130430417E+01  0.12700000000E+01 0. -1.
<mgrwt>
<rscale>  0 0.23116211E+01</rscale>
<asrwt>0</asrwt>
<pdfrwt beam="1">0</pdfrwt>
<pdfrwt beam="2">0</pdfrwt>
<totfact> 0.31555593E+12</totfact>
</mgrwt>
</event>
<event>
 4    1  0.1735226E+006  0.2372592E+01  0.7546771E-02  0.2767512E+00
         22   -1    0    0    0    0  0.00000000000E+00  0.00000000000E+00  0.77604609109E+02  0.77604609109E+02  0.00000000000E+00 0. -1.
         22   -1    0    0    0    0 -0.00000000000E+00 -0.00000000000E+00 -0.14431413671E+00  0.14431413671E+00  0.00000000000E+00 0.  1.
          4    1    1    2  501    0 -0.17312299749E+01  0.10095221760E+01  0.66146112184E+02  0.66188649702E+02  0.12700000000E+01 0. -1.
         -4    1    1    2    0  501  0.17312299749E+01 -0.10095221760E+01  0.11314182788E+02  0.11560273544E+02  0.12700000000E+01 0.  1.
<mgrwt>
<rscale>  0 0.23725919E+01</rscale>
<asrwt>0</asrwt>
<pdfrwt beam="1">0</pdfrwt>
<pdfrwt beam="2">0</pdfrwt>
<totfact> 0.10260903E+12</totfact>
</mgrwt>
</event>
<event>
 4    1  0.1735226E+006  0.2482696E+01  0.7546771E-02  0.2716209E+00
         22   -1    0    0    0    0  0.00000000000E+00  0.00000000000E+00  0.12652983287E+01  0.12652983287E+01  0.00000000000E+00 0. -1.
         22   -1    0    0    0    0 -0.00000000000E+00 -0.00000000000E+00 -0.54092498260E+01  0.54092498260E+01  0.00000000000E+00 0. -1.
          4    1    1    2  501    0  0.21235218039E+01 -0.20379595577E+00 -0.10196436978E+01  0.26839245357E+01  0.12700000000E+01 0. -1.
         -4    1    1    2    0  501 -0.21235218039E+01  0.20379595577E+00 -0.31243077995E+01  0.39906236190E+01  0.12700000000E+01 0. -1.
<mgrwt>
<rscale>  0 0.24826956E+01</rscale>
<asrwt>0</asrwt>
<pdfrwt beam="1">0</pdfrwt>
<pdfrwt beam="2">0</pdfrwt>
<totfact> 0.25313705E+12</totfact>
</mgrwt>
</event>
<event>
 4    1  0.1735226E+006  0.3447954E+01  0.7546771E-02  0.2397135E+00
         22   -1    0    0    0    0  0.00000000000E+00  0.00000000000E+00  0.22861361706E+01  0.22861361706E+01  0.00000000000E+00 0. -1.
         22   -1    0    0    0    0 -0.00000000000E+00 -0.00000000000E+00 -0.61355306832E+01  0.61355306832E+01  0.00000000000E+00 0. -1.
          4    1    1    2  501    0  0.21208028628E+01 -0.24036809525E+01 -0.28061934715E+00  0.34593545817E+01  0.12700000000E+01 0. -1.
         -4    1    1    2    0  501 -0.21208028628E+01  0.24036809525E+01 -0.35687751655E+01  0.49623122721E+01  0.12700000000E+01 0. -1.
<mgrwt>
<rscale>  0 0.34479540E+01</rscale>
<asrwt>0</asrwt>
<pdfrwt beam="1">0</pdfrwt>
<pdfrwt beam="2">0</pdfrwt>
<totfact> 0.11013733E+12</totfact>
</mgrwt>
</event>
<event>
 4    1  0.1735226E+006  0.5104932E+01  0.7546771E-02  0.2110683E+00
         22   -1    0    0    0    0  0.00000000000E+00  0.00000000000E+00  0.40641099248E+02  0.40641099248E+02  0.00000000000E+00 0.  1.
         22   -1    0    0    0    0 -0.00000000000E+00 -0.00000000000E+00 -0.12037319750E+01  0.12037319750E+01  0.00000000000E+00 0. -1.
          4    1    1    2  501    0 -0.18294444828E+01 -0.45935346510E+01  0.34021073553E+02  0.34401944326E+02  0.12700000000E+01 0.  1.
         -4    1    1    2    0  501  0.18294444828E+01  0.45935346510E+01  0.54162937209E+01  0.74428868980E+01  0.12700000000E+01 0. -1.
<mgrwt>
<rscale>  0 0.51049317E+01</rscale>
<asrwt>0</asrwt>
<pdfrwt beam="1">0</pdfrwt>
<pdfrwt beam="2">0</pdfrwt>
<totfact> 0.22244923E+11</totfact>
</mgrwt>
</event>
<event>
 4    1  0.1735226E+006  0.4550514E+01  0.7546771E-02  0.2182984E+00
         22   -1    0    0    0    0  0.00000000000E+00  0.00000000000E+00  0.65666795914E+01  0.65666795914E+01  0.00000000000E+00 0. -1.
         22   -1    0    0    0    0 -0.00000000000E+00 -0.00000000000E+00 -0.36835292063E+01  0.36835292063E+01  0.00000000000E+00 0. -1.
          4    1    1    2  501    0 -0.19763333487E+01 -0.38972276432E+01  0.33859205751E+01  0.56720044912E+01  0.12700000000E+01 0. -1.
         -4    1    1    2    0  501  0.19763333487E+01  0.38972276432E+01 -0.50277019005E+00  0.45782043065E+01  0.12700000000E+01 0. -1.
<mgrwt>
<rscale>  0 0.45505139E+01</rscale>
<asrwt>0</asrwt>
<pdfrwt beam="1">0</pdfrwt>
<pdfrwt beam="2">0</pdfrwt>
<totfact> 0.58201859E+11</totfact>
</mgrwt>
</event>
<event>
 4    1  0.1735226E+006  0.2743762E+01  0.7546771E-02  0.2609932E+00
         22   -1    0    0    0    0  0.00000000000E+00  0.00000000000E+00  0.37193454407E+01  0.37193454407E+01  0.00000000000E+00 0. -1.
         22   -1    0    0    0    0 -0.00000000000E+00 -0.00000000000E+00 -0.57990407769E+01  0.57990407769E+01  0.00000000000E+00 0.  1.
          4    1    1    2  501    0  0.23658357886E+01  0.56405002199E+00  0.27999805620E+01  0.39202197073E+01  0.12700000000E+01 0. -1.
         -4    1    1    2    0  501 -0.23658357886E+01 -0.56405002199E+00 -0.48796758982E+01  0.55981665103E+01  0.12700000000E+01 0.  1.
<mgrwt>
<rscale>  0 0.27437623E+01</rscale>
<asrwt>0</asrwt>
<pdfrwt beam="1">0</pdfrwt>
<pdfrwt beam="2">0</pdfrwt>
<totfact> 0.66729696E+11</totfact>
</mgrwt>
</event>
<event>
 4    1  0.1735226E+006  0.4766789E+01  0.7546771E-02  0.2151914E+00
         22   -1    0    0    0    0  0.00000000000E+00  0.00000000000E+00  0.66839901931E+01  0.66839901931E+01  0.00000000000E+00 0. -1.
         22   -1    0    0    0    0 -0.00000000000E+00 -0.00000000000E+00 -0.34749408312E+01  0.34749408312E+01  0.00000000000E+00 0.  1.
          4    1    1    2  501    0 -0.37541278459E+01 -0.26487553387E+01  0.85614257364E+00  0.48430631664E+01  0.12700000000E+01 0.  1.
         -4    1    1    2    0  501  0.37541278459E+01  0.26487553387E+01  0.23529067882E+01  0.53158678578E+01  0.12700000000E+01 0. -1.
<mgrwt>
<rscale>  0 0.47667894E+01</rscale>
<asrwt>0</asrwt>
<pdfrwt beam="1">0</pdfrwt>
<pdfrwt beam="2">0</pdfrwt>
<totfact> 0.61018206E+11</totfact>
</mgrwt>
</event>
<event>
 4    1  0.1735226E+006  0.2452434E+01  0.7546771E-02  0.2729879E+00
         22   -1    0    0    0    0  0.00000000000E+00  0.00000000000E+00  0.30409770622E+00  0.30409770622E+00  0.00000000000E+00 0.  1.
         22   -1    0    0    0    0 -0.00000000000E+00 -0.00000000000E+00 -0.26030060560E+02  0.26030060560E+02  0.00000000000E+00 0.  1.
          4    1    1    2  501    0 -0.14445379860E+01 -0.15214611922E+01 -0.64099375408E+01  0.68630702626E+01  0.12700000000E+01 0.  1.
         -4    1    1    2    0  501  0.14445379860E+01  0.15214611922E+01 -0.19316025313E+02  0.19471088004E+02  0.12700000000E+01 0.  1.
<mgrwt>
<rscale>  0 0.24524343E+01</rscale>
<asrwt>0</asrwt>
<pdfrwt beam="1">0</pdfrwt>
<pdfrwt beam="2">0</pdfrwt>
<totfact> 0.18705962E+12</totfact>
</mgrwt>
</event>
<event>
 4    1  0.1735226E+006  0.2095802E+01  0.7546771E-02  0.2918930E+00
         22   -1    0    0    0    0  0.00000000000E+00  0.00000000000E+00  0.41355753243E+01  0.41355753243E+01  0.00000000000E+00 0.  1.
         22   -1    0    0    0    0 -0.00000000000E+00 -0.00000000000E+00 -0.17527475797E+01  0.17527475797E+01  0.00000000000E+00 0. -1.
          4    1    1    2  501    0  0.15492751618E+01  0.61581823733E+00  0.30395368203E+01  0.36920414015E+01  0.12700000000E+01 0. -1.
         -4    1    1    2    0  501 -0.15492751618E+01 -0.61581823733E+00 -0.65670907575E+00  0.21962815026E+01  0.12700000000E+01 0. -1.
<mgrwt>
<rscale>  0 0.20958019E+01</rscale>
<asrwt>0</asrwt>
<pdfrwt beam="1">0</pdfrwt>
<pdfrwt beam="2">0</pdfrwt>
<totfact> 0.23897140E+12</totfact>
</mgrwt>
</event>
<event>
 4    1  0.1735226E+006  0.2346032E+01  0.7546771E-02  0.2780564E+00
         22   -1    0    0    0    0  0.00000000000E+00  0.00000000000E+00  0.13026732992E+01  0.13026732992E+01  0.00000000000E+00 0.  1.
         22   -1    0    0    0    0 -0.00000000000E+00 -0.00000000000E+00 -0.42500840944E+01  0.42500840944E+01  0.00000000000E+00 0. -1.
          4    1    1    2  501    0 -0.30414088623E-01 -0.19723189104E+01 -0.16867638397E+01  0.28894703930E+01  0.12700000000E+01 0. -1.
         -4    1    1    2    0  501  0.30414088623E-01  0.19723189104E+01 -0.12606469555E+01  0.26632870006E+01  0.12700000000E+01 0.  1.
<mgrwt>
<rscale>  0 0.23460322E+01</rscale>
<asrwt>0</asrwt>
<pdfrwt beam="1">0</pdfrwt>
<pdfrwt beam="2">0</pdfrwt>
<totfact> 0.32562205E+12</totfact>
</mgrwt>
</event>
<event>
 4    1  0.1735226E+006  0.2610179E+01  0.7546771E-02  0.2661862E+00
         22   -1    0    0    0    0  0.00000000000E+00  0.00000000000E+00  0.17841826152E+01  0.17841826152E+01  0.00000000000E+00 0. -1.
         22   -1    0    0    0    0 -0.00000000000E+00 -0.00000000000E+00 -0.27117515321E+02  0.27117515321E+02  0.00000000000E+00 0.  1.
          4    1    1    2  501    0 -0.16189735296E+01  0.16059453777E+01  0.72814173502E+00  0.27098387834E+01  0.12700000000E+01 0. -1.
         -4    1    1    2    0  501  0.16189735296E+01 -0.16059453777E+01 -0.26061474441E+02  0.26191859153E+02  0.12700000000E+01 0.  1.
<mgrwt>
<rscale>  0 0.26101793E+01</rscale>
<asrwt>0</asrwt>
<pdfrwt beam="1">0</pdfrwt>
<pdfrwt beam="2">0</pdfrwt>
<totfact> 0.23768840E+11</totfact>
</mgrwt>
</event>
<event>
 4    1  0.1735226E+006  0.3262157E+01  0.7546771E-02  0.2445310E+00
         22   -1    0    0    0    0  0.00000000000E+00  0.00000000000E+00  0.47701859986E+00  0.47701859986E+00  0.00000000000E+00 0.  1.
         22   -1    0    0    0    0 -0.00000000000E+00 -0.00000000000E+00 -0.22319956870E+02  0.22319956870E+02  0.00000000000E+00 0.  1.
          4    1    1    2  501    0  0.10098178418E+01  0.28300239226E+01 -0.10665550035E+02  0.11153278667E+02  0.12700000000E+01 0.  1.
         -4    1    1    2    0  501 -0.10098178418E+01 -0.28300239226E+01 -0.11177388234E+02  0.11643696802E+02  0.12700000000E+01 0.  1.
<mgrwt>
<rscale>  0 0.32621569E+01</rscale>
<asrwt>0</asrwt>
<pdfrwt beam="1">0</pdfrwt>
<pdfrwt beam="2">0</pdfrwt>
<totfact> 0.13681332E+12</totfact>
</mgrwt>
</event>
<event>
 4    1  0.1735226E+006  0.2088601E+01  0.7546771E-02  0.2923383E+00
         22   -1    0    0    0    0  0.00000000000E+00  0.00000000000E+00  0.14017587938E+02  0.14017587938E+02  0.00000000000E+00 0.  1.
         22   -1    0    0    0    0 -0.00000000000E+00 -0.00000000000E+00 -0.56146074293E+00  0.56146074293E+00  0.00000000000E+00 0. -1.
          4    1    1    2  501    0  0.16581084184E+01  0.56891094001E-02  0.11594790079E+02  0.11781401142E+02  0.12700000000E+01 0.  1.
         -4    1    1    2    0  501 -0.16581084184E+01 -0.56891094001E-02  0.18613371165E+01  0.27976475393E+01  0.12700000000E+01 0. -1.
<mgrwt>
<rscale>  0 0.20886014E+01</rscale>
<asrwt>0</asrwt>
<pdfrwt beam="1">0</pdfrwt>
<pdfrwt beam="2">0</pdfrwt>
<totfact> 0.20258607E+12</totfact>
</mgrwt>
</event>
<event>
 4    1  0.1735226E+006  0.2010819E+01  0.7546771E-02  0.2973462E+00
         22   -1    0    0    0    0  0.00000000000E+00  0.00000000000E+00  0.44143684253E+02  0.44143684253E+02  0.00000000000E+00 0.  1.
         22   -1    0    0    0    0 -0.00000000000E+00 -0.00000000000E+00 -0.11832997648E+00  0.11832997648E+00  0.00000000000E+00 0. -1.
          4    1    1    2  501    0  0.32581279913E+00  0.15245777513E+01  0.32531917832E+02  0.32594003576E+02  0.12700000000E+01 0.  1.
         -4    1    1    2    0  501 -0.32581279913E+00 -0.15245777513E+01  0.11493436444E+02  0.11668010653E+02  0.12700000000E+01 0. -1.
<mgrwt>
<rscale>  0 0.20108186E+01</rscale>
<asrwt>0</asrwt>
<pdfrwt beam="1">0</pdfrwt>
<pdfrwt beam="2">0</pdfrwt>
<totfact> 0.27185730E+12</totfact>
</mgrwt>
</event>
<event>
 4    1  0.1735226E+006  0.2912313E+01  0.7546771E-02  0.2550637E+00
         22   -1    0    0    0    0  0.00000000000E+00  0.00000000000E+00  0.32412438474E+02  0.32412438474E+02  0.00000000000E+00 0. -1.
         22   -1    0    0    0    0 -0.00000000000E+00 -0.00000000000E+00 -0.26872925256E+00  0.26872925256E+00  0.00000000000E+00 0. -1.
          4    1    1    2  501    0 -0.23191447660E+01  0.12207526955E+01  0.18719093260E+02  0.18944287320E+02  0.12700000000E+01 0. -1.
         -4    1    1    2    0  501  0.23191447660E+01 -0.12207526955E+01  0.13424615961E+02  0.13736880406E+02  0.12700000000E+01 0. -1.
<mgrwt>
<rscale>  0 0.29123134E+01</rscale>
<asrwt>0</asrwt>
<pdfrwt beam="1">0</pdfrwt>
<pdfrwt beam="2">0</pdfrwt>
<totfact> 0.16256004E+12</totfact>
</mgrwt>
</event>
<event>
 4    1  0.1735226E+006  0.2032370E+01  0.7546771E-02  0.2959211E+00
         22   -1    0    0    0    0  0.00000000000E+00  0.00000000000E+00  0.73995811011E+01  0.73995811011E+01  0.00000000000E+00 0. -1.
         22   -1    0    0    0    0 -0.00000000000E+00 -0.00000000000E+00 -0.12384527435E+01  0.12384527435E+01  0.00000000000E+00 0.  1.
          4    1    1    2  501    0  0.86153501743E+00 -0.13324364937E+01  0.62814983141E+01  0.66021019885E+01  0.12700000000E+01 0. -1.
         -4    1    1    2    0  501 -0.86153501743E+00  0.13324364937E+01 -0.12036995653E+00  0.20359318560E+01  0.12700000000E+01 0.  1.
<mgrwt>
<rscale>  0 0.20323704E+01</rscale>
<asrwt>0</asrwt>
<pdfrwt beam="1">0</pdfrwt>
<pdfrwt beam="2">0</pdfrwt>
<totfact> 0.17854563E+12</totfact>
</mgrwt>
</event>
<event>
 4    1  0.1735226E+006  0.3774739E+01  0.7546771E-02  0.2322539E+00
         22   -1    0    0    0    0  0.00000000000E+00  0.00000000000E+00  0.70355314104E+01  0.70355314104E+01  0.00000000000E+00 0. -1.
         22   -1    0    0    0    0 -0.00000000000E+00 -0.00000000000E+00 -0.20671396104E+02  0.20671396104E+02  0.00000000000E+00 0.  1.
          4    1    1    2  501    0 -0.35249991086E+01  0.45840828103E+00  0.63394076610E+01  0.73781262093E+01  0.12700000000E+01 0. -1.
         -4    1    1    2    0  501  0.35249991086E+01 -0.45840828103E+00 -0.19975272355E+02  0.20328801306E+02  0.12700000000E+01 0.  1.
<mgrwt>
<rscale>  0 0.37747393E+01</rscale>
<asrwt>0</asrwt>
<pdfrwt beam="1">0</pdfrwt>
<pdfrwt beam="2">0</pdfrwt>
<totfact> 0.66809954E+10</totfact>
</mgrwt>
</event>
<event>
 4    1  0.1735226E+006  0.2067357E+01  0.7546771E-02  0.2936696E+00
         22   -1    0    0    0    0  0.00000000000E+00  0.00000000000E+00  0.70387617988E+00  0.70387617988E+00  0.00000000000E+00 0.  1.
         22   -1    0    0    0    0 -0.00000000000E+00 -0.00000000000E+00 -0.68814369542E+01  0.68814369542E+01  0.00000000000E+00 0. -1.
          4    1    1    2  501    0 -0.91769082266E+00  0.13486684871E+01 -0.17880562924E+01  0.27333328445E+01  0.12700000000E+01 0.  1.
         -4    1    1    2    0  501  0.91769082266E+00 -0.13486684871E+01 -0.43895044819E+01  0.48519802896E+01  0.12700000000E+01 0. -1.
<mgrwt>
<rscale>  0 0.20673566E+01</rscale>
<asrwt>0</asrwt>
<pdfrwt beam="1">0</pdfrwt>
<pdfrwt beam="2">0</pdfrwt>
<totfact> 0.37101444E+12</totfact>
</mgrwt>
</event>
<event>
 4    1  0.1735226E+006  0.2222762E+01  0.7546771E-02  0.2845002E+00
         22   -1    0    0    0    0  0.00000000000E+00  0.00000000000E+00  0.50558912930E+02  0.50558912930E+02  0.00000000000E+00 0.  1.
         22   -1    0    0    0    0 -0.00000000000E+00 -0.00000000000E+00 -0.12232254156E+00  0.12232254156E+00  0.00000000000E+00 0.  1.
          4    1    1    2  501    0 -0.81858256092E+00 -0.16302431147E+01  0.36582647145E+02  0.36650112444E+02  0.12700000000E+01 0.  1.
         -4    1    1    2    0  501  0.81858256092E+00  0.16302431147E+01  0.13853943243E+02  0.14031123027E+02  0.12700000000E+01 0.  1.
<mgrwt>
<rscale>  0 0.22227618E+01</rscale>
<asrwt>0</asrwt>
<pdfrwt beam="1">0</pdfrwt>
<pdfrwt beam="2">0</pdfrwt>
<totfact> 0.21927773E+12</totfact>
</mgrwt>
</event>
<event>
 4    1  0.1735226E+006  0.2906297E+01  0.7546771E-02  0.2552647E+00
         22   -1    0    0    0    0  0.00000000000E+00  0.00000000000E+00  0.45673229048E+01  0.45673229048E+01  0.00000000000E+00 0. -1.
         22   -1    0    0    0    0 -0.00000000000E+00 -0.00000000000E+00 -0.18561203335E+01  0.18561203335E+01  0.00000000000E+00 0.  1.
          4    1    1    2  501    0 -0.65994036042E+00 -0.25294541506E+01  0.15496333433E+01  0.32936185386E+01  0.12700000000E+01 0.  1.
         -4    1    1    2    0  501  0.65994036042E+00  0.25294541506E+01  0.11615692280E+01  0.31298246997E+01  0.12700000000E+01 0. -1.
<mgrwt>
<rscale>  0 0.29062965E+01</rscale>
<asrwt>0</asrwt>
<pdfrwt beam="1">0</pdfrwt>
<pdfrwt beam="2">0</pdfrwt>
<totfact> 0.19896540E+12</totfact>
</mgrwt>
</event>
<event>
 4    1  0.1735226E+006  0.2213515E+01  0.7546771E-02  0.2850111E+00
         22   -1    0    0    0    0  0.00000000000E+00  0.00000000000E+00  0.13156850361E+01  0.13156850361E+01  0.00000000000E+00 0. -1.
         22   -1    0    0    0    0 -0.00000000000E+00 -0.00000000000E+00 -0.37315620687E+01  0.37315620687E+01  0.00000000000E+00 0.  1.
          4    1    1    2  501    0 -0.92861135016E+00  0.15570577595E+01 -0.10945434408E+01  0.24693467253E+01  0.12700000000E+01 0. -1.
         -4    1    1    2    0  501  0.92861135016E+00 -0.15570577595E+01 -0.13213335918E+01  0.25779003795E+01  0.12700000000E+01 0. -1.
<mgrwt>
<rscale>  0 0.22135148E+01</rscale>
<asrwt>0</asrwt>
<pdfrwt beam="1">0</pdfrwt>
<pdfrwt beam="2">0</pdfrwt>
<totfact> 0.37517886E+12</totfact>
</mgrwt>
</event>
<event>
 4    1  0.1735226E+006  0.2094104E+01  0.7546771E-02  0.2919978E+00
         22   -1    0    0    0    0  0.00000000000E+00  0.00000000000E+00  0.46386021314E+01  0.46386021314E+01  0.00000000000E+00 0.  1.
         22   -1    0    0    0    0 -0.00000000000E+00 -0.00000000000E+00 -0.95052089933E+00  0.95052089933E+00  0.00000000000E+00 0. -1.
          4    1    1    2  501    0  0.15723000224E+01  0.54794428183E+00  0.20494364727E+01  0.29300955875E+01  0.12700000000E+01 0. -1.
         -4    1    1    2    0  501 -0.15723000224E+01 -0.54794428183E+00  0.16386447594E+01  0.26590274432E+01  0.12700000000E+01 0.  1.
<mgrwt>
<rscale>  0 0.20941037E+01</rscale>
<asrwt>0</asrwt>
<pdfrwt beam="1">0</pdfrwt>
<pdfrwt beam="2">0</pdfrwt>
<totfact> 0.42118193E+12</totfact>
</mgrwt>
</event>
<event>
 4    1  0.1735226E+006  0.2171714E+01  0.7546771E-02  0.2873727E+00
         22   -1    0    0    0    0  0.00000000000E+00  0.00000000000E+00  0.18653471971E+01  0.18653471971E+01  0.00000000000E+00 0. -1.
         22   -1    0    0    0    0 -0.00000000000E+00 -0.00000000000E+00 -0.25761066719E+01  0.25761066719E+01  0.00000000000E+00 0. -1.
          4    1    1    2  501    0  0.16431698814E+01 -0.63516418357E+00 -0.65759072569E+00  0.22690893243E+01  0.12700000000E+01 0. -1.
         -4    1    1    2    0  501 -0.16431698814E+01  0.63516418357E+00 -0.53168749047E-01  0.21723645447E+01  0.12700000000E+01 0. -1.
<mgrwt>
<rscale>  0 0.21717138E+01</rscale>
<asrwt>0</asrwt>
<pdfrwt beam="1">0</pdfrwt>
<pdfrwt beam="2">0</pdfrwt>
<totfact> 0.38706849E+12</totfact>
</mgrwt>
</event>
<event>
 4    1  0.1735226E+006  0.2937041E+01  0.7546771E-02  0.2542458E+00
         22   -1    0    0    0    0  0.00000000000E+00  0.00000000000E+00  0.59486235506E+01  0.59486235506E+01  0.00000000000E+00 0. -1.
         22   -1    0    0    0    0 -0.00000000000E+00 -0.00000000000E+00 -0.44841019170E+01  0.44841019170E+01  0.00000000000E+00 0.  1.
          4    1    1    2  501    0  0.17318069891E+01  0.20035347487E+01  0.50230450199E+01  0.58186929983E+01  0.12700000000E+01 0. -1.
         -4    1    1    2    0  501 -0.17318069891E+01 -0.20035347487E+01 -0.35585233863E+01  0.46140324693E+01  0.12700000000E+01 0.  1.
<mgrwt>
<rscale>  0 0.29370405E+01</rscale>
<asrwt>0</asrwt>
<pdfrwt beam="1">0</pdfrwt>
<pdfrwt beam="2">0</pdfrwt>
<totfact> 0.51945525E+11</totfact>
</mgrwt>
</event>
<event>
 4    1  0.1735226E+006  0.2080626E+01  0.7546771E-02  0.2928350E+00
         22   -1    0    0    0    0  0.00000000000E+00  0.00000000000E+00  0.16470044126E+00  0.16470044126E+00  0.00000000000E+00 0. -1.
         22   -1    0    0    0    0 -0.00000000000E+00 -0.00000000000E+00 -0.26454670703E+02  0.26454670703E+02  0.00000000000E+00 0. -1.
          4    1    1    2  501    0  0.31441551929E-01 -0.16477605695E+01 -0.12076264436E+02  0.12254189740E+02  0.12700000000E+01 0. -1.
         -4    1    1    2    0  501 -0.31441551929E-01  0.16477605695E+01 -0.14213705826E+02  0.14365181405E+02  0.12700000000E+01 0. -1.
<mgrwt>
<rscale>  0 0.20806257E+01</rscale>
<asrwt>0</asrwt>
<pdfrwt beam="1">0</pdfrwt>
<pdfrwt beam="2">0</pdfrwt>
<totfact> 0.36355696E+12</totfact>
</mgrwt>
</event>
<event>
 4    1  0.1735226E+006  0.2007716E+01  0.7546771E-02  0.2975538E+00
         22   -1    0    0    0    0  0.00000000000E+00  0.00000000000E+00  0.12104622061E+02  0.12104622061E+02  0.00000000000E+00 0. -1.
         22   -1    0    0    0    0 -0.00000000000E+00 -0.00000000000E+00 -0.10052424600E+01  0.10052424600E+01  0.00000000000E+00 0.  1.
          4    1    1    2  501    0 -0.14070221271E+01 -0.66205088034E+00  0.10910044618E+02  0.11093241014E+02  0.12700000000E+01 0. -1.
         -4    1    1    2    0  501  0.14070221271E+01  0.66205088034E+00  0.18933498366E+00  0.20166235073E+01  0.12700000000E+01 0.  1.
<mgrwt>
<rscale>  0 0.20077158E+01</rscale>
<asrwt>0</asrwt>
<pdfrwt beam="1">0</pdfrwt>
<pdfrwt beam="2">0</pdfrwt>
<totfact> 0.12504737E+12</totfact>
</mgrwt>
</event>
<event>
 4    1  0.1735226E+006  0.3752172E+01  0.7546771E-02  0.2327328E+00
         22   -1    0    0    0    0  0.00000000000E+00  0.00000000000E+00  0.28331875312E+01  0.28331875312E+01  0.00000000000E+00 0.  1.
         22   -1    0    0    0    0 -0.00000000000E+00 -0.00000000000E+00 -0.51507948681E+01  0.51507948681E+01  0.00000000000E+00 0. -1.
          4    1    1    2  501    0 -0.18625725222E+01  0.29994525917E+01 -0.19082748598E+01  0.42095492860E+01  0.12700000000E+01 0. -1.
         -4    1    1    2    0  501  0.18625725222E+01 -0.29994525917E+01 -0.40933247708E+00  0.37744331134E+01  0.12700000000E+01 0.  1.
<mgrwt>
<rscale>  0 0.37521717E+01</rscale>
<asrwt>0</asrwt>
<pdfrwt beam="1">0</pdfrwt>
<pdfrwt beam="2">0</pdfrwt>
<totfact> 0.10562789E+12</totfact>
</mgrwt>
</event>
<event>
 4    1  0.1735226E+006  0.2293148E+01  0.7546771E-02  0.2807402E+00
         22   -1    0    0    0    0  0.00000000000E+00  0.00000000000E+00  0.38753344211E+00  0.38753344211E+00  0.00000000000E+00 0.  1.
         22   -1    0    0    0    0 -0.00000000000E+00 -0.00000000000E+00 -0.13638809579E+02  0.13638809579E+02  0.00000000000E+00 0. -1.
          4    1    1    2  501    0  0.18636782270E+01 -0.41512615360E+00 -0.71265951885E+01  0.74864467698E+01  0.12700000000E+01 0. -1.
         -4    1    1    2    0  501 -0.18636782270E+01  0.41512615360E+00 -0.61246809483E+01  0.65398962512E+01  0.12700000000E+01 0.  1.
<mgrwt>
<rscale>  0 0.22931477E+01</rscale>
<asrwt>0</asrwt>
<pdfrwt beam="1">0</pdfrwt>
<pdfrwt beam="2">0</pdfrwt>
<totfact> 0.31831569E+12</totfact>
</mgrwt>
</event>
<event>
 4    1  0.1735226E+006  0.2056258E+01  0.7546771E-02  0.2943758E+00
         22   -1    0    0    0    0  0.00000000000E+00  0.00000000000E+00  0.19188050719E+02  0.19188050719E+02  0.00000000000E+00 0.  1.
         22   -1    0    0    0    0 -0.00000000000E+00 -0.00000000000E+00 -0.98422996244E+00  0.98422996244E+00  0.00000000000E+00 0. -1.
          4    1    1    2  501    0 -0.31682429729E-01 -0.16168772696E+01  0.17987528843E+02  0.18104678671E+02  0.12700000000E+01 0. -1.
         -4    1    1    2    0  501  0.31682429729E-01  0.16168772696E+01  0.21629191284E+00  0.20676020103E+01  0.12700000000E+01 0. -1.
<mgrwt>
<rscale>  0 0.20562577E+01</rscale>
<asrwt>0</asrwt>
<pdfrwt beam="1">0</pdfrwt>
<pdfrwt beam="2">0</pdfrwt>
<totfact> 0.72631085E+11</totfact>
</mgrwt>
</event>
<event>
 4    1  0.1735226E+006  0.2168000E+01  0.7546771E-02  0.2875867E+00
         22   -1    0    0    0    0  0.00000000000E+00  0.00000000000E+00  0.69621135491E+00  0.69621135491E+00  0.00000000000E+00 0.  1.
         22   -1    0    0    0    0 -0.00000000000E+00 -0.00000000000E+00 -0.69254764059E+01  0.69254764059E+01  0.00000000000E+00 0.  1.
          4    1    1    2  501    0 -0.47368036793E+00 -0.16920256808E+01 -0.37192543377E+01  0.43050060190E+01  0.12700000000E+01 0.  1.
         -4    1    1    2    0  501  0.47368036793E+00  0.16920256808E+01 -0.25100107133E+01  0.33166817418E+01  0.12700000000E+01 0.  1.
<mgrwt>
<rscale>  0 0.21680000E+01</rscale>
<asrwt>0</asrwt>
<pdfrwt beam="1">0</pdfrwt>
<pdfrwt beam="2">0</pdfrwt>
<totfact> 0.37281008E+12</totfact>
</mgrwt>
</event>
<event>
 4    1  0.1735226E+006  0.3012733E+01  0.7546771E-02  0.2518172E+00
         22   -1    0    0    0    0  0.00000000000E+00  0.00000000000E+00  0.27538395523E+01  0.27538395523E+01  0.00000000000E+00 0.  1.
         22   -1    0    0    0    0 -0.00000000000E+00 -0.00000000000E+00 -0.80075711920E+01  0.80075711920E+01  0.00000000000E+00 0. -1.
          4    1    1    2  501    0 -0.20948729775E+01  0.17536152525E+01  0.15005031258E+01  0.33657196669E+01  0.12700000000E+01 0.  1.
         -4    1    1    2    0  501  0.20948729775E+01 -0.17536152525E+01 -0.67542347655E+01  0.73956910774E+01  0.12700000000E+01 0. -1.
<mgrwt>
<rscale>  0 0.30127329E+01</rscale>
<asrwt>0</asrwt>
<pdfrwt beam="1">0</pdfrwt>
<pdfrwt beam="2">0</pdfrwt>
<totfact> 0.64498881E+11</totfact>
</mgrwt>
</event>
<event>
 4    1  0.1735226E+006  0.2012409E+01  0.7546771E-02  0.2972401E+00
         22   -1    0    0    0    0  0.00000000000E+00  0.00000000000E+00  0.72631376837E+01  0.72631376837E+01  0.00000000000E+00 0. -1.
         22   -1    0    0    0    0 -0.00000000000E+00 -0.00000000000E+00 -0.57884623944E+00  0.57884623944E+00  0.00000000000E+00 0. -1.
          4    1    1    2  501    0 -0.13210377963E+01 -0.83171357122E+00  0.25906120798E+01  0.32804053517E+01  0.12700000000E+01 0. -1.
         -4    1    1    2    0  501  0.13210377963E+01  0.83171357122E+00  0.40936793645E+01  0.45615785714E+01  0.12700000000E+01 0. -1.
<mgrwt>
<rscale>  0 0.20124086E+01</rscale>
<asrwt>0</asrwt>
<pdfrwt beam="1">0</pdfrwt>
<pdfrwt beam="2">0</pdfrwt>
<totfact> 0.43410842E+12</totfact>
</mgrwt>
</event>
<event>
 4    1  0.1735226E+006  0.2056823E+01  0.7546771E-02  0.2943397E+00
         22   -1    0    0    0    0  0.00000000000E+00  0.00000000000E+00  0.12549264645E+00  0.12549264645E+00  0.00000000000E+00 0.  1.
         22   -1    0    0    0    0 -0.00000000000E+00 -0.00000000000E+00 -0.63226494256E+02  0.63226494256E+02  0.00000000000E+00 0. -1.
          4    1    1    2  501    0  0.53140407765E-01  0.16170332607E+01 -0.99081962738E+01  0.10119430511E+02  0.12700000000E+01 0.  1.
         -4    1    1    2    0  501 -0.53140407765E-01 -0.16170332607E+01 -0.53192805336E+02  0.53232556392E+02  0.12700000000E+01 0. -1.
<mgrwt>
<rscale>  0 0.20568229E+01</rscale>
<asrwt>0</asrwt>
<pdfrwt beam="1">0</pdfrwt>
<pdfrwt beam="2">0</pdfrwt>
<totfact> 0.15823583E+12</totfact>
</mgrwt>
</event>
<event>
 4    1  0.1735226E+006  0.2323789E+01  0.7546771E-02  0.2791711E+00
         22   -1    0    0    0    0  0.00000000000E+00  0.00000000000E+00  0.15600128752E+02  0.15600128752E+02  0.00000000000E+00 0. -1.
         22   -1    0    0    0    0 -0.00000000000E+00 -0.00000000000E+00 -0.61931664964E+00  0.61931664964E+00  0.00000000000E+00 0.  1.
          4    1    1    2  501    0  0.19174758768E+01 -0.33223545003E+00  0.12876364235E+02  0.13084370449E+02  0.12700000000E+01 0. -1.
         -4    1    1    2    0  501 -0.19174758768E+01  0.33223545003E+00  0.21044478672E+01  0.31350749526E+01  0.12700000000E+01 0.  1.
<mgrwt>
<rscale>  0 0.23237887E+01</rscale>
<asrwt>0</asrwt>
<pdfrwt beam="1">0</pdfrwt>
<pdfrwt beam="2">0</pdfrwt>
<totfact> 0.15895722E+12</totfact>
</mgrwt>
</event>
<event>
 4    1  0.1735226E+006  0.2212043E+01  0.7546771E-02  0.2850928E+00
         22   -1    0    0    0    0  0.00000000000E+00  0.00000000000E+00  0.11317031978E+01  0.11317031978E+01  0.00000000000E+00 0. -1.
         22   -1    0    0    0    0 -0.00000000000E+00 -0.00000000000E+00 -0.45907436581E+01  0.45907436581E+01  0.00000000000E+00 0.  1.
          4    1    1    2  501    0 -0.56543718082E+00  0.17206140967E+01 -0.24196182090E+01  0.32783661102E+01  0.12700000000E+01 0.  1.
         -4    1    1    2    0  501  0.56543718082E+00 -0.17206140967E+01 -0.10394222513E+01  0.24440807457E+01  0.12700000000E+01 0.  1.
<mgrwt>
<rscale>  0 0.22120425E+01</rscale>
<asrwt>0</asrwt>
<pdfrwt beam="1">0</pdfrwt>
<pdfrwt beam="2">0</pdfrwt>
<totfact> 0.34931593E+12</totfact>
</mgrwt>
</event>
<event>
 4    1  0.1735226E+006  0.4018382E+01  0.7546771E-02  0.2273794E+00
         22   -1    0    0    0    0  0.00000000000E+00  0.00000000000E+00  0.30976845694E+02  0.30976845694E+02  0.00000000000E+00 0.  1.
         22   -1    0    0    0    0 -0.00000000000E+00 -0.00000000000E+00 -0.11686959040E+01  0.11686959040E+01  0.00000000000E+00 0. -1.
          4    1    1    2  501    0  0.20414103311E+00  0.38069439836E+01  0.26866906526E+02  0.27165751643E+02  0.12700000000E+01 0.  1.
         -4    1    1    2    0  501 -0.20414103311E+00 -0.38069439836E+01  0.29412432635E+01  0.49797899545E+01  0.12700000000E+01 0. -1.
<mgrwt>
<rscale>  0 0.40183823E+01</rscale>
<asrwt>0</asrwt>
<pdfrwt beam="1">0</pdfrwt>
<pdfrwt beam="2">0</pdfrwt>
<totfact> 0.32642745E+11</totfact>
</mgrwt>
</event>
<event>
 4    1  0.1735226E+006  0.3344984E+01  0.7546771E-02  0.2423253E+00
         22   -1    0    0    0    0  0.00000000000E+00  0.00000000000E+00  0.74389076543E-01  0.74389076543E-01  0.00000000000E+00 0. -1.
         22   -1    0    0    0    0 -0.00000000000E+00 -0.00000000000E+00 -0.17530018179E+03  0.17530018179E+03  0.00000000000E+00 0.  1.
          4    1    1    2  501    0  0.60001900608E+00 -0.30357854736E+01 -0.12065388224E+03  0.12070024116E+03  0.12700000000E+01 0. -1.
         -4    1    1    2    0  501 -0.60001900608E+00  0.30357854736E+01 -0.54571910474E+02  0.54674329708E+02  0.12700000000E+01 0.  1.
<mgrwt>
<rscale>  0 0.33449837E+01</rscale>
<asrwt>0</asrwt>
<pdfrwt beam="1">0</pdfrwt>
<pdfrwt beam="2">0</pdfrwt>
<totfact> 0.66205408E+11</totfact>
</mgrwt>
</event>
<event>
 4    1  0.1735226E+006  0.3054738E+01  0.7546771E-02  0.2505160E+00
         22   -1    0    0    0    0  0.00000000000E+00  0.00000000000E+00  0.67631424776E+01  0.67631424776E+01  0.00000000000E+00 0.  1.
         22   -1    0    0    0    0 -0.00000000000E+00 -0.00000000000E+00 -0.13808279951E+01  0.13808279951E+01  0.00000000000E+00 0. -1.
          4    1    1    2  501    0  0.25828821117E+01 -0.10233496527E+01  0.25772165553E+01  0.39966823351E+01  0.12700000000E+01 0.  1.
         -4    1    1    2    0  501 -0.25828821117E+01  0.10233496527E+01  0.28050979273E+01  0.41472881376E+01  0.12700000000E+01 0. -1.
<mgrwt>
<rscale>  0 0.30547380E+01</rscale>
<asrwt>0</asrwt>
<pdfrwt beam="1">0</pdfrwt>
<pdfrwt beam="2">0</pdfrwt>
<totfact> 0.17550832E+12</totfact>
</mgrwt>
</event>
<event>
 4    1  0.1735226E+006  0.3148403E+01  0.7546771E-02  0.2477266E+00
         22   -1    0    0    0    0  0.00000000000E+00  0.00000000000E+00  0.56533177975E+01  0.56533177975E+01  0.00000000000E+00 0. -1.
         22   -1    0    0    0    0 -0.00000000000E+00 -0.00000000000E+00 -0.18946083532E+01  0.18946083532E+01  0.00000000000E+00 0.  1.
          4    1    1    2  501    0 -0.92906525267E+00  0.27269725066E+01  0.29097207816E+01  0.42870638346E+01  0.12700000000E+01 0. -1.
         -4    1    1    2    0  501  0.92906525267E+00 -0.27269725066E+01  0.84898866267E+00  0.32608623161E+01  0.12700000000E+01 0.  1.
<mgrwt>
<rscale>  0 0.31484030E+01</rscale>
<asrwt>0</asrwt>
<pdfrwt beam="1">0</pdfrwt>
<pdfrwt beam="2">0</pdfrwt>
<totfact> 0.15091630E+12</totfact>
</mgrwt>
</event>
<event>
 4    1  0.1735226E+006  0.4587567E+01  0.7546771E-02  0.2177326E+00
         22   -1    0    0    0    0  0.00000000000E+00  0.00000000000E+00  0.63473262213E+00  0.63473262213E+00  0.00000000000E+00 0. -1.
         22   -1    0    0    0    0 -0.00000000000E+00 -0.00000000000E+00 -0.42979835119E+02  0.42979835119E+02  0.00000000000E+00 0. -1.
          4    1    1    2  501    0  0.62520490632E+00  0.43637124610E+01 -0.10747221784E+02  0.11685398739E+02  0.12700000000E+01 0. -1.
         -4    1    1    2    0  501 -0.62520490632E+00 -0.43637124610E+01 -0.31597880713E+02  0.31929169002E+02  0.12700000000E+01 0. -1.
<mgrwt>
<rscale>  0 0.45875666E+01</rscale>
<asrwt>0</asrwt>
<pdfrwt beam="1">0</pdfrwt>
<pdfrwt beam="2">0</pdfrwt>
<totfact> 0.42882429E+11</totfact>
</mgrwt>
</event>
<event>
 4    1  0.1735226E+006  0.2375917E+01  0.7546771E-02  0.2765897E+00
         22   -1    0    0    0    0  0.00000000000E+00  0.00000000000E+00  0.22044244046E+02  0.22044244046E+02  0.00000000000E+00 0. -1.
         22   -1    0    0    0    0 -0.00000000000E+00 -0.00000000000E+00 -0.18613581881E+01  0.18613581881E+01  0.00000000000E+00 0.  1.
          4    1    1    2  501    0  0.19594174465E+01  0.43905066869E+00  0.21191635933E+02  0.21324408918E+02  0.12700000000E+01 0. -1.
         -4    1    1    2    0  501 -0.19594174465E+01 -0.43905066869E+00 -0.10087500748E+01  0.25811933157E+01  0.12700000000E+01 0.  1.
<mgrwt>
<rscale>  0 0.23759171E+01</rscale>
<asrwt>0</asrwt>
<pdfrwt beam="1">0</pdfrwt>
<pdfrwt beam="2">0</pdfrwt>
<totfact> 0.29382489E+11</totfact>
</mgrwt>
</event>
<event>
 4    1  0.1735226E+006  0.3263485E+01  0.7546771E-02  0.2444948E+00
         22   -1    0    0    0    0  0.00000000000E+00  0.00000000000E+00  0.19397340874E+02  0.19397340874E+02  0.00000000000E+00 0.  1.
         22   -1    0    0    0    0 -0.00000000000E+00 -0.00000000000E+00 -0.85973349605E+00  0.85973349605E+00  0.00000000000E+00 0.  1.
          4    1    1    2  501    0  0.18849945351E+01  0.23418434204E+01  0.15357380476E+02  0.15700301592E+02  0.12700000000E+01 0.  1.
         -4    1    1    2    0  501 -0.18849945351E+01 -0.23418434204E+01  0.31802269027E+01  0.45567727786E+01  0.12700000000E+01 0.  1.
<mgrwt>
<rscale>  0 0.32634851E+01</rscale>
<asrwt>0</asrwt>
<pdfrwt beam="1">0</pdfrwt>
<pdfrwt beam="2">0</pdfrwt>
<totfact> 0.83614421E+11</totfact>
</mgrwt>
</event>
<event>
 4    1  0.1735226E+006  0.2484265E+01  0.7546771E-02  0.2715508E+00
         22   -1    0    0    0    0  0.00000000000E+00  0.00000000000E+00  0.15635609009E+00  0.15635609009E+00  0.00000000000E+00 0.  1.
         22   -1    0    0    0    0 -0.00000000000E+00 -0.00000000000E+00 -0.40154425440E+02  0.40154425440E+02  0.00000000000E+00 0.  1.
          4    1    1    2  501    0  0.12482130187E+01  0.17322347954E+01 -0.22628000455E+02  0.22763962259E+02  0.12700000000E+01 0.  1.
         -4    1    1    2    0  501 -0.12482130187E+01 -0.17322347954E+01 -0.17370068894E+02  0.17546819271E+02  0.12700000000E+01 0.  1.
<mgrwt>
<rscale>  0 0.24842651E+01</rscale>
<asrwt>0</asrwt>
<pdfrwt beam="1">0</pdfrwt>
<pdfrwt beam="2">0</pdfrwt>
<totfact> 0.22571291E+12</totfact>
</mgrwt>
</event>
<event>
 4    1  0.1735226E+006  0.2150950E+01  0.7546771E-02  0.2885785E+00
         22   -1    0    0    0    0  0.00000000000E+00  0.00000000000E+00  0.31690289450E+00  0.31690289450E+00  0.00000000000E+00 0.  1.
         22   -1    0    0    0    0 -0.00000000000E+00 -0.00000000000E+00 -0.17990197552E+02  0.17990197552E+02  0.00000000000E+00 0.  1.
          4    1    1    2  501    0  0.15927929792E+00 -0.17286746039E+01 -0.48626843801E+01  0.53171689047E+01  0.12700000000E+01 0.  1.
         -4    1    1    2    0  501 -0.15927929792E+00  0.17286746039E+01 -0.12810610277E+02  0.12989931542E+02  0.12700000000E+01 0.  1.
<mgrwt>
<rscale>  0 0.21509500E+01</rscale>
<asrwt>0</asrwt>
<pdfrwt beam="1">0</pdfrwt>
<pdfrwt beam="2">0</pdfrwt>
<totfact> 0.28362466E+12</totfact>
</mgrwt>
</event>
<event>
 4    1  0.1735226E+006  0.2494066E+01  0.7546771E-02  0.2711152E+00
         22   -1    0    0    0    0  0.00000000000E+00  0.00000000000E+00  0.19026463888E+01  0.19026463888E+01  0.00000000000E+00 0.  1.
         22   -1    0    0    0    0 -0.00000000000E+00 -0.00000000000E+00 -0.40717957353E+02  0.40717957353E+02  0.00000000000E+00 0.  1.
          4    1    1    2  501    0 -0.13206922362E+01  0.16921102192E+01  0.10292249698E+01  0.26980861763E+01  0.12700000000E+01 0.  1.
         -4    1    1    2    0  501  0.13206922362E+01 -0.16921102192E+01 -0.39844535934E+02  0.39922517566E+02  0.12700000000E+01 0.  1.
<mgrwt>
<rscale>  0 0.24940660E+01</rscale>
<asrwt>0</asrwt>
<pdfrwt beam="1">0</pdfrwt>
<pdfrwt beam="2">0</pdfrwt>
<totfact> 0.13101419E+11</totfact>
</mgrwt>
</event>
<event>
 4    1  0.1735226E+006  0.2011568E+01  0.7546771E-02  0.2972961E+00
         22   -1    0    0    0    0  0.00000000000E+00  0.00000000000E+00  0.67224831552E+02  0.67224831552E+02  0.00000000000E+00 0. -1.
         22   -1    0    0    0    0 -0.00000000000E+00 -0.00000000000E+00 -0.18258574177E+00  0.18258574177E+00  0.00000000000E+00 0.  1.
          4    1    1    2  501    0  0.12690178793E+01  0.90724871752E+00  0.61115691935E+02  0.61148787456E+02  0.12700000000E+01 0. -1.
         -4    1    1    2    0  501 -0.12690178793E+01 -0.90724871752E+00  0.59265538753E+01  0.62586298381E+01  0.12700000000E+01 0.  1.
<mgrwt>
<rscale>  0 0.20115682E+01</rscale>
<asrwt>0</asrwt>
<pdfrwt beam="1">0</pdfrwt>
<pdfrwt beam="2">0</pdfrwt>
<totfact> 0.96008960E+11</totfact>
</mgrwt>
</event>
<event>
 4    1  0.1735226E+006  0.6006072E+01  0.7546771E-02  0.2019144E+00
         22   -1    0    0    0    0  0.00000000000E+00  0.00000000000E+00  0.38285772213E+01  0.38285772213E+01  0.00000000000E+00 0. -1.
         22   -1    0    0    0    0 -0.00000000000E+00 -0.00000000000E+00 -0.94257967530E+01  0.94257967530E+01  0.00000000000E+00 0.  1.
          4    1    1    2  501    0 -0.17186513807E+01 -0.56130415671E+01 -0.29314176074E+01  0.66832707106E+01  0.12700000000E+01 0. -1.
         -4    1    1    2    0  501  0.17186513807E+01  0.56130415671E+01 -0.26658019243E+01  0.65711032637E+01  0.12700000000E+01 0.  1.
<mgrwt>
<rscale>  0 0.60060718E+01</rscale>
<asrwt>0</asrwt>
<pdfrwt beam="1">0</pdfrwt>
<pdfrwt beam="2">0</pdfrwt>
<totfact> 0.36035868E+11</totfact>
</mgrwt>
</event>
<event>
 4    1  0.1735226E+006  0.2053119E+01  0.7546771E-02  0.2945769E+00
         22   -1    0    0    0    0  0.00000000000E+00  0.00000000000E+00  0.35833789880E+01  0.35833789880E+01  0.00000000000E+00 0. -1.
         22   -1    0    0    0    0 -0.00000000000E+00 -0.00000000000E+00 -0.11900797057E+01  0.11900797057E+01  0.00000000000E+00 0.  1.
          4    1    1    2  501    0  0.10880004413E+01  0.11910713448E+01  0.14530381530E+01  0.25152764824E+01  0.12700000000E+01 0.  1.
         -4    1    1    2    0  501 -0.10880004413E+01 -0.11910713448E+01  0.94026112929E+00  0.22581822114E+01  0.12700000000E+01 0. -1.
<mgrwt>
<rscale>  0 0.20531186E+01</rscale>
<asrwt>0</asrwt>
<pdfrwt beam="1">0</pdfrwt>
<pdfrwt beam="2">0</pdfrwt>
<totfact> 0.44141437E+12</totfact>
</mgrwt>
</event>
<event>
 4    1  0.1735226E+006  0.2043569E+01  0.7546771E-02  0.2951923E+00
         22   -1    0    0    0    0  0.00000000000E+00  0.00000000000E+00  0.31286075007E+00  0.31286075007E+00  0.00000000000E+00 0.  1.
         22   -1    0    0    0    0 -0.00000000000E+00 -0.00000000000E+00 -0.14591450826E+02  0.14591450826E+02  0.00000000000E+00 0. -1.
          4    1    1    2  501    0  0.15878079593E+01  0.20528470760E+00 -0.49641649698E+01  0.53683432989E+01  0.12700000000E+01 0.  1.
         -4    1    1    2    0  501 -0.15878079593E+01 -0.20528470760E+00 -0.93144251065E+01  0.95359682776E+01  0.12700000000E+01 0. -1.
<mgrwt>
<rscale>  0 0.20435694E+01</rscale>
<asrwt>0</asrwt>
<pdfrwt beam="1">0</pdfrwt>
<pdfrwt beam="2">0</pdfrwt>
<totfact> 0.37262997E+12</totfact>
</mgrwt>
</event>
<event>
 4    1  0.1735226E+006  0.2603270E+01  0.7546771E-02  0.2664681E+00
         22   -1    0    0    0    0  0.00000000000E+00  0.00000000000E+00  0.44245658684E+01  0.44245658684E+01  0.00000000000E+00 0. -1.
         22   -1    0    0    0    0 -0.00000000000E+00 -0.00000000000E+00 -0.20425963751E+01  0.20425963751E+01  0.00000000000E+00 0. -1.
          4    1    1    2  501    0  0.19426755355E+01  0.11790363374E+01  0.28081998550E+01  0.38292298634E+01  0.12700000000E+01 0. -1.
         -4    1    1    2    0  501 -0.19426755355E+01 -0.11790363374E+01 -0.42623036170E+00  0.26379323802E+01  0.12700000000E+01 0. -1.
<mgrwt>
<rscale>  0 0.26032700E+01</rscale>
<asrwt>0</asrwt>
<pdfrwt beam="1">0</pdfrwt>
<pdfrwt beam="2">0</pdfrwt>
<totfact> 0.18490856E+12</totfact>
</mgrwt>
</event>
<event>
 4    1  0.1735226E+006  0.5002320E+01  0.7546771E-02  0.2122727E+00
         22   -1    0    0    0    0  0.00000000000E+00  0.00000000000E+00  0.25900203689E+02  0.25900203689E+02  0.00000000000E+00 0.  1.
         22   -1    0    0    0    0 -0.00000000000E+00 -0.00000000000E+00 -0.13001533884E+01  0.13001533884E+01  0.00000000000E+00 0.  1.
          4    1    1    2  501    0 -0.45726961396E+01  0.15813766444E+01  0.19193366285E+02  0.19834528263E+02  0.12700000000E+01 0.  1.
         -4    1    1    2    0  501  0.45726961396E+01 -0.15813766444E+01  0.54066840161E+01  0.73658288146E+01  0.12700000000E+01 0.  1.
<mgrwt>
<rscale>  0 0.50023197E+01</rscale>
<asrwt>0</asrwt>
<pdfrwt beam="1">0</pdfrwt>
<pdfrwt beam="2">0</pdfrwt>
<totfact> 0.36262638E+11</totfact>
</mgrwt>
</event>
<event>
 4    1  0.1735226E+006  0.3761994E+01  0.7546771E-02  0.2325237E+00
         22   -1    0    0    0    0  0.00000000000E+00  0.00000000000E+00  0.14683151182E+02  0.14683151182E+02  0.00000000000E+00 0.  1.
         22   -1    0    0    0    0 -0.00000000000E+00 -0.00000000000E+00 -0.15716559217E+01  0.15716559217E+01  0.00000000000E+00 0. -1.
          4    1    1    2  501    0 -0.35143740481E+01 -0.43459974782E+00  0.11609914195E+02  0.12204208680E+02  0.12700000000E+01 0.  1.
         -4    1    1    2    0  501  0.35143740481E+01  0.43459974782E+00  0.15015810646E+01  0.40505984230E+01  0.12700000000E+01 0. -1.
<mgrwt>
<rscale>  0 0.37619944E+01</rscale>
<asrwt>0</asrwt>
<pdfrwt beam="1">0</pdfrwt>
<pdfrwt beam="2">0</pdfrwt>
<totfact> 0.59136865E+11</totfact>
</mgrwt>
</event>
<event>
 4    1  0.1735226E+006  0.3280290E+01  0.7546771E-02  0.2440397E+00
         22   -1    0    0    0    0  0.00000000000E+00  0.00000000000E+00  0.16186073313E+01  0.16186073313E+01  0.00000000000E+00 0.  1.
         22   -1    0    0    0    0 -0.00000000000E+00 -0.00000000000E+00 -0.72226620624E+01  0.72226620624E+01  0.00000000000E+00 0.  1.
          4    1    1    2  501    0 -0.28569484040E+01 -0.99259624411E+00 -0.15549627929E+01  0.36301805429E+01  0.12700000000E+01 0.  1.
         -4    1    1    2    0  501  0.28569484040E+01  0.99259624411E+00 -0.40490919382E+01  0.52110888508E+01  0.12700000000E+01 0.  1.
<mgrwt>
<rscale>  0 0.32802898E+01</rscale>
<asrwt>0</asrwt>
<pdfrwt beam="1">0</pdfrwt>
<pdfrwt beam="2">0</pdfrwt>
<totfact> 0.13513300E+12</totfact>
</mgrwt>
</event>
<event>
 4    1  0.1735226E+006  0.6260153E+01  0.7546771E-02  0.1997114E+00
         22   -1    0    0    0    0  0.00000000000E+00  0.00000000000E+00  0.25757359246E+02  0.25757359246E+02  0.00000000000E+00 0. -1.
         22   -1    0    0    0    0 -0.00000000000E+00 -0.00000000000E+00 -0.27414346847E+01  0.27414346847E+01  0.00000000000E+00 0.  1.
          4    1    1    2  501    0  0.31133174677E+01  0.52805180595E+01  0.21013527245E+02  0.21926190820E+02  0.12700000000E+01 0. -1.
         -4    1    1    2    0  501 -0.31133174677E+01 -0.52805180595E+01  0.20023973168E+01  0.65726031104E+01  0.12700000000E+01 0.  1.
<mgrwt>
<rscale>  0 0.62601531E+01</rscale>
<asrwt>0</asrwt>
<pdfrwt beam="1">0</pdfrwt>
<pdfrwt beam="2">0</pdfrwt>
<totfact> 0.15413509E+11</totfact>
</mgrwt>
</event>
<event>
 4    1  0.1735226E+006  0.7341292E+01  0.7546771E-02  0.1916855E+00
         22   -1    0    0    0    0  0.00000000000E+00  0.00000000000E+00  0.91404171097E+00  0.91404171097E+00  0.00000000000E+00 0.  1.
         22   -1    0    0    0    0 -0.00000000000E+00 -0.00000000000E+00 -0.62260315308E+02  0.62260315308E+02  0.00000000000E+00 0. -1.
          4    1    1    2  501    0 -0.45152338839E+01  0.56475072666E+01 -0.23403877257E+02  0.24528270343E+02  0.12700000000E+01 0.  1.
         -4    1    1    2    0  501  0.45152338839E+01 -0.56475072666E+01 -0.37942396340E+02  0.38646086676E+02  0.12700000000E+01 0. -1.
<mgrwt>
<rscale>  0 0.73412925E+01</rscale>
<asrwt>0</asrwt>
<pdfrwt beam="1">0</pdfrwt>
<pdfrwt beam="2">0</pdfrwt>
<totfact> 0.17352594E+11</totfact>
</mgrwt>
</event>
<event>
 4    1  0.1735226E+006  0.2001452E+01  0.7546771E-02  0.2979749E+00
         22   -1    0    0    0    0  0.00000000000E+00  0.00000000000E+00  0.38092720135E+00  0.38092720135E+00  0.00000000000E+00 0.  1.
         22   -1    0    0    0    0 -0.00000000000E+00 -0.00000000000E+00 -0.10758297717E+02  0.10758297717E+02  0.00000000000E+00 0.  1.
          4    1    1    2  501    0  0.64449408616E+00 -0.14062501343E+01 -0.43527529659E+01  0.47908527894E+01  0.12700000000E+01 0.  1.
         -4    1    1    2    0  501 -0.64449408616E+00  0.14062501343E+01 -0.60246175499E+01  0.63483721291E+01  0.12700000000E+01 0.  1.
<mgrwt>
<rscale>  0 0.20014525E+01</rscale>
<asrwt>0</asrwt>
<pdfrwt beam="1">0</pdfrwt>
<pdfrwt beam="2">0</pdfrwt>
<totfact> 0.43342027E+12</totfact>
</mgrwt>
</event>
<event>
 4    1  0.1735226E+006  0.2768297E+01  0.7546771E-02  0.2600893E+00
         22   -1    0    0    0    0  0.00000000000E+00  0.00000000000E+00  0.69732820606E+00  0.69732820606E+00  0.00000000000E+00 0. -1.
         22   -1    0    0    0    0 -0.00000000000E+00 -0.00000000000E+00 -0.11717240169E+02  0.11717240169E+02  0.00000000000E+00 0.  1.
          4    1    1    2  501    0  0.17367585241E+01 -0.17419058143E+01 -0.39632738121E+01  0.48343567666E+01  0.12700000000E+01 0. -1.
         -4    1    1    2    0  501 -0.17367585241E+01  0.17419058143E+01 -0.70566381506E+01  0.75802116082E+01  0.12700000000E+01 0.  1.
<mgrwt>
<rscale>  0 0.27682966E+01</rscale>
<asrwt>0</asrwt>
<pdfrwt beam="1">0</pdfrwt>
<pdfrwt beam="2">0</pdfrwt>
<totfact> 0.19732214E+12</totfact>
</mgrwt>
</event>
<event>
 4    1  0.1735226E+006  0.2047120E+01  0.7546771E-02  0.2949628E+00
         22   -1    0    0    0    0  0.00000000000E+00  0.00000000000E+00  0.15249749227E+01  0.15249749227E+01  0.00000000000E+00 0. -1.
         22   -1    0    0    0    0 -0.00000000000E+00 -0.00000000000E+00 -0.28951692156E+01  0.28951692156E+01  0.00000000000E+00 0. -1.
          4    1    1    2  501    0 -0.15727543933E+01 -0.32286719023E+00 -0.11833062330E+01  0.23645112064E+01  0.12700000000E+01 0. -1.
         -4    1    1    2    0  501  0.15727543933E+01  0.32286719023E+00 -0.18688806001E+00  0.20556329320E+01  0.12700000000E+01 0. -1.
<mgrwt>
<rscale>  0 0.20471198E+01</rscale>
<asrwt>0</asrwt>
<pdfrwt beam="1">0</pdfrwt>
<pdfrwt beam="2">0</pdfrwt>
<totfact> 0.42616870E+12</totfact>
</mgrwt>
</event>
<event>
 4    1  0.1735226E+006  0.2078321E+01  0.7546771E-02  0.2929792E+00
         22   -1    0    0    0    0  0.00000000000E+00  0.00000000000E+00  0.64197821583E+01  0.64197821583E+01  0.00000000000E+00 0.  1.
         22   -1    0    0    0    0 -0.00000000000E+00 -0.00000000000E+00 -0.81629100139E+00  0.81629100139E+00  0.00000000000E+00 0. -1.
          4    1    1    2  501    0  0.10124714796E+01  0.12966957507E+01  0.43185103791E+01  0.47925932710E+01  0.12700000000E+01 0.  1.
         -4    1    1    2    0  501 -0.10124714796E+01 -0.12966957507E+01  0.12849807778E+01  0.24434798887E+01  0.12700000000E+01 0. -1.
<mgrwt>
<rscale>  0 0.20783210E+01</rscale>
<asrwt>0</asrwt>
<pdfrwt beam="1">0</pdfrwt>
<pdfrwt beam="2">0</pdfrwt>
<totfact> 0.34061913E+12</totfact>
</mgrwt>
</event>
<event>
 4    1  0.1735226E+006  0.2245144E+01  0.7546771E-02  0.2832802E+00
         22   -1    0    0    0    0  0.00000000000E+00  0.00000000000E+00  0.70816608252E+00  0.70816608252E+00  0.00000000000E+00 0. -1.
         22   -1    0    0    0    0 -0.00000000000E+00 -0.00000000000E+00 -0.19420687838E+02  0.19420687838E+02  0.00000000000E+00 0. -1.
          4    1    1    2  501    0  0.42778394764E+00  0.18013252946E+01 -0.13457889439E+01  0.26175980983E+01  0.12700000000E+01 0. -1.
         -4    1    1    2    0  501 -0.42778394764E+00 -0.18013252946E+01 -0.17366732811E+02  0.17511255822E+02  0.12700000000E+01 0. -1.
<mgrwt>
<rscale>  0 0.22451441E+01</rscale>
<asrwt>0</asrwt>
<pdfrwt beam="1">0</pdfrwt>
<pdfrwt beam="2">0</pdfrwt>
<totfact> 0.10408379E+12</totfact>
</mgrwt>
</event>
<event>
 4    1  0.1735226E+006  0.3160566E+01  0.7546771E-02  0.2473752E+00
         22   -1    0    0    0    0  0.00000000000E+00  0.00000000000E+00  0.10750285701E+02  0.10750285701E+02  0.00000000000E+00 0. -1.
         22   -1    0    0    0    0 -0.00000000000E+00 -0.00000000000E+00 -0.23507120309E+01  0.23507120309E+01  0.00000000000E+00 0. -1.
          4    1    1    2  501    0  0.28815945520E+01 -0.26961223660E+00  0.92936790799E+01  0.98163969337E+01  0.12700000000E+01 0. -1.
         -4    1    1    2    0  501 -0.28815945520E+01  0.26961223660E+00 -0.89410540975E+00  0.32846007983E+01  0.12700000000E+01 0. -1.
<mgrwt>
<rscale>  0 0.31605661E+01</rscale>
<asrwt>0</asrwt>
<pdfrwt beam="1">0</pdfrwt>
<pdfrwt beam="2">0</pdfrwt>
<totfact> 0.54332177E+11</totfact>
</mgrwt>
</event>
<event>
 4    1  0.1735226E+006  0.2554035E+01  0.7546771E-02  0.2685177E+00
         22   -1    0    0    0    0  0.00000000000E+00  0.00000000000E+00  0.63266029458E+00  0.63266029458E+00  0.00000000000E+00 0. -1.
         22   -1    0    0    0    0 -0.00000000000E+00 -0.00000000000E+00 -0.10389898676E+02  0.10389898676E+02  0.00000000000E+00 0. -1.
          4    1    1    2  501    0  0.44988652296E+00  0.21697460813E+01 -0.53601550342E+01  0.59375380362E+01  0.12700000000E+01 0. -1.
         -4    1    1    2    0  501 -0.44988652296E+00 -0.21697460813E+01 -0.43970833472E+01  0.50850209344E+01  0.12700000000E+01 0. -1.
<mgrwt>
<rscale>  0 0.25540352E+01</rscale>
<asrwt>0</asrwt>
<pdfrwt beam="1">0</pdfrwt>
<pdfrwt beam="2">0</pdfrwt>
<totfact> 0.25501640E+12</totfact>
</mgrwt>
</event>
<event>
 4    1  0.1735226E+006  0.2050093E+01  0.7546771E-02  0.2947712E+00
         22   -1    0    0    0    0  0.00000000000E+00  0.00000000000E+00  0.14306879830E+01  0.14306879830E+01  0.00000000000E+00 0.  1.
         22   -1    0    0    0    0 -0.00000000000E+00 -0.00000000000E+00 -0.72489689754E+01  0.72489689754E+01  0.00000000000E+00 0.  1.
          4    1    1    2  501    0  0.95246668644E+00  0.12972241202E+01  0.43772859063E+00  0.20963037771E+01  0.12700000000E+01 0.  1.
         -4    1    1    2    0  501 -0.95246668644E+00 -0.12972241202E+01 -0.62560095830E+01  0.65833531813E+01  0.12700000000E+01 0.  1.
<mgrwt>
<rscale>  0 0.20500935E+01</rscale>
<asrwt>0</asrwt>
<pdfrwt beam="1">0</pdfrwt>
<pdfrwt beam="2">0</pdfrwt>
<totfact> 0.15506430E+12</totfact>
</mgrwt>
</event>
<event>
 4    1  0.1735226E+006  0.4873364E+01  0.7546771E-02  0.2138430E+00
         22   -1    0    0    0    0  0.00000000000E+00  0.00000000000E+00  0.26952584585E+02  0.26952584585E+02  0.00000000000E+00 0. -1.
         22   -1    0    0    0    0 -0.00000000000E+00 -0.00000000000E+00 -0.21943925507E+01  0.21943925507E+01  0.00000000000E+00 0.  1.
          4    1    1    2  501    0 -0.33567997690E+01 -0.32967669890E+01  0.23653052090E+02  0.24149876820E+02  0.12700000000E+01 0. -1.
         -4    1    1    2    0  501  0.33567997690E+01  0.32967669890E+01  0.11051399448E+01  0.49971003158E+01  0.12700000000E+01 0.  1.
<mgrwt>
<rscale>  0 0.48733641E+01</rscale>
<asrwt>0</asrwt>
<pdfrwt beam="1">0</pdfrwt>
<pdfrwt beam="2">0</pdfrwt>
<totfact> 0.18852656E+11</totfact>
</mgrwt>
</event>
<event>
 4    1  0.1735226E+006  0.2048525E+01  0.7546771E-02  0.2948722E+00
         22   -1    0    0    0    0  0.00000000000E+00  0.00000000000E+00  0.55321502332E+00  0.55321502332E+00  0.00000000000E+00 0. -1.
         22   -1    0    0    0    0 -0.00000000000E+00 -0.00000000000E+00 -0.20101401548E+02  0.20101401548E+02  0.00000000000E+00 0.  1.
          4    1    1    2  501    0 -0.10675924944E+01 -0.12015831545E+01 -0.16251051428E+01  0.26148465608E+01  0.12700000000E+01 0. -1.
         -4    1    1    2    0  501  0.10675924944E+01  0.12015831545E+01 -0.17923081381E+02  0.18039770010E+02  0.12700000000E+01 0.  1.
<mgrwt>
<rscale>  0 0.20485253E+01</rscale>
<asrwt>0</asrwt>
<pdfrwt beam="1">0</pdfrwt>
<pdfrwt beam="2">0</pdfrwt>
<totfact> 0.13189554E+12</totfact>
</mgrwt>
</event>
<event>
 4    1  0.1735226E+006  0.2805665E+01  0.7546771E-02  0.2587404E+00
         22   -1    0    0    0    0  0.00000000000E+00  0.00000000000E+00  0.66830086960E+02  0.66830086960E+02  0.00000000000E+00 0. -1.
         22   -1    0    0    0    0 -0.00000000000E+00 -0.00000000000E+00 -0.27298333932E+00  0.27298333932E+00  0.00000000000E+00 0.  1.
          4    1    1    2  501    0 -0.24836348366E+01  0.30068893375E+00  0.58576436936E+02  0.58643590612E+02  0.12700000000E+01 0. -1.
         -4    1    1    2    0  501  0.24836348366E+01 -0.30068893375E+00  0.79806666851E+01  0.84594796870E+01  0.12700000000E+01 0.  1.
<mgrwt>
<rscale>  0 0.28056650E+01</rscale>
<asrwt>0</asrwt>
<pdfrwt beam="1">0</pdfrwt>
<pdfrwt beam="2">0</pdfrwt>
<totfact> 0.61761324E+11</totfact>
</mgrwt>
</event>
<event>
 4    1  0.1735226E+006  0.2256079E+01  0.7546771E-02  0.2826925E+00
         22   -1    0    0    0    0  0.00000000000E+00  0.00000000000E+00  0.39881541693E+01  0.39881541693E+01  0.00000000000E+00 0. -1.
         22   -1    0    0    0    0 -0.00000000000E+00 -0.00000000000E+00 -0.10543631735E+02  0.10543631735E+02  0.00000000000E+00 0.  1.
          4    1    1    2  501    0 -0.14367925619E+01  0.11885369900E+01  0.35342251651E+01  0.41929274451E+01  0.12700000000E+01 0. -1.
         -4    1    1    2    0  501  0.14367925619E+01 -0.11885369900E+01 -0.10089702731E+02  0.10338858459E+02  0.12700000000E+01 0.  1.
<mgrwt>
<rscale>  0 0.22560791E+01</rscale>
<asrwt>0</asrwt>
<pdfrwt beam="1">0</pdfrwt>
<pdfrwt beam="2">0</pdfrwt>
<totfact> 0.29986058E+11</totfact>
</mgrwt>
</event>
<event>
 4    1  0.1735226E+006  0.5505121E+01  0.7546771E-02  0.2067135E+00
         22   -1    0    0    0    0  0.00000000000E+00  0.00000000000E+00  0.56162537949E+02  0.56162537949E+02  0.00000000000E+00 0. -1.
         22   -1    0    0    0    0 -0.00000000000E+00 -0.00000000000E+00 -0.54053391440E+00  0.54053391440E+00  0.00000000000E+00 0.  1.
          4    1    1    2  501    0 -0.36399871618E+01  0.39298791759E+01  0.26644402895E+02  0.27207178510E+02  0.12700000000E+01 0.  1.
         -4    1    1    2    0  501  0.36399871618E+01 -0.39298791759E+01  0.28977601139E+02  0.29495893353E+02  0.12700000000E+01 0. -1.
<mgrwt>
<rscale>  0 0.55051210E+01</rscale>
<asrwt>0</asrwt>
<pdfrwt beam="1">0</pdfrwt>
<pdfrwt beam="2">0</pdfrwt>
<totfact> 0.36158011E+11</totfact>
</mgrwt>
</event>
<event>
 4    1  0.1735226E+006  0.2352113E+01  0.7546771E-02  0.2777551E+00
         22   -1    0    0    0    0  0.00000000000E+00  0.00000000000E+00  0.38827473686E+01  0.38827473686E+01  0.00000000000E+00 0.  1.
         22   -1    0    0    0    0 -0.00000000000E+00 -0.00000000000E+00 -0.20540074324E+01  0.20540074324E+01  0.00000000000E+00 0. -1.
          4    1    1    2  501    0  0.14444896990E+01  0.13538771112E+01  0.25571854488E+01  0.34744252967E+01  0.12700000000E+01 0.  1.
         -4    1    1    2    0  501 -0.14444896990E+01 -0.13538771112E+01 -0.72844551267E+00  0.24623295043E+01  0.12700000000E+01 0. -1.
<mgrwt>
<rscale>  0 0.23521126E+01</rscale>
<asrwt>0</asrwt>
<pdfrwt beam="1">0</pdfrwt>
<pdfrwt beam="2">0</pdfrwt>
<totfact> 0.21427334E+12</totfact>
</mgrwt>
</event>
<event>
 4    1  0.1735226E+006  0.3644627E+01  0.7546771E-02  0.2350849E+00
         22   -1    0    0    0    0  0.00000000000E+00  0.00000000000E+00  0.22769044151E+00  0.22769044151E+00  0.00000000000E+00 0.  1.
         22   -1    0    0    0    0 -0.00000000000E+00 -0.00000000000E+00 -0.72487088660E+02  0.72487088660E+02  0.00000000000E+00 0.  1.
          4    1    1    2  501    0  0.41891204036E+00 -0.33904153908E+01 -0.20067446384E+02  0.20395727695E+02  0.12700000000E+01 0.  1.
         -4    1    1    2    0  501 -0.41891204036E+00  0.33904153908E+01 -0.52191951834E+02  0.52319051406E+02  0.12700000000E+01 0.  1.
<mgrwt>
<rscale>  0 0.36446267E+01</rscale>
<asrwt>0</asrwt>
<pdfrwt beam="1">0</pdfrwt>
<pdfrwt beam="2">0</pdfrwt>
<totfact> 0.67764383E+11</totfact>
</mgrwt>
</event>
<event>
 4    1  0.1735226E+006  0.3409295E+01  0.7546771E-02  0.2406778E+00
         22   -1    0    0    0    0  0.00000000000E+00  0.00000000000E+00  0.51222441031E+01  0.51222441031E+01  0.00000000000E+00 0.  1.
         22   -1    0    0    0    0 -0.00000000000E+00 -0.00000000000E+00 -0.23183708956E+01  0.23183708956E+01  0.00000000000E+00 0. -1.
          4    1    1    2  501    0 -0.10450814782E+01  0.29863353768E+01  0.86002382058E+00  0.35160965929E+01  0.12700000000E+01 0. -1.
         -4    1    1    2    0  501  0.10450814782E+01 -0.29863353768E+01  0.19438493869E+01  0.39245184058E+01  0.12700000000E+01 0.  1.
<mgrwt>
<rscale>  0 0.34092953E+01</rscale>
<asrwt>0</asrwt>
<pdfrwt beam="1">0</pdfrwt>
<pdfrwt beam="2">0</pdfrwt>
<totfact> 0.13427709E+12</totfact>
</mgrwt>
</event>
<event>
 4    1  0.1735226E+006  0.2935960E+01  0.7546771E-02  0.2542813E+00
         22   -1    0    0    0    0  0.00000000000E+00  0.00000000000E+00  0.16560471689E+01  0.16560471689E+01  0.00000000000E+00 0. -1.
         22   -1    0    0    0    0 -0.00000000000E+00 -0.00000000000E+00 -0.64682083304E+01  0.64682083304E+01  0.00000000000E+00 0.  1.
          4    1    1    2  501    0 -0.26448237214E+01 -0.10893733964E+00 -0.61099514968E+00  0.29988622733E+01  0.12700000000E+01 0. -1.
         -4    1    1    2    0  501  0.26448237214E+01  0.10893733964E+00 -0.42011660118E+01  0.51253932259E+01  0.12700000000E+01 0.  1.
<mgrwt>
<rscale>  0 0.29359598E+01</rscale>
<asrwt>0</asrwt>
<pdfrwt beam="1">0</pdfrwt>
<pdfrwt beam="2">0</pdfrwt>
<totfact> 0.15016881E+12</totfact>
</mgrwt>
</event>
<event>
 4    1  0.1735226E+006  0.3276618E+01  0.7546771E-02  0.2441388E+00
         22   -1    0    0    0    0  0.00000000000E+00  0.00000000000E+00  0.34720166108E+01  0.34720166108E+01  0.00000000000E+00 0.  1.
         22   -1    0    0    0    0 -0.00000000000E+00 -0.00000000000E+00 -0.31459235005E+01  0.31459235005E+01  0.00000000000E+00 0. -1.
          4    1    1    2  501    0 -0.24448602542E+00 -0.30105732521E+01 -0.26930489450E+00  0.32876663227E+01  0.12700000000E+01 0.  1.
         -4    1    1    2    0  501  0.24448602542E+00  0.30105732521E+01  0.59539800478E+00  0.33302737886E+01  0.12700000000E+01 0. -1.
<mgrwt>
<rscale>  0 0.32766179E+01</rscale>
<asrwt>0</asrwt>
<pdfrwt beam="1">0</pdfrwt>
<pdfrwt beam="2">0</pdfrwt>
<totfact> 0.14877944E+12</totfact>
</mgrwt>
</event>
<event>
 4    1  0.1735226E+006  0.3385329E+01  0.7546771E-02  0.2412854E+00
         22   -1    0    0    0    0  0.00000000000E+00  0.00000000000E+00  0.16375950371E+01  0.16375950371E+01  0.00000000000E+00 0. -1.
         22   -1    0    0    0    0 -0.00000000000E+00 -0.00000000000E+00 -0.87511399815E+01  0.87511399815E+01  0.00000000000E+00 0. -1.
          4    1    1    2  501    0 -0.25816976883E+01 -0.17839258433E+01 -0.12320775374E+01  0.36025642848E+01  0.12700000000E+01 0. -1.
         -4    1    1    2    0  501  0.25816976883E+01  0.17839258433E+01 -0.58814674070E+01  0.67861707338E+01  0.12700000000E+01 0. -1.
<mgrwt>
<rscale>  0 0.33853293E+01</rscale>
<asrwt>0</asrwt>
<pdfrwt beam="1">0</pdfrwt>
<pdfrwt beam="2">0</pdfrwt>
<totfact> 0.10587278E+12</totfact>
</mgrwt>
</event>
<event>
 4    1  0.1735226E+006  0.2052850E+01  0.7546771E-02  0.2945941E+00
         22   -1    0    0    0    0  0.00000000000E+00  0.00000000000E+00  0.23345981379E+01  0.23345981379E+01  0.00000000000E+00 0.  1.
         22   -1    0    0    0    0 -0.00000000000E+00 -0.00000000000E+00 -0.18065292067E+01  0.18065292067E+01  0.00000000000E+00 0.  1.
          4    1    1    2  501    0 -0.16022369282E+01 -0.18473907003E+00  0.32219832978E+00  0.20779806211E+01  0.12700000000E+01 0.  1.
         -4    1    1    2    0  501  0.16022369282E+01  0.18473907003E+00  0.20587060136E+00  0.20631467235E+01  0.12700000000E+01 0.  1.
<mgrwt>
<rscale>  0 0.20528497E+01</rscale>
<asrwt>0</asrwt>
<pdfrwt beam="1">0</pdfrwt>
<pdfrwt beam="2">0</pdfrwt>
<totfact> 0.45035768E+12</totfact>
</mgrwt>
</event>
<event>
 4    1  0.1735226E+006  0.2287988E+01  0.7546771E-02  0.2810084E+00
         22   -1    0    0    0    0  0.00000000000E+00  0.00000000000E+00  0.45614049660E+01  0.45614049660E+01  0.00000000000E+00 0. -1.
         22   -1    0    0    0    0 -0.00000000000E+00 -0.00000000000E+00 -0.11555403849E+01  0.11555403849E+01  0.00000000000E+00 0. -1.
          4    1    1    2  501    0  0.17892885193E+01 -0.64840857366E+00  0.19391686995E+01  0.29992102842E+01  0.12700000000E+01 0. -1.
         -4    1    1    2    0  501 -0.17892885193E+01  0.64840857366E+00  0.14666958816E+01  0.27177350667E+01  0.12700000000E+01 0. -1.
<mgrwt>
<rscale>  0 0.22879876E+01</rscale>
<asrwt>0</asrwt>
<pdfrwt beam="1">0</pdfrwt>
<pdfrwt beam="2">0</pdfrwt>
<totfact> 0.34367650E+12</totfact>
</mgrwt>
</event>
<event>
 4    1  0.1735226E+006  0.2647376E+01  0.7546771E-02  0.2646919E+00
         22   -1    0    0    0    0  0.00000000000E+00  0.00000000000E+00  0.28788297456E+01  0.28788297456E+01  0.00000000000E+00 0.  1.
         22   -1    0    0    0    0 -0.00000000000E+00 -0.00000000000E+00 -0.24468122793E+01  0.24468122793E+01  0.00000000000E+00 0.  1.
          4    1    1    2  501    0 -0.10364203618E+01  0.20788299345E+01  0.27357991164E-01  0.26475176152E+01  0.12700000000E+01 0.  1.
         -4    1    1    2    0  501  0.10364203618E+01 -0.20788299345E+01  0.40465947507E+00  0.26781244097E+01  0.12700000000E+01 0.  1.
<mgrwt>
<rscale>  0 0.26473763E+01</rscale>
<asrwt>0</asrwt>
<pdfrwt beam="1">0</pdfrwt>
<pdfrwt beam="2">0</pdfrwt>
<totfact> 0.24830158E+12</totfact>
</mgrwt>
</event>
<event>
 4    1  0.1735226E+006  0.3739616E+01  0.7546771E-02  0.2330014E+00
         22   -1    0    0    0    0  0.00000000000E+00  0.00000000000E+00  0.11733516893E+02  0.11733516893E+02  0.00000000000E+00 0.  1.
         22   -1    0    0    0    0 -0.00000000000E+00 -0.00000000000E+00 -0.23568419644E+01  0.23568419644E+01  0.00000000000E+00 0. -1.
          4    1    1    2  501    0 -0.64110412633E+00  0.34584405767E+01  0.96415409456E+01  0.10341375031E+02  0.12700000000E+01 0.  1.
         -4    1    1    2    0  501  0.64110412633E+00 -0.34584405767E+01 -0.26486601715E+00  0.37489838264E+01  0.12700000000E+01 0. -1.
<mgrwt>
<rscale>  0 0.37396157E+01</rscale>
<asrwt>0</asrwt>
<pdfrwt beam="1">0</pdfrwt>
<pdfrwt beam="2">0</pdfrwt>
<totfact> 0.48698981E+11</totfact>
</mgrwt>
</event>
<event>
 4    1  0.1735226E+006  0.2266720E+01  0.7546771E-02  0.2821258E+00
         22   -1    0    0    0    0  0.00000000000E+00  0.00000000000E+00  0.19135296288E+01  0.19135296288E+01  0.00000000000E+00 0. -1.
         22   -1    0    0    0    0 -0.00000000000E+00 -0.00000000000E+00 -0.39860303589E+01  0.39860303589E+01  0.00000000000E+00 0.  1.
          4    1    1    2  501    0 -0.12423651711E+01 -0.14077110542E+01  0.64892874878E+00  0.23577807683E+01  0.12700000000E+01 0.  1.
         -4    1    1    2    0  501  0.12423651711E+01  0.14077110542E+01 -0.27214294789E+01  0.35417792194E+01  0.12700000000E+01 0.  1.
<mgrwt>
<rscale>  0 0.22667205E+01</rscale>
<asrwt>0</asrwt>
<pdfrwt beam="1">0</pdfrwt>
<pdfrwt beam="2">0</pdfrwt>
<totfact> 0.22550527E+12</totfact>
</mgrwt>
</event>
<event>
 4    1  0.1735226E+006  0.2194986E+01  0.7546771E-02  0.2860473E+00
         22   -1    0    0    0    0  0.00000000000E+00  0.00000000000E+00  0.15205454707E+01  0.15205454707E+01  0.00000000000E+00 0.  1.
         22   -1    0    0    0    0 -0.00000000000E+00 -0.00000000000E+00 -0.34728656983E+01  0.34728656983E+01  0.00000000000E+00 0.  1.
          4    1    1    2  501    0 -0.14290588268E+01 -0.10783568298E+01 -0.23712074431E+00  0.22077565152E+01  0.12700000000E+01 0.  1.
         -4    1    1    2    0  501  0.14290588268E+01  0.10783568298E+01 -0.17151994833E+01  0.27856546538E+01  0.12700000000E+01 0.  1.
<mgrwt>
<rscale>  0 0.21949858E+01</rscale>
<asrwt>0</asrwt>
<pdfrwt beam="1">0</pdfrwt>
<pdfrwt beam="2">0</pdfrwt>
<totfact> 0.34563846E+12</totfact>
</mgrwt>
</event>
<event>
 4    1  0.1735226E+006  0.2318289E+01  0.7546771E-02  0.2794498E+00
         22   -1    0    0    0    0  0.00000000000E+00  0.00000000000E+00  0.14447765234E+02  0.14447765234E+02  0.00000000000E+00 0. -1.
         22   -1    0    0    0    0 -0.00000000000E+00 -0.00000000000E+00 -0.38900266551E+00  0.38900266551E+00  0.00000000000E+00 0.  1.
          4    1    1    2  501    0  0.19392971991E+01 -0.26314611772E-01  0.85806326753E+01  0.88882913540E+01  0.12700000000E+01 0. -1.
         -4    1    1    2    0  501 -0.19392971991E+01  0.26314611772E-01  0.54781298929E+01  0.59484765452E+01  0.12700000000E+01 0.  1.
<mgrwt>
<rscale>  0 0.23182895E+01</rscale>
<asrwt>0</asrwt>
<pdfrwt beam="1">0</pdfrwt>
<pdfrwt beam="2">0</pdfrwt>
<totfact> 0.29532645E+12</totfact>
</mgrwt>
</event>
<event>
 4    1  0.1735226E+006  0.2809038E+01  0.7546771E-02  0.2586202E+00
         22   -1    0    0    0    0  0.00000000000E+00  0.00000000000E+00  0.23673071623E+02  0.23673071623E+02  0.00000000000E+00 0.  1.
         22   -1    0    0    0    0 -0.00000000000E+00 -0.00000000000E+00 -0.34109405031E+00  0.34109405031E+00  0.00000000000E+00 0. -1.
          4    1    1    2  501    0 -0.16967084033E+01 -0.18436313592E+01  0.98532361361E+01  0.10245826387E+02  0.12700000000E+01 0.  1.
         -4    1    1    2    0  501  0.16967084033E+01  0.18436313592E+01  0.13478741437E+02  0.13768339287E+02  0.12700000000E+01 0.  1.
<mgrwt>
<rscale>  0 0.28090383E+01</rscale>
<asrwt>0</asrwt>
<pdfrwt beam="1">0</pdfrwt>
<pdfrwt beam="2">0</pdfrwt>
<totfact> 0.18535584E+12</totfact>
</mgrwt>
</event>
<event>
 4    1  0.1735226E+006  0.2178236E+01  0.7546771E-02  0.2869984E+00
         22   -1    0    0    0    0  0.00000000000E+00  0.00000000000E+00  0.12677699816E+01  0.12677699816E+01  0.00000000000E+00 0.  1.
         22   -1    0    0    0    0 -0.00000000000E+00 -0.00000000000E+00 -0.38281193767E+01  0.38281193767E+01  0.00000000000E+00 0. -1.
          4    1    1    2  501    0  0.12865542335E+01 -0.12151510900E+01 -0.16610769639E+01  0.27393230272E+01  0.12700000000E+01 0. -1.
         -4    1    1    2    0  501 -0.12865542335E+01  0.12151510900E+01 -0.89927243127E+00  0.23565663311E+01  0.12700000000E+01 0.  1.
<mgrwt>
<rscale>  0 0.21782364E+01</rscale>
<asrwt>0</asrwt>
<pdfrwt beam="1">0</pdfrwt>
<pdfrwt beam="2">0</pdfrwt>
<totfact> 0.37991274E+12</totfact>
</mgrwt>
</event>
<event>
 4    1  0.1735226E+006  0.2595643E+01  0.7546771E-02  0.2667809E+00
         22   -1    0    0    0    0  0.00000000000E+00  0.00000000000E+00  0.42896569903E+01  0.42896569903E+01  0.00000000000E+00 0.  1.
         22   -1    0    0    0    0 -0.00000000000E+00 -0.00000000000E+00 -0.24819733358E+01  0.24819733358E+01  0.00000000000E+00 0. -1.
          4    1    1    2  501    0 -0.22583928313E+01 -0.15531755928E+00  0.29555301162E+01  0.39335124243E+01  0.12700000000E+01 0. -1.
         -4    1    1    2    0  501  0.22583928313E+01  0.15531755928E+00 -0.11478464617E+01  0.28381179017E+01  0.12700000000E+01 0. -1.
<mgrwt>
<rscale>  0 0.25956428E+01</rscale>
<asrwt>0</asrwt>
<pdfrwt beam="1">0</pdfrwt>
<pdfrwt beam="2">0</pdfrwt>
<totfact> 0.15297713E+12</totfact>
</mgrwt>
</event>
<event>
 4    1  0.1735226E+006  0.3004545E+01  0.7546771E-02  0.2520746E+00
         22   -1    0    0    0    0  0.00000000000E+00  0.00000000000E+00  0.41708160586E+00  0.41708160586E+00  0.00000000000E+00 0. -1.
         22   -1    0    0    0    0 -0.00000000000E+00 -0.00000000000E+00 -0.24890798236E+02  0.24890798236E+02  0.00000000000E+00 0.  1.
          4    1    1    2  501    0  0.15354441352E+01 -0.22487327950E+01 -0.16807090245E+02  0.17073534209E+02  0.12700000000E+01 0. -1.
         -4    1    1    2    0  501 -0.15354441352E+01  0.22487327950E+01 -0.76666263856E+01  0.82343456335E+01  0.12700000000E+01 0. -1.
<mgrwt>
<rscale>  0 0.30045445E+01</rscale>
<asrwt>0</asrwt>
<pdfrwt beam="1">0</pdfrwt>
<pdfrwt beam="2">0</pdfrwt>
<totfact> 0.13878253E+12</totfact>
</mgrwt>
</event>
<event>
 4    1  0.1735226E+006  0.2283667E+01  0.7546771E-02  0.2812338E+00
         22   -1    0    0    0    0  0.00000000000E+00  0.00000000000E+00  0.57420392991E+01  0.57420392991E+01  0.00000000000E+00 0.  1.
         22   -1    0    0    0    0 -0.00000000000E+00 -0.00000000000E+00 -0.90826278215E+00  0.90826278215E+00  0.00000000000E+00 0. -1.
          4    1    1    2  501    0 -0.11463333393E+01 -0.15126649197E+01  0.23993368284E+01  0.33123937720E+01  0.12700000000E+01 0.  1.
         -4    1    1    2    0  501  0.11463333393E+01  0.15126649197E+01  0.24344396885E+01  0.33379083093E+01  0.12700000000E+01 0.  1.
<mgrwt>
<rscale>  0 0.22836671E+01</rscale>
<asrwt>0</asrwt>
<pdfrwt beam="1">0</pdfrwt>
<pdfrwt beam="2">0</pdfrwt>
<totfact> 0.34449042E+12</totfact>
</mgrwt>
</event>
<event>
 4    1  0.1735226E+006  0.2988847E+01  0.7546771E-02  0.2525716E+00
         22   -1    0    0    0    0  0.00000000000E+00  0.00000000000E+00  0.18414785431E+01  0.18414785431E+01  0.00000000000E+00 0. -1.
         22   -1    0    0    0    0 -0.00000000000E+00 -0.00000000000E+00 -0.86572476187E+01  0.86572476187E+01  0.00000000000E+00 0. -1.
          4    1    1    2  501    0  0.25575267935E+00  0.26934914266E+01  0.72756447936E-01  0.29897322621E+01  0.12700000000E+01 0. -1.
         -4    1    1    2    0  501 -0.25575267935E+00 -0.26934914266E+01 -0.68885255236E+01  0.75089938998E+01  0.12700000000E+01 0. -1.
<mgrwt>
<rscale>  0 0.29888469E+01</rscale>
<asrwt>0</asrwt>
<pdfrwt beam="1">0</pdfrwt>
<pdfrwt beam="2">0</pdfrwt>
<totfact> 0.93673608E+11</totfact>
</mgrwt>
</event>
<event>
 4    1  0.1735226E+006  0.3013995E+01  0.7546771E-02  0.2517776E+00
         22   -1    0    0    0    0  0.00000000000E+00  0.00000000000E+00  0.70808456871E+02  0.70808456871E+02  0.00000000000E+00 0. -1.
         22   -1    0    0    0    0 -0.00000000000E+00 -0.00000000000E+00 -0.28231801517E+00  0.28231801517E+00  0.00000000000E+00 0.  1.
          4    1    1    2  501    0  0.23112379409E+01  0.14592625573E+01  0.61517995969E+02  0.61591785134E+02  0.12700000000E+01 0. -1.
         -4    1    1    2    0  501 -0.23112379409E+01 -0.14592625573E+01  0.90081428873E+01  0.94989897520E+01  0.12700000000E+01 0.  1.
<mgrwt>
<rscale>  0 0.30139954E+01</rscale>
<asrwt>0</asrwt>
<pdfrwt beam="1">0</pdfrwt>
<pdfrwt beam="2">0</pdfrwt>
<totfact> 0.54997659E+11</totfact>
</mgrwt>
</event>
<event>
 4    1  0.1735226E+006  0.2943616E+01  0.7546771E-02  0.2540304E+00
         22   -1    0    0    0    0  0.00000000000E+00  0.00000000000E+00  0.14877745859E+01  0.14877745859E+01  0.00000000000E+00 0.  1.
         22   -1    0    0    0    0 -0.00000000000E+00 -0.00000000000E+00 -0.66808192017E+01  0.66808192017E+01  0.00000000000E+00 0. -1.
          4    1    1    2  501    0  0.22140882316E+01  0.14662150082E+01 -0.11338924289E+01  0.31544548163E+01  0.12700000000E+01 0.  1.
         -4    1    1    2    0  501 -0.22140882316E+01 -0.14662150082E+01 -0.40591521869E+01  0.50141389714E+01  0.12700000000E+01 0. -1.
<mgrwt>
<rscale>  0 0.29436157E+01</rscale>
<asrwt>0</asrwt>
<pdfrwt beam="1">0</pdfrwt>
<pdfrwt beam="2">0</pdfrwt>
<totfact> 0.16345801E+12</totfact>
</mgrwt>
</event>
<event>
 4    1  0.1735226E+006  0.2742192E+01  0.7546771E-02  0.2610515E+00
         22   -1    0    0    0    0  0.00000000000E+00  0.00000000000E+00  0.12700491178E+02  0.12700491178E+02  0.00000000000E+00 0.  1.
         22   -1    0    0    0    0 -0.00000000000E+00 -0.00000000000E+00 -0.78399357915E+00  0.78399357915E+00  0.00000000000E+00 0. -1.
          4    1    1    2  501    0 -0.17970206025E+01 -0.16362872003E+01  0.92941163403E+01  0.96902124536E+01  0.12700000000E+01 0.  1.
         -4    1    1    2    0  501  0.17970206025E+01  0.16362872003E+01  0.26223812580E+01  0.37942723031E+01  0.12700000000E+01 0. -1.
<mgrwt>
<rscale>  0 0.27421923E+01</rscale>
<asrwt>0</asrwt>
<pdfrwt beam="1">0</pdfrwt>
<pdfrwt beam="2">0</pdfrwt>
<totfact> 0.15655830E+12</totfact>
</mgrwt>
</event>
<event>
 4    1  0.1735226E+006  0.2001544E+01  0.7546771E-02  0.2979687E+00
         22   -1    0    0    0    0  0.00000000000E+00  0.00000000000E+00  0.41595389187E+01  0.41595389187E+01  0.00000000000E+00 0.  1.
         22   -1    0    0    0    0 -0.00000000000E+00 -0.00000000000E+00 -0.34787737122E+01  0.34787737122E+01  0.00000000000E+00 0.  1.
          4    1    1    2  501    0 -0.10599925864E+01  0.11268068741E+01  0.35881048757E+01  0.41086098152E+01  0.12700000000E+01 0.  1.
         -4    1    1    2    0  501  0.10599925864E+01 -0.11268068741E+01 -0.29073396692E+01  0.35297028156E+01  0.12700000000E+01 0.  1.
<mgrwt>
<rscale>  0 0.20015439E+01</rscale>
<asrwt>0</asrwt>
<pdfrwt beam="1">0</pdfrwt>
<pdfrwt beam="2">0</pdfrwt>
<totfact> 0.10693819E+12</totfact>
</mgrwt>
</event>
<event>
 4    1  0.1735226E+006  0.4702306E+01  0.7546771E-02  0.2160309E+00
         22   -1    0    0    0    0  0.00000000000E+00  0.00000000000E+00  0.37623026607E+02  0.37623026607E+02  0.00000000000E+00 0. -1.
         22   -1    0    0    0    0 -0.00000000000E+00 -0.00000000000E+00 -0.73860787665E+00  0.73860787665E+00  0.00000000000E+00 0.  1.
          4    1    1    2  501    0 -0.44336435191E+01  0.91737805473E+00  0.27111672491E+02  0.27516439861E+02  0.12700000000E+01 0. -1.
         -4    1    1    2    0  501  0.44336435191E+01 -0.91737805473E+00  0.97727462388E+01  0.10845194622E+02  0.12700000000E+01 0.  1.
<mgrwt>
<rscale>  0 0.47023055E+01</rscale>
<asrwt>0</asrwt>
<pdfrwt beam="1">0</pdfrwt>
<pdfrwt beam="2">0</pdfrwt>
<totfact> 0.42918723E+11</totfact>
</mgrwt>
</event>
<event>
 4    1  0.1735226E+006  0.3165662E+01  0.7546771E-02  0.2472287E+00
         22   -1    0    0    0    0  0.00000000000E+00  0.00000000000E+00  0.25437064159E+02  0.25437064159E+02  0.00000000000E+00 0. -1.
         22   -1    0    0    0    0 -0.00000000000E+00 -0.00000000000E+00 -0.63913516209E+00  0.63913516209E+00  0.00000000000E+00 0.  1.
          4    1    1    2  501    0  0.22224615566E+01 -0.18625743026E+01  0.20474067623E+02  0.20717356574E+02  0.12700000000E+01 0. -1.
         -4    1    1    2    0  501 -0.22224615566E+01  0.18625743026E+01  0.43238613746E+01  0.53588427473E+01  0.12700000000E+01 0.  1.
<mgrwt>
<rscale>  0 0.31656624E+01</rscale>
<asrwt>0</asrwt>
<pdfrwt beam="1">0</pdfrwt>
<pdfrwt beam="2">0</pdfrwt>
<totfact> 0.83369006E+11</totfact>
</mgrwt>
</event>
<event>
 4    1  0.1735226E+006  0.2523433E+01  0.7546771E-02  0.2698289E+00
         22   -1    0    0    0    0  0.00000000000E+00  0.00000000000E+00  0.23174243493E+01  0.23174243493E+01  0.00000000000E+00 0. -1.
         22   -1    0    0    0    0 -0.00000000000E+00 -0.00000000000E+00 -0.30715935890E+01  0.30715935890E+01  0.00000000000E+00 0.  1.
          4    1    1    2  501    0 -0.20829311912E+01 -0.64514479188E+00 -0.12519920653E+01  0.28169483988E+01  0.12700000000E+01 0.  1.
         -4    1    1    2    0  501  0.20829311912E+01  0.64514479188E+00  0.49782282559E+00  0.25720695394E+01  0.12700000000E+01 0. -1.
<mgrwt>
<rscale>  0 0.25234330E+01</rscale>
<asrwt>0</asrwt>
<pdfrwt beam="1">0</pdfrwt>
<pdfrwt beam="2">0</pdfrwt>
<totfact> 0.24519771E+12</totfact>
</mgrwt>
</event>
<event>
 4    1  0.1735226E+006  0.2128108E+01  0.7546771E-02  0.2899312E+00
         22   -1    0    0    0    0  0.00000000000E+00  0.00000000000E+00  0.99561504587E+01  0.99561504587E+01  0.00000000000E+00 0. -1.
         22   -1    0    0    0    0 -0.00000000000E+00 -0.00000000000E+00 -0.68502698000E+00  0.68502698000E+00  0.00000000000E+00 0. -1.
          4    1    1    2  501    0  0.16303338852E+01 -0.50789088643E+00  0.77195280671E+01  0.80074936971E+01  0.12700000000E+01 0. -1.
         -4    1    1    2    0  501 -0.16303338852E+01  0.50789088643E+00  0.15515954116E+01  0.26336837416E+01  0.12700000000E+01 0. -1.
<mgrwt>
<rscale>  0 0.21281075E+01</rscale>
<asrwt>0</asrwt>
<pdfrwt beam="1">0</pdfrwt>
<pdfrwt beam="2">0</pdfrwt>
<totfact> 0.24536684E+12</totfact>
</mgrwt>
</event>
<event>
 4    1  0.1735226E+006  0.2596648E+01  0.7546771E-02  0.2667396E+00
         22   -1    0    0    0    0  0.00000000000E+00  0.00000000000E+00  0.10346131853E+01  0.10346131853E+01  0.00000000000E+00 0.  1.
         22   -1    0    0    0    0 -0.00000000000E+00 -0.00000000000E+00 -0.91588722214E+01  0.91588722214E+01  0.00000000000E+00 0. -1.
          4    1    1    2  501    0  0.81637191066E+00  0.21126324308E+01 -0.13247990197E+01  0.29150765559E+01  0.12700000000E+01 0.  1.
         -4    1    1    2    0  501 -0.81637191066E+00 -0.21126324308E+01 -0.67994600164E+01  0.72784088507E+01  0.12700000000E+01 0. -1.
<mgrwt>
<rscale>  0 0.25966476E+01</rscale>
<asrwt>0</asrwt>
<pdfrwt beam="1">0</pdfrwt>
<pdfrwt beam="2">0</pdfrwt>
<totfact> 0.16973578E+12</totfact>
</mgrwt>
</event>
<event>
 4    1  0.1735226E+006  0.2095080E+01  0.7546771E-02  0.2919376E+00
         22   -1    0    0    0    0  0.00000000000E+00  0.00000000000E+00  0.30665387272E+01  0.30665387272E+01  0.00000000000E+00 0.  1.
         22   -1    0    0    0    0 -0.00000000000E+00 -0.00000000000E+00 -0.15254363000E+01  0.15254363000E+01  0.00000000000E+00 0.  1.
          4    1    1    2  501    0  0.98891644115E+00 -0.13410829926E+01  0.13406940285E+01  0.24873318634E+01  0.12700000000E+01 0.  1.
         -4    1    1    2    0  501 -0.98891644115E+00  0.13410829926E+01  0.20040839875E+00  0.21046431638E+01  0.12700000000E+01 0.  1.
<mgrwt>
<rscale>  0 0.20950798E+01</rscale>
<asrwt>0</asrwt>
<pdfrwt beam="1">0</pdfrwt>
<pdfrwt beam="2">0</pdfrwt>
<totfact> 0.39835127E+12</totfact>
</mgrwt>
</event>
<event>
 4    1  0.1735226E+006  0.2549707E+01  0.7546771E-02  0.2687013E+00
         22   -1    0    0    0    0  0.00000000000E+00  0.00000000000E+00  0.31753761549E+01  0.31753761549E+01  0.00000000000E+00 0. -1.
         22   -1    0    0    0    0 -0.00000000000E+00 -0.00000000000E+00 -0.20547185777E+01  0.20547185777E+01  0.00000000000E+00 0.  1.
          4    1    1    2  501    0  0.19954718032E+01  0.95194425786E+00  0.40339063506E+00  0.25814200727E+01  0.12700000000E+01 0. -1.
         -4    1    1    2    0  501 -0.19954718032E+01 -0.95194425786E+00  0.71726694220E+00  0.26486746598E+01  0.12700000000E+01 0.  1.
<mgrwt>
<rscale>  0 0.25497070E+01</rscale>
<asrwt>0</asrwt>
<pdfrwt beam="1">0</pdfrwt>
<pdfrwt beam="2">0</pdfrwt>
<totfact> 0.27116733E+12</totfact>
</mgrwt>
</event>
<event>
 4    1  0.1735226E+006  0.2290326E+01  0.7546771E-02  0.2808867E+00
         22   -1    0    0    0    0  0.00000000000E+00  0.00000000000E+00  0.47813624528E-01  0.47813624528E-01  0.00000000000E+00 0.  1.
         22   -1    0    0    0    0 -0.00000000000E+00 -0.00000000000E+00 -0.12142710997E+03  0.12142710997E+03  0.00000000000E+00 0.  1.
          4    1    1    2  501    0  0.98581215421E+00 -0.16312160807E+01 -0.41821683815E+02  0.41884350641E+02  0.12700000000E+01 0.  1.
         -4    1    1    2    0  501 -0.98581215421E+00  0.16312160807E+01 -0.79557612526E+02  0.79590572949E+02  0.12700000000E+01 0.  1.
<mgrwt>
<rscale>  0 0.22903256E+01</rscale>
<asrwt>0</asrwt>
<pdfrwt beam="1">0</pdfrwt>
<pdfrwt beam="2">0</pdfrwt>
<totfact> 0.18549629E+12</totfact>
</mgrwt>
</event>
<event>
 4    1  0.1735226E+006  0.3137278E+01  0.7546771E-02  0.2480502E+00
         22   -1    0    0    0    0  0.00000000000E+00  0.00000000000E+00  0.23002355359E+01  0.23002355359E+01  0.00000000000E+00 0.  1.
         22   -1    0    0    0    0 -0.00000000000E+00 -0.00000000000E+00 -0.58672202895E+01  0.58672202895E+01  0.00000000000E+00 0. -1.
          4    1    1    2  501    0 -0.16755102069E+01  0.23285784654E+01  0.34125648486E+00  0.31557832802E+01  0.12700000000E+01 0.  1.
         -4    1    1    2    0  501  0.16755102069E+01 -0.23285784654E+01 -0.39082412384E+01  0.50116725453E+01  0.12700000000E+01 0. -1.
<mgrwt>
<rscale>  0 0.31372778E+01</rscale>
<asrwt>0</asrwt>
<pdfrwt beam="1">0</pdfrwt>
<pdfrwt beam="2">0</pdfrwt>
<totfact> 0.11533213E+12</totfact>
</mgrwt>
</event>
<event>
 4    1  0.1735226E+006  0.3330510E+01  0.7546771E-02  0.2427038E+00
         22   -1    0    0    0    0  0.00000000000E+00  0.00000000000E+00  0.18390552210E+02  0.18390552210E+02  0.00000000000E+00 0.  1.
         22   -1    0    0    0    0 -0.00000000000E+00 -0.00000000000E+00 -0.60812509825E+00  0.60812509825E+00  0.00000000000E+00 0. -1.
          4    1    1    2  501    0  0.27072381618E+01 -0.14663754154E+01  0.97502618984E+01  0.10303392762E+02  0.12700000000E+01 0.  1.
         -4    1    1    2    0  501 -0.27072381618E+01  0.14663754154E+01  0.80321652139E+01  0.86952845466E+01  0.12700000000E+01 0. -1.
<mgrwt>
<rscale>  0 0.33305098E+01</rscale>
<asrwt>0</asrwt>
<pdfrwt beam="1">0</pdfrwt>
<pdfrwt beam="2">0</pdfrwt>
<totfact> 0.13238775E+12</totfact>
</mgrwt>
</event>
<event>
 4    1  0.1735226E+006  0.2497642E+01  0.7546771E-02  0.2709571E+00
         22   -1    0    0    0    0  0.00000000000E+00  0.00000000000E+00  0.23559364424E+01  0.23559364424E+01  0.00000000000E+00 0.  1.
         22   -1    0    0    0    0 -0.00000000000E+00 -0.00000000000E+00 -0.45502057459E+01  0.45502057459E+01  0.00000000000E+00 0. -1.
          4    1    1    2  501    0 -0.21399695737E+00  0.21399813835E+01  0.11355814783E+01  0.27436764229E+01  0.12700000000E+01 0.  1.
         -4    1    1    2    0  501  0.21399695737E+00 -0.21399813835E+01 -0.33298507818E+01  0.41624657655E+01  0.12700000000E+01 0. -1.
<mgrwt>
<rscale>  0 0.24976419E+01</rscale>
<asrwt>0</asrwt>
<pdfrwt beam="1">0</pdfrwt>
<pdfrwt beam="2">0</pdfrwt>
<totfact> 0.15160552E+12</totfact>
</mgrwt>
</event>
<event>
 4    1  0.1735226E+006  0.2090631E+01  0.7546771E-02  0.2922125E+00
         22   -1    0    0    0    0  0.00000000000E+00  0.00000000000E+00  0.73728795718E+00  0.73728795718E+00  0.00000000000E+00 0.  1.
         22   -1    0    0    0    0 -0.00000000000E+00 -0.00000000000E+00 -0.12016850736E+02  0.12016850736E+02  0.00000000000E+00 0.  1.
          4    1    1    2  501    0  0.43615057748E+00 -0.16023770559E+01 -0.11004822862E+01  0.23625835049E+01  0.12700000000E+01 0.  1.
         -4    1    1    2    0  501 -0.43615057748E+00  0.16023770559E+01 -0.10179080493E+02  0.10391555189E+02  0.12700000000E+01 0.  1.
<mgrwt>
<rscale>  0 0.20906314E+01</rscale>
<asrwt>0</asrwt>
<pdfrwt beam="1">0</pdfrwt>
<pdfrwt beam="2">0</pdfrwt>
<totfact> 0.17959488E+12</totfact>
</mgrwt>
</event>
<event>
 4    1  0.1735226E+006  0.2008756E+01  0.7546771E-02  0.2974841E+00
         22   -1    0    0    0    0  0.00000000000E+00  0.00000000000E+00  0.25884351828E+02  0.25884351828E+02  0.00000000000E+00 0.  1.
         22   -1    0    0    0    0 -0.00000000000E+00 -0.00000000000E+00 -0.17252945358E+00  0.17252945358E+00  0.00000000000E+00 0.  1.
          4    1    1    2  501    0  0.15190076064E+01  0.33884785593E+00  0.16901998030E+02  0.17020947076E+02  0.12700000000E+01 0.  1.
         -4    1    1    2    0  501 -0.15190076064E+01 -0.33884785593E+00  0.88098243450E+01  0.90359342056E+01  0.12700000000E+01 0.  1.
<mgrwt>
<rscale>  0 0.20087563E+01</rscale>
<asrwt>0</asrwt>
<pdfrwt beam="1">0</pdfrwt>
<pdfrwt beam="2">0</pdfrwt>
<totfact> 0.35487506E+12</totfact>
</mgrwt>
</event>
<event>
 4    1  0.1735226E+006  0.2751334E+01  0.7546771E-02  0.2607126E+00
         22   -1    0    0    0    0  0.00000000000E+00  0.00000000000E+00  0.93206431554E+00  0.93206431554E+00  0.00000000000E+00 0.  1.
         22   -1    0    0    0    0 -0.00000000000E+00 -0.00000000000E+00 -0.92944375093E+01  0.92944375093E+01  0.00000000000E+00 0. -1.
          4    1    1    2  501    0  0.91772494854E+00 -0.22615750190E+01 -0.23648052468E+01  0.36279669931E+01  0.12700000000E+01 0.  1.
         -4    1    1    2    0  501 -0.91772494854E+00  0.22615750190E+01 -0.59975679470E+01  0.65985348318E+01  0.12700000000E+01 0. -1.
<mgrwt>
<rscale>  0 0.27513343E+01</rscale>
<asrwt>0</asrwt>
<pdfrwt beam="1">0</pdfrwt>
<pdfrwt beam="2">0</pdfrwt>
<totfact> 0.18785521E+12</totfact>
</mgrwt>
</event>
<event>
 4    1  0.1735226E+006  0.2032200E+01  0.7546771E-02  0.2959323E+00
         22   -1    0    0    0    0  0.00000000000E+00  0.00000000000E+00  0.14157581306E+02  0.14157581306E+02  0.00000000000E+00 0.  1.
         22   -1    0    0    0    0 -0.00000000000E+00 -0.00000000000E+00 -0.29529836161E+00  0.29529836161E+00  0.00000000000E+00 0. -1.
          4    1    1    2  501    0 -0.14786997042E+01 -0.57479018843E+00  0.77283046558E+01  0.79910280584E+01  0.12700000000E+01 0. -1.
         -4    1    1    2    0  501  0.14786997042E+01  0.57479018843E+00  0.61339782888E+01  0.64618516095E+01  0.12700000000E+01 0.  1.
<mgrwt>
<rscale>  0 0.20321999E+01</rscale>
<asrwt>0</asrwt>
<pdfrwt beam="1">0</pdfrwt>
<pdfrwt beam="2">0</pdfrwt>
<totfact> 0.41258758E+12</totfact>
</mgrwt>
</event>
<event>
 4    1  0.1735226E+006  0.2301765E+01  0.7546771E-02  0.2802949E+00
         22   -1    0    0    0    0  0.00000000000E+00  0.00000000000E+00  0.15337330808E+02  0.15337330808E+02  0.00000000000E+00 0. -1.
         22   -1    0    0    0    0 -0.00000000000E+00 -0.00000000000E+00 -0.35469329954E+00  0.35469329954E+00  0.00000000000E+00 0.  1.
          4    1    1    2  501    0  0.93632724045E+00 -0.16758626009E+01  0.87586086884E+01  0.90560118328E+01  0.12700000000E+01 0. -1.
         -4    1    1    2    0  501 -0.93632724045E+00  0.16758626009E+01  0.62240288199E+01  0.66360122746E+01  0.12700000000E+01 0.  1.
<mgrwt>
<rscale>  0 0.23017654E+01</rscale>
<asrwt>0</asrwt>
<pdfrwt beam="1">0</pdfrwt>
<pdfrwt beam="2">0</pdfrwt>
<totfact> 0.30441696E+12</totfact>
</mgrwt>
</event>
<event>
 4    1  0.1735226E+006  0.2199035E+01  0.7546771E-02  0.2858194E+00
         22   -1    0    0    0    0  0.00000000000E+00  0.00000000000E+00  0.32024530695E+01  0.32024530695E+01  0.00000000000E+00 0. -1.
         22   -1    0    0    0    0 -0.00000000000E+00 -0.00000000000E+00 -0.15662021868E+01  0.15662021868E+01  0.00000000000E+00 0.  1.
          4    1    1    2  501    0  0.17476260064E+01  0.41068110591E+00  0.12697281000E+01  0.25392843631E+01  0.12700000000E+01 0. -1.
         -4    1    1    2    0  501 -0.17476260064E+01 -0.41068110591E+00  0.36652278274E+00  0.22293708931E+01  0.12700000000E+01 0.  1.
<mgrwt>
<rscale>  0 0.21990352E+01</rscale>
<asrwt>0</asrwt>
<pdfrwt beam="1">0</pdfrwt>
<pdfrwt beam="2">0</pdfrwt>
<totfact> 0.36733665E+12</totfact>
</mgrwt>
</event>
<event>
 4    1  0.1735226E+006  0.2111372E+01  0.7546771E-02  0.2909403E+00
         22   -1    0    0    0    0  0.00000000000E+00  0.00000000000E+00  0.52857237489E+01  0.52857237489E+01  0.00000000000E+00 0. -1.
         22   -1    0    0    0    0 -0.00000000000E+00 -0.00000000000E+00 -0.15082640428E+01  0.15082640428E+01  0.00000000000E+00 0. -1.
          4    1    1    2  501    0 -0.26484204264E+00  0.16657879909E+01  0.41441526578E+01  0.46510098032E+01  0.12700000000E+01 0. -1.
         -4    1    1    2    0  501  0.26484204264E+00 -0.16657879909E+01 -0.36669295173E+00  0.21429779885E+01  0.12700000000E+01 0. -1.
<mgrwt>
<rscale>  0 0.21113718E+01</rscale>
<asrwt>0</asrwt>
<pdfrwt beam="1">0</pdfrwt>
<pdfrwt beam="2">0</pdfrwt>
<totfact> 0.21261642E+12</totfact>
</mgrwt>
</event>
<event>
 4    1  0.1735226E+006  0.2000569E+01  0.7546771E-02  0.2980345E+00
         22   -1    0    0    0    0  0.00000000000E+00  0.00000000000E+00  0.43699255772E+01  0.43699255772E+01  0.00000000000E+00 0. -1.
         22   -1    0    0    0    0 -0.00000000000E+00 -0.00000000000E+00 -0.91618378893E+00  0.91618378893E+00  0.00000000000E+00 0.  1.
          4    1    1    2  501    0  0.11346058952E+01 -0.10497840970E+01  0.16778401431E+01  0.26110198646E+01  0.12700000000E+01 0. -1.
         -4    1    1    2    0  501 -0.11346058952E+01  0.10497840970E+01  0.17759016452E+01  0.26750895015E+01  0.12700000000E+01 0.  1.
<mgrwt>
<rscale>  0 0.20005692E+01</rscale>
<asrwt>0</asrwt>
<pdfrwt beam="1">0</pdfrwt>
<pdfrwt beam="2">0</pdfrwt>
<totfact> 0.47127342E+12</totfact>
</mgrwt>
</event>
<event>
 4    1  0.1735226E+006  0.2011509E+01  0.7546771E-02  0.2973001E+00
         22   -1    0    0    0    0  0.00000000000E+00  0.00000000000E+00  0.44660358518E+00  0.44660358518E+00  0.00000000000E+00 0.  1.
         22   -1    0    0    0    0 -0.00000000000E+00 -0.00000000000E+00 -0.93632074036E+01  0.93632074036E+01  0.00000000000E+00 0.  1.
          4    1    1    2  501    0 -0.14339530440E+01  0.61404222293E+00 -0.35754592888E+01  0.41024478436E+01  0.12700000000E+01 0.  1.
         -4    1    1    2    0  501  0.14339530440E+01 -0.61404222293E+00 -0.53411445297E+01  0.57073631452E+01  0.12700000000E+01 0.  1.
<mgrwt>
<rscale>  0 0.20115092E+01</rscale>
<asrwt>0</asrwt>
<pdfrwt beam="1">0</pdfrwt>
<pdfrwt beam="2">0</pdfrwt>
<totfact> 0.42871667E+12</totfact>
</mgrwt>
</event>
<event>
 4    1  0.1735226E+006  0.2294408E+01  0.7546771E-02  0.2806749E+00
         22   -1    0    0    0    0  0.00000000000E+00  0.00000000000E+00  0.30001977369E+00  0.30001977369E+00  0.00000000000E+00 0. -1.
         22   -1    0    0    0    0 -0.00000000000E+00 -0.00000000000E+00 -0.17836931369E+02  0.17836931369E+02  0.00000000000E+00 0. -1.
          4    1    1    2  501    0  0.53291730638E+00 -0.18350496622E+01 -0.76113630623E+01  0.79496638787E+01  0.12700000000E+01 0. -1.
         -4    1    1    2    0  501 -0.53291730638E+00  0.18350496622E+01 -0.99255485334E+01  0.10187287264E+02  0.12700000000E+01 0. -1.
<mgrwt>
<rscale>  0 0.22944080E+01</rscale>
<asrwt>0</asrwt>
<pdfrwt beam="1">0</pdfrwt>
<pdfrwt beam="2">0</pdfrwt>
<totfact> 0.30481381E+12</totfact>
</mgrwt>
</event>
<event>
 4    1  0.1735226E+006  0.3476848E+01  0.7546771E-02  0.2390049E+00
         22   -1    0    0    0    0  0.00000000000E+00  0.00000000000E+00  0.67647508180E+01  0.67647508180E+01  0.00000000000E+00 0.  1.
         22   -1    0    0    0    0 -0.00000000000E+00 -0.00000000000E+00 -0.18039033316E+01  0.18039033316E+01  0.00000000000E+00 0. -1.
          4    1    1    2  501    0  0.30358005749E+01 -0.11222690543E+01  0.20654489842E+01  0.40440762192E+01  0.12700000000E+01 0. -1.
         -4    1    1    2    0  501 -0.30358005749E+01  0.11222690543E+01  0.28953985022E+01  0.45245779303E+01  0.12700000000E+01 0.  1.
<mgrwt>
<rscale>  0 0.34768481E+01</rscale>
<asrwt>0</asrwt>
<pdfrwt beam="1">0</pdfrwt>
<pdfrwt beam="2">0</pdfrwt>
<totfact> 0.12896779E+12</totfact>
</mgrwt>
</event>
<event>
 4    1  0.1735226E+006  0.2635854E+01  0.7546771E-02  0.2651506E+00
         22   -1    0    0    0    0  0.00000000000E+00  0.00000000000E+00  0.47612750398E+02  0.47612750398E+02  0.00000000000E+00 0.  1.
         22   -1    0    0    0    0 -0.00000000000E+00 -0.00000000000E+00 -0.65154880392E+00  0.65154880392E+00  0.00000000000E+00 0. -1.
          4    1    1    2  501    0 -0.16216235629E+01 -0.16447375057E+01  0.44739353873E+02  0.44816933289E+02  0.12700000000E+01 0.  1.
         -4    1    1    2    0  501  0.16216235629E+01  0.16447375057E+01  0.22218477207E+01  0.34473659127E+01  0.12700000000E+01 0. -1.
<mgrwt>
<rscale>  0 0.26358536E+01</rscale>
<asrwt>0</asrwt>
<pdfrwt beam="1">0</pdfrwt>
<pdfrwt beam="2">0</pdfrwt>
<totfact> 0.36407738E+11</totfact>
</mgrwt>
</event>
<event>
 4    1  0.1735226E+006  0.2044162E+01  0.7546771E-02  0.2951539E+00
         22   -1    0    0    0    0  0.00000000000E+00  0.00000000000E+00  0.53048202853E+01  0.53048202853E+01  0.00000000000E+00 0.  1.
         22   -1    0    0    0    0 -0.00000000000E+00 -0.00000000000E+00 -0.79087859396E+00  0.79087859396E+00  0.00000000000E+00 0.  1.
          4    1    1    2  501    0 -0.38610857842E+00  0.15545479233E+01  0.24502376677E+01  0.31909659523E+01  0.12700000000E+01 0.  1.
         -4    1    1    2    0  501  0.38610857842E+00 -0.15545479233E+01  0.20637040236E+01  0.29047329270E+01  0.12700000000E+01 0.  1.
<mgrwt>
<rscale>  0 0.20441622E+01</rscale>
<asrwt>0</asrwt>
<pdfrwt beam="1">0</pdfrwt>
<pdfrwt beam="2">0</pdfrwt>
<totfact> 0.44303021E+12</totfact>
</mgrwt>
</event>
<event>
 4    1  0.1735226E+006  0.2173357E+01  0.7546771E-02  0.2872782E+00
         22   -1    0    0    0    0  0.00000000000E+00  0.00000000000E+00  0.30378313799E+01  0.30378313799E+01  0.00000000000E+00 0.  1.
         22   -1    0    0    0    0 -0.00000000000E+00 -0.00000000000E+00 -0.47142127020E+01  0.47142127020E+01  0.00000000000E+00 0.  1.
          4    1    1    2  501    0 -0.74825879971E+00  0.15970875510E+01  0.23348742502E+01  0.31898460215E+01  0.12700000000E+01 0.  1.
         -4    1    1    2    0  501  0.74825879971E+00 -0.15970875510E+01 -0.40112555722E+01  0.45621980604E+01  0.12700000000E+01 0.  1.
<mgrwt>
<rscale>  0 0.21733568E+01</rscale>
<asrwt>0</asrwt>
<pdfrwt beam="1">0</pdfrwt>
<pdfrwt beam="2">0</pdfrwt>
<totfact> 0.10812007E+12</totfact>
</mgrwt>
</event>
<event>
 4    1  0.1735226E+006  0.2648043E+01  0.7546771E-02  0.2646654E+00
         22   -1    0    0    0    0  0.00000000000E+00  0.00000000000E+00  0.13501547980E+02  0.13501547980E+02  0.00000000000E+00 0.  1.
         22   -1    0    0    0    0 -0.00000000000E+00 -0.00000000000E+00 -0.10294812853E+01  0.10294812853E+01  0.00000000000E+00 0. -1.
          4    1    1    2  501    0 -0.22288222378E+01  0.65694944824E+00  0.11350435932E+02  0.11655236033E+02  0.12700000000E+01 0.  1.
         -4    1    1    2    0  501  0.22288222378E+01 -0.65694944824E+00  0.11216307627E+01  0.28757932319E+01  0.12700000000E+01 0. -1.
<mgrwt>
<rscale>  0 0.26480429E+01</rscale>
<asrwt>0</asrwt>
<pdfrwt beam="1">0</pdfrwt>
<pdfrwt beam="2">0</pdfrwt>
<totfact> 0.10649286E+12</totfact>
</mgrwt>
</event>
<event>
 4    1  0.1735226E+006  0.2351009E+01  0.7546771E-02  0.2778097E+00
         22   -1    0    0    0    0  0.00000000000E+00  0.00000000000E+00  0.16311322095E+00  0.16311322095E+00  0.00000000000E+00 0.  1.
         22   -1    0    0    0    0 -0.00000000000E+00 -0.00000000000E+00 -0.34031162798E+02  0.34031162798E+02  0.00000000000E+00 0. -1.
          4    1    1    2  501    0 -0.12171419635E+01 -0.15597780117E+01 -0.18050960588E+02  0.18203417815E+02  0.12700000000E+01 0. -1.
         -4    1    1    2    0  501  0.12171419635E+01  0.15597780117E+01 -0.15817088989E+02  0.15990858204E+02  0.12700000000E+01 0. -1.
<mgrwt>
<rscale>  0 0.23510087E+01</rscale>
<asrwt>0</asrwt>
<pdfrwt beam="1">0</pdfrwt>
<pdfrwt beam="2">0</pdfrwt>
<totfact> 0.26661124E+12</totfact>
</mgrwt>
</event>
<event>
 4    1  0.1735226E+006  0.4606676E+01  0.7546771E-02  0.2174437E+00
         22   -1    0    0    0    0  0.00000000000E+00  0.00000000000E+00  0.99002358197E+00  0.99002358197E+00  0.00000000000E+00 0.  1.
         22   -1    0    0    0    0 -0.00000000000E+00 -0.00000000000E+00 -0.29923744618E+02  0.29923744618E+02  0.00000000000E+00 0. -1.
          4    1    1    2  501    0 -0.27127399361E+00  0.44198388223E+01 -0.62344366645E+01  0.77517524031E+01  0.12700000000E+01 0. -1.
         -4    1    1    2    0  501  0.27127399361E+00 -0.44198388223E+01 -0.22699284371E+02  0.23162015797E+02  0.12700000000E+01 0.  1.
<mgrwt>
<rscale>  0 0.46066761E+01</rscale>
<asrwt>0</asrwt>
<pdfrwt beam="1">0</pdfrwt>
<pdfrwt beam="2">0</pdfrwt>
<totfact> 0.41241947E+11</totfact>
</mgrwt>
</event>
<event>
 4    1  0.1735226E+006  0.2290360E+01  0.7546771E-02  0.2808850E+00
         22   -1    0    0    0    0  0.00000000000E+00  0.00000000000E+00  0.21142564321E+00  0.21142564321E+00  0.00000000000E+00 0. -1.
         22   -1    0    0    0    0 -0.00000000000E+00 -0.00000000000E+00 -0.53847347548E+02  0.53847347548E+02  0.00000000000E+00 0.  1.
          4    1    1    2  501    0 -0.82104735033E+00 -0.17200959265E+01 -0.69696913082E+01  0.73363714246E+01  0.12700000000E+01 0. -1.
         -4    1    1    2    0  501  0.82104735033E+00  0.17200959265E+01 -0.46666230596E+02  0.46722401766E+02  0.12700000000E+01 0.  1.
<mgrwt>
<rscale>  0 0.22903600E+01</rscale>
<asrwt>0</asrwt>
<pdfrwt beam="1">0</pdfrwt>
<pdfrwt beam="2">0</pdfrwt>
<totfact> 0.10973344E+12</totfact>
</mgrwt>
</event>
<event>
 4    1  0.1735226E+006  0.2069439E+01  0.7546771E-02  0.2935380E+00
         22   -1    0    0    0    0  0.00000000000E+00  0.00000000000E+00  0.35891402668E+01  0.35891402668E+01  0.00000000000E+00 0.  1.
         22   -1    0    0    0    0 -0.00000000000E+00 -0.00000000000E+00 -0.28952502777E+01  0.28952502777E+01  0.00000000000E+00 0. -1.
          4    1    1    2  501    0 -0.15358873973E+01  0.55743042020E+00  0.28328338901E+01  0.35082084630E+01  0.12700000000E+01 0.  1.
         -4    1    1    2    0  501  0.15358873973E+01 -0.55743042020E+00 -0.21389439011E+01  0.29761820815E+01  0.12700000000E+01 0. -1.
<mgrwt>
<rscale>  0 0.20694392E+01</rscale>
<asrwt>0</asrwt>
<pdfrwt beam="1">0</pdfrwt>
<pdfrwt beam="2">0</pdfrwt>
<totfact> 0.15766433E+12</totfact>
</mgrwt>
</event>
<event>
 4    1  0.1735226E+006  0.2036470E+01  0.7546771E-02  0.2956534E+00
         22   -1    0    0    0    0  0.00000000000E+00  0.00000000000E+00  0.25083598731E+01  0.25083598731E+01  0.00000000000E+00 0. -1.
         22   -1    0    0    0    0 -0.00000000000E+00 -0.00000000000E+00 -0.78408133691E+01  0.78408133691E+01  0.00000000000E+00 0.  1.
          4    1    1    2  501    0 -0.15468050133E+01 -0.37643459324E+00  0.19305271827E+01  0.28060905109E+01  0.12700000000E+01 0. -1.
         -4    1    1    2    0  501  0.15468050133E+01  0.37643459324E+00 -0.72629806787E+01  0.75430827313E+01  0.12700000000E+01 0.  1.
<mgrwt>
<rscale>  0 0.20364697E+01</rscale>
<asrwt>0</asrwt>
<pdfrwt beam="1">0</pdfrwt>
<pdfrwt beam="2">0</pdfrwt>
<totfact> 0.73739531E+11</totfact>
</mgrwt>
</event>
<event>
 4    1  0.1735226E+006  0.2976444E+01  0.7546771E-02  0.2529677E+00
         22   -1    0    0    0    0  0.00000000000E+00  0.00000000000E+00  0.78642348386E+02  0.78642348386E+02  0.00000000000E+00 0. -1.
         22   -1    0    0    0    0 -0.00000000000E+00 -0.00000000000E+00 -0.18278261842E+00  0.18278261842E+00  0.00000000000E+00 0.  1.
          4    1    1    2  501    0  0.13877480599E+01 -0.23066150773E+01  0.63642779678E+02  0.63712342783E+02  0.12700000000E+01 0. -1.
         -4    1    1    2    0  501 -0.13877480599E+01  0.23066150773E+01  0.14816786090E+02  0.15112788222E+02  0.12700000000E+01 0.  1.
<mgrwt>
<rscale>  0 0.29764438E+01</rscale>
<asrwt>0</asrwt>
<pdfrwt beam="1">0</pdfrwt>
<pdfrwt beam="2">0</pdfrwt>
<totfact> 0.77461925E+11</totfact>
</mgrwt>
</event>
<event>
 4    1  0.1735226E+006  0.2014645E+01  0.7546771E-02  0.2970910E+00
         22   -1    0    0    0    0  0.00000000000E+00  0.00000000000E+00  0.43707471855E+02  0.43707471855E+02  0.00000000000E+00 0. -1.
         22   -1    0    0    0    0 -0.00000000000E+00 -0.00000000000E+00 -0.93586985964E-01  0.93586985964E-01  0.00000000000E+00 0.  1.
          4    1    1    2  501    0  0.49276327051E+00  0.14842765649E+01  0.23733627496E+02  0.23818981226E+02  0.12700000000E+01 0. -1.
         -4    1    1    2    0  501 -0.49276327051E+00 -0.14842765649E+01  0.19880257374E+02  0.19982077615E+02  0.12700000000E+01 0.  1.
<mgrwt>
<rscale>  0 0.20146445E+01</rscale>
<asrwt>0</asrwt>
<pdfrwt beam="1">0</pdfrwt>
<pdfrwt beam="2">0</pdfrwt>
<totfact> 0.35712151E+12</totfact>
</mgrwt>
</event>
<event>
 4    1  0.1735226E+006  0.2450277E+01  0.7546771E-02  0.2730865E+00
         22   -1    0    0    0    0  0.00000000000E+00  0.00000000000E+00  0.14635706241E+01  0.14635706241E+01  0.00000000000E+00 0.  1.
         22   -1    0    0    0    0 -0.00000000000E+00 -0.00000000000E+00 -0.41047247123E+01  0.41047247123E+01  0.00000000000E+00 0.  1.
          4    1    1    2  501    0  0.20939349257E+01 -0.79970765714E-01 -0.13896316257E+01  0.28169016404E+01  0.12700000000E+01 0.  1.
         -4    1    1    2    0  501 -0.20939349257E+01  0.79970765714E-01 -0.12515224625E+01  0.27513936961E+01  0.12700000000E+01 0.  1.
<mgrwt>
<rscale>  0 0.24502773E+01</rscale>
<asrwt>0</asrwt>
<pdfrwt beam="1">0</pdfrwt>
<pdfrwt beam="2">0</pdfrwt>
<totfact> 0.29677054E+12</totfact>
</mgrwt>
</event>
<event>
 4    1  0.1735226E+006  0.2800620E+01  0.7546771E-02  0.2589206E+00
         22   -1    0    0    0    0  0.00000000000E+00  0.00000000000E+00  0.46274153861E+01  0.46274153861E+01  0.00000000000E+00 0.  1.
         22   -1    0    0    0    0 -0.00000000000E+00 -0.00000000000E+00 -0.17197570326E+01  0.17197570326E+01  0.00000000000E+00 0. -1.
          4    1    1    2  501    0 -0.14275742750E+01  0.20475853212E+01  0.18345939823E+01  0.33480156867E+01  0.12700000000E+01 0.  1.
         -4    1    1    2    0  501  0.14275742750E+01 -0.20475853212E+01  0.10730643712E+01  0.29991567320E+01  0.12700000000E+01 0. -1.
<mgrwt>
<rscale>  0 0.28006203E+01</rscale>
<asrwt>0</asrwt>
<pdfrwt beam="1">0</pdfrwt>
<pdfrwt beam="2">0</pdfrwt>
<totfact> 0.21396202E+12</totfact>
</mgrwt>
</event>
<event>
 4    1  0.1735226E+006  0.8029968E+01  0.7546771E-02  0.1874551E+00
         22   -1    0    0    0    0  0.00000000000E+00  0.00000000000E+00  0.30730611566E+01  0.30730611566E+01  0.00000000000E+00 0.  1.
         22   -1    0    0    0    0 -0.00000000000E+00 -0.00000000000E+00 -0.21584657405E+02  0.21584657405E+02  0.00000000000E+00 0. -1.
          4    1    1    2  501    0  0.74025903498E+01 -0.28406243980E+01 -0.71965019641E+01  0.10782858219E+02  0.12700000000E+01 0. -1.
         -4    1    1    2    0  501 -0.74025903498E+01  0.28406243980E+01 -0.11315094284E+02  0.13874860342E+02  0.12700000000E+01 0.  1.
<mgrwt>
<rscale>  0 0.80299683E+01</rscale>
<asrwt>0</asrwt>
<pdfrwt beam="1">0</pdfrwt>
<pdfrwt beam="2">0</pdfrwt>
<totfact> 0.16847354E+11</totfact>
</mgrwt>
</event>
<event>
 4    1  0.1735226E+006  0.2002970E+01  0.7546771E-02  0.2978727E+00
         22   -1    0    0    0    0  0.00000000000E+00  0.00000000000E+00  0.10655474001E+03  0.10655474001E+03  0.00000000000E+00 0.  1.
         22   -1    0    0    0    0 -0.00000000000E+00 -0.00000000000E+00 -0.10380487377E+00  0.10380487377E+00  0.00000000000E+00 0.  1.
          4    1    1    2  501    0  0.15477486780E+01  0.58835552643E-01  0.95798499276E+02  0.95819436187E+02  0.12700000000E+01 0.  1.
         -4    1    1    2    0  501 -0.15477486780E+01 -0.58835552643E-01  0.10652435861E+02  0.10839108698E+02  0.12700000000E+01 0.  1.
<mgrwt>
<rscale>  0 0.20029697E+01</rscale>
<asrwt>0</asrwt>
<pdfrwt beam="1">0</pdfrwt>
<pdfrwt beam="2">0</pdfrwt>
<totfact> 0.95065676E+11</totfact>
</mgrwt>
</event>
<event>
 4    1  0.1735226E+006  0.2095403E+01  0.7546771E-02  0.2919177E+00
         22   -1    0    0    0    0  0.00000000000E+00  0.00000000000E+00  0.90577734981E+00  0.90577734981E+00  0.00000000000E+00 0.  1.
         22   -1    0    0    0    0 -0.00000000000E+00 -0.00000000000E+00 -0.49024771887E+01  0.49024771887E+01  0.00000000000E+00 0.  1.
          4    1    1    2  501    0  0.15920219997E+01 -0.49323183701E+00 -0.16906758132E+01  0.26924146037E+01  0.12700000000E+01 0.  1.
         -4    1    1    2    0  501 -0.15920219997E+01  0.49323183701E+00 -0.23060240257E+01  0.31158399349E+01  0.12700000000E+01 0.  1.
<mgrwt>
<rscale>  0 0.20954025E+01</rscale>
<asrwt>0</asrwt>
<pdfrwt beam="1">0</pdfrwt>
<pdfrwt beam="2">0</pdfrwt>
<totfact> 0.41681166E+12</totfact>
</mgrwt>
</event>
<event>
 4    1  0.1735226E+006  0.2683666E+01  0.7546771E-02  0.2632707E+00
         22   -1    0    0    0    0  0.00000000000E+00  0.00000000000E+00  0.39028331247E+01  0.39028331247E+01  0.00000000000E+00 0.  1.
         22   -1    0    0    0    0 -0.00000000000E+00 -0.00000000000E+00 -0.19852986415E+01  0.19852986415E+01  0.00000000000E+00 0. -1.
          4    1    1    2  501    0  0.19053169524E+01  0.13996182882E+01  0.17404499412E+01  0.31986294002E+01  0.12700000000E+01 0. -1.
         -4    1    1    2    0  501 -0.19053169524E+01 -0.13996182882E+01  0.17708454199E+00  0.26895023660E+01  0.12700000000E+01 0.  1.
<mgrwt>
<rscale>  0 0.26836662E+01</rscale>
<asrwt>0</asrwt>
<pdfrwt beam="1">0</pdfrwt>
<pdfrwt beam="2">0</pdfrwt>
<totfact> 0.22153918E+12</totfact>
</mgrwt>
</event>
<event>
 4    1  0.1735226E+006  0.3551239E+01  0.7546771E-02  0.2372271E+00
         22   -1    0    0    0    0  0.00000000000E+00  0.00000000000E+00  0.78684270224E+00  0.78684270224E+00  0.00000000000E+00 0. -1.
         22   -1    0    0    0    0 -0.00000000000E+00 -0.00000000000E+00 -0.54859478473E+02  0.54859478473E+02  0.00000000000E+00 0.  1.
          4    1    1    2  501    0  0.19709367520E+01 -0.26671716782E+01 -0.36277879731E+01  0.50766270318E+01  0.12700000000E+01 0. -1.
         -4    1    1    2    0  501 -0.19709367520E+01  0.26671716782E+01 -0.50444847798E+02  0.50569694144E+02  0.12700000000E+01 0.  1.
<mgrwt>
<rscale>  0 0.35512387E+01</rscale>
<asrwt>0</asrwt>
<pdfrwt beam="1">0</pdfrwt>
<pdfrwt beam="2">0</pdfrwt>
<totfact> 0.24370634E+11</totfact>
</mgrwt>
</event>
<event>
 4    1  0.1735226E+006  0.4472415E+01  0.7546771E-02  0.2195167E+00
         22   -1    0    0    0    0  0.00000000000E+00  0.00000000000E+00  0.45669839623E+01  0.45669839623E+01  0.00000000000E+00 0.  1.
         22   -1    0    0    0    0 -0.00000000000E+00 -0.00000000000E+00 -0.43805261738E+01  0.43805261738E+01  0.00000000000E+00 0. -1.
          4    1    1    2  501    0  0.16259476658E+01  0.39681086723E+01  0.35766136337E-01  0.44725575976E+01  0.12700000000E+01 0. -1.
         -4    1    1    2    0  501 -0.16259476658E+01 -0.39681086723E+01  0.15069165217E+00  0.44749525384E+01  0.12700000000E+01 0.  1.
<mgrwt>
<rscale>  0 0.44724146E+01</rscale>
<asrwt>0</asrwt>
<pdfrwt beam="1">0</pdfrwt>
<pdfrwt beam="2">0</pdfrwt>
<totfact> 0.73047134E+11</totfact>
</mgrwt>
</event>
<event>
 4    1  0.1735226E+006  0.6819629E+01  0.7546771E-02  0.1953143E+00
         22   -1    0    0    0    0  0.00000000000E+00  0.00000000000E+00  0.20946608941E+01  0.20946608941E+01  0.00000000000E+00 0.  1.
         22   -1    0    0    0    0 -0.00000000000E+00 -0.00000000000E+00 -0.22627254706E+02  0.22627254706E+02  0.00000000000E+00 0. -1.
          4    1    1    2  501    0  0.18357526277E+01  0.64439466209E+01 -0.11959278146E+02  0.13767050139E+02  0.12700000000E+01 0. -1.
         -4    1    1    2    0  501 -0.18357526277E+01 -0.64439466209E+01 -0.85733156667E+01  0.10954865462E+02  0.12700000000E+01 0.  1.
<mgrwt>
<rscale>  0 0.68196287E+01</rscale>
<asrwt>0</asrwt>
<pdfrwt beam="1">0</pdfrwt>
<pdfrwt beam="2">0</pdfrwt>
<totfact> 0.24805767E+11</totfact>
</mgrwt>
</event>
<event>
 4    1  0.1735226E+006  0.2103595E+01  0.7546771E-02  0.2914145E+00
         22   -1    0    0    0    0  0.00000000000E+00  0.00000000000E+00  0.11852422769E+02  0.11852422769E+02  0.00000000000E+00 0. -1.
         22   -1    0    0    0    0 -0.00000000000E+00 -0.00000000000E+00 -0.55678862922E+00  0.55678862922E+00  0.00000000000E+00 0.  1.
          4    1    1    2  501    0  0.12221640184E+01  0.11482711048E+01  0.92091573379E+01  0.94463585732E+01  0.12700000000E+01 0. -1.
         -4    1    1    2    0  501 -0.12221640184E+01 -0.11482711048E+01  0.20864768016E+01  0.29628528248E+01  0.12700000000E+01 0.  1.
<mgrwt>
<rscale>  0 0.21035949E+01</rscale>
<asrwt>0</asrwt>
<pdfrwt beam="1">0</pdfrwt>
<pdfrwt beam="2">0</pdfrwt>
<totfact> 0.25108544E+12</totfact>
</mgrwt>
</event>
<event>
 4    1  0.1735226E+006  0.4879184E+01  0.7546771E-02  0.2137707E+00
         22   -1    0    0    0    0  0.00000000000E+00  0.00000000000E+00  0.14640025521E+01  0.14640025521E+01  0.00000000000E+00 0.  1.
         22   -1    0    0    0    0 -0.00000000000E+00 -0.00000000000E+00 -0.18262536651E+02  0.18262536651E+02  0.00000000000E+00 0. -1.
          4    1    1    2  501    0 -0.82421349948E-01  0.47102801957E+01 -0.51341343522E+01  0.70827797048E+01  0.12700000000E+01 0. -1.
         -4    1    1    2    0  501  0.82421349948E-01 -0.47102801957E+01 -0.11664399747E+02  0.12643759499E+02  0.12700000000E+01 0.  1.
<mgrwt>
<rscale>  0 0.48791836E+01</rscale>
<asrwt>0</asrwt>
<pdfrwt beam="1">0</pdfrwt>
<pdfrwt beam="2">0</pdfrwt>
<totfact> 0.49009308E+11</totfact>
</mgrwt>
</event>
<event>
 4    1  0.1735226E+006  0.2123846E+01  0.7546771E-02  0.2901867E+00
         22   -1    0    0    0    0  0.00000000000E+00  0.00000000000E+00  0.60373834498E+02  0.60373834498E+02  0.00000000000E+00 0. -1.
         22   -1    0    0    0    0 -0.00000000000E+00 -0.00000000000E+00 -0.74753728444E-01  0.74753728444E-01  0.00000000000E+00 0.  1.
          4    1    1    2  501    0 -0.96121059731E+00 -0.14049533658E+01  0.30853666152E+02  0.30926678366E+02  0.12700000000E+01 0.  1.
         -4    1    1    2    0  501  0.96121059731E+00  0.14049533658E+01  0.29445414617E+02  0.29521909860E+02  0.12700000000E+01 0. -1.
<mgrwt>
<rscale>  0 0.21238455E+01</rscale>
<asrwt>0</asrwt>
<pdfrwt beam="1">0</pdfrwt>
<pdfrwt beam="2">0</pdfrwt>
<totfact> 0.29867785E+12</totfact>
</mgrwt>
</event>
<event>
 4    1  0.1735226E+006  0.4082780E+01  0.7546771E-02  0.2261745E+00
         22   -1    0    0    0    0  0.00000000000E+00  0.00000000000E+00  0.36490920238E+01  0.36490920238E+01  0.00000000000E+00 0.  1.
         22   -1    0    0    0    0 -0.00000000000E+00 -0.00000000000E+00 -0.81044299854E+01  0.81044299854E+01  0.00000000000E+00 0. -1.
          4    1    1    2  501    0  0.15511461928E+01 -0.35567036649E+01  0.16543584397E+01  0.44052238670E+01  0.12700000000E+01 0.  1.
         -4    1    1    2    0  501 -0.15511461928E+01  0.35567036649E+01 -0.61096964013E+01  0.73482981422E+01  0.12700000000E+01 0. -1.
<mgrwt>
<rscale>  0 0.40827804E+01</rscale>
<asrwt>0</asrwt>
<pdfrwt beam="1">0</pdfrwt>
<pdfrwt beam="2">0</pdfrwt>
<totfact> 0.45738041E+11</totfact>
</mgrwt>
</event>
<event>
 4    1  0.1735226E+006  0.2007204E+01  0.7546771E-02  0.2975881E+00
         22   -1    0    0    0    0  0.00000000000E+00  0.00000000000E+00  0.23603227412E+00  0.23603227412E+00  0.00000000000E+00 0.  1.
         22   -1    0    0    0    0 -0.00000000000E+00 -0.00000000000E+00 -0.17414154814E+02  0.17414154814E+02  0.00000000000E+00 0. -1.
          4    1    1    2  501    0 -0.81194732366E+00  0.13254094990E+01 -0.98312416976E+01  0.10034051132E+02  0.12700000000E+01 0.  1.
         -4    1    1    2    0  501  0.81194732366E+00 -0.13254094990E+01 -0.73468808419E+01  0.76161359561E+01  0.12700000000E+01 0. -1.
<mgrwt>
<rscale>  0 0.20072042E+01</rscale>
<asrwt>0</asrwt>
<pdfrwt beam="1">0</pdfrwt>
<pdfrwt beam="2">0</pdfrwt>
<totfact> 0.41071741E+12</totfact>
</mgrwt>
</event>
<event>
 4    1  0.1735226E+006  0.3975969E+01  0.7546771E-02  0.2281912E+00
         22   -1    0    0    0    0  0.00000000000E+00  0.00000000000E+00  0.65459438257E+01  0.65459438257E+01  0.00000000000E+00 0.  1.
         22   -1    0    0    0    0 -0.00000000000E+00 -0.00000000000E+00 -0.26354985622E+01  0.26354985622E+01  0.00000000000E+00 0. -1.
          4    1    1    2  501    0  0.34597015588E+01  0.14919429069E+01  0.32831408703E+01  0.51562915441E+01  0.12700000000E+01 0.  1.
         -4    1    1    2    0  501 -0.34597015588E+01 -0.14919429069E+01  0.62730439324E+00  0.40251508438E+01  0.12700000000E+01 0. -1.
<mgrwt>
<rscale>  0 0.39759689E+01</rscale>
<asrwt>0</asrwt>
<pdfrwt beam="1">0</pdfrwt>
<pdfrwt beam="2">0</pdfrwt>
<totfact> 0.86416301E+11</totfact>
</mgrwt>
</event>
<event>
 4    1  0.1735226E+006  0.2308316E+01  0.7546771E-02  0.2799586E+00
         22   -1    0    0    0    0  0.00000000000E+00  0.00000000000E+00  0.39869477696E+00  0.39869477696E+00  0.00000000000E+00 0. -1.
         22   -1    0    0    0    0 -0.00000000000E+00 -0.00000000000E+00 -0.18663920886E+02  0.18663920886E+02  0.00000000000E+00 0.  1.
          4    1    1    2  501    0 -0.16821363158E+01  0.94119020164E+00 -0.40537227457E+01  0.46648675950E+01  0.12700000000E+01 0. -1.
         -4    1    1    2    0  501  0.16821363158E+01 -0.94119020164E+00 -0.14211503363E+02  0.14397748068E+02  0.12700000000E+01 0.  1.
<mgrwt>
<rscale>  0 0.23083157E+01</rscale>
<asrwt>0</asrwt>
<pdfrwt beam="1">0</pdfrwt>
<pdfrwt beam="2">0</pdfrwt>
<totfact> 0.20934975E+12</totfact>
</mgrwt>
</event>
<event>
 4    1  0.1735226E+006  0.2762855E+01  0.7546771E-02  0.2602886E+00
         22   -1    0    0    0    0  0.00000000000E+00  0.00000000000E+00  0.42442053139E+00  0.42442053139E+00  0.00000000000E+00 0.  1.
         22   -1    0    0    0    0 -0.00000000000E+00 -0.00000000000E+00 -0.29779397729E+02  0.29779397729E+02  0.00000000000E+00 0.  1.
          4    1    1    2  501    0 -0.20081725528E+01 -0.14098611549E+01 -0.51735254214E+01  0.58650431169E+01  0.12700000000E+01 0.  1.
         -4    1    1    2    0  501  0.20081725528E+01  0.14098611549E+01 -0.24181451776E+02  0.24338775143E+02  0.12700000000E+01 0.  1.
<mgrwt>
<rscale>  0 0.27628546E+01</rscale>
<asrwt>0</asrwt>
<pdfrwt beam="1">0</pdfrwt>
<pdfrwt beam="2">0</pdfrwt>
<totfact> 0.10841778E+12</totfact>
</mgrwt>
</event>
<event>
 4    1  0.1735226E+006  0.2344696E+01  0.7546771E-02  0.2781228E+00
         22   -1    0    0    0    0  0.00000000000E+00  0.00000000000E+00  0.93740667422E+01  0.93740667422E+01  0.00000000000E+00 0.  1.
         22   -1    0    0    0    0 -0.00000000000E+00 -0.00000000000E+00 -0.84176588584E+00  0.84176588584E+00  0.00000000000E+00 0. -1.
          4    1    1    2  501    0 -0.18240909491E+01  0.74658663903E+00  0.70791578941E+01  0.74573504604E+01  0.12700000000E+01 0.  1.
         -4    1    1    2    0  501  0.18240909491E+01 -0.74658663903E+00  0.14531429622E+01  0.27584821676E+01  0.12700000000E+01 0. -1.
<mgrwt>
<rscale>  0 0.23446960E+01</rscale>
<asrwt>0</asrwt>
<pdfrwt beam="1">0</pdfrwt>
<pdfrwt beam="2">0</pdfrwt>
<totfact> 0.20881683E+12</totfact>
</mgrwt>
</event>
<event>
 4    1  0.1735226E+006  0.2027364E+01  0.7546771E-02  0.2962496E+00
         22   -1    0    0    0    0  0.00000000000E+00  0.00000000000E+00  0.47166996597E+00  0.47166996597E+00  0.00000000000E+00 0.  1.
         22   -1    0    0    0    0 -0.00000000000E+00 -0.00000000000E+00 -0.89500191352E+01  0.89500191352E+01  0.00000000000E+00 0.  1.
          4    1    1    2  501    0 -0.82266921208E+00 -0.13492662782E+01 -0.50039251999E+01  0.53990250535E+01  0.12700000000E+01 0.  1.
         -4    1    1    2    0  501  0.82266921208E+00  0.13492662782E+01 -0.34744239693E+01  0.40226640476E+01  0.12700000000E+01 0.  1.
<mgrwt>
<rscale>  0 0.20273638E+01</rscale>
<asrwt>0</asrwt>
<pdfrwt beam="1">0</pdfrwt>
<pdfrwt beam="2">0</pdfrwt>
<totfact> 0.42568110E+12</totfact>
</mgrwt>
</event>
<event>
 4    1  0.1735226E+006  0.2459181E+01  0.7546771E-02  0.2726804E+00
         22   -1    0    0    0    0  0.00000000000E+00  0.00000000000E+00  0.18565079938E+00  0.18565079938E+00  0.00000000000E+00 0. -1.
         22   -1    0    0    0    0 -0.00000000000E+00 -0.00000000000E+00 -0.32733814837E+02  0.32733814837E+02  0.00000000000E+00 0. -1.
          4    1    1    2  501    0 -0.19223808239E+01 -0.85972218388E+00 -0.15127504755E+02  0.15326087902E+02  0.12700000000E+01 0. -1.
         -4    1    1    2    0  501  0.19223808239E+01  0.85972218388E+00 -0.17420659282E+02  0.17593377734E+02  0.12700000000E+01 0. -1.
<mgrwt>
<rscale>  0 0.24591808E+01</rscale>
<asrwt>0</asrwt>
<pdfrwt beam="1">0</pdfrwt>
<pdfrwt beam="2">0</pdfrwt>
<totfact> 0.24262508E+12</totfact>
</mgrwt>
</event>
<event>
 4    1  0.1735226E+006  0.2325462E+01  0.7546771E-02  0.2790866E+00
         22   -1    0    0    0    0  0.00000000000E+00  0.00000000000E+00  0.48633281009E+00  0.48633281009E+00  0.00000000000E+00 0. -1.
         22   -1    0    0    0    0 -0.00000000000E+00 -0.00000000000E+00 -0.11905873890E+02  0.11905873890E+02  0.00000000000E+00 0.  1.
          4    1    1    2  501    0 -0.16199208271E+01 -0.10820019259E+01 -0.73021845125E+01  0.76635285807E+01  0.12700000000E+01 0. -1.
         -4    1    1    2    0  501  0.16199208271E+01  0.10820019259E+01 -0.41173565679E+01  0.47286781198E+01  0.12700000000E+01 0. -1.
<mgrwt>
<rscale>  0 0.23254616E+01</rscale>
<asrwt>0</asrwt>
<pdfrwt beam="1">0</pdfrwt>
<pdfrwt beam="2">0</pdfrwt>
<totfact> 0.29097112E+12</totfact>
</mgrwt>
</event>
<event>
 4    1  0.1735226E+006  0.2066181E+01  0.7546771E-02  0.2937441E+00
         22   -1    0    0    0    0  0.00000000000E+00  0.00000000000E+00  0.32767362040E+00  0.32767362040E+00  0.00000000000E+00 0.  1.
         22   -1    0    0    0    0 -0.00000000000E+00 -0.00000000000E+00 -0.14116969687E+02  0.14116969687E+02  0.00000000000E+00 0.  1.
          4    1    1    2  501    0 -0.15887751172E+01  0.36331237751E+00 -0.89000909337E+01  0.91367784741E+01  0.12700000000E+01 0.  1.
         -4    1    1    2    0  501  0.15887751172E+01 -0.36331237751E+00 -0.48892051325E+01  0.53078648329E+01  0.12700000000E+01 0.  1.
<mgrwt>
<rscale>  0 0.20661806E+01</rscale>
<asrwt>0</asrwt>
<pdfrwt beam="1">0</pdfrwt>
<pdfrwt beam="2">0</pdfrwt>
<totfact> 0.36844305E+12</totfact>
</mgrwt>
</event>
<event>
 4    1  0.1735226E+006  0.2167319E+01  0.7546771E-02  0.2876260E+00
         22   -1    0    0    0    0  0.00000000000E+00  0.00000000000E+00  0.55057473773E+01  0.55057473773E+01  0.00000000000E+00 0. -1.
         22   -1    0    0    0    0 -0.00000000000E+00 -0.00000000000E+00 -0.11107852757E+02  0.11107852757E+02  0.00000000000E+00 0.  1.
          4    1    1    2  501    0 -0.53852214908E+00 -0.16716358819E+01  0.51803655404E+01  0.56154661213E+01  0.12700000000E+01 0. -1.
         -4    1    1    2    0  501  0.53852214908E+00  0.16716358819E+01 -0.10782470920E+02  0.10998134013E+02  0.12700000000E+01 0.  1.
<mgrwt>
<rscale>  0 0.21673192E+01</rscale>
<asrwt>0</asrwt>
<pdfrwt beam="1">0</pdfrwt>
<pdfrwt beam="2">0</pdfrwt>
<totfact> 0.19226413E+11</totfact>
</mgrwt>
</event>
<event>
 4    1  0.1735226E+006  0.2106459E+01  0.7546771E-02  0.2912394E+00
         22   -1    0    0    0    0  0.00000000000E+00  0.00000000000E+00  0.21339902610E+01  0.21339902610E+01  0.00000000000E+00 0. -1.
         22   -1    0    0    0    0 -0.00000000000E+00 -0.00000000000E+00 -0.43803439497E+01  0.43803439497E+01  0.00000000000E+00 0. -1.
          4    1    1    2  501    0  0.16365057456E+01 -0.38225529528E+00  0.12375730169E+01  0.24431039966E+01  0.12700000000E+01 0. -1.
         -4    1    1    2    0  501 -0.16365057456E+01  0.38225529528E+00 -0.34839267056E+01  0.40712302141E+01  0.12700000000E+01 0. -1.
<mgrwt>
<rscale>  0 0.21064592E+01</rscale>
<asrwt>0</asrwt>
<pdfrwt beam="1">0</pdfrwt>
<pdfrwt beam="2">0</pdfrwt>
<totfact> 0.17784856E+12</totfact>
</mgrwt>
</event>
<event>
 4    1  0.1735226E+006  0.3588173E+01  0.7546771E-02  0.2363684E+00
         22   -1    0    0    0    0  0.00000000000E+00  0.00000000000E+00  0.11904945409E+01  0.11904945409E+01  0.00000000000E+00 0.  1.
         22   -1    0    0    0    0 -0.00000000000E+00 -0.00000000000E+00 -0.15740594779E+02  0.15740594779E+02  0.00000000000E+00 0. -1.
          4    1    1    2  501    0 -0.27491912920E+00 -0.33446230427E+01 -0.25393780197E+01  0.43958417342E+01  0.12700000000E+01 0.  1.
         -4    1    1    2    0  501  0.27491912920E+00  0.33446230427E+01 -0.12010722218E+02  0.12535247585E+02  0.12700000000E+01 0. -1.
<mgrwt>
<rscale>  0 0.35881728E+01</rscale>
<asrwt>0</asrwt>
<pdfrwt beam="1">0</pdfrwt>
<pdfrwt beam="2">0</pdfrwt>
<totfact> 0.74683294E+11</totfact>
</mgrwt>
</event>
<event>
 4    1  0.1735226E+006  0.2726164E+01  0.7546771E-02  0.2616506E+00
         22   -1    0    0    0    0  0.00000000000E+00  0.00000000000E+00  0.39358117406E+02  0.39358117406E+02  0.00000000000E+00 0.  1.
         22   -1    0    0    0    0 -0.00000000000E+00 -0.00000000000E+00 -0.19004925014E+00  0.19004925014E+00  0.00000000000E+00 0. -1.
          4    1    1    2  501    0  0.21027776637E+01  0.11821158919E+01  0.21168221697E+02  0.21343045277E+02  0.12700000000E+01 0.  1.
         -4    1    1    2    0  501 -0.21027776637E+01 -0.11821158919E+01  0.17999846459E+02  0.18205121379E+02  0.12700000000E+01 0.  1.
<mgrwt>
<rscale>  0 0.27261643E+01</rscale>
<asrwt>0</asrwt>
<pdfrwt beam="1">0</pdfrwt>
<pdfrwt beam="2">0</pdfrwt>
<totfact> 0.18641025E+12</totfact>
</mgrwt>
</event>
<event>
 4    1  0.1735226E+006  0.4983158E+01  0.7546771E-02  0.2125019E+00
         22   -1    0    0    0    0  0.00000000000E+00  0.00000000000E+00  0.10056347161E+02  0.10056347161E+02  0.00000000000E+00 0. -1.
         22   -1    0    0    0    0 -0.00000000000E+00 -0.00000000000E+00 -0.24943720357E+01  0.24943720357E+01  0.00000000000E+00 0.  1.
          4    1    1    2  501    0 -0.21093045678E+01  0.43324121303E+01  0.44104815604E+01  0.66546380985E+01  0.12700000000E+01 0. -1.
         -4    1    1    2    0  501  0.21093045678E+01 -0.43324121303E+01  0.31514935649E+01  0.58960810982E+01  0.12700000000E+01 0.  1.
<mgrwt>
<rscale>  0 0.49831577E+01</rscale>
<asrwt>0</asrwt>
<pdfrwt beam="1">0</pdfrwt>
<pdfrwt beam="2">0</pdfrwt>
<totfact> 0.54986729E+11</totfact>
</mgrwt>
</event>
<event>
 4    1  0.1735226E+006  0.3550940E+01  0.7546771E-02  0.2372342E+00
         22   -1    0    0    0    0  0.00000000000E+00  0.00000000000E+00  0.21348570131E+02  0.21348570131E+02  0.00000000000E+00 0.  1.
         22   -1    0    0    0    0 -0.00000000000E+00 -0.00000000000E+00 -0.72077962054E+00  0.72077962054E+00  0.00000000000E+00 0. -1.
          4    1    1    2  501    0 -0.28767494501E+01 -0.16494195425E+01  0.15002834092E+02  0.15417334498E+02  0.12700000000E+01 0. -1.
         -4    1    1    2    0  501  0.28767494501E+01  0.16494195425E+01  0.56249564183E+01  0.66520152535E+01  0.12700000000E+01 0.  1.
<mgrwt>
<rscale>  0 0.35509396E+01</rscale>
<asrwt>0</asrwt>
<pdfrwt beam="1">0</pdfrwt>
<pdfrwt beam="2">0</pdfrwt>
<totfact> 0.90657433E+11</totfact>
</mgrwt>
</event>
<event>
 4    1  0.1735226E+006  0.2433501E+01  0.7546771E-02  0.2738593E+00
         22   -1    0    0    0    0  0.00000000000E+00  0.00000000000E+00  0.25395182330E+01  0.25395182330E+01  0.00000000000E+00 0.  1.
         22   -1    0    0    0    0 -0.00000000000E+00 -0.00000000000E+00 -0.45200863656E+01  0.45200863656E+01  0.00000000000E+00 0. -1.
          4    1    1    2  501    0  0.17109698803E+01 -0.11754197490E+01  0.14656579884E+01  0.28407891257E+01  0.12700000000E+01 0.  1.
         -4    1    1    2    0  501 -0.17109698803E+01  0.11754197490E+01 -0.34462261209E+01  0.42188154729E+01  0.12700000000E+01 0. -1.
<mgrwt>
<rscale>  0 0.24335015E+01</rscale>
<asrwt>0</asrwt>
<pdfrwt beam="1">0</pdfrwt>
<pdfrwt beam="2">0</pdfrwt>
<totfact> 0.14003331E+12</totfact>
</mgrwt>
</event>
<event>
 4    1  0.1735226E+006  0.2034691E+01  0.7546771E-02  0.2957695E+00
         22   -1    0    0    0    0  0.00000000000E+00  0.00000000000E+00  0.12433808976E+01  0.12433808976E+01  0.00000000000E+00 0. -1.
         22   -1    0    0    0    0 -0.00000000000E+00 -0.00000000000E+00 -0.51999705371E+01  0.51999705371E+01  0.00000000000E+00 0. -1.
          4    1    1    2  501    0  0.13827571801E+01  0.78425040826E+00 -0.46127493472E-01  0.20352134698E+01  0.12700000000E+01 0. -1.
         -4    1    1    2    0  501 -0.13827571801E+01 -0.78425040826E+00 -0.39104621460E+01  0.44081379649E+01  0.12700000000E+01 0. -1.
<mgrwt>
<rscale>  0 0.20346907E+01</rscale>
<asrwt>0</asrwt>
<pdfrwt beam="1">0</pdfrwt>
<pdfrwt beam="2">0</pdfrwt>
<totfact> 0.27061123E+12</totfact>
</mgrwt>
</event>
<event>
 4    1  0.1735226E+006  0.3217771E+01  0.7546771E-02  0.2457541E+00
         22   -1    0    0    0    0  0.00000000000E+00  0.00000000000E+00  0.10334382123E+02  0.10334382123E+02  0.00000000000E+00 0. -1.
         22   -1    0    0    0    0 -0.00000000000E+00 -0.00000000000E+00 -0.24192387132E+01  0.24192387132E+01  0.00000000000E+00 0.  1.
          4    1    1    2  501    0 -0.24963170509E+01  0.15841560529E+01  0.88384783104E+01  0.94059953254E+01  0.12700000000E+01 0. -1.
         -4    1    1    2    0  501  0.24963170509E+01 -0.15841560529E+01 -0.92333490089E+00  0.33476255104E+01  0.12700000000E+01 0.  1.
<mgrwt>
<rscale>  0 0.32177708E+01</rscale>
<asrwt>0</asrwt>
<pdfrwt beam="1">0</pdfrwt>
<pdfrwt beam="2">0</pdfrwt>
<totfact> 0.55124812E+11</totfact>
</mgrwt>
</event>
<event>
 4    1  0.1735226E+006  0.2811268E+01  0.7546771E-02  0.2585410E+00
         22   -1    0    0    0    0  0.00000000000E+00  0.00000000000E+00  0.26415686974E+01  0.26415686974E+01  0.00000000000E+00 0. -1.
         22   -1    0    0    0    0 -0.00000000000E+00 -0.00000000000E+00 -0.34324874187E+01  0.34324874187E+01  0.00000000000E+00 0. -1.
          4    1    1    2  501    0  0.43257415327E+00 -0.24704665492E+01  0.69265877327E+00  0.28953413521E+01  0.12700000000E+01 0. -1.
         -4    1    1    2    0  501 -0.43257415327E+00  0.24704665492E+01 -0.14835774945E+01  0.31787147640E+01  0.12700000000E+01 0. -1.
<mgrwt>
<rscale>  0 0.28112676E+01</rscale>
<asrwt>0</asrwt>
<pdfrwt beam="1">0</pdfrwt>
<pdfrwt beam="2">0</pdfrwt>
<totfact> 0.18489879E+12</totfact>
</mgrwt>
</event>
<event>
 4    1  0.1735226E+006  0.2613433E+01  0.7546771E-02  0.2660539E+00
         22   -1    0    0    0    0  0.00000000000E+00  0.00000000000E+00  0.67590780685E+00  0.67590780685E+00  0.00000000000E+00 0.  1.
         22   -1    0    0    0    0 -0.00000000000E+00 -0.00000000000E+00 -0.20635228553E+02  0.20635228553E+02  0.00000000000E+00 0. -1.
          4    1    1    2  501    0  0.17344757721E+01 -0.14861783617E+01 -0.23677904303E+01  0.35265370902E+01  0.12700000000E+01 0.  1.
         -4    1    1    2    0  501 -0.17344757721E+01  0.14861783617E+01 -0.17591530316E+02  0.17784599269E+02  0.12700000000E+01 0. -1.
<mgrwt>
<rscale>  0 0.26134331E+01</rscale>
<asrwt>0</asrwt>
<pdfrwt beam="1">0</pdfrwt>
<pdfrwt beam="2">0</pdfrwt>
<totfact> 0.10174852E+12</totfact>
</mgrwt>
</event>
<event>
 4    1  0.1735226E+006  0.2027688E+01  0.7546771E-02  0.2962282E+00
         22   -1    0    0    0    0  0.00000000000E+00  0.00000000000E+00  0.73494232618E+02  0.73494232618E+02  0.00000000000E+00 0.  1.
         22   -1    0    0    0    0 -0.00000000000E+00 -0.00000000000E+00 -0.55986635646E-01  0.55986635646E-01  0.00000000000E+00 0. -1.
          4    1    1    2  501    0 -0.12506862241E+01 -0.96664501280E+00  0.37740861777E+02  0.37795292912E+02  0.12700000000E+01 0.  1.
         -4    1    1    2    0  501  0.12506862241E+01  0.96664501280E+00  0.35697384205E+02  0.35754926341E+02  0.12700000000E+01 0.  1.
<mgrwt>
<rscale>  0 0.20276880E+01</rscale>
<asrwt>0</asrwt>
<pdfrwt beam="1">0</pdfrwt>
<pdfrwt beam="2">0</pdfrwt>
<totfact> 0.31492225E+12</totfact>
</mgrwt>
</event>
<event>
 4    1  0.1735226E+006  0.2020585E+01  0.7546771E-02  0.2966967E+00
         22   -1    0    0    0    0  0.00000000000E+00  0.00000000000E+00  0.13316126031E+02  0.13316126031E+02  0.00000000000E+00 0.  1.
         22   -1    0    0    0    0 -0.00000000000E+00 -0.00000000000E+00 -0.36734305478E+00  0.36734305478E+00  0.00000000000E+00 0. -1.
          4    1    1    2  501    0  0.17433596278E+00  0.15618811440E+01  0.92564578011E+01  0.94744275162E+01  0.12700000000E+01 0.  1.
         -4    1    1    2    0  501 -0.17433596278E+00 -0.15618811440E+01  0.36923251754E+01  0.42090415699E+01  0.12700000000E+01 0. -1.
<mgrwt>
<rscale>  0 0.20205855E+01</rscale>
<asrwt>0</asrwt>
<pdfrwt beam="1">0</pdfrwt>
<pdfrwt beam="2">0</pdfrwt>
<totfact> 0.34809841E+12</totfact>
</mgrwt>
</event>
<event>
 4    1  0.1735226E+006  0.3465916E+01  0.7546771E-02  0.2392718E+00
         22   -1    0    0    0    0  0.00000000000E+00  0.00000000000E+00  0.69272804848E+00  0.69272804848E+00  0.00000000000E+00 0.  1.
         22   -1    0    0    0    0 -0.00000000000E+00 -0.00000000000E+00 -0.20170395509E+02  0.20170395509E+02  0.00000000000E+00 0. -1.
          4    1    1    2  501    0  0.23364966722E+01  0.22227131651E+01 -0.58318473115E+01  0.67840263545E+01  0.12700000000E+01 0.  1.
         -4    1    1    2    0  501 -0.23364966722E+01 -0.22227131651E+01 -0.13645820149E+02  0.14079097203E+02  0.12700000000E+01 0. -1.
<mgrwt>
<rscale>  0 0.34659155E+01</rscale>
<asrwt>0</asrwt>
<pdfrwt beam="1">0</pdfrwt>
<pdfrwt beam="2">0</pdfrwt>
<totfact> 0.10180629E+12</totfact>
</mgrwt>
</event>
<event>
 4    1  0.1735226E+006  0.2032408E+01  0.7546771E-02  0.2959187E+00
         22   -1    0    0    0    0  0.00000000000E+00  0.00000000000E+00  0.32350105286E+01  0.32350105286E+01  0.00000000000E+00 0. -1.
         22   -1    0    0    0    0 -0.00000000000E+00 -0.00000000000E+00 -0.14068819920E+01  0.14068819920E+01  0.00000000000E+00 0. -1.
          4    1    1    2  501    0  0.13029696886E+01  0.90556647792E+00  0.16196205984E+01  0.25988173345E+01  0.12700000000E+01 0. -1.
         -4    1    1    2    0  501 -0.13029696886E+01 -0.90556647792E+00  0.20850793815E+00  0.20430751860E+01  0.12700000000E+01 0. -1.
<mgrwt>
<rscale>  0 0.20324076E+01</rscale>
<asrwt>0</asrwt>
<pdfrwt beam="1">0</pdfrwt>
<pdfrwt beam="2">0</pdfrwt>
<totfact> 0.41067849E+12</totfact>
</mgrwt>
</event>
<event>
 4    1  0.1735226E+006  0.3829966E+01  0.7546771E-02  0.2311025E+00
         22   -1    0    0    0    0  0.00000000000E+00  0.00000000000E+00  0.22042870686E+01  0.22042870686E+01  0.00000000000E+00 0. -1.
         22   -1    0    0    0    0 -0.00000000000E+00 -0.00000000000E+00 -0.71811896594E+01  0.71811896594E+01  0.00000000000E+00 0.  1.
          4    1    1    2  501    0  0.27230637743E+01 -0.23750083818E+01 -0.12176848843E+01  0.40188801438E+01  0.12700000000E+01 0. -1.
         -4    1    1    2    0  501 -0.27230637743E+01  0.23750083818E+01 -0.37592177065E+01  0.53665965842E+01  0.12700000000E+01 0.  1.
<mgrwt>
<rscale>  0 0.38299662E+01</rscale>
<asrwt>0</asrwt>
<pdfrwt beam="1">0</pdfrwt>
<pdfrwt beam="2">0</pdfrwt>
<totfact> 0.95212991E+11</totfact>
</mgrwt>
</event>
<event>
 4    1  0.1735226E+006  0.2913420E+01  0.7546771E-02  0.2550269E+00
         22   -1    0    0    0    0  0.00000000000E+00  0.00000000000E+00  0.58852732428E+02  0.58852732428E+02  0.00000000000E+00 0. -1.
         22   -1    0    0    0    0 -0.00000000000E+00 -0.00000000000E+00 -0.16089766214E+00  0.16089766214E+00  0.00000000000E+00 0.  1.
          4    1    1    2  501    0 -0.10865312439E+01  0.23863294477E+01  0.38844388248E+02  0.38953491715E+02  0.12700000000E+01 0. -1.
         -4    1    1    2    0  501  0.10865312439E+01 -0.23863294477E+01  0.19847446517E+02  0.20060138375E+02  0.12700000000E+01 0.  1.
<mgrwt>
<rscale>  0 0.29134204E+01</rscale>
<asrwt>0</asrwt>
<pdfrwt beam="1">0</pdfrwt>
<pdfrwt beam="2">0</pdfrwt>
<totfact> 0.13217790E+12</totfact>
</mgrwt>
</event>
<event>
 4    1  0.1735226E+006  0.4441047E+01  0.7546771E-02  0.2200162E+00
         22   -1    0    0    0    0  0.00000000000E+00  0.00000000000E+00  0.55087523077E+02  0.55087523077E+02  0.00000000000E+00 0.  1.
         22   -1    0    0    0    0 -0.00000000000E+00 -0.00000000000E+00 -0.68370227487E+00  0.68370227487E+00  0.00000000000E+00 0. -1.
          4    1    1    2  501    0 -0.23694002584E+01 -0.35349599288E+01  0.46447805775E+02  0.46659635238E+02  0.12700000000E+01 0.  1.
         -4    1    1    2    0  501  0.23694002584E+01  0.35349599288E+01  0.79560150279E+01  0.91115901141E+01  0.12700000000E+01 0. -1.
<mgrwt>
<rscale>  0 0.44410471E+01</rscale>
<asrwt>0</asrwt>
<pdfrwt beam="1">0</pdfrwt>
<pdfrwt beam="2">0</pdfrwt>
<totfact> 0.28431037E+11</totfact>
</mgrwt>
</event>
<event>
 4    1  0.1735226E+006  0.2068825E+01  0.7546771E-02  0.2935767E+00
         22   -1    0    0    0    0  0.00000000000E+00  0.00000000000E+00  0.47230536509E+01  0.47230536509E+01  0.00000000000E+00 0.  1.
         22   -1    0    0    0    0 -0.00000000000E+00 -0.00000000000E+00 -0.33053512495E+01  0.33053512495E+01  0.00000000000E+00 0. -1.
          4    1    1    2  501    0 -0.14898591711E+01  0.66892334400E+00  0.41287962807E+01  0.46181162304E+01  0.12700000000E+01 0.  1.
         -4    1    1    2    0  501  0.14898591711E+01 -0.66892334400E+00 -0.27110938793E+01  0.34102886699E+01  0.12700000000E+01 0. -1.
<mgrwt>
<rscale>  0 0.20688255E+01</rscale>
<asrwt>0</asrwt>
<pdfrwt beam="1">0</pdfrwt>
<pdfrwt beam="2">0</pdfrwt>
<totfact> 0.97736174E+11</totfact>
</mgrwt>
</event>
<event>
 4    1  0.1735226E+006  0.2004185E+01  0.7546771E-02  0.2977909E+00
         22   -1    0    0    0    0  0.00000000000E+00  0.00000000000E+00  0.81509357096E+00  0.81509357096E+00  0.00000000000E+00 0. -1.
         22   -1    0    0    0    0 -0.00000000000E+00 -0.00000000000E+00 -0.99598113887E+01  0.99598113887E+01  0.00000000000E+00 0. -1.
          4    1    1    2  501    0 -0.10838054907E+01  0.11087037430E+01 -0.74304227120E+00  0.21374915551E+01  0.12700000000E+01 0. -1.
         -4    1    1    2    0  501  0.10838054907E+01 -0.11087037430E+01 -0.84016755466E+01  0.86374134046E+01  0.12700000000E+01 0. -1.
<mgrwt>
<rscale>  0 0.20041852E+01</rscale>
<asrwt>0</asrwt>
<pdfrwt beam="1">0</pdfrwt>
<pdfrwt beam="2">0</pdfrwt>
<totfact> 0.20128521E+12</totfact>
</mgrwt>
</event>
<event>
 4    1  0.1735226E+006  0.2312690E+01  0.7546771E-02  0.2797349E+00
         22   -1    0    0    0    0  0.00000000000E+00  0.00000000000E+00  0.34036423578E+02  0.34036423578E+02  0.00000000000E+00 0.  1.
         22   -1    0    0    0    0 -0.00000000000E+00 -0.00000000000E+00 -0.20455995536E+00  0.20455995536E+00  0.00000000000E+00 0. -1.
          4    1    1    2  501    0 -0.70787095391E+00 -0.17984862236E+01  0.25158825846E+02  0.25264897623E+02  0.12700000000E+01 0. -1.
         -4    1    1    2    0  501  0.70787095391E+00  0.17984862236E+01  0.86730377773E+01  0.89760859103E+01  0.12700000000E+01 0. -1.
<mgrwt>
<rscale>  0 0.23126898E+01</rscale>
<asrwt>0</asrwt>
<pdfrwt beam="1">0</pdfrwt>
<pdfrwt beam="2">0</pdfrwt>
<totfact> 0.20711563E+12</totfact>
</mgrwt>
</event>
<event>
 4    1  0.1735226E+006  0.2456302E+01  0.7546771E-02  0.2728114E+00
         22   -1    0    0    0    0  0.00000000000E+00  0.00000000000E+00  0.19895272903E+01  0.19895272903E+01  0.00000000000E+00 0. -1.
         22   -1    0    0    0    0 -0.00000000000E+00 -0.00000000000E+00 -0.38787994109E+01  0.38787994109E+01  0.00000000000E+00 0. -1.
          4    1    1    2  501    0 -0.13955868571E+00  0.20978664515E+01  0.42584989924E+00  0.24929437242E+01  0.12700000000E+01 0. -1.
         -4    1    1    2    0  501  0.13955868571E+00 -0.20978664515E+01 -0.23151220198E+01  0.33753829771E+01  0.12700000000E+01 0. -1.
<mgrwt>
<rscale>  0 0.24563022E+01</rscale>
<asrwt>0</asrwt>
<pdfrwt beam="1">0</pdfrwt>
<pdfrwt beam="2">0</pdfrwt>
<totfact> 0.22260210E+12</totfact>
</mgrwt>
</event>
<event>
 4    1  0.1735226E+006  0.2970366E+01  0.7546771E-02  0.2531628E+00
         22   -1    0    0    0    0  0.00000000000E+00  0.00000000000E+00  0.64936137494E+00  0.64936137494E+00  0.00000000000E+00 0.  1.
         22   -1    0    0    0    0 -0.00000000000E+00 -0.00000000000E+00 -0.28515037464E+02  0.28515037464E+02  0.00000000000E+00 0. -1.
          4    1    1    2  501    0 -0.25459013484E+01 -0.85355586398E+00 -0.33820967017E+01  0.45012941904E+01  0.12700000000E+01 0.  1.
         -4    1    1    2    0  501  0.25459013484E+01  0.85355586398E+00 -0.24483579388E+02  0.24663104649E+02  0.12700000000E+01 0. -1.
<mgrwt>
<rscale>  0 0.29703655E+01</rscale>
<asrwt>0</asrwt>
<pdfrwt beam="1">0</pdfrwt>
<pdfrwt beam="2">0</pdfrwt>
<totfact> 0.70852984E+11</totfact>
</mgrwt>
</event>
<event>
 4    1  0.1735226E+006  0.2067662E+01  0.7546771E-02  0.2936503E+00
         22   -1    0    0    0    0  0.00000000000E+00  0.00000000000E+00  0.16906191365E+01  0.16906191365E+01  0.00000000000E+00 0. -1.
         22   -1    0    0    0    0 -0.00000000000E+00 -0.00000000000E+00 -0.25394902931E+01  0.25394902931E+01  0.00000000000E+00 0.  1.
          4    1    1    2  501    0 -0.10856972585E+01 -0.12180265359E+01 -0.56170353539E+00  0.21426007656E+01  0.12700000000E+01 0.  1.
         -4    1    1    2    0  501  0.10856972585E+01  0.12180265359E+01 -0.28716762123E+00  0.20875086639E+01  0.12700000000E+01 0. -1.
<mgrwt>
<rscale>  0 0.20676622E+01</rscale>
<asrwt>0</asrwt>
<pdfrwt beam="1">0</pdfrwt>
<pdfrwt beam="2">0</pdfrwt>
<totfact> 0.44088777E+12</totfact>
</mgrwt>
</event>
<event>
 4    1  0.1735226E+006  0.2109404E+01  0.7546771E-02  0.2910599E+00
         22   -1    0    0    0    0  0.00000000000E+00  0.00000000000E+00  0.13163742338E+01  0.13163742338E+01  0.00000000000E+00 0.  1.
         22   -1    0    0    0    0 -0.00000000000E+00 -0.00000000000E+00 -0.57782607649E+01  0.57782607649E+01  0.00000000000E+00 0. -1.
          4    1    1    2  501    0 -0.12938270176E+01  0.10782839621E+01  0.54304027716E-01  0.21101027420E+01  0.12700000000E+01 0.  1.
         -4    1    1    2    0  501  0.12938270176E+01 -0.10782839621E+01 -0.45161905589E+01  0.49845322567E+01  0.12700000000E+01 0. -1.
<mgrwt>
<rscale>  0 0.21094039E+01</rscale>
<asrwt>0</asrwt>
<pdfrwt beam="1">0</pdfrwt>
<pdfrwt beam="2">0</pdfrwt>
<totfact> 0.22364938E+12</totfact>
</mgrwt>
</event>
<event>
 4    1  0.1735226E+006  0.2323285E+01  0.7546771E-02  0.2791966E+00
         22   -1    0    0    0    0  0.00000000000E+00  0.00000000000E+00  0.53625610303E+01  0.53625610303E+01  0.00000000000E+00 0.  1.
         22   -1    0    0    0    0 -0.00000000000E+00 -0.00000000000E+00 -0.22365081833E+01  0.22365081833E+01  0.00000000000E+00 0.  1.
          4    1    1    2  501    0 -0.48665151439E-01 -0.19448359523E+01  0.43807042878E+01  0.49586515542E+01  0.12700000000E+01 0.  1.
         -4    1    1    2    0  501  0.48665151439E-01  0.19448359523E+01 -0.12546514408E+01  0.26404176594E+01  0.12700000000E+01 0.  1.
<mgrwt>
<rscale>  0 0.23232854E+01</rscale>
<asrwt>0</asrwt>
<pdfrwt beam="1">0</pdfrwt>
<pdfrwt beam="2">0</pdfrwt>
<totfact> 0.13258558E+12</totfact>
</mgrwt>
</event>
<event>
 4    1  0.1735226E+006  0.3621304E+01  0.7546771E-02  0.2356109E+00
         22   -1    0    0    0    0  0.00000000000E+00  0.00000000000E+00  0.12017444612E+02  0.12017444612E+02  0.00000000000E+00 0. -1.
         22   -1    0    0    0    0 -0.00000000000E+00 -0.00000000000E+00 -0.30680734905E+01  0.30680734905E+01  0.00000000000E+00 0.  1.
          4    1    1    2  501    0 -0.26266781331E+01 -0.21451121879E+01  0.10529252125E+02  0.11134585516E+02  0.12700000000E+01 0. -1.
         -4    1    1    2    0  501  0.26266781331E+01  0.21451121879E+01 -0.15798810034E+01  0.39509325860E+01  0.12700000000E+01 0.  1.
<mgrwt>
<rscale>  0 0.36213042E+01</rscale>
<asrwt>0</asrwt>
<pdfrwt beam="1">0</pdfrwt>
<pdfrwt beam="2">0</pdfrwt>
<totfact> 0.34786423E+11</totfact>
</mgrwt>
</event>
<event>
 4    1  0.1735226E+006  0.2958672E+01  0.7546771E-02  0.2535404E+00
         22   -1    0    0    0    0  0.00000000000E+00  0.00000000000E+00  0.34346349467E+00  0.34346349467E+00  0.00000000000E+00 0.  1.
         22   -1    0    0    0    0 -0.00000000000E+00 -0.00000000000E+00 -0.29642636076E+02  0.29642636076E+02  0.00000000000E+00 0.  1.
          4    1    1    2  501    0 -0.21523472812E+01  0.15837420318E+01 -0.90356427449E+01  0.95077114732E+01  0.12700000000E+01 0.  1.
         -4    1    1    2    0  501  0.21523472812E+01 -0.15837420318E+01 -0.20263529836E+02  0.20478388097E+02  0.12700000000E+01 0.  1.
<mgrwt>
<rscale>  0 0.29586716E+01</rscale>
<asrwt>0</asrwt>
<pdfrwt beam="1">0</pdfrwt>
<pdfrwt beam="2">0</pdfrwt>
<totfact> 0.13837100E+12</totfact>
</mgrwt>
</event>
<event>
 4    1  0.1735226E+006  0.5083704E+01  0.7546771E-02  0.2113143E+00
         22   -1    0    0    0    0  0.00000000000E+00  0.00000000000E+00  0.47200049449E+01  0.47200049449E+01  0.00000000000E+00 0.  1.
         22   -1    0    0    0    0 -0.00000000000E+00 -0.00000000000E+00 -0.12564653659E+02  0.12564653659E+02  0.00000000000E+00 0.  1.
          4    1    1    2  501    0  0.40380277720E+01  0.28152226133E+01  0.25693235050E+01  0.56960925136E+01  0.12700000000E+01 0.  1.
         -4    1    1    2    0  501 -0.40380277720E+01 -0.28152226133E+01 -0.10413972219E+02  0.11588566090E+02  0.12700000000E+01 0.  1.
<mgrwt>
<rscale>  0 0.50837040E+01</rscale>
<asrwt>0</asrwt>
<pdfrwt beam="1">0</pdfrwt>
<pdfrwt beam="2">0</pdfrwt>
<totfact> 0.19858257E+11</totfact>
</mgrwt>
</event>
<event>
 4    1  0.1735226E+006  0.2861991E+01  0.7546771E-02  0.2567677E+00
         22   -1    0    0    0    0  0.00000000000E+00  0.00000000000E+00  0.47578293781E+01  0.47578293781E+01  0.00000000000E+00 0.  1.
         22   -1    0    0    0    0 -0.00000000000E+00 -0.00000000000E+00 -0.30747323839E+01  0.30747323839E+01  0.00000000000E+00 0. -1.
          4    1    1    2  501    0  0.11023117382E+01 -0.23158151721E+01  0.34395732398E+01  0.44745564195E+01  0.12700000000E+01 0.  1.
         -4    1    1    2    0  501 -0.11023117382E+01  0.23158151721E+01 -0.17564762456E+01  0.33580053426E+01  0.12700000000E+01 0. -1.
<mgrwt>
<rscale>  0 0.28619908E+01</rscale>
<asrwt>0</asrwt>
<pdfrwt beam="1">0</pdfrwt>
<pdfrwt beam="2">0</pdfrwt>
<totfact> 0.10545759E+12</totfact>
</mgrwt>
</event>
<event>
 4    1  0.1735226E+006  0.2981143E+01  0.7546771E-02  0.2528173E+00
         22   -1    0    0    0    0  0.00000000000E+00  0.00000000000E+00  0.19331927260E+02  0.19331927260E+02  0.00000000000E+00 0.  1.
         22   -1    0    0    0    0 -0.00000000000E+00 -0.00000000000E+00 -0.12005747500E+01  0.12005747500E+01  0.00000000000E+00 0.  1.
          4    1    1    2  501    0  0.26860944314E+01 -0.24333075592E+00  0.17130311456E+02  0.17387776849E+02  0.12700000000E+01 0.  1.
         -4    1    1    2    0  501 -0.26860944314E+01  0.24333075592E+00  0.10010410542E+01  0.31447251618E+01  0.12700000000E+01 0.  1.
<mgrwt>
<rscale>  0 0.29811429E+01</rscale>
<asrwt>0</asrwt>
<pdfrwt beam="1">0</pdfrwt>
<pdfrwt beam="2">0</pdfrwt>
<totfact> 0.57338014E+11</totfact>
</mgrwt>
</event>
<event>
 4    1  0.1735226E+006  0.2117511E+01  0.7546771E-02  0.2905683E+00
         22   -1    0    0    0    0  0.00000000000E+00  0.00000000000E+00  0.13209560191E+02  0.13209560191E+02  0.00000000000E+00 0.  1.
         22   -1    0    0    0    0 -0.00000000000E+00 -0.00000000000E+00 -0.34667400283E+00  0.34667400283E+00  0.00000000000E+00 0.  1.
          4    1    1    2  501    0 -0.21650615463E+00 -0.16804990708E+01  0.74105727328E+01  0.77071681096E+01  0.12700000000E+01 0.  1.
         -4    1    1    2    0  501  0.21650615463E+00  0.16804990708E+01  0.54523134552E+01  0.58490660841E+01  0.12700000000E+01 0.  1.
<mgrwt>
<rscale>  0 0.21175108E+01</rscale>
<asrwt>0</asrwt>
<pdfrwt beam="1">0</pdfrwt>
<pdfrwt beam="2">0</pdfrwt>
<totfact> 0.37519189E+12</totfact>
</mgrwt>
</event>
<event>
 4    1  0.1735226E+006  0.2243593E+01  0.7546771E-02  0.2833640E+00
         22   -1    0    0    0    0  0.00000000000E+00  0.00000000000E+00  0.38902227020E+00  0.38902227020E+00  0.00000000000E+00 0. -1.
         22   -1    0    0    0    0 -0.00000000000E+00 -0.00000000000E+00 -0.18700597096E+02  0.18700597096E+02  0.00000000000E+00 0. -1.
          4    1    1    2  501    0  0.10596912425E+01 -0.15158710704E+01 -0.38579783323E+01  0.44629258838E+01  0.12700000000E+01 0. -1.
         -4    1    1    2    0  501 -0.10596912425E+01  0.15158710704E+01 -0.14453596493E+02  0.14626693482E+02  0.12700000000E+01 0. -1.
<mgrwt>
<rscale>  0 0.22435932E+01</rscale>
<asrwt>0</asrwt>
<pdfrwt beam="1">0</pdfrwt>
<pdfrwt beam="2">0</pdfrwt>
<totfact> 0.21468969E+12</totfact>
</mgrwt>
</event>
<event>
 4    1  0.1735226E+006  0.2024804E+01  0.7546771E-02  0.2964181E+00
         22   -1    0    0    0    0  0.00000000000E+00  0.00000000000E+00  0.14365074417E+02  0.14365074417E+02  0.00000000000E+00 0. -1.
         22   -1    0    0    0    0 -0.00000000000E+00 -0.00000000000E+00 -0.30570210365E+00  0.30570210365E+00  0.00000000000E+00 0. -1.
          4    1    1    2  501    0  0.15383941621E+01 -0.34680662662E+00  0.89199186597E+01  0.91468453759E+01  0.12700000000E+01 0. -1.
         -4    1    1    2    0  501 -0.15383941621E+01  0.34680662662E+00  0.51394536538E+01  0.55239311449E+01  0.12700000000E+01 0. -1.
<mgrwt>
<rscale>  0 0.20248040E+01</rscale>
<asrwt>0</asrwt>
<pdfrwt beam="1">0</pdfrwt>
<pdfrwt beam="2">0</pdfrwt>
<totfact> 0.38984749E+12</totfact>
</mgrwt>
</event>
<event>
 4    1  0.1735226E+006  0.2277503E+01  0.7546771E-02  0.2815568E+00
         22   -1    0    0    0    0  0.00000000000E+00  0.00000000000E+00  0.15215842854E+02  0.15215842854E+02  0.00000000000E+00 0.  1.
         22   -1    0    0    0    0 -0.00000000000E+00 -0.00000000000E+00 -0.39383451649E+00  0.39383451649E+00  0.00000000000E+00 0. -1.
          4    1    1    2  501    0 -0.11757727987E+01 -0.14804316321E+01  0.10272499584E+02  0.10521942178E+02  0.12700000000E+01 0.  1.
         -4    1    1    2    0  501  0.11757727987E+01  0.14804316321E+01  0.45495087533E+01  0.50877351924E+01  0.12700000000E+01 0. -1.
<mgrwt>
<rscale>  0 0.22775029E+01</rscale>
<asrwt>0</asrwt>
<pdfrwt beam="1">0</pdfrwt>
<pdfrwt beam="2">0</pdfrwt>
<totfact> 0.27327344E+12</totfact>
</mgrwt>
</event>
<event>
 4    1  0.1735226E+006  0.2593337E+01  0.7546771E-02  0.2668758E+00
         22   -1    0    0    0    0  0.00000000000E+00  0.00000000000E+00  0.85248542066E+00  0.85248542066E+00  0.00000000000E+00 0. -1.
         22   -1    0    0    0    0 -0.00000000000E+00 -0.00000000000E+00 -0.10557049211E+02  0.10557049211E+02  0.00000000000E+00 0. -1.
          4    1    1    2  501    0  0.84291342413E+00  0.20980927402E+01 -0.19844721416E+01  0.32655054537E+01  0.12700000000E+01 0. -1.
         -4    1    1    2    0  501 -0.84291342413E+00 -0.20980927402E+01 -0.77200916482E+01  0.81440291775E+01  0.12700000000E+01 0. -1.
<mgrwt>
<rscale>  0 0.25933369E+01</rscale>
<asrwt>0</asrwt>
<pdfrwt beam="1">0</pdfrwt>
<pdfrwt beam="2">0</pdfrwt>
<totfact> 0.17824980E+12</totfact>
</mgrwt>
</event>
<event>
 4    1  0.1735226E+006  0.2112193E+01  0.7546771E-02  0.2908904E+00
         22   -1    0    0    0    0  0.00000000000E+00  0.00000000000E+00  0.25957711745E+01  0.25957711745E+01  0.00000000000E+00 0. -1.
         22   -1    0    0    0    0 -0.00000000000E+00 -0.00000000000E+00 -0.49868305898E+01  0.49868305898E+01  0.00000000000E+00 0.  1.
          4    1    1    2  501    0 -0.13765474861E+01 -0.97651298376E+00  0.18736719462E+01  0.28234743050E+01  0.12700000000E+01 0. -1.
         -4    1    1    2    0  501  0.13765474861E+01  0.97651298376E+00 -0.42647313614E+01  0.47591274593E+01  0.12700000000E+01 0. -1.
<mgrwt>
<rscale>  0 0.21121933E+01</rscale>
<asrwt>0</asrwt>
<pdfrwt beam="1">0</pdfrwt>
<pdfrwt beam="2">0</pdfrwt>
<totfact> 0.12152778E+12</totfact>
</mgrwt>
</event>
<event>
 4    1  0.1735226E+006  0.2180980E+01  0.7546771E-02  0.2868417E+00
         22   -1    0    0    0    0  0.00000000000E+00  0.00000000000E+00  0.28883697938E+00  0.28883697938E+00  0.00000000000E+00 0. -1.
         22   -1    0    0    0    0 -0.00000000000E+00 -0.00000000000E+00 -0.21949041000E+02  0.21949041000E+02  0.00000000000E+00 0.  1.
          4    1    1    2  501    0 -0.16415632551E+01 -0.67010631701E+00 -0.52739682531E+01  0.57071370696E+01  0.12700000000E+01 0. -1.
         -4    1    1    2    0  501  0.16415632551E+01  0.67010631701E+00 -0.16386235767E+02  0.16530740909E+02  0.12700000000E+01 0.  1.
<mgrwt>
<rscale>  0 0.21809797E+01</rscale>
<asrwt>0</asrwt>
<pdfrwt beam="1">0</pdfrwt>
<pdfrwt beam="2">0</pdfrwt>
<totfact> 0.24559730E+12</totfact>
</mgrwt>
</event>
<event>
 4    1  0.1735226E+006  0.3297200E+01  0.7546771E-02  0.2435859E+00
         22   -1    0    0    0    0  0.00000000000E+00  0.00000000000E+00  0.16752096059E+01  0.16752096059E+01  0.00000000000E+00 0. -1.
         22   -1    0    0    0    0 -0.00000000000E+00 -0.00000000000E+00 -0.78680073571E+01  0.78680073571E+01  0.00000000000E+00 0.  1.
          4    1    1    2  501    0 -0.26115319812E+01  0.15615795276E+01 -0.50935585278E+01  0.60676081272E+01  0.12700000000E+01 0.  1.
         -4    1    1    2    0  501  0.26115319812E+01 -0.15615795276E+01 -0.10992392234E+01  0.34756088359E+01  0.12700000000E+01 0. -1.
<mgrwt>
<rscale>  0 0.32972003E+01</rscale>
<asrwt>0</asrwt>
<pdfrwt beam="1">0</pdfrwt>
<pdfrwt beam="2">0</pdfrwt>
<totfact> 0.11721629E+12</totfact>
</mgrwt>
</event>
<event>
 4    1  0.1735226E+006  0.2383183E+01  0.7546771E-02  0.2762384E+00
         22   -1    0    0    0    0  0.00000000000E+00  0.00000000000E+00  0.42609773670E+01  0.42609773670E+01  0.00000000000E+00 0.  1.
         22   -1    0    0    0    0 -0.00000000000E+00 -0.00000000000E+00 -0.13644604069E+01  0.13644604069E+01  0.00000000000E+00 0.  1.
          4    1    1    2  501    0 -0.15693768915E+01 -0.12663790715E+01  0.18758712816E+01  0.30328951260E+01  0.12700000000E+01 0.  1.
         -4    1    1    2    0  501  0.15693768915E+01  0.12663790715E+01  0.10206456785E+01  0.25925426479E+01  0.12700000000E+01 0.  1.
<mgrwt>
<rscale>  0 0.23831827E+01</rscale>
<asrwt>0</asrwt>
<pdfrwt beam="1">0</pdfrwt>
<pdfrwt beam="2">0</pdfrwt>
<totfact> 0.30782314E+12</totfact>
</mgrwt>
</event>
<event>
 4    1  0.1735226E+006  0.2146484E+01  0.7546771E-02  0.2888408E+00
         22   -1    0    0    0    0  0.00000000000E+00  0.00000000000E+00  0.43872098201E+02  0.43872098201E+02  0.00000000000E+00 0. -1.
         22   -1    0    0    0    0 -0.00000000000E+00 -0.00000000000E+00 -0.10557527750E+00  0.10557527750E+00  0.00000000000E+00 0. -1.
          4    1    1    2  501    0 -0.13334647296E+01 -0.11028903514E+01  0.20286856332E+02  0.20400096450E+02  0.12700000000E+01 0. -1.
         -4    1    1    2    0  501  0.13334647296E+01  0.11028903514E+01  0.23479666591E+02  0.23577577029E+02  0.12700000000E+01 0. -1.
<mgrwt>
<rscale>  0 0.21464844E+01</rscale>
<asrwt>0</asrwt>
<pdfrwt beam="1">0</pdfrwt>
<pdfrwt beam="2">0</pdfrwt>
<totfact> 0.31100068E+12</totfact>
</mgrwt>
</event>
<event>
 4    1  0.1735226E+006  0.5773490E+01  0.7546771E-02  0.2040617E+00
         22   -1    0    0    0    0  0.00000000000E+00  0.00000000000E+00  0.26619037835E+02  0.26619037835E+02  0.00000000000E+00 0.  1.
         22   -1    0    0    0    0 -0.00000000000E+00 -0.00000000000E+00 -0.14991452974E+01  0.14991452974E+01  0.00000000000E+00 0.  1.
          4    1    1    2  501    0  0.55696834261E+01 -0.83600917970E+00  0.18265640583E+02  0.19156377808E+02  0.12700000000E+01 0.  1.
         -4    1    1    2    0  501 -0.55696834261E+01  0.83600917970E+00  0.68542519550E+01  0.89618053247E+01  0.12700000000E+01 0.  1.
<mgrwt>
<rscale>  0 0.57734898E+01</rscale>
<asrwt>0</asrwt>
<pdfrwt beam="1">0</pdfrwt>
<pdfrwt beam="2">0</pdfrwt>
<totfact> 0.29741075E+11</totfact>
</mgrwt>
</event>
<event>
 4    1  0.1735226E+006  0.2951964E+01  0.7546771E-02  0.2537581E+00
         22   -1    0    0    0    0  0.00000000000E+00  0.00000000000E+00  0.17573977899E+01  0.17573977899E+01  0.00000000000E+00 0. -1.
         22   -1    0    0    0    0 -0.00000000000E+00 -0.00000000000E+00 -0.57310330507E+01  0.57310330507E+01  0.00000000000E+00 0. -1.
          4    1    1    2  501    0  0.13117633610E+01  0.23195841137E+01 -0.61215209106E+00  0.30147676127E+01  0.12700000000E+01 0. -1.
         -4    1    1    2    0  501 -0.13117633610E+01 -0.23195841137E+01 -0.33614831698E+01  0.44736632279E+01  0.12700000000E+01 0. -1.
<mgrwt>
<rscale>  0 0.29519644E+01</rscale>
<asrwt>0</asrwt>
<pdfrwt beam="1">0</pdfrwt>
<pdfrwt beam="2">0</pdfrwt>
<totfact> 0.16195874E+12</totfact>
</mgrwt>
</event>
<event>
 4    1  0.1735226E+006  0.2354119E+01  0.7546771E-02  0.2776561E+00
         22   -1    0    0    0    0  0.00000000000E+00  0.00000000000E+00  0.28760790935E+02  0.28760790935E+02  0.00000000000E+00 0.  1.
         22   -1    0    0    0    0 -0.00000000000E+00 -0.00000000000E+00 -0.34622702968E+00  0.34622702968E+00  0.00000000000E+00 0. -1.
          4    1    1    2  501    0 -0.19488871849E+01  0.36168243840E+00  0.45156740723E+01  0.50924638215E+01  0.12700000000E+01 0.  1.
         -4    1    1    2    0  501  0.19488871849E+01 -0.36168243840E+00  0.23898889833E+02  0.24014554143E+02  0.12700000000E+01 0.  1.
<mgrwt>
<rscale>  0 0.23541188E+01</rscale>
<asrwt>0</asrwt>
<pdfrwt beam="1">0</pdfrwt>
<pdfrwt beam="2">0</pdfrwt>
<totfact> 0.14249735E+12</totfact>
</mgrwt>
</event>
<event>
 4    1  0.1735226E+006  0.2101876E+01  0.7546771E-02  0.2915197E+00
         22   -1    0    0    0    0  0.00000000000E+00  0.00000000000E+00  0.48801642464E+01  0.48801642464E+01  0.00000000000E+00 0.  1.
         22   -1    0    0    0    0 -0.00000000000E+00 -0.00000000000E+00 -0.14042370702E+01  0.14042370702E+01  0.00000000000E+00 0.  1.
          4    1    1    2  501    0  0.16322830670E+01 -0.37501263433E+00  0.36110085226E+01  0.41781892055E+01  0.12700000000E+01 0.  1.
         -4    1    1    2    0  501 -0.16322830670E+01  0.37501263433E+00 -0.13508134643E+00  0.21062121111E+01  0.12700000000E+01 0.  1.
<mgrwt>
<rscale>  0 0.21018759E+01</rscale>
<asrwt>0</asrwt>
<pdfrwt beam="1">0</pdfrwt>
<pdfrwt beam="2">0</pdfrwt>
<totfact> 0.25372003E+12</totfact>
</mgrwt>
</event>
<event>
 4    1  0.1735226E+006  0.2541982E+01  0.7546771E-02  0.2690306E+00
         22   -1    0    0    0    0  0.00000000000E+00  0.00000000000E+00  0.13704109318E+01  0.13704109318E+01  0.00000000000E+00 0.  1.
         22   -1    0    0    0    0 -0.00000000000E+00 -0.00000000000E+00 -0.10050031447E+02  0.10050031447E+02  0.00000000000E+00 0.  1.
          4    1    1    2  501    0  0.13839942974E+01 -0.17126973045E+01 -0.17943767039E+00  0.25483073106E+01  0.12700000000E+01 0.  1.
         -4    1    1    2    0  501 -0.13839942974E+01  0.17126973045E+01 -0.85001828453E+01  0.88721350686E+01  0.12700000000E+01 0.  1.
<mgrwt>
<rscale>  0 0.25419820E+01</rscale>
<asrwt>0</asrwt>
<pdfrwt beam="1">0</pdfrwt>
<pdfrwt beam="2">0</pdfrwt>
<totfact> 0.10994369E+12</totfact>
</mgrwt>
</event>
<event>
 4    1  0.1735226E+006  0.2612710E+01  0.7546771E-02  0.2660833E+00
         22   -1    0    0    0    0  0.00000000000E+00  0.00000000000E+00  0.23938495241E+00  0.23938495241E+00  0.00000000000E+00 0. -1.
         22   -1    0    0    0    0 -0.00000000000E+00 -0.00000000000E+00 -0.28929868799E+02  0.28929868799E+02  0.00000000000E+00 0.  1.
          4    1    1    2  501    0  0.47560437315E+00  0.22331931335E+01 -0.16090113462E+02  0.16300858944E+02  0.12700000000E+01 0. -1.
         -4    1    1    2    0  501 -0.47560437315E+00 -0.22331931335E+01 -0.12600370385E+02  0.12868394808E+02  0.12700000000E+01 0.  1.
<mgrwt>
<rscale>  0 0.26127095E+01</rscale>
<asrwt>0</asrwt>
<pdfrwt beam="1">0</pdfrwt>
<pdfrwt beam="2">0</pdfrwt>
<totfact> 0.21388566E+12</totfact>
</mgrwt>
</event>
<event>
 4    1  0.1735226E+006  0.2436973E+01  0.7546771E-02  0.2736986E+00
         22   -1    0    0    0    0  0.00000000000E+00  0.00000000000E+00  0.12992756460E+02  0.12992756460E+02  0.00000000000E+00 0. -1.
         22   -1    0    0    0    0 -0.00000000000E+00 -0.00000000000E+00 -0.90313204038E+00  0.90313204038E+00  0.00000000000E+00 0.  1.
          4    1    1    2  501    0  0.17192676411E+01  0.11704947482E+01  0.10927616770E+02  0.11196054995E+02  0.12700000000E+01 0. -1.
         -4    1    1    2    0  501 -0.17192676411E+01 -0.11704947482E+01  0.11620076489E+01  0.26998335047E+01  0.12700000000E+01 0.  1.
<mgrwt>
<rscale>  0 0.24369734E+01</rscale>
<asrwt>0</asrwt>
<pdfrwt beam="1">0</pdfrwt>
<pdfrwt beam="2">0</pdfrwt>
<totfact> 0.12960874E+12</totfact>
</mgrwt>
</event>
<event>
 4    1  0.1735226E+006  0.2009205E+01  0.7546771E-02  0.2974541E+00
         22   -1    0    0    0    0  0.00000000000E+00  0.00000000000E+00  0.97306342775E+01  0.97306342775E+01  0.00000000000E+00 0. -1.
         22   -1    0    0    0    0 -0.00000000000E+00 -0.00000000000E+00 -0.79510044203E+00  0.79510044203E+00  0.00000000000E+00 0.  1.
          4    1    1    2  501    0  0.92623788829E+00 -0.12514348097E+01  0.81072303967E+01  0.83524900726E+01  0.12700000000E+01 0. -1.
         -4    1    1    2    0  501 -0.92623788829E+00  0.12514348097E+01  0.82830343877E+00  0.21732446469E+01  0.12700000000E+01 0.  1.
<mgrwt>
<rscale>  0 0.20092052E+01</rscale>
<asrwt>0</asrwt>
<pdfrwt beam="1">0</pdfrwt>
<pdfrwt beam="2">0</pdfrwt>
<totfact> 0.21297023E+12</totfact>
</mgrwt>
</event>
<event>
 4    1  0.1735226E+006  0.2142345E+01  0.7546771E-02  0.2890848E+00
         22   -1    0    0    0    0  0.00000000000E+00  0.00000000000E+00  0.29081353652E+00  0.29081353652E+00  0.00000000000E+00 0. -1.
         22   -1    0    0    0    0 -0.00000000000E+00 -0.00000000000E+00 -0.22889185342E+02  0.22889185342E+02  0.00000000000E+00 0.  1.
          4    1    1    2  501    0 -0.41873154719E+00 -0.16737407469E+01 -0.48409419649E+01  0.52938042374E+01  0.12700000000E+01 0. -1.
         -4    1    1    2    0  501  0.41873154719E+00  0.16737407469E+01 -0.17757429840E+02  0.17886194641E+02  0.12700000000E+01 0.  1.
<mgrwt>
<rscale>  0 0.21423455E+01</rscale>
<asrwt>0</asrwt>
<pdfrwt beam="1">0</pdfrwt>
<pdfrwt beam="2">0</pdfrwt>
<totfact> 0.23123630E+12</totfact>
</mgrwt>
</event>
<event>
 4    1  0.1735226E+006  0.2306852E+01  0.7546771E-02  0.2800336E+00
         22   -1    0    0    0    0  0.00000000000E+00  0.00000000000E+00  0.14497168780E+02  0.14497168780E+02  0.00000000000E+00 0.  1.
         22   -1    0    0    0    0 -0.00000000000E+00 -0.00000000000E+00 -0.40302222702E+00  0.40302222702E+00  0.00000000000E+00 0. -1.
          4    1    1    2  501    0  0.11458910596E+01 -0.15477723845E+01  0.92720361523E+01  0.95546962319E+01  0.12700000000E+01 0. -1.
         -4    1    1    2    0  501 -0.11458910596E+01  0.15477723845E+01  0.48221104009E+01  0.53454947754E+01  0.12700000000E+01 0. -1.
<mgrwt>
<rscale>  0 0.23068519E+01</rscale>
<asrwt>0</asrwt>
<pdfrwt beam="1">0</pdfrwt>
<pdfrwt beam="2">0</pdfrwt>
<totfact> 0.28260150E+12</totfact>
</mgrwt>
</event>
<event>
 4    1  0.1735226E+006  0.4702321E+01  0.7546771E-02  0.2160306E+00
         22   -1    0    0    0    0  0.00000000000E+00  0.00000000000E+00  0.33415720404E+01  0.33415720404E+01  0.00000000000E+00 0. -1.
         22   -1    0    0    0    0 -0.00000000000E+00 -0.00000000000E+00 -0.93110340365E+01  0.93110340365E+01  0.00000000000E+00 0.  1.
          4    1    1    2  501    0 -0.39412670955E+01  0.22283045038E+01  0.41807361195E+00  0.47208699224E+01  0.12700000000E+01 0. -1.
         -4    1    1    2    0  501  0.39412670955E+01 -0.22283045038E+01 -0.63875356080E+01  0.79317361544E+01  0.12700000000E+01 0.  1.
<mgrwt>
<rscale>  0 0.47023215E+01</rscale>
<asrwt>0</asrwt>
<pdfrwt beam="1">0</pdfrwt>
<pdfrwt beam="2">0</pdfrwt>
<totfact> 0.42903178E+11</totfact>
</mgrwt>
</event>
<event>
 4    1  0.1735226E+006  0.2303719E+01  0.7546771E-02  0.2801944E+00
         22   -1    0    0    0    0  0.00000000000E+00  0.00000000000E+00  0.63488775882E+00  0.63488775882E+00  0.00000000000E+00 0. -1.
         22   -1    0    0    0    0 -0.00000000000E+00 -0.00000000000E+00 -0.14041651514E+02  0.14041651514E+02  0.00000000000E+00 0.  1.
          4    1    1    2  501    0  0.14341365922E+01  0.12796381703E+01 -0.20351289948E+01  0.30739016961E+01  0.12700000000E+01 0. -1.
         -4    1    1    2    0  501 -0.14341365922E+01 -0.12796381703E+01 -0.11371634760E+02  0.11602637576E+02  0.12700000000E+01 0.  1.
<mgrwt>
<rscale>  0 0.23037191E+01</rscale>
<asrwt>0</asrwt>
<pdfrwt beam="1">0</pdfrwt>
<pdfrwt beam="2">0</pdfrwt>
<totfact> 0.17590505E+12</totfact>
</mgrwt>
</event>
<event>
 4    1  0.1735226E+006  0.3585563E+01  0.7546771E-02  0.2364285E+00
         22   -1    0    0    0    0  0.00000000000E+00  0.00000000000E+00  0.73731737454E+01  0.73731737454E+01  0.00000000000E+00 0.  1.
         22   -1    0    0    0    0 -0.00000000000E+00 -0.00000000000E+00 -0.23272342816E+01  0.23272342816E+01  0.00000000000E+00 0. -1.
          4    1    1    2  501    0  0.32073974773E+01 -0.97773474495E+00  0.49517613906E+01  0.61136081554E+01  0.12700000000E+01 0.  1.
         -4    1    1    2    0  501 -0.32073974773E+01  0.97773474495E+00  0.94178073184E-01  0.35867998715E+01  0.12700000000E+01 0. -1.
<mgrwt>
<rscale>  0 0.35855632E+01</rscale>
<asrwt>0</asrwt>
<pdfrwt beam="1">0</pdfrwt>
<pdfrwt beam="2">0</pdfrwt>
<totfact> 0.86619479E+11</totfact>
</mgrwt>
</event>
<event>
 4    1  0.1735226E+006  0.2675962E+01  0.7546771E-02  0.2635695E+00
         22   -1    0    0    0    0  0.00000000000E+00  0.00000000000E+00  0.45400460326E+02  0.45400460326E+02  0.00000000000E+00 0.  1.
         22   -1    0    0    0    0 -0.00000000000E+00 -0.00000000000E+00 -0.17294862947E+00  0.17294862947E+00  0.00000000000E+00 0. -1.
          4    1    1    2  501    0 -0.22932337017E+01  0.53754195316E+00  0.15853129839E+02  0.16077390891E+02  0.12700000000E+01 0. -1.
         -4    1    1    2    0  501  0.22932337017E+01 -0.53754195316E+00  0.29374381858E+02  0.29496018065E+02  0.12700000000E+01 0.  1.
<mgrwt>
<rscale>  0 0.26759619E+01</rscale>
<asrwt>0</asrwt>
<pdfrwt beam="1">0</pdfrwt>
<pdfrwt beam="2">0</pdfrwt>
<totfact> 0.17190452E+12</totfact>
</mgrwt>
</event>
<event>
 4    1  0.1735226E+006  0.2163202E+01  0.7546771E-02  0.2878643E+00
         22   -1    0    0    0    0  0.00000000000E+00  0.00000000000E+00  0.13907380689E+00  0.13907380689E+00  0.00000000000E+00 0. -1.
         22   -1    0    0    0    0 -0.00000000000E+00 -0.00000000000E+00 -0.34143833680E+02  0.34143833680E+02  0.00000000000E+00 0. -1.
          4    1    1    2  501    0  0.10455866220E+01 -0.14047391731E+01 -0.14935040968E+02  0.15090887722E+02  0.12700000000E+01 0. -1.
         -4    1    1    2    0  501 -0.10455866220E+01  0.14047391731E+01 -0.19069718905E+02  0.19192019765E+02  0.12700000000E+01 0. -1.
<mgrwt>
<rscale>  0 0.21632021E+01</rscale>
<asrwt>0</asrwt>
<pdfrwt beam="1">0</pdfrwt>
<pdfrwt beam="2">0</pdfrwt>
<totfact> 0.31696403E+12</totfact>
</mgrwt>
</event>
<event>
 4    1  0.1735226E+006  0.2072191E+01  0.7546771E-02  0.2933643E+00
         22   -1    0    0    0    0  0.00000000000E+00  0.00000000000E+00  0.10308561302E+02  0.10308561302E+02  0.00000000000E+00 0. -1.
         22   -1    0    0    0    0 -0.00000000000E+00 -0.00000000000E+00 -0.78882378137E+00  0.78882378137E+00  0.00000000000E+00 0.  1.
          4    1    1    2  501    0 -0.13168030926E+01  0.97319412051E+00  0.85717112417E+01  0.88186286231E+01  0.12700000000E+01 0.  1.
         -4    1    1    2    0  501  0.13168030926E+01 -0.97319412051E+00  0.94802627931E+00  0.22787564607E+01  0.12700000000E+01 0. -1.
<mgrwt>
<rscale>  0 0.20721914E+01</rscale>
<asrwt>0</asrwt>
<pdfrwt beam="1">0</pdfrwt>
<pdfrwt beam="2">0</pdfrwt>
<totfact> 0.20040124E+12</totfact>
</mgrwt>
</event>
<event>
 4    1  0.1735226E+006  0.9192771E+01  0.7546771E-02  0.1814277E+00
         22   -1    0    0    0    0  0.00000000000E+00  0.00000000000E+00  0.29354815892E+02  0.29354815892E+02  0.00000000000E+00 0. -1.
         22   -1    0    0    0    0 -0.00000000000E+00 -0.00000000000E+00 -0.28792347440E+01  0.28792347440E+01  0.00000000000E+00 0.  1.
          4    1    1    2  501    0 -0.66925029906E+01  0.61728883214E+01  0.13432686994E+02  0.16277104361E+02  0.12700000000E+01 0. -1.
         -4    1    1    2    0  501  0.66925029906E+01 -0.61728883214E+01  0.13042894154E+02  0.15956946275E+02  0.12700000000E+01 0.  1.
<mgrwt>
<rscale>  0 0.91927714E+01</rscale>
<asrwt>0</asrwt>
<pdfrwt beam="1">0</pdfrwt>
<pdfrwt beam="2">0</pdfrwt>
<totfact> 0.12332819E+11</totfact>
</mgrwt>
</event>
<event>
 4    1  0.1735226E+006  0.2013768E+01  0.7546771E-02  0.2971495E+00
         22   -1    0    0    0    0  0.00000000000E+00  0.00000000000E+00  0.32356920184E+01  0.32356920184E+01  0.00000000000E+00 0.  1.
         22   -1    0    0    0    0 -0.00000000000E+00 -0.00000000000E+00 -0.14278635984E+02  0.14278635984E+02  0.00000000000E+00 0.  1.
          4    1    1    2  501    0  0.91004481577E+00 -0.12705030676E+01  0.28425421977E+01  0.34835765755E+01  0.12700000000E+01 0.  1.
         -4    1    1    2    0  501 -0.91004481577E+00  0.12705030676E+01 -0.13885486164E+02  0.14030751427E+02  0.12700000000E+01 0.  1.
<mgrwt>
<rscale>  0 0.20137675E+01</rscale>
<asrwt>0</asrwt>
<pdfrwt beam="1">0</pdfrwt>
<pdfrwt beam="2">0</pdfrwt>
<totfact> 0.26467267E+11</totfact>
</mgrwt>
</event>
<event>
 4    1  0.1735226E+006  0.2115815E+01  0.7546771E-02  0.2906709E+00
         22   -1    0    0    0    0  0.00000000000E+00  0.00000000000E+00  0.18830230256E+01  0.18830230256E+01  0.00000000000E+00 0.  1.
         22   -1    0    0    0    0 -0.00000000000E+00 -0.00000000000E+00 -0.23829463602E+01  0.23829463602E+01  0.00000000000E+00 0.  1.
          4    1    1    2  501    0  0.15273840445E+01  0.72860997768E+00 -0.14693685711E+00  0.21209113511E+01  0.12700000000E+01 0.  1.
         -4    1    1    2    0  501 -0.15273840445E+01 -0.72860997768E+00 -0.35298647751E+00  0.21450580347E+01  0.12700000000E+01 0.  1.
<mgrwt>
<rscale>  0 0.21158153E+01</rscale>
<asrwt>0</asrwt>
<pdfrwt beam="1">0</pdfrwt>
<pdfrwt beam="2">0</pdfrwt>
<totfact> 0.41919229E+12</totfact>
</mgrwt>
</event>
<event>
 4    1  0.1735226E+006  0.2049655E+01  0.7546771E-02  0.2947994E+00
         22   -1    0    0    0    0  0.00000000000E+00  0.00000000000E+00  0.83752232346E+00  0.83752232346E+00  0.00000000000E+00 0.  1.
         22   -1    0    0    0    0 -0.00000000000E+00 -0.00000000000E+00 -0.67501466008E+01  0.67501466008E+01  0.00000000000E+00 0. -1.
          4    1    1    2  501    0 -0.25501126784E+00  0.15884444523E+01 -0.10334261592E+01  0.22954424740E+01  0.12700000000E+01 0.  1.
         -4    1    1    2    0  501  0.25501126784E+00 -0.15884444523E+01 -0.48791981182E+01  0.52922264503E+01  0.12700000000E+01 0. -1.
<mgrwt>
<rscale>  0 0.20496552E+01</rscale>
<asrwt>0</asrwt>
<pdfrwt beam="1">0</pdfrwt>
<pdfrwt beam="2">0</pdfrwt>
<totfact> 0.31156982E+12</totfact>
</mgrwt>
</event>
<event>
 4    1  0.1735226E+006  0.2306056E+01  0.7546771E-02  0.2800744E+00
         22   -1    0    0    0    0  0.00000000000E+00  0.00000000000E+00  0.66195713280E+00  0.66195713280E+00  0.00000000000E+00 0.  1.
         22   -1    0    0    0    0 -0.00000000000E+00 -0.00000000000E+00 -0.25763485222E+02  0.25763485222E+02  0.00000000000E+00 0.  1.
          4    1    1    2  501    0  0.19108352842E+01 -0.23173708869E+00 -0.15899446129E+01  0.28010386349E+01  0.12700000000E+01 0.  1.
         -4    1    1    2    0  501 -0.19108352842E+01  0.23173708869E+00 -0.23511583476E+02  0.23624403720E+02  0.12700000000E+01 0.  1.
<mgrwt>
<rscale>  0 0.23060558E+01</rscale>
<asrwt>0</asrwt>
<pdfrwt beam="1">0</pdfrwt>
<pdfrwt beam="2">0</pdfrwt>
<totfact> 0.78833754E+11</totfact>
</mgrwt>
</event>
<event>
 4    1  0.1735226E+006  0.2487701E+01  0.7546771E-02  0.2713977E+00
         22   -1    0    0    0    0  0.00000000000E+00  0.00000000000E+00  0.38422319342E+00  0.38422319342E+00  0.00000000000E+00 0.  1.
         22   -1    0    0    0    0 -0.00000000000E+00 -0.00000000000E+00 -0.16125158458E+02  0.16125158458E+02  0.00000000000E+00 0.  1.
          4    1    1    2  501    0  0.58252846188E+00  0.20582562319E+01 -0.75929692912E+01  0.79901089343E+01  0.12700000000E+01 0.  1.
         -4    1    1    2    0  501 -0.58252846188E+00 -0.20582562319E+01 -0.81479659731E+01  0.85192727169E+01  0.12700000000E+01 0.  1.
<mgrwt>
<rscale>  0 0.24877014E+01</rscale>
<asrwt>0</asrwt>
<pdfrwt beam="1">0</pdfrwt>
<pdfrwt beam="2">0</pdfrwt>
<totfact> 0.26157850E+12</totfact>
</mgrwt>
</event>
<event>
 4    1  0.1735226E+006  0.2342887E+01  0.7546771E-02  0.2782128E+00
         22   -1    0    0    0    0  0.00000000000E+00  0.00000000000E+00  0.87895433217E+00  0.87895433217E+00  0.00000000000E+00 0. -1.
         22   -1    0    0    0    0 -0.00000000000E+00 -0.00000000000E+00 -0.66717915762E+01  0.66717915762E+01  0.00000000000E+00 0.  1.
          4    1    1    2  501    0  0.25170731752E+00  0.19526558005E+01 -0.38512281921E+01  0.45078908412E+01  0.12700000000E+01 0.  1.
         -4    1    1    2    0  501 -0.25170731752E+00 -0.19526558005E+01 -0.19416090519E+01  0.30428550671E+01  0.12700000000E+01 0.  1.
<mgrwt>
<rscale>  0 0.23428874E+01</rscale>
<asrwt>0</asrwt>
<pdfrwt beam="1">0</pdfrwt>
<pdfrwt beam="2">0</pdfrwt>
<totfact> 0.29905862E+12</totfact>
</mgrwt>
</event>
<event>
 4    1  0.1735226E+006  0.2067469E+01  0.7546771E-02  0.2936625E+00
         22   -1    0    0    0    0  0.00000000000E+00  0.00000000000E+00  0.13089736527E+00  0.13089736527E+00  0.00000000000E+00 0.  1.
         22   -1    0    0    0    0 -0.00000000000E+00 -0.00000000000E+00 -0.32790351167E+02  0.32790351167E+02  0.00000000000E+00 0. -1.
          4    1    1    2  501    0 -0.21869412826E+00  0.16166943920E+01 -0.17388048379E+02  0.17510529812E+02  0.12700000000E+01 0. -1.
         -4    1    1    2    0  501  0.21869412826E+00 -0.16166943920E+01 -0.15271405423E+02  0.15410718720E+02  0.12700000000E+01 0.  1.
<mgrwt>
<rscale>  0 0.20674690E+01</rscale>
<asrwt>0</asrwt>
<pdfrwt beam="1">0</pdfrwt>
<pdfrwt beam="2">0</pdfrwt>
<totfact> 0.35707130E+12</totfact>
</mgrwt>
</event>
<event>
 4    1  0.1735226E+006  0.2508341E+01  0.7546771E-02  0.2704864E+00
         22   -1    0    0    0    0  0.00000000000E+00  0.00000000000E+00  0.14222321565E+01  0.14222321565E+01  0.00000000000E+00 0.  1.
         22   -1    0    0    0    0 -0.00000000000E+00 -0.00000000000E+00 -0.63655513234E+01  0.63655513234E+01  0.00000000000E+00 0. -1.
          4    1    1    2  501    0  0.62624858222E+00 -0.20704322368E+01 -0.32108600608E+00  0.25288086438E+01  0.12700000000E+01 0.  1.
         -4    1    1    2    0  501 -0.62624858222E+00  0.20704322368E+01 -0.46222331608E+01  0.52589748361E+01  0.12700000000E+01 0. -1.
<mgrwt>
<rscale>  0 0.25083415E+01</rscale>
<asrwt>0</asrwt>
<pdfrwt beam="1">0</pdfrwt>
<pdfrwt beam="2">0</pdfrwt>
<totfact> 0.18236996E+12</totfact>
</mgrwt>
</event>
<event>
 4    1  0.1735226E+006  0.2235028E+01  0.7546771E-02  0.2838287E+00
         22   -1    0    0    0    0  0.00000000000E+00  0.00000000000E+00  0.38980425892E+02  0.38980425892E+02  0.00000000000E+00 0.  1.
         22   -1    0    0    0    0 -0.00000000000E+00 -0.00000000000E+00 -0.21537497369E+00  0.21537497369E+00  0.00000000000E+00 0. -1.
          4    1    1    2  501    0 -0.80501686429E+00 -0.16536019485E+01  0.31854399456E+02  0.31932712322E+02  0.12700000000E+01 0.  1.
         -4    1    1    2    0  501  0.80501686429E+00  0.16536019485E+01  0.69106514624E+01  0.72630885435E+01  0.12700000000E+01 0. -1.
<mgrwt>
<rscale>  0 0.22350283E+01</rscale>
<asrwt>0</asrwt>
<pdfrwt beam="1">0</pdfrwt>
<pdfrwt beam="2">0</pdfrwt>
<totfact> 0.16415617E+12</totfact>
</mgrwt>
</event>
<event>
 4    1  0.1735226E+006  0.2428043E+01  0.7546771E-02  0.2741130E+00
         22   -1    0    0    0    0  0.00000000000E+00  0.00000000000E+00  0.69181574200E+02  0.69181574200E+02  0.00000000000E+00 0.  1.
         22   -1    0    0    0    0 -0.00000000000E+00 -0.00000000000E+00 -0.85364497731E-01  0.85364497731E-01  0.00000000000E+00 0. -1.
          4    1    1    2  501    0 -0.19185007285E+01  0.77578702973E+00  0.33104557572E+02  0.33193480122E+02  0.12700000000E+01 0. -1.
         -4    1    1    2    0  501  0.19185007285E+01 -0.77578702973E+00  0.35991652130E+02  0.36073458576E+02  0.12700000000E+01 0.  1.
<mgrwt>
<rscale>  0 0.24280425E+01</rscale>
<asrwt>0</asrwt>
<pdfrwt beam="1">0</pdfrwt>
<pdfrwt beam="2">0</pdfrwt>
<totfact> 0.21473102E+12</totfact>
</mgrwt>
</event>
<event>
 4    1  0.1735226E+006  0.3225418E+01  0.7546771E-02  0.2455412E+00
         22   -1    0    0    0    0  0.00000000000E+00  0.00000000000E+00  0.42741374841E+02  0.42741374841E+02  0.00000000000E+00 0.  1.
         22   -1    0    0    0    0 -0.00000000000E+00 -0.00000000000E+00 -0.24340195138E+00  0.24340195138E+00  0.00000000000E+00 0. -1.
          4    1    1    2  501    0  0.22564270050E+01  0.19232676380E+01  0.21225142214E+02  0.21468814202E+02  0.12700000000E+01 0.  1.
         -4    1    1    2    0  501 -0.22564270050E+01 -0.19232676380E+01  0.21272830676E+02  0.21515962591E+02  0.12700000000E+01 0. -1.
<mgrwt>
<rscale>  0 0.32254180E+01</rscale>
<asrwt>0</asrwt>
<pdfrwt beam="1">0</pdfrwt>
<pdfrwt beam="2">0</pdfrwt>
<totfact> 0.12703792E+12</totfact>
</mgrwt>
</event>
<event>
 4    1  0.1735226E+006  0.3379181E+01  0.7546771E-02  0.2414424E+00
         22   -1    0    0    0    0  0.00000000000E+00  0.00000000000E+00  0.22340678712E+02  0.22340678712E+02  0.00000000000E+00 0. -1.
         22   -1    0    0    0    0 -0.00000000000E+00 -0.00000000000E+00 -0.19277592862E+01  0.19277592862E+01  0.00000000000E+00 0. -1.
          4    1    1    2  501    0  0.74016633041E+00  0.30427158071E+01  0.20608400936E+02  0.20883607323E+02  0.12700000000E+01 0. -1.
         -4    1    1    2    0  501 -0.74016633041E+00 -0.30427158071E+01 -0.19548151011E+00  0.33848306753E+01  0.12700000000E+01 0. -1.
<mgrwt>
<rscale>  0 0.33791812E+01</rscale>
<asrwt>0</asrwt>
<pdfrwt beam="1">0</pdfrwt>
<pdfrwt beam="2">0</pdfrwt>
<totfact> 0.27748354E+11</totfact>
</mgrwt>
</event>
<event>
 4    1  0.1735226E+006  0.4717522E+01  0.7546771E-02  0.2158311E+00
         22   -1    0    0    0    0  0.00000000000E+00  0.00000000000E+00  0.43590465696E+01  0.43590465696E+01  0.00000000000E+00 0.  1.
         22   -1    0    0    0    0 -0.00000000000E+00 -0.00000000000E+00 -0.84930727167E+01  0.84930727167E+01  0.00000000000E+00 0.  1.
          4    1    1    2  501    0  0.41148380130E+01  0.19261940382E+01  0.19914170163E+01  0.51206207708E+01  0.12700000000E+01 0.  1.
         -4    1    1    2    0  501 -0.41148380130E+01 -0.19261940382E+01 -0.61254431634E+01  0.77314985154E+01  0.12700000000E+01 0.  1.
<mgrwt>
<rscale>  0 0.47175222E+01</rscale>
<asrwt>0</asrwt>
<pdfrwt beam="1">0</pdfrwt>
<pdfrwt beam="2">0</pdfrwt>
<totfact> 0.35072079E+11</totfact>
</mgrwt>
</event>
<event>
 4    1  0.1735226E+006  0.2210193E+01  0.7546771E-02  0.2851956E+00
         22   -1    0    0    0    0  0.00000000000E+00  0.00000000000E+00  0.43719066266E+01  0.43719066266E+01  0.00000000000E+00 0. -1.
         22   -1    0    0    0    0 -0.00000000000E+00 -0.00000000000E+00 -0.12414863921E+01  0.12414863921E+01  0.00000000000E+00 0. -1.
          4    1    1    2  501    0 -0.93222009579E+00 -0.15501675433E+01  0.24527185571E+01  0.33016332382E+01  0.12700000000E+01 0. -1.
         -4    1    1    2    0  501  0.93222009579E+00  0.15501675433E+01  0.67770167742E+00  0.23117597805E+01  0.12700000000E+01 0. -1.
<mgrwt>
<rscale>  0 0.22101931E+01</rscale>
<asrwt>0</asrwt>
<pdfrwt beam="1">0</pdfrwt>
<pdfrwt beam="2">0</pdfrwt>
<totfact> 0.33281079E+12</totfact>
</mgrwt>
</event>
<event>
 4    1  0.1735226E+006  0.2973957E+01  0.7546771E-02  0.2530474E+00
         22   -1    0    0    0    0  0.00000000000E+00  0.00000000000E+00  0.68545238837E+01  0.68545238837E+01  0.00000000000E+00 0. -1.
         22   -1    0    0    0    0 -0.00000000000E+00 -0.00000000000E+00 -0.12952740895E+01  0.12952740895E+01  0.00000000000E+00 0.  1.
          4    1    1    2  501    0  0.14653579983E+01  0.22548269906E+01  0.25272053477E+01  0.39027151690E+01  0.12700000000E+01 0. -1.
         -4    1    1    2    0  501 -0.14653579983E+01 -0.22548269906E+01  0.30320444465E+01  0.42470828042E+01  0.12700000000E+01 0. -1.
<mgrwt>
<rscale>  0 0.29739568E+01</rscale>
<asrwt>0</asrwt>
<pdfrwt beam="1">0</pdfrwt>
<pdfrwt beam="2">0</pdfrwt>
<totfact> 0.18587550E+12</totfact>
</mgrwt>
</event>
<event>
 4    1  0.1735226E+006  0.2621411E+01  0.7546771E-02  0.2657309E+00
         22   -1    0    0    0    0  0.00000000000E+00  0.00000000000E+00  0.53357470676E+01  0.53357470676E+01  0.00000000000E+00 0.  1.
         22   -1    0    0    0    0 -0.00000000000E+00 -0.00000000000E+00 -0.25814141793E+01  0.25814141793E+01  0.00000000000E+00 0. -1.
          4    1    1    2  501    0  0.22469078395E+01  0.45858764432E+00  0.41793704125E+01  0.49334505685E+01  0.12700000000E+01 0. -1.
         -4    1    1    2    0  501 -0.22469078395E+01 -0.45858764432E+00 -0.14250375242E+01  0.29837106784E+01  0.12700000000E+01 0. -1.
<mgrwt>
<rscale>  0 0.26214114E+01</rscale>
<asrwt>0</asrwt>
<pdfrwt beam="1">0</pdfrwt>
<pdfrwt beam="2">0</pdfrwt>
<totfact> 0.11290264E+12</totfact>
</mgrwt>
</event>
<event>
 4    1  0.1735226E+006  0.2239587E+01  0.7546771E-02  0.2835809E+00
         22   -1    0    0    0    0  0.00000000000E+00  0.00000000000E+00  0.12639413524E+02  0.12639413524E+02  0.00000000000E+00 0.  1.
         22   -1    0    0    0    0 -0.00000000000E+00 -0.00000000000E+00 -0.15588658404E+01  0.15588658404E+01  0.00000000000E+00 0.  1.
          4    1    1    2  501    0  0.13139817013E+01 -0.12947213902E+01  0.11669566105E+02  0.11882530222E+02  0.12700000000E+01 0.  1.
         -4    1    1    2    0  501 -0.13139817013E+01  0.12947213902E+01 -0.58901842168E+00  0.23157491424E+01  0.12700000000E+01 0.  1.
<mgrwt>
<rscale>  0 0.22395873E+01</rscale>
<asrwt>0</asrwt>
<pdfrwt beam="1">0</pdfrwt>
<pdfrwt beam="2">0</pdfrwt>
<totfact> 0.71729074E+11</totfact>
</mgrwt>
</event>
<event>
 4    1  0.1735226E+006  0.2489654E+01  0.7546771E-02  0.2713109E+00
         22   -1    0    0    0    0  0.00000000000E+00  0.00000000000E+00  0.55202874686E+00  0.55202874686E+00  0.00000000000E+00 0.  1.
         22   -1    0    0    0    0 -0.00000000000E+00 -0.00000000000E+00 -0.11513947849E+02  0.11513947849E+02  0.00000000000E+00 0. -1.
          4    1    1    2  501    0  0.21397769688E+01  0.82647898698E-01 -0.45308097666E+01  0.51697788437E+01  0.12700000000E+01 0.  1.
         -4    1    1    2    0  501 -0.21397769688E+01 -0.82647898698E-01 -0.64311093354E+01  0.68961977520E+01  0.12700000000E+01 0. -1.
<mgrwt>
<rscale>  0 0.24896538E+01</rscale>
<asrwt>0</asrwt>
<pdfrwt beam="1">0</pdfrwt>
<pdfrwt beam="2">0</pdfrwt>
<totfact> 0.26265939E+12</totfact>
</mgrwt>
</event>
<event>
 4    1  0.1735226E+006  0.2390958E+01  0.7546771E-02  0.2758646E+00
         22   -1    0    0    0    0  0.00000000000E+00  0.00000000000E+00  0.36489384052E+00  0.36489384052E+00  0.00000000000E+00 0.  1.
         22   -1    0    0    0    0 -0.00000000000E+00 -0.00000000000E+00 -0.23594209412E+02  0.23594209412E+02  0.00000000000E+00 0. -1.
          4    1    1    2  501    0  0.84788196715E+00 -0.18398034617E+01 -0.46707113657E+01  0.52471159001E+01  0.12700000000E+01 0.  1.
         -4    1    1    2    0  501 -0.84788196715E+00  0.18398034617E+01 -0.18558604206E+02  0.18711987352E+02  0.12700000000E+01 0. -1.
<mgrwt>
<rscale>  0 0.23909581E+01</rscale>
<asrwt>0</asrwt>
<pdfrwt beam="1">0</pdfrwt>
<pdfrwt beam="2">0</pdfrwt>
<totfact> 0.17254438E+12</totfact>
</mgrwt>
</event>
<event>
 4    1  0.1735226E+006  0.3037735E+01  0.7546771E-02  0.2510388E+00
         22   -1    0    0    0    0  0.00000000000E+00  0.00000000000E+00  0.38220410079E+02  0.38220410079E+02  0.00000000000E+00 0. -1.
         22   -1    0    0    0    0 -0.00000000000E+00 -0.00000000000E+00 -0.54414764363E+00  0.54414764363E+00  0.00000000000E+00 0.  1.
          4    1    1    2  501    0 -0.17057358743E+01  0.21691925091E+01  0.33294530066E+02  0.33432821648E+02  0.12700000000E+01 0. -1.
         -4    1    1    2    0  501  0.17057358743E+01 -0.21691925091E+01  0.43817323691E+01  0.53317360745E+01  0.12700000000E+01 0.  1.
<mgrwt>
<rscale>  0 0.30377345E+01</rscale>
<asrwt>0</asrwt>
<pdfrwt beam="1">0</pdfrwt>
<pdfrwt beam="2">0</pdfrwt>
<totfact> 0.59454904E+11</totfact>
</mgrwt>
</event>
<event>
 4    1  0.1735226E+006  0.2561998E+01  0.7546771E-02  0.2681813E+00
         22   -1    0    0    0    0  0.00000000000E+00  0.00000000000E+00  0.84150287969E+02  0.84150287969E+02  0.00000000000E+00 0.  1.
         22   -1    0    0    0    0 -0.00000000000E+00 -0.00000000000E+00 -0.78585008607E-01  0.78585008607E-01  0.00000000000E+00 0. -1.
          4    1    1    2  501    0 -0.18215625238E+01  0.12778273058E+01  0.38406277296E+02  0.38491635044E+02  0.12700000000E+01 0. -1.
         -4    1    1    2    0  501  0.18215625238E+01 -0.12778273058E+01  0.45665425665E+02  0.45737237933E+02  0.12700000000E+01 0. -1.
<mgrwt>
<rscale>  0 0.25619978E+01</rscale>
<asrwt>0</asrwt>
<pdfrwt beam="1">0</pdfrwt>
<pdfrwt beam="2">0</pdfrwt>
<totfact> 0.17998042E+12</totfact>
</mgrwt>
</event>
<event>
 4    1  0.1735226E+006  0.2283012E+01  0.7546771E-02  0.2812680E+00
         22   -1    0    0    0    0  0.00000000000E+00  0.00000000000E+00  0.93549224998E+01  0.93549224998E+01  0.00000000000E+00 0. -1.
         22   -1    0    0    0    0 -0.00000000000E+00 -0.00000000000E+00 -0.55719839054E+00  0.55719839054E+00  0.00000000000E+00 0. -1.
          4    1    1    2  501    0 -0.13752430861E+01  0.13068863263E+01  0.44424043009E+01  0.49947073376E+01  0.12700000000E+01 0. -1.
         -4    1    1    2    0  501  0.13752430861E+01 -0.13068863263E+01  0.43553198084E+01  0.49174135528E+01  0.12700000000E+01 0. -1.
<mgrwt>
<rscale>  0 0.22830124E+01</rscale>
<asrwt>0</asrwt>
<pdfrwt beam="1">0</pdfrwt>
<pdfrwt beam="2">0</pdfrwt>
<totfact> 0.33431910E+12</totfact>
</mgrwt>
</event>
<event>
 4    1  0.1735226E+006  0.2006112E+01  0.7546771E-02  0.2976614E+00
         22   -1    0    0    0    0  0.00000000000E+00  0.00000000000E+00  0.17091476997E+01  0.17091476997E+01  0.00000000000E+00 0.  1.
         22   -1    0    0    0    0 -0.00000000000E+00 -0.00000000000E+00 -0.24793153880E+01  0.24793153880E+01  0.00000000000E+00 0. -1.
          4    1    1    2  501    0 -0.10743513443E+01 -0.11213189850E+01 -0.85464103227E+00  0.21805729456E+01  0.12700000000E+01 0.  1.
         -4    1    1    2    0  501  0.10743513443E+01  0.11213189850E+01  0.84473343972E-01  0.20078901421E+01  0.12700000000E+01 0.  1.
<mgrwt>
<rscale>  0 0.20061124E+01</rscale>
<asrwt>0</asrwt>
<pdfrwt beam="1">0</pdfrwt>
<pdfrwt beam="2">0</pdfrwt>
<totfact> 0.44768642E+12</totfact>
</mgrwt>
</event>
<event>
 4    1  0.1735226E+006  0.2010860E+01  0.7546771E-02  0.2973434E+00
         22   -1    0    0    0    0  0.00000000000E+00  0.00000000000E+00  0.13858656539E+02  0.13858656539E+02  0.00000000000E+00 0. -1.
         22   -1    0    0    0    0 -0.00000000000E+00 -0.00000000000E+00 -0.42255192572E+00  0.42255192572E+00  0.00000000000E+00 0. -1.
          4    1    1    2  501    0 -0.14724767021E+01  0.51231842081E+00  0.10690577659E+02  0.10878051686E+02  0.12700000000E+01 0. -1.
         -4    1    1    2    0  501  0.14724767021E+01 -0.51231842081E+00  0.27455269538E+01  0.34031567781E+01  0.12700000000E+01 0. -1.
<mgrwt>
<rscale>  0 0.20108600E+01</rscale>
<asrwt>0</asrwt>
<pdfrwt beam="1">0</pdfrwt>
<pdfrwt beam="2">0</pdfrwt>
<totfact> 0.28314822E+12</totfact>
</mgrwt>
</event>
<event>
 4    1  0.1735226E+006  0.4140177E+01  0.7546771E-02  0.2251274E+00
         22   -1    0    0    0    0  0.00000000000E+00  0.00000000000E+00  0.58092893372E+01  0.58092893372E+01  0.00000000000E+00 0. -1.
         22   -1    0    0    0    0 -0.00000000000E+00 -0.00000000000E+00 -0.31868303528E+01  0.31868303528E+01  0.00000000000E+00 0.  1.
          4    1    1    2  501    0  0.39093660970E+01 -0.49499494154E+00  0.86652635543E-01  0.41410834273E+01  0.12700000000E+01 0.  1.
         -4    1    1    2    0  501 -0.39093660970E+01  0.49499494154E+00  0.25358063489E+01  0.48550362627E+01  0.12700000000E+01 0. -1.
<mgrwt>
<rscale>  0 0.41401767E+01</rscale>
<asrwt>0</asrwt>
<pdfrwt beam="1">0</pdfrwt>
<pdfrwt beam="2">0</pdfrwt>
<totfact> 0.79813531E+11</totfact>
</mgrwt>
</event>
<event>
 4    1  0.1735226E+006  0.2104735E+01  0.7546771E-02  0.2913447E+00
         22   -1    0    0    0    0  0.00000000000E+00  0.00000000000E+00  0.17198895829E+01  0.17198895829E+01  0.00000000000E+00 0. -1.
         22   -1    0    0    0    0 -0.00000000000E+00 -0.00000000000E+00 -0.30085103348E+01  0.30085103348E+01  0.00000000000E+00 0.  1.
          4    1    1    2  501    0  0.10112552818E+01  0.13395421446E+01  0.25241600291E+00  0.21198170300E+01  0.12700000000E+01 0. -1.
         -4    1    1    2    0  501 -0.10112552818E+01 -0.13395421446E+01 -0.15410367548E+01  0.26085828877E+01  0.12700000000E+01 0. -1.
<mgrwt>
<rscale>  0 0.21047352E+01</rscale>
<asrwt>0</asrwt>
<pdfrwt beam="1">0</pdfrwt>
<pdfrwt beam="2">0</pdfrwt>
<totfact> 0.35474408E+12</totfact>
</mgrwt>
</event>
<event>
 4    1  0.1735226E+006  0.2346118E+01  0.7546771E-02  0.2780521E+00
         22   -1    0    0    0    0  0.00000000000E+00  0.00000000000E+00  0.14668211195E+01  0.14668211195E+01  0.00000000000E+00 0. -1.
         22   -1    0    0    0    0 -0.00000000000E+00 -0.00000000000E+00 -0.38209867210E+02  0.38209867210E+02  0.00000000000E+00 0.  1.
          4    1    1    2  501    0 -0.19672964088E+01  0.14531114767E+00  0.46750955188E+00  0.23922449020E+01  0.12700000000E+01 0. -1.
         -4    1    1    2    0  501  0.19672964088E+01 -0.14531114767E+00 -0.37210555642E+02  0.37284443428E+02  0.12700000000E+01 0.  1.
<mgrwt>
<rscale>  0 0.23461182E+01</rscale>
<asrwt>0</asrwt>
<pdfrwt beam="1">0</pdfrwt>
<pdfrwt beam="2">0</pdfrwt>
<totfact> 0.19204008E+11</totfact>
</mgrwt>
</event>
<event>
 4    1  0.1735226E+006  0.2669453E+01  0.7546771E-02  0.2638231E+00
         22   -1    0    0    0    0  0.00000000000E+00  0.00000000000E+00  0.17648069152E+00  0.17648069152E+00  0.00000000000E+00 0.  1.
         22   -1    0    0    0    0 -0.00000000000E+00 -0.00000000000E+00 -0.71159213837E+02  0.71159213837E+02  0.00000000000E+00 0.  1.
          4    1    1    2  501    0  0.11560595987E+01  0.20436748258E+01 -0.12032746016E+02  0.12325297452E+02  0.12700000000E+01 0.  1.
         -4    1    1    2    0  501 -0.11560595987E+01 -0.20436748258E+01 -0.58949987130E+02  0.59010397077E+02  0.12700000000E+01 0.  1.
<mgrwt>
<rscale>  0 0.26694532E+01</rscale>
<asrwt>0</asrwt>
<pdfrwt beam="1">0</pdfrwt>
<pdfrwt beam="2">0</pdfrwt>
<totfact> 0.92331509E+11</totfact>
</mgrwt>
</event>
<event>
 4    1  0.1735226E+006  0.2210767E+01  0.7546771E-02  0.2851637E+00
         22   -1    0    0    0    0  0.00000000000E+00  0.00000000000E+00  0.25880124745E+01  0.25880124745E+01  0.00000000000E+00 0. -1.
         22   -1    0    0    0    0 -0.00000000000E+00 -0.00000000000E+00 -0.19802924597E+01  0.19802924597E+01  0.00000000000E+00 0.  1.
          4    1    1    2  501    0  0.15557588067E+01  0.92423253517E+00 -0.18788141160E+00  0.22187362773E+01  0.12700000000E+01 0.  1.
         -4    1    1    2    0  501 -0.15557588067E+01 -0.92423253517E+00  0.79560142634E+00  0.23495686568E+01  0.12700000000E+01 0. -1.
<mgrwt>
<rscale>  0 0.22107671E+01</rscale>
<asrwt>0</asrwt>
<pdfrwt beam="1">0</pdfrwt>
<pdfrwt beam="2">0</pdfrwt>
<totfact> 0.35927490E+12</totfact>
</mgrwt>
</event>
<event>
 4    1  0.1735226E+006  0.2182685E+01  0.7546771E-02  0.2867444E+00
         22   -1    0    0    0    0  0.00000000000E+00  0.00000000000E+00  0.58287872899E+00  0.58287872899E+00  0.00000000000E+00 0. -1.
         22   -1    0    0    0    0 -0.00000000000E+00 -0.00000000000E+00 -0.87813980651E+01  0.87813980651E+01  0.00000000000E+00 0. -1.
          4    1    1    2  501    0 -0.47089442185E+00  0.17115701675E+01 -0.28672742919E+01  0.36035227014E+01  0.12700000000E+01 0. -1.
         -4    1    1    2    0  501  0.47089442185E+00 -0.17115701675E+01 -0.53312450442E+01  0.57607540927E+01  0.12700000000E+01 0. -1.
<mgrwt>
<rscale>  0 0.21826850E+01</rscale>
<asrwt>0</asrwt>
<pdfrwt beam="1">0</pdfrwt>
<pdfrwt beam="2">0</pdfrwt>
<totfact> 0.34289880E+12</totfact>
</mgrwt>
</event>
<event>
 4    1  0.1735226E+006  0.2124205E+01  0.7546771E-02  0.2901652E+00
         22   -1    0    0    0    0  0.00000000000E+00  0.00000000000E+00  0.12088601292E+01  0.12088601292E+01  0.00000000000E+00 0. -1.
         22   -1    0    0    0    0 -0.00000000000E+00 -0.00000000000E+00 -0.37354623517E+01  0.37354623517E+01  0.00000000000E+00 0.  1.
          4    1    1    2  501    0  0.15254913672E+01  0.75645390303E+00 -0.11954150860E+01  0.24374707479E+01  0.12700000000E+01 0. -1.
         -4    1    1    2    0  501 -0.15254913672E+01 -0.75645390303E+00 -0.13311871365E+01  0.25068517330E+01  0.12700000000E+01 0.  1.
<mgrwt>
<rscale>  0 0.21242049E+01</rscale>
<asrwt>0</asrwt>
<pdfrwt beam="1">0</pdfrwt>
<pdfrwt beam="2">0</pdfrwt>
<totfact> 0.41292535E+12</totfact>
</mgrwt>
</event>
<event>
 4    1  0.1735226E+006  0.2010130E+01  0.7546771E-02  0.2973923E+00
         22   -1    0    0    0    0  0.00000000000E+00  0.00000000000E+00  0.32695611842E+01  0.32695611842E+01  0.00000000000E+00 0. -1.
         22   -1    0    0    0    0 -0.00000000000E+00 -0.00000000000E+00 -0.12488835873E+01  0.12488835873E+01  0.00000000000E+00 0. -1.
          4    1    1    2  501    0 -0.14105404290E+01 -0.66188871544E+00  0.12413149492E+01  0.23625164077E+01  0.12700000000E+01 0. -1.
         -4    1    1    2    0  501  0.14105404290E+01  0.66188871544E+00  0.77936264769E+00  0.21559283639E+01  0.12700000000E+01 0. -1.
<mgrwt>
<rscale>  0 0.20101296E+01</rscale>
<asrwt>0</asrwt>
<pdfrwt beam="1">0</pdfrwt>
<pdfrwt beam="2">0</pdfrwt>
<totfact> 0.46503395E+12</totfact>
</mgrwt>
</event>
<event>
 4    1  0.1735226E+006  0.2562602E+01  0.7546771E-02  0.2681558E+00
         22   -1    0    0    0    0  0.00000000000E+00  0.00000000000E+00  0.24240405890E+01  0.24240405890E+01  0.00000000000E+00 0.  1.
         22   -1    0    0    0    0 -0.00000000000E+00 -0.00000000000E+00 -0.28618554087E+01  0.28618554087E+01  0.00000000000E+00 0.  1.
          4    1    1    2  501    0  0.21586795241E+01 -0.54234088284E+00 -0.82954709685E+00  0.26935254420E+01  0.12700000000E+01 0.  1.
         -4    1    1    2    0  501 -0.21586795241E+01  0.54234088284E+00  0.39173227719E+00  0.25923705557E+01  0.12700000000E+01 0.  1.
<mgrwt>
<rscale>  0 0.25626024E+01</rscale>
<asrwt>0</asrwt>
<pdfrwt beam="1">0</pdfrwt>
<pdfrwt beam="2">0</pdfrwt>
<totfact> 0.25275228E+12</totfact>
</mgrwt>
</event>
<event>
 4    1  0.1735226E+006  0.2146686E+01  0.7546771E-02  0.2888289E+00
         22   -1    0    0    0    0  0.00000000000E+00  0.00000000000E+00  0.30832972660E+00  0.30832972660E+00  0.00000000000E+00 0.  1.
         22   -1    0    0    0    0 -0.00000000000E+00 -0.00000000000E+00 -0.18042177881E+02  0.18042177881E+02  0.00000000000E+00 0.  1.
          4    1    1    2  501    0  0.19370680336E+00 -0.17198363556E+01 -0.50659500594E+01  0.55020095801E+01  0.12700000000E+01 0.  1.
         -4    1    1    2    0  501 -0.19370680336E+00  0.17198363556E+01 -0.12667898095E+02  0.12848498028E+02  0.12700000000E+01 0.  1.
<mgrwt>
<rscale>  0 0.21466857E+01</rscale>
<asrwt>0</asrwt>
<pdfrwt beam="1">0</pdfrwt>
<pdfrwt beam="2">0</pdfrwt>
<totfact> 0.29144114E+12</totfact>
</mgrwt>
</event>
<event>
 4    1  0.1735226E+006  0.2344880E+01  0.7546771E-02  0.2781137E+00
         22   -1    0    0    0    0  0.00000000000E+00  0.00000000000E+00  0.53086082397E+01  0.53086082397E+01  0.00000000000E+00 0.  1.
         22   -1    0    0    0    0 -0.00000000000E+00 -0.00000000000E+00 -0.11890389043E+01  0.11890389043E+01  0.00000000000E+00 0. -1.
          4    1    1    2  501    0  0.14451202182E+01 -0.13405926237E+01  0.32262310042E+01  0.39883615082E+01  0.12700000000E+01 0.  1.
         -4    1    1    2    0  501 -0.14451202182E+01  0.13405926237E+01  0.89333833123E+00  0.25092856358E+01  0.12700000000E+01 0. -1.
<mgrwt>
<rscale>  0 0.23448797E+01</rscale>
<asrwt>0</asrwt>
<pdfrwt beam="1">0</pdfrwt>
<pdfrwt beam="2">0</pdfrwt>
<totfact> 0.27795207E+12</totfact>
</mgrwt>
</event>
<event>
 4    1  0.1735226E+006  0.2852221E+01  0.7546771E-02  0.2571048E+00
         22   -1    0    0    0    0  0.00000000000E+00  0.00000000000E+00  0.13345280266E+02  0.13345280266E+02  0.00000000000E+00 0.  1.
         22   -1    0    0    0    0 -0.00000000000E+00 -0.00000000000E+00 -0.64146384494E+00  0.64146384494E+00  0.00000000000E+00 0. -1.
          4    1    1    2  501    0  0.44268693021E+00 -0.25152124011E+01  0.79107776134E+01  0.84092548772E+01  0.12700000000E+01 0. -1.
         -4    1    1    2    0  501 -0.44268693021E+00  0.25152124011E+01  0.47930388077E+01  0.55774892338E+01  0.12700000000E+01 0. -1.
<mgrwt>
<rscale>  0 0.28522211E+01</rscale>
<asrwt>0</asrwt>
<pdfrwt beam="1">0</pdfrwt>
<pdfrwt beam="2">0</pdfrwt>
<totfact> 0.18505613E+12</totfact>
</mgrwt>
</event>
<event>
 4    1  0.1735226E+006  0.2246252E+01  0.7546771E-02  0.2832204E+00
         22   -1    0    0    0    0  0.00000000000E+00  0.00000000000E+00  0.12182813613E+01  0.12182813613E+01  0.00000000000E+00 0. -1.
         22   -1    0    0    0    0 -0.00000000000E+00 -0.00000000000E+00 -0.41653572791E+01  0.41653572791E+01  0.00000000000E+00 0.  1.
          4    1    1    2  501    0  0.16170944358E+01 -0.90429821023E+00 -0.16767742188E+01  0.28030735717E+01  0.12700000000E+01 0.  1.
         -4    1    1    2    0  501 -0.16170944358E+01  0.90429821023E+00 -0.12703016990E+01  0.25805650687E+01  0.12700000000E+01 0. -1.
<mgrwt>
<rscale>  0 0.22462524E+01</rscale>
<asrwt>0</asrwt>
<pdfrwt beam="1">0</pdfrwt>
<pdfrwt beam="2">0</pdfrwt>
<totfact> 0.36005568E+12</totfact>
</mgrwt>
</event>
<event>
 4    1  0.1735226E+006  0.2400334E+01  0.7546771E-02  0.2754170E+00
         22   -1    0    0    0    0  0.00000000000E+00  0.00000000000E+00  0.32647711778E+01  0.32647711778E+01  0.00000000000E+00 0.  1.
         22   -1    0    0    0    0 -0.00000000000E+00 -0.00000000000E+00 -0.42445290001E+01  0.42445290001E+01  0.00000000000E+00 0. -1.
          4    1    1    2  501    0  0.63214948829E+00 -0.19362569954E+01  0.23799667775E+01  0.33802138971E+01  0.12700000000E+01 0.  1.
         -4    1    1    2    0  501 -0.63214948829E+00  0.19362569954E+01 -0.33597245998E+01  0.41290862808E+01  0.12700000000E+01 0. -1.
<mgrwt>
<rscale>  0 0.24003342E+01</rscale>
<asrwt>0</asrwt>
<pdfrwt beam="1">0</pdfrwt>
<pdfrwt beam="2">0</pdfrwt>
<totfact> 0.11249306E+12</totfact>
</mgrwt>
</event>
<event>
 4    1  0.1735226E+006  0.2553275E+01  0.7546771E-02  0.2685499E+00
         22   -1    0    0    0    0  0.00000000000E+00  0.00000000000E+00  0.23587333537E+01  0.23587333537E+01  0.00000000000E+00 0.  1.
         22   -1    0    0    0    0 -0.00000000000E+00 -0.00000000000E+00 -0.78914251746E+01  0.78914251746E+01  0.00000000000E+00 0.  1.
          4    1    1    2  501    0  0.20222262973E+01 -0.90383254968E+00  0.13648747557E+01  0.28951848946E+01  0.12700000000E+01 0.  1.
         -4    1    1    2    0  501 -0.20222262973E+01  0.90383254968E+00 -0.68975665766E+01  0.73549736338E+01  0.12700000000E+01 0.  1.
<mgrwt>
<rscale>  0 0.25532749E+01</rscale>
<asrwt>0</asrwt>
<pdfrwt beam="1">0</pdfrwt>
<pdfrwt beam="2">0</pdfrwt>
<totfact> 0.78602579E+11</totfact>
</mgrwt>
</event>
<event>
 4    1  0.1735226E+006  0.2195814E+01  0.7546771E-02  0.2860006E+00
         22   -1    0    0    0    0  0.00000000000E+00  0.00000000000E+00  0.33467143491E+00  0.33467143491E+00  0.00000000000E+00 0.  1.
         22   -1    0    0    0    0 -0.00000000000E+00 -0.00000000000E+00 -0.19185536660E+02  0.19185536660E+02  0.00000000000E+00 0. -1.
          4    1    1    2  501    0  0.32297279238E+00 -0.17619274493E+01 -0.45544508009E+01  0.50561469381E+01  0.12700000000E+01 0.  1.
         -4    1    1    2    0  501 -0.32297279238E+00  0.17619274493E+01 -0.14296414424E+02  0.14464061157E+02  0.12700000000E+01 0. -1.
<mgrwt>
<rscale>  0 0.21958141E+01</rscale>
<asrwt>0</asrwt>
<pdfrwt beam="1">0</pdfrwt>
<pdfrwt beam="2">0</pdfrwt>
<totfact> 0.24628597E+12</totfact>
</mgrwt>
</event>
<event>
 4    1  0.1735226E+006  0.2067065E+01  0.7546771E-02  0.2936881E+00
         22   -1    0    0    0    0  0.00000000000E+00  0.00000000000E+00  0.77233170716E+00  0.77233170716E+00  0.00000000000E+00 0.  1.
         22   -1    0    0    0    0 -0.00000000000E+00 -0.00000000000E+00 -0.68683020714E+01  0.68683020714E+01  0.00000000000E+00 0.  1.
          4    1    1    2  501    0  0.62546330564E+00 -0.15062042781E+01 -0.13630568873E+01  0.24760209515E+01  0.12700000000E+01 0.  1.
         -4    1    1    2    0  501 -0.62546330564E+00  0.15062042781E+01 -0.47329134769E+01  0.51646128271E+01  0.12700000000E+01 0.  1.
<mgrwt>
<rscale>  0 0.20670645E+01</rscale>
<asrwt>0</asrwt>
<pdfrwt beam="1">0</pdfrwt>
<pdfrwt beam="2">0</pdfrwt>
<totfact> 0.33464948E+12</totfact>
</mgrwt>
</event>
<event>
 4    1  0.1735226E+006  0.2374810E+01  0.7546771E-02  0.2766434E+00
         22   -1    0    0    0    0  0.00000000000E+00  0.00000000000E+00  0.95572463562E+00  0.95572463562E+00  0.00000000000E+00 0.  1.
         22   -1    0    0    0    0 -0.00000000000E+00 -0.00000000000E+00 -0.61572026931E+01  0.61572026931E+01  0.00000000000E+00 0.  1.
          4    1    1    2  501    0 -0.19996317907E+01  0.16821443986E+00 -0.18752592608E+01  0.30259412901E+01  0.12700000000E+01 0.  1.
         -4    1    1    2    0  501  0.19996317907E+01 -0.16821443986E+00 -0.33262187968E+01  0.40869860386E+01  0.12700000000E+01 0.  1.
<mgrwt>
<rscale>  0 0.23748102E+01</rscale>
<asrwt>0</asrwt>
<pdfrwt beam="1">0</pdfrwt>
<pdfrwt beam="2">0</pdfrwt>
<totfact> 0.29913858E+12</totfact>
</mgrwt>
</event>
<event>
 4    1  0.1735226E+006  0.2176074E+01  0.7546771E-02  0.2871223E+00
         22   -1    0    0    0    0  0.00000000000E+00  0.00000000000E+00  0.19389659868E+00  0.19389659868E+00  0.00000000000E+00 0.  1.
         22   -1    0    0    0    0 -0.00000000000E+00 -0.00000000000E+00 -0.31493767673E+02  0.31493767673E+02  0.00000000000E+00 0. -1.
          4    1    1    2  501    0 -0.16937314840E+01 -0.50365707952E+00 -0.81420232547E+01  0.84278015801E+01  0.12700000000E+01 0.  1.
         -4    1    1    2    0  501  0.16937314840E+01  0.50365707952E+00 -0.23157847820E+02  0.23259862692E+02  0.12700000000E+01 0. -1.
<mgrwt>
<rscale>  0 0.21760737E+01</rscale>
<asrwt>0</asrwt>
<pdfrwt beam="1">0</pdfrwt>
<pdfrwt beam="2">0</pdfrwt>
<totfact> 0.24284849E+12</totfact>
</mgrwt>
</event>
<event>
 4    1  0.1735226E+006  0.2461092E+01  0.7546771E-02  0.2725936E+00
         22   -1    0    0    0    0  0.00000000000E+00  0.00000000000E+00  0.22553138077E+02  0.22553138077E+02  0.00000000000E+00 0.  1.
         22   -1    0    0    0    0 -0.00000000000E+00 -0.00000000000E+00 -0.31110988847E+00  0.31110988847E+00  0.00000000000E+00 0. -1.
          4    1    1    2  501    0  0.71254904583E-01 -0.21068925114E+01  0.15348634874E+02  0.15544695745E+02  0.12700000000E+01 0.  1.
         -4    1    1    2    0  501 -0.71254904583E-01  0.21068925114E+01  0.68933933143E+01  0.73195522200E+01  0.12700000000E+01 0. -1.
<mgrwt>
<rscale>  0 0.24610919E+01</rscale>
<asrwt>0</asrwt>
<pdfrwt beam="1">0</pdfrwt>
<pdfrwt beam="2">0</pdfrwt>
<totfact> 0.21841817E+12</totfact>
</mgrwt>
</event>
<event>
 4    1  0.1735226E+006  0.2284809E+01  0.7546771E-02  0.2811742E+00
         22   -1    0    0    0    0  0.00000000000E+00  0.00000000000E+00  0.74149776324E+01  0.74149776324E+01  0.00000000000E+00 0. -1.
         22   -1    0    0    0    0 -0.00000000000E+00 -0.00000000000E+00 -0.71665620713E+00  0.71665620713E+00  0.00000000000E+00 0.  1.
          4    1    1    2  501    0  0.17418841639E+01 -0.75715974542E+00  0.38888757447E+01  0.45103997471E+01  0.12700000000E+01 0. -1.
         -4    1    1    2    0  501 -0.17418841639E+01  0.75715974542E+00  0.28094456806E+01  0.36212340925E+01  0.12700000000E+01 0.  1.
<mgrwt>
<rscale>  0 0.22848088E+01</rscale>
<asrwt>0</asrwt>
<pdfrwt beam="1">0</pdfrwt>
<pdfrwt beam="2">0</pdfrwt>
<totfact> 0.33244657E+12</totfact>
</mgrwt>
</event>
<event>
 4    1  0.1735226E+006  0.3713442E+01  0.7546771E-02  0.2335663E+00
         22   -1    0    0    0    0  0.00000000000E+00  0.00000000000E+00  0.24446693720E+01  0.24446693720E+01  0.00000000000E+00 0.  1.
         22   -1    0    0    0    0 -0.00000000000E+00 -0.00000000000E+00 -0.10089059117E+02  0.10089059117E+02  0.00000000000E+00 0. -1.
          4    1    1    2  501    0  0.28945113790E+01  0.19489880404E+01  0.33906457750E+00  0.37288892841E+01  0.12700000000E+01 0.  1.
         -4    1    1    2    0  501 -0.28945113790E+01 -0.19489880404E+01 -0.79834543220E+01  0.88048392045E+01  0.12700000000E+01 0. -1.
<mgrwt>
<rscale>  0 0.37134419E+01</rscale>
<asrwt>0</asrwt>
<pdfrwt beam="1">0</pdfrwt>
<pdfrwt beam="2">0</pdfrwt>
<totfact> 0.56067797E+11</totfact>
</mgrwt>
</event>
<event>
 4    1  0.1735226E+006  0.2361923E+01  0.7546771E-02  0.2772722E+00
         22   -1    0    0    0    0  0.00000000000E+00  0.00000000000E+00  0.28725186908E+02  0.28725186908E+02  0.00000000000E+00 0.  1.
         22   -1    0    0    0    0 -0.00000000000E+00 -0.00000000000E+00 -0.67172292596E+00  0.67172292596E+00  0.00000000000E+00 0. -1.
          4    1    1    2  501    0 -0.68272529673E+00  0.18707395328E+01  0.26419541433E+02  0.26524909986E+02  0.12700000000E+01 0.  1.
         -4    1    1    2    0  501  0.68272529673E+00 -0.18707395328E+01  0.16339225488E+01  0.28719998478E+01  0.12700000000E+01 0. -1.
<mgrwt>
<rscale>  0 0.23619230E+01</rscale>
<asrwt>0</asrwt>
<pdfrwt beam="1">0</pdfrwt>
<pdfrwt beam="2">0</pdfrwt>
<totfact> 0.67548051E+11</totfact>
</mgrwt>
</event>
<event>
 4    1  0.1735226E+006  0.2020789E+01  0.7546771E-02  0.2966832E+00
         22   -1    0    0    0    0  0.00000000000E+00  0.00000000000E+00  0.36170865681E+00  0.36170865681E+00  0.00000000000E+00 0. -1.
         22   -1    0    0    0    0 -0.00000000000E+00 -0.00000000000E+00 -0.12183329801E+02  0.12183329801E+02  0.00000000000E+00 0. -1.
          4    1    1    2  501    0  0.12075709854E+01 -0.10062114585E+01 -0.42120461924E+01  0.46717151359E+01  0.12700000000E+01 0. -1.
         -4    1    1    2    0  501 -0.12075709854E+01  0.10062114585E+01 -0.76095749514E+01  0.78733233216E+01  0.12700000000E+01 0. -1.
<mgrwt>
<rscale>  0 0.20207892E+01</rscale>
<asrwt>0</asrwt>
<pdfrwt beam="1">0</pdfrwt>
<pdfrwt beam="2">0</pdfrwt>
<totfact> 0.39485905E+12</totfact>
</mgrwt>
</event>
<event>
 4    1  0.1735226E+006  0.2287707E+01  0.7546771E-02  0.2810230E+00
         22   -1    0    0    0    0  0.00000000000E+00  0.00000000000E+00  0.51879349569E+01  0.51879349569E+01  0.00000000000E+00 0.  1.
         22   -1    0    0    0    0 -0.00000000000E+00 -0.00000000000E+00 -0.13198000371E+01  0.13198000371E+01  0.00000000000E+00 0.  1.
          4    1    1    2  501    0 -0.17116989815E+01  0.83113790743E+00  0.35135834209E+01  0.41927165513E+01  0.12700000000E+01 0.  1.
         -4    1    1    2    0  501  0.17116989815E+01 -0.83113790743E+00  0.35455149900E+00  0.23150184427E+01  0.12700000000E+01 0.  1.
<mgrwt>
<rscale>  0 0.22877071E+01</rscale>
<asrwt>0</asrwt>
<pdfrwt beam="1">0</pdfrwt>
<pdfrwt beam="2">0</pdfrwt>
<totfact> 0.25342496E+12</totfact>
</mgrwt>
</event>
<event>
 4    1  0.1735226E+006  0.2034253E+01  0.7546771E-02  0.2957981E+00
         22   -1    0    0    0    0  0.00000000000E+00  0.00000000000E+00  0.98492275596E+01  0.98492275596E+01  0.00000000000E+00 0.  1.
         22   -1    0    0    0    0 -0.00000000000E+00 -0.00000000000E+00 -0.67613266746E+00  0.67613266746E+00  0.00000000000E+00 0.  1.
          4    1    1    2  501    0  0.15357556318E+01  0.40833959079E+00  0.78246708625E+01  0.80847795696E+01  0.12700000000E+01 0.  1.
         -4    1    1    2    0  501 -0.15357556318E+01 -0.40833959079E+00  0.13484240296E+01  0.24405806575E+01  0.12700000000E+01 0.  1.
<mgrwt>
<rscale>  0 0.20342533E+01</rscale>
<asrwt>0</asrwt>
<pdfrwt beam="1">0</pdfrwt>
<pdfrwt beam="2">0</pdfrwt>
<totfact> 0.25230105E+12</totfact>
</mgrwt>
</event>
<event>
 4    1  0.1735226E+006  0.2252502E+01  0.7546771E-02  0.2828841E+00
         22   -1    0    0    0    0  0.00000000000E+00  0.00000000000E+00  0.24857281059E+02  0.24857281059E+02  0.00000000000E+00 0.  1.
         22   -1    0    0    0    0 -0.00000000000E+00 -0.00000000000E+00 -0.27394892327E+00  0.27394892327E+00  0.00000000000E+00 0. -1.
          4    1    1    2  501    0  0.13252175456E+01 -0.13056274876E+01  0.18635905635E+02  0.18771540787E+02  0.12700000000E+01 0.  1.
         -4    1    1    2    0  501 -0.13252175456E+01  0.13056274876E+01  0.59474265008E+01  0.63596891954E+01  0.12700000000E+01 0. -1.
<mgrwt>
<rscale>  0 0.22525019E+01</rscale>
<asrwt>0</asrwt>
<pdfrwt beam="1">0</pdfrwt>
<pdfrwt beam="2">0</pdfrwt>
<totfact> 0.22287499E+12</totfact>
</mgrwt>
</event>
<event>
 4    1  0.1735226E+006  0.2845399E+01  0.7546771E-02  0.2573414E+00
         22   -1    0    0    0    0  0.00000000000E+00  0.00000000000E+00  0.20776544222E+01  0.20776544222E+01  0.00000000000E+00 0.  1.
         22   -1    0    0    0    0 -0.00000000000E+00 -0.00000000000E+00 -0.40405803607E+01  0.40405803607E+01  0.00000000000E+00 0.  1.
          4    1    1    2  501    0  0.24006743107E+01 -0.84862259935E+00 -0.40448939357E+00  0.28740057641E+01  0.12700000000E+01 0.  1.
         -4    1    1    2    0  501 -0.24006743107E+01  0.84862259935E+00 -0.15584365449E+01  0.32442290188E+01  0.12700000000E+01 0.  1.
<mgrwt>
<rscale>  0 0.28453994E+01</rscale>
<asrwt>0</asrwt>
<pdfrwt beam="1">0</pdfrwt>
<pdfrwt beam="2">0</pdfrwt>
<totfact> 0.20177438E+12</totfact>
</mgrwt>
</event>
<event>
 4    1  0.1735226E+006  0.2715382E+01  0.7546771E-02  0.2620572E+00
         22   -1    0    0    0    0  0.00000000000E+00  0.00000000000E+00  0.20872185267E+01  0.20872185267E+01  0.00000000000E+00 0. -1.
         22   -1    0    0    0    0 -0.00000000000E+00 -0.00000000000E+00 -0.73862956342E+01  0.73862956342E+01  0.00000000000E+00 0.  1.
          4    1    1    2  501    0 -0.12415873255E+00  0.23968699823E+01  0.77188362352E+00  0.28229604020E+01  0.12700000000E+01 0. -1.
         -4    1    1    2    0  501  0.12415873255E+00 -0.23968699823E+01 -0.60709607311E+01  0.66505537590E+01  0.12700000000E+01 0.  1.
<mgrwt>
<rscale>  0 0.27153823E+01</rscale>
<asrwt>0</asrwt>
<pdfrwt beam="1">0</pdfrwt>
<pdfrwt beam="2">0</pdfrwt>
<totfact> 0.98065185E+11</totfact>
</mgrwt>
</event>
<event>
 4    1  0.1735226E+006  0.2030624E+01  0.7546771E-02  0.2960356E+00
         22   -1    0    0    0    0  0.00000000000E+00  0.00000000000E+00  0.69058671221E+01  0.69058671221E+01  0.00000000000E+00 0. -1.
         22   -1    0    0    0    0 -0.00000000000E+00 -0.00000000000E+00 -0.61391828504E+00  0.61391828504E+00  0.00000000000E+00 0. -1.
          4    1    1    2  501    0  0.15822510162E+01 -0.83749517340E-01  0.37684538938E+01  0.42807332327E+01  0.12700000000E+01 0. -1.
         -4    1    1    2    0  501 -0.15822510162E+01  0.83749517340E-01  0.25234949432E+01  0.32390521744E+01  0.12700000000E+01 0. -1.
<mgrwt>
<rscale>  0 0.20306236E+01</rscale>
<asrwt>0</asrwt>
<pdfrwt beam="1">0</pdfrwt>
<pdfrwt beam="2">0</pdfrwt>
<totfact> 0.43140783E+12</totfact>
</mgrwt>
</event>
<event>
 4    1  0.1735226E+006  0.5368512E+01  0.7546771E-02  0.2081426E+00
         22   -1    0    0    0    0  0.00000000000E+00  0.00000000000E+00  0.22271223742E+02  0.22271223742E+02  0.00000000000E+00 0.  1.
         22   -1    0    0    0    0 -0.00000000000E+00 -0.00000000000E+00 -0.19734703460E+01  0.19734703460E+01  0.00000000000E+00 0. -1.
          4    1    1    2  501    0 -0.26770355641E+01  0.44767736586E+01  0.17261479591E+02  0.18077046204E+02  0.12700000000E+01 0.  1.
         -4    1    1    2    0  501  0.26770355641E+01 -0.44767736586E+01  0.30362738055E+01  0.61676478842E+01  0.12700000000E+01 0. -1.
<mgrwt>
<rscale>  0 0.53685121E+01</rscale>
<asrwt>0</asrwt>
<pdfrwt beam="1">0</pdfrwt>
<pdfrwt beam="2">0</pdfrwt>
<totfact> 0.27111932E+11</totfact>
</mgrwt>
</event>
<event>
 4    1  0.1735226E+006  0.2777032E+01  0.7546771E-02  0.2597710E+00
         22   -1    0    0    0    0  0.00000000000E+00  0.00000000000E+00  0.57682502625E+01  0.57682502625E+01  0.00000000000E+00 0.  1.
         22   -1    0    0    0    0 -0.00000000000E+00 -0.00000000000E+00 -0.18743245433E+01  0.18743245433E+01  0.00000000000E+00 0. -1.
          4    1    1    2  501    0  0.23580327731E+01 -0.73395500369E+00  0.39930428412E+01  0.48637742174E+01  0.12700000000E+01 0.  1.
         -4    1    1    2    0  501 -0.23580327731E+01  0.73395500369E+00 -0.99117122026E-01  0.27788005884E+01  0.12700000000E+01 0. -1.
<mgrwt>
<rscale>  0 0.27770323E+01</rscale>
<asrwt>0</asrwt>
<pdfrwt beam="1">0</pdfrwt>
<pdfrwt beam="2">0</pdfrwt>
<totfact> 0.14919253E+12</totfact>
</mgrwt>
</event>
<event>
 4    1  0.1735226E+006  0.2842201E+01  0.7546771E-02  0.2574527E+00
         22   -1    0    0    0    0  0.00000000000E+00  0.00000000000E+00  0.10106386992E+02  0.10106386992E+02  0.00000000000E+00 0.  1.
         22   -1    0    0    0    0 -0.00000000000E+00 -0.00000000000E+00 -0.90645205125E+00  0.90645205125E+00  0.00000000000E+00 0. -1.
          4    1    1    2  501    0  0.25320225865E+01  0.23252417013E+00  0.27068265781E+01  0.39249224186E+01  0.12700000000E+01 0.  1.
         -4    1    1    2    0  501 -0.25320225865E+01 -0.23252417013E+00  0.64931083625E+01  0.70879166245E+01  0.12700000000E+01 0.  1.
<mgrwt>
<rscale>  0 0.28422009E+01</rscale>
<asrwt>0</asrwt>
<pdfrwt beam="1">0</pdfrwt>
<pdfrwt beam="2">0</pdfrwt>
<totfact> 0.17523852E+12</totfact>
</mgrwt>
</event>
<event>
 4    1  0.1735226E+006  0.2167715E+01  0.7546771E-02  0.2876032E+00
         22   -1    0    0    0    0  0.00000000000E+00  0.00000000000E+00  0.21098444970E+01  0.21098444970E+01  0.00000000000E+00 0. -1.
         22   -1    0    0    0    0 -0.00000000000E+00 -0.00000000000E+00 -0.23716316962E+01  0.23716316962E+01  0.00000000000E+00 0. -1.
          4    1    1    2  501    0  0.17166543560E+01  0.37307674129E+00  0.42212470875E+00  0.22084333140E+01  0.12700000000E+01 0. -1.
         -4    1    1    2    0  501 -0.17166543560E+01 -0.37307674129E+00 -0.68391190796E+00  0.22730428792E+01  0.12700000000E+01 0. -1.
<mgrwt>
<rscale>  0 0.21677150E+01</rscale>
<asrwt>0</asrwt>
<pdfrwt beam="1">0</pdfrwt>
<pdfrwt beam="2">0</pdfrwt>
<totfact> 0.36953178E+12</totfact>
</mgrwt>
</event>
<event>
 4    1  0.1735226E+006  0.3092858E+01  0.7546771E-02  0.2493626E+00
         22   -1    0    0    0    0  0.00000000000E+00  0.00000000000E+00  0.32527400055E+01  0.32527400055E+01  0.00000000000E+00 0. -1.
         22   -1    0    0    0    0 -0.00000000000E+00 -0.00000000000E+00 -0.43276972176E+01  0.43276972176E+01  0.00000000000E+00 0. -1.
          4    1    1    2  501    0 -0.25936004265E+01 -0.11072962772E+01  0.16081406075E+01  0.34859553111E+01  0.12700000000E+01 0. -1.
         -4    1    1    2    0  501  0.25936004265E+01  0.11072962772E+01 -0.26830978195E+01  0.40944819119E+01  0.12700000000E+01 0. -1.
<mgrwt>
<rscale>  0 0.30928576E+01</rscale>
<asrwt>0</asrwt>
<pdfrwt beam="1">0</pdfrwt>
<pdfrwt beam="2">0</pdfrwt>
<totfact> 0.11042860E+12</totfact>
</mgrwt>
</event>
<event>
 4    1  0.1735226E+006  0.2261675E+01  0.7546771E-02  0.2823939E+00
         22   -1    0    0    0    0  0.00000000000E+00  0.00000000000E+00  0.13632267095E+00  0.13632267095E+00  0.00000000000E+00 0.  1.
         22   -1    0    0    0    0 -0.00000000000E+00 -0.00000000000E+00 -0.37695108669E+02  0.37695108669E+02  0.00000000000E+00 0. -1.
          4    1    1    2  501    0 -0.17109480861E+01  0.75824317273E+00 -0.20059162672E+02  0.20186262239E+02  0.12700000000E+01 0. -1.
         -4    1    1    2    0  501  0.17109480861E+01 -0.75824317273E+00 -0.17499623326E+02  0.17645169101E+02  0.12700000000E+01 0.  1.
<mgrwt>
<rscale>  0 0.22616755E+01</rscale>
<asrwt>0</asrwt>
<pdfrwt beam="1">0</pdfrwt>
<pdfrwt beam="2">0</pdfrwt>
<totfact> 0.28528959E+12</totfact>
</mgrwt>
</event>
<event>
 4    1  0.1735226E+006  0.2623512E+01  0.7546771E-02  0.2656461E+00
         22   -1    0    0    0    0  0.00000000000E+00  0.00000000000E+00  0.54031647021E+00  0.54031647021E+00  0.00000000000E+00 0. -1.
         22   -1    0    0    0    0 -0.00000000000E+00 -0.00000000000E+00 -0.13999737148E+02  0.13999737148E+02  0.00000000000E+00 0.  1.
          4    1    1    2  501    0 -0.20187528749E+01 -0.10929554973E+01 -0.45476009943E+01  0.52500942555E+01  0.12700000000E+01 0. -1.
         -4    1    1    2    0  501  0.20187528749E+01  0.10929554973E+01 -0.89118196839E+01  0.92899593631E+01  0.12700000000E+01 0.  1.
<mgrwt>
<rscale>  0 0.26235119E+01</rscale>
<asrwt>0</asrwt>
<pdfrwt beam="1">0</pdfrwt>
<pdfrwt beam="2">0</pdfrwt>
<totfact> 0.21192214E+12</totfact>
</mgrwt>
</event>
<event>
 4    1  0.1735226E+006  0.2928459E+01  0.7546771E-02  0.2545283E+00
         22   -1    0    0    0    0  0.00000000000E+00  0.00000000000E+00  0.11715843066E+01  0.11715843066E+01  0.00000000000E+00 0.  1.
         22   -1    0    0    0    0 -0.00000000000E+00 -0.00000000000E+00 -0.11396756507E+02  0.11396756507E+02  0.00000000000E+00 0. -1.
          4    1    1    2  501    0  0.41035413488E+00 -0.26066414883E+01 -0.13540349248E+01  0.32263417274E+01  0.12700000000E+01 0.  1.
         -4    1    1    2    0  501 -0.41035413488E+00  0.26066414883E+01 -0.88711372758E+01  0.93419990864E+01  0.12700000000E+01 0. -1.
<mgrwt>
<rscale>  0 0.29284587E+01</rscale>
<asrwt>0</asrwt>
<pdfrwt beam="1">0</pdfrwt>
<pdfrwt beam="2">0</pdfrwt>
<totfact> 0.11296816E+12</totfact>
</mgrwt>
</event>
<event>
 4    1  0.1735226E+006  0.2524826E+01  0.7546771E-02  0.2697685E+00
         22   -1    0    0    0    0  0.00000000000E+00  0.00000000000E+00  0.89730027009E+01  0.89730027009E+01  0.00000000000E+00 0.  1.
         22   -1    0    0    0    0 -0.00000000000E+00 -0.00000000000E+00 -0.72698657411E+00  0.72698657411E+00  0.00000000000E+00 0.  1.
          4    1    1    2  501    0 -0.36580700621E-01 -0.21818589740E+01  0.48547885383E+01  0.54720853869E+01  0.12700000000E+01 0.  1.
         -4    1    1    2    0  501  0.36580700621E-01  0.21818589740E+01  0.33912275885E+01  0.42279038881E+01  0.12700000000E+01 0.  1.
<mgrwt>
<rscale>  0 0.25248261E+01</rscale>
<asrwt>0</asrwt>
<pdfrwt beam="1">0</pdfrwt>
<pdfrwt beam="2">0</pdfrwt>
<totfact> 0.26007311E+12</totfact>
</mgrwt>
</event>
<event>
 4    1  0.1735226E+006  0.2421573E+01  0.7546771E-02  0.2744149E+00
         22   -1    0    0    0    0  0.00000000000E+00  0.00000000000E+00  0.15674664412E+02  0.15674664412E+02  0.00000000000E+00 0. -1.
         22   -1    0    0    0    0 -0.00000000000E+00 -0.00000000000E+00 -0.52850205557E+00  0.52850205557E+00  0.00000000000E+00 0. -1.
          4    1    1    2  501    0  0.15192367030E+01 -0.13939274388E+01  0.11951952252E+02  0.12194801207E+02  0.12700000000E+01 0. -1.
         -4    1    1    2    0  501 -0.15192367030E+01  0.13939274388E+01  0.31942101045E+01  0.40083652598E+01  0.12700000000E+01 0. -1.
<mgrwt>
<rscale>  0 0.24215726E+01</rscale>
<asrwt>0</asrwt>
<pdfrwt beam="1">0</pdfrwt>
<pdfrwt beam="2">0</pdfrwt>
<totfact> 0.18908543E+12</totfact>
</mgrwt>
</event>
<event>
 4    1  0.1735226E+006  0.3361967E+01  0.7546771E-02  0.2418849E+00
         22   -1    0    0    0    0  0.00000000000E+00  0.00000000000E+00  0.13166327507E+01  0.13166327507E+01  0.00000000000E+00 0. -1.
         22   -1    0    0    0    0 -0.00000000000E+00 -0.00000000000E+00 -0.11664360173E+02  0.11664360173E+02  0.00000000000E+00 0. -1.
          4    1    1    2  501    0 -0.24796740918E+01  0.18817920878E+01 -0.18388108886E+01  0.38319773678E+01  0.12700000000E+01 0. -1.
         -4    1    1    2    0  501  0.24796740918E+01 -0.18817920878E+01 -0.85089165336E+01  0.91490155557E+01  0.12700000000E+01 0. -1.
<mgrwt>
<rscale>  0 0.33619674E+01</rscale>
<asrwt>0</asrwt>
<pdfrwt beam="1">0</pdfrwt>
<pdfrwt beam="2">0</pdfrwt>
<totfact> 0.96066509E+11</totfact>
</mgrwt>
</event>
<event>
 4    1  0.1735226E+006  0.2716185E+01  0.7546771E-02  0.2620269E+00
         22   -1    0    0    0    0  0.00000000000E+00  0.00000000000E+00  0.37103856561E+00  0.37103856561E+00  0.00000000000E+00 0.  1.
         22   -1    0    0    0    0 -0.00000000000E+00 -0.00000000000E+00 -0.43568073633E+02  0.43568073633E+02  0.00000000000E+00 0.  1.
          4    1    1    2  501    0  0.10045363673E+01 -0.21807492495E+01 -0.54003069812E+01  0.60449132412E+01  0.12700000000E+01 0.  1.
         -4    1    1    2    0  501 -0.10045363673E+01  0.21807492495E+01 -0.37796728086E+02  0.37894198957E+02  0.12700000000E+01 0.  1.
<mgrwt>
<rscale>  0 0.27161849E+01</rscale>
<asrwt>0</asrwt>
<pdfrwt beam="1">0</pdfrwt>
<pdfrwt beam="2">0</pdfrwt>
<totfact> 0.77227093E+11</totfact>
</mgrwt>
</event>
<event>
 4    1  0.1735226E+006  0.2504486E+01  0.7546771E-02  0.2706556E+00
         22   -1    0    0    0    0  0.00000000000E+00  0.00000000000E+00  0.55430987905E+01  0.55430987905E+01  0.00000000000E+00 0.  1.
         22   -1    0    0    0    0 -0.00000000000E+00 -0.00000000000E+00 -0.77861735006E+01  0.77861735006E+01  0.00000000000E+00 0. -1.
          4    1    1    2  501    0 -0.20519728816E+01  0.67004274122E+00  0.50398034082E+01  0.56277942727E+01  0.12700000000E+01 0.  1.
         -4    1    1    2    0  501  0.20519728816E+01 -0.67004274122E+00 -0.72828781183E+01  0.77014780184E+01  0.12700000000E+01 0. -1.
<mgrwt>
<rscale>  0 0.25044860E+01</rscale>
<asrwt>0</asrwt>
<pdfrwt beam="1">0</pdfrwt>
<pdfrwt beam="2">0</pdfrwt>
<totfact> 0.29296023E+11</totfact>
</mgrwt>
</event>
<event>
 4    1  0.1735226E+006  0.2632344E+01  0.7546771E-02  0.2652911E+00
         22   -1    0    0    0    0  0.00000000000E+00  0.00000000000E+00  0.24453846977E+02  0.24453846977E+02  0.00000000000E+00 0.  1.
         22   -1    0    0    0    0 -0.00000000000E+00 -0.00000000000E+00 -0.32072227670E+00  0.32072227670E+00  0.00000000000E+00 0. -1.
          4    1    1    2  501    0 -0.16876640314E+01  0.15710260259E+01  0.78386063489E+01  0.82687956893E+01  0.12700000000E+01 0. -1.
         -4    1    1    2    0  501  0.16876640314E+01 -0.15710260259E+01  0.16294518351E+02  0.16505773564E+02  0.12700000000E+01 0.  1.
<mgrwt>
<rscale>  0 0.26323436E+01</rscale>
<asrwt>0</asrwt>
<pdfrwt beam="1">0</pdfrwt>
<pdfrwt beam="2">0</pdfrwt>
<totfact> 0.19067317E+12</totfact>
</mgrwt>
</event>
<event>
 4    1  0.1735226E+006  0.2193869E+01  0.7546771E-02  0.2861103E+00
         22   -1    0    0    0    0  0.00000000000E+00  0.00000000000E+00  0.54228279042E+02  0.54228279042E+02  0.00000000000E+00 0. -1.
         22   -1    0    0    0    0 -0.00000000000E+00 -0.00000000000E+00 -0.91644356603E+00  0.91644356603E+00  0.00000000000E+00 0.  1.
          4    1    1    2  501    0 -0.17179722254E+01  0.49873122930E+00  0.52859123539E+02  0.52904631203E+02  0.12700000000E+01 0. -1.
         -4    1    1    2    0  501  0.17179722254E+01 -0.49873122930E+00  0.45271193729E+00  0.22400914054E+01  0.12700000000E+01 0.  1.
<mgrwt>
<rscale>  0 0.21938690E+01</rscale>
<asrwt>0</asrwt>
<pdfrwt beam="1">0</pdfrwt>
<pdfrwt beam="2">0</pdfrwt>
<totfact> 0.20801541E+11</totfact>
</mgrwt>
</event>
<event>
 4    1  0.1735226E+006  0.3961356E+01  0.7546771E-02  0.2284743E+00
         22   -1    0    0    0    0  0.00000000000E+00  0.00000000000E+00  0.21691683926E+01  0.21691683926E+01  0.00000000000E+00 0.  1.
         22   -1    0    0    0    0 -0.00000000000E+00 -0.00000000000E+00 -0.12724113033E+02  0.12724113033E+02  0.00000000000E+00 0. -1.
          4    1    1    2  501    0  0.20146162754E+01  0.31655587823E+01 -0.38614458290E+00  0.39801317541E+01  0.12700000000E+01 0.  1.
         -4    1    1    2    0  501 -0.20146162754E+01 -0.31655587823E+01 -0.10168800057E+02  0.10913149671E+02  0.12700000000E+01 0. -1.
<mgrwt>
<rscale>  0 0.39613560E+01</rscale>
<asrwt>0</asrwt>
<pdfrwt beam="1">0</pdfrwt>
<pdfrwt beam="2">0</pdfrwt>
<totfact> 0.48572779E+11</totfact>
</mgrwt>
</event>
<event>
 4    1  0.1735226E+006  0.2375196E+01  0.7546771E-02  0.2766247E+00
         22   -1    0    0    0    0  0.00000000000E+00  0.00000000000E+00  0.10753383904E+03  0.10753383904E+03  0.00000000000E+00 0.  1.
         22   -1    0    0    0    0 -0.00000000000E+00 -0.00000000000E+00 -0.24152067109E+00  0.24152067109E+00  0.00000000000E+00 0. -1.
          4    1    1    2  501    0  0.16820774139E+01  0.10951132802E+01  0.10132320965E+03  0.10135104524E+03  0.12700000000E+01 0.  1.
         -4    1    1    2    0  501 -0.16820774139E+01 -0.10951132802E+01  0.59691087204E+01  0.64243144723E+01  0.12700000000E+01 0. -1.
<mgrwt>
<rscale>  0 0.23751963E+01</rscale>
<asrwt>0</asrwt>
<pdfrwt beam="1">0</pdfrwt>
<pdfrwt beam="2">0</pdfrwt>
<totfact> 0.36678253E+11</totfact>
</mgrwt>
</event>
<event>
 4    1  0.1735226E+006  0.2123306E+01  0.7546771E-02  0.2902192E+00
         22   -1    0    0    0    0  0.00000000000E+00  0.00000000000E+00  0.61539035659E+02  0.61539035659E+02  0.00000000000E+00 0. -1.
         22   -1    0    0    0    0 -0.00000000000E+00 -0.00000000000E+00 -0.76064194888E-01  0.76064194888E-01  0.00000000000E+00 0.  1.
          4    1    1    2  501    0  0.17502106236E+00  0.16926005264E+01  0.36645351824E+02  0.36706814615E+02  0.12700000000E+01 0. -1.
         -4    1    1    2    0  501 -0.17502106236E+00 -0.16926005264E+01  0.24817619641E+02  0.24908285239E+02  0.12700000000E+01 0.  1.
<mgrwt>
<rscale>  0 0.21233061E+01</rscale>
<asrwt>0</asrwt>
<pdfrwt beam="1">0</pdfrwt>
<pdfrwt beam="2">0</pdfrwt>
<totfact> 0.28559147E+12</totfact>
</mgrwt>
</event>
<event>
 4    1  0.1735226E+006  0.2686279E+01  0.7546771E-02  0.2631698E+00
         22   -1    0    0    0    0  0.00000000000E+00  0.00000000000E+00  0.15873115379E+02  0.15873115379E+02  0.00000000000E+00 0.  1.
         22   -1    0    0    0    0 -0.00000000000E+00 -0.00000000000E+00 -0.47322032899E+00  0.47322032899E+00  0.00000000000E+00 0. -1.
          4    1    1    2  501    0 -0.22560857047E+01 -0.71642931882E+00  0.93207253091E+01  0.97001038120E+01  0.12700000000E+01 0.  1.
         -4    1    1    2    0  501  0.22560857047E+01  0.71642931882E+00  0.60791697406E+01  0.66462318956E+01  0.12700000000E+01 0. -1.
<mgrwt>
<rscale>  0 0.26862788E+01</rscale>
<asrwt>0</asrwt>
<pdfrwt beam="1">0</pdfrwt>
<pdfrwt beam="2">0</pdfrwt>
<totfact> 0.21091760E+12</totfact>
</mgrwt>
</event>
<event>
 4    1  0.1735226E+006  0.2435410E+01  0.7546771E-02  0.2737709E+00
         22   -1    0    0    0    0  0.00000000000E+00  0.00000000000E+00  0.25732229148E+00  0.25732229148E+00  0.00000000000E+00 0. -1.
         22   -1    0    0    0    0 -0.00000000000E+00 -0.00000000000E+00 -0.24628141116E+02  0.24628141116E+02  0.00000000000E+00 0.  1.
          4    1    1    2  501    0  0.19683947584E+01  0.66614156303E+00 -0.90354645869E+01  0.93579294082E+01  0.12700000000E+01 0. -1.
         -4    1    1    2    0  501 -0.19683947584E+01 -0.66614156303E+00 -0.15335354237E+02  0.15527533999E+02  0.12700000000E+01 0.  1.
<mgrwt>
<rscale>  0 0.24354101E+01</rscale>
<asrwt>0</asrwt>
<pdfrwt beam="1">0</pdfrwt>
<pdfrwt beam="2">0</pdfrwt>
<totfact> 0.24187111E+12</totfact>
</mgrwt>
</event>
<event>
 4    1  0.1735226E+006  0.3315423E+01  0.7546771E-02  0.2431014E+00
         22   -1    0    0    0    0  0.00000000000E+00  0.00000000000E+00  0.84991528926E+01  0.84991528926E+01  0.00000000000E+00 0. -1.
         22   -1    0    0    0    0 -0.00000000000E+00 -0.00000000000E+00 -0.12947483870E+01  0.12947483870E+01  0.00000000000E+00 0. -1.
          4    1    1    2  501    0  0.33090876414E-01  0.30623572056E+01  0.34388979752E+01  0.47768238344E+01  0.12700000000E+01 0. -1.
         -4    1    1    2    0  501 -0.33090876414E-01 -0.30623572056E+01  0.37655065303E+01  0.50170774452E+01  0.12700000000E+01 0. -1.
<mgrwt>
<rscale>  0 0.33154225E+01</rscale>
<asrwt>0</asrwt>
<pdfrwt beam="1">0</pdfrwt>
<pdfrwt beam="2">0</pdfrwt>
<totfact> 0.14367779E+12</totfact>
</mgrwt>
</event>
<event>
 4    1  0.1735226E+006  0.2272245E+01  0.7546771E-02  0.2818337E+00
         22   -1    0    0    0    0  0.00000000000E+00  0.00000000000E+00  0.31113010541E+00  0.31113010541E+00  0.00000000000E+00 0.  1.
         22   -1    0    0    0    0 -0.00000000000E+00 -0.00000000000E+00 -0.19003071377E+02  0.19003071377E+02  0.00000000000E+00 0. -1.
          4    1    1    2  501    0 -0.15392680779E+01  0.10866693917E+01 -0.59080115878E+01  0.63299050154E+01  0.12700000000E+01 0.  1.
         -4    1    1    2    0  501  0.15392680779E+01 -0.10866693917E+01 -0.12783929684E+02  0.12984296467E+02  0.12700000000E+01 0. -1.
<mgrwt>
<rscale>  0 0.22722448E+01</rscale>
<asrwt>0</asrwt>
<pdfrwt beam="1">0</pdfrwt>
<pdfrwt beam="2">0</pdfrwt>
<totfact> 0.27049621E+12</totfact>
</mgrwt>
</event>
<event>
 4    1  0.1735226E+006  0.2027042E+01  0.7546771E-02  0.2962707E+00
         22   -1    0    0    0    0  0.00000000000E+00  0.00000000000E+00  0.96354215927E+01  0.96354215927E+01  0.00000000000E+00 0. -1.
         22   -1    0    0    0    0 -0.00000000000E+00 -0.00000000000E+00 -0.50141843362E+00  0.50141843362E+00  0.00000000000E+00 0.  1.
          4    1    1    2  501    0  0.72382819382E+00  0.14043044694E+01  0.65269737928E+01  0.68344923139E+01  0.12700000000E+01 0. -1.
         -4    1    1    2    0  501 -0.72382819382E+00 -0.14043044694E+01  0.26070293663E+01  0.33023477125E+01  0.12700000000E+01 0.  1.
<mgrwt>
<rscale>  0 0.20270418E+01</rscale>
<asrwt>0</asrwt>
<pdfrwt beam="1">0</pdfrwt>
<pdfrwt beam="2">0</pdfrwt>
<totfact> 0.36341222E+12</totfact>
</mgrwt>
</event>
<event>
 4    1  0.1735226E+006  0.2626861E+01  0.7546771E-02  0.2655112E+00
         22   -1    0    0    0    0  0.00000000000E+00  0.00000000000E+00  0.16531014975E+02  0.16531014975E+02  0.00000000000E+00 0.  1.
         22   -1    0    0    0    0 -0.00000000000E+00 -0.00000000000E+00 -0.41742161016E+00  0.41742161016E+00  0.00000000000E+00 0. -1.
          4    1    1    2  501    0 -0.14477515703E+01 -0.17864810084E+01  0.80504377664E+01  0.84681726029E+01  0.12700000000E+01 0.  1.
         -4    1    1    2    0  501  0.14477515703E+01  0.17864810084E+01  0.80631555981E+01  0.84802639819E+01  0.12700000000E+01 0.  1.
<mgrwt>
<rscale>  0 0.26268611E+01</rscale>
<asrwt>0</asrwt>
<pdfrwt beam="1">0</pdfrwt>
<pdfrwt beam="2">0</pdfrwt>
<totfact> 0.23107795E+12</totfact>
</mgrwt>
</event>
<event>
 4    1  0.1735226E+006  0.2214273E+01  0.7546771E-02  0.2849691E+00
         22   -1    0    0    0    0  0.00000000000E+00  0.00000000000E+00  0.13559475047E+02  0.13559475047E+02  0.00000000000E+00 0.  1.
         22   -1    0    0    0    0 -0.00000000000E+00 -0.00000000000E+00 -0.36831146301E+00  0.36831146301E+00  0.00000000000E+00 0.  1.
          4    1    1    2  501    0 -0.18068819724E+01 -0.15900396150E+00  0.75361602727E+01  0.78547257354E+01  0.12700000000E+01 0.  1.
         -4    1    1    2    0  501  0.18068819724E+01  0.15900396150E+00  0.56550033113E+01  0.60730607747E+01  0.12700000000E+01 0.  1.
<mgrwt>
<rscale>  0 0.22142730E+01</rscale>
<asrwt>0</asrwt>
<pdfrwt beam="1">0</pdfrwt>
<pdfrwt beam="2">0</pdfrwt>
<totfact> 0.33947403E+12</totfact>
</mgrwt>
</event>
<event>
 4    1  0.1735226E+006  0.4125882E+01  0.7546771E-02  0.2253859E+00
         22   -1    0    0    0    0  0.00000000000E+00  0.00000000000E+00  0.35608372990E+01  0.35608372990E+01  0.00000000000E+00 0. -1.
         22   -1    0    0    0    0 -0.00000000000E+00 -0.00000000000E+00 -0.64620907041E+01  0.64620907041E+01  0.00000000000E+00 0. -1.
          4    1    1    2  501    0 -0.33286749845E+01  0.20808468950E+01  0.11057608715E+01  0.42714878037E+01  0.12700000000E+01 0. -1.
         -4    1    1    2    0  501  0.33286749845E+01 -0.20808468950E+01 -0.40070142766E+01  0.57514401993E+01  0.12700000000E+01 0. -1.
<mgrwt>
<rscale>  0 0.41258818E+01</rscale>
<asrwt>0</asrwt>
<pdfrwt beam="1">0</pdfrwt>
<pdfrwt beam="2">0</pdfrwt>
<totfact> 0.61734141E+11</totfact>
</mgrwt>
</event>
<event>
 4    1  0.1735226E+006  0.2145534E+01  0.7546771E-02  0.2888967E+00
         22   -1    0    0    0    0  0.00000000000E+00  0.00000000000E+00  0.55344895304E+01  0.55344895304E+01  0.00000000000E+00 0. -1.
         22   -1    0    0    0    0 -0.00000000000E+00 -0.00000000000E+00 -0.10634335022E+01  0.10634335022E+01  0.00000000000E+00 0.  1.
          4    1    1    2  501    0 -0.21184281314E+00 -0.17162570098E+01  0.37753445733E+01  0.43424120196E+01  0.12700000000E+01 0. -1.
         -4    1    1    2    0  501  0.21184281314E+00  0.17162570098E+01  0.69571145494E+00  0.22555110130E+01  0.12700000000E+01 0.  1.
<mgrwt>
<rscale>  0 0.21455338E+01</rscale>
<asrwt>0</asrwt>
<pdfrwt beam="1">0</pdfrwt>
<pdfrwt beam="2">0</pdfrwt>
<totfact> 0.30058211E+12</totfact>
</mgrwt>
</event>
<event>
 4    1  0.1735226E+006  0.2723543E+01  0.7546771E-02  0.2617492E+00
         22   -1    0    0    0    0  0.00000000000E+00  0.00000000000E+00  0.50133405815E+00  0.50133405815E+00  0.00000000000E+00 0.  1.
         22   -1    0    0    0    0 -0.00000000000E+00 -0.00000000000E+00 -0.20177502856E+02  0.20177502856E+02  0.00000000000E+00 0. -1.
          4    1    1    2  501    0  0.10893462343E+01 -0.21489793069E+01 -0.44983662749E+01  0.52586106932E+01  0.12700000000E+01 0.  1.
         -4    1    1    2    0  501 -0.10893462343E+01  0.21489793069E+01 -0.15177802523E+02  0.15420226221E+02  0.12700000000E+01 0. -1.
<mgrwt>
<rscale>  0 0.27235431E+01</rscale>
<asrwt>0</asrwt>
<pdfrwt beam="1">0</pdfrwt>
<pdfrwt beam="2">0</pdfrwt>
<totfact> 0.14674371E+12</totfact>
</mgrwt>
</event>
<event>
 4    1  0.1735226E+006  0.2360179E+01  0.7546771E-02  0.2773577E+00
         22   -1    0    0    0    0  0.00000000000E+00  0.00000000000E+00  0.20194603003E+02  0.20194603003E+02  0.00000000000E+00 0. -1.
         22   -1    0    0    0    0 -0.00000000000E+00 -0.00000000000E+00 -0.29797674123E+00  0.29797674123E+00  0.00000000000E+00 0.  1.
          4    1    1    2  501    0  0.12435690045E+01 -0.15527662233E+01  0.12741166115E+02  0.12957922703E+02  0.12700000000E+01 0.  1.
         -4    1    1    2    0  501 -0.12435690045E+01  0.15527662233E+01  0.71554601468E+01  0.75346570410E+01  0.12700000000E+01 0.  1.
<mgrwt>
<rscale>  0 0.23601794E+01</rscale>
<asrwt>0</asrwt>
<pdfrwt beam="1">0</pdfrwt>
<pdfrwt beam="2">0</pdfrwt>
<totfact> 0.26321073E+12</totfact>
</mgrwt>
</event>
<event>
 4    1  0.1735226E+006  0.3785399E+01  0.7546771E-02  0.2320294E+00
         22   -1    0    0    0    0  0.00000000000E+00  0.00000000000E+00  0.28892577131E+01  0.28892577131E+01  0.00000000000E+00 0. -1.
         22   -1    0    0    0    0 -0.00000000000E+00 -0.00000000000E+00 -0.49893547805E+01  0.49893547805E+01  0.00000000000E+00 0.  1.
          4    1    1    2  501    0 -0.19249931406E+01  0.30017900639E+01 -0.13548265564E+01  0.40205468754E+01  0.12700000000E+01 0. -1.
         -4    1    1    2    0  501  0.19249931406E+01 -0.30017900639E+01 -0.74527051108E+00  0.38580656182E+01  0.12700000000E+01 0.  1.
<mgrwt>
<rscale>  0 0.37853985E+01</rscale>
<asrwt>0</asrwt>
<pdfrwt beam="1">0</pdfrwt>
<pdfrwt beam="2">0</pdfrwt>
<totfact> 0.10720834E+12</totfact>
</mgrwt>
</event>
<event>
 4    1  0.1735226E+006  0.3315770E+01  0.7546771E-02  0.2430922E+00
         22   -1    0    0    0    0  0.00000000000E+00  0.00000000000E+00  0.59689739875E+00  0.59689739875E+00  0.00000000000E+00 0.  1.
         22   -1    0    0    0    0 -0.00000000000E+00 -0.00000000000E+00 -0.53547405147E+02  0.53547405147E+02  0.00000000000E+00 0. -1.
          4    1    1    2  501    0 -0.28334970484E+01  0.11630667429E+01 -0.45481145362E+01  0.56284700947E+01  0.12700000000E+01 0.  1.
         -4    1    1    2    0  501  0.28334970484E+01 -0.11630667429E+01 -0.48402393212E+02  0.48515832451E+02  0.12700000000E+01 0. -1.
<mgrwt>
<rscale>  0 0.33157699E+01</rscale>
<asrwt>0</asrwt>
<pdfrwt beam="1">0</pdfrwt>
<pdfrwt beam="2">0</pdfrwt>
<totfact> 0.34433063E+11</totfact>
</mgrwt>
</event>
<event>
 4    1  0.1735226E+006  0.2034335E+01  0.7546771E-02  0.2957927E+00
         22   -1    0    0    0    0  0.00000000000E+00  0.00000000000E+00  0.21391400716E+01  0.21391400716E+01  0.00000000000E+00 0.  1.
         22   -1    0    0    0    0 -0.00000000000E+00 -0.00000000000E+00 -0.24767487849E+01  0.24767487849E+01  0.00000000000E+00 0. -1.
          4    1    1    2  501    0 -0.11470431827E+01  0.10999603182E+01  0.91093100760E+00  0.22289719750E+01  0.12700000000E+01 0.  1.
         -4    1    1    2    0  501  0.11470431827E+01 -0.10999603182E+01 -0.12485397209E+01  0.23869168815E+01  0.12700000000E+01 0. -1.
<mgrwt>
<rscale>  0 0.20343355E+01</rscale>
<asrwt>0</asrwt>
<pdfrwt beam="1">0</pdfrwt>
<pdfrwt beam="2">0</pdfrwt>
<totfact> 0.34578182E+12</totfact>
</mgrwt>
</event>
<event>
 4    1  0.1735226E+006  0.2169222E+01  0.7546771E-02  0.2875162E+00
         22   -1    0    0    0    0  0.00000000000E+00  0.00000000000E+00  0.16344715768E+01  0.16344715768E+01  0.00000000000E+00 0. -1.
         22   -1    0    0    0    0 -0.00000000000E+00 -0.00000000000E+00 -0.29668577924E+01  0.29668577924E+01  0.00000000000E+00 0.  1.
          4    1    1    2  501    0  0.13458184862E+01 -0.11319883739E+01 -0.27012090715E+00  0.21859758418E+01  0.12700000000E+01 0.  1.
         -4    1    1    2    0  501 -0.13458184862E+01  0.11319883739E+01 -0.10622653085E+01  0.24153535274E+01  0.12700000000E+01 0.  1.
<mgrwt>
<rscale>  0 0.21692222E+01</rscale>
<asrwt>0</asrwt>
<pdfrwt beam="1">0</pdfrwt>
<pdfrwt beam="2">0</pdfrwt>
<totfact> 0.38239034E+12</totfact>
</mgrwt>
</event>
<event>
 4    1  0.1735226E+006  0.2319228E+01  0.7546771E-02  0.2794022E+00
         22   -1    0    0    0    0  0.00000000000E+00  0.00000000000E+00  0.10372477753E+01  0.10372477753E+01  0.00000000000E+00 0. -1.
         22   -1    0    0    0    0 -0.00000000000E+00 -0.00000000000E+00 -0.53291464539E+01  0.53291464539E+01  0.00000000000E+00 0.  1.
          4    1    1    2  501    0 -0.63606853806E+00 -0.18333943955E+01 -0.26682667131E+01  0.35353168806E+01  0.12700000000E+01 0.  1.
         -4    1    1    2    0  501  0.63606853806E+00  0.18333943955E+01 -0.16236319656E+01  0.28310773486E+01  0.12700000000E+01 0. -1.
<mgrwt>
<rscale>  0 0.23192279E+01</rscale>
<asrwt>0</asrwt>
<pdfrwt beam="1">0</pdfrwt>
<pdfrwt beam="2">0</pdfrwt>
<totfact> 0.32347488E+12</totfact>
</mgrwt>
</event>
<event>
 4    1  0.1735226E+006  0.2395428E+01  0.7546771E-02  0.2756508E+00
         22   -1    0    0    0    0  0.00000000000E+00  0.00000000000E+00  0.43391607669E+01  0.43391607669E+01  0.00000000000E+00 0. -1.
         22   -1    0    0    0    0 -0.00000000000E+00 -0.00000000000E+00 -0.13279080158E+01  0.13279080158E+01  0.00000000000E+00 0.  1.
          4    1    1    2  501    0 -0.18386316515E+01  0.86290675362E+00  0.16882389395E+01  0.29305673738E+01  0.12700000000E+01 0.  1.
         -4    1    1    2    0  501  0.18386316515E+01 -0.86290675362E+00  0.13230138115E+01  0.27365014089E+01  0.12700000000E+01 0. -1.
<mgrwt>
<rscale>  0 0.23954278E+01</rscale>
<asrwt>0</asrwt>
<pdfrwt beam="1">0</pdfrwt>
<pdfrwt beam="2">0</pdfrwt>
<totfact> 0.31083678E+12</totfact>
</mgrwt>
</event>
<event>
 4    1  0.1735226E+006  0.2449656E+01  0.7546771E-02  0.2731150E+00
         22   -1    0    0    0    0  0.00000000000E+00  0.00000000000E+00  0.45093457694E+02  0.45093457694E+02  0.00000000000E+00 0.  1.
         22   -1    0    0    0    0 -0.00000000000E+00 -0.00000000000E+00 -0.13638085593E+00  0.13638085593E+00  0.00000000000E+00 0. -1.
          4    1    1    2  501    0 -0.58691392578E+00 -0.20108317754E+01  0.25999486047E+02  0.26114633581E+02  0.12700000000E+01 0. -1.
         -4    1    1    2    0  501  0.58691392578E+00  0.20108317754E+01  0.18957590792E+02  0.19115204969E+02  0.12700000000E+01 0.  1.
<mgrwt>
<rscale>  0 0.24496556E+01</rscale>
<asrwt>0</asrwt>
<pdfrwt beam="1">0</pdfrwt>
<pdfrwt beam="2">0</pdfrwt>
<totfact> 0.22587567E+12</totfact>
</mgrwt>
</event>
<event>
 4    1  0.1735226E+006  0.2106544E+01  0.7546771E-02  0.2912342E+00
         22   -1    0    0    0    0  0.00000000000E+00  0.00000000000E+00  0.19148650355E+02  0.19148650355E+02  0.00000000000E+00 0. -1.
         22   -1    0    0    0    0 -0.00000000000E+00 -0.00000000000E+00 -0.25522543740E+00  0.25522543740E+00  0.00000000000E+00 0. -1.
          4    1    1    2  501    0 -0.16447531795E+01  0.34556586687E+00  0.12389682983E+02  0.12567488739E+02  0.12700000000E+01 0. -1.
         -4    1    1    2    0  501  0.16447531795E+01 -0.34556586687E+00  0.65037419346E+01  0.68363870532E+01  0.12700000000E+01 0. -1.
<mgrwt>
<rscale>  0 0.21065443E+01</rscale>
<asrwt>0</asrwt>
<pdfrwt beam="1">0</pdfrwt>
<pdfrwt beam="2">0</pdfrwt>
<totfact> 0.33449511E+12</totfact>
</mgrwt>
</event>
<event>
 4    1  0.1735226E+006  0.2521992E+01  0.7546771E-02  0.2698913E+00
         22   -1    0    0    0    0  0.00000000000E+00  0.00000000000E+00  0.25347773567E+01  0.25347773567E+01  0.00000000000E+00 0.  1.
         22   -1    0    0    0    0 -0.00000000000E+00 -0.00000000000E+00 -0.36065179235E+01  0.36065179235E+01  0.00000000000E+00 0. -1.
          4    1    1    2  501    0  0.21497419509E+01  0.35518116235E+00  0.11578358473E+01  0.27750726050E+01  0.12700000000E+01 0.  1.
         -4    1    1    2    0  501 -0.21497419509E+01 -0.35518116235E+00 -0.22295764141E+01  0.33662226753E+01  0.12700000000E+01 0. -1.
<mgrwt>
<rscale>  0 0.25219921E+01</rscale>
<asrwt>0</asrwt>
<pdfrwt beam="1">0</pdfrwt>
<pdfrwt beam="2">0</pdfrwt>
<totfact> 0.18306268E+12</totfact>
</mgrwt>
</event>
<event>
 4    1  0.1735226E+006  0.2499376E+01  0.7546771E-02  0.2708805E+00
         22   -1    0    0    0    0  0.00000000000E+00  0.00000000000E+00  0.80630753096E+00  0.80630753096E+00  0.00000000000E+00 0.  1.
         22   -1    0    0    0    0 -0.00000000000E+00 -0.00000000000E+00 -0.79644562804E+01  0.79644562804E+01  0.00000000000E+00 0. -1.
          4    1    1    2  501    0 -0.20049542453E+01  0.78366913719E+00 -0.28553028266E+01  0.37946848451E+01  0.12700000000E+01 0. -1.
         -4    1    1    2    0  501  0.20049542453E+01 -0.78366913719E+00 -0.43028459228E+01  0.49760789662E+01  0.12700000000E+01 0.  1.
<mgrwt>
<rscale>  0 0.24993757E+01</rscale>
<asrwt>0</asrwt>
<pdfrwt beam="1">0</pdfrwt>
<pdfrwt beam="2">0</pdfrwt>
<totfact> 0.26686901E+12</totfact>
</mgrwt>
</event>
<event>
 4    1  0.1735226E+006  0.2061641E+01  0.7546771E-02  0.2940324E+00
         22   -1    0    0    0    0  0.00000000000E+00  0.00000000000E+00  0.82534294251E-01  0.82534294251E-01  0.00000000000E+00 0.  1.
         22   -1    0    0    0    0 -0.00000000000E+00 -0.00000000000E+00 -0.71320358231E+02  0.71320358231E+02  0.00000000000E+00 0. -1.
          4    1    1    2  501    0  0.16791662642E+00 -0.16153223599E+01 -0.16797369116E+02  0.16923414890E+02  0.12700000000E+01 0.  1.
         -4    1    1    2    0  501 -0.16791662642E+00  0.16153223599E+01 -0.54440454821E+02  0.54479477635E+02  0.12700000000E+01 0. -1.
<mgrwt>
<rscale>  0 0.20616407E+01</rscale>
<asrwt>0</asrwt>
<pdfrwt beam="1">0</pdfrwt>
<pdfrwt beam="2">0</pdfrwt>
<totfact> 0.21383763E+12</totfact>
</mgrwt>
</event>
<event>
 4    1  0.1735226E+006  0.3564788E+01  0.7546771E-02  0.2369103E+00
         22   -1    0    0    0    0  0.00000000000E+00  0.00000000000E+00  0.92491911147E+01  0.92491911147E+01  0.00000000000E+00 0.  1.
         22   -1    0    0    0    0 -0.00000000000E+00 -0.00000000000E+00 -0.13741807996E+01  0.13741807996E+01  0.00000000000E+00 0.  1.
          4    1    1    2  501    0  0.33247533798E+01  0.20205299317E+00  0.40097370188E+01  0.53652307880E+01  0.12700000000E+01 0.  1.
         -4    1    1    2    0  501 -0.33247533798E+01 -0.20205299317E+00  0.38652732963E+01  0.52581411262E+01  0.12700000000E+01 0.  1.
<mgrwt>
<rscale>  0 0.35647876E+01</rscale>
<asrwt>0</asrwt>
<pdfrwt beam="1">0</pdfrwt>
<pdfrwt beam="2">0</pdfrwt>
<totfact> 0.12117753E+12</totfact>
</mgrwt>
</event>
<event>
 4    1  0.1735226E+006  0.2406040E+01  0.7546771E-02  0.2751461E+00
         22   -1    0    0    0    0  0.00000000000E+00  0.00000000000E+00  0.96047074633E+00  0.96047074633E+00  0.00000000000E+00 0.  1.
         22   -1    0    0    0    0 -0.00000000000E+00 -0.00000000000E+00 -0.68791723347E+01  0.68791723347E+01  0.00000000000E+00 0.  1.
          4    1    1    2  501    0 -0.94447012030E+00 -0.18122098454E+01 -0.15799515977E+01  0.28784154292E+01  0.12700000000E+01 0.  1.
         -4    1    1    2    0  501  0.94447012030E+00  0.18122098454E+01 -0.43387499907E+01  0.49612276519E+01  0.12700000000E+01 0.  1.
<mgrwt>
<rscale>  0 0.24060400E+01</rscale>
<asrwt>0</asrwt>
<pdfrwt beam="1">0</pdfrwt>
<pdfrwt beam="2">0</pdfrwt>
<totfact> 0.26058773E+12</totfact>
</mgrwt>
</event>
<event>
 4    1  0.1735226E+006  0.3176934E+01  0.7546771E-02  0.2469061E+00
         22   -1    0    0    0    0  0.00000000000E+00  0.00000000000E+00  0.50602946244E+00  0.50602946244E+00  0.00000000000E+00 0. -1.
         22   -1    0    0    0    0 -0.00000000000E+00 -0.00000000000E+00 -0.20400579850E+02  0.20400579850E+02  0.00000000000E+00 0.  1.
          4    1    1    2  501    0  0.10202324158E+01  0.27274778951E+01 -0.83856702430E+01  0.89672947579E+01  0.12700000000E+01 0. -1.
         -4    1    1    2    0  501 -0.10202324158E+01 -0.27274778951E+01 -0.11508880144E+02  0.11939314554E+02  0.12700000000E+01 0.  1.
<mgrwt>
<rscale>  0 0.31769340E+01</rscale>
<asrwt>0</asrwt>
<pdfrwt beam="1">0</pdfrwt>
<pdfrwt beam="2">0</pdfrwt>
<totfact> 0.14322990E+12</totfact>
</mgrwt>
</event>
<event>
 4    1  0.1735226E+006  0.2138334E+01  0.7546771E-02  0.2893222E+00
         22   -1    0    0    0    0  0.00000000000E+00  0.00000000000E+00  0.12403848063E+02  0.12403848063E+02  0.00000000000E+00 0. -1.
         22   -1    0    0    0    0 -0.00000000000E+00 -0.00000000000E+00 -0.40107646542E+00  0.40107646542E+00  0.00000000000E+00 0. -1.
          4    1    1    2  501    0 -0.15417758713E+01 -0.76321636691E+00  0.78223219418E+01  0.81093275073E+01  0.12700000000E+01 0. -1.
         -4    1    1    2    0  501  0.15417758713E+01  0.76321636691E+00  0.41804496558E+01  0.46955970212E+01  0.12700000000E+01 0. -1.
<mgrwt>
<rscale>  0 0.21383339E+01</rscale>
<asrwt>0</asrwt>
<pdfrwt beam="1">0</pdfrwt>
<pdfrwt beam="2">0</pdfrwt>
<totfact> 0.34393767E+12</totfact>
</mgrwt>
</event>
<event>
 4    1  0.1735226E+006  0.2126738E+01  0.7546771E-02  0.2900132E+00
         22   -1    0    0    0    0  0.00000000000E+00  0.00000000000E+00  0.17136670335E+01  0.17136670335E+01  0.00000000000E+00 0.  1.
         22   -1    0    0    0    0 -0.00000000000E+00 -0.00000000000E+00 -0.26737350552E+01  0.26737350552E+01  0.00000000000E+00 0.  1.
          4    1    1    2  501    0 -0.12488071035E+01  0.11621506824E+01 -0.72870917242E+00  0.22481170896E+01  0.12700000000E+01 0.  1.
         -4    1    1    2    0  501  0.12488071035E+01 -0.11621506824E+01 -0.23135884926E+00  0.21392849991E+01  0.12700000000E+01 0.  1.
<mgrwt>
<rscale>  0 0.21267377E+01</rscale>
<asrwt>0</asrwt>
<pdfrwt beam="1">0</pdfrwt>
<pdfrwt beam="2">0</pdfrwt>
<totfact> 0.40879332E+12</totfact>
</mgrwt>
</event>
<event>
 4    1  0.1735226E+006  0.2238769E+01  0.7546771E-02  0.2836253E+00
         22   -1    0    0    0    0  0.00000000000E+00  0.00000000000E+00  0.26693687240E+02  0.26693687240E+02  0.00000000000E+00 0.  1.
         22   -1    0    0    0    0 -0.00000000000E+00 -0.00000000000E+00 -0.18789249118E+00  0.18789249118E+00  0.00000000000E+00 0.  1.
          4    1    1    2  501    0  0.38925564965E+00 -0.18021280835E+01  0.13605809025E+02  0.13788768067E+02  0.12700000000E+01 0.  1.
         -4    1    1    2    0  501 -0.38925564965E+00  0.18021280835E+01  0.12899985724E+02  0.13092811664E+02  0.12700000000E+01 0.  1.
<mgrwt>
<rscale>  0 0.22387688E+01</rscale>
<asrwt>0</asrwt>
<pdfrwt beam="1">0</pdfrwt>
<pdfrwt beam="2">0</pdfrwt>
<totfact> 0.31039705E+12</totfact>
</mgrwt>
</event>
<event>
 4    1  0.1735226E+006  0.2085358E+01  0.7546771E-02  0.2925398E+00
         22   -1    0    0    0    0  0.00000000000E+00  0.00000000000E+00  0.16421916628E+01  0.16421916628E+01  0.00000000000E+00 0.  1.
         22   -1    0    0    0    0 -0.00000000000E+00 -0.00000000000E+00 -0.28733968152E+01  0.28733968152E+01  0.00000000000E+00 0. -1.
          4    1    1    2  501    0 -0.16538456339E+01  0.24763189156E-01  0.16585025530E-01  0.20854240958E+01  0.12700000000E+01 0. -1.
         -4    1    1    2    0  501  0.16538456339E+01 -0.24763189156E-01 -0.12477901779E+01  0.24301643822E+01  0.12700000000E+01 0.  1.
<mgrwt>
<rscale>  0 0.20853581E+01</rscale>
<asrwt>0</asrwt>
<pdfrwt beam="1">0</pdfrwt>
<pdfrwt beam="2">0</pdfrwt>
<totfact> 0.39479131E+12</totfact>
</mgrwt>
</event>
<event>
 4    1  0.1735226E+006  0.2017167E+01  0.7546771E-02  0.2969233E+00
         22   -1    0    0    0    0  0.00000000000E+00  0.00000000000E+00  0.39381194920E+00  0.39381194920E+00  0.00000000000E+00 0.  1.
         22   -1    0    0    0    0 -0.00000000000E+00 -0.00000000000E+00 -0.17560471113E+02  0.17560471113E+02  0.00000000000E+00 0.  1.
          4    1    1    2  501    0 -0.13272968423E+01  0.83327486432E+00 -0.14342841419E+02  0.14483993368E+02  0.12700000000E+01 0.  1.
         -4    1    1    2    0  501  0.13272968423E+01 -0.83327486432E+00 -0.28238177446E+01  0.34702896942E+01  0.12700000000E+01 0.  1.
<mgrwt>
<rscale>  0 0.20171673E+01</rscale>
<asrwt>0</asrwt>
<pdfrwt beam="1">0</pdfrwt>
<pdfrwt beam="2">0</pdfrwt>
<totfact> 0.22893354E+12</totfact>
</mgrwt>
</event>
<event>
 4    1  0.1735226E+006  0.4280183E+01  0.7546771E-02  0.2226736E+00
         22   -1    0    0    0    0  0.00000000000E+00  0.00000000000E+00  0.69196541147E+01  0.69196541147E+01  0.00000000000E+00 0.  1.
         22   -1    0    0    0    0 -0.00000000000E+00 -0.00000000000E+00 -0.15368302361E+02  0.15368302361E+02  0.00000000000E+00 0. -1.
          4    1    1    2  501    0 -0.32466859086E+01  0.24831633361E+01  0.59144185989E+01  0.73007066032E+01  0.12700000000E+01 0.  1.
         -4    1    1    2    0  501  0.32466859086E+01 -0.24831633361E+01 -0.14363066846E+02  0.14987249873E+02  0.12700000000E+01 0. -1.
<mgrwt>
<rscale>  0 0.42801834E+01</rscale>
<asrwt>0</asrwt>
<pdfrwt beam="1">0</pdfrwt>
<pdfrwt beam="2">0</pdfrwt>
<totfact> 0.98433486E+10</totfact>
</mgrwt>
</event>
<event>
 4    1  0.1735226E+006  0.3648592E+01  0.7546771E-02  0.2349961E+00
         22   -1    0    0    0    0  0.00000000000E+00  0.00000000000E+00  0.31471106041E+02  0.31471106041E+02  0.00000000000E+00 0.  1.
         22   -1    0    0    0    0 -0.00000000000E+00 -0.00000000000E+00 -0.52188643375E+00  0.52188643375E+00  0.00000000000E+00 0. -1.
          4    1    1    2  501    0 -0.87398885201E+00 -0.33068812882E+01  0.85114039744E+01  0.92604653221E+01  0.12700000000E+01 0. -1.
         -4    1    1    2    0  501  0.87398885201E+00  0.33068812882E+01  0.22437815633E+02  0.22732527153E+02  0.12700000000E+01 0.  1.
<mgrwt>
<rscale>  0 0.36485916E+01</rscale>
<asrwt>0</asrwt>
<pdfrwt beam="1">0</pdfrwt>
<pdfrwt beam="2">0</pdfrwt>
<totfact> 0.80019572E+11</totfact>
</mgrwt>
</event>
<event>
 4    1  0.1735226E+006  0.3309874E+01  0.7546771E-02  0.2432484E+00
         22   -1    0    0    0    0  0.00000000000E+00  0.00000000000E+00  0.21252918085E+02  0.21252918085E+02  0.00000000000E+00 0.  1.
         22   -1    0    0    0    0 -0.00000000000E+00 -0.00000000000E+00 -0.57858395490E+00  0.57858395490E+00  0.00000000000E+00 0. -1.
          4    1    1    2  501    0  0.75062109963E+00 -0.29629267098E+01  0.13942364660E+02  0.14329856909E+02  0.12700000000E+01 0.  1.
         -4    1    1    2    0  501 -0.75062109963E+00  0.29629267098E+01  0.67319694708E+01  0.75016451315E+01  0.12700000000E+01 0. -1.
<mgrwt>
<rscale>  0 0.33098741E+01</rscale>
<asrwt>0</asrwt>
<pdfrwt beam="1">0</pdfrwt>
<pdfrwt beam="2">0</pdfrwt>
<totfact> 0.11695939E+12</totfact>
</mgrwt>
</event>
<event>
 4    1  0.1735226E+006  0.4140396E+01  0.7546771E-02  0.2251235E+00
         22   -1    0    0    0    0  0.00000000000E+00  0.00000000000E+00  0.16744119266E+01  0.16744119266E+01  0.00000000000E+00 0.  1.
         22   -1    0    0    0    0 -0.00000000000E+00 -0.00000000000E+00 -0.12101282744E+02  0.12101282744E+02  0.00000000000E+00 0. -1.
          4    1    1    2  501    0  0.18028560999E+01  0.35042390309E+01 -0.25107863888E+01  0.48422029689E+01  0.12700000000E+01 0.  1.
         -4    1    1    2    0  501 -0.18028560999E+01 -0.35042390309E+01 -0.79160844286E+01  0.89334917016E+01  0.12700000000E+01 0. -1.
<mgrwt>
<rscale>  0 0.41403963E+01</rscale>
<asrwt>0</asrwt>
<pdfrwt beam="1">0</pdfrwt>
<pdfrwt beam="2">0</pdfrwt>
<totfact> 0.69663824E+11</totfact>
</mgrwt>
</event>
<event>
 4    1  0.1735226E+006  0.2620949E+01  0.7546771E-02  0.2657495E+00
         22   -1    0    0    0    0  0.00000000000E+00  0.00000000000E+00  0.44781707152E+00  0.44781707152E+00  0.00000000000E+00 0.  1.
         22   -1    0    0    0    0 -0.00000000000E+00 -0.00000000000E+00 -0.18832084674E+02  0.18832084674E+02  0.00000000000E+00 0. -1.
          4    1    1    2  501    0 -0.14591219553E+01  0.17684555067E+01 -0.50407992166E+01  0.56814635880E+01  0.12700000000E+01 0.  1.
         -4    1    1    2    0  501  0.14591219553E+01 -0.17684555067E+01 -0.13343468386E+02  0.13598438158E+02  0.12700000000E+01 0. -1.
<mgrwt>
<rscale>  0 0.26209486E+01</rscale>
<asrwt>0</asrwt>
<pdfrwt beam="1">0</pdfrwt>
<pdfrwt beam="2">0</pdfrwt>
<totfact> 0.18163547E+12</totfact>
</mgrwt>
</event>
<event>
 4    1  0.1735226E+006  0.2070343E+01  0.7546771E-02  0.2934809E+00
         22   -1    0    0    0    0  0.00000000000E+00  0.00000000000E+00  0.67922084725E+00  0.67922084725E+00  0.00000000000E+00 0. -1.
         22   -1    0    0    0    0 -0.00000000000E+00 -0.00000000000E+00 -0.70910302399E+01  0.70910302399E+01  0.00000000000E+00 0. -1.
          4    1    1    2  501    0  0.14644854527E+01 -0.72711923782E+00 -0.19170452056E+01  0.28215921653E+01  0.12700000000E+01 0. -1.
         -4    1    1    2    0  501 -0.14644854527E+01  0.72711923782E+00 -0.44947641870E+01  0.49486589218E+01  0.12700000000E+01 0. -1.
<mgrwt>
<rscale>  0 0.20703430E+01</rscale>
<asrwt>0</asrwt>
<pdfrwt beam="1">0</pdfrwt>
<pdfrwt beam="2">0</pdfrwt>
<totfact> 0.37271794E+12</totfact>
</mgrwt>
</event>
<event>
 4    1  0.1735226E+006  0.4006614E+01  0.7546771E-02  0.2276032E+00
         22   -1    0    0    0    0  0.00000000000E+00  0.00000000000E+00  0.54542958304E+01  0.54542958304E+01  0.00000000000E+00 0.  1.
         22   -1    0    0    0    0 -0.00000000000E+00 -0.00000000000E+00 -0.40819471242E+01  0.40819471242E+01  0.00000000000E+00 0. -1.
          4    1    1    2  501    0 -0.34013622395E+01  0.16943414016E+01  0.32046146650E+01  0.51305470489E+01  0.12700000000E+01 0.  1.
         -4    1    1    2    0  501  0.34013622395E+01 -0.16943414016E+01 -0.18322659588E+01  0.44056959057E+01  0.12700000000E+01 0. -1.
<mgrwt>
<rscale>  0 0.40066143E+01</rscale>
<asrwt>0</asrwt>
<pdfrwt beam="1">0</pdfrwt>
<pdfrwt beam="2">0</pdfrwt>
<totfact> 0.64334013E+11</totfact>
</mgrwt>
</event>
<event>
 4    1  0.1735226E+006  0.2027190E+01  0.7546771E-02  0.2962610E+00
         22   -1    0    0    0    0  0.00000000000E+00  0.00000000000E+00  0.26949882688E+00  0.26949882688E+00  0.00000000000E+00 0.  1.
         22   -1    0    0    0    0 -0.00000000000E+00 -0.00000000000E+00 -0.19429076494E+02  0.19429076494E+02  0.00000000000E+00 0.  1.
          4    1    1    2  501    0 -0.15698320871E+01 -0.17951828846E+00 -0.50111395327E+01  0.54056469561E+01  0.12700000000E+01 0.  1.
         -4    1    1    2    0  501  0.15698320871E+01  0.17951828846E+00 -0.14148438135E+02  0.14292928365E+02  0.12700000000E+01 0.  1.
<mgrwt>
<rscale>  0 0.20271901E+01</rscale>
<asrwt>0</asrwt>
<pdfrwt beam="1">0</pdfrwt>
<pdfrwt beam="2">0</pdfrwt>
<totfact> 0.30907630E+12</totfact>
</mgrwt>
</event>
<event>
 4    1  0.1735226E+006  0.3174699E+01  0.7546771E-02  0.2469699E+00
         22   -1    0    0    0    0  0.00000000000E+00  0.00000000000E+00  0.28692861815E+01  0.28692861815E+01  0.00000000000E+00 0. -1.
         22   -1    0    0    0    0 -0.00000000000E+00 -0.00000000000E+00 -0.40201530521E+01  0.40201530521E+01  0.00000000000E+00 0. -1.
          4    1    1    2  501    0  0.69890744695E+00 -0.28244193715E+01  0.64851774820E+00  0.32402610505E+01  0.12700000000E+01 0. -1.
         -4    1    1    2    0  501 -0.69890744695E+00  0.28244193715E+01 -0.17993846188E+01  0.36491781831E+01  0.12700000000E+01 0. -1.
<mgrwt>
<rscale>  0 0.31746994E+01</rscale>
<asrwt>0</asrwt>
<pdfrwt beam="1">0</pdfrwt>
<pdfrwt beam="2">0</pdfrwt>
<totfact> 0.13946428E+12</totfact>
</mgrwt>
</event>
<event>
 4    1  0.1735226E+006  0.2445917E+01  0.7546771E-02  0.2732864E+00
         22   -1    0    0    0    0  0.00000000000E+00  0.00000000000E+00  0.18094662523E+02  0.18094662523E+02  0.00000000000E+00 0.  1.
         22   -1    0    0    0    0 -0.00000000000E+00 -0.00000000000E+00 -0.33258245128E+00  0.33258245128E+00  0.00000000000E+00 0.  1.
          4    1    1    2  501    0  0.18357348757E+01 -0.99984403588E+00  0.81738209565E+01  0.85319317660E+01  0.12700000000E+01 0.  1.
         -4    1    1    2    0  501 -0.18357348757E+01  0.99984403588E+00  0.95882591151E+01  0.98953132082E+01  0.12700000000E+01 0.  1.
<mgrwt>
<rscale>  0 0.24459171E+01</rscale>
<asrwt>0</asrwt>
<pdfrwt beam="1">0</pdfrwt>
<pdfrwt beam="2">0</pdfrwt>
<totfact> 0.26675018E+12</totfact>
</mgrwt>
</event>
<event>
 4    1  0.1735226E+006  0.2377332E+01  0.7546771E-02  0.2765212E+00
         22   -1    0    0    0    0  0.00000000000E+00  0.00000000000E+00  0.23458674803E+02  0.23458674803E+02  0.00000000000E+00 0.  1.
         22   -1    0    0    0    0 -0.00000000000E+00 -0.00000000000E+00 -0.24982318571E+00  0.24982318571E+00  0.00000000000E+00 0. -1.
          4    1    1    2  501    0  0.19698233206E+01 -0.39824885890E+00  0.13842047065E+02  0.14044713347E+02  0.12700000000E+01 0.  1.
         -4    1    1    2    0  501 -0.19698233206E+01  0.39824885890E+00  0.93668045529E+01  0.96637846416E+01  0.12700000000E+01 0. -1.
<mgrwt>
<rscale>  0 0.23773317E+01</rscale>
<asrwt>0</asrwt>
<pdfrwt beam="1">0</pdfrwt>
<pdfrwt beam="2">0</pdfrwt>
<totfact> 0.26579471E+12</totfact>
</mgrwt>
</event>
<event>
 4    1  0.1735226E+006  0.2458989E+01  0.7546771E-02  0.2726891E+00
         22   -1    0    0    0    0  0.00000000000E+00  0.00000000000E+00  0.66321839451E+02  0.66321839451E+02  0.00000000000E+00 0. -1.
         22   -1    0    0    0    0 -0.00000000000E+00 -0.00000000000E+00 -0.91971680768E-01  0.91971680768E-01  0.00000000000E+00 0.  1.
          4    1    1    2  501    0  0.69102781882E+00 -0.19890218476E+01  0.36213319097E+02  0.36296709319E+02  0.12700000000E+01 0.  1.
         -4    1    1    2    0  501 -0.69102781882E+00  0.19890218476E+01  0.30016548673E+02  0.30117101812E+02  0.12700000000E+01 0. -1.
<mgrwt>
<rscale>  0 0.24589891E+01</rscale>
<asrwt>0</asrwt>
<pdfrwt beam="1">0</pdfrwt>
<pdfrwt beam="2">0</pdfrwt>
<totfact> 0.20936331E+12</totfact>
</mgrwt>
</event>
<event>
 4    1  0.1735226E+006  0.2018488E+01  0.7546771E-02  0.2968356E+00
         22   -1    0    0    0    0  0.00000000000E+00  0.00000000000E+00  0.14191119040E+02  0.14191119040E+02  0.00000000000E+00 0. -1.
         22   -1    0    0    0    0 -0.00000000000E+00 -0.00000000000E+00 -0.39529228869E+00  0.39529228869E+00  0.00000000000E+00 0.  1.
          4    1    1    2  501    0 -0.55506440318E+00 -0.14674123356E+01  0.10713434677E+02  0.10901925428E+02  0.12700000000E+01 0. -1.
         -4    1    1    2    0  501  0.55506440318E+00  0.14674123356E+01  0.30823920743E+01  0.36844859009E+01  0.12700000000E+01 0.  1.
<mgrwt>
<rscale>  0 0.20184884E+01</rscale>
<asrwt>0</asrwt>
<pdfrwt beam="1">0</pdfrwt>
<pdfrwt beam="2">0</pdfrwt>
<totfact> 0.29647725E+12</totfact>
</mgrwt>
</event>
<event>
 4    1  0.1735226E+006  0.2003998E+01  0.7546771E-02  0.2978034E+00
         22   -1    0    0    0    0  0.00000000000E+00  0.00000000000E+00  0.99231727313E+00  0.99231727313E+00  0.00000000000E+00 0.  1.
         22   -1    0    0    0    0 -0.00000000000E+00 -0.00000000000E+00 -0.51147389106E+01  0.51147389106E+01  0.00000000000E+00 0. -1.
          4    1    1    2  501    0  0.15143874863E+01  0.33127098441E+00 -0.66612208695E+00  0.21118069416E+01  0.12700000000E+01 0.  1.
         -4    1    1    2    0  501 -0.15143874863E+01 -0.33127098441E+00 -0.34562995505E+01  0.39952492421E+01  0.12700000000E+01 0. -1.
<mgrwt>
<rscale>  0 0.20039985E+01</rscale>
<asrwt>0</asrwt>
<pdfrwt beam="1">0</pdfrwt>
<pdfrwt beam="2">0</pdfrwt>
<totfact> 0.35720532E+12</totfact>
</mgrwt>
</event>
<event>
 4    1  0.1735226E+006  0.3847996E+01  0.7546771E-02  0.2307327E+00
         22   -1    0    0    0    0  0.00000000000E+00  0.00000000000E+00  0.33624732913E+02  0.33624732913E+02  0.00000000000E+00 0. -1.
         22   -1    0    0    0    0 -0.00000000000E+00 -0.00000000000E+00 -0.69281491884E+00  0.69281491884E+00  0.00000000000E+00 0.  1.
          4    1    1    2  501    0 -0.11865109036E+01  0.34331270849E+01  0.26823757285E+02  0.27098358337E+02  0.12700000000E+01 0. -1.
         -4    1    1    2    0  501  0.11865109036E+01 -0.34331270849E+01  0.61081607092E+01  0.72191894943E+01  0.12700000000E+01 0.  1.
<mgrwt>
<rscale>  0 0.38479955E+01</rscale>
<asrwt>0</asrwt>
<pdfrwt beam="1">0</pdfrwt>
<pdfrwt beam="2">0</pdfrwt>
<totfact> 0.53339528E+11</totfact>
</mgrwt>
</event>
<event>
 4    1  0.1735226E+006  0.2083206E+01  0.7546771E-02  0.2926739E+00
         22   -1    0    0    0    0  0.00000000000E+00  0.00000000000E+00  0.16795874934E+01  0.16795874934E+01  0.00000000000E+00 0. -1.
         22   -1    0    0    0    0 -0.00000000000E+00 -0.00000000000E+00 -0.26126901512E+01  0.26126901512E+01  0.00000000000E+00 0. -1.
          4    1    1    2  501    0 -0.24203619199E+00 -0.16334821557E+01 -0.69216558341E+00  0.21951853375E+01  0.12700000000E+01 0. -1.
         -4    1    1    2    0  501  0.24203619199E+00  0.16334821557E+01 -0.24093707439E+00  0.20970923072E+01  0.12700000000E+01 0. -1.
<mgrwt>
<rscale>  0 0.20832056E+01</rscale>
<asrwt>0</asrwt>
<pdfrwt beam="1">0</pdfrwt>
<pdfrwt beam="2">0</pdfrwt>
<totfact> 0.42977768E+12</totfact>
</mgrwt>
</event>
<event>
 4    1  0.1735226E+006  0.2076683E+01  0.7546771E-02  0.2930820E+00
         22   -1    0    0    0    0  0.00000000000E+00  0.00000000000E+00  0.10046714020E+01  0.10046714020E+01  0.00000000000E+00 0. -1.
         22   -1    0    0    0    0 -0.00000000000E+00 -0.00000000000E+00 -0.52261342647E+01  0.52261342647E+01  0.00000000000E+00 0. -1.
          4    1    1    2  501    0  0.16153698349E+01 -0.30048472517E+00 -0.79399542383E+00  0.22232947413E+01  0.12700000000E+01 0. -1.
         -4    1    1    2    0  501 -0.16153698349E+01  0.30048472517E+00 -0.34274674388E+01  0.40075109255E+01  0.12700000000E+01 0. -1.
<mgrwt>
<rscale>  0 0.20766826E+01</rscale>
<asrwt>0</asrwt>
<pdfrwt beam="1">0</pdfrwt>
<pdfrwt beam="2">0</pdfrwt>
<totfact> 0.34332309E+12</totfact>
</mgrwt>
</event>
<event>
 4    1  0.1735226E+006  0.2003618E+01  0.7546771E-02  0.2978290E+00
         22   -1    0    0    0    0  0.00000000000E+00  0.00000000000E+00  0.13704972022E+02  0.13704972022E+02  0.00000000000E+00 0. -1.
         22   -1    0    0    0    0 -0.00000000000E+00 -0.00000000000E+00 -0.28203506190E+01  0.28203506190E+01  0.00000000000E+00 0.  1.
          4    1    1    2  501    0 -0.26938179732E+00  0.15261127655E+01  0.13264131412E+02  0.13414606548E+02  0.12700000000E+01 0. -1.
         -4    1    1    2    0  501  0.26938179732E+00 -0.15261127655E+01 -0.23795100092E+01  0.31107160927E+01  0.12700000000E+01 0.  1.
<mgrwt>
<rscale>  0 0.20036184E+01</rscale>
<asrwt>0</asrwt>
<pdfrwt beam="1">0</pdfrwt>
<pdfrwt beam="2">0</pdfrwt>
<totfact> 0.32679053E+11</totfact>
</mgrwt>
</event>
<event>
 4    1  0.1735226E+006  0.2035059E+01  0.7546771E-02  0.2957455E+00
         22   -1    0    0    0    0  0.00000000000E+00  0.00000000000E+00  0.16625266934E+01  0.16625266934E+01  0.00000000000E+00 0. -1.
         22   -1    0    0    0    0 -0.00000000000E+00 -0.00000000000E+00 -0.26130462326E+01  0.26130462326E+01  0.00000000000E+00 0.  1.
          4    1    1    2  501    0 -0.12484962996E+01  0.98479456633E+00 -0.93714694373E+00  0.22404704288E+01  0.12700000000E+01 0.  1.
         -4    1    1    2    0  501  0.12484962996E+01 -0.98479456633E+00 -0.13372595532E-01  0.20351024973E+01  0.12700000000E+01 0. -1.
<mgrwt>
<rscale>  0 0.20350586E+01</rscale>
<asrwt>0</asrwt>
<pdfrwt beam="1">0</pdfrwt>
<pdfrwt beam="2">0</pdfrwt>
<totfact> 0.43479186E+12</totfact>
</mgrwt>
</event>
<event>
 4    1  0.1735226E+006  0.3136766E+01  0.7546771E-02  0.2480651E+00
         22   -1    0    0    0    0  0.00000000000E+00  0.00000000000E+00  0.41528712238E+01  0.41528712238E+01  0.00000000000E+00 0.  1.
         22   -1    0    0    0    0 -0.00000000000E+00 -0.00000000000E+00 -0.26707945252E+01  0.26707945252E+01  0.00000000000E+00 0. -1.
          4    1    1    2  501    0  0.13929033672E+01  0.25072331940E+01  0.18874075733E+01  0.36608203216E+01  0.12700000000E+01 0.  1.
         -4    1    1    2    0  501 -0.13929033672E+01 -0.25072331940E+01 -0.40533087462E+00  0.31628454273E+01  0.12700000000E+01 0. -1.
<mgrwt>
<rscale>  0 0.31367655E+01</rscale>
<asrwt>0</asrwt>
<pdfrwt beam="1">0</pdfrwt>
<pdfrwt beam="2">0</pdfrwt>
<totfact> 0.14593326E+12</totfact>
</mgrwt>
</event>
<event>
 4    1  0.1735226E+006  0.2149227E+01  0.7546771E-02  0.2886796E+00
         22   -1    0    0    0    0  0.00000000000E+00  0.00000000000E+00  0.84708370001E+00  0.84708370001E+00  0.00000000000E+00 0. -1.
         22   -1    0    0    0    0 -0.00000000000E+00 -0.00000000000E+00 -0.12700164768E+02  0.12700164768E+02  0.00000000000E+00 0. -1.
          4    1    1    2  501    0  0.10564900007E+01  0.13748113622E+01 -0.80972889646E+00  0.22967016107E+01  0.12700000000E+01 0. -1.
         -4    1    1    2    0  501 -0.10564900007E+01 -0.13748113622E+01 -0.11043352171E+02  0.11250546857E+02  0.12700000000E+01 0. -1.
<mgrwt>
<rscale>  0 0.21492272E+01</rscale>
<asrwt>0</asrwt>
<pdfrwt beam="1">0</pdfrwt>
<pdfrwt beam="2">0</pdfrwt>
<totfact> 0.14335372E+12</totfact>
</mgrwt>
</event>
<event>
 4    1  0.1735226E+006  0.2830334E+01  0.7546771E-02  0.2578677E+00
         22   -1    0    0    0    0  0.00000000000E+00  0.00000000000E+00  0.11438469222E+00  0.11438469222E+00  0.00000000000E+00 0.  1.
         22   -1    0    0    0    0 -0.00000000000E+00 -0.00000000000E+00 -0.10471068607E+03  0.10471068607E+03  0.00000000000E+00 0. -1.
          4    1    1    2  501    0  0.24817959341E+01  0.48844421508E+00 -0.22136157884E+02  0.22316367865E+02  0.12700000000E+01 0.  1.
         -4    1    1    2    0  501 -0.24817959341E+01 -0.48844421508E+00 -0.82460143495E+02  0.82508702899E+02  0.12700000000E+01 0. -1.
<mgrwt>
<rscale>  0 0.28303337E+01</rscale>
<asrwt>0</asrwt>
<pdfrwt beam="1">0</pdfrwt>
<pdfrwt beam="2">0</pdfrwt>
<totfact> 0.87525997E+11</totfact>
</mgrwt>
</event>
<event>
 4    1  0.1735226E+006  0.2150973E+01  0.7546771E-02  0.2885772E+00
         22   -1    0    0    0    0  0.00000000000E+00  0.00000000000E+00  0.18724050283E+02  0.18724050283E+02  0.00000000000E+00 0.  1.
         22   -1    0    0    0    0 -0.00000000000E+00 -0.00000000000E+00 -0.65812883746E+00  0.65812883746E+00  0.00000000000E+00 0.  1.
          4    1    1    2  501    0  0.59483841071E+00 -0.16309358830E+01  0.16691643647E+02  0.16829665838E+02  0.12700000000E+01 0.  1.
         -4    1    1    2    0  501 -0.59483841071E+00  0.16309358830E+01  0.13742777989E+01  0.25525132826E+01  0.12700000000E+01 0.  1.
<mgrwt>
<rscale>  0 0.21509729E+01</rscale>
<asrwt>0</asrwt>
<pdfrwt beam="1">0</pdfrwt>
<pdfrwt beam="2">0</pdfrwt>
<totfact> 0.11836442E+12</totfact>
</mgrwt>
</event>
<event>
 4    1  0.1735226E+006  0.3476409E+01  0.7546771E-02  0.2390156E+00
         22   -1    0    0    0    0  0.00000000000E+00  0.00000000000E+00  0.42211624120E+01  0.42211624120E+01  0.00000000000E+00 0.  1.
         22   -1    0    0    0    0 -0.00000000000E+00 -0.00000000000E+00 -0.32126316815E+01  0.32126316815E+01  0.00000000000E+00 0. -1.
          4    1    1    2  501    0  0.32360983796E+01  0.13569448125E-01  0.17303537432E+01  0.38832384590E+01  0.12700000000E+01 0.  1.
         -4    1    1    2    0  501 -0.32360983796E+01 -0.13569448125E-01 -0.72182301276E+00  0.35505556346E+01  0.12700000000E+01 0.  1.
<mgrwt>
<rscale>  0 0.34764086E+01</rscale>
<asrwt>0</asrwt>
<pdfrwt beam="1">0</pdfrwt>
<pdfrwt beam="2">0</pdfrwt>
<totfact> 0.11538520E+12</totfact>
</mgrwt>
</event>
<event>
 4    1  0.1735226E+006  0.2052815E+01  0.7546771E-02  0.2945964E+00
         22   -1    0    0    0    0  0.00000000000E+00  0.00000000000E+00  0.19625265162E+02  0.19625265162E+02  0.00000000000E+00 0. -1.
         22   -1    0    0    0    0 -0.00000000000E+00 -0.00000000000E+00 -0.26241099871E+01  0.26241099871E+01  0.00000000000E+00 0.  1.
          4    1    1    2  501    0 -0.16123139878E+01  0.39918107012E-01  0.19160396772E+02  0.19270050709E+02  0.12700000000E+01 0. -1.
         -4    1    1    2    0  501  0.16123139878E+01 -0.39918107012E-01 -0.21592415968E+01  0.29793244409E+01  0.12700000000E+01 0.  1.
<mgrwt>
<rscale>  0 0.20528151E+01</rscale>
<asrwt>0</asrwt>
<pdfrwt beam="1">0</pdfrwt>
<pdfrwt beam="2">0</pdfrwt>
<totfact> 0.22808963E+11</totfact>
</mgrwt>
</event>
<event>
 4    1  0.1735226E+006  0.2675234E+01  0.7546771E-02  0.2635978E+00
         22   -1    0    0    0    0  0.00000000000E+00  0.00000000000E+00  0.26626865448E+00  0.26626865448E+00  0.00000000000E+00 0. -1.
         22   -1    0    0    0    0 -0.00000000000E+00 -0.00000000000E+00 -0.28173284906E+02  0.28173284906E+02  0.00000000000E+00 0. -1.
          4    1    1    2  501    0  0.21463431606E+01 -0.96808371975E+00 -0.10904982565E+02  0.11228335575E+02  0.12700000000E+01 0. -1.
         -4    1    1    2    0  501 -0.21463431606E+01  0.96808371975E+00 -0.17002033687E+02  0.17211217986E+02  0.12700000000E+01 0. -1.
<mgrwt>
<rscale>  0 0.26752336E+01</rscale>
<asrwt>0</asrwt>
<pdfrwt beam="1">0</pdfrwt>
<pdfrwt beam="2">0</pdfrwt>
<totfact> 0.19637931E+12</totfact>
</mgrwt>
</event>
<event>
 4    1  0.1735226E+006  0.2150059E+01  0.7546771E-02  0.2886307E+00
         22   -1    0    0    0    0  0.00000000000E+00  0.00000000000E+00  0.41179867971E+01  0.41179867971E+01  0.00000000000E+00 0.  1.
         22   -1    0    0    0    0 -0.00000000000E+00 -0.00000000000E+00 -0.68998399321E+01  0.68998399321E+01  0.00000000000E+00 0.  1.
          4    1    1    2  501    0 -0.17016930585E+01  0.33778162786E+00  0.36499668582E+01  0.42361555400E+01  0.12700000000E+01 0.  1.
         -4    1    1    2    0  501  0.17016930585E+01 -0.33778162786E+00 -0.64318199932E+01  0.67816711892E+01  0.12700000000E+01 0.  1.
<mgrwt>
<rscale>  0 0.21500595E+01</rscale>
<asrwt>0</asrwt>
<pdfrwt beam="1">0</pdfrwt>
<pdfrwt beam="2">0</pdfrwt>
<totfact> 0.48115304E+11</totfact>
</mgrwt>
</event>
<event>
 4    1  0.1735226E+006  0.2396164E+01  0.7546771E-02  0.2756157E+00
         22   -1    0    0    0    0  0.00000000000E+00  0.00000000000E+00  0.10568236082E+02  0.10568236082E+02  0.00000000000E+00 0.  1.
         22   -1    0    0    0    0 -0.00000000000E+00 -0.00000000000E+00 -0.54504637749E+00  0.54504637749E+00  0.00000000000E+00 0. -1.
          4    1    1    2  501    0  0.20142176855E+01  0.26763892108E+00  0.53271407088E+01  0.58412354522E+01  0.12700000000E+01 0.  1.
         -4    1    1    2    0  501 -0.20142176855E+01 -0.26763892108E+00  0.46960489957E+01  0.52720470072E+01  0.12700000000E+01 0. -1.
<mgrwt>
<rscale>  0 0.23961643E+01</rscale>
<asrwt>0</asrwt>
<pdfrwt beam="1">0</pdfrwt>
<pdfrwt beam="2">0</pdfrwt>
<totfact> 0.29571833E+12</totfact>
</mgrwt>
</event>
<event>
 4    1  0.1735226E+006  0.2457571E+01  0.7546771E-02  0.2727536E+00
         22   -1    0    0    0    0  0.00000000000E+00  0.00000000000E+00  0.60696542233E+01  0.60696542233E+01  0.00000000000E+00 0.  1.
         22   -1    0    0    0    0 -0.00000000000E+00 -0.00000000000E+00 -0.19676925057E+01  0.19676925057E+01  0.00000000000E+00 0. -1.
          4    1    1    2  501    0 -0.20906148244E+01  0.23682118477E+00  0.48763750839E+01  0.54606490984E+01  0.12700000000E+01 0.  1.
         -4    1    1    2    0  501  0.20906148244E+01 -0.23682118477E+00 -0.77441336622E+00  0.25766976306E+01  0.12700000000E+01 0. -1.
<mgrwt>
<rscale>  0 0.24575709E+01</rscale>
<asrwt>0</asrwt>
<pdfrwt beam="1">0</pdfrwt>
<pdfrwt beam="2">0</pdfrwt>
<totfact> 0.13274042E+12</totfact>
</mgrwt>
</event>
<event>
 4    1  0.1735226E+006  0.2828924E+01  0.7546771E-02  0.2579172E+00
         22   -1    0    0    0    0  0.00000000000E+00  0.00000000000E+00  0.20927919460E+01  0.20927919460E+01  0.00000000000E+00 0.  1.
         22   -1    0    0    0    0 -0.00000000000E+00 -0.00000000000E+00 -0.52089574146E+01  0.52089574146E+01  0.00000000000E+00 0. -1.
          4    1    1    2  501    0 -0.42868523020E+00  0.24912122135E+01  0.32444663790E+00  0.28474681631E+01  0.12700000000E+01 0.  1.
         -4    1    1    2    0  501  0.42868523020E+00 -0.24912122135E+01 -0.34406121064E+01  0.44542811975E+01  0.12700000000E+01 0. -1.
<mgrwt>
<rscale>  0 0.28289237E+01</rscale>
<asrwt>0</asrwt>
<pdfrwt beam="1">0</pdfrwt>
<pdfrwt beam="2">0</pdfrwt>
<totfact> 0.14822543E+12</totfact>
</mgrwt>
</event>
<event>
 4    1  0.1735226E+006  0.2131459E+01  0.7546771E-02  0.2897310E+00
         22   -1    0    0    0    0  0.00000000000E+00  0.00000000000E+00  0.85709306098E+00  0.85709306098E+00  0.00000000000E+00 0.  1.
         22   -1    0    0    0    0 -0.00000000000E+00 -0.00000000000E+00 -0.97686305308E+01  0.97686305308E+01  0.00000000000E+00 0.  1.
          4    1    1    2  501    0  0.16182901420E+01  0.55799087219E+00 -0.86266947887E+00  0.22994163231E+01  0.12700000000E+01 0.  1.
         -4    1    1    2    0  501 -0.16182901420E+01 -0.55799087219E+00 -0.80488679909E+01  0.83263072687E+01  0.12700000000E+01 0.  1.
<mgrwt>
<rscale>  0 0.21314588E+01</rscale>
<asrwt>0</asrwt>
<pdfrwt beam="1">0</pdfrwt>
<pdfrwt beam="2">0</pdfrwt>
<totfact> 0.19461514E+12</totfact>
</mgrwt>
</event>
<event>
 4    1  0.1735226E+006  0.2148333E+01  0.7546771E-02  0.2887321E+00
         22   -1    0    0    0    0  0.00000000000E+00  0.00000000000E+00  0.14505376701E+00  0.14505376701E+00  0.00000000000E+00 0.  1.
         22   -1    0    0    0    0 -0.00000000000E+00 -0.00000000000E+00 -0.32447414680E+02  0.32447414680E+02  0.00000000000E+00 0. -1.
          4    1    1    2  501    0 -0.76158930037E+00  0.15564113951E+01 -0.18420692529E+02  0.18545545231E+02  0.12700000000E+01 0. -1.
         -4    1    1    2    0  501  0.76158930037E+00 -0.15564113951E+01 -0.13881668384E+02  0.14046923215E+02  0.12700000000E+01 0.  1.
<mgrwt>
<rscale>  0 0.21483330E+01</rscale>
<asrwt>0</asrwt>
<pdfrwt beam="1">0</pdfrwt>
<pdfrwt beam="2">0</pdfrwt>
<totfact> 0.32290560E+12</totfact>
</mgrwt>
</event>
<event>
 4    1  0.1735226E+006  0.2359253E+01  0.7546771E-02  0.2774032E+00
         22   -1    0    0    0    0  0.00000000000E+00  0.00000000000E+00  0.10900354750E+01  0.10900354750E+01  0.00000000000E+00 0.  1.
         22   -1    0    0    0    0 -0.00000000000E+00 -0.00000000000E+00 -0.61637795578E+01  0.61637795578E+01  0.00000000000E+00 0.  1.
          4    1    1    2  501    0 -0.15489888611E+01  0.12465190485E+01 -0.10346171316E+01  0.25761422397E+01  0.12700000000E+01 0.  1.
         -4    1    1    2    0  501  0.15489888611E+01 -0.12465190485E+01 -0.40391269513E+01  0.46776727930E+01  0.12700000000E+01 0.  1.
<mgrwt>
<rscale>  0 0.23592533E+01</rscale>
<asrwt>0</asrwt>
<pdfrwt beam="1">0</pdfrwt>
<pdfrwt beam="2">0</pdfrwt>
<totfact> 0.25708726E+12</totfact>
</mgrwt>
</event>
<event>
 4    1  0.1735226E+006  0.2432032E+01  0.7546771E-02  0.2739275E+00
         22   -1    0    0    0    0  0.00000000000E+00  0.00000000000E+00  0.13976216783E+02  0.13976216783E+02  0.00000000000E+00 0.  1.
         22   -1    0    0    0    0 -0.00000000000E+00 -0.00000000000E+00 -0.42580136182E+00  0.42580136182E+00  0.00000000000E+00 0.  1.
          4    1    1    2  501    0 -0.12274588491E+01  0.16718923672E+01  0.62127044525E+01  0.66717670769E+01  0.12700000000E+01 0.  1.
         -4    1    1    2    0  501  0.12274588491E+01 -0.16718923672E+01  0.73377109684E+01  0.77302510677E+01  0.12700000000E+01 0.  1.
<mgrwt>
<rscale>  0 0.24320319E+01</rscale>
<asrwt>0</asrwt>
<pdfrwt beam="1">0</pdfrwt>
<pdfrwt beam="2">0</pdfrwt>
<totfact> 0.27784688E+12</totfact>
</mgrwt>
</event>
<event>
 4    1  0.1735226E+006  0.2503192E+01  0.7546771E-02  0.2707124E+00
         22   -1    0    0    0    0  0.00000000000E+00  0.00000000000E+00  0.40038985270E+01  0.40038985270E+01  0.00000000000E+00 0.  1.
         22   -1    0    0    0    0 -0.00000000000E+00 -0.00000000000E+00 -0.15673572493E+01  0.15673572493E+01  0.00000000000E+00 0. -1.
          4    1    1    2  501    0  0.17069691832E+00  0.21503334586E+01  0.13270401723E+01  0.28331973175E+01  0.12700000000E+01 0. -1.
         -4    1    1    2    0  501 -0.17069691832E+00 -0.21503334586E+01  0.11095011053E+01  0.27380584588E+01  0.12700000000E+01 0.  1.
<mgrwt>
<rscale>  0 0.25031922E+01</rscale>
<asrwt>0</asrwt>
<pdfrwt beam="1">0</pdfrwt>
<pdfrwt beam="2">0</pdfrwt>
<totfact> 0.28241935E+12</totfact>
</mgrwt>
</event>
<event>
 4    1  0.1735226E+006  0.2277505E+01  0.7546771E-02  0.2815567E+00
         22   -1    0    0    0    0  0.00000000000E+00  0.00000000000E+00  0.79846939950E+02  0.79846939950E+02  0.00000000000E+00 0.  1.
         22   -1    0    0    0    0 -0.00000000000E+00 -0.00000000000E+00 -0.65640893527E-01  0.65640893527E-01  0.00000000000E+00 0. -1.
          4    1    1    2  501    0 -0.68824706539E+00 -0.17608074155E+01  0.43953765651E+02  0.44012731586E+02  0.12700000000E+01 0.  1.
         -4    1    1    2    0  501  0.68824706539E+00  0.17608074155E+01  0.35827533406E+02  0.35899849258E+02  0.12700000000E+01 0. -1.
<mgrwt>
<rscale>  0 0.22775045E+01</rscale>
<asrwt>0</asrwt>
<pdfrwt beam="1">0</pdfrwt>
<pdfrwt beam="2">0</pdfrwt>
<totfact> 0.23597144E+12</totfact>
</mgrwt>
</event>
<event>
 4    1  0.1735226E+006  0.2351500E+01  0.7546771E-02  0.2777854E+00
         22   -1    0    0    0    0  0.00000000000E+00  0.00000000000E+00  0.51124038603E+01  0.51124038603E+01  0.00000000000E+00 0. -1.
         22   -1    0    0    0    0 -0.00000000000E+00 -0.00000000000E+00 -0.15772068678E+01  0.15772068678E+01  0.00000000000E+00 0.  1.
          4    1    1    2  501    0  0.66304150827E+00 -0.18646787537E+01  0.36425814856E+01  0.43356603621E+01  0.12700000000E+01 0. -1.
         -4    1    1    2    0  501 -0.66304150827E+00  0.18646787537E+01 -0.10738449320E+00  0.23539503660E+01  0.12700000000E+01 0.  1.
<mgrwt>
<rscale>  0 0.23514997E+01</rscale>
<asrwt>0</asrwt>
<pdfrwt beam="1">0</pdfrwt>
<pdfrwt beam="2">0</pdfrwt>
<totfact> 0.21010277E+12</totfact>
</mgrwt>
</event>
<event>
 4    1  0.1735226E+006  0.2423796E+01  0.7546771E-02  0.2743110E+00
         22   -1    0    0    0    0  0.00000000000E+00  0.00000000000E+00  0.10467759290E+01  0.10467759290E+01  0.00000000000E+00 0. -1.
         22   -1    0    0    0    0 -0.00000000000E+00 -0.00000000000E+00 -0.87142683553E+01  0.87142683553E+01  0.00000000000E+00 0.  1.
          4    1    1    2  501    0 -0.15054319634E+01 -0.14126436262E+01 -0.92187797064E+00  0.25931923191E+01  0.12700000000E+01 0. -1.
         -4    1    1    2    0  501  0.15054319634E+01  0.14126436262E+01 -0.67456144557E+01  0.71678519652E+01  0.12700000000E+01 0.  1.
<mgrwt>
<rscale>  0 0.24237961E+01</rscale>
<asrwt>0</asrwt>
<pdfrwt beam="1">0</pdfrwt>
<pdfrwt beam="2">0</pdfrwt>
<totfact> 0.17784024E+12</totfact>
</mgrwt>
</event>
<event>
 4    1  0.1735226E+006  0.2611084E+01  0.7546771E-02  0.2661494E+00
         22   -1    0    0    0    0  0.00000000000E+00  0.00000000000E+00  0.27308744884E+02  0.27308744884E+02  0.00000000000E+00 0.  1.
         22   -1    0    0    0    0 -0.00000000000E+00 -0.00000000000E+00 -0.14163018715E+01  0.14163018715E+01  0.00000000000E+00 0. -1.
          4    1    1    2  501    0 -0.16356874658E+01  0.15904039612E+01  0.25981568264E+02  0.26112442393E+02  0.12700000000E+01 0.  1.
         -4    1    1    2    0  501  0.16356874658E+01 -0.15904039612E+01 -0.89125251800E-01  0.26126043627E+01  0.12700000000E+01 0. -1.
<mgrwt>
<rscale>  0 0.26110837E+01</rscale>
<asrwt>0</asrwt>
<pdfrwt beam="1">0</pdfrwt>
<pdfrwt beam="2">0</pdfrwt>
<totfact> 0.30737206E+11</totfact>
</mgrwt>
</event>
<event>
 4    1  0.1735226E+006  0.2818449E+01  0.7546771E-02  0.2582864E+00
         22   -1    0    0    0    0  0.00000000000E+00  0.00000000000E+00  0.35130864141E+01  0.35130864141E+01  0.00000000000E+00 0.  1.
         22   -1    0    0    0    0 -0.00000000000E+00 -0.00000000000E+00 -0.22618158578E+01  0.22618158578E+01  0.00000000000E+00 0. -1.
          4    1    1    2  501    0 -0.15338537413E+01 -0.19945043750E+01  0.67475591066E+00  0.28980942946E+01  0.12700000000E+01 0. -1.
         -4    1    1    2    0  501  0.15338537413E+01  0.19945043750E+01  0.57651464556E+00  0.28768079773E+01  0.12700000000E+01 0.  1.
<mgrwt>
<rscale>  0 0.28184490E+01</rscale>
<asrwt>0</asrwt>
<pdfrwt beam="1">0</pdfrwt>
<pdfrwt beam="2">0</pdfrwt>
<totfact> 0.21551654E+12</totfact>
</mgrwt>
</event>
<event>
 4    1  0.1735226E+006  0.2048436E+01  0.7546771E-02  0.2948779E+00
         22   -1    0    0    0    0  0.00000000000E+00  0.00000000000E+00  0.93469106431E-01  0.93469106431E-01  0.00000000000E+00 0.  1.
         22   -1    0    0    0    0 -0.00000000000E+00 -0.00000000000E+00 -0.46192349100E+02  0.46192349100E+02  0.00000000000E+00 0.  1.
          4    1    1    2  501    0 -0.15644904177E+01  0.36818478050E+00 -0.19167681081E+02  0.19276827756E+02  0.12700000000E+01 0.  1.
         -4    1    1    2    0  501  0.15644904177E+01 -0.36818478050E+00 -0.26931198913E+02  0.27008990451E+02  0.12700000000E+01 0.  1.
<mgrwt>
<rscale>  0 0.20484361E+01</rscale>
<asrwt>0</asrwt>
<pdfrwt beam="1">0</pdfrwt>
<pdfrwt beam="2">0</pdfrwt>
<totfact> 0.33266273E+12</totfact>
</mgrwt>
</event>
<event>
 4    1  0.1735226E+006  0.2058090E+01  0.7546771E-02  0.2942587E+00
         22   -1    0    0    0    0  0.00000000000E+00  0.00000000000E+00  0.11517526139E+01  0.11517526139E+01  0.00000000000E+00 0.  1.
         22   -1    0    0    0    0 -0.00000000000E+00 -0.00000000000E+00 -0.94677586490E+01  0.94677586490E+01  0.00000000000E+00 0. -1.
          4    1    1    2  501    0  0.10750909151E+01 -0.12112028573E+01 -0.56465197245E-02  0.20580973545E+01  0.12700000000E+01 0.  1.
         -4    1    1    2    0  501 -0.10750909151E+01  0.12112028573E+01 -0.83103595153E+01  0.85614139084E+01  0.12700000000E+01 0. -1.
<mgrwt>
<rscale>  0 0.20580896E+01</rscale>
<asrwt>0</asrwt>
<pdfrwt beam="1">0</pdfrwt>
<pdfrwt beam="2">0</pdfrwt>
<totfact> 0.14423149E+12</totfact>
</mgrwt>
</event>
<event>
 4    1  0.1735226E+006  0.2346254E+01  0.7546771E-02  0.2780454E+00
         22   -1    0    0    0    0  0.00000000000E+00  0.00000000000E+00  0.15707462148E+01  0.15707462148E+01  0.00000000000E+00 0.  1.
         22   -1    0    0    0    0 -0.00000000000E+00 -0.00000000000E+00 -0.36273564660E+01  0.36273564660E+01  0.00000000000E+00 0. -1.
          4    1    1    2  501    0  0.65942400961E+00 -0.18593462655E+01 -0.15063421489E+01  0.27881849345E+01  0.12700000000E+01 0. -1.
         -4    1    1    2    0  501 -0.65942400961E+00  0.18593462655E+01 -0.55026810228E+00  0.24099177463E+01  0.12700000000E+01 0. -1.
<mgrwt>
<rscale>  0 0.23462542E+01</rscale>
<asrwt>0</asrwt>
<pdfrwt beam="1">0</pdfrwt>
<pdfrwt beam="2">0</pdfrwt>
<totfact> 0.31638602E+12</totfact>
</mgrwt>
</event>
<event>
 4    1  0.1735226E+006  0.2323195E+01  0.7546771E-02  0.2792011E+00
         22   -1    0    0    0    0  0.00000000000E+00  0.00000000000E+00  0.15293664703E+01  0.15293664703E+01  0.00000000000E+00 0. -1.
         22   -1    0    0    0    0 -0.00000000000E+00 -0.00000000000E+00 -0.50140821946E+01  0.50140821946E+01  0.00000000000E+00 0.  1.
          4    1    1    2  501    0 -0.16378052009E+01  0.10497290327E+01  0.38160312985E-01  0.23235087966E+01  0.12700000000E+01 0. -1.
         -4    1    1    2    0  501  0.16378052009E+01 -0.10497290327E+01 -0.35228760373E+01  0.42199398684E+01  0.12700000000E+01 0.  1.
<mgrwt>
<rscale>  0 0.23231954E+01</rscale>
<asrwt>0</asrwt>
<pdfrwt beam="1">0</pdfrwt>
<pdfrwt beam="2">0</pdfrwt>
<totfact> 0.22275220E+12</totfact>
</mgrwt>
</event>
<event>
 4    1  0.1735226E+006  0.2670793E+01  0.7546771E-02  0.2637708E+00
         22   -1    0    0    0    0  0.00000000000E+00  0.00000000000E+00  0.43604204191E+02  0.43604204191E+02  0.00000000000E+00 0.  1.
         22   -1    0    0    0    0 -0.00000000000E+00 -0.00000000000E+00 -0.16590170023E+00  0.16590170023E+00  0.00000000000E+00 0. -1.
          4    1    1    2  501    0  0.17024494855E+01 -0.16192280328E+01  0.24303529646E+02  0.24449840223E+02  0.12700000000E+01 0. -1.
         -4    1    1    2    0  501 -0.17024494855E+01  0.16192280328E+01  0.19134772845E+02  0.19320265668E+02  0.12700000000E+01 0.  1.
<mgrwt>
<rscale>  0 0.26707927E+01</rscale>
<asrwt>0</asrwt>
<pdfrwt beam="1">0</pdfrwt>
<pdfrwt beam="2">0</pdfrwt>
<totfact> 0.18981273E+12</totfact>
</mgrwt>
</event>
<event>
 4    1  0.1735226E+006  0.2418639E+01  0.7546771E-02  0.2745524E+00
         22   -1    0    0    0    0  0.00000000000E+00  0.00000000000E+00  0.82019998872E+00  0.82019998872E+00  0.00000000000E+00 0.  1.
         22   -1    0    0    0    0 -0.00000000000E+00 -0.00000000000E+00 -0.99076090321E+01  0.99076090321E+01  0.00000000000E+00 0. -1.
          4    1    1    2  501    0 -0.20549911950E+01  0.11801013786E+00 -0.17047296274E+01  0.29590400988E+01  0.12700000000E+01 0.  1.
         -4    1    1    2    0  501  0.20549911950E+01 -0.11801013786E+00 -0.73826794160E+01  0.77687689220E+01  0.12700000000E+01 0. -1.
<mgrwt>
<rscale>  0 0.24186391E+01</rscale>
<asrwt>0</asrwt>
<pdfrwt beam="1">0</pdfrwt>
<pdfrwt beam="2">0</pdfrwt>
<totfact> 0.20115372E+12</totfact>
</mgrwt>
</event>
<event>
 4    1  0.1735226E+006  0.6029596E+01  0.7546771E-02  0.2017044E+00
         22   -1    0    0    0    0  0.00000000000E+00  0.00000000000E+00  0.32122080461E+02  0.32122080461E+02  0.00000000000E+00 0.  1.
         22   -1    0    0    0    0 -0.00000000000E+00 -0.00000000000E+00 -0.50416332321E+01  0.50416332321E+01  0.00000000000E+00 0. -1.
          4    1    1    2  501    0  0.52591638841E+01 -0.26616399020E+01  0.29903947816E+02  0.30505772023E+02  0.12700000000E+01 0.  1.
         -4    1    1    2    0  501 -0.52591638841E+01  0.26616399020E+01 -0.28235005866E+01  0.66579416707E+01  0.12700000000E+01 0. -1.
<mgrwt>
<rscale>  0 0.60295963E+01</rscale>
<asrwt>0</asrwt>
<pdfrwt beam="1">0</pdfrwt>
<pdfrwt beam="2">0</pdfrwt>
<totfact> 0.56907682E+10</totfact>
</mgrwt>
</event>
<event>
 4    1  0.1735226E+006  0.2474891E+01  0.7546771E-02  0.2719704E+00
         22   -1    0    0    0    0  0.00000000000E+00  0.00000000000E+00  0.12540175140E+00  0.12540175140E+00  0.00000000000E+00 0. -1.
         22   -1    0    0    0    0 -0.00000000000E+00 -0.00000000000E+00 -0.98746550505E+02  0.98746550505E+02  0.00000000000E+00 0. -1.
          4    1    1    2  501    0  0.18075397540E+01  0.11157901034E+01 -0.84454053615E+02  0.84490308672E+02  0.12700000000E+01 0. -1.
         -4    1    1    2    0  501 -0.18075397540E+01 -0.11157901034E+01 -0.14167095139E+02  0.14381643585E+02  0.12700000000E+01 0. -1.
<mgrwt>
<rscale>  0 0.24748914E+01</rscale>
<asrwt>0</asrwt>
<pdfrwt beam="1">0</pdfrwt>
<pdfrwt beam="2">0</pdfrwt>
<totfact> 0.85853386E+11</totfact>
</mgrwt>
</event>
<event>
 4    1  0.1735226E+006  0.2681030E+01  0.7546771E-02  0.2633728E+00
         22   -1    0    0    0    0  0.00000000000E+00  0.00000000000E+00  0.22302389110E+01  0.22302389110E+01  0.00000000000E+00 0. -1.
         22   -1    0    0    0    0 -0.00000000000E+00 -0.00000000000E+00 -0.35417161251E+01  0.35417161251E+01  0.00000000000E+00 0.  1.
          4    1    1    2  501    0  0.25576218893E+00  0.23472549702E+01  0.21008773840E+00  0.26892484174E+01  0.12700000000E+01 0. -1.
         -4    1    1    2    0  501 -0.25576218893E+00 -0.23472549702E+01 -0.15215649525E+01  0.30827066187E+01  0.12700000000E+01 0.  1.
<mgrwt>
<rscale>  0 0.26810297E+01</rscale>
<asrwt>0</asrwt>
<pdfrwt beam="1">0</pdfrwt>
<pdfrwt beam="2">0</pdfrwt>
<totfact> 0.21698470E+12</totfact>
</mgrwt>
</event>
<event>
 4    1  0.1735226E+006  0.2176258E+01  0.7546771E-02  0.2871117E+00
         22   -1    0    0    0    0  0.00000000000E+00  0.00000000000E+00  0.66162107100E+01  0.66162107100E+01  0.00000000000E+00 0. -1.
         22   -1    0    0    0    0 -0.00000000000E+00 -0.00000000000E+00 -0.10125823675E+01  0.10125823675E+01  0.00000000000E+00 0. -1.
          4    1    1    2  501    0 -0.98234662601E+00  0.14690798243E+01  0.73688228608E+00  0.22976283266E+01  0.12700000000E+01 0. -1.
         -4    1    1    2    0  501  0.98234662601E+00 -0.14690798243E+01  0.48667460564E+01  0.53311647509E+01  0.12700000000E+01 0. -1.
<mgrwt>
<rscale>  0 0.21762584E+01</rscale>
<asrwt>0</asrwt>
<pdfrwt beam="1">0</pdfrwt>
<pdfrwt beam="2">0</pdfrwt>
<totfact> 0.25701851E+12</totfact>
</mgrwt>
</event>
<event>
 4    1  0.1735226E+006  0.2057720E+01  0.7546771E-02  0.2942823E+00
         22   -1    0    0    0    0  0.00000000000E+00  0.00000000000E+00  0.45739995289E+02  0.45739995289E+02  0.00000000000E+00 0. -1.
         22   -1    0    0    0    0 -0.00000000000E+00 -0.00000000000E+00 -0.14771961683E+00  0.14771961683E+00  0.00000000000E+00 0.  1.
          4    1    1    2  501    0  0.15211531385E+01 -0.55444162405E+00  0.36815018742E+02  0.36872480489E+02  0.12700000000E+01 0. -1.
         -4    1    1    2    0  501 -0.15211531385E+01  0.55444162405E+00  0.87772569300E+01  0.90152344174E+01  0.12700000000E+01 0.  1.
<mgrwt>
<rscale>  0 0.20577202E+01</rscale>
<asrwt>0</asrwt>
<pdfrwt beam="1">0</pdfrwt>
<pdfrwt beam="2">0</pdfrwt>
<totfact> 0.20285890E+12</totfact>
</mgrwt>
</event>
<event>
 4    1  0.1735226E+006  0.2637096E+01  0.7546771E-02  0.2651010E+00
         22   -1    0    0    0    0  0.00000000000E+00  0.00000000000E+00  0.22960306405E+00  0.22960306405E+00  0.00000000000E+00 0. -1.
         22   -1    0    0    0    0 -0.00000000000E+00 -0.00000000000E+00 -0.33178756955E+02  0.33178756955E+02  0.00000000000E+00 0. -1.
          4    1    1    2  501    0 -0.14438979985E+01  0.18045875195E+01 -0.11544186832E+02  0.11841559321E+02  0.12700000000E+01 0. -1.
         -4    1    1    2    0  501  0.14438979985E+01 -0.18045875195E+01 -0.21404967059E+02  0.21566800697E+02  0.12700000000E+01 0. -1.
<mgrwt>
<rscale>  0 0.26370964E+01</rscale>
<asrwt>0</asrwt>
<pdfrwt beam="1">0</pdfrwt>
<pdfrwt beam="2">0</pdfrwt>
<totfact> 0.18812337E+12</totfact>
</mgrwt>
</event>
<event>
 4    1  0.1735226E+006  0.3252470E+01  0.7546771E-02  0.2447954E+00
         22   -1    0    0    0    0  0.00000000000E+00  0.00000000000E+00  0.63639841620E+00  0.63639841620E+00  0.00000000000E+00 0.  1.
         22   -1    0    0    0    0 -0.00000000000E+00 -0.00000000000E+00 -0.22610269633E+02  0.22610269633E+02  0.00000000000E+00 0. -1.
          4    1    1    2  501    0 -0.28105042375E+01 -0.10328242538E+01 -0.50054531728E+01  0.59693484965E+01  0.12700000000E+01 0.  1.
         -4    1    1    2    0  501  0.28105042375E+01  0.10328242538E+01 -0.16968418044E+02  0.17277319553E+02  0.12700000000E+01 0. -1.
<mgrwt>
<rscale>  0 0.32524698E+01</rscale>
<asrwt>0</asrwt>
<pdfrwt beam="1">0</pdfrwt>
<pdfrwt beam="2">0</pdfrwt>
<totfact> 0.97164492E+11</totfact>
</mgrwt>
</event>
<event>
 4    1  0.1735226E+006  0.2990486E+01  0.7546771E-02  0.2525195E+00
         22   -1    0    0    0    0  0.00000000000E+00  0.00000000000E+00  0.44863211435E+01  0.44863211435E+01  0.00000000000E+00 0.  1.
         22   -1    0    0    0    0 -0.00000000000E+00 -0.00000000000E+00 -0.11429841533E+02  0.11429841533E+02  0.00000000000E+00 0.  1.
          4    1    1    2  501    0 -0.26967279034E+01 -0.24033779671E+00  0.37591429465E+01  0.48035569460E+01  0.12700000000E+01 0.  1.
         -4    1    1    2    0  501  0.26967279034E+01  0.24033779671E+00 -0.10702663336E+02  0.11112605730E+02  0.12700000000E+01 0.  1.
<mgrwt>
<rscale>  0 0.29904855E+01</rscale>
<asrwt>0</asrwt>
<pdfrwt beam="1">0</pdfrwt>
<pdfrwt beam="2">0</pdfrwt>
<totfact> 0.23665198E+11</totfact>
</mgrwt>
</event>
<event>
 4    1  0.1735226E+006  0.2878681E+01  0.7546771E-02  0.2561966E+00
         22   -1    0    0    0    0  0.00000000000E+00  0.00000000000E+00  0.23526977497E+02  0.23526977497E+02  0.00000000000E+00 0.  1.
         22   -1    0    0    0    0 -0.00000000000E+00 -0.00000000000E+00 -0.90616039098E+00  0.90616039098E+00  0.00000000000E+00 0. -1.
          4    1    1    2  501    0 -0.25137796220E+01 -0.59566390092E+00  0.20862006623E+02  0.21059680050E+02  0.12700000000E+01 0.  1.
         -4    1    1    2    0  501  0.25137796220E+01  0.59566390092E+00  0.17588104834E+01  0.33734578384E+01  0.12700000000E+01 0. -1.
<mgrwt>
<rscale>  0 0.28786809E+01</rscale>
<asrwt>0</asrwt>
<pdfrwt beam="1">0</pdfrwt>
<pdfrwt beam="2">0</pdfrwt>
<totfact> 0.61855445E+11</totfact>
</mgrwt>
</event>
<event>
 4    1  0.1735226E+006  0.3086242E+01  0.7546771E-02  0.2495610E+00
         22   -1    0    0    0    0  0.00000000000E+00  0.00000000000E+00  0.28687488106E+01  0.28687488106E+01  0.00000000000E+00 0. -1.
         22   -1    0    0    0    0 -0.00000000000E+00 -0.00000000000E+00 -0.45740466720E+02  0.45740466720E+02  0.00000000000E+00 0.  1.
          4    1    1    2  501    0 -0.14677498454E+01  0.23995205528E+01  0.19700168199E+01  0.36614006558E+01  0.12700000000E+01 0. -1.
         -4    1    1    2    0  501  0.14677498454E+01 -0.23995205528E+01 -0.44841734729E+02  0.44947814875E+02  0.12700000000E+01 0.  1.
<mgrwt>
<rscale>  0 0.30862418E+01</rscale>
<asrwt>0</asrwt>
<pdfrwt beam="1">0</pdfrwt>
<pdfrwt beam="2">0</pdfrwt>
<totfact> 0.69870863E+10</totfact>
</mgrwt>
</event>
<event>
 4    1  0.1735226E+006  0.2036175E+01  0.7546771E-02  0.2956727E+00
         22   -1    0    0    0    0  0.00000000000E+00  0.00000000000E+00  0.83679569711E+01  0.83679569711E+01  0.00000000000E+00 0. -1.
         22   -1    0    0    0    0 -0.00000000000E+00 -0.00000000000E+00 -0.94169873307E+00  0.94169873307E+00  0.00000000000E+00 0. -1.
          4    1    1    2  501    0 -0.84553692112E+00 -0.13483974252E+01  0.69174063242E+01  0.72108611522E+01  0.12700000000E+01 0. -1.
         -4    1    1    2    0  501  0.84553692112E+00  0.13483974252E+01  0.50885191379E+00  0.20987945520E+01  0.12700000000E+01 0. -1.
<mgrwt>
<rscale>  0 0.20361749E+01</rscale>
<asrwt>0</asrwt>
<pdfrwt beam="1">0</pdfrwt>
<pdfrwt beam="2">0</pdfrwt>
<totfact> 0.21069728E+12</totfact>
</mgrwt>
</event>
<event>
 4    1  0.1735226E+006  0.2360258E+01  0.7546771E-02  0.2773538E+00
         22   -1    0    0    0    0  0.00000000000E+00  0.00000000000E+00  0.95064067626E+00  0.95064067626E+00  0.00000000000E+00 0. -1.
         22   -1    0    0    0    0 -0.00000000000E+00 -0.00000000000E+00 -0.61116118829E+01  0.61116118829E+01  0.00000000000E+00 0. -1.
          4    1    1    2  501    0  0.12061644120E+01 -0.15821147070E+01 -0.18641083852E+01  0.30076102817E+01  0.12700000000E+01 0. -1.
         -4    1    1    2    0  501 -0.12061644120E+01  0.15821147070E+01 -0.32968628214E+01  0.40546422774E+01  0.12700000000E+01 0. -1.
<mgrwt>
<rscale>  0 0.23602584E+01</rscale>
<asrwt>0</asrwt>
<pdfrwt beam="1">0</pdfrwt>
<pdfrwt beam="2">0</pdfrwt>
<totfact> 0.30364035E+12</totfact>
</mgrwt>
</event>
<event>
 4    1  0.1735226E+006  0.2352068E+01  0.7546771E-02  0.2777573E+00
         22   -1    0    0    0    0  0.00000000000E+00  0.00000000000E+00  0.30885505277E+00  0.30885505277E+00  0.00000000000E+00 0. -1.
         22   -1    0    0    0    0 -0.00000000000E+00 -0.00000000000E+00 -0.19359416005E+02  0.19359416005E+02  0.00000000000E+00 0.  1.
          4    1    1    2  501    0 -0.35625118365E+00 -0.19474110481E+01 -0.12214216306E+02  0.12438621494E+02  0.12700000000E+01 0. -1.
         -4    1    1    2    0  501  0.35625118365E+00  0.19474110481E+01 -0.68363446463E+01  0.72296495640E+01  0.12700000000E+01 0.  1.
<mgrwt>
<rscale>  0 0.23520682E+01</rscale>
<asrwt>0</asrwt>
<pdfrwt beam="1">0</pdfrwt>
<pdfrwt beam="2">0</pdfrwt>
<totfact> 0.26650229E+12</totfact>
</mgrwt>
</event>
<event>
 4    1  0.1735226E+006  0.2190038E+01  0.7546771E-02  0.2863268E+00
         22   -1    0    0    0    0  0.00000000000E+00  0.00000000000E+00  0.26281607767E+02  0.26281607767E+02  0.00000000000E+00 0.  1.
         22   -1    0    0    0    0 -0.00000000000E+00 -0.00000000000E+00 -0.81477014179E+00  0.81477014179E+00  0.00000000000E+00 0.  1.
          4    1    1    2  501    0  0.17834109008E+01 -0.53014445447E-01  0.24668261733E+02  0.24765286227E+02  0.12700000000E+01 0.  1.
         -4    1    1    2    0  501 -0.17834109008E+01  0.53014445447E-01  0.79857589178E+00  0.23310916815E+01  0.12700000000E+01 0.  1.
<mgrwt>
<rscale>  0 0.21900377E+01</rscale>
<asrwt>0</asrwt>
<pdfrwt beam="1">0</pdfrwt>
<pdfrwt beam="2">0</pdfrwt>
<totfact> 0.60715061E+11</totfact>
</mgrwt>
</event>
<event>
 4    1  0.1735226E+006  0.2164759E+01  0.7546771E-02  0.2877741E+00
         22   -1    0    0    0    0  0.00000000000E+00  0.00000000000E+00  0.25363914945E+00  0.25363914945E+00  0.00000000000E+00 0.  1.
         22   -1    0    0    0    0 -0.00000000000E+00 -0.00000000000E+00 -0.18502860866E+02  0.18502860866E+02  0.00000000000E+00 0. -1.
          4    1    1    2  501    0 -0.14992422886E+01 -0.90859943288E+00 -0.87658066611E+01  0.90291498376E+01  0.12700000000E+01 0.  1.
         -4    1    1    2    0  501  0.14992422886E+01  0.90859943288E+00 -0.94834150552E+01  0.97273501776E+01  0.12700000000E+01 0. -1.
<mgrwt>
<rscale>  0 0.21647587E+01</rscale>
<asrwt>0</asrwt>
<pdfrwt beam="1">0</pdfrwt>
<pdfrwt beam="2">0</pdfrwt>
<totfact> 0.35152087E+12</totfact>
</mgrwt>
</event>
<event>
 4    1  0.1735226E+006  0.2319332E+01  0.7546771E-02  0.2793969E+00
         22   -1    0    0    0    0  0.00000000000E+00  0.00000000000E+00  0.39269677027E+01  0.39269677027E+01  0.00000000000E+00 0. -1.
         22   -1    0    0    0    0 -0.00000000000E+00 -0.00000000000E+00 -0.13757655279E+01  0.13757655279E+01  0.00000000000E+00 0.  1.
          4    1    1    2  501    0 -0.19044400283E+01  0.37350892457E+00  0.11015339138E+01  0.25676210198E+01  0.12700000000E+01 0. -1.
         -4    1    1    2    0  501  0.19044400283E+01 -0.37350892457E+00  0.14496682610E+01  0.27351122107E+01  0.12700000000E+01 0.  1.
<mgrwt>
<rscale>  0 0.23193320E+01</rscale>
<asrwt>0</asrwt>
<pdfrwt beam="1">0</pdfrwt>
<pdfrwt beam="2">0</pdfrwt>
<totfact> 0.33567946E+12</totfact>
</mgrwt>
</event>
<event>
 4    1  0.1735226E+006  0.2934788E+01  0.7546771E-02  0.2543198E+00
         22   -1    0    0    0    0  0.00000000000E+00  0.00000000000E+00  0.39191885814E+02  0.39191885814E+02  0.00000000000E+00 0. -1.
         22   -1    0    0    0    0 -0.00000000000E+00 -0.00000000000E+00 -0.51381060893E+00  0.51381060893E+00  0.00000000000E+00 0.  1.
          4    1    1    2  501    0 -0.16349894399E+01 -0.20801175583E+01  0.34357625952E+02  0.34482741199E+02  0.12700000000E+01 0. -1.
         -4    1    1    2    0  501  0.16349894399E+01  0.20801175583E+01  0.43204492531E+01  0.52229552242E+01  0.12700000000E+01 0.  1.
<mgrwt>
<rscale>  0 0.29347878E+01</rscale>
<asrwt>0</asrwt>
<pdfrwt beam="1">0</pdfrwt>
<pdfrwt beam="2">0</pdfrwt>
<totfact> 0.61408370E+11</totfact>
</mgrwt>
</event>
<event>
 4    1  0.1735226E+006  0.2687384E+01  0.7546771E-02  0.2631271E+00
         22   -1    0    0    0    0  0.00000000000E+00  0.00000000000E+00  0.12726833455E+03  0.12726833455E+03  0.00000000000E+00 0.  1.
         22   -1    0    0    0    0 -0.00000000000E+00 -0.00000000000E+00 -0.14012976764E+00  0.14012976764E+00  0.00000000000E+00 0. -1.
          4    1    1    2  501    0 -0.22992255958E+01  0.56806114443E+00  0.11270494001E+03  0.11273697501E+03  0.12700000000E+01 0.  1.
         -4    1    1    2    0  501  0.22992255958E+01 -0.56806114443E+00  0.14423264775E+02  0.14671489310E+02  0.12700000000E+01 0. -1.
<mgrwt>
<rscale>  0 0.26873838E+01</rscale>
<asrwt>0</asrwt>
<pdfrwt beam="1">0</pdfrwt>
<pdfrwt beam="2">0</pdfrwt>
<totfact> 0.52833502E+11</totfact>
</mgrwt>
</event>
<event>
 4    1  0.1735226E+006  0.3726080E+01  0.7546771E-02  0.2332926E+00
         22   -1    0    0    0    0  0.00000000000E+00  0.00000000000E+00  0.10208805957E+02  0.10208805957E+02  0.00000000000E+00 0.  1.
         22   -1    0    0    0    0 -0.00000000000E+00 -0.00000000000E+00 -0.39348390167E+01  0.39348390167E+01  0.00000000000E+00 0. -1.
          4    1    1    2  501    0 -0.83064340884E+00  0.34030585298E+01  0.88576335982E+01  0.96094406075E+01  0.12700000000E+01 0.  1.
         -4    1    1    2    0  501  0.83064340884E+00 -0.34030585298E+01 -0.25836666583E+01  0.45342043658E+01  0.12700000000E+01 0. -1.
<mgrwt>
<rscale>  0 0.37260805E+01</rscale>
<asrwt>0</asrwt>
<pdfrwt beam="1">0</pdfrwt>
<pdfrwt beam="2">0</pdfrwt>
<totfact> 0.31682387E+11</totfact>
</mgrwt>
</event>
<event>
 4    1  0.1735226E+006  0.2049916E+01  0.7546771E-02  0.2947827E+00
         22   -1    0    0    0    0  0.00000000000E+00  0.00000000000E+00  0.29695577315E+00  0.29695577315E+00  0.00000000000E+00 0.  1.
         22   -1    0    0    0    0 -0.00000000000E+00 -0.00000000000E+00 -0.14169791678E+02  0.14169791678E+02  0.00000000000E+00 0.  1.
          4    1    1    2  501    0 -0.12305356047E+01 -0.10368395735E+01 -0.66714261284E+01  0.69792607604E+01  0.12700000000E+01 0.  1.
         -4    1    1    2    0  501  0.12305356047E+01  0.10368395735E+01 -0.72014097769E+01  0.74874866912E+01  0.12700000000E+01 0.  1.
<mgrwt>
<rscale>  0 0.20499157E+01</rscale>
<asrwt>0</asrwt>
<pdfrwt beam="1">0</pdfrwt>
<pdfrwt beam="2">0</pdfrwt>
<totfact> 0.40957579E+12</totfact>
</mgrwt>
</event>
<event>
 4    1  0.1735226E+006  0.3930026E+01  0.7546771E-02  0.2290873E+00
         22   -1    0    0    0    0  0.00000000000E+00  0.00000000000E+00  0.14284806833E+02  0.14284806833E+02  0.00000000000E+00 0. -1.
         22   -1    0    0    0    0 -0.00000000000E+00 -0.00000000000E+00 -0.11693387490E+01  0.11693387490E+01  0.00000000000E+00 0.  1.
          4    1    1    2  501    0 -0.22969531190E+01  0.29250995301E+01  0.86788520923E+01  0.95272018207E+01  0.12700000000E+01 0. -1.
         -4    1    1    2    0  501  0.22969531190E+01 -0.29250995301E+01  0.44366159918E+01  0.59269437614E+01  0.12700000000E+01 0.  1.
<mgrwt>
<rscale>  0 0.39300256E+01</rscale>
<asrwt>0</asrwt>
<pdfrwt beam="1">0</pdfrwt>
<pdfrwt beam="2">0</pdfrwt>
<totfact> 0.85903098E+11</totfact>
</mgrwt>
</event>
<event>
 4    1  0.1735226E+006  0.7308842E+01  0.7546771E-02  0.1918997E+00
         22   -1    0    0    0    0  0.00000000000E+00  0.00000000000E+00  0.54189813101E+01  0.54189813101E+01  0.00000000000E+00 0. -1.
         22   -1    0    0    0    0 -0.00000000000E+00 -0.00000000000E+00 -0.10289653822E+02  0.10289653822E+02  0.00000000000E+00 0.  1.
          4    1    1    2  501    0  0.70893601127E+01  0.12438804944E+01 -0.40444354286E+01  0.83532402951E+01  0.12700000000E+01 0.  1.
         -4    1    1    2    0  501 -0.70893601127E+01 -0.12438804944E+01 -0.82623708337E+00  0.73553948371E+01  0.12700000000E+01 0. -1.
<mgrwt>
<rscale>  0 0.73088416E+01</rscale>
<asrwt>0</asrwt>
<pdfrwt beam="1">0</pdfrwt>
<pdfrwt beam="2">0</pdfrwt>
<totfact> 0.21501252E+11</totfact>
</mgrwt>
</event>
<event>
 4    1  0.1735226E+006  0.2165531E+01  0.7546771E-02  0.2877294E+00
         22   -1    0    0    0    0  0.00000000000E+00  0.00000000000E+00  0.29313053992E+00  0.29313053992E+00  0.00000000000E+00 0.  1.
         22   -1    0    0    0    0 -0.00000000000E+00 -0.00000000000E+00 -0.18078921924E+02  0.18078921924E+02  0.00000000000E+00 0.  1.
          4    1    1    2  501    0  0.44803272379E-01 -0.17534589509E+01 -0.57764394505E+01  0.61690176164E+01  0.12700000000E+01 0.  1.
         -4    1    1    2    0  501 -0.44803272379E-01  0.17534589509E+01 -0.12009351933E+02  0.12203034847E+02  0.12700000000E+01 0.  1.
<mgrwt>
<rscale>  0 0.21655313E+01</rscale>
<asrwt>0</asrwt>
<pdfrwt beam="1">0</pdfrwt>
<pdfrwt beam="2">0</pdfrwt>
<totfact> 0.30766155E+12</totfact>
</mgrwt>
</event>
<event>
 4    1  0.1735226E+006  0.4497365E+01  0.7546771E-02  0.2191237E+00
         22   -1    0    0    0    0  0.00000000000E+00  0.00000000000E+00  0.40070614045E+01  0.40070614045E+01  0.00000000000E+00 0.  1.
         22   -1    0    0    0    0 -0.00000000000E+00 -0.00000000000E+00 -0.61601933819E+01  0.61601933819E+01  0.00000000000E+00 0. -1.
          4    1    1    2  501    0  0.42399965645E+01  0.79738111581E+00  0.10838275604E+01  0.46261182098E+01  0.12700000000E+01 0. -1.
         -4    1    1    2    0  501 -0.42399965645E+01 -0.79738111581E+00 -0.32369595378E+01  0.55411365766E+01  0.12700000000E+01 0.  1.
<mgrwt>
<rscale>  0 0.44973645E+01</rscale>
<asrwt>0</asrwt>
<pdfrwt beam="1">0</pdfrwt>
<pdfrwt beam="2">0</pdfrwt>
<totfact> 0.56892225E+11</totfact>
</mgrwt>
</event>
<event>
 4    1  0.1735226E+006  0.2978440E+01  0.7546771E-02  0.2529037E+00
         22   -1    0    0    0    0  0.00000000000E+00  0.00000000000E+00  0.29073128536E+02  0.29073128536E+02  0.00000000000E+00 0. -1.
         22   -1    0    0    0    0 -0.00000000000E+00 -0.00000000000E+00 -0.31532033551E+00  0.31532033551E+00  0.00000000000E+00 0. -1.
          4    1    1    2  501    0  0.26250599999E+01 -0.60602416154E+00  0.11737413287E+02  0.12109416830E+02  0.12700000000E+01 0. -1.
         -4    1    1    2    0  501 -0.26250599999E+01  0.60602416154E+00  0.17020394913E+02  0.17279032041E+02  0.12700000000E+01 0. -1.
<mgrwt>
<rscale>  0 0.29784401E+01</rscale>
<asrwt>0</asrwt>
<pdfrwt beam="1">0</pdfrwt>
<pdfrwt beam="2">0</pdfrwt>
<totfact> 0.15611687E+12</totfact>
</mgrwt>
</event>
<event>
 4    1  0.1735226E+006  0.2135271E+01  0.7546771E-02  0.2895040E+00
         22   -1    0    0    0    0  0.00000000000E+00  0.00000000000E+00  0.51293409707E+00  0.51293409707E+00  0.00000000000E+00 0. -1.
         22   -1    0    0    0    0 -0.00000000000E+00 -0.00000000000E+00 -0.97366500790E+01  0.97366500790E+01  0.00000000000E+00 0.  1.
          4    1    1    2  501    0  0.16687755122E+01  0.40208177736E+00 -0.61241114238E+01  0.64856859465E+01  0.12700000000E+01 0.  1.
         -4    1    1    2    0  501 -0.16687755122E+01 -0.40208177736E+00 -0.30996045581E+01  0.37638982295E+01  0.12700000000E+01 0.  1.
<mgrwt>
<rscale>  0 0.21352708E+01</rscale>
<asrwt>0</asrwt>
<pdfrwt beam="1">0</pdfrwt>
<pdfrwt beam="2">0</pdfrwt>
<totfact> 0.34977294E+12</totfact>
</mgrwt>
</event>
<event>
 4    1  0.1735226E+006  0.2743866E+01  0.7546771E-02  0.2609893E+00
         22   -1    0    0    0    0  0.00000000000E+00  0.00000000000E+00  0.13096642640E+00  0.13096642640E+00  0.00000000000E+00 0. -1.
         22   -1    0    0    0    0 -0.00000000000E+00 -0.00000000000E+00 -0.59874175154E+02  0.59874175154E+02  0.00000000000E+00 0.  1.
          4    1    1    2  501    0 -0.13562737348E+01  0.20190146869E+01 -0.23880205846E+02  0.24037325766E+02  0.12700000000E+01 0. -1.
         -4    1    1    2    0  501  0.13562737348E+01 -0.20190146869E+01 -0.35863002881E+02  0.35967815814E+02  0.12700000000E+01 0.  1.
<mgrwt>
<rscale>  0 0.27438657E+01</rscale>
<asrwt>0</asrwt>
<pdfrwt beam="1">0</pdfrwt>
<pdfrwt beam="2">0</pdfrwt>
<totfact> 0.16237259E+12</totfact>
</mgrwt>
</event>
<event>
 4    1  0.1735226E+006  0.2575722E+01  0.7546771E-02  0.2676059E+00
         22   -1    0    0    0    0  0.00000000000E+00  0.00000000000E+00  0.68442033090E+00  0.68442033090E+00  0.00000000000E+00 0.  1.
         22   -1    0    0    0    0 -0.00000000000E+00 -0.00000000000E+00 -0.15883117034E+02  0.15883117034E+02  0.00000000000E+00 0. -1.
          4    1    1    2  501    0 -0.46484297653E+00 -0.21921145564E+01 -0.24280897991E+01  0.35397691018E+01  0.12700000000E+01 0.  1.
         -4    1    1    2    0  501  0.46484297653E+00  0.21921145564E+01 -0.12770606904E+02  0.13027768263E+02  0.12700000000E+01 0. -1.
<mgrwt>
<rscale>  0 0.25757223E+01</rscale>
<asrwt>0</asrwt>
<pdfrwt beam="1">0</pdfrwt>
<pdfrwt beam="2">0</pdfrwt>
<totfact> 0.13881755E+12</totfact>
</mgrwt>
</event>
<event>
 4    1  0.1735226E+006  0.2073754E+01  0.7546771E-02  0.2932659E+00
         22   -1    0    0    0    0  0.00000000000E+00  0.00000000000E+00  0.22693255088E+02  0.22693255088E+02  0.00000000000E+00 0.  1.
         22   -1    0    0    0    0 -0.00000000000E+00 -0.00000000000E+00 -0.40389958320E+00  0.40389958320E+00  0.00000000000E+00 0. -1.
          4    1    1    2  501    0  0.74878809874E+00 -0.14583799198E+01  0.19558629443E+02  0.19668259743E+02  0.12700000000E+01 0.  1.
         -4    1    1    2    0  501 -0.74878809874E+00  0.14583799198E+01  0.27307260614E+01  0.34288949284E+01  0.12700000000E+01 0. -1.
<mgrwt>
<rscale>  0 0.20737540E+01</rscale>
<asrwt>0</asrwt>
<pdfrwt beam="1">0</pdfrwt>
<pdfrwt beam="2">0</pdfrwt>
<totfact> 0.16161897E+12</totfact>
</mgrwt>
</event>
<event>
 4    1  0.1735226E+006  0.2596279E+01  0.7546771E-02  0.2667548E+00
         22   -1    0    0    0    0  0.00000000000E+00  0.00000000000E+00  0.40515252053E+01  0.40515252053E+01  0.00000000000E+00 0. -1.
         22   -1    0    0    0    0 -0.00000000000E+00 -0.00000000000E+00 -0.16824413959E+01  0.16824413959E+01  0.00000000000E+00 0.  1.
          4    1    1    2  501    0 -0.11083104331E+01 -0.19746926579E+01  0.14868526799E+01  0.29918880328E+01  0.12700000000E+01 0. -1.
         -4    1    1    2    0  501  0.11083104331E+01  0.19746926579E+01  0.88223112956E+00  0.27420785684E+01  0.12700000000E+01 0. -1.
<mgrwt>
<rscale>  0 0.25962787E+01</rscale>
<asrwt>0</asrwt>
<pdfrwt beam="1">0</pdfrwt>
<pdfrwt beam="2">0</pdfrwt>
<totfact> 0.25667860E+12</totfact>
</mgrwt>
</event>
<event>
 4    1  0.1735226E+006  0.2052036E+01  0.7546771E-02  0.2946464E+00
         22   -1    0    0    0    0  0.00000000000E+00  0.00000000000E+00  0.11710680368E+02  0.11710680368E+02  0.00000000000E+00 0.  1.
         22   -1    0    0    0    0 -0.00000000000E+00 -0.00000000000E+00 -0.13010997710E+01  0.13010997710E+01  0.00000000000E+00 0. -1.
          4    1    1    2  501    0 -0.16037425070E+01  0.16112183582E+00  0.10739153319E+02  0.10933447045E+02  0.12700000000E+01 0.  1.
         -4    1    1    2    0  501  0.16037425070E+01 -0.16112183582E+00 -0.32957272130E+00  0.20783330949E+01  0.12700000000E+01 0. -1.
<mgrwt>
<rscale>  0 0.20520356E+01</rscale>
<asrwt>0</asrwt>
<pdfrwt beam="1">0</pdfrwt>
<pdfrwt beam="2">0</pdfrwt>
<totfact> 0.96903921E+11</totfact>
</mgrwt>
</event>
<event>
 4    1  0.1735226E+006  0.3319354E+01  0.7546771E-02  0.2429975E+00
         22   -1    0    0    0    0  0.00000000000E+00  0.00000000000E+00  0.16320429889E+01  0.16320429889E+01  0.00000000000E+00 0.  1.
         22   -1    0    0    0    0 -0.00000000000E+00 -0.00000000000E+00 -0.67807413750E+01  0.67807413750E+01  0.00000000000E+00 0.  1.
          4    1    1    2  501    0  0.30402882486E+01  0.40231872491E+00 -0.22963160563E+01  0.40362334449E+01  0.12700000000E+01 0.  1.
         -4    1    1    2    0  501 -0.30402882486E+01 -0.40231872491E+00 -0.28523823297E+01  0.43765509190E+01  0.12700000000E+01 0.  1.
<mgrwt>
<rscale>  0 0.33193543E+01</rscale>
<asrwt>0</asrwt>
<pdfrwt beam="1">0</pdfrwt>
<pdfrwt beam="2">0</pdfrwt>
<totfact> 0.14435182E+12</totfact>
</mgrwt>
</event>
<event>
 4    1  0.1735226E+006  0.2053316E+01  0.7546771E-02  0.2945642E+00
         22   -1    0    0    0    0  0.00000000000E+00  0.00000000000E+00  0.78737512437E+00  0.78737512437E+00  0.00000000000E+00 0. -1.
         22   -1    0    0    0    0 -0.00000000000E+00 -0.00000000000E+00 -0.58137561181E+01  0.58137561181E+01  0.00000000000E+00 0.  1.
          4    1    1    2  501    0  0.70558650683E+00 -0.14509838470E+01 -0.34407111211E+01  0.40068191202E+01  0.12700000000E+01 0.  1.
         -4    1    1    2    0  501 -0.70558650683E+00  0.14509838470E+01 -0.15856698727E+01  0.25943121223E+01  0.12700000000E+01 0. -1.
<mgrwt>
<rscale>  0 0.20533160E+01</rscale>
<asrwt>0</asrwt>
<pdfrwt beam="1">0</pdfrwt>
<pdfrwt beam="2">0</pdfrwt>
<totfact> 0.39937055E+12</totfact>
</mgrwt>
</event>
<event>
 4    1  0.1735226E+006  0.2011620E+01  0.7546771E-02  0.2972927E+00
         22   -1    0    0    0    0  0.00000000000E+00  0.00000000000E+00  0.48950023143E+01  0.48950023143E+01  0.00000000000E+00 0.  1.
         22   -1    0    0    0    0 -0.00000000000E+00 -0.00000000000E+00 -0.86768177353E+00  0.86768177353E+00  0.00000000000E+00 0. -1.
          4    1    1    2  501    0  0.54827831900E+00 -0.14605149651E+01  0.26399889595E+01  0.33190593222E+01  0.12700000000E+01 0.  1.
         -4    1    1    2    0  501 -0.54827831900E+00  0.14605149651E+01  0.13873315813E+01  0.24436247656E+01  0.12700000000E+01 0. -1.
<mgrwt>
<rscale>  0 0.20116195E+01</rscale>
<asrwt>0</asrwt>
<pdfrwt beam="1">0</pdfrwt>
<pdfrwt beam="2">0</pdfrwt>
<totfact> 0.43850836E+12</totfact>
</mgrwt>
</event>
<event>
 4    1  0.1735226E+006  0.5035898E+01  0.7546771E-02  0.2118743E+00
         22   -1    0    0    0    0  0.00000000000E+00  0.00000000000E+00  0.98170403576E+01  0.98170403576E+01  0.00000000000E+00 0.  1.
         22   -1    0    0    0    0 -0.00000000000E+00 -0.00000000000E+00 -0.25967179087E+01  0.25967179087E+01  0.00000000000E+00 0. -1.
          4    1    1    2  501    0 -0.42812316698E+01  0.23277498679E+01  0.40564973167E+01  0.64664854858E+01  0.12700000000E+01 0.  1.
         -4    1    1    2    0  501  0.42812316698E+01 -0.23277498679E+01  0.31638251322E+01  0.59472727804E+01  0.12700000000E+01 0. -1.
<mgrwt>
<rscale>  0 0.50358975E+01</rscale>
<asrwt>0</asrwt>
<pdfrwt beam="1">0</pdfrwt>
<pdfrwt beam="2">0</pdfrwt>
<totfact> 0.54025504E+11</totfact>
</mgrwt>
</event>
<event>
 4    1  0.1735226E+006  0.2594891E+01  0.7546771E-02  0.2668118E+00
         22   -1    0    0    0    0  0.00000000000E+00  0.00000000000E+00  0.35810191579E+01  0.35810191579E+01  0.00000000000E+00 0.  1.
         22   -1    0    0    0    0 -0.00000000000E+00 -0.00000000000E+00 -0.25153355777E+01  0.25153355777E+01  0.00000000000E+00 0. -1.
          4    1    1    2  501    0  0.70052245836E+00 -0.21517031976E+01  0.20644045526E+01  0.33159047818E+01  0.12700000000E+01 0.  1.
         -4    1    1    2    0  501 -0.70052245836E+00  0.21517031976E+01 -0.99872097228E+00  0.27804499538E+01  0.12700000000E+01 0. -1.
<mgrwt>
<rscale>  0 0.25948908E+01</rscale>
<asrwt>0</asrwt>
<pdfrwt beam="1">0</pdfrwt>
<pdfrwt beam="2">0</pdfrwt>
<totfact> 0.18625516E+12</totfact>
</mgrwt>
</event>
<event>
 4    1  0.1735226E+006  0.2217148E+01  0.7546771E-02  0.2848099E+00
         22   -1    0    0    0    0  0.00000000000E+00  0.00000000000E+00  0.72021233273E+01  0.72021233273E+01  0.00000000000E+00 0. -1.
         22   -1    0    0    0    0 -0.00000000000E+00 -0.00000000000E+00 -0.71779706740E+00  0.71779706740E+00  0.00000000000E+00 0. -1.
          4    1    1    2  501    0  0.10744757257E+01  0.14657235372E+01  0.41197854742E+01  0.46785014616E+01  0.12700000000E+01 0. -1.
         -4    1    1    2    0  501 -0.10744757257E+01 -0.14657235372E+01  0.23645407857E+01  0.32414189331E+01  0.12700000000E+01 0. -1.
<mgrwt>
<rscale>  0 0.22171476E+01</rscale>
<asrwt>0</asrwt>
<pdfrwt beam="1">0</pdfrwt>
<pdfrwt beam="2">0</pdfrwt>
<totfact> 0.34362434E+12</totfact>
</mgrwt>
</event>
<event>
 4    1  0.1735226E+006  0.2384293E+01  0.7546771E-02  0.2761849E+00
         22   -1    0    0    0    0  0.00000000000E+00  0.00000000000E+00  0.91578974250E+01  0.91578974250E+01  0.00000000000E+00 0. -1.
         22   -1    0    0    0    0 -0.00000000000E+00 -0.00000000000E+00 -0.73917375222E+00  0.73917375222E+00  0.00000000000E+00 0. -1.
          4    1    1    2  501    0 -0.47206583625E+00 -0.19619146190E+01  0.61899982410E+01  0.66333199342E+01  0.12700000000E+01 0. -1.
         -4    1    1    2    0  501  0.47206583625E+00  0.19619146190E+01  0.22287254318E+01  0.32637512430E+01  0.12700000000E+01 0. -1.
<mgrwt>
<rscale>  0 0.23842934E+01</rscale>
<asrwt>0</asrwt>
<pdfrwt beam="1">0</pdfrwt>
<pdfrwt beam="2">0</pdfrwt>
<totfact> 0.24900021E+12</totfact>
</mgrwt>
</event>
<event>
 4    1  0.1735226E+006  0.3159310E+01  0.7546771E-02  0.2474114E+00
         22   -1    0    0    0    0  0.00000000000E+00  0.00000000000E+00  0.15603198239E+01  0.15603198239E+01  0.00000000000E+00 0. -1.
         22   -1    0    0    0    0 -0.00000000000E+00 -0.00000000000E+00 -0.64902304622E+01  0.64902304622E+01  0.00000000000E+00 0.  1.
          4    1    1    2  501    0  0.60031611243E+00  0.28298341260E+01 -0.19823063455E+01  0.37297156812E+01  0.12700000000E+01 0. -1.
         -4    1    1    2    0  501 -0.60031611243E+00 -0.28298341260E+01 -0.29476042928E+01  0.43208346048E+01  0.12700000000E+01 0.  1.
<mgrwt>
<rscale>  0 0.31593101E+01</rscale>
<asrwt>0</asrwt>
<pdfrwt beam="1">0</pdfrwt>
<pdfrwt beam="2">0</pdfrwt>
<totfact> 0.16018261E+12</totfact>
</mgrwt>
</event>
<event>
 4    1  0.1735226E+006  0.3058019E+01  0.7546771E-02  0.2504158E+00
         22   -1    0    0    0    0  0.00000000000E+00  0.00000000000E+00  0.95908758708E+01  0.95908758708E+01  0.00000000000E+00 0. -1.
         22   -1    0    0    0    0 -0.00000000000E+00 -0.00000000000E+00 -0.10049852240E+01  0.10049852240E+01  0.00000000000E+00 0.  1.
          4    1    1    2  501    0  0.16275487112E+01  0.22560289174E+01  0.52074690737E+01  0.60389747008E+01  0.12700000000E+01 0. -1.
         -4    1    1    2    0  501 -0.16275487112E+01 -0.22560289174E+01  0.33784215731E+01  0.45568863941E+01  0.12700000000E+01 0.  1.
<mgrwt>
<rscale>  0 0.30580192E+01</rscale>
<asrwt>0</asrwt>
<pdfrwt beam="1">0</pdfrwt>
<pdfrwt beam="2">0</pdfrwt>
<totfact> 0.16596407E+12</totfact>
</mgrwt>
</event>
<event>
 4    1  0.1735226E+006  0.2361025E+01  0.7546771E-02  0.2773162E+00
         22   -1    0    0    0    0  0.00000000000E+00  0.00000000000E+00  0.13672320610E+02  0.13672320610E+02  0.00000000000E+00 0.  1.
         22   -1    0    0    0    0 -0.00000000000E+00 -0.00000000000E+00 -0.41028019014E+00  0.41028019014E+00  0.00000000000E+00 0.  1.
          4    1    1    2  501    0  0.10418717629E+01  0.16958895145E+01  0.71875649418E+01  0.75654165655E+01  0.12700000000E+01 0.  1.
         -4    1    1    2    0  501 -0.10418717629E+01 -0.16958895145E+01  0.60744754779E+01  0.65171842346E+01  0.12700000000E+01 0.  1.
<mgrwt>
<rscale>  0 0.23610248E+01</rscale>
<asrwt>0</asrwt>
<pdfrwt beam="1">0</pdfrwt>
<pdfrwt beam="2">0</pdfrwt>
<totfact> 0.29762815E+12</totfact>
</mgrwt>
</event>
<event>
 4    1  0.1735226E+006  0.2235521E+01  0.7546771E-02  0.2838019E+00
         22   -1    0    0    0    0  0.00000000000E+00  0.00000000000E+00  0.23678122813E+01  0.23678122813E+01  0.00000000000E+00 0. -1.
         22   -1    0    0    0    0 -0.00000000000E+00 -0.00000000000E+00 -0.32891104554E+01  0.32891104554E+01  0.00000000000E+00 0.  1.
          4    1    1    2  501    0  0.18308040019E+01  0.18114094301E+00  0.12324165460E+01  0.25527251865E+01  0.12700000000E+01 0. -1.
         -4    1    1    2    0  501 -0.18308040019E+01 -0.18114094301E+00 -0.21537147201E+01  0.31041975502E+01  0.12700000000E+01 0.  1.
<mgrwt>
<rscale>  0 0.22355213E+01</rscale>
<asrwt>0</asrwt>
<pdfrwt beam="1">0</pdfrwt>
<pdfrwt beam="2">0</pdfrwt>
<totfact> 0.22074457E+12</totfact>
</mgrwt>
</event>
<event>
 4    1  0.1735226E+006  0.2730427E+01  0.7546771E-02  0.2614906E+00
         22   -1    0    0    0    0  0.00000000000E+00  0.00000000000E+00  0.10022784414E+03  0.10022784414E+03  0.00000000000E+00 0.  1.
         22   -1    0    0    0    0 -0.00000000000E+00 -0.00000000000E+00 -0.24839377424E+00  0.24839377424E+00  0.00000000000E+00 0. -1.
          4    1    1    2  501    0  0.23824122847E+01  0.40797536920E+00  0.92038299932E+02  0.92078791731E+02  0.12700000000E+01 0.  1.
         -4    1    1    2    0  501 -0.23824122847E+01 -0.40797536920E+00  0.79411504349E+01  0.83974461848E+01  0.12700000000E+01 0. -1.
<mgrwt>
<rscale>  0 0.27304271E+01</rscale>
<asrwt>0</asrwt>
<pdfrwt beam="1">0</pdfrwt>
<pdfrwt beam="2">0</pdfrwt>
<totfact> 0.39264889E+11</totfact>
</mgrwt>
</event>
<event>
 4    1  0.1735226E+006  0.2288837E+01  0.7546771E-02  0.2809641E+00
         22   -1    0    0    0    0  0.00000000000E+00  0.00000000000E+00  0.91860485972E+01  0.91860485972E+01  0.00000000000E+00 0. -1.
         22   -1    0    0    0    0 -0.00000000000E+00 -0.00000000000E+00 -0.11032589655E+01  0.11032589655E+01  0.00000000000E+00 0. -1.
          4    1    1    2  501    0 -0.62267618088E+00  0.17994863971E+01  0.76171311421E+01  0.79535818192E+01  0.12700000000E+01 0. -1.
         -4    1    1    2    0  501  0.62267618088E+00 -0.17994863971E+01  0.46565848959E+00  0.23357257434E+01  0.12700000000E+01 0. -1.
<mgrwt>
<rscale>  0 0.22888375E+01</rscale>
<asrwt>0</asrwt>
<pdfrwt beam="1">0</pdfrwt>
<pdfrwt beam="2">0</pdfrwt>
<totfact> 0.15714802E+12</totfact>
</mgrwt>
</event>
<event>
 4    1  0.1735226E+006  0.5233146E+01  0.7546771E-02  0.2096161E+00
         22   -1    0    0    0    0  0.00000000000E+00  0.00000000000E+00  0.77374268568E+01  0.77374268568E+01  0.00000000000E+00 0. -1.
         22   -1    0    0    0    0 -0.00000000000E+00 -0.00000000000E+00 -0.40244731186E+01  0.40244731186E+01  0.00000000000E+00 0.  1.
          4    1    1    2  501    0  0.49937884006E+01 -0.91377865343E+00  0.38982081213E+01  0.65254762718E+01  0.12700000000E+01 0. -1.
         -4    1    1    2    0  501 -0.49937884006E+01  0.91377865343E+00 -0.18525438310E+00  0.52364237036E+01  0.12700000000E+01 0.  1.
<mgrwt>
<rscale>  0 0.52331457E+01</rscale>
<asrwt>0</asrwt>
<pdfrwt beam="1">0</pdfrwt>
<pdfrwt beam="2">0</pdfrwt>
<totfact> 0.43098838E+11</totfact>
</mgrwt>
</event>
<event>
 4    1  0.1735226E+006  0.2563534E+01  0.7546771E-02  0.2681166E+00
         22   -1    0    0    0    0  0.00000000000E+00  0.00000000000E+00  0.26952528296E+02  0.26952528296E+02  0.00000000000E+00 0.  1.
         22   -1    0    0    0    0 -0.00000000000E+00 -0.00000000000E+00 -0.20396271827E+01  0.20396271827E+01  0.00000000000E+00 0. -1.
          4    1    1    2  501    0 -0.17698623124E+01 -0.13514418488E+01  0.26058499330E+02  0.26184290996E+02  0.12700000000E+01 0.  1.
         -4    1    1    2    0  501  0.17698623124E+01  0.13514418488E+01 -0.11455982166E+01  0.28078644820E+01  0.12700000000E+01 0. -1.
<mgrwt>
<rscale>  0 0.25635342E+01</rscale>
<asrwt>0</asrwt>
<pdfrwt beam="1">0</pdfrwt>
<pdfrwt beam="2">0</pdfrwt>
<totfact> 0.20519652E+11</totfact>
</mgrwt>
</event>
<event>
 4    1  0.1735226E+006  0.3592037E+01  0.7546771E-02  0.2362794E+00
         22   -1    0    0    0    0  0.00000000000E+00  0.00000000000E+00  0.79833413868E+01  0.79833413868E+01  0.00000000000E+00 0.  1.
         22   -1    0    0    0    0 -0.00000000000E+00 -0.00000000000E+00 -0.18040380287E+01  0.18040380287E+01  0.00000000000E+00 0.  1.
          4    1    1    2  501    0 -0.65142568887E+00  0.32962821333E+01  0.46687071396E+01  0.58906330463E+01  0.12700000000E+01 0.  1.
         -4    1    1    2    0  501  0.65142568887E+00 -0.32962821333E+01  0.15105962186E+01  0.38967463692E+01  0.12700000000E+01 0.  1.
<mgrwt>
<rscale>  0 0.35920372E+01</rscale>
<asrwt>0</asrwt>
<pdfrwt beam="1">0</pdfrwt>
<pdfrwt beam="2">0</pdfrwt>
<totfact> 0.10574624E+12</totfact>
</mgrwt>
</event>
<event>
 4    1  0.1735226E+006  0.2127984E+01  0.7546771E-02  0.2899386E+00
         22   -1    0    0    0    0  0.00000000000E+00  0.00000000000E+00  0.15405324958E+01  0.15405324958E+01  0.00000000000E+00 0.  1.
         22   -1    0    0    0    0 -0.00000000000E+00 -0.00000000000E+00 -0.66602736720E+01  0.66602736720E+01  0.00000000000E+00 0. -1.
          4    1    1    2  501    0  0.32229790511E+00 -0.16767649186E+01  0.50491519035E+00  0.21870655869E+01  0.12700000000E+01 0.  1.
         -4    1    1    2    0  501 -0.32229790511E+00  0.16767649186E+01 -0.56246563665E+01  0.60137405808E+01  0.12700000000E+01 0. -1.
<mgrwt>
<rscale>  0 0.21279841E+01</rscale>
<asrwt>0</asrwt>
<pdfrwt beam="1">0</pdfrwt>
<pdfrwt beam="2">0</pdfrwt>
<totfact> 0.15759907E+12</totfact>
</mgrwt>
</event>
<event>
 4    1  0.1735226E+006  0.2180418E+01  0.7546771E-02  0.2868737E+00
         22   -1    0    0    0    0  0.00000000000E+00  0.00000000000E+00  0.27246236723E+02  0.27246236723E+02  0.00000000000E+00 0. -1.
         22   -1    0    0    0    0 -0.00000000000E+00 -0.00000000000E+00 -0.56476385938E+00  0.56476385938E+00  0.00000000000E+00 0. -1.
          4    1    1    2  501    0  0.59341276057E+00  0.16700855257E+01  0.24900190374E+02  0.24995473691E+02  0.12700000000E+01 0. -1.
         -4    1    1    2    0  501 -0.59341276057E+00 -0.16700855257E+01  0.17812824889E+01  0.28155268908E+01  0.12700000000E+01 0. -1.
<mgrwt>
<rscale>  0 0.21804184E+01</rscale>
<asrwt>0</asrwt>
<pdfrwt beam="1">0</pdfrwt>
<pdfrwt beam="2">0</pdfrwt>
<totfact> 0.87915105E+11</totfact>
</mgrwt>
</event>
<event>
 4    1  0.1735226E+006  0.2668449E+01  0.7546771E-02  0.2638623E+00
         22   -1    0    0    0    0  0.00000000000E+00  0.00000000000E+00  0.17113178646E+01  0.17113178646E+01  0.00000000000E+00 0.  1.
         22   -1    0    0    0    0 -0.00000000000E+00 -0.00000000000E+00 -0.49279682399E+01  0.49279682399E+01  0.00000000000E+00 0. -1.
          4    1    1    2  501    0  0.16272862150E+01  0.16910524429E+01 -0.29861546037E+00  0.26851052090E+01  0.12700000000E+01 0.  1.
         -4    1    1    2    0  501 -0.16272862150E+01 -0.16910524429E+01 -0.29180349149E+01  0.39541808955E+01  0.12700000000E+01 0. -1.
<mgrwt>
<rscale>  0 0.26684488E+01</rscale>
<asrwt>0</asrwt>
<pdfrwt beam="1">0</pdfrwt>
<pdfrwt beam="2">0</pdfrwt>
<totfact> 0.19974842E+12</totfact>
</mgrwt>
</event>
<event>
 4    1  0.1735226E+006  0.5493592E+01  0.7546771E-02  0.2068320E+00
         22   -1    0    0    0    0  0.00000000000E+00  0.00000000000E+00  0.25030258668E+01  0.25030258668E+01  0.00000000000E+00 0. -1.
         22   -1    0    0    0    0 -0.00000000000E+00 -0.00000000000E+00 -0.12058985401E+02  0.12058985401E+02  0.00000000000E+00 0. -1.
          4    1    1    2  501    0 -0.29108641092E+01  0.44825799969E+01 -0.46900805609E+01  0.72233239550E+01  0.12700000000E+01 0. -1.
         -4    1    1    2    0  501  0.29108641092E+01 -0.44825799969E+01 -0.48658789729E+01  0.73386873124E+01  0.12700000000E+01 0. -1.
<mgrwt>
<rscale>  0 0.54935920E+01</rscale>
<asrwt>0</asrwt>
<pdfrwt beam="1">0</pdfrwt>
<pdfrwt beam="2">0</pdfrwt>
<totfact> 0.43919480E+11</totfact>
</mgrwt>
</event>
<event>
 4    1  0.1735226E+006  0.2090257E+01  0.7546771E-02  0.2922356E+00
         22   -1    0    0    0    0  0.00000000000E+00  0.00000000000E+00  0.39610954213E+01  0.39610954213E+01  0.00000000000E+00 0.  1.
         22   -1    0    0    0    0 -0.00000000000E+00 -0.00000000000E+00 -0.12804161081E+01  0.12804161081E+01  0.00000000000E+00 0. -1.
          4    1    1    2  501    0  0.14243315814E+01  0.85296869983E+00  0.36485515008E+00  0.21218612907E+01  0.12700000000E+01 0.  1.
         -4    1    1    2    0  501 -0.14243315814E+01 -0.85296869983E+00  0.23158241631E+01  0.31196502386E+01  0.12700000000E+01 0. -1.
<mgrwt>
<rscale>  0 0.20902574E+01</rscale>
<asrwt>0</asrwt>
<pdfrwt beam="1">0</pdfrwt>
<pdfrwt beam="2">0</pdfrwt>
<totfact> 0.36082071E+12</totfact>
</mgrwt>
</event>
<event>
 4    1  0.1735226E+006  0.2006105E+01  0.7546771E-02  0.2976619E+00
         22   -1    0    0    0    0  0.00000000000E+00  0.00000000000E+00  0.21670415044E+01  0.21670415044E+01  0.00000000000E+00 0.  1.
         22   -1    0    0    0    0 -0.00000000000E+00 -0.00000000000E+00 -0.18721515110E+01  0.18721515110E+01  0.00000000000E+00 0. -1.
          4    1    1    2  501    0 -0.35138267521E+00  0.15126422496E+01  0.32840967962E+00  0.20328082245E+01  0.12700000000E+01 0.  1.
         -4    1    1    2    0  501  0.35138267521E+00 -0.15126422496E+01 -0.33519686187E-01  0.20063847909E+01  0.12700000000E+01 0. -1.
<mgrwt>
<rscale>  0 0.20061048E+01</rscale>
<asrwt>0</asrwt>
<pdfrwt beam="1">0</pdfrwt>
<pdfrwt beam="2">0</pdfrwt>
<totfact> 0.47117297E+12</totfact>
</mgrwt>
</event>
<event>
 4    1  0.1735226E+006  0.3253959E+01  0.7546771E-02  0.2447546E+00
         22   -1    0    0    0    0  0.00000000000E+00  0.00000000000E+00  0.32949632656E+01  0.32949632656E+01  0.00000000000E+00 0. -1.
         22   -1    0    0    0    0 -0.00000000000E+00 -0.00000000000E+00 -0.36947515478E+01  0.36947515478E+01  0.00000000000E+00 0.  1.
          4    1    1    2  501    0 -0.18677976735E+01 -0.23423669816E+01  0.10614640028E+01  0.34227119445E+01  0.12700000000E+01 0. -1.
         -4    1    1    2    0  501  0.18677976735E+01  0.23423669816E+01 -0.14612522850E+01  0.35670028688E+01  0.12700000000E+01 0.  1.
<mgrwt>
<rscale>  0 0.32539593E+01</rscale>
<asrwt>0</asrwt>
<pdfrwt beam="1">0</pdfrwt>
<pdfrwt beam="2">0</pdfrwt>
<totfact> 0.13101891E+12</totfact>
</mgrwt>
</event>
<event>
 4    1  0.1735226E+006  0.2093114E+01  0.7546771E-02  0.2920589E+00
         22   -1    0    0    0    0  0.00000000000E+00  0.00000000000E+00  0.13785120003E+00  0.13785120003E+00  0.00000000000E+00 0. -1.
         22   -1    0    0    0    0 -0.00000000000E+00 -0.00000000000E+00 -0.59626232216E+02  0.59626232216E+02  0.00000000000E+00 0.  1.
          4    1    1    2  501    0  0.58903578435E-02  0.16637884397E+01 -0.93238673075E+01  0.95559211088E+01  0.12700000000E+01 0. -1.
         -4    1    1    2    0  501 -0.58903578435E-02 -0.16637884397E+01 -0.50164513708E+02  0.50208162307E+02  0.12700000000E+01 0.  1.
<mgrwt>
<rscale>  0 0.20931141E+01</rscale>
<asrwt>0</asrwt>
<pdfrwt beam="1">0</pdfrwt>
<pdfrwt beam="2">0</pdfrwt>
<totfact> 0.15423015E+12</totfact>
</mgrwt>
</event>
<event>
 4    1  0.1735226E+006  0.2535463E+01  0.7546771E-02  0.2693099E+00
         22   -1    0    0    0    0  0.00000000000E+00  0.00000000000E+00  0.74835404468E+01  0.74835404468E+01  0.00000000000E+00 0.  1.
         22   -1    0    0    0    0 -0.00000000000E+00 -0.00000000000E+00 -0.10279443427E+01  0.10279443427E+01  0.00000000000E+00 0. -1.
          4    1    1    2  501    0  0.83140582669E+00  0.20308705890E+01  0.49529459338E+01  0.55641930611E+01  0.12700000000E+01 0.  1.
         -4    1    1    2    0  501 -0.83140582669E+00 -0.20308705890E+01  0.15026501702E+01  0.29472917284E+01  0.12700000000E+01 0. -1.
<mgrwt>
<rscale>  0 0.25354627E+01</rscale>
<asrwt>0</asrwt>
<pdfrwt beam="1">0</pdfrwt>
<pdfrwt beam="2">0</pdfrwt>
<totfact> 0.21802799E+12</totfact>
</mgrwt>
</event>
<event>
 4    1  0.1735226E+006  0.3299415E+01  0.7546771E-02  0.2435267E+00
         22   -1    0    0    0    0  0.00000000000E+00  0.00000000000E+00  0.22930428092E+02  0.22930428092E+02  0.00000000000E+00 0. -1.
         22   -1    0    0    0    0 -0.00000000000E+00 -0.00000000000E+00 -0.84186190317E+00  0.84186190317E+00  0.00000000000E+00 0.  1.
          4    1    1    2  501    0  0.10069428836E+01 -0.28739011921E+01  0.18893419180E+02  0.19179349059E+02  0.12700000000E+01 0. -1.
         -4    1    1    2    0  501 -0.10069428836E+01  0.28739011921E+01  0.31951470096E+01  0.45929409365E+01  0.12700000000E+01 0.  1.
<mgrwt>
<rscale>  0 0.32994154E+01</rscale>
<asrwt>0</asrwt>
<pdfrwt beam="1">0</pdfrwt>
<pdfrwt beam="2">0</pdfrwt>
<totfact> 0.69472338E+11</totfact>
</mgrwt>
</event>
<event>
 4    1  0.1735226E+006  0.3048657E+01  0.7546771E-02  0.2507024E+00
         22   -1    0    0    0    0  0.00000000000E+00  0.00000000000E+00  0.46571822035E+01  0.46571822035E+01  0.00000000000E+00 0.  1.
         22   -1    0    0    0    0 -0.00000000000E+00 -0.00000000000E+00 -0.51735778834E+01  0.51735778834E+01  0.00000000000E+00 0.  1.
          4    1    1    2  501    0  0.13003599609E+01  0.24475440544E+01  0.35941958019E+01  0.47130193495E+01  0.12700000000E+01 0.  1.
         -4    1    1    2    0  501 -0.13003599609E+01 -0.24475440544E+01 -0.41105914818E+01  0.51177407375E+01  0.12700000000E+01 0.  1.
<mgrwt>
<rscale>  0 0.30486567E+01</rscale>
<asrwt>0</asrwt>
<pdfrwt beam="1">0</pdfrwt>
<pdfrwt beam="2">0</pdfrwt>
<totfact> 0.58630417E+11</totfact>
</mgrwt>
</event>
<event>
 4    1  0.1735226E+006  0.2766567E+01  0.7546771E-02  0.2601526E+00
         22   -1    0    0    0    0  0.00000000000E+00  0.00000000000E+00  0.84323807555E+00  0.84323807555E+00  0.00000000000E+00 0. -1.
         22   -1    0    0    0    0 -0.00000000000E+00 -0.00000000000E+00 -0.10341345400E+02  0.10341345400E+02  0.00000000000E+00 0. -1.
          4    1    1    2  501    0  0.22579644020E+01 -0.97087063320E+00 -0.27934960469E+01  0.39316044042E+01  0.12700000000E+01 0. -1.
         -4    1    1    2    0  501 -0.22579644020E+01  0.97087063320E+00 -0.67046112777E+01  0.72529790716E+01  0.12700000000E+01 0. -1.
<mgrwt>
<rscale>  0 0.27665670E+01</rscale>
<asrwt>0</asrwt>
<pdfrwt beam="1">0</pdfrwt>
<pdfrwt beam="2">0</pdfrwt>
<totfact> 0.18505485E+12</totfact>
</mgrwt>
</event>
<event>
 4    1  0.1735226E+006  0.2901536E+01  0.7546771E-02  0.2554242E+00
         22   -1    0    0    0    0  0.00000000000E+00  0.00000000000E+00  0.17367550696E+01  0.17367550696E+01  0.00000000000E+00 0.  1.
         22   -1    0    0    0    0 -0.00000000000E+00 -0.00000000000E+00 -0.49647204920E+01  0.49647204920E+01  0.00000000000E+00 0. -1.
          4    1    1    2  501    0  0.24380080248E+01 -0.92850932921E+00 -0.21288588987E+01  0.35987432410E+01  0.12700000000E+01 0. -1.
         -4    1    1    2    0  501 -0.24380080248E+01  0.92850932921E+00 -0.10991065237E+01  0.31027323207E+01  0.12700000000E+01 0. -1.
<mgrwt>
<rscale>  0 0.29015363E+01</rscale>
<asrwt>0</asrwt>
<pdfrwt beam="1">0</pdfrwt>
<pdfrwt beam="2">0</pdfrwt>
<totfact> 0.19465863E+12</totfact>
</mgrwt>
</event>
<event>
 4    1  0.1735226E+006  0.4403068E+01  0.7546771E-02  0.2206288E+00
         22   -1    0    0    0    0  0.00000000000E+00  0.00000000000E+00  0.13344175438E+02  0.13344175438E+02  0.00000000000E+00 0. -1.
         22   -1    0    0    0    0 -0.00000000000E+00 -0.00000000000E+00 -0.15277724099E+01  0.15277724099E+01  0.00000000000E+00 0.  1.
          4    1    1    2  501    0  0.39243087414E+01  0.15407506234E+01  0.42614411580E+01  0.61275519030E+01  0.12700000000E+01 0.  1.
         -4    1    1    2    0  501 -0.39243087414E+01 -0.15407506234E+01  0.75549618705E+01  0.87443959452E+01  0.12700000000E+01 0. -1.
<mgrwt>
<rscale>  0 0.44030684E+01</rscale>
<asrwt>0</asrwt>
<pdfrwt beam="1">0</pdfrwt>
<pdfrwt beam="2">0</pdfrwt>
<totfact> 0.68702643E+11</totfact>
</mgrwt>
</event>
<event>
 4    1  0.1735226E+006  0.4435453E+01  0.7546771E-02  0.2201058E+00
         22   -1    0    0    0    0  0.00000000000E+00  0.00000000000E+00  0.18026506089E+02  0.18026506089E+02  0.00000000000E+00 0.  1.
         22   -1    0    0    0    0 -0.00000000000E+00 -0.00000000000E+00 -0.21892987085E+01  0.21892987085E+01  0.00000000000E+00 0. -1.
          4    1    1    2  501    0 -0.12922228722E+01  0.40485191669E+01  0.76047773131E+00  0.45001748606E+01  0.12700000000E+01 0. -1.
         -4    1    1    2    0  501  0.12922228722E+01 -0.40485191669E+01  0.15076729650E+02  0.15715629937E+02  0.12700000000E+01 0.  1.
<mgrwt>
<rscale>  0 0.44354535E+01</rscale>
<asrwt>0</asrwt>
<pdfrwt beam="1">0</pdfrwt>
<pdfrwt beam="2">0</pdfrwt>
<totfact> 0.31294914E+11</totfact>
</mgrwt>
</event>
<event>
 4    1  0.1735226E+006  0.2120462E+01  0.7546771E-02  0.2903903E+00
         22   -1    0    0    0    0  0.00000000000E+00  0.00000000000E+00  0.10239674931E+01  0.10239674931E+01  0.00000000000E+00 0.  1.
         22   -1    0    0    0    0 -0.00000000000E+00 -0.00000000000E+00 -0.60846322281E+01  0.60846322281E+01  0.00000000000E+00 0.  1.
          4    1    1    2  501    0  0.16684108514E+01 -0.31601312896E+00 -0.65520098922E+00  0.22193799591E+01  0.12700000000E+01 0.  1.
         -4    1    1    2    0  501 -0.16684108514E+01  0.31601312896E+00 -0.44054637458E+01  0.48892197621E+01  0.12700000000E+01 0.  1.
<mgrwt>
<rscale>  0 0.21204620E+01</rscale>
<asrwt>0</asrwt>
<pdfrwt beam="1">0</pdfrwt>
<pdfrwt beam="2">0</pdfrwt>
<totfact> 0.28040570E+12</totfact>
</mgrwt>
</event>
<event>
 4    1  0.1735226E+006  0.2616566E+01  0.7546771E-02  0.2659269E+00
         22   -1    0    0    0    0  0.00000000000E+00  0.00000000000E+00  0.29853799250E+02  0.29853799250E+02  0.00000000000E+00 0. -1.
         22   -1    0    0    0    0 -0.00000000000E+00 -0.00000000000E+00 -0.32098486309E+00  0.32098486309E+00  0.00000000000E+00 0.  1.
          4    1    1    2  501    0 -0.16975343681E+01  0.15335882629E+01  0.22828469601E+02  0.22977933767E+02  0.12700000000E+01 0. -1.
         -4    1    1    2    0  501  0.16975343681E+01 -0.15335882629E+01  0.67043447858E+01  0.71968503457E+01  0.12700000000E+01 0.  1.
<mgrwt>
<rscale>  0 0.26165657E+01</rscale>
<asrwt>0</asrwt>
<pdfrwt beam="1">0</pdfrwt>
<pdfrwt beam="2">0</pdfrwt>
<totfact> 0.14795055E+12</totfact>
</mgrwt>
</event>
<event>
 4    1  0.1735226E+006  0.2388815E+01  0.7546771E-02  0.2759674E+00
         22   -1    0    0    0    0  0.00000000000E+00  0.00000000000E+00  0.29991765195E+00  0.29991765195E+00  0.00000000000E+00 0.  1.
         22   -1    0    0    0    0 -0.00000000000E+00 -0.00000000000E+00 -0.19463113442E+02  0.19463113442E+02  0.00000000000E+00 0. -1.
          4    1    1    2  501    0  0.10545178107E+01  0.17267098951E+01 -0.81018754814E+01  0.84467047534E+01  0.12700000000E+01 0.  1.
         -4    1    1    2    0  501 -0.10545178107E+01 -0.17267098951E+01 -0.11061320308E+02  0.11316326340E+02  0.12700000000E+01 0.  1.
<mgrwt>
<rscale>  0 0.23888145E+01</rscale>
<asrwt>0</asrwt>
<pdfrwt beam="1">0</pdfrwt>
<pdfrwt beam="2">0</pdfrwt>
<totfact> 0.27359969E+12</totfact>
</mgrwt>
</event>
<event>
 4    1  0.1735226E+006  0.2022409E+01  0.7546771E-02  0.2965761E+00
         22   -1    0    0    0    0  0.00000000000E+00  0.00000000000E+00  0.43739166859E+01  0.43739166859E+01  0.00000000000E+00 0. -1.
         22   -1    0    0    0    0 -0.00000000000E+00 -0.00000000000E+00 -0.10563451325E+01  0.10563451325E+01  0.00000000000E+00 0. -1.
          4    1    1    2  501    0 -0.15673181250E+01  0.14405766761E+00  0.25785647455E+01  0.32770619255E+01  0.12700000000E+01 0. -1.
         -4    1    1    2    0  501  0.15673181250E+01 -0.14405766761E+00  0.73900680791E+00  0.21531998929E+01  0.12700000000E+01 0. -1.
<mgrwt>
<rscale>  0 0.20224091E+01</rscale>
<asrwt>0</asrwt>
<pdfrwt beam="1">0</pdfrwt>
<pdfrwt beam="2">0</pdfrwt>
<totfact> 0.40015563E+12</totfact>
</mgrwt>
</event>
<event>
 4    1  0.1735226E+006  0.2562132E+01  0.7546771E-02  0.2681756E+00
         22   -1    0    0    0    0  0.00000000000E+00  0.00000000000E+00  0.59433929300E+01  0.59433929300E+01  0.00000000000E+00 0.  1.
         22   -1    0    0    0    0 -0.00000000000E+00 -0.00000000000E+00 -0.12627587162E+01  0.12627587162E+01  0.00000000000E+00 0.  1.
          4    1    1    2  501    0 -0.10301941355E+01  0.19723888752E+01  0.10647957936E+01  0.27745824756E+01  0.12700000000E+01 0.  1.
         -4    1    1    2    0  501  0.10301941355E+01 -0.19723888752E+01  0.36158384202E+01  0.44315691705E+01  0.12700000000E+01 0.  1.
<mgrwt>
<rscale>  0 0.25621315E+01</rscale>
<asrwt>0</asrwt>
<pdfrwt beam="1">0</pdfrwt>
<pdfrwt beam="2">0</pdfrwt>
<totfact> 0.22685999E+12</totfact>
</mgrwt>
</event>
<event>
 4    1  0.1735226E+006  0.4724209E+01  0.7546771E-02  0.2157437E+00
         22   -1    0    0    0    0  0.00000000000E+00  0.00000000000E+00  0.71096929437E+01  0.71096929437E+01  0.00000000000E+00 0.  1.
         22   -1    0    0    0    0 -0.00000000000E+00 -0.00000000000E+00 -0.35569278532E+01  0.35569278532E+01  0.00000000000E+00 0. -1.
          4    1    1    2  501    0 -0.45501507988E+01  0.37067553145E-01 -0.51507405666E-01  0.47244893172E+01  0.12700000000E+01 0.  1.
         -4    1    1    2    0  501  0.45501507988E+01 -0.37067553145E-01  0.36042724962E+01  0.59421314797E+01  0.12700000000E+01 0. -1.
<mgrwt>
<rscale>  0 0.47242085E+01</rscale>
<asrwt>0</asrwt>
<pdfrwt beam="1">0</pdfrwt>
<pdfrwt beam="2">0</pdfrwt>
<totfact> 0.55147119E+11</totfact>
</mgrwt>
</event>
<event>
 4    1  0.1735226E+006  0.2383947E+01  0.7546771E-02  0.2762016E+00
         22   -1    0    0    0    0  0.00000000000E+00  0.00000000000E+00  0.17213386603E+01  0.17213386603E+01  0.00000000000E+00 0.  1.
         22   -1    0    0    0    0 -0.00000000000E+00 -0.00000000000E+00 -0.33061661151E+01  0.33061661151E+01  0.00000000000E+00 0. -1.
          4    1    1    2  501    0  0.17911165301E+01  0.92855001351E+00 -0.88564301918E+00  0.25431411895E+01  0.12700000000E+01 0.  1.
         -4    1    1    2    0  501 -0.17911165301E+01 -0.92855001351E+00 -0.69918443568E+00  0.24843635859E+01  0.12700000000E+01 0. -1.
<mgrwt>
<rscale>  0 0.23839471E+01</rscale>
<asrwt>0</asrwt>
<pdfrwt beam="1">0</pdfrwt>
<pdfrwt beam="2">0</pdfrwt>
<totfact> 0.31738856E+12</totfact>
</mgrwt>
</event>
<event>
 4    1  0.1735226E+006  0.2017327E+01  0.7546771E-02  0.2969127E+00
         22   -1    0    0    0    0  0.00000000000E+00  0.00000000000E+00  0.20118586584E+01  0.20118586584E+01  0.00000000000E+00 0.  1.
         22   -1    0    0    0    0 -0.00000000000E+00 -0.00000000000E+00 -0.20230032356E+01  0.20230032356E+01  0.00000000000E+00 0.  1.
          4    1    1    2  501    0  0.53568550600E+00  0.14730072618E+01 -0.25250294572E-01  0.20174852991E+01  0.12700000000E+01 0.  1.
         -4    1    1    2    0  501 -0.53568550600E+00 -0.14730072618E+01  0.14105717416E-01  0.20173765949E+01  0.12700000000E+01 0.  1.
<mgrwt>
<rscale>  0 0.20173273E+01</rscale>
<asrwt>0</asrwt>
<pdfrwt beam="1">0</pdfrwt>
<pdfrwt beam="2">0</pdfrwt>
<totfact> 0.46949988E+12</totfact>
</mgrwt>
</event>
<event>
 4    1  0.1735226E+006  0.2538421E+01  0.7546771E-02  0.2691830E+00
         22   -1    0    0    0    0  0.00000000000E+00  0.00000000000E+00  0.27871623495E+00  0.27871623495E+00  0.00000000000E+00 0. -1.
         22   -1    0    0    0    0 -0.00000000000E+00 -0.00000000000E+00 -0.32190562274E+02  0.32190562274E+02  0.00000000000E+00 0.  1.
          4    1    1    2  501    0  0.18599855856E+01 -0.11709546371E+01 -0.73375653421E+01  0.77642415142E+01  0.12700000000E+01 0. -1.
         -4    1    1    2    0  501 -0.18599855856E+01  0.11709546371E+01 -0.24574280697E+02  0.24705036995E+02  0.12700000000E+01 0.  1.
<mgrwt>
<rscale>  0 0.25384210E+01</rscale>
<asrwt>0</asrwt>
<pdfrwt beam="1">0</pdfrwt>
<pdfrwt beam="2">0</pdfrwt>
<totfact> 0.15742600E+12</totfact>
</mgrwt>
</event>
<event>
 4    1  0.1735226E+006  0.2066374E+01  0.7546771E-02  0.2937318E+00
         22   -1    0    0    0    0  0.00000000000E+00  0.00000000000E+00  0.89567602991E+01  0.89567602991E+01  0.00000000000E+00 0. -1.
         22   -1    0    0    0    0 -0.00000000000E+00 -0.00000000000E+00 -0.80854784116E+00  0.80854784116E+00  0.00000000000E+00 0. -1.
          4    1    1    2  501    0 -0.58619252401E+00 -0.15209805584E+01  0.72020347489E+01  0.74926102300E+01  0.12700000000E+01 0. -1.
         -4    1    1    2    0  501  0.58619252401E+00  0.15209805584E+01  0.94617770902E+00  0.22726979102E+01  0.12700000000E+01 0. -1.
<mgrwt>
<rscale>  0 0.20663745E+01</rscale>
<asrwt>0</asrwt>
<pdfrwt beam="1">0</pdfrwt>
<pdfrwt beam="2">0</pdfrwt>
<totfact> 0.23094802E+12</totfact>
</mgrwt>
</event>
<event>
 4    1  0.1735226E+006  0.2647814E+01  0.7546771E-02  0.2646745E+00
         22   -1    0    0    0    0  0.00000000000E+00  0.00000000000E+00  0.11505273571E+02  0.11505273571E+02  0.00000000000E+00 0.  1.
         22   -1    0    0    0    0 -0.00000000000E+00 -0.00000000000E+00 -0.11740422746E+01  0.11740422746E+01  0.00000000000E+00 0.  1.
          4    1    1    2  501    0 -0.18558409454E+01 -0.13978093081E+01  0.95622862557E+01  0.99221083905E+01  0.12700000000E+01 0.  1.
         -4    1    1    2    0  501  0.18558409454E+01  0.13978093081E+01  0.76894504099E+00  0.27572074555E+01  0.12700000000E+01 0.  1.
<mgrwt>
<rscale>  0 0.26478135E+01</rscale>
<asrwt>0</asrwt>
<pdfrwt beam="1">0</pdfrwt>
<pdfrwt beam="2">0</pdfrwt>
<totfact> 0.11140378E+12</totfact>
</mgrwt>
</event>
<event>
 4    1  0.1735226E+006  0.2715826E+01  0.7546771E-02  0.2620404E+00
         22   -1    0    0    0    0  0.00000000000E+00  0.00000000000E+00  0.10932455352E+02  0.10932455352E+02  0.00000000000E+00 0. -1.
         22   -1    0    0    0    0 -0.00000000000E+00 -0.00000000000E+00 -0.76347829063E+00  0.76347829063E+00  0.00000000000E+00 0.  1.
          4    1    1    2  501    0  0.21099443166E+01 -0.11449663585E+01  0.70790741933E+01  0.75821503820E+01  0.12700000000E+01 0.  1.
         -4    1    1    2    0  501 -0.21099443166E+01  0.11449663585E+01  0.30899028681E+01  0.41137832607E+01  0.12700000000E+01 0.  1.
<mgrwt>
<rscale>  0 0.27158264E+01</rscale>
<asrwt>0</asrwt>
<pdfrwt beam="1">0</pdfrwt>
<pdfrwt beam="2">0</pdfrwt>
<totfact> 0.19368449E+12</totfact>
</mgrwt>
</event>
<event>
 4    1  0.1735226E+006  0.2377099E+01  0.7546771E-02  0.2765324E+00
         22   -1    0    0    0    0  0.00000000000E+00  0.00000000000E+00  0.80651518126E+01  0.80651518126E+01  0.00000000000E+00 0. -1.
         22   -1    0    0    0    0 -0.00000000000E+00 -0.00000000000E+00 -0.83409868951E+00  0.83409868951E+00  0.00000000000E+00 0.  1.
          4    1    1    2  501    0  0.18026106832E+01  0.88786040637E+00  0.53955337250E+01  0.58959634966E+01  0.12700000000E+01 0. -1.
         -4    1    1    2    0  501 -0.18026106832E+01 -0.88786040637E+00  0.18355193981E+01  0.30032870055E+01  0.12700000000E+01 0.  1.
<mgrwt>
<rscale>  0 0.23770994E+01</rscale>
<asrwt>0</asrwt>
<pdfrwt beam="1">0</pdfrwt>
<pdfrwt beam="2">0</pdfrwt>
<totfact> 0.25292309E+12</totfact>
</mgrwt>
</event>
<event>
 4    1  0.1735226E+006  0.2517337E+01  0.7546771E-02  0.2700936E+00
         22   -1    0    0    0    0  0.00000000000E+00  0.00000000000E+00  0.15268712703E+02  0.15268712703E+02  0.00000000000E+00 0.  1.
         22   -1    0    0    0    0 -0.00000000000E+00 -0.00000000000E+00 -0.41765631125E+00  0.41765631125E+00  0.00000000000E+00 0. -1.
          4    1    1    2  501    0 -0.36783258376E-01  0.21731845318E+01  0.80473999749E+01  0.84319410798E+01  0.12700000000E+01 0. -1.
         -4    1    1    2    0  501  0.36783258376E-01 -0.21731845318E+01  0.68036564166E+01  0.72544279342E+01  0.12700000000E+01 0.  1.
<mgrwt>
<rscale>  0 0.25173367E+01</rscale>
<asrwt>0</asrwt>
<pdfrwt beam="1">0</pdfrwt>
<pdfrwt beam="2">0</pdfrwt>
<totfact> 0.25470636E+12</totfact>
</mgrwt>
</event>
<event>
 4    1  0.1735226E+006  0.2792342E+01  0.7546771E-02  0.2592176E+00
         22   -1    0    0    0    0  0.00000000000E+00  0.00000000000E+00  0.22213489103E+01  0.22213489103E+01  0.00000000000E+00 0.  1.
         22   -1    0    0    0    0 -0.00000000000E+00 -0.00000000000E+00 -0.66755386052E+01  0.66755386052E+01  0.00000000000E+00 0.  1.
          4    1    1    2  501    0 -0.20861540771E+01 -0.13536013372E+01  0.83614724441E+00  0.29148443574E+01  0.12700000000E+01 0.  1.
         -4    1    1    2    0  501  0.20861540771E+01  0.13536013372E+01 -0.52903369393E+01  0.59820431580E+01  0.12700000000E+01 0.  1.
<mgrwt>
<rscale>  0 0.27923423E+01</rscale>
<asrwt>0</asrwt>
<pdfrwt beam="1">0</pdfrwt>
<pdfrwt beam="2">0</pdfrwt>
<totfact> 0.10297288E+12</totfact>
</mgrwt>
</event>
<event>
 4    1  0.1735226E+006  0.3465624E+01  0.7546771E-02  0.2392790E+00
         22   -1    0    0    0    0  0.00000000000E+00  0.00000000000E+00  0.10334612989E+02  0.10334612989E+02  0.00000000000E+00 0.  1.
         22   -1    0    0    0    0 -0.00000000000E+00 -0.00000000000E+00 -0.15133496749E+01  0.15133496749E+01  0.00000000000E+00 0. -1.
          4    1    1    2  501    0  0.28719341149E+01  0.14661658913E+01  0.72643458187E+01  0.80486811439E+01  0.12700000000E+01 0.  1.
         -4    1    1    2    0  501 -0.28719341149E+01 -0.14661658913E+01  0.15569174952E+01  0.37992815200E+01  0.12700000000E+01 0. -1.
<mgrwt>
<rscale>  0 0.34656238E+01</rscale>
<asrwt>0</asrwt>
<pdfrwt beam="1">0</pdfrwt>
<pdfrwt beam="2">0</pdfrwt>
<totfact> 0.94830280E+11</totfact>
</mgrwt>
</event>
<event>
 4    1  0.1735226E+006  0.2807546E+01  0.7546771E-02  0.2586734E+00
         22   -1    0    0    0    0  0.00000000000E+00  0.00000000000E+00  0.28420690423E+01  0.28420690423E+01  0.00000000000E+00 0.  1.
         22   -1    0    0    0    0 -0.00000000000E+00 -0.00000000000E+00 -0.35820000324E+01  0.35820000324E+01  0.00000000000E+00 0. -1.
          4    1    1    2  501    0  0.25034027330E+01  0.48869895823E-01  0.11560994792E+01  0.30362607786E+01  0.12700000000E+01 0.  1.
         -4    1    1    2    0  501 -0.25034027330E+01 -0.48869895823E-01 -0.18960304693E+01  0.33878082960E+01  0.12700000000E+01 0. -1.
<mgrwt>
<rscale>  0 0.28075458E+01</rscale>
<asrwt>0</asrwt>
<pdfrwt beam="1">0</pdfrwt>
<pdfrwt beam="2">0</pdfrwt>
<totfact> 0.16150381E+12</totfact>
</mgrwt>
</event>
<event>
 4    1  0.1735226E+006  0.2061498E+01  0.7546771E-02  0.2940415E+00
         22   -1    0    0    0    0  0.00000000000E+00  0.00000000000E+00  0.59626313317E+01  0.59626313317E+01  0.00000000000E+00 0. -1.
         22   -1    0    0    0    0 -0.00000000000E+00 -0.00000000000E+00 -0.13158670208E+01  0.13158670208E+01  0.00000000000E+00 0. -1.
          4    1    1    2  501    0 -0.21860990425E-01 -0.16236980888E+01  0.47872201298E+01  0.52122212115E+01  0.12700000000E+01 0. -1.
         -4    1    1    2    0  501  0.21860990425E-01  0.16236980888E+01 -0.14045581891E+00  0.20662771410E+01  0.12700000000E+01 0. -1.
<mgrwt>
<rscale>  0 0.20614979E+01</rscale>
<asrwt>0</asrwt>
<pdfrwt beam="1">0</pdfrwt>
<pdfrwt beam="2">0</pdfrwt>
<totfact> 0.21553923E+12</totfact>
</mgrwt>
</event>
<event>
 4    1  0.1735226E+006  0.2676309E+01  0.7546771E-02  0.2635560E+00
         22   -1    0    0    0    0  0.00000000000E+00  0.00000000000E+00  0.29426875664E+00  0.29426875664E+00  0.00000000000E+00 0. -1.
         22   -1    0    0    0    0 -0.00000000000E+00 -0.00000000000E+00 -0.24340501791E+02  0.24340501791E+02  0.00000000000E+00 0. -1.
          4    1    1    2  501    0  0.22887012495E+01  0.55818847699E+00 -0.12001819561E+02  0.12296597113E+02  0.12700000000E+01 0. -1.
         -4    1    1    2    0  501 -0.22887012495E+01 -0.55818847699E+00 -0.12044413473E+02  0.12338173434E+02  0.12700000000E+01 0. -1.
<mgrwt>
<rscale>  0 0.26763086E+01</rscale>
<asrwt>0</asrwt>
<pdfrwt beam="1">0</pdfrwt>
<pdfrwt beam="2">0</pdfrwt>
<totfact> 0.21123345E+12</totfact>
</mgrwt>
</event>
<event>
 4    1  0.1735226E+006  0.2103840E+01  0.7546771E-02  0.2913994E+00
         22   -1    0    0    0    0  0.00000000000E+00  0.00000000000E+00  0.49443711627E+00  0.49443711627E+00  0.00000000000E+00 0.  1.
         22   -1    0    0    0    0 -0.00000000000E+00 -0.00000000000E+00 -0.14472587886E+02  0.14472587886E+02  0.00000000000E+00 0. -1.
          4    1    1    2  501    0 -0.54142919459E+00 -0.15874817998E+01 -0.23670791065E+01  0.31668924096E+01  0.12700000000E+01 0.  1.
         -4    1    1    2    0  501  0.54142919459E+00  0.15874817998E+01 -0.11611071664E+02  0.11800132593E+02  0.12700000000E+01 0. -1.
<mgrwt>
<rscale>  0 0.21038403E+01</rscale>
<asrwt>0</asrwt>
<pdfrwt beam="1">0</pdfrwt>
<pdfrwt beam="2">0</pdfrwt>
<totfact> 0.22488966E+12</totfact>
</mgrwt>
</event>
<event>
 4    1  0.1735226E+006  0.2013212E+01  0.7546771E-02  0.2971865E+00
         22   -1    0    0    0    0  0.00000000000E+00  0.00000000000E+00  0.49794255091E+01  0.49794255091E+01  0.00000000000E+00 0.  1.
         22   -1    0    0    0    0 -0.00000000000E+00 -0.00000000000E+00 -0.37578070526E+01  0.37578070526E+01  0.00000000000E+00 0. -1.
          4    1    1    2  501    0  0.15255272299E+01  0.33598707632E+00  0.44774583571E+01  0.49092416914E+01  0.12700000000E+01 0.  1.
         -4    1    1    2    0  501 -0.15255272299E+01 -0.33598707632E+00 -0.32558399006E+01  0.38279908703E+01  0.12700000000E+01 0. -1.
<mgrwt>
<rscale>  0 0.20132115E+01</rscale>
<asrwt>0</asrwt>
<pdfrwt beam="1">0</pdfrwt>
<pdfrwt beam="2">0</pdfrwt>
<totfact> 0.78984097E+11</totfact>
</mgrwt>
</event>
<event>
 4    1  0.1735226E+006  0.2148145E+01  0.7546771E-02  0.2887431E+00
         22   -1    0    0    0    0  0.00000000000E+00  0.00000000000E+00  0.14437699877E+01  0.14437699877E+01  0.00000000000E+00 0. -1.
         22   -1    0    0    0    0 -0.00000000000E+00 -0.00000000000E+00 -0.32742319771E+01  0.32742319771E+01  0.00000000000E+00 0.  1.
          4    1    1    2  501    0 -0.17007841127E+01  0.33009092928E+00 -0.55097390712E+00  0.22176787112E+01  0.12700000000E+01 0.  1.
         -4    1    1    2    0  501  0.17007841127E+01 -0.33009092928E+00 -0.12794880824E+01  0.25003232536E+01  0.12700000000E+01 0.  1.
<mgrwt>
<rscale>  0 0.21481449E+01</rscale>
<asrwt>0</asrwt>
<pdfrwt beam="1">0</pdfrwt>
<pdfrwt beam="2">0</pdfrwt>
<totfact> 0.39306951E+12</totfact>
</mgrwt>
</event>
<event>
 4    1  0.1735226E+006  0.2666005E+01  0.7546771E-02  0.2639579E+00
         22   -1    0    0    0    0  0.00000000000E+00  0.00000000000E+00  0.20523152232E+01  0.20523152232E+01  0.00000000000E+00 0. -1.
         22   -1    0    0    0    0 -0.00000000000E+00 -0.00000000000E+00 -0.38675340649E+01  0.38675340649E+01  0.00000000000E+00 0.  1.
          4    1    1    2  501    0  0.15104077385E+01 -0.17925822674E+01  0.49435961838E-01  0.26664633199E+01  0.12700000000E+01 0. -1.
         -4    1    1    2    0  501 -0.15104077385E+01  0.17925822674E+01 -0.18646548035E+01  0.32533859682E+01  0.12700000000E+01 0.  1.
<mgrwt>
<rscale>  0 0.26660050E+01</rscale>
<asrwt>0</asrwt>
<pdfrwt beam="1">0</pdfrwt>
<pdfrwt beam="2">0</pdfrwt>
<totfact> 0.21547562E+12</totfact>
</mgrwt>
</event>
<event>
 4    1  0.1735226E+006  0.2042253E+01  0.7546771E-02  0.2952775E+00
         22   -1    0    0    0    0  0.00000000000E+00  0.00000000000E+00  0.44057183382E+00  0.44057183382E+00  0.00000000000E+00 0.  1.
         22   -1    0    0    0    0 -0.00000000000E+00 -0.00000000000E+00 -0.97705620691E+01  0.97705620691E+01  0.00000000000E+00 0.  1.
          4    1    1    2  501    0 -0.87809680757E+00 -0.13367285420E+01 -0.55652476236E+01  0.59281344714E+01  0.12700000000E+01 0.  1.
         -4    1    1    2    0  501  0.87809680757E+00  0.13367285420E+01 -0.37647426116E+01  0.42829994315E+01  0.12700000000E+01 0.  1.
<mgrwt>
<rscale>  0 0.20422530E+01</rscale>
<asrwt>0</asrwt>
<pdfrwt beam="1">0</pdfrwt>
<pdfrwt beam="2">0</pdfrwt>
<totfact> 0.41349757E+12</totfact>
</mgrwt>
</event>
<event>
 4    1  0.1735226E+006  0.2137533E+01  0.7546771E-02  0.2893697E+00
         22   -1    0    0    0    0  0.00000000000E+00  0.00000000000E+00  0.22877535570E+02  0.22877535570E+02  0.00000000000E+00 0.  1.
         22   -1    0    0    0    0 -0.00000000000E+00 -0.00000000000E+00 -0.92763147909E+00  0.92763147909E+00  0.00000000000E+00 0.  1.
          4    1    1    2  501    0  0.13184358379E+01  0.11035732665E+01  0.21518663011E+02  0.21624567159E+02  0.12700000000E+01 0.  1.
         -4    1    1    2    0  501 -0.13184358379E+01 -0.11035732665E+01  0.43124107977E+00  0.21805998904E+01  0.12700000000E+01 0.  1.
<mgrwt>
<rscale>  0 0.21375329E+01</rscale>
<asrwt>0</asrwt>
<pdfrwt beam="1">0</pdfrwt>
<pdfrwt beam="2">0</pdfrwt>
<totfact> 0.62376116E+11</totfact>
</mgrwt>
</event>
<event>
 4    1  0.1735226E+006  0.2803022E+01  0.7546771E-02  0.2588347E+00
         22   -1    0    0    0    0  0.00000000000E+00  0.00000000000E+00  0.25354395104E+01  0.25354395104E+01  0.00000000000E+00 0. -1.
         22   -1    0    0    0    0 -0.00000000000E+00 -0.00000000000E+00 -0.42726087240E+01  0.42726087240E+01  0.00000000000E+00 0. -1.
          4    1    1    2  501    0  0.89915795439E+00  0.23314261310E+01  0.91558648081E+00  0.29487677825E+01  0.12700000000E+01 0. -1.
         -4    1    1    2    0  501 -0.89915795439E+00 -0.23314261310E+01 -0.26527556945E+01  0.38592804518E+01  0.12700000000E+01 0. -1.
<mgrwt>
<rscale>  0 0.28030221E+01</rscale>
<asrwt>0</asrwt>
<pdfrwt beam="1">0</pdfrwt>
<pdfrwt beam="2">0</pdfrwt>
<totfact> 0.14993462E+12</totfact>
</mgrwt>
</event>
<event>
 4    1  0.1735226E+006  0.2003725E+01  0.7546771E-02  0.2978219E+00
         22   -1    0    0    0    0  0.00000000000E+00  0.00000000000E+00  0.27748701222E+01  0.27748701222E+01  0.00000000000E+00 0. -1.
         22   -1    0    0    0    0 -0.00000000000E+00 -0.00000000000E+00 -0.18776320589E+01  0.18776320589E+01  0.00000000000E+00 0.  1.
          4    1    1    2  501    0  0.15498234242E+01  0.77100577512E-02  0.15628200981E+01  0.25411254889E+01  0.12700000000E+01 0. -1.
         -4    1    1    2    0  501 -0.15498234242E+01 -0.77100577512E-02 -0.66558203486E+00  0.21113766922E+01  0.12700000000E+01 0.  1.
<mgrwt>
<rscale>  0 0.20037246E+01</rscale>
<asrwt>0</asrwt>
<pdfrwt beam="1">0</pdfrwt>
<pdfrwt beam="2">0</pdfrwt>
<totfact> 0.35226279E+12</totfact>
</mgrwt>
</event>
<event>
 4    1  0.1735226E+006  0.2141180E+01  0.7546771E-02  0.2891537E+00
         22   -1    0    0    0    0  0.00000000000E+00  0.00000000000E+00  0.71099764492E+00  0.71099764492E+00  0.00000000000E+00 0.  1.
         22   -1    0    0    0    0 -0.00000000000E+00 -0.00000000000E+00 -0.79599333051E+01  0.79599333051E+01  0.00000000000E+00 0. -1.
          4    1    1    2  501    0  0.17165677599E+01  0.15858247373E+00 -0.17350893714E+01  0.27559369373E+01  0.12700000000E+01 0.  1.
         -4    1    1    2    0  501 -0.17165677599E+01 -0.15858247373E+00 -0.55138462888E+01  0.59149940128E+01  0.12700000000E+01 0. -1.
<mgrwt>
<rscale>  0 0.21411803E+01</rscale>
<asrwt>0</asrwt>
<pdfrwt beam="1">0</pdfrwt>
<pdfrwt beam="2">0</pdfrwt>
<totfact> 0.30808131E+12</totfact>
</mgrwt>
</event>
<event>
 4    1  0.1735226E+006  0.2488486E+01  0.7546771E-02  0.2713628E+00
         22   -1    0    0    0    0  0.00000000000E+00  0.00000000000E+00  0.79009750487E+00  0.79009750487E+00  0.00000000000E+00 0.  1.
         22   -1    0    0    0    0 -0.00000000000E+00 -0.00000000000E+00 -0.10631590362E+02  0.10631590362E+02  0.00000000000E+00 0.  1.
          4    1    1    2  501    0  0.12729042207E+01 -0.17202844368E+01 -0.19931970252E+01  0.31883221418E+01  0.12700000000E+01 0.  1.
         -4    1    1    2    0  501 -0.12729042207E+01  0.17202844368E+01 -0.78482958323E+01  0.82333657255E+01  0.12700000000E+01 0.  1.
<mgrwt>
<rscale>  0 0.24884862E+01</rscale>
<asrwt>0</asrwt>
<pdfrwt beam="1">0</pdfrwt>
<pdfrwt beam="2">0</pdfrwt>
<totfact> 0.19269997E+12</totfact>
</mgrwt>
</event>
<event>
 4    1  0.1735226E+006  0.2061908E+01  0.7546771E-02  0.2940154E+00
         22   -1    0    0    0    0  0.00000000000E+00  0.00000000000E+00  0.14028748685E+02  0.14028748685E+02  0.00000000000E+00 0. -1.
         22   -1    0    0    0    0 -0.00000000000E+00 -0.00000000000E+00 -0.12702176598E+01  0.12702176598E+01  0.00000000000E+00 0. -1.
          4    1    1    2  501    0 -0.65528378058E+00  0.14863267291E+01  0.13054139577E+02  0.13215976092E+02  0.12700000000E+01 0. -1.
         -4    1    1    2    0  501  0.65528378058E+00 -0.14863267291E+01 -0.29560855118E+00  0.20829902531E+01  0.12700000000E+01 0. -1.
<mgrwt>
<rscale>  0 0.20619078E+01</rscale>
<asrwt>0</asrwt>
<pdfrwt beam="1">0</pdfrwt>
<pdfrwt beam="2">0</pdfrwt>
<totfact> 0.79875836E+11</totfact>
</mgrwt>
</event>
<event>
 4    1  0.1735226E+006  0.7303856E+01  0.7546771E-02  0.1919327E+00
         22   -1    0    0    0    0  0.00000000000E+00  0.00000000000E+00  0.26923652289E+01  0.26923652289E+01  0.00000000000E+00 0. -1.
         22   -1    0    0    0    0 -0.00000000000E+00 -0.00000000000E+00 -0.28179932699E+02  0.28179932699E+02  0.00000000000E+00 0.  1.
          4    1    1    2  501    0 -0.60931339439E+01  0.38219275515E+01 -0.43331596282E+01  0.84925016239E+01  0.12700000000E+01 0. -1.
         -4    1    1    2    0  501  0.60931339439E+01 -0.38219275515E+01 -0.21154407842E+02  0.22379796304E+02  0.12700000000E+01 0.  1.
<mgrwt>
<rscale>  0 0.73038559E+01</rscale>
<asrwt>0</asrwt>
<pdfrwt beam="1">0</pdfrwt>
<pdfrwt beam="2">0</pdfrwt>
<totfact> 0.14047464E+11</totfact>
</mgrwt>
</event>
<event>
 4    1  0.1735226E+006  0.4027429E+01  0.7546771E-02  0.2272082E+00
         22   -1    0    0    0    0  0.00000000000E+00  0.00000000000E+00  0.29342034987E+02  0.29342034987E+02  0.00000000000E+00 0.  1.
         22   -1    0    0    0    0 -0.00000000000E+00 -0.00000000000E+00 -0.97032508398E+00  0.97032508398E+00  0.00000000000E+00 0. -1.
          4    1    1    2  501    0  0.34161678355E+01  0.17137904350E+01  0.24127863324E+02  0.24461683689E+02  0.12700000000E+01 0.  1.
         -4    1    1    2    0  501 -0.34161678355E+01 -0.17137904350E+01  0.42438465786E+01  0.58506763812E+01  0.12700000000E+01 0. -1.
<mgrwt>
<rscale>  0 0.40274285E+01</rscale>
<asrwt>0</asrwt>
<pdfrwt beam="1">0</pdfrwt>
<pdfrwt beam="2">0</pdfrwt>
<totfact> 0.43267321E+11</totfact>
</mgrwt>
</event>
<event>
 4    1  0.1735226E+006  0.3544787E+01  0.7546771E-02  0.2373788E+00
         22   -1    0    0    0    0  0.00000000000E+00  0.00000000000E+00  0.19274058157E+01  0.19274058157E+01  0.00000000000E+00 0.  1.
         22   -1    0    0    0    0 -0.00000000000E+00 -0.00000000000E+00 -0.71756461400E+01  0.71756461400E+01  0.00000000000E+00 0. -1.
          4    1    1    2  501    0 -0.75172664752E+00  0.32229680624E+01 -0.12476645882E+01  0.37579493089E+01  0.12700000000E+01 0.  1.
         -4    1    1    2    0  501  0.75172664752E+00 -0.32229680624E+01 -0.40005757362E+01  0.53451026468E+01  0.12700000000E+01 0. -1.
<mgrwt>
<rscale>  0 0.35447872E+01</rscale>
<asrwt>0</asrwt>
<pdfrwt beam="1">0</pdfrwt>
<pdfrwt beam="2">0</pdfrwt>
<totfact> 0.11133070E+12</totfact>
</mgrwt>
</event>
<event>
 4    1  0.1735226E+006  0.2278541E+01  0.7546771E-02  0.2815023E+00
         22   -1    0    0    0    0  0.00000000000E+00  0.00000000000E+00  0.32790121739E+01  0.32790121739E+01  0.00000000000E+00 0.  1.
         22   -1    0    0    0    0 -0.00000000000E+00 -0.00000000000E+00 -0.16241648613E+01  0.16241648613E+01  0.00000000000E+00 0. -1.
          4    1    1    2  501    0  0.57391493188E+00 -0.18026289010E+01  0.12161667873E+01  0.25827913114E+01  0.12700000000E+01 0.  1.
         -4    1    1    2    0  501 -0.57391493188E+00  0.18026289010E+01  0.43868052534E+00  0.23203857238E+01  0.12700000000E+01 0. -1.
<mgrwt>
<rscale>  0 0.22785410E+01</rscale>
<asrwt>0</asrwt>
<pdfrwt beam="1">0</pdfrwt>
<pdfrwt beam="2">0</pdfrwt>
<totfact> 0.34267293E+12</totfact>
</mgrwt>
</event>
<event>
 4    1  0.1735226E+006  0.3537657E+01  0.7546771E-02  0.2375469E+00
         22   -1    0    0    0    0  0.00000000000E+00  0.00000000000E+00  0.76900932284E+01  0.76900932284E+01  0.00000000000E+00 0.  1.
         22   -1    0    0    0    0 -0.00000000000E+00 -0.00000000000E+00 -0.19782270234E+01  0.19782270234E+01  0.00000000000E+00 0. -1.
          4    1    1    2  501    0  0.12900598697E+01  0.30393854824E+01  0.48916460488E+01  0.60368219822E+01  0.12700000000E+01 0.  1.
         -4    1    1    2    0  501 -0.12900598697E+01 -0.30393854824E+01  0.82022015617E+00  0.36314982696E+01  0.12700000000E+01 0. -1.
<mgrwt>
<rscale>  0 0.35376572E+01</rscale>
<asrwt>0</asrwt>
<pdfrwt beam="1">0</pdfrwt>
<pdfrwt beam="2">0</pdfrwt>
<totfact> 0.99426155E+11</totfact>
</mgrwt>
</event>
<event>
 4    1  0.1735226E+006  0.2265713E+01  0.7546771E-02  0.2821793E+00
         22   -1    0    0    0    0  0.00000000000E+00  0.00000000000E+00  0.48547721041E+00  0.48547721041E+00  0.00000000000E+00 0. -1.
         22   -1    0    0    0    0 -0.00000000000E+00 -0.00000000000E+00 -0.10651418937E+02  0.10651418937E+02  0.00000000000E+00 0.  1.
          4    1    1    2  501    0  0.12964113341E+01 -0.13564192049E+01 -0.46083552463E+01  0.51352111429E+01  0.12700000000E+01 0. -1.
         -4    1    1    2    0  501 -0.12964113341E+01  0.13564192049E+01 -0.55575864802E+01  0.60016850043E+01  0.12700000000E+01 0. -1.
<mgrwt>
<rscale>  0 0.22657130E+01</rscale>
<asrwt>0</asrwt>
<pdfrwt beam="1">0</pdfrwt>
<pdfrwt beam="2">0</pdfrwt>
<totfact> 0.33382839E+12</totfact>
</mgrwt>
</event>
<event>
 4    1  0.1735226E+006  0.2882565E+01  0.7546771E-02  0.2560645E+00
         22   -1    0    0    0    0  0.00000000000E+00  0.00000000000E+00  0.78003653607E+01  0.78003653607E+01  0.00000000000E+00 0. -1.
         22   -1    0    0    0    0 -0.00000000000E+00 -0.00000000000E+00 -0.10672010798E+01  0.10672010798E+01  0.00000000000E+00 0.  1.
          4    1    1    2  501    0  0.25131411409E+01 -0.61676900088E+00  0.35571346645E+01  0.45784702048E+01  0.12700000000E+01 0.  1.
         -4    1    1    2    0  501 -0.25131411409E+01  0.61676900088E+00  0.31760296164E+01  0.42890962357E+01  0.12700000000E+01 0. -1.
<mgrwt>
<rscale>  0 0.28825652E+01</rscale>
<asrwt>0</asrwt>
<pdfrwt beam="1">0</pdfrwt>
<pdfrwt beam="2">0</pdfrwt>
<totfact> 0.19875352E+12</totfact>
</mgrwt>
</event>
<event>
 4    1  0.1735226E+006  0.2243572E+01  0.7546771E-02  0.2833652E+00
         22   -1    0    0    0    0  0.00000000000E+00  0.00000000000E+00  0.20626448998E+01  0.20626448998E+01  0.00000000000E+00 0. -1.
         22   -1    0    0    0    0 -0.00000000000E+00 -0.00000000000E+00 -0.41624591180E+01  0.41624591180E+01  0.00000000000E+00 0. -1.
          4    1    1    2  501    0  0.62987026814E+00  0.17389585746E+01  0.95211853749E+00  0.24372408966E+01  0.12700000000E+01 0. -1.
         -4    1    1    2    0  501 -0.62987026814E+00 -0.17389585746E+01 -0.30519327557E+01  0.37878631211E+01  0.12700000000E+01 0. -1.
<mgrwt>
<rscale>  0 0.22435716E+01</rscale>
<asrwt>0</asrwt>
<pdfrwt beam="1">0</pdfrwt>
<pdfrwt beam="2">0</pdfrwt>
<totfact> 0.19646949E+12</totfact>
</mgrwt>
</event>
<event>
 4    1  0.1735226E+006  0.2686292E+01  0.7546771E-02  0.2631693E+00
         22   -1    0    0    0    0  0.00000000000E+00  0.00000000000E+00  0.89776652640E-01  0.89776652640E-01  0.00000000000E+00 0. -1.
         22   -1    0    0    0    0 -0.00000000000E+00 -0.00000000000E+00 -0.92379314390E+02  0.92379314390E+02  0.00000000000E+00 0.  1.
          4    1    1    2  501    0 -0.14727637489E+01 -0.18531682822E+01 -0.29480974841E+02  0.29603108677E+02  0.12700000000E+01 0. -1.
         -4    1    1    2    0  501  0.14727637489E+01  0.18531682822E+01 -0.62808562896E+02  0.62865982366E+02  0.12700000000E+01 0.  1.
<mgrwt>
<rscale>  0 0.26862922E+01</rscale>
<asrwt>0</asrwt>
<pdfrwt beam="1">0</pdfrwt>
<pdfrwt beam="2">0</pdfrwt>
<totfact> 0.13648190E+12</totfact>
</mgrwt>
</event>
<event>
 4    1  0.1735226E+006  0.4966854E+01  0.7546771E-02  0.2126981E+00
         22   -1    0    0    0    0  0.00000000000E+00  0.00000000000E+00  0.96197829582E+00  0.96197829582E+00  0.00000000000E+00 0.  1.
         22   -1    0    0    0    0 -0.00000000000E+00 -0.00000000000E+00 -0.25666604189E+02  0.25666604189E+02  0.00000000000E+00 0. -1.
          4    1    1    2  501    0 -0.47667286734E+01  0.57882469091E+00 -0.11963317820E+02  0.12953401620E+02  0.12700000000E+01 0.  1.
         -4    1    1    2    0  501  0.47667286734E+01 -0.57882469091E+00 -0.12741308073E+02  0.13675180865E+02  0.12700000000E+01 0. -1.
<mgrwt>
<rscale>  0 0.49668542E+01</rscale>
<asrwt>0</asrwt>
<pdfrwt beam="1">0</pdfrwt>
<pdfrwt beam="2">0</pdfrwt>
<totfact> 0.51776771E+11</totfact>
</mgrwt>
</event>
<event>
 4    1  0.1735226E+006  0.4902878E+01  0.7546771E-02  0.2134778E+00
         22   -1    0    0    0    0  0.00000000000E+00  0.00000000000E+00  0.19591848716E+02  0.19591848716E+02  0.00000000000E+00 0. -1.
         22   -1    0    0    0    0 -0.00000000000E+00 -0.00000000000E+00 -0.14869713660E+01  0.14869713660E+01  0.00000000000E+00 0.  1.
          4    1    1    2  501    0 -0.38475995263E+00  0.47198809744E+01  0.13459708173E+02  0.14324872102E+02  0.12700000000E+01 0. -1.
         -4    1    1    2    0  501  0.38475995263E+00 -0.47198809744E+01  0.46451691767E+01  0.67539479798E+01  0.12700000000E+01 0.  1.
<mgrwt>
<rscale>  0 0.49028784E+01</rscale>
<asrwt>0</asrwt>
<pdfrwt beam="1">0</pdfrwt>
<pdfrwt beam="2">0</pdfrwt>
<totfact> 0.44111662E+11</totfact>
</mgrwt>
</event>
<event>
 4    1  0.1735226E+006  0.2374278E+01  0.7546771E-02  0.2766693E+00
         22   -1    0    0    0    0  0.00000000000E+00  0.00000000000E+00  0.76962309534E+00  0.76962309534E+00  0.00000000000E+00 0.  1.
         22   -1    0    0    0    0 -0.00000000000E+00 -0.00000000000E+00 -0.83998588901E+01  0.83998588901E+01  0.00000000000E+00 0. -1.
          4    1    1    2  501    0  0.15782417209E+01  0.12383258774E+01 -0.21747888330E+01  0.32197677519E+01  0.12700000000E+01 0. -1.
         -4    1    1    2    0  501 -0.15782417209E+01 -0.12383258774E+01 -0.54554469617E+01  0.59497142335E+01  0.12700000000E+01 0. -1.
<mgrwt>
<rscale>  0 0.23742784E+01</rscale>
<asrwt>0</asrwt>
<pdfrwt beam="1">0</pdfrwt>
<pdfrwt beam="2">0</pdfrwt>
<totfact> 0.26393649E+12</totfact>
</mgrwt>
</event>
<event>
 4    1  0.1735226E+006  0.2540130E+01  0.7546771E-02  0.2691098E+00
         22   -1    0    0    0    0  0.00000000000E+00  0.00000000000E+00  0.12853769730E+00  0.12853769730E+00  0.00000000000E+00 0.  1.
         22   -1    0    0    0    0 -0.00000000000E+00 -0.00000000000E+00 -0.52379071177E+02  0.52379071177E+02  0.00000000000E+00 0. -1.
          4    1    1    2  501    0  0.20831843307E+01 -0.70689600148E+00 -0.20767208259E+02  0.20921978821E+02  0.12700000000E+01 0. -1.
         -4    1    1    2    0  501 -0.20831843307E+01  0.70689600148E+00 -0.31483325221E+02  0.31585630053E+02  0.12700000000E+01 0.  1.
<mgrwt>
<rscale>  0 0.25401297E+01</rscale>
<asrwt>0</asrwt>
<pdfrwt beam="1">0</pdfrwt>
<pdfrwt beam="2">0</pdfrwt>
<totfact> 0.19807367E+12</totfact>
</mgrwt>
</event>
<event>
 4    1  0.1735226E+006  0.3048472E+01  0.7546771E-02  0.2507081E+00
         22   -1    0    0    0    0  0.00000000000E+00  0.00000000000E+00  0.36534218966E+01  0.36534218966E+01  0.00000000000E+00 0. -1.
         22   -1    0    0    0    0 -0.00000000000E+00 -0.00000000000E+00 -0.26137356595E+01  0.26137356595E+01  0.00000000000E+00 0.  1.
          4    1    1    2  501    0 -0.12963257228E+01  0.24494534580E+01  0.68730584130E-02  0.30484799263E+01  0.12700000000E+01 0.  1.
         -4    1    1    2    0  501  0.12963257228E+01 -0.24494534580E+01  0.10328131787E+01  0.32186776298E+01  0.12700000000E+01 0. -1.
<mgrwt>
<rscale>  0 0.30484722E+01</rscale>
<asrwt>0</asrwt>
<pdfrwt beam="1">0</pdfrwt>
<pdfrwt beam="2">0</pdfrwt>
<totfact> 0.17398647E+12</totfact>
</mgrwt>
</event>
<event>
 4    1  0.1735226E+006  0.2142182E+01  0.7546771E-02  0.2890945E+00
         22   -1    0    0    0    0  0.00000000000E+00  0.00000000000E+00  0.13217081492E+02  0.13217081492E+02  0.00000000000E+00 0. -1.
         22   -1    0    0    0    0 -0.00000000000E+00 -0.00000000000E+00 -0.42728542642E+00  0.42728542642E+00  0.00000000000E+00 0.  1.
          4    1    1    2  501    0  0.16964409477E+01  0.31325985067E+00  0.93484638522E+01  0.95907622230E+01  0.12700000000E+01 0. -1.
         -4    1    1    2    0  501 -0.16964409477E+01 -0.31325985067E+00  0.34413322130E+01  0.40536046950E+01  0.12700000000E+01 0.  1.
<mgrwt>
<rscale>  0 0.21421820E+01</rscale>
<asrwt>0</asrwt>
<pdfrwt beam="1">0</pdfrwt>
<pdfrwt beam="2">0</pdfrwt>
<totfact> 0.29635023E+12</totfact>
</mgrwt>
</event>
<event>
 4    1  0.1735226E+006  0.3154879E+01  0.7546771E-02  0.2475392E+00
         22   -1    0    0    0    0  0.00000000000E+00  0.00000000000E+00  0.43372659687E+02  0.43372659687E+02  0.00000000000E+00 0. -1.
         22   -1    0    0    0    0 -0.00000000000E+00 -0.00000000000E+00 -0.33816980434E+00  0.33816980434E+00  0.00000000000E+00 0.  1.
          4    1    1    2  501    0  0.55741164558E+00 -0.28336640509E+01  0.33907531645E+02  0.34053985992E+02  0.12700000000E+01 0.  1.
         -4    1    1    2    0  501 -0.55741164558E+00  0.28336640509E+01  0.91269582373E+01  0.96568434989E+01  0.12700000000E+01 0. -1.
<mgrwt>
<rscale>  0 0.31548787E+01</rscale>
<asrwt>0</asrwt>
<pdfrwt beam="1">0</pdfrwt>
<pdfrwt beam="2">0</pdfrwt>
<totfact> 0.86217002E+11</totfact>
</mgrwt>
</event>
<event>
 4    1  0.1735226E+006  0.3778936E+01  0.7546771E-02  0.2321654E+00
         22   -1    0    0    0    0  0.00000000000E+00  0.00000000000E+00  0.27121345804E+01  0.27121345804E+01  0.00000000000E+00 0. -1.
         22   -1    0    0    0    0 -0.00000000000E+00 -0.00000000000E+00 -0.78030340500E+01  0.78030340500E+01  0.00000000000E+00 0. -1.
          4    1    1    2  501    0 -0.21834066018E+01 -0.28107283993E+01  0.45283322619E+00  0.38059711578E+01  0.12700000000E+01 0. -1.
         -4    1    1    2    0  501  0.21834066018E+01  0.28107283993E+01 -0.55437326958E+01  0.67091974726E+01  0.12700000000E+01 0. -1.
<mgrwt>
<rscale>  0 0.37789362E+01</rscale>
<asrwt>0</asrwt>
<pdfrwt beam="1">0</pdfrwt>
<pdfrwt beam="2">0</pdfrwt>
<totfact> 0.67729091E+11</totfact>
</mgrwt>
</event>
<event>
 4    1  0.1735226E+006  0.2222807E+01  0.7546771E-02  0.2844977E+00
         22   -1    0    0    0    0  0.00000000000E+00  0.00000000000E+00  0.30878236284E+01  0.30878236284E+01  0.00000000000E+00 0. -1.
         22   -1    0    0    0    0 -0.00000000000E+00 -0.00000000000E+00 -0.17865887211E+01  0.17865887211E+01  0.00000000000E+00 0.  1.
          4    1    1    2  501    0 -0.18095107578E+01 -0.23160655004E+00  0.14380069139E+01  0.26474014922E+01  0.12700000000E+01 0. -1.
         -4    1    1    2    0  501  0.18095107578E+01  0.23160655004E+00 -0.13677200660E+00  0.22270108573E+01  0.12700000000E+01 0.  1.
<mgrwt>
<rscale>  0 0.22228070E+01</rscale>
<asrwt>0</asrwt>
<pdfrwt beam="1">0</pdfrwt>
<pdfrwt beam="2">0</pdfrwt>
<totfact> 0.32934178E+12</totfact>
</mgrwt>
</event>
<event>
 4    1  0.1735226E+006  0.2647854E+01  0.7546771E-02  0.2646729E+00
         22   -1    0    0    0    0  0.00000000000E+00  0.00000000000E+00  0.19400853491E+01  0.19400853491E+01  0.00000000000E+00 0.  1.
         22   -1    0    0    0    0 -0.00000000000E+00 -0.00000000000E+00 -0.27858957661E+02  0.27858957661E+02  0.00000000000E+00 0.  1.
          4    1    1    2  501    0 -0.26442626700E-01 -0.23232588691E+01  0.94015937083E+00  0.28098097138E+01  0.12700000000E+01 0.  1.
         -4    1    1    2    0  501  0.26442626700E-01  0.23232588691E+01 -0.26859031683E+02  0.26989233296E+02  0.12700000000E+01 0.  1.
<mgrwt>
<rscale>  0 0.26478540E+01</rscale>
<asrwt>0</asrwt>
<pdfrwt beam="1">0</pdfrwt>
<pdfrwt beam="2">0</pdfrwt>
<totfact> 0.20850149E+11</totfact>
</mgrwt>
</event>
<event>
 4    1  0.1735226E+006  0.2150228E+01  0.7546771E-02  0.2886209E+00
         22   -1    0    0    0    0  0.00000000000E+00  0.00000000000E+00  0.17025655791E+01  0.17025655791E+01  0.00000000000E+00 0.  1.
         22   -1    0    0    0    0 -0.00000000000E+00 -0.00000000000E+00 -0.30538427705E+01  0.30538427705E+01  0.00000000000E+00 0.  1.
          4    1    1    2  501    0  0.16257483610E+01  0.60623529898E+00  0.11584719410E+00  0.21533461272E+01  0.12700000000E+01 0.  1.
         -4    1    1    2    0  501 -0.16257483610E+01 -0.60623529898E+00 -0.14671243855E+01  0.26030622224E+01  0.12700000000E+01 0.  1.
<mgrwt>
<rscale>  0 0.21502277E+01</rscale>
<asrwt>0</asrwt>
<pdfrwt beam="1">0</pdfrwt>
<pdfrwt beam="2">0</pdfrwt>
<totfact> 0.35269799E+12</totfact>
</mgrwt>
</event>
<event>
 4    1  0.1735226E+006  0.2014864E+01  0.7546771E-02  0.2970765E+00
         22   -1    0    0    0    0  0.00000000000E+00  0.00000000000E+00  0.66342316276E+02  0.66342316276E+02  0.00000000000E+00 0. -1.
         22   -1    0    0    0    0 -0.00000000000E+00 -0.00000000000E+00 -0.66992818235E-01  0.66992818235E-01  0.00000000000E+00 0. -1.
          4    1    1    2  501    0  0.24823033470E+00 -0.15443952564E+01  0.42907736254E+02  0.42955017233E+02  0.12700000000E+01 0. -1.
         -4    1    1    2    0  501 -0.24823033470E+00  0.15443952564E+01  0.23367587203E+02  0.23454291861E+02  0.12700000000E+01 0. -1.
<mgrwt>
<rscale>  0 0.20148635E+01</rscale>
<asrwt>0</asrwt>
<pdfrwt beam="1">0</pdfrwt>
<pdfrwt beam="2">0</pdfrwt>
<totfact> 0.29692609E+12</totfact>
</mgrwt>
</event>
<event>
 4    1  0.1735226E+006  0.2065990E+01  0.7546771E-02  0.2937562E+00
         22   -1    0    0    0    0  0.00000000000E+00  0.00000000000E+00  0.11242107440E+01  0.11242107440E+01  0.00000000000E+00 0.  1.
         22   -1    0    0    0    0 -0.00000000000E+00 -0.00000000000E+00 -0.43636031963E+01  0.43636031963E+01  0.00000000000E+00 0.  1.
          4    1    1    2  501    0 -0.11758661943E+01 -0.11281632414E+01 -0.63070261906E+00  0.21601155987E+01  0.12700000000E+01 0.  1.
         -4    1    1    2    0  501  0.11758661943E+01  0.11281632414E+01 -0.26086898333E+01  0.33276983416E+01  0.12700000000E+01 0.  1.
<mgrwt>
<rscale>  0 0.20659897E+01</rscale>
<asrwt>0</asrwt>
<pdfrwt beam="1">0</pdfrwt>
<pdfrwt beam="2">0</pdfrwt>
<totfact> 0.37369413E+12</totfact>
</mgrwt>
</event>
<event>
 4    1  0.1735226E+006  0.2033134E+01  0.7546771E-02  0.2958712E+00
         22   -1    0    0    0    0  0.00000000000E+00  0.00000000000E+00  0.16111838315E+02  0.16111838315E+02  0.00000000000E+00 0. -1.
         22   -1    0    0    0    0 -0.00000000000E+00 -0.00000000000E+00 -0.14818814256E+01  0.14818814256E+01  0.00000000000E+00 0.  1.
          4    1    1    2  501    0  0.68183020094E+00 -0.14338209470E+01  0.15314171195E+02  0.15448542790E+02  0.12700000000E+01 0. -1.
         -4    1    1    2    0  501 -0.68183020094E+00  0.14338209470E+01 -0.68421430641E+00  0.21451769503E+01  0.12700000000E+01 0.  1.
<mgrwt>
<rscale>  0 0.20331343E+01</rscale>
<asrwt>0</asrwt>
<pdfrwt beam="1">0</pdfrwt>
<pdfrwt beam="2">0</pdfrwt>
<totfact> 0.56431895E+11</totfact>
</mgrwt>
</event>
<event>
 4    1  0.1735226E+006  0.2682128E+01  0.7546771E-02  0.2633302E+00
         22   -1    0    0    0    0  0.00000000000E+00  0.00000000000E+00  0.10051135476E+01  0.10051135476E+01  0.00000000000E+00 0.  1.
         22   -1    0    0    0    0 -0.00000000000E+00 -0.00000000000E+00 -0.84308721353E+01  0.84308721353E+01  0.00000000000E+00 0. -1.
          4    1    1    2  501    0 -0.11826349663E+01  0.20450636821E+01 -0.18790970082E+01  0.32748765616E+01  0.12700000000E+01 0.  1.
         -4    1    1    2    0  501  0.11826349663E+01 -0.20450636821E+01 -0.55466615795E+01  0.61611091213E+01  0.12700000000E+01 0. -1.
<mgrwt>
<rscale>  0 0.26821281E+01</rscale>
<asrwt>0</asrwt>
<pdfrwt beam="1">0</pdfrwt>
<pdfrwt beam="2">0</pdfrwt>
<totfact> 0.19385674E+12</totfact>
</mgrwt>
</event>
<event>
 4    1  0.1735226E+006  0.2067843E+01  0.7546771E-02  0.2936389E+00
         22   -1    0    0    0    0  0.00000000000E+00  0.00000000000E+00  0.38627433997E+00  0.38627433997E+00  0.00000000000E+00 0. -1.
         22   -1    0    0    0    0 -0.00000000000E+00 -0.00000000000E+00 -0.17079417633E+02  0.17079417633E+02  0.00000000000E+00 0.  1.
          4    1    1    2  501    0  0.47128661152E+00 -0.15623582136E+01 -0.31664113354E+01  0.37818163629E+01  0.12700000000E+01 0. -1.
         -4    1    1    2    0  501 -0.47128661152E+00  0.15623582136E+01 -0.13526731957E+02  0.13683875610E+02  0.12700000000E+01 0.  1.
<mgrwt>
<rscale>  0 0.20678429E+01</rscale>
<asrwt>0</asrwt>
<pdfrwt beam="1">0</pdfrwt>
<pdfrwt beam="2">0</pdfrwt>
<totfact> 0.24215989E+12</totfact>
</mgrwt>
</event>
<event>
 4    1  0.1735226E+006  0.2066201E+01  0.7546771E-02  0.2937428E+00
         22   -1    0    0    0    0  0.00000000000E+00  0.00000000000E+00  0.36966205761E+01  0.36966205761E+01  0.00000000000E+00 0.  1.
         22   -1    0    0    0    0 -0.00000000000E+00 -0.00000000000E+00 -0.20736547788E+01  0.20736547788E+01  0.00000000000E+00 0. -1.
          4    1    1    2  501    0 -0.10390373464E+01  0.12556619797E+01  0.27319230265E+01  0.34252867088E+01  0.12700000000E+01 0.  1.
         -4    1    1    2    0  501  0.10390373464E+01 -0.12556619797E+01 -0.11089572292E+01  0.23449886462E+01  0.12700000000E+01 0. -1.
<mgrwt>
<rscale>  0 0.20662008E+01</rscale>
<asrwt>0</asrwt>
<pdfrwt beam="1">0</pdfrwt>
<pdfrwt beam="2">0</pdfrwt>
<totfact> 0.22450360E+12</totfact>
</mgrwt>
</event>
<event>
 4    1  0.1735226E+006  0.2642156E+01  0.7546771E-02  0.2648993E+00
         22   -1    0    0    0    0  0.00000000000E+00  0.00000000000E+00  0.10457158697E+02  0.10457158697E+02  0.00000000000E+00 0.  1.
         22   -1    0    0    0    0 -0.00000000000E+00 -0.00000000000E+00 -0.88174221934E+00  0.88174221934E+00  0.00000000000E+00 0. -1.
          4    1    1    2  501    0  0.22872319183E+01 -0.36967273640E+00  0.75818072489E+01  0.80289967580E+01  0.12700000000E+01 0.  1.
         -4    1    1    2    0  501 -0.22872319183E+01  0.36967273640E+00  0.19936092287E+01  0.33099041583E+01  0.12700000000E+01 0. -1.
<mgrwt>
<rscale>  0 0.26421559E+01</rscale>
<asrwt>0</asrwt>
<pdfrwt beam="1">0</pdfrwt>
<pdfrwt beam="2">0</pdfrwt>
<totfact> 0.17351833E+12</totfact>
</mgrwt>
</event>
<event>
 4    1  0.1735226E+006  0.2774224E+01  0.7546771E-02  0.2598732E+00
         22   -1    0    0    0    0  0.00000000000E+00  0.00000000000E+00  0.11700325590E+01  0.11700325590E+01  0.00000000000E+00 0. -1.
         22   -1    0    0    0    0 -0.00000000000E+00 -0.00000000000E+00 -0.66487286198E+01  0.66487286198E+01  0.00000000000E+00 0.  1.
          4    1    1    2  501    0  0.12488682254E+01  0.21269096738E+01 -0.23357497531E+01  0.36265746254E+01  0.12700000000E+01 0.  1.
         -4    1    1    2    0  501 -0.12488682254E+01 -0.21269096738E+01 -0.31429463077E+01  0.41921865533E+01  0.12700000000E+01 0.  1.
<mgrwt>
<rscale>  0 0.27742236E+01</rscale>
<asrwt>0</asrwt>
<pdfrwt beam="1">0</pdfrwt>
<pdfrwt beam="2">0</pdfrwt>
<totfact> 0.21660111E+12</totfact>
</mgrwt>
</event>
<event>
 4    1  0.1735226E+006  0.6546562E+01  0.7546771E-02  0.1973881E+00
         22   -1    0    0    0    0  0.00000000000E+00  0.00000000000E+00  0.10654792223E+01  0.10654792223E+01  0.00000000000E+00 0. -1.
         22   -1    0    0    0    0 -0.00000000000E+00 -0.00000000000E+00 -0.47208480527E+02  0.47208480527E+02  0.00000000000E+00 0.  1.
          4    1    1    2  501    0 -0.60910009464E+01 -0.20357497538E+01 -0.13787168462E+02  0.15262486160E+02  0.12700000000E+01 0. -1.
         -4    1    1    2    0  501  0.60910009464E+01  0.20357497538E+01 -0.32355832842E+02  0.33011473589E+02  0.12700000000E+01 0.  1.
<mgrwt>
<rscale>  0 0.65465617E+01</rscale>
<asrwt>0</asrwt>
<pdfrwt beam="1">0</pdfrwt>
<pdfrwt beam="2">0</pdfrwt>
<totfact> 0.21033144E+11</totfact>
</mgrwt>
</event>
<event>
 4    1  0.1735226E+006  0.2408176E+01  0.7546771E-02  0.2750451E+00
         22   -1    0    0    0    0  0.00000000000E+00  0.00000000000E+00  0.57237341149E+02  0.57237341149E+02  0.00000000000E+00 0. -1.
         22   -1    0    0    0    0 -0.00000000000E+00 -0.00000000000E+00 -0.53456798241E+00  0.53456798241E+00  0.00000000000E+00 0.  1.
          4    1    1    2  501    0 -0.86172211340E+00  0.18557604745E+01  0.54356174231E+02  0.54409493556E+02  0.12700000000E+01 0. -1.
         -4    1    1    2    0  501  0.86172211340E+00 -0.18557604745E+01  0.23465989351E+01  0.33624155754E+01  0.12700000000E+01 0.  1.
<mgrwt>
<rscale>  0 0.24081761E+01</rscale>
<asrwt>0</asrwt>
<pdfrwt beam="1">0</pdfrwt>
<pdfrwt beam="2">0</pdfrwt>
<totfact> 0.35699686E+11</totfact>
</mgrwt>
</event>
<event>
 4    1  0.1735226E+006  0.2299412E+01  0.7546771E-02  0.2804162E+00
         22   -1    0    0    0    0  0.00000000000E+00  0.00000000000E+00  0.11618901008E+01  0.11618901008E+01  0.00000000000E+00 0.  1.
         22   -1    0    0    0    0 -0.00000000000E+00 -0.00000000000E+00 -0.13986672726E+02  0.13986672726E+02  0.00000000000E+00 0.  1.
          4    1    1    2  501    0 -0.32982279860E-02 -0.19168690328E+01 -0.19110975598E+00  0.23073406133E+01  0.12700000000E+01 0.  1.
         -4    1    1    2    0  501  0.32982279860E-02  0.19168690328E+01 -0.12633672869E+02  0.12841222213E+02  0.12700000000E+01 0.  1.
<mgrwt>
<rscale>  0 0.22994125E+01</rscale>
<asrwt>0</asrwt>
<pdfrwt beam="1">0</pdfrwt>
<pdfrwt beam="2">0</pdfrwt>
<totfact> 0.88798748E+11</totfact>
</mgrwt>
</event>
<event>
 4    1  0.1735226E+006  0.6022743E+01  0.7546771E-02  0.2017654E+00
         22   -1    0    0    0    0  0.00000000000E+00  0.00000000000E+00  0.67124387069E+01  0.67124387069E+01  0.00000000000E+00 0.  1.
         22   -1    0    0    0    0 -0.00000000000E+00 -0.00000000000E+00 -0.86322434871E+01  0.86322434871E+01  0.00000000000E+00 0. -1.
          4    1    1    2  501    0  0.15586454503E+01 -0.56772490456E+01  0.37320660209E+01  0.70853192695E+01  0.12700000000E+01 0.  1.
         -4    1    1    2    0  501 -0.15586454503E+01  0.56772490456E+01 -0.56518708012E+01  0.82593629245E+01  0.12700000000E+01 0. -1.
<mgrwt>
<rscale>  0 0.60227429E+01</rscale>
<asrwt>0</asrwt>
<pdfrwt beam="1">0</pdfrwt>
<pdfrwt beam="2">0</pdfrwt>
<totfact> 0.20603885E+11</totfact>
</mgrwt>
</event>
<event>
 4    1  0.1735226E+006  0.2345709E+01  0.7546771E-02  0.2780725E+00
         22   -1    0    0    0    0  0.00000000000E+00  0.00000000000E+00  0.86759104350E+02  0.86759104350E+02  0.00000000000E+00 0.  1.
         22   -1    0    0    0    0 -0.00000000000E+00 -0.00000000000E+00 -0.88448527832E-01  0.88448527832E-01  0.00000000000E+00 0. -1.
          4    1    1    2  501    0 -0.12186805991E+01  0.15505700980E+01  0.66434221318E+02  0.66475620435E+02  0.12700000000E+01 0.  1.
         -4    1    1    2    0  501  0.12186805991E+01 -0.15505700980E+01  0.20236434504E+02  0.20371932443E+02  0.12700000000E+01 0. -1.
<mgrwt>
<rscale>  0 0.23457089E+01</rscale>
<asrwt>0</asrwt>
<pdfrwt beam="1">0</pdfrwt>
<pdfrwt beam="2">0</pdfrwt>
<totfact> 0.15139977E+12</totfact>
</mgrwt>
</event>
<event>
 4    1  0.1735226E+006  0.3303536E+01  0.7546771E-02  0.2434169E+00
         22   -1    0    0    0    0  0.00000000000E+00  0.00000000000E+00  0.11441729370E+01  0.11441729370E+01  0.00000000000E+00 0.  1.
         22   -1    0    0    0    0 -0.00000000000E+00 -0.00000000000E+00 -0.15091523817E+02  0.15091523817E+02  0.00000000000E+00 0. -1.
          4    1    1    2  501    0 -0.23438458649E+01  0.19511117600E+01 -0.20493031379E+01  0.38875434260E+01  0.12700000000E+01 0.  1.
         -4    1    1    2    0  501  0.23438458649E+01 -0.19511117600E+01 -0.11898047743E+02  0.12348153328E+02  0.12700000000E+01 0. -1.
<mgrwt>
<rscale>  0 0.33035361E+01</rscale>
<asrwt>0</asrwt>
<pdfrwt beam="1">0</pdfrwt>
<pdfrwt beam="2">0</pdfrwt>
<totfact> 0.82317450E+11</totfact>
</mgrwt>
</event>
<event>
 4    1  0.1735226E+006  0.2630180E+01  0.7546771E-02  0.2653779E+00
         22   -1    0    0    0    0  0.00000000000E+00  0.00000000000E+00  0.77702259585E+01  0.77702259585E+01  0.00000000000E+00 0.  1.
         22   -1    0    0    0    0 -0.00000000000E+00 -0.00000000000E+00 -0.94778043854E+00  0.94778043854E+00  0.00000000000E+00 0.  1.
          4    1    1    2  501    0 -0.18588126133E+01  0.13600606184E+01  0.44846807823E+01  0.51990586586E+01  0.12700000000E+01 0.  1.
         -4    1    1    2    0  501  0.18588126133E+01 -0.13600606184E+01  0.23377647377E+01  0.35189477385E+01  0.12700000000E+01 0.  1.
<mgrwt>
<rscale>  0 0.26301805E+01</rscale>
<asrwt>0</asrwt>
<pdfrwt beam="1">0</pdfrwt>
<pdfrwt beam="2">0</pdfrwt>
<totfact> 0.22865969E+12</totfact>
</mgrwt>
</event>
<event>
 4    1  0.1735226E+006  0.2321314E+01  0.7546771E-02  0.2792964E+00
         22   -1    0    0    0    0  0.00000000000E+00  0.00000000000E+00  0.87262695333E-01  0.87262695333E-01  0.00000000000E+00 0.  1.
         22   -1    0    0    0    0 -0.00000000000E+00 -0.00000000000E+00 -0.70249152751E+02  0.70249152751E+02  0.00000000000E+00 0. -1.
          4    1    1    2  501    0 -0.98684972587E+00  0.16738357705E+01 -0.22848604458E+02  0.22966219198E+02  0.12700000000E+01 0.  1.
         -4    1    1    2    0  501  0.98684972587E+00 -0.16738357705E+01 -0.47313285598E+02  0.47370196248E+02  0.12700000000E+01 0. -1.
<mgrwt>
<rscale>  0 0.23213140E+01</rscale>
<asrwt>0</asrwt>
<pdfrwt beam="1">0</pdfrwt>
<pdfrwt beam="2">0</pdfrwt>
<totfact> 0.20526117E+12</totfact>
</mgrwt>
</event>
<event>
 4    1  0.1735226E+006  0.2123555E+01  0.7546771E-02  0.2902042E+00
         22   -1    0    0    0    0  0.00000000000E+00  0.00000000000E+00  0.29745967442E+02  0.29745967442E+02  0.00000000000E+00 0.  1.
         22   -1    0    0    0    0 -0.00000000000E+00 -0.00000000000E+00 -0.27408751389E+00  0.27408751389E+00  0.00000000000E+00 0.  1.
          4    1    1    2  501    0 -0.90687714484E+00  0.14401941098E+01  0.24770145118E+02  0.24861005096E+02  0.12700000000E+01 0.  1.
         -4    1    1    2    0  501  0.90687714484E+00 -0.14401941098E+01  0.47017348104E+01  0.51590498600E+01  0.12700000000E+01 0.  1.
<mgrwt>
<rscale>  0 0.21235549E+01</rscale>
<asrwt>0</asrwt>
<pdfrwt beam="1">0</pdfrwt>
<pdfrwt beam="2">0</pdfrwt>
<totfact> 0.17741324E+12</totfact>
</mgrwt>
</event>
<event>
 4    1  0.1735226E+006  0.4911332E+01  0.7546771E-02  0.2133738E+00
         22   -1    0    0    0    0  0.00000000000E+00  0.00000000000E+00  0.22667642237E+02  0.22667642237E+02  0.00000000000E+00 0.  1.
         22   -1    0    0    0    0 -0.00000000000E+00 -0.00000000000E+00 -0.50437415128E+01  0.50437415128E+01  0.00000000000E+00 0. -1.
          4    1    1    2  501    0  0.61563409437E+00 -0.47041769935E+01  0.21119524551E+02  0.21683069519E+02  0.12700000000E+01 0.  1.
         -4    1    1    2    0  501 -0.61563409437E+00  0.47041769935E+01 -0.34956238266E+01  0.60283142305E+01  0.12700000000E+01 0. -1.
<mgrwt>
<rscale>  0 0.49113325E+01</rscale>
<asrwt>0</asrwt>
<pdfrwt beam="1">0</pdfrwt>
<pdfrwt beam="2">0</pdfrwt>
<totfact> 0.88461596E+10</totfact>
</mgrwt>
</event>
<event>
 4    1  0.1735226E+006  0.2186562E+01  0.7546771E-02  0.2865239E+00
         22   -1    0    0    0    0  0.00000000000E+00  0.00000000000E+00  0.68905574843E+01  0.68905574843E+01  0.00000000000E+00 0. -1.
         22   -1    0    0    0    0 -0.00000000000E+00 -0.00000000000E+00 -0.11055446154E+01  0.11055446154E+01  0.00000000000E+00 0.  1.
          4    1    1    2  501    0 -0.36154861804E-01  0.17795638268E+01  0.53322525327E+01  0.57631563973E+01  0.12700000000E+01 0. -1.
         -4    1    1    2    0  501  0.36154861804E-01 -0.17795638268E+01  0.45276033622E+00  0.22329457023E+01  0.12700000000E+01 0.  1.
<mgrwt>
<rscale>  0 0.21865623E+01</rscale>
<asrwt>0</asrwt>
<pdfrwt beam="1">0</pdfrwt>
<pdfrwt beam="2">0</pdfrwt>
<totfact> 0.22145150E+12</totfact>
</mgrwt>
</event>
<event>
 4    1  0.1735226E+006  0.2162488E+01  0.7546771E-02  0.2879057E+00
         22   -1    0    0    0    0  0.00000000000E+00  0.00000000000E+00  0.72056802661E+00  0.72056802661E+00  0.00000000000E+00 0.  1.
         22   -1    0    0    0    0 -0.00000000000E+00 -0.00000000000E+00 -0.71028288461E+01  0.71028288461E+01  0.00000000000E+00 0. -1.
          4    1    1    2  501    0 -0.14217703912E+01 -0.10207947391E+01 -0.20419586285E+01  0.29742138432E+01  0.12700000000E+01 0.  1.
         -4    1    1    2    0  501  0.14217703912E+01  0.10207947391E+01 -0.43403021910E+01  0.48491830295E+01  0.12700000000E+01 0.  1.
<mgrwt>
<rscale>  0 0.21624877E+01</rscale>
<asrwt>0</asrwt>
<pdfrwt beam="1">0</pdfrwt>
<pdfrwt beam="2">0</pdfrwt>
<totfact> 0.34785285E+12</totfact>
</mgrwt>
</event>
<event>
 4    1  0.1735226E+006  0.3677914E+01  0.7546771E-02  0.2343442E+00
         22   -1    0    0    0    0  0.00000000000E+00  0.00000000000E+00  0.23058035570E+01  0.23058035570E+01  0.00000000000E+00 0.  1.
         22   -1    0    0    0    0 -0.00000000000E+00 -0.00000000000E+00 -0.64255905338E+01  0.64255905338E+01  0.00000000000E+00 0. -1.
          4    1    1    2  501    0  0.40746470818E+00  0.34275540092E+01 -0.77215264378E+00  0.37580944213E+01  0.12700000000E+01 0.  1.
         -4    1    1    2    0  501 -0.40746470818E+00 -0.34275540092E+01 -0.33476343330E+01  0.49732996694E+01  0.12700000000E+01 0. -1.
<mgrwt>
<rscale>  0 0.36779144E+01</rscale>
<asrwt>0</asrwt>
<pdfrwt beam="1">0</pdfrwt>
<pdfrwt beam="2">0</pdfrwt>
<totfact> 0.10320541E+12</totfact>
</mgrwt>
</event>
<event>
 4    1  0.1735226E+006  0.2414088E+01  0.7546771E-02  0.2747662E+00
         22   -1    0    0    0    0  0.00000000000E+00  0.00000000000E+00  0.50592575673E+01  0.50592575673E+01  0.00000000000E+00 0. -1.
         22   -1    0    0    0    0 -0.00000000000E+00 -0.00000000000E+00 -0.12315010659E+01  0.12315010659E+01  0.00000000000E+00 0.  1.
          4    1    1    2  501    0 -0.20529327033E+01 -0.19754478179E-01  0.27134924354E+01  0.36319229232E+01  0.12700000000E+01 0.  1.
         -4    1    1    2    0  501  0.20529327033E+01  0.19754478179E-01  0.11142640661E+01  0.26588357099E+01  0.12700000000E+01 0. -1.
<mgrwt>
<rscale>  0 0.24140884E+01</rscale>
<asrwt>0</asrwt>
<pdfrwt beam="1">0</pdfrwt>
<pdfrwt beam="2">0</pdfrwt>
<totfact> 0.28266697E+12</totfact>
</mgrwt>
</event>
<event>
 4    1  0.1735226E+006  0.3761407E+01  0.7546771E-02  0.2325362E+00
         22   -1    0    0    0    0  0.00000000000E+00  0.00000000000E+00  0.97112020589E+01  0.97112020589E+01  0.00000000000E+00 0. -1.
         22   -1    0    0    0    0 -0.00000000000E+00 -0.00000000000E+00 -0.15465348996E+01  0.15465348996E+01  0.00000000000E+00 0.  1.
          4    1    1    2  501    0  0.89380285435E+00 -0.34258425372E+01  0.54375141953E+01  0.66117124299E+01  0.12700000000E+01 0. -1.
         -4    1    1    2    0  501 -0.89380285435E+00  0.34258425372E+01  0.27271529640E+01  0.46460245287E+01  0.12700000000E+01 0.  1.
<mgrwt>
<rscale>  0 0.37614067E+01</rscale>
<asrwt>0</asrwt>
<pdfrwt beam="1">0</pdfrwt>
<pdfrwt beam="2">0</pdfrwt>
<totfact> 0.99730066E+11</totfact>
</mgrwt>
</event>
<event>
 4    1  0.1735226E+006  0.2598082E+01  0.7546771E-02  0.2666807E+00
         22   -1    0    0    0    0  0.00000000000E+00  0.00000000000E+00  0.18341367586E+02  0.18341367586E+02  0.00000000000E+00 0.  1.
         22   -1    0    0    0    0 -0.00000000000E+00 -0.00000000000E+00 -0.51858542862E+00  0.51858542862E+00  0.00000000000E+00 0.  1.
          4    1    1    2  501    0 -0.98980108203E+00 -0.20389759490E+01  0.13992517744E+02  0.14231675303E+02  0.12700000000E+01 0.  1.
         -4    1    1    2    0  501  0.98980108203E+00  0.20389759490E+01  0.38302644130E+01  0.46282777116E+01  0.12700000000E+01 0.  1.
<mgrwt>
<rscale>  0 0.25980818E+01</rscale>
<asrwt>0</asrwt>
<pdfrwt beam="1">0</pdfrwt>
<pdfrwt beam="2">0</pdfrwt>
<totfact> 0.15904956E+12</totfact>
</mgrwt>
</event>
<event>
 4    1  0.1735226E+006  0.2278867E+01  0.7546771E-02  0.2814852E+00
         22   -1    0    0    0    0  0.00000000000E+00  0.00000000000E+00  0.20993949459E+00  0.20993949459E+00  0.00000000000E+00 0.  1.
         22   -1    0    0    0    0 -0.00000000000E+00 -0.00000000000E+00 -0.26653611402E+02  0.26653611402E+02  0.00000000000E+00 0. -1.
          4    1    1    2  501    0  0.17089755661E+01  0.81224279767E+00 -0.16823826962E+02  0.16977467110E+02  0.12700000000E+01 0. -1.
         -4    1    1    2    0  501 -0.17089755661E+01 -0.81224279767E+00 -0.96198449459E+01  0.98860837863E+01  0.12700000000E+01 0.  1.
<mgrwt>
<rscale>  0 0.22788672E+01</rscale>
<asrwt>0</asrwt>
<pdfrwt beam="1">0</pdfrwt>
<pdfrwt beam="2">0</pdfrwt>
<totfact> 0.27478826E+12</totfact>
</mgrwt>
</event>
<event>
 4    1  0.1735226E+006  0.2917350E+01  0.7546771E-02  0.2548961E+00
         22   -1    0    0    0    0  0.00000000000E+00  0.00000000000E+00  0.30549969071E+01  0.30549969071E+01  0.00000000000E+00 0.  1.
         22   -1    0    0    0    0 -0.00000000000E+00 -0.00000000000E+00 -0.29786723471E+01  0.29786723471E+01  0.00000000000E+00 0. -1.
          4    1    1    2  501    0 -0.57282059932E+00 -0.25631827166E+01  0.80562562107E+00  0.30265428659E+01  0.12700000000E+01 0.  1.
         -4    1    1    2    0  501  0.57282059932E+00  0.25631827166E+01 -0.72930106099E+00  0.30071263883E+01  0.12700000000E+01 0. -1.
<mgrwt>
<rscale>  0 0.29173497E+01</rscale>
<asrwt>0</asrwt>
<pdfrwt beam="1">0</pdfrwt>
<pdfrwt beam="2">0</pdfrwt>
<totfact> 0.18421234E+12</totfact>
</mgrwt>
</event>
<event>
 4    1  0.1735226E+006  0.2968067E+01  0.7546771E-02  0.2532368E+00
         22   -1    0    0    0    0  0.00000000000E+00  0.00000000000E+00  0.43868102064E+02  0.43868102064E+02  0.00000000000E+00 0.  1.
         22   -1    0    0    0    0 -0.00000000000E+00 -0.00000000000E+00 -0.98160462109E+00  0.98160462109E+00  0.00000000000E+00 0.  1.
          4    1    1    2  501    0 -0.23802691083E+01 -0.12372718441E+01  0.41443157505E+02  0.41549304767E+02  0.12700000000E+01 0.  1.
         -4    1    1    2    0  501  0.23802691083E+01  0.12372718441E+01  0.14433399380E+01  0.33004019181E+01  0.12700000000E+01 0.  1.
<mgrwt>
<rscale>  0 0.29680672E+01</rscale>
<asrwt>0</asrwt>
<pdfrwt beam="1">0</pdfrwt>
<pdfrwt beam="2">0</pdfrwt>
<totfact> 0.25428430E+11</totfact>
</mgrwt>
</event>
<event>
 4    1  0.1735226E+006  0.2433105E+01  0.7546771E-02  0.2738777E+00
         22   -1    0    0    0    0  0.00000000000E+00  0.00000000000E+00  0.46223761447E+01  0.46223761447E+01  0.00000000000E+00 0.  1.
         22   -1    0    0    0    0 -0.00000000000E+00 -0.00000000000E+00 -0.25316276848E+01  0.25316276848E+01  0.00000000000E+00 0.  1.
          4    1    1    2  501    0 -0.15507043111E+01 -0.13792811547E+01  0.35597531588E+01  0.43118259375E+01  0.12700000000E+01 0.  1.
         -4    1    1    2    0  501  0.15507043111E+01  0.13792811547E+01 -0.14690046988E+01  0.28421778919E+01  0.12700000000E+01 0.  1.
<mgrwt>
<rscale>  0 0.24331051E+01</rscale>
<asrwt>0</asrwt>
<pdfrwt beam="1">0</pdfrwt>
<pdfrwt beam="2">0</pdfrwt>
<totfact> 0.13687563E+12</totfact>
</mgrwt>
</event>
<event>
 4    1  0.1735226E+006  0.2033854E+01  0.7546771E-02  0.2958241E+00
         22   -1    0    0    0    0  0.00000000000E+00  0.00000000000E+00  0.19155761005E+02  0.19155761005E+02  0.00000000000E+00 0.  1.
         22   -1    0    0    0    0 -0.00000000000E+00 -0.00000000000E+00 -0.21671130949E+00  0.21671130949E+00  0.00000000000E+00 0. -1.
          4    1    1    2  501    0  0.12148921054E+01  0.10235717988E+01  0.88929690809E+01  0.91225797409E+01  0.12700000000E+01 0.  1.
         -4    1    1    2    0  501 -0.12148921054E+01 -0.10235717988E+01  0.10046080614E+02  0.10249892573E+02  0.12700000000E+01 0. -1.
<mgrwt>
<rscale>  0 0.20338540E+01</rscale>
<asrwt>0</asrwt>
<pdfrwt beam="1">0</pdfrwt>
<pdfrwt beam="2">0</pdfrwt>
<totfact> 0.40140913E+12</totfact>
</mgrwt>
</event>
<event>
 4    1  0.1735226E+006  0.2345956E+01  0.7546771E-02  0.2780602E+00
         22   -1    0    0    0    0  0.00000000000E+00  0.00000000000E+00  0.14088144769E+02  0.14088144769E+02  0.00000000000E+00 0.  1.
         22   -1    0    0    0    0 -0.00000000000E+00 -0.00000000000E+00 -0.41863040095E+00  0.41863040095E+00  0.00000000000E+00 0.  1.
          4    1    1    2  501    0  0.13142620419E+01 -0.14708240360E+01  0.49594750191E+01  0.54863376240E+01  0.12700000000E+01 0.  1.
         -4    1    1    2    0  501 -0.13142620419E+01  0.14708240360E+01  0.87100393494E+01  0.90204375464E+01  0.12700000000E+01 0.  1.
<mgrwt>
<rscale>  0 0.23459557E+01</rscale>
<asrwt>0</asrwt>
<pdfrwt beam="1">0</pdfrwt>
<pdfrwt beam="2">0</pdfrwt>
<totfact> 0.28045255E+12</totfact>
</mgrwt>
</event>
<event>
 4    1  0.1735226E+006  0.3240849E+01  0.7546771E-02  0.2451145E+00
         22   -1    0    0    0    0  0.00000000000E+00  0.00000000000E+00  0.34008760122E+02  0.34008760122E+02  0.00000000000E+00 0. -1.
         22   -1    0    0    0    0 -0.00000000000E+00 -0.00000000000E+00 -0.59520519266E+00  0.59520519266E+00  0.00000000000E+00 0.  1.
          4    1    1    2  501    0 -0.29564883944E+01  0.38649124283E+00  0.28708023537E+02  0.28890374080E+02  0.12700000000E+01 0. -1.
         -4    1    1    2    0  501  0.29564883944E+01 -0.38649124283E+00  0.47055313920E+01  0.57135912339E+01  0.12700000000E+01 0.  1.
<mgrwt>
<rscale>  0 0.32408485E+01</rscale>
<asrwt>0</asrwt>
<pdfrwt beam="1">0</pdfrwt>
<pdfrwt beam="2">0</pdfrwt>
<totfact> 0.62441798E+11</totfact>
</mgrwt>
</event>
<event>
 4    1  0.1735226E+006  0.2063606E+01  0.7546771E-02  0.2939074E+00
         22   -1    0    0    0    0  0.00000000000E+00  0.00000000000E+00  0.27843482127E+00  0.27843482127E+00  0.00000000000E+00 0.  1.
         22   -1    0    0    0    0 -0.00000000000E+00 -0.00000000000E+00 -0.28583425926E+02  0.28583425926E+02  0.00000000000E+00 0.  1.
          4    1    1    2  501    0 -0.14708302521E+01  0.69442694954E+00 -0.43127215998E+01  0.47810080544E+01  0.12700000000E+01 0.  1.
         -4    1    1    2    0  501  0.14708302521E+01 -0.69442694954E+00 -0.23992269505E+02  0.24080852692E+02  0.12700000000E+01 0.  1.
<mgrwt>
<rscale>  0 0.20636062E+01</rscale>
<asrwt>0</asrwt>
<pdfrwt beam="1">0</pdfrwt>
<pdfrwt beam="2">0</pdfrwt>
<totfact> 0.18337947E+12</totfact>
</mgrwt>
</event>
<event>
 4    1  0.1735226E+006  0.3394612E+01  0.7546771E-02  0.2410492E+00
         22   -1    0    0    0    0  0.00000000000E+00  0.00000000000E+00  0.67002380508E+01  0.67002380508E+01  0.00000000000E+00 0.  1.
         22   -1    0    0    0    0 -0.00000000000E+00 -0.00000000000E+00 -0.17219541329E+01  0.17219541329E+01  0.00000000000E+00 0. -1.
          4    1    1    2  501    0  0.74313994218E+00  0.30591225738E+01  0.26364326148E+01  0.42981583065E+01  0.12700000000E+01 0. -1.
         -4    1    1    2    0  501 -0.74313994218E+00 -0.30591225738E+01  0.23418513031E+01  0.41240338773E+01  0.12700000000E+01 0.  1.
<mgrwt>
<rscale>  0 0.33946116E+01</rscale>
<asrwt>0</asrwt>
<pdfrwt beam="1">0</pdfrwt>
<pdfrwt beam="2">0</pdfrwt>
<totfact> 0.13764533E+12</totfact>
</mgrwt>
</event>
<event>
 4    1  0.1735226E+006  0.2223697E+01  0.7546771E-02  0.2844488E+00
         22   -1    0    0    0    0  0.00000000000E+00  0.00000000000E+00  0.46561528129E+02  0.46561528129E+02  0.00000000000E+00 0.  1.
         22   -1    0    0    0    0 -0.00000000000E+00 -0.00000000000E+00 -0.14230690754E+00  0.14230690754E+00  0.00000000000E+00 0. -1.
          4    1    1    2  501    0 -0.17986124232E+01  0.31132301610E+00  0.34972267526E+02  0.35042892640E+02  0.12700000000E+01 0.  1.
         -4    1    1    2    0  501  0.17986124232E+01 -0.31132301610E+00  0.11446953696E+02  0.11660942397E+02  0.12700000000E+01 0. -1.
<mgrwt>
<rscale>  0 0.22236971E+01</rscale>
<asrwt>0</asrwt>
<pdfrwt beam="1">0</pdfrwt>
<pdfrwt beam="2">0</pdfrwt>
<totfact> 0.20658550E+12</totfact>
</mgrwt>
</event>
<event>
 4    1  0.1735226E+006  0.2844478E+01  0.7546771E-02  0.2573735E+00
         22   -1    0    0    0    0  0.00000000000E+00  0.00000000000E+00  0.32254886563E+01  0.32254886563E+01  0.00000000000E+00 0.  1.
         22   -1    0    0    0    0 -0.00000000000E+00 -0.00000000000E+00 -0.30797879690E+01  0.30797879690E+01  0.00000000000E+00 0.  1.
          4    1    1    2  501    0 -0.91242496557E+00  0.23760549230E+01  0.14306976639E+01  0.31840150943E+01  0.12700000000E+01 0.  1.
         -4    1    1    2    0  501  0.91242496557E+00 -0.23760549230E+01 -0.12849969767E+01  0.31212615310E+01  0.12700000000E+01 0.  1.
<mgrwt>
<rscale>  0 0.28444782E+01</rscale>
<asrwt>0</asrwt>
<pdfrwt beam="1">0</pdfrwt>
<pdfrwt beam="2">0</pdfrwt>
<totfact> 0.16626294E+12</totfact>
</mgrwt>
</event>
<event>
 4    1  0.1735226E+006  0.2138800E+01  0.7546771E-02  0.2892946E+00
         22   -1    0    0    0    0  0.00000000000E+00  0.00000000000E+00  0.22331785361E+01  0.22331785361E+01  0.00000000000E+00 0. -1.
         22   -1    0    0    0    0 -0.00000000000E+00 -0.00000000000E+00 -0.22691374369E+01  0.22691374369E+01  0.00000000000E+00 0.  1.
          4    1    1    2  501    0 -0.56766809995E+00 -0.16245972525E+01 -0.72008853016E+00  0.22567655606E+01  0.12700000000E+01 0. -1.
         -4    1    1    2    0  501  0.56766809995E+00  0.16245972525E+01  0.68412962939E+00  0.22455504123E+01  0.12700000000E+01 0. -1.
<mgrwt>
<rscale>  0 0.21387995E+01</rscale>
<asrwt>0</asrwt>
<pdfrwt beam="1">0</pdfrwt>
<pdfrwt beam="2">0</pdfrwt>
<totfact> 0.36418327E+12</totfact>
</mgrwt>
</event>
<event>
 4    1  0.1735226E+006  0.3648851E+01  0.7546771E-02  0.2349903E+00
         22   -1    0    0    0    0  0.00000000000E+00  0.00000000000E+00  0.16140991489E+01  0.16140991489E+01  0.00000000000E+00 0.  1.
         22   -1    0    0    0    0 -0.00000000000E+00 -0.00000000000E+00 -0.87475800092E+01  0.87475800092E+01  0.00000000000E+00 0. -1.
          4    1    1    2  501    0  0.94729710729E+00  0.32869196809E+01 -0.23294175429E+01  0.43290066860E+01  0.12700000000E+01 0.  1.
         -4    1    1    2    0  501 -0.94729710729E+00 -0.32869196809E+01 -0.48040633174E+01  0.60326724721E+01  0.12700000000E+01 0. -1.
<mgrwt>
<rscale>  0 0.36488509E+01</rscale>
<asrwt>0</asrwt>
<pdfrwt beam="1">0</pdfrwt>
<pdfrwt beam="2">0</pdfrwt>
<totfact> 0.10770385E+12</totfact>
</mgrwt>
</event>
<event>
 4    1  0.1735226E+006  0.7067902E+01  0.7546771E-02  0.1935363E+00
         22   -1    0    0    0    0  0.00000000000E+00  0.00000000000E+00  0.15462971765E+02  0.15462971765E+02  0.00000000000E+00 0.  1.
         22   -1    0    0    0    0 -0.00000000000E+00 -0.00000000000E+00 -0.33438497515E+01  0.33438497515E+01  0.00000000000E+00 0. -1.
          4    1    1    2  501    0 -0.58101516491E+01  0.38189621294E+01  0.77898216772E+01  0.10518391307E+02  0.12700000000E+01 0.  1.
         -4    1    1    2    0  501  0.58101516491E+01 -0.38189621294E+01  0.43293003365E+01  0.82884302093E+01  0.12700000000E+01 0. -1.
<mgrwt>
<rscale>  0 0.70679017E+01</rscale>
<asrwt>0</asrwt>
<pdfrwt beam="1">0</pdfrwt>
<pdfrwt beam="2">0</pdfrwt>
<totfact> 0.23093125E+11</totfact>
</mgrwt>
</event>
<event>
 4    1  0.1735226E+006  0.2287573E+01  0.7546771E-02  0.2810300E+00
         22   -1    0    0    0    0  0.00000000000E+00  0.00000000000E+00  0.76029334374E+01  0.76029334374E+01  0.00000000000E+00 0. -1.
         22   -1    0    0    0    0 -0.00000000000E+00 -0.00000000000E+00 -0.70331942526E+00  0.70331942526E+00  0.00000000000E+00 0. -1.
          4    1    1    2  501    0 -0.18364178050E+01  0.49765595317E+00  0.40570037256E+01  0.46574962192E+01  0.12700000000E+01 0. -1.
         -4    1    1    2    0  501  0.18364178050E+01 -0.49765595317E+00  0.28426102865E+01  0.36487566434E+01  0.12700000000E+01 0. -1.
<mgrwt>
<rscale>  0 0.22875733E+01</rscale>
<asrwt>0</asrwt>
<pdfrwt beam="1">0</pdfrwt>
<pdfrwt beam="2">0</pdfrwt>
<totfact> 0.32957272E+12</totfact>
</mgrwt>
</event>
<event>
 4    1  0.1735226E+006  0.2263006E+01  0.7546771E-02  0.2823231E+00
         22   -1    0    0    0    0  0.00000000000E+00  0.00000000000E+00  0.34692869699E+01  0.34692869699E+01  0.00000000000E+00 0. -1.
         22   -1    0    0    0    0 -0.00000000000E+00 -0.00000000000E+00 -0.21123238038E+02  0.21123238038E+02  0.00000000000E+00 0.  1.
          4    1    1    2  501    0  0.80546452252E+00 -0.16910125305E+01  0.30318573216E+01  0.37832995248E+01  0.12700000000E+01 0. -1.
         -4    1    1    2    0  501 -0.80546452252E+00  0.16910125305E+01 -0.20685808390E+02  0.20809225483E+02  0.12700000000E+01 0.  1.
<mgrwt>
<rscale>  0 0.22630061E+01</rscale>
<asrwt>0</asrwt>
<pdfrwt beam="1">0</pdfrwt>
<pdfrwt beam="2">0</pdfrwt>
<totfact> 0.15017088E+11</totfact>
</mgrwt>
</event>
<event>
 4    1  0.1735226E+006  0.2018653E+01  0.7546771E-02  0.2968247E+00
         22   -1    0    0    0    0  0.00000000000E+00  0.00000000000E+00  0.16454291850E+01  0.16454291850E+01  0.00000000000E+00 0. -1.
         22   -1    0    0    0    0 -0.00000000000E+00 -0.00000000000E+00 -0.39776153627E+01  0.39776153627E+01  0.00000000000E+00 0. -1.
          4    1    1    2  501    0 -0.14907224519E+01  0.48970074576E+00  0.56106601853E+00  0.20951742949E+01  0.12700000000E+01 0. -1.
         -4    1    1    2    0  501  0.14907224519E+01 -0.48970074576E+00 -0.28932521963E+01  0.35278702528E+01  0.12700000000E+01 0. -1.
<mgrwt>
<rscale>  0 0.20186531E+01</rscale>
<asrwt>0</asrwt>
<pdfrwt beam="1">0</pdfrwt>
<pdfrwt beam="2">0</pdfrwt>
<totfact> 0.26908986E+12</totfact>
</mgrwt>
</event>
<event>
 4    1  0.1735226E+006  0.2372645E+01  0.7546771E-02  0.2767486E+00
         22   -1    0    0    0    0  0.00000000000E+00  0.00000000000E+00  0.23497363826E+01  0.23497363826E+01  0.00000000000E+00 0. -1.
         22   -1    0    0    0    0 -0.00000000000E+00 -0.00000000000E+00 -0.10366422078E+02  0.10366422078E+02  0.00000000000E+00 0.  1.
          4    1    1    2  501    0  0.13869939480E+01  0.14466486062E+01  0.15668285956E+01  0.28433072732E+01  0.12700000000E+01 0. -1.
         -4    1    1    2    0  501 -0.13869939480E+01 -0.14466486062E+01 -0.95835142907E+01  0.98728511871E+01  0.12700000000E+01 0.  1.
<mgrwt>
<rscale>  0 0.23726450E+01</rscale>
<asrwt>0</asrwt>
<pdfrwt beam="1">0</pdfrwt>
<pdfrwt beam="2">0</pdfrwt>
<totfact> 0.56807970E+11</totfact>
</mgrwt>
</event>
<event>
 4    1  0.1735226E+006  0.2212834E+01  0.7546771E-02  0.2850489E+00
         22   -1    0    0    0    0  0.00000000000E+00  0.00000000000E+00  0.10524228099E+01  0.10524228099E+01  0.00000000000E+00 0.  1.
         22   -1    0    0    0    0 -0.00000000000E+00 -0.00000000000E+00 -0.71449044531E+01  0.71449044531E+01  0.00000000000E+00 0.  1.
          4    1    1    2  501    0 -0.10608988443E+00 -0.18089999550E+01 -0.62558214219E+00  0.22995627666E+01  0.12700000000E+01 0.  1.
         -4    1    1    2    0  501  0.10608988443E+00  0.18089999550E+01 -0.54668995010E+01  0.58977644964E+01  0.12700000000E+01 0.  1.
<mgrwt>
<rscale>  0 0.22128344E+01</rscale>
<asrwt>0</asrwt>
<pdfrwt beam="1">0</pdfrwt>
<pdfrwt beam="2">0</pdfrwt>
<totfact> 0.22433894E+12</totfact>
</mgrwt>
</event>
<event>
 4    1  0.1735226E+006  0.2979380E+01  0.7546771E-02  0.2528737E+00
         22   -1    0    0    0    0  0.00000000000E+00  0.00000000000E+00  0.33574896134E+01  0.33574896134E+01  0.00000000000E+00 0. -1.
         22   -1    0    0    0    0 -0.00000000000E+00 -0.00000000000E+00 -0.11962473165E+02  0.11962473165E+02  0.00000000000E+00 0.  1.
          4    1    1    2  501    0  0.54433361053E+00  0.26396031141E+01  0.24582300654E+01  0.38625896409E+01  0.12700000000E+01 0. -1.
         -4    1    1    2    0  501 -0.54433361053E+00 -0.26396031141E+01 -0.11063213617E+02  0.11457373138E+02  0.12700000000E+01 0.  1.
<mgrwt>
<rscale>  0 0.29793797E+01</rscale>
<asrwt>0</asrwt>
<pdfrwt beam="1">0</pdfrwt>
<pdfrwt beam="2">0</pdfrwt>
<totfact> 0.31479312E+11</totfact>
</mgrwt>
</event>
<event>
 4    1  0.1735226E+006  0.2581035E+01  0.7546771E-02  0.2673847E+00
         22   -1    0    0    0    0  0.00000000000E+00  0.00000000000E+00  0.33726276920E+01  0.33726276920E+01  0.00000000000E+00 0. -1.
         22   -1    0    0    0    0 -0.00000000000E+00 -0.00000000000E+00 -0.20342088180E+01  0.20342088180E+01  0.00000000000E+00 0.  1.
          4    1    1    2  501    0  0.22450182443E+01 -0.93471916986E-01  0.20891855578E+00  0.25894769509E+01  0.12700000000E+01 0. -1.
         -4    1    1    2    0  501 -0.22450182443E+01  0.93471916986E-01  0.11295003183E+01  0.28173595591E+01  0.12700000000E+01 0.  1.
<mgrwt>
<rscale>  0 0.25810354E+01</rscale>
<asrwt>0</asrwt>
<pdfrwt beam="1">0</pdfrwt>
<pdfrwt beam="2">0</pdfrwt>
<totfact> 0.25564818E+12</totfact>
</mgrwt>
</event>
<event>
 4    1  0.1735226E+006  0.1836371E+02  0.7546771E-02  0.1559310E+00
         22   -1    0    0    0    0  0.00000000000E+00  0.00000000000E+00  0.30396856545E+02  0.30396856545E+02  0.00000000000E+00 0.  1.
         22   -1    0    0    0    0 -0.00000000000E+00 -0.00000000000E+00 -0.11550632354E+02  0.11550632354E+02  0.00000000000E+00 0. -1.
          4    1    1    2  501    0 -0.17681081492E+02 -0.47950216022E+01  0.13592849793E+02  0.22847129806E+02  0.12700000000E+01 0.  1.
         -4    1    1    2    0  501  0.17681081492E+02  0.47950216022E+01  0.52533743990E+01  0.19100359093E+02  0.12700000000E+01 0. -1.
<mgrwt>
<rscale>  0 0.18363708E+02</rscale>
<asrwt>0</asrwt>
<pdfrwt beam="1">0</pdfrwt>
<pdfrwt beam="2">0</pdfrwt>
<totfact> 0.22582192E+10</totfact>
</mgrwt>
</event>
<event>
 4    1  0.1735226E+006  0.2555695E+01  0.7546771E-02  0.2684474E+00
         22   -1    0    0    0    0  0.00000000000E+00  0.00000000000E+00  0.20881764811E+01  0.20881764811E+01  0.00000000000E+00 0. -1.
         22   -1    0    0    0    0 -0.00000000000E+00 -0.00000000000E+00 -0.83566500014E+01  0.83566500014E+01  0.00000000000E+00 0.  1.
          4    1    1    2  501    0  0.57509857055E+00  0.21419475085E+01  0.99675812487E+00  0.27431923473E+01  0.12700000000E+01 0. -1.
         -4    1    1    2    0  501 -0.57509857055E+00 -0.21419475085E+01 -0.72652316451E+01  0.77016341352E+01  0.12700000000E+01 0.  1.
<mgrwt>
<rscale>  0 0.25556951E+01</rscale>
<asrwt>0</asrwt>
<pdfrwt beam="1">0</pdfrwt>
<pdfrwt beam="2">0</pdfrwt>
<totfact> 0.84511534E+11</totfact>
</mgrwt>
</event>
<event>
 4    1  0.1735226E+006  0.2312843E+01  0.7546771E-02  0.2797271E+00
         22   -1    0    0    0    0  0.00000000000E+00  0.00000000000E+00  0.34071224609E+00  0.34071224609E+00  0.00000000000E+00 0.  1.
         22   -1    0    0    0    0 -0.00000000000E+00 -0.00000000000E+00 -0.33778972546E+02  0.33778972546E+02  0.00000000000E+00 0.  1.
          4    1    1    2  501    0  0.82149949331E+00 -0.17497085338E+01 -0.42384979210E+01  0.48284682869E+01  0.12700000000E+01 0.  1.
         -4    1    1    2    0  501 -0.82149949331E+00  0.17497085338E+01 -0.29199762378E+02  0.29291216505E+02  0.12700000000E+01 0.  1.
<mgrwt>
<rscale>  0 0.23128427E+01</rscale>
<asrwt>0</asrwt>
<pdfrwt beam="1">0</pdfrwt>
<pdfrwt beam="2">0</pdfrwt>
<totfact> 0.11814589E+12</totfact>
</mgrwt>
</event>
<event>
 4    1  0.1735226E+006  0.2256384E+01  0.7546771E-02  0.2826762E+00
         22   -1    0    0    0    0  0.00000000000E+00  0.00000000000E+00  0.61495378874E+00  0.61495378874E+00  0.00000000000E+00 0.  1.
         22   -1    0    0    0    0 -0.00000000000E+00 -0.00000000000E+00 -0.24869974784E+02  0.24869974784E+02  0.00000000000E+00 0. -1.
          4    1    1    2  501    0  0.55553575947E+00 -0.17803793939E+01 -0.17199187156E+01  0.28371448948E+01  0.12700000000E+01 0.  1.
         -4    1    1    2    0  501 -0.55553575947E+00  0.17803793939E+01 -0.22535102280E+02  0.22647783678E+02  0.12700000000E+01 0. -1.
<mgrwt>
<rscale>  0 0.22563844E+01</rscale>
<asrwt>0</asrwt>
<pdfrwt beam="1">0</pdfrwt>
<pdfrwt beam="2">0</pdfrwt>
<totfact> 0.89601067E+11</totfact>
</mgrwt>
</event>
<event>
 4    1  0.1735226E+006  0.2919220E+01  0.7546771E-02  0.2548340E+00
         22   -1    0    0    0    0  0.00000000000E+00  0.00000000000E+00  0.69379475989E+00  0.69379475989E+00  0.00000000000E+00 0. -1.
         22   -1    0    0    0    0 -0.00000000000E+00 -0.00000000000E+00 -0.13001567472E+02  0.13001567472E+02  0.00000000000E+00 0.  1.
          4    1    1    2  501    0 -0.23997827409E+01  0.10723738744E+01 -0.45439969422E+01  0.54009028079E+01  0.12700000000E+01 0. -1.
         -4    1    1    2    0  501  0.23997827409E+01 -0.10723738744E+01 -0.77637757695E+01  0.82944594236E+01  0.12700000000E+01 0.  1.
<mgrwt>
<rscale>  0 0.29192196E+01</rscale>
<asrwt>0</asrwt>
<pdfrwt beam="1">0</pdfrwt>
<pdfrwt beam="2">0</pdfrwt>
<totfact> 0.17480041E+12</totfact>
</mgrwt>
</event>
<event>
 4    1  0.1735226E+006  0.2174936E+01  0.7546771E-02  0.2871875E+00
         22   -1    0    0    0    0  0.00000000000E+00  0.00000000000E+00  0.12248889704E+02  0.12248889704E+02  0.00000000000E+00 0.  1.
         22   -1    0    0    0    0 -0.00000000000E+00 -0.00000000000E+00 -0.42233255877E+00  0.42233255877E+00  0.00000000000E+00 0. -1.
          4    1    1    2  501    0  0.11860253418E+01 -0.13079717939E+01  0.77667947254E+01  0.80655716866E+01  0.12700000000E+01 0.  1.
         -4    1    1    2    0  501 -0.11860253418E+01  0.13079717939E+01  0.40597624201E+01  0.46056505765E+01  0.12700000000E+01 0. -1.
<mgrwt>
<rscale>  0 0.21749359E+01</rscale>
<asrwt>0</asrwt>
<pdfrwt beam="1">0</pdfrwt>
<pdfrwt beam="2">0</pdfrwt>
<totfact> 0.32952857E+12</totfact>
</mgrwt>
</event>
<event>
 4    1  0.1735226E+006  0.2135364E+01  0.7546771E-02  0.2894985E+00
         22   -1    0    0    0    0  0.00000000000E+00  0.00000000000E+00  0.13347955530E+02  0.13347955530E+02  0.00000000000E+00 0. -1.
         22   -1    0    0    0    0 -0.00000000000E+00 -0.00000000000E+00 -0.34190439098E+00  0.34190439098E+00  0.00000000000E+00 0.  1.
          4    1    1    2  501    0  0.67003137190E+00  0.15804864907E+01  0.63017765021E+01  0.66537332881E+01  0.12700000000E+01 0. -1.
         -4    1    1    2    0  501 -0.67003137190E+00 -0.15804864907E+01  0.67042746364E+01  0.70361266324E+01  0.12700000000E+01 0.  1.
<mgrwt>
<rscale>  0 0.21353640E+01</rscale>
<asrwt>0</asrwt>
<pdfrwt beam="1">0</pdfrwt>
<pdfrwt beam="2">0</pdfrwt>
<totfact> 0.37624629E+12</totfact>
</mgrwt>
</event>
<event>
 4    1  0.1735226E+006  0.2765468E+01  0.7546771E-02  0.2601928E+00
         22   -1    0    0    0    0  0.00000000000E+00  0.00000000000E+00  0.52051001743E+01  0.52051001743E+01  0.00000000000E+00 0.  1.
         22   -1    0    0    0    0 -0.00000000000E+00 -0.00000000000E+00 -0.30351471200E+01  0.30351471200E+01  0.00000000000E+00 0.  1.
          4    1    1    2  501    0  0.21348875362E+00 -0.24473114078E+01  0.40443256532E+01  0.48994265546E+01  0.12700000000E+01 0.  1.
         -4    1    1    2    0  501 -0.21348875362E+00  0.24473114078E+01 -0.18743725989E+01  0.33408207396E+01  0.12700000000E+01 0.  1.
<mgrwt>
<rscale>  0 0.27654675E+01</rscale>
<asrwt>0</asrwt>
<pdfrwt beam="1">0</pdfrwt>
<pdfrwt beam="2">0</pdfrwt>
<totfact> 0.96263038E+11</totfact>
</mgrwt>
</event>
<event>
 4    1  0.1735226E+006  0.3379137E+01  0.7546771E-02  0.2414435E+00
         22   -1    0    0    0    0  0.00000000000E+00  0.00000000000E+00  0.12733979672E+02  0.12733979672E+02  0.00000000000E+00 0.  1.
         22   -1    0    0    0    0 -0.00000000000E+00 -0.00000000000E+00 -0.21110248045E+01  0.21110248045E+01  0.00000000000E+00 0. -1.
          4    1    1    2  501    0 -0.12522012836E+01 -0.28701325051E+01  0.10940992356E+02  0.11450933691E+02  0.12700000000E+01 0.  1.
         -4    1    1    2    0  501  0.12522012836E+01  0.28701325051E+01 -0.31803748903E+00  0.33940707854E+01  0.12700000000E+01 0. -1.
<mgrwt>
<rscale>  0 0.33791373E+01</rscale>
<asrwt>0</asrwt>
<pdfrwt beam="1">0</pdfrwt>
<pdfrwt beam="2">0</pdfrwt>
<totfact> 0.50079295E+11</totfact>
</mgrwt>
</event>
<event>
 4    1  0.1735226E+006  0.3618512E+01  0.7546771E-02  0.2356743E+00
         22   -1    0    0    0    0  0.00000000000E+00  0.00000000000E+00  0.20498796837E+01  0.20498796837E+01  0.00000000000E+00 0.  1.
         22   -1    0    0    0    0 -0.00000000000E+00 -0.00000000000E+00 -0.65041139139E+01  0.65041139139E+01  0.00000000000E+00 0. -1.
          4    1    1    2  501    0 -0.32908228103E+01  0.80697983700E+00 -0.16544561767E+01  0.39788008830E+01  0.12700000000E+01 0.  1.
         -4    1    1    2    0  501  0.32908228103E+01 -0.80697983700E+00 -0.27997780536E+01  0.45751927146E+01  0.12700000000E+01 0. -1.
<mgrwt>
<rscale>  0 0.36185123E+01</rscale>
<asrwt>0</asrwt>
<pdfrwt beam="1">0</pdfrwt>
<pdfrwt beam="2">0</pdfrwt>
<totfact> 0.11658820E+12</totfact>
</mgrwt>
</event>
<event>
 4    1  0.1735226E+006  0.2114880E+01  0.7546771E-02  0.2907275E+00
         22   -1    0    0    0    0  0.00000000000E+00  0.00000000000E+00  0.30308387330E+02  0.30308387330E+02  0.00000000000E+00 0.  1.
         22   -1    0    0    0    0 -0.00000000000E+00 -0.00000000000E+00 -0.25805937061E+00  0.25805937061E+00  0.00000000000E+00 0.  1.
          4    1    1    2  501    0  0.56338405402E+00 -0.15944957493E+01  0.25025354819E+02  0.25114559564E+02  0.12700000000E+01 0.  1.
         -4    1    1    2    0  501 -0.56338405402E+00  0.15944957493E+01  0.50249731409E+01  0.54518871369E+01  0.12700000000E+01 0.  1.
<mgrwt>
<rscale>  0 0.21148802E+01</rscale>
<asrwt>0</asrwt>
<pdfrwt beam="1">0</pdfrwt>
<pdfrwt beam="2">0</pdfrwt>
<totfact> 0.18531646E+12</totfact>
</mgrwt>
</event>
<event>
 4    1  0.1735226E+006  0.2189444E+01  0.7546771E-02  0.2863605E+00
         22   -1    0    0    0    0  0.00000000000E+00  0.00000000000E+00  0.93890412704E+01  0.93890412704E+01  0.00000000000E+00 0.  1.
         22   -1    0    0    0    0 -0.00000000000E+00 -0.00000000000E+00 -0.10482522544E+01  0.10482522544E+01  0.00000000000E+00 0.  1.
          4    1    1    2  501    0 -0.22719532012E+00 -0.17689391802E+01  0.79079884772E+01  0.82054826361E+01  0.12700000000E+01 0.  1.
         -4    1    1    2    0  501  0.22719532012E+00  0.17689391802E+01  0.43280053882E+00  0.22318108887E+01  0.12700000000E+01 0.  1.
<mgrwt>
<rscale>  0 0.21894437E+01</rscale>
<asrwt>0</asrwt>
<pdfrwt beam="1">0</pdfrwt>
<pdfrwt beam="2">0</pdfrwt>
<totfact> 0.16226870E+12</totfact>
</mgrwt>
</event>
<event>
 4    1  0.1735226E+006  0.2880426E+01  0.7546771E-02  0.2561372E+00
         22   -1    0    0    0    0  0.00000000000E+00  0.00000000000E+00  0.36486948098E+01  0.36486948098E+01  0.00000000000E+00 0. -1.
         22   -1    0    0    0    0 -0.00000000000E+00 -0.00000000000E+00 -0.22757446817E+01  0.22757446817E+01  0.00000000000E+00 0.  1.
          4    1    1    2  501    0  0.22581572102E+01  0.12588414797E+01  0.77025395218E+00  0.29816349555E+01  0.12700000000E+01 0. -1.
         -4    1    1    2    0  501 -0.22581572102E+01 -0.12588414797E+01  0.60269617596E+00  0.29428045361E+01  0.12700000000E+01 0.  1.
<mgrwt>
<rscale>  0 0.28804263E+01</rscale>
<asrwt>0</asrwt>
<pdfrwt beam="1">0</pdfrwt>
<pdfrwt beam="2">0</pdfrwt>
<totfact> 0.20468534E+12</totfact>
</mgrwt>
</event>
<event>
 4    1  0.1735226E+006  0.2492266E+01  0.7546771E-02  0.2711950E+00
         22   -1    0    0    0    0  0.00000000000E+00  0.00000000000E+00  0.30093252509E+01  0.30093252509E+01  0.00000000000E+00 0. -1.
         22   -1    0    0    0    0 -0.00000000000E+00 -0.00000000000E+00 -0.26484280004E+01  0.26484280004E+01  0.00000000000E+00 0. -1.
          4    1    1    2  501    0  0.15536763463E+01  0.14780326008E+01  0.15092734812E+01  0.29136398197E+01  0.12700000000E+01 0. -1.
         -4    1    1    2    0  501 -0.15536763463E+01 -0.14780326008E+01 -0.11483762307E+01  0.27441134315E+01  0.12700000000E+01 0. -1.
<mgrwt>
<rscale>  0 0.24922661E+01</rscale>
<asrwt>0</asrwt>
<pdfrwt beam="1">0</pdfrwt>
<pdfrwt beam="2">0</pdfrwt>
<totfact> 0.21501977E+12</totfact>
</mgrwt>
</event>
<event>
 4    1  0.1735226E+006  0.2933483E+01  0.7546771E-02  0.2543627E+00
         22   -1    0    0    0    0  0.00000000000E+00  0.00000000000E+00  0.75906339404E-01  0.75906339404E-01  0.00000000000E+00 0.  1.
         22   -1    0    0    0    0 -0.00000000000E+00 -0.00000000000E+00 -0.11991853235E+03  0.11991853235E+03  0.00000000000E+00 0. -1.
          4    1    1    2  501    0  0.26364448299E+01 -0.20392160811E+00 -0.45898440762E+02  0.45992088339E+02  0.12700000000E+01 0.  1.
         -4    1    1    2    0  501 -0.26364448299E+01  0.20392160811E+00 -0.73944185244E+02  0.74002350346E+02  0.12700000000E+01 0. -1.
<mgrwt>
<rscale>  0 0.29334835E+01</rscale>
<asrwt>0</asrwt>
<pdfrwt beam="1">0</pdfrwt>
<pdfrwt beam="2">0</pdfrwt>
<totfact> 0.11352353E+12</totfact>
</mgrwt>
</event>
<event>
 4    1  0.1735226E+006  0.5869784E+01  0.7546771E-02  0.2031566E+00
         22   -1    0    0    0    0  0.00000000000E+00  0.00000000000E+00  0.21835683425E+01  0.21835683425E+01  0.00000000000E+00 0.  1.
         22   -1    0    0    0    0 -0.00000000000E+00 -0.00000000000E+00 -0.37710714307E+02  0.37710714307E+02  0.00000000000E+00 0. -1.
          4    1    1    2  501    0 -0.61109620671E+00  0.56980725478E+01 -0.25516092788E+01  0.64003968038E+01  0.12700000000E+01 0.  1.
         -4    1    1    2    0  501  0.61109620671E+00 -0.56980725478E+01 -0.32975536685E+02  0.33493885845E+02  0.12700000000E+01 0. -1.
<mgrwt>
<rscale>  0 0.58697844E+01</rscale>
<asrwt>0</asrwt>
<pdfrwt beam="1">0</pdfrwt>
<pdfrwt beam="2">0</pdfrwt>
<totfact> 0.12338623E+11</totfact>
</mgrwt>
</event>
<event>
 4    1  0.1735226E+006  0.2724692E+01  0.7546771E-02  0.2617059E+00
         22   -1    0    0    0    0  0.00000000000E+00  0.00000000000E+00  0.83413722218E+02  0.83413722218E+02  0.00000000000E+00 0. -1.
         22   -1    0    0    0    0 -0.00000000000E+00 -0.00000000000E+00 -0.56461252132E+00  0.56461252132E+00  0.00000000000E+00 0. -1.
          4    1    1    2  501    0 -0.14235396899E+01 -0.19454002872E+01  0.79962447178E+02  0.80008855173E+02  0.12700000000E+01 0. -1.
         -4    1    1    2    0  501  0.14235396899E+01  0.19454002872E+01  0.28866625194E+01  0.39694795662E+01  0.12700000000E+01 0. -1.
<mgrwt>
<rscale>  0 0.27246922E+01</rscale>
<asrwt>0</asrwt>
<pdfrwt beam="1">0</pdfrwt>
<pdfrwt beam="2">0</pdfrwt>
<totfact> 0.20141383E+11</totfact>
</mgrwt>
</event>
<event>
 4    1  0.1735226E+006  0.2424368E+01  0.7546771E-02  0.2742843E+00
         22   -1    0    0    0    0  0.00000000000E+00  0.00000000000E+00  0.41978043532E+00  0.41978043532E+00  0.00000000000E+00 0. -1.
         22   -1    0    0    0    0 -0.00000000000E+00 -0.00000000000E+00 -0.25243012577E+02  0.25243012577E+02  0.00000000000E+00 0.  1.
          4    1    1    2  501    0  0.11981292194E+01  0.16820068389E+01 -0.20974409851E+02  0.21114057622E+02  0.12700000000E+01 0.  1.
         -4    1    1    2    0  501 -0.11981292194E+01 -0.16820068389E+01 -0.38488222898E+01  0.45487353903E+01  0.12700000000E+01 0. -1.
<mgrwt>
<rscale>  0 0.24243681E+01</rscale>
<asrwt>0</asrwt>
<pdfrwt beam="1">0</pdfrwt>
<pdfrwt beam="2">0</pdfrwt>
<totfact> 0.13535291E+12</totfact>
</mgrwt>
</event>
<event>
 4    1  0.1735226E+006  0.2253385E+01  0.7546771E-02  0.2828368E+00
         22   -1    0    0    0    0  0.00000000000E+00  0.00000000000E+00  0.65648309997E+00  0.65648309997E+00  0.00000000000E+00 0.  1.
         22   -1    0    0    0    0 -0.00000000000E+00 -0.00000000000E+00 -0.84494781628E+01  0.84494781628E+01  0.00000000000E+00 0. -1.
          4    1    1    2  501    0 -0.55029350426E+00 -0.17782069518E+01 -0.25723189339E+01  0.34197320950E+01  0.12700000000E+01 0. -1.
         -4    1    1    2    0  501  0.55029350426E+00  0.17782069518E+01 -0.52206761290E+01  0.56862291677E+01  0.12700000000E+01 0. -1.
<mgrwt>
<rscale>  0 0.22533848E+01</rscale>
<asrwt>0</asrwt>
<pdfrwt beam="1">0</pdfrwt>
<pdfrwt beam="2">0</pdfrwt>
<totfact> 0.31391941E+12</totfact>
</mgrwt>
</event>
<event>
 4    1  0.1735226E+006  0.2113775E+01  0.7546771E-02  0.2907944E+00
         22   -1    0    0    0    0  0.00000000000E+00  0.00000000000E+00  0.82262010818E+01  0.82262010818E+01  0.00000000000E+00 0. -1.
         22   -1    0    0    0    0 -0.00000000000E+00 -0.00000000000E+00 -0.58868494357E+00  0.58868494357E+00  0.00000000000E+00 0. -1.
          4    1    1    2  501    0  0.14074341672E+01 -0.93502641879E+00  0.50445783143E+01  0.54695352369E+01  0.12700000000E+01 0. -1.
         -4    1    1    2    0  501 -0.14074341672E+01  0.93502641879E+00  0.25929378240E+01  0.33453507885E+01  0.12700000000E+01 0. -1.
<mgrwt>
<rscale>  0 0.21137751E+01</rscale>
<asrwt>0</asrwt>
<pdfrwt beam="1">0</pdfrwt>
<pdfrwt beam="2">0</pdfrwt>
<totfact> 0.36680419E+12</totfact>
</mgrwt>
</event>
<event>
 4    1  0.1735226E+006  0.3341516E+01  0.7546771E-02  0.2424157E+00
         22   -1    0    0    0    0  0.00000000000E+00  0.00000000000E+00  0.24563701137E+01  0.24563701137E+01  0.00000000000E+00 0.  1.
         22   -1    0    0    0    0 -0.00000000000E+00 -0.00000000000E+00 -0.48717497063E+01  0.48717497063E+01  0.00000000000E+00 0. -1.
          4    1    1    2  501    0  0.29794161656E+01  0.82213713820E+00 -0.25967766620E+00  0.33515910628E+01  0.12700000000E+01 0.  1.
         -4    1    1    2    0  501 -0.29794161656E+01 -0.82213713820E+00 -0.21557019264E+01  0.39765287572E+01  0.12700000000E+01 0. -1.
<mgrwt>
<rscale>  0 0.33415161E+01</rscale>
<asrwt>0</asrwt>
<pdfrwt beam="1">0</pdfrwt>
<pdfrwt beam="2">0</pdfrwt>
<totfact> 0.13323098E+12</totfact>
</mgrwt>
</event>
<event>
 4    1  0.1735226E+006  0.2379958E+01  0.7546771E-02  0.2763941E+00
         22   -1    0    0    0    0  0.00000000000E+00  0.00000000000E+00  0.24678150215E+02  0.24678150215E+02  0.00000000000E+00 0. -1.
         22   -1    0    0    0    0 -0.00000000000E+00 -0.00000000000E+00 -0.30595441940E+00  0.30595441940E+00  0.00000000000E+00 0.  1.
          4    1    1    2  501    0  0.17610262180E+01  0.97472496096E+00  0.18429790376E+02  0.18582824742E+02  0.12700000000E+01 0. -1.
         -4    1    1    2    0  501 -0.17610262180E+01 -0.97472496096E+00  0.59424054199E+01  0.64012798926E+01  0.12700000000E+01 0.  1.
<mgrwt>
<rscale>  0 0.23799584E+01</rscale>
<asrwt>0</asrwt>
<pdfrwt beam="1">0</pdfrwt>
<pdfrwt beam="2">0</pdfrwt>
<totfact> 0.19872389E+12</totfact>
</mgrwt>
</event>
<event>
 4    1  0.1735226E+006  0.2062100E+01  0.7546771E-02  0.2940032E+00
         22   -1    0    0    0    0  0.00000000000E+00  0.00000000000E+00  0.13868286173E+00  0.13868286173E+00  0.00000000000E+00 0. -1.
         22   -1    0    0    0    0 -0.00000000000E+00 -0.00000000000E+00 -0.41687676054E+02  0.41687676054E+02  0.00000000000E+00 0. -1.
          4    1    1    2  501    0 -0.52134216588E+00 -0.15386876096E+01 -0.10019159012E+02  0.10229164410E+02  0.12700000000E+01 0. -1.
         -4    1    1    2    0  501  0.52134216588E+00  0.15386876096E+01 -0.31529834180E+02  0.31597194505E+02  0.12700000000E+01 0. -1.
<mgrwt>
<rscale>  0 0.20621002E+01</rscale>
<asrwt>0</asrwt>
<pdfrwt beam="1">0</pdfrwt>
<pdfrwt beam="2">0</pdfrwt>
<totfact> 0.24562298E+12</totfact>
</mgrwt>
</event>
<event>
 4    1  0.1735226E+006  0.2259788E+01  0.7546771E-02  0.2824944E+00
         22   -1    0    0    0    0  0.00000000000E+00  0.00000000000E+00  0.65733006013E-01  0.65733006013E-01  0.00000000000E+00 0.  1.
         22   -1    0    0    0    0 -0.00000000000E+00 -0.00000000000E+00 -0.12946309705E+03  0.12946309705E+03  0.00000000000E+00 0.  1.
          4    1    1    2  501    0  0.13025335702E+00  0.18646118824E+01 -0.23741946022E+02  0.23849248297E+02  0.12700000000E+01 0.  1.
         -4    1    1    2    0  501 -0.13025335702E+00 -0.18646118824E+01 -0.10565541802E+03  0.10567958176E+03  0.12700000000E+01 0.  1.
<mgrwt>
<rscale>  0 0.22597884E+01</rscale>
<asrwt>0</asrwt>
<pdfrwt beam="1">0</pdfrwt>
<pdfrwt beam="2">0</pdfrwt>
<totfact> 0.11908959E+12</totfact>
</mgrwt>
</event>
<event>
 4    1  0.1735226E+006  0.2248070E+01  0.7546771E-02  0.2831224E+00
         22   -1    0    0    0    0  0.00000000000E+00  0.00000000000E+00  0.21026699705E+00  0.21026699705E+00  0.00000000000E+00 0. -1.
         22   -1    0    0    0    0 -0.00000000000E+00 -0.00000000000E+00 -0.24259304082E+02  0.24259304082E+02  0.00000000000E+00 0. -1.
          4    1    1    2  501    0 -0.11190998251E+01 -0.14793700911E+01 -0.10848723634E+02  0.11079197840E+02  0.12700000000E+01 0. -1.
         -4    1    1    2    0  501  0.11190998251E+01  0.14793700911E+01 -0.13200313451E+02  0.13390373240E+02  0.12700000000E+01 0. -1.
<mgrwt>
<rscale>  0 0.22480703E+01</rscale>
<asrwt>0</asrwt>
<pdfrwt beam="1">0</pdfrwt>
<pdfrwt beam="2">0</pdfrwt>
<totfact> 0.30892285E+12</totfact>
</mgrwt>
</event>
<event>
 4    1  0.1735226E+006  0.3233863E+01  0.7546771E-02  0.2453072E+00
         22   -1    0    0    0    0  0.00000000000E+00  0.00000000000E+00  0.48954431868E+00  0.48954431868E+00  0.00000000000E+00 0. -1.
         22   -1    0    0    0    0 -0.00000000000E+00 -0.00000000000E+00 -0.53817952363E+02  0.53817952363E+02  0.00000000000E+00 0.  1.
          4    1    1    2  501    0  0.23266365766E+01 -0.18524931030E+01 -0.55774205557E+01  0.64471302540E+01  0.12700000000E+01 0. -1.
         -4    1    1    2    0  501 -0.23266365766E+01  0.18524931030E+01 -0.47750987488E+02  0.47860366427E+02  0.12700000000E+01 0.  1.
<mgrwt>
<rscale>  0 0.32338628E+01</rscale>
<asrwt>0</asrwt>
<pdfrwt beam="1">0</pdfrwt>
<pdfrwt beam="2">0</pdfrwt>
<totfact> 0.42797914E+11</totfact>
</mgrwt>
</event>
<event>
 4    1  0.1735226E+006  0.2654504E+01  0.7546771E-02  0.2644099E+00
         22   -1    0    0    0    0  0.00000000000E+00  0.00000000000E+00  0.14385991690E+01  0.14385991690E+01  0.00000000000E+00 0. -1.
         22   -1    0    0    0    0 -0.00000000000E+00 -0.00000000000E+00 -0.93053934668E+01  0.93053934668E+01  0.00000000000E+00 0. -1.
          4    1    1    2  501    0  0.18482834236E+01  0.14203318070E+01 -0.23635320528E+00  0.26650059838E+01  0.12700000000E+01 0. -1.
         -4    1    1    2    0  501 -0.18482834236E+01 -0.14203318070E+01 -0.76304410925E+01  0.80789866520E+01  0.12700000000E+01 0. -1.
<mgrwt>
<rscale>  0 0.26545045E+01</rscale>
<asrwt>0</asrwt>
<pdfrwt beam="1">0</pdfrwt>
<pdfrwt beam="2">0</pdfrwt>
<totfact> 0.11412303E+12</totfact>
</mgrwt>
</event>
<event>
 4    1  0.1735226E+006  0.2017752E+01  0.7546771E-02  0.2968845E+00
         22   -1    0    0    0    0  0.00000000000E+00  0.00000000000E+00  0.52879839715E+02  0.52879839715E+02  0.00000000000E+00 0. -1.
         22   -1    0    0    0    0 -0.00000000000E+00 -0.00000000000E+00 -0.14646171478E+00  0.14646171478E+00  0.00000000000E+00 0.  1.
          4    1    1    2  501    0  0.11476863850E+00 -0.15637296035E+01  0.44626538317E+02  0.44672130510E+02  0.12700000000E+01 0. -1.
         -4    1    1    2    0  501 -0.11476863850E+00  0.15637296035E+01  0.81068396831E+01  0.83541709200E+01  0.12700000000E+01 0.  1.
<mgrwt>
<rscale>  0 0.20177517E+01</rscale>
<asrwt>0</asrwt>
<pdfrwt beam="1">0</pdfrwt>
<pdfrwt beam="2">0</pdfrwt>
<totfact> 0.16917320E+12</totfact>
</mgrwt>
</event>
<event>
 4    1  0.1735226E+006  0.2142321E+01  0.7546771E-02  0.2890862E+00
         22   -1    0    0    0    0  0.00000000000E+00  0.00000000000E+00  0.91588043730E+00  0.91588043730E+00  0.00000000000E+00 0. -1.
         22   -1    0    0    0    0 -0.00000000000E+00 -0.00000000000E+00 -0.52703763368E+01  0.52703763368E+01  0.00000000000E+00 0.  1.
          4    1    1    2  501    0 -0.10167157899E+01 -0.13938895823E+01 -0.28633446968E+01  0.35760707512E+01  0.12700000000E+01 0.  1.
         -4    1    1    2    0  501  0.10167157899E+01  0.13938895823E+01 -0.14911512028E+01  0.26101860230E+01  0.12700000000E+01 0.  1.
<mgrwt>
<rscale>  0 0.21423210E+01</rscale>
<asrwt>0</asrwt>
<pdfrwt beam="1">0</pdfrwt>
<pdfrwt beam="2">0</pdfrwt>
<totfact> 0.37776919E+12</totfact>
</mgrwt>
</event>
<event>
 4    1  0.1735226E+006  0.2434820E+01  0.7546771E-02  0.2737982E+00
         22   -1    0    0    0    0  0.00000000000E+00  0.00000000000E+00  0.84860095527E+01  0.84860095527E+01  0.00000000000E+00 0.  1.
         22   -1    0    0    0    0 -0.00000000000E+00 -0.00000000000E+00 -0.70681708599E+00  0.70681708599E+00  0.00000000000E+00 0.  1.
          4    1    1    2  501    0  0.33426289821E+00 -0.20502972305E+01  0.43851026331E+01  0.50157228313E+01  0.12700000000E+01 0.  1.
         -4    1    1    2    0  501 -0.33426289821E+00  0.20502972305E+01  0.33940898336E+01  0.41771038073E+01  0.12700000000E+01 0.  1.
<mgrwt>
<rscale>  0 0.24348204E+01</rscale>
<asrwt>0</asrwt>
<pdfrwt beam="1">0</pdfrwt>
<pdfrwt beam="2">0</pdfrwt>
<totfact> 0.28719072E+12</totfact>
</mgrwt>
</event>
<event>
 4    1  0.1735226E+006  0.2024774E+01  0.7546771E-02  0.2964201E+00
         22   -1    0    0    0    0  0.00000000000E+00  0.00000000000E+00  0.15880683981E+02  0.15880683981E+02  0.00000000000E+00 0.  1.
         22   -1    0    0    0    0 -0.00000000000E+00 -0.00000000000E+00 -0.63006427192E+00  0.63006427192E+00  0.00000000000E+00 0. -1.
          4    1    1    2  501    0 -0.15357649114E+01 -0.35809873985E+00  0.13967827893E+02  0.14113820341E+02  0.12700000000E+01 0.  1.
         -4    1    1    2    0  501  0.15357649114E+01  0.35809873985E+00  0.12827918157E+01  0.23969279116E+01  0.12700000000E+01 0. -1.
<mgrwt>
<rscale>  0 0.20247737E+01</rscale>
<asrwt>0</asrwt>
<pdfrwt beam="1">0</pdfrwt>
<pdfrwt beam="2">0</pdfrwt>
<totfact> 0.15248763E+12</totfact>
</mgrwt>
</event>
<event>
 4    1  0.1735226E+006  0.2630717E+01  0.7546771E-02  0.2653563E+00
         22   -1    0    0    0    0  0.00000000000E+00  0.00000000000E+00  0.24815633509E+01  0.24815633509E+01  0.00000000000E+00 0.  1.
         22   -1    0    0    0    0 -0.00000000000E+00 -0.00000000000E+00 -0.44494395735E+01  0.44494395735E+01  0.00000000000E+00 0. -1.
          4    1    1    2  501    0 -0.21176506973E+01 -0.90737533086E+00  0.11331861435E+01  0.28643996409E+01  0.12700000000E+01 0.  1.
         -4    1    1    2    0  501  0.21176506973E+01  0.90737533086E+00 -0.31010623661E+01  0.40666032835E+01  0.12700000000E+01 0. -1.
<mgrwt>
<rscale>  0 0.26307175E+01</rscale>
<asrwt>0</asrwt>
<pdfrwt beam="1">0</pdfrwt>
<pdfrwt beam="2">0</pdfrwt>
<totfact> 0.14654683E+12</totfact>
</mgrwt>
</event>
<event>
 4    1  0.1735226E+006  0.2058285E+01  0.7546771E-02  0.2942463E+00
         22   -1    0    0    0    0  0.00000000000E+00  0.00000000000E+00  0.34719274616E+01  0.34719274616E+01  0.00000000000E+00 0. -1.
         22   -1    0    0    0    0 -0.00000000000E+00 -0.00000000000E+00 -0.24390378460E+01  0.24390378460E+01  0.00000000000E+00 0.  1.
          4    1    1    2  501    0 -0.11840952156E+01 -0.11052400960E+01  0.26056804565E+01  0.33205583553E+01  0.12700000000E+01 0. -1.
         -4    1    1    2    0  501  0.11840952156E+01  0.11052400960E+01 -0.15727908409E+01  0.25904069523E+01  0.12700000000E+01 0.  1.
<mgrwt>
<rscale>  0 0.20582850E+01</rscale>
<asrwt>0</asrwt>
<pdfrwt beam="1">0</pdfrwt>
<pdfrwt beam="2">0</pdfrwt>
<totfact> 0.20016519E+12</totfact>
</mgrwt>
</event>
<event>
 4    1  0.1735226E+006  0.2357591E+01  0.7546771E-02  0.2774849E+00
         22   -1    0    0    0    0  0.00000000000E+00  0.00000000000E+00  0.38750274074E+01  0.38750274074E+01  0.00000000000E+00 0.  1.
         22   -1    0    0    0    0 -0.00000000000E+00 -0.00000000000E+00 -0.20205963432E+01  0.20205963432E+01  0.00000000000E+00 0. -1.
          4    1    1    2  501    0 -0.75999938802E+00 -0.18351397377E+01  0.25149991715E+01  0.34472391503E+01  0.12700000000E+01 0.  1.
         -4    1    1    2    0  501  0.75999938802E+00  0.18351397377E+01 -0.66056810723E+00  0.24483846003E+01  0.12700000000E+01 0. -1.
<mgrwt>
<rscale>  0 0.23575913E+01</rscale>
<asrwt>0</asrwt>
<pdfrwt beam="1">0</pdfrwt>
<pdfrwt beam="2">0</pdfrwt>
<totfact> 0.21889302E+12</totfact>
</mgrwt>
</event>
<event>
 4    1  0.1735226E+006  0.2419354E+01  0.7546771E-02  0.2745188E+00
         22   -1    0    0    0    0  0.00000000000E+00  0.00000000000E+00  0.36399609823E+01  0.36399609823E+01  0.00000000000E+00 0.  1.
         22   -1    0    0    0    0 -0.00000000000E+00 -0.00000000000E+00 -0.21425183226E+01  0.21425183226E+01  0.00000000000E+00 0. -1.
          4    1    1    2  501    0 -0.20573584919E+01 -0.87469239759E-01  0.21927600332E+01  0.32651908666E+01  0.12700000000E+01 0.  1.
         -4    1    1    2    0  501  0.20573584919E+01  0.87469239759E-01 -0.69531737351E+00  0.25172884383E+01  0.12700000000E+01 0.  1.
<mgrwt>
<rscale>  0 0.24193542E+01</rscale>
<asrwt>0</asrwt>
<pdfrwt beam="1">0</pdfrwt>
<pdfrwt beam="2">0</pdfrwt>
<totfact> 0.22013399E+12</totfact>
</mgrwt>
</event>
<event>
 4    1  0.1735226E+006  0.4105103E+01  0.7546771E-02  0.2257643E+00
         22   -1    0    0    0    0  0.00000000000E+00  0.00000000000E+00  0.53294021271E+00  0.53294021271E+00  0.00000000000E+00 0.  1.
         22   -1    0    0    0    0 -0.00000000000E+00 -0.00000000000E+00 -0.32284067559E+02  0.32284067559E+02  0.00000000000E+00 0. -1.
          4    1    1    2  501    0  0.39036254388E+01  0.26057249164E-01 -0.13523244669E+02  0.14132587057E+02  0.12700000000E+01 0.  1.
         -4    1    1    2    0  501 -0.39036254388E+01 -0.26057249164E-01 -0.18227882678E+02  0.18684420715E+02  0.12700000000E+01 0. -1.
<mgrwt>
<rscale>  0 0.41051030E+01</rscale>
<asrwt>0</asrwt>
<pdfrwt beam="1">0</pdfrwt>
<pdfrwt beam="2">0</pdfrwt>
<totfact> 0.75638477E+11</totfact>
</mgrwt>
</event>
<event>
 4    1  0.1735226E+006  0.2117705E+01  0.7546771E-02  0.2905566E+00
         22   -1    0    0    0    0  0.00000000000E+00  0.00000000000E+00  0.12499346926E+02  0.12499346926E+02  0.00000000000E+00 0. -1.
         22   -1    0    0    0    0 -0.00000000000E+00 -0.00000000000E+00 -0.22752767959E+01  0.22752767959E+01  0.00000000000E+00 0. -1.
          4    1    1    2  501    0 -0.13166095473E+01  0.10669174291E+01  0.11891913905E+02  0.12079002021E+02  0.12700000000E+01 0. -1.
         -4    1    1    2    0  501  0.13166095473E+01 -0.10669174291E+01 -0.16678437744E+01  0.26956217013E+01  0.12700000000E+01 0. -1.
<mgrwt>
<rscale>  0 0.21177048E+01</rscale>
<asrwt>0</asrwt>
<pdfrwt beam="1">0</pdfrwt>
<pdfrwt beam="2">0</pdfrwt>
<totfact> 0.46961864E+11</totfact>
</mgrwt>
</event>
<event>
 4    1  0.1735226E+006  0.2004029E+01  0.7546771E-02  0.2978013E+00
         22   -1    0    0    0    0  0.00000000000E+00  0.00000000000E+00  0.55179603557E+00  0.55179603557E+00  0.00000000000E+00 0.  1.
         22   -1    0    0    0    0 -0.00000000000E+00 -0.00000000000E+00 -0.13165727526E+02  0.13165727526E+02  0.00000000000E+00 0. -1.
          4    1    1    2  501    0 -0.12281994481E+01 -0.94591757058E+00 -0.17204141286E+01  0.26412040263E+01  0.12700000000E+01 0.  1.
         -4    1    1    2    0  501  0.12281994481E+01  0.94591757058E+00 -0.10893517361E+02  0.11076319535E+02  0.12700000000E+01 0. -1.
<mgrwt>
<rscale>  0 0.20040294E+01</rscale>
<asrwt>0</asrwt>
<pdfrwt beam="1">0</pdfrwt>
<pdfrwt beam="2">0</pdfrwt>
<totfact> 0.22309666E+12</totfact>
</mgrwt>
</event>
<event>
 4    1  0.1735226E+006  0.2223063E+01  0.7546771E-02  0.2844836E+00
         22   -1    0    0    0    0  0.00000000000E+00  0.00000000000E+00  0.34120245471E+01  0.34120245471E+01  0.00000000000E+00 0.  1.
         22   -1    0    0    0    0 -0.00000000000E+00 -0.00000000000E+00 -0.29206280399E+01  0.29206280399E+01  0.00000000000E+00 0. -1.
          4    1    1    2  501    0  0.10442640344E+01 -0.14962020260E+01  0.24937366361E+01  0.33407679187E+01  0.12700000000E+01 0.  1.
         -4    1    1    2    0  501 -0.10442640344E+01  0.14962020260E+01 -0.20023401289E+01  0.29918846682E+01  0.12700000000E+01 0. -1.
<mgrwt>
<rscale>  0 0.22230627E+01</rscale>
<asrwt>0</asrwt>
<pdfrwt beam="1">0</pdfrwt>
<pdfrwt beam="2">0</pdfrwt>
<totfact> 0.16561479E+12</totfact>
</mgrwt>
</event>
<event>
 4    1  0.1735226E+006  0.7647263E+01  0.7546771E-02  0.1897347E+00
         22   -1    0    0    0    0  0.00000000000E+00  0.00000000000E+00  0.11729227109E+02  0.11729227109E+02  0.00000000000E+00 0. -1.
         22   -1    0    0    0    0 -0.00000000000E+00 -0.00000000000E+00 -0.51106310787E+01  0.51106310787E+01  0.00000000000E+00 0.  1.
          4    1    1    2  501    0  0.65057045372E+01  0.38135987389E+01  0.46247569468E+01  0.89369459931E+01  0.12700000000E+01 0.  1.
         -4    1    1    2    0  501 -0.65057045372E+01 -0.38135987389E+01  0.19938390837E+01  0.79029121948E+01  0.12700000000E+01 0. -1.
<mgrwt>
<rscale>  0 0.76472627E+01</rscale>
<asrwt>0</asrwt>
<pdfrwt beam="1">0</pdfrwt>
<pdfrwt beam="2">0</pdfrwt>
<totfact> 0.19657470E+11</totfact>
</mgrwt>
</event>
<event>
 4    1  0.1735226E+006  0.2162778E+01  0.7546771E-02  0.2878889E+00
         22   -1    0    0    0    0  0.00000000000E+00  0.00000000000E+00  0.67439756174E+01  0.67439756174E+01  0.00000000000E+00 0.  1.
         22   -1    0    0    0    0 -0.00000000000E+00 -0.00000000000E+00 -0.69698340131E+00  0.69698340131E+00  0.00000000000E+00 0. -1.
          4    1    1    2  501    0  0.12634913797E-01  0.17505856462E+01  0.27642118350E+01  0.35097687694E+01  0.12700000000E+01 0. -1.
         -4    1    1    2    0  501 -0.12634913797E-01 -0.17505856462E+01  0.32827803811E+01  0.39311902493E+01  0.12700000000E+01 0.  1.
<mgrwt>
<rscale>  0 0.21627782E+01</rscale>
<asrwt>0</asrwt>
<pdfrwt beam="1">0</pdfrwt>
<pdfrwt beam="2">0</pdfrwt>
<totfact> 0.38434942E+12</totfact>
</mgrwt>
</event>
<event>
 4    1  0.1735226E+006  0.2023320E+01  0.7546771E-02  0.2965160E+00
         22   -1    0    0    0    0  0.00000000000E+00  0.00000000000E+00  0.10205967625E+02  0.10205967625E+02  0.00000000000E+00 0.  1.
         22   -1    0    0    0    0 -0.00000000000E+00 -0.00000000000E+00 -0.18249159555E+01  0.18249159555E+01  0.00000000000E+00 0. -1.
          4    1    1    2  501    0  0.58601747464E+00  0.14620218605E+01  0.95038935463E+01  0.97168830878E+01  0.12700000000E+01 0.  1.
         -4    1    1    2    0  501 -0.58601747464E+00 -0.14620218605E+01 -0.11228418766E+01  0.23140004929E+01  0.12700000000E+01 0. -1.
<mgrwt>
<rscale>  0 0.20233201E+01</rscale>
<asrwt>0</asrwt>
<pdfrwt beam="1">0</pdfrwt>
<pdfrwt beam="2">0</pdfrwt>
<totfact> 0.77578895E+11</totfact>
</mgrwt>
</event>
<event>
 4    1  0.1735226E+006  0.6270616E+01  0.7546771E-02  0.1996236E+00
         22   -1    0    0    0    0  0.00000000000E+00  0.00000000000E+00  0.15374412307E+03  0.15374412307E+03  0.00000000000E+00 0.  1.
         22   -1    0    0    0    0 -0.00000000000E+00 -0.00000000000E+00 -0.67789941024E+01  0.67789941024E+01  0.00000000000E+00 0. -1.
          4    1    1    2  501    0  0.45632773572E+01  0.41090413610E+01  0.15221553813E+03  0.15234464437E+03  0.12700000000E+01 0.  1.
         -4    1    1    2    0  501 -0.45632773572E+01 -0.41090413610E+01 -0.52504091550E+01  0.81784728061E+01  0.12700000000E+01 0. -1.
<mgrwt>
<rscale>  0 0.62706157E+01</rscale>
<asrwt>0</asrwt>
<pdfrwt beam="1">0</pdfrwt>
<pdfrwt beam="2">0</pdfrwt>
<totfact> 0.47103714E+09</totfact>
</mgrwt>
</event>
<event>
 4    1  0.1735226E+006  0.2451458E+01  0.7546771E-02  0.2730325E+00
         22   -1    0    0    0    0  0.00000000000E+00  0.00000000000E+00  0.47580287307E+02  0.47580287307E+02  0.00000000000E+00 0.  1.
         22   -1    0    0    0    0 -0.00000000000E+00 -0.00000000000E+00 -0.24708651155E+00  0.24708651155E+00  0.00000000000E+00 0. -1.
          4    1    1    2  501    0  0.19881614766E+01  0.66630218276E+00  0.40386036580E+02  0.40460370676E+02  0.12700000000E+01 0.  1.
         -4    1    1    2    0  501 -0.19881614766E+01 -0.66630218276E+00  0.69471642157E+01  0.73670031421E+01  0.12700000000E+01 0. -1.
<mgrwt>
<rscale>  0 0.24514577E+01</rscale>
<asrwt>0</asrwt>
<pdfrwt beam="1">0</pdfrwt>
<pdfrwt beam="2">0</pdfrwt>
<totfact> 0.10855689E+12</totfact>
</mgrwt>
</event>
<event>
 4    1  0.1735226E+006  0.2675420E+01  0.7546771E-02  0.2635905E+00
         22   -1    0    0    0    0  0.00000000000E+00  0.00000000000E+00  0.44335273277E+01  0.44335273277E+01  0.00000000000E+00 0. -1.
         22   -1    0    0    0    0 -0.00000000000E+00 -0.00000000000E+00 -0.40204064917E+01  0.40204064917E+01  0.00000000000E+00 0.  1.
          4    1    1    2  501    0  0.23506575872E+01 -0.13921611560E+00  0.34764599631E+01  0.43867580392E+01  0.12700000000E+01 0. -1.
         -4    1    1    2    0  501 -0.23506575872E+01  0.13921611560E+00 -0.30633391272E+01  0.40671757802E+01  0.12700000000E+01 0.  1.
<mgrwt>
<rscale>  0 0.26754200E+01</rscale>
<asrwt>0</asrwt>
<pdfrwt beam="1">0</pdfrwt>
<pdfrwt beam="2">0</pdfrwt>
<totfact> 0.83694616E+11</totfact>
</mgrwt>
</event>
<event>
 4    1  0.1735226E+006  0.2600271E+01  0.7546771E-02  0.2665909E+00
         22   -1    0    0    0    0  0.00000000000E+00  0.00000000000E+00  0.10920810083E+02  0.10920810083E+02  0.00000000000E+00 0.  1.
         22   -1    0    0    0    0 -0.00000000000E+00 -0.00000000000E+00 -0.49239533852E+01  0.49239533852E+01  0.00000000000E+00 0. -1.
          4    1    1    2  501    0 -0.13862951396E+01  0.17963008303E+01  0.10406009577E+02  0.10725970641E+02  0.12700000000E+01 0.  1.
         -4    1    1    2    0  501  0.13862951396E+01 -0.17963008303E+01 -0.44091528794E+01  0.51187928265E+01  0.12700000000E+01 0. -1.
<mgrwt>
<rscale>  0 0.26002713E+01</rscale>
<asrwt>0</asrwt>
<pdfrwt beam="1">0</pdfrwt>
<pdfrwt beam="2">0</pdfrwt>
<totfact> 0.22406966E+11</totfact>
</mgrwt>
</event>
<event>
 4    1  0.1735226E+006  0.2516650E+01  0.7546771E-02  0.2701235E+00
         22   -1    0    0    0    0  0.00000000000E+00  0.00000000000E+00  0.68833590942E+00  0.68833590942E+00  0.00000000000E+00 0.  1.
         22   -1    0    0    0    0 -0.00000000000E+00 -0.00000000000E+00 -0.10160965104E+02  0.10160965104E+02  0.00000000000E+00 0. -1.
          4    1    1    2  501    0 -0.10815645225E+01  0.18843688397E+01 -0.30691325560E+01  0.39690178113E+01  0.12700000000E+01 0.  1.
         -4    1    1    2    0  501  0.10815645225E+01 -0.18843688397E+01 -0.64034966383E+01  0.68802832018E+01  0.12700000000E+01 0. -1.
<mgrwt>
<rscale>  0 0.25166501E+01</rscale>
<asrwt>0</asrwt>
<pdfrwt beam="1">0</pdfrwt>
<pdfrwt beam="2">0</pdfrwt>
<totfact> 0.23809795E+12</totfact>
</mgrwt>
</event>
<event>
 4    1  0.1735226E+006  0.2460958E+01  0.7546771E-02  0.2725997E+00
         22   -1    0    0    0    0  0.00000000000E+00  0.00000000000E+00  0.10983048436E+02  0.10983048436E+02  0.00000000000E+00 0. -1.
         22   -1    0    0    0    0 -0.00000000000E+00 -0.00000000000E+00 -0.62107991006E+00  0.62107991006E+00  0.00000000000E+00 0.  1.
          4    1    1    2  501    0 -0.21078890752E+01 -0.14698834920E-01  0.32379120825E+01  0.40669874678E+01  0.12700000000E+01 0.  1.
         -4    1    1    2    0  501  0.21078890752E+01  0.14698834920E-01  0.71240564432E+01  0.75371408780E+01  0.12700000000E+01 0. -1.
<mgrwt>
<rscale>  0 0.24609576E+01</rscale>
<asrwt>0</asrwt>
<pdfrwt beam="1">0</pdfrwt>
<pdfrwt beam="2">0</pdfrwt>
<totfact> 0.24343758E+12</totfact>
</mgrwt>
</event>
<event>
 4    1  0.1735226E+006  0.3970719E+01  0.7546771E-02  0.2282927E+00
         22   -1    0    0    0    0  0.00000000000E+00  0.00000000000E+00  0.29996480313E+01  0.29996480313E+01  0.00000000000E+00 0.  1.
         22   -1    0    0    0    0 -0.00000000000E+00 -0.00000000000E+00 -0.99325201298E+01  0.99325201298E+01  0.00000000000E+00 0. -1.
          4    1    1    2  501    0 -0.14789640215E+00 -0.37592329631E+01  0.97032428440E+00  0.40875585664E+01  0.12700000000E+01 0.  1.
         -4    1    1    2    0  501  0.14789640215E+00  0.37592329631E+01 -0.79031963829E+01  0.88446095947E+01  0.12700000000E+01 0. -1.
<mgrwt>
<rscale>  0 0.39707186E+01</rscale>
<asrwt>0</asrwt>
<pdfrwt beam="1">0</pdfrwt>
<pdfrwt beam="2">0</pdfrwt>
<totfact> 0.45018958E+11</totfact>
</mgrwt>
</event>
<event>
 4    1  0.1735226E+006  0.9399684E+01  0.7546771E-02  0.1804738E+00
         22   -1    0    0    0    0  0.00000000000E+00  0.00000000000E+00  0.17146874272E+02  0.17146874272E+02  0.00000000000E+00 0. -1.
         22   -1    0    0    0    0 -0.00000000000E+00 -0.00000000000E+00 -0.51767817875E+01  0.51767817875E+01  0.00000000000E+00 0.  1.
          4    1    1    2  501    0 -0.25838447461E+01  0.89478992964E+01  0.67450841822E+01  0.11569365415E+02  0.12700000000E+01 0.  1.
         -4    1    1    2    0  501  0.25838447461E+01 -0.89478992964E+01  0.52250083019E+01  0.10754290644E+02  0.12700000000E+01 0. -1.
<mgrwt>
<rscale>  0 0.93996838E+01</rscale>
<asrwt>0</asrwt>
<pdfrwt beam="1">0</pdfrwt>
<pdfrwt beam="2">0</pdfrwt>
<totfact> 0.12145775E+11</totfact>
</mgrwt>
</event>
<event>
 4    1  0.1735226E+006  0.3237063E+01  0.7546771E-02  0.2452188E+00
         22   -1    0    0    0    0  0.00000000000E+00  0.00000000000E+00  0.85192608440E+01  0.85192608440E+01  0.00000000000E+00 0. -1.
         22   -1    0    0    0    0 -0.00000000000E+00 -0.00000000000E+00 -0.14729057150E+01  0.14729057150E+01  0.00000000000E+00 0.  1.
          4    1    1    2  501    0  0.26792566899E+00 -0.29654502308E+01  0.55521342343E+01  0.64268790086E+01  0.12700000000E+01 0. -1.
         -4    1    1    2    0  501 -0.26792566899E+00  0.29654502308E+01  0.14942208947E+01  0.35652875505E+01  0.12700000000E+01 0.  1.
<mgrwt>
<rscale>  0 0.32370634E+01</rscale>
<asrwt>0</asrwt>
<pdfrwt beam="1">0</pdfrwt>
<pdfrwt beam="2">0</pdfrwt>
<totfact> 0.12354753E+12</totfact>
</mgrwt>
</event>
<event>
 4    1  0.1735226E+006  0.2272920E+01  0.7546771E-02  0.2817980E+00
         22   -1    0    0    0    0  0.00000000000E+00  0.00000000000E+00  0.54962128692E+01  0.54962128692E+01  0.00000000000E+00 0. -1.
         22   -1    0    0    0    0 -0.00000000000E+00 -0.00000000000E+00 -0.11400609207E+01  0.11400609207E+01  0.00000000000E+00 0.  1.
          4    1    1    2  501    0 -0.13696834095E+01 -0.12950802030E+01  0.35682387258E+01  0.42306610569E+01  0.12700000000E+01 0.  1.
         -4    1    1    2    0  501  0.13696834095E+01  0.12950802030E+01  0.78791322275E+00  0.24056127330E+01  0.12700000000E+01 0.  1.
<mgrwt>
<rscale>  0 0.22729200E+01</rscale>
<asrwt>0</asrwt>
<pdfrwt beam="1">0</pdfrwt>
<pdfrwt beam="2">0</pdfrwt>
<totfact> 0.27988903E+12</totfact>
</mgrwt>
</event>
<event>
 4    1  0.1735226E+006  0.2457530E+01  0.7546771E-02  0.2727555E+00
         22   -1    0    0    0    0  0.00000000000E+00  0.00000000000E+00  0.24647420682E+00  0.24647420682E+00  0.00000000000E+00 0. -1.
         22   -1    0    0    0    0 -0.00000000000E+00 -0.00000000000E+00 -0.42009157234E+02  0.42009157234E+02  0.00000000000E+00 0. -1.
          4    1    1    2  501    0 -0.78830082737E+00  0.19506755429E+01 -0.72426342494E+01  0.76482157486E+01  0.12700000000E+01 0. -1.
         -4    1    1    2    0  501  0.78830082737E+00 -0.19506755429E+01 -0.34520048778E+02  0.34607415692E+02  0.12700000000E+01 0. -1.
<mgrwt>
<rscale>  0 0.24575299E+01</rscale>
<asrwt>0</asrwt>
<pdfrwt beam="1">0</pdfrwt>
<pdfrwt beam="2">0</pdfrwt>
<totfact> 0.12811629E+12</totfact>
</mgrwt>
</event>
<event>
 4    1  0.1735226E+006  0.2375116E+01  0.7546771E-02  0.2766286E+00
         22   -1    0    0    0    0  0.00000000000E+00  0.00000000000E+00  0.28639352554E+01  0.28639352554E+01  0.00000000000E+00 0.  1.
         22   -1    0    0    0    0 -0.00000000000E+00 -0.00000000000E+00 -0.19814910947E+01  0.19814910947E+01  0.00000000000E+00 0. -1.
          4    1    1    2  501    0 -0.18314864018E+01 -0.82093490663E+00  0.25456401284E+00  0.23887191960E+01  0.12700000000E+01 0. -1.
         -4    1    1    2    0  501  0.18314864018E+01  0.82093490663E+00  0.62788014786E+00  0.24567071541E+01  0.12700000000E+01 0.  1.
<mgrwt>
<rscale>  0 0.23751161E+01</rscale>
<asrwt>0</asrwt>
<pdfrwt beam="1">0</pdfrwt>
<pdfrwt beam="2">0</pdfrwt>
<totfact> 0.31904733E+12</totfact>
</mgrwt>
</event>
<event>
 4    1  0.1735226E+006  0.2862277E+01  0.7546771E-02  0.2567578E+00
         22   -1    0    0    0    0  0.00000000000E+00  0.00000000000E+00  0.46376149614E+00  0.46376149614E+00  0.00000000000E+00 0. -1.
         22   -1    0    0    0    0 -0.00000000000E+00 -0.00000000000E+00 -0.32131497041E+02  0.32131497041E+02  0.00000000000E+00 0.  1.
          4    1    1    2  501    0  0.82730922668E+00  0.24280219385E+01 -0.48985490684E+01  0.56734834155E+01  0.12700000000E+01 0. -1.
         -4    1    1    2    0  501 -0.82730922668E+00 -0.24280219385E+01 -0.26769186476E+02  0.26921775122E+02  0.12700000000E+01 0.  1.
<mgrwt>
<rscale>  0 0.28622773E+01</rscale>
<asrwt>0</asrwt>
<pdfrwt beam="1">0</pdfrwt>
<pdfrwt beam="2">0</pdfrwt>
<totfact> 0.89033312E+11</totfact>
</mgrwt>
</event>
<event>
 4    1  0.1735226E+006  0.2531587E+01  0.7546771E-02  0.2694766E+00
         22   -1    0    0    0    0  0.00000000000E+00  0.00000000000E+00  0.16898745946E+01  0.16898745946E+01  0.00000000000E+00 0. -1.
         22   -1    0    0    0    0 -0.00000000000E+00 -0.00000000000E+00 -0.38365009194E+01  0.38365009194E+01  0.00000000000E+00 0.  1.
          4    1    1    2  501    0  0.11345011077E+01 -0.18732170019E+01 -0.77756342347E+00  0.26483088145E+01  0.12700000000E+01 0. -1.
         -4    1    1    2    0  501 -0.11345011077E+01  0.18732170019E+01 -0.13690629013E+01  0.28780666996E+01  0.12700000000E+01 0.  1.
<mgrwt>
<rscale>  0 0.25315874E+01</rscale>
<asrwt>0</asrwt>
<pdfrwt beam="1">0</pdfrwt>
<pdfrwt beam="2">0</pdfrwt>
<totfact> 0.27229410E+12</totfact>
</mgrwt>
</event>
<event>
 4    1  0.1735226E+006  0.2450894E+01  0.7546771E-02  0.2730583E+00
         22   -1    0    0    0    0  0.00000000000E+00  0.00000000000E+00  0.22028586044E+01  0.22028586044E+01  0.00000000000E+00 0.  1.
         22   -1    0    0    0    0 -0.00000000000E+00 -0.00000000000E+00 -0.90820654686E+01  0.90820654686E+01  0.00000000000E+00 0. -1.
          4    1    1    2  501    0  0.10297841321E+01  0.18257953000E+01  0.12803876602E+01  0.27651901195E+01  0.12700000000E+01 0.  1.
         -4    1    1    2    0  501 -0.10297841321E+01 -0.18257953000E+01 -0.81595945245E+01  0.85197339536E+01  0.12700000000E+01 0. -1.
<mgrwt>
<rscale>  0 0.24508945E+01</rscale>
<asrwt>0</asrwt>
<pdfrwt beam="1">0</pdfrwt>
<pdfrwt beam="2">0</pdfrwt>
<totfact> 0.71851264E+11</totfact>
</mgrwt>
</event>
<event>
 4    1  0.1735226E+006  0.2734500E+01  0.7546771E-02  0.2613382E+00
         22   -1    0    0    0    0  0.00000000000E+00  0.00000000000E+00  0.44354947736E+00  0.44354947736E+00  0.00000000000E+00 0.  1.
         22   -1    0    0    0    0 -0.00000000000E+00 -0.00000000000E+00 -0.18492565012E+02  0.18492565012E+02  0.00000000000E+00 0.  1.
          4    1    1    2  501    0 -0.10162863967E+01  0.21981250271E+01 -0.62098662852E+01  0.67852730936E+01  0.12700000000E+01 0.  1.
         -4    1    1    2    0  501  0.10162863967E+01 -0.21981250271E+01 -0.11839149249E+02  0.12150841396E+02  0.12700000000E+01 0.  1.
<mgrwt>
<rscale>  0 0.27345003E+01</rscale>
<asrwt>0</asrwt>
<pdfrwt beam="1">0</pdfrwt>
<pdfrwt beam="2">0</pdfrwt>
<totfact> 0.18780678E+12</totfact>
</mgrwt>
</event>
<event>
 4    1  0.1735226E+006  0.2206921E+01  0.7546771E-02  0.2853779E+00
         22   -1    0    0    0    0  0.00000000000E+00  0.00000000000E+00  0.30345821021E+00  0.30345821021E+00  0.00000000000E+00 0. -1.
         22   -1    0    0    0    0 -0.00000000000E+00 -0.00000000000E+00 -0.17208903019E+02  0.17208903019E+02  0.00000000000E+00 0.  1.
          4    1    1    2  501    0  0.17990713651E+01  0.14471467288E+00 -0.61804299103E+01  0.65626377311E+01  0.12700000000E+01 0. -1.
         -4    1    1    2    0  501 -0.17990713651E+01 -0.14471467288E+00 -0.10725014899E+02  0.10949723499E+02  0.12700000000E+01 0.  1.
<mgrwt>
<rscale>  0 0.22069210E+01</rscale>
<asrwt>0</asrwt>
<pdfrwt beam="1">0</pdfrwt>
<pdfrwt beam="2">0</pdfrwt>
<totfact> 0.31460696E+12</totfact>
</mgrwt>
</event>
<event>
 4    1  0.1735226E+006  0.2006062E+01  0.7546771E-02  0.2976648E+00
         22   -1    0    0    0    0  0.00000000000E+00  0.00000000000E+00  0.35886221492E+02  0.35886221492E+02  0.00000000000E+00 0. -1.
         22   -1    0    0    0    0 -0.00000000000E+00 -0.00000000000E+00 -0.18845362601E+00  0.18845362601E+00  0.00000000000E+00 0.  1.
          4    1    1    2  501    0 -0.82531629947E+00  0.13153848017E+01  0.29327009395E+02  0.29395539869E+02  0.12700000000E+01 0. -1.
         -4    1    1    2    0  501  0.82531629947E+00 -0.13153848017E+01  0.63707584709E+01  0.66791352483E+01  0.12700000000E+01 0.  1.
<mgrwt>
<rscale>  0 0.20060619E+01</rscale>
<asrwt>0</asrwt>
<pdfrwt beam="1">0</pdfrwt>
<pdfrwt beam="2">0</pdfrwt>
<totfact> 0.21199759E+12</totfact>
</mgrwt>
</event>
<event>
 4    1  0.1735226E+006  0.3718337E+01  0.7546771E-02  0.2334601E+00
         22   -1    0    0    0    0  0.00000000000E+00  0.00000000000E+00  0.86608372550E+01  0.86608372550E+01  0.00000000000E+00 0. -1.
         22   -1    0    0    0    0 -0.00000000000E+00 -0.00000000000E+00 -0.19838357184E+01  0.19838357184E+01  0.00000000000E+00 0.  1.
          4    1    1    2  501    0 -0.77246295704E+00  0.34082882519E+01  0.56906122131E+01  0.67977272076E+01  0.12700000000E+01 0. -1.
         -4    1    1    2    0  501  0.77246295704E+00 -0.34082882519E+01  0.98638932352E+00  0.38469457659E+01  0.12700000000E+01 0.  1.
<mgrwt>
<rscale>  0 0.37183367E+01</rscale>
<asrwt>0</asrwt>
<pdfrwt beam="1">0</pdfrwt>
<pdfrwt beam="2">0</pdfrwt>
<totfact> 0.85903051E+11</totfact>
</mgrwt>
</event>
<event>
 4    1  0.1735226E+006  0.2303546E+01  0.7546771E-02  0.2802033E+00
         22   -1    0    0    0    0  0.00000000000E+00  0.00000000000E+00  0.86777739694E+00  0.86777739694E+00  0.00000000000E+00 0. -1.
         22   -1    0    0    0    0 -0.00000000000E+00 -0.00000000000E+00 -0.61523357281E+01  0.61523357281E+01  0.00000000000E+00 0.  1.
          4    1    1    2  501    0  0.13609965258E+00 -0.19170031058E+01 -0.23682746418E+01  0.33037930931E+01  0.12700000000E+01 0.  1.
         -4    1    1    2    0  501 -0.13609965258E+00  0.19170031058E+01 -0.29162836893E+01  0.37163200319E+01  0.12700000000E+01 0. -1.
<mgrwt>
<rscale>  0 0.23035460E+01</rscale>
<asrwt>0</asrwt>
<pdfrwt beam="1">0</pdfrwt>
<pdfrwt beam="2">0</pdfrwt>
<totfact> 0.33425329E+12</totfact>
</mgrwt>
</event>
<event>
 4    1  0.1735226E+006  0.2109535E+01  0.7546771E-02  0.2910520E+00
         22   -1    0    0    0    0  0.00000000000E+00  0.00000000000E+00  0.74426005343E+02  0.74426005343E+02  0.00000000000E+00 0.  1.
         22   -1    0    0    0    0 -0.00000000000E+00 -0.00000000000E+00 -0.85879934087E+00  0.85879934087E+00  0.00000000000E+00 0.  1.
          4    1    1    2  501    0 -0.86624950278E+00  0.14445929375E+01  0.73091965003E+02  0.73122400706E+02  0.12700000000E+01 0.  1.
         -4    1    1    2    0  501  0.86624950278E+00 -0.14445929375E+01  0.47524099865E+00  0.21624039778E+01  0.12700000000E+01 0.  1.
<mgrwt>
<rscale>  0 0.21095348E+01</rscale>
<asrwt>0</asrwt>
<pdfrwt beam="1">0</pdfrwt>
<pdfrwt beam="2">0</pdfrwt>
<totfact> 0.14630177E+11</totfact>
</mgrwt>
</event>
<event>
 4    1  0.1735226E+006  0.5313703E+01  0.7546771E-02  0.2087321E+00
         22   -1    0    0    0    0  0.00000000000E+00  0.00000000000E+00  0.74862731001E+01  0.74862731001E+01  0.00000000000E+00 0.  1.
         22   -1    0    0    0    0 -0.00000000000E+00 -0.00000000000E+00 -0.41041567776E+01  0.41041567776E+01  0.00000000000E+00 0. -1.
          4    1    1    2  501    0 -0.39593872337E+01  0.33084430464E+01  0.41484466822E-01  0.53138652240E+01  0.12700000000E+01 0. -1.
         -4    1    1    2    0  501  0.39593872337E+01 -0.33084430464E+01  0.33406318556E+01  0.62765646537E+01  0.12700000000E+01 0.  1.
<mgrwt>
<rscale>  0 0.53137033E+01</rscale>
<asrwt>0</asrwt>
<pdfrwt beam="1">0</pdfrwt>
<pdfrwt beam="2">0</pdfrwt>
<totfact> 0.43815741E+11</totfact>
</mgrwt>
</event>
<event>
 4    1  0.1735226E+006  0.2301760E+01  0.7546771E-02  0.2802952E+00
         22   -1    0    0    0    0  0.00000000000E+00  0.00000000000E+00  0.33578586616E+02  0.33578586616E+02  0.00000000000E+00 0.  1.
         22   -1    0    0    0    0 -0.00000000000E+00 -0.00000000000E+00 -0.16016876564E+00  0.16016876564E+00  0.00000000000E+00 0. -1.
          4    1    1    2  501    0  0.23343018775E+00 -0.19054425025E+01  0.18768432856E+02  0.18909050020E+02  0.12700000000E+01 0.  1.
         -4    1    1    2    0  501 -0.23343018775E+00  0.19054425025E+01  0.14649984995E+02  0.14829705362E+02  0.12700000000E+01 0. -1.
<mgrwt>
<rscale>  0 0.23017604E+01</rscale>
<asrwt>0</asrwt>
<pdfrwt beam="1">0</pdfrwt>
<pdfrwt beam="2">0</pdfrwt>
<totfact> 0.27678523E+12</totfact>
</mgrwt>
</event>
<event>
 4    1  0.1735226E+006  0.2932231E+01  0.7546771E-02  0.2544039E+00
         22   -1    0    0    0    0  0.00000000000E+00  0.00000000000E+00  0.46116631179E+01  0.46116631179E+01  0.00000000000E+00 0. -1.
         22   -1    0    0    0    0 -0.00000000000E+00 -0.00000000000E+00 -0.20098674519E+01  0.20098674519E+01  0.00000000000E+00 0.  1.
          4    1    1    2  501    0 -0.23767279199E+01 -0.11559605011E+01  0.21915928738E+01  0.36607457724E+01  0.12700000000E+01 0. -1.
         -4    1    1    2    0  501  0.23767279199E+01  0.11559605011E+01  0.41020279224E+00  0.29607847974E+01  0.12700000000E+01 0.  1.
<mgrwt>
<rscale>  0 0.29322313E+01</rscale>
<asrwt>0</asrwt>
<pdfrwt beam="1">0</pdfrwt>
<pdfrwt beam="2">0</pdfrwt>
<totfact> 0.17941079E+12</totfact>
</mgrwt>
</event>
<event>
 4    1  0.1735226E+006  0.4122536E+01  0.7546771E-02  0.2254466E+00
         22   -1    0    0    0    0  0.00000000000E+00  0.00000000000E+00  0.52233136192E+01  0.52233136192E+01  0.00000000000E+00 0. -1.
         22   -1    0    0    0    0 -0.00000000000E+00 -0.00000000000E+00 -0.33540748642E+01  0.33540748642E+01  0.00000000000E+00 0.  1.
          4    1    1    2  501    0  0.17873842974E+01  0.34910831690E+01  0.16763815783E+01  0.44503437525E+01  0.12700000000E+01 0. -1.
         -4    1    1    2    0  501 -0.17873842974E+01 -0.34910831690E+01  0.19285717675E+00  0.41270447308E+01  0.12700000000E+01 0.  1.
<mgrwt>
<rscale>  0 0.41225362E+01</rscale>
<asrwt>0</asrwt>
<pdfrwt beam="1">0</pdfrwt>
<pdfrwt beam="2">0</pdfrwt>
<totfact> 0.85290288E+11</totfact>
</mgrwt>
</event>
<event>
 4    1  0.1735226E+006  0.2475745E+01  0.7546771E-02  0.2719321E+00
         22   -1    0    0    0    0  0.00000000000E+00  0.00000000000E+00  0.21709043109E+01  0.21709043109E+01  0.00000000000E+00 0.  1.
         22   -1    0    0    0    0 -0.00000000000E+00 -0.00000000000E+00 -0.29635292660E+01  0.29635292660E+01  0.00000000000E+00 0. -1.
          4    1    1    2  501    0  0.16674498691E+01  0.13175819140E+01  0.16194773962E+00  0.24810357184E+01  0.12700000000E+01 0.  1.
         -4    1    1    2    0  501 -0.16674498691E+01 -0.13175819140E+01 -0.95457269470E+00  0.26533978585E+01  0.12700000000E+01 0. -1.
<mgrwt>
<rscale>  0 0.24757446E+01</rscale>
<asrwt>0</asrwt>
<pdfrwt beam="1">0</pdfrwt>
<pdfrwt beam="2">0</pdfrwt>
<totfact> 0.27580438E+12</totfact>
</mgrwt>
</event>
<event>
 4    1  0.1735226E+006  0.2201680E+01  0.7546771E-02  0.2856710E+00
         22   -1    0    0    0    0  0.00000000000E+00  0.00000000000E+00  0.15517711175E+01  0.15517711175E+01  0.00000000000E+00 0.  1.
         22   -1    0    0    0    0 -0.00000000000E+00 -0.00000000000E+00 -0.79554438844E+01  0.79554438844E+01  0.00000000000E+00 0. -1.
          4    1    1    2  501    0 -0.13628907680E+01 -0.11734673363E+01  0.50274650773E+00  0.22583513646E+01  0.12700000000E+01 0.  1.
         -4    1    1    2    0  501  0.13628907680E+01  0.11734673363E+01 -0.69064192746E+01  0.72488636373E+01  0.12700000000E+01 0. -1.
<mgrwt>
<rscale>  0 0.22016805E+01</rscale>
<asrwt>0</asrwt>
<pdfrwt beam="1">0</pdfrwt>
<pdfrwt beam="2">0</pdfrwt>
<totfact> 0.12632768E+12</totfact>
</mgrwt>
</event>
<event>
 4    1  0.1735226E+006  0.3322198E+01  0.7546771E-02  0.2429224E+00
         22   -1    0    0    0    0  0.00000000000E+00  0.00000000000E+00  0.22320156891E+01  0.22320156891E+01  0.00000000000E+00 0.  1.
         22   -1    0    0    0    0 -0.00000000000E+00 -0.00000000000E+00 -0.50788946897E+01  0.50788946897E+01  0.00000000000E+00 0.  1.
          4    1    1    2  501    0 -0.17946935630E+01 -0.24906169468E+01 -0.82959765878E+00  0.34242123235E+01  0.12700000000E+01 0.  1.
         -4    1    1    2    0  501  0.17946935630E+01  0.24906169468E+01 -0.20172813419E+01  0.38866980553E+01  0.12700000000E+01 0.  1.
<mgrwt>
<rscale>  0 0.33221977E+01</rscale>
<asrwt>0</asrwt>
<pdfrwt beam="1">0</pdfrwt>
<pdfrwt beam="2">0</pdfrwt>
<totfact> 0.14174555E+12</totfact>
</mgrwt>
</event>
<event>
 4    1  0.1735226E+006  0.2239576E+01  0.7546771E-02  0.2835816E+00
         22   -1    0    0    0    0  0.00000000000E+00  0.00000000000E+00  0.64320122022E+00  0.64320122022E+00  0.00000000000E+00 0. -1.
         22   -1    0    0    0    0 -0.00000000000E+00 -0.00000000000E+00 -0.91421344559E+01  0.91421344559E+01  0.00000000000E+00 0. -1.
          4    1    1    2  501    0  0.87332490425E+00  0.16248392224E+01 -0.23734385740E+01  0.32632666994E+01  0.12700000000E+01 0. -1.
         -4    1    1    2    0  501 -0.87332490425E+00 -0.16248392224E+01 -0.61254946617E+01  0.65220689767E+01  0.12700000000E+01 0. -1.
<mgrwt>
<rscale>  0 0.22395756E+01</rscale>
<asrwt>0</asrwt>
<pdfrwt beam="1">0</pdfrwt>
<pdfrwt beam="2">0</pdfrwt>
<totfact> 0.29217162E+12</totfact>
</mgrwt>
</event>
<event>
 4    1  0.1735226E+006  0.2475583E+01  0.7546771E-02  0.2719393E+00
         22   -1    0    0    0    0  0.00000000000E+00  0.00000000000E+00  0.10211390355E+00  0.10211390355E+00  0.00000000000E+00 0.  1.
         22   -1    0    0    0    0 -0.00000000000E+00 -0.00000000000E+00 -0.74459204280E+02  0.74459204280E+02  0.00000000000E+00 0.  1.
          4    1    1    2  501    0 -0.11456169069E+01 -0.17897414153E+01 -0.20759434650E+02  0.20906521457E+02  0.12700000000E+01 0.  1.
         -4    1    1    2    0  501  0.11456169069E+01  0.17897414153E+01 -0.53597655727E+02  0.53654796727E+02  0.12700000000E+01 0.  1.
<mgrwt>
<rscale>  0 0.24755833E+01</rscale>
<asrwt>0</asrwt>
<pdfrwt beam="1">0</pdfrwt>
<pdfrwt beam="2">0</pdfrwt>
<totfact> 0.15936791E+12</totfact>
</mgrwt>
</event>
<event>
 4    1  0.1735226E+006  0.2118026E+01  0.7546771E-02  0.2905372E+00
         22   -1    0    0    0    0  0.00000000000E+00  0.00000000000E+00  0.81169456202E+01  0.81169456202E+01  0.00000000000E+00 0.  1.
         22   -1    0    0    0    0 -0.00000000000E+00 -0.00000000000E+00 -0.22632716896E+01  0.22632716896E+01  0.00000000000E+00 0.  1.
          4    1    1    2  501    0 -0.13880104762E+01  0.97291421081E+00  0.74389698694E+01  0.77346174994E+01  0.12700000000E+01 0.  1.
         -4    1    1    2    0  501  0.13880104762E+01 -0.97291421081E+00 -0.15852959388E+01  0.26455998105E+01  0.12700000000E+01 0.  1.
<mgrwt>
<rscale>  0 0.21180262E+01</rscale>
<asrwt>0</asrwt>
<pdfrwt beam="1">0</pdfrwt>
<pdfrwt beam="2">0</pdfrwt>
<totfact> 0.79714675E+11</totfact>
</mgrwt>
</event>
<event>
 4    1  0.1735226E+006  0.2244222E+01  0.7546771E-02  0.2833300E+00
         22   -1    0    0    0    0  0.00000000000E+00  0.00000000000E+00  0.43365521413E+00  0.43365521413E+00  0.00000000000E+00 0.  1.
         22   -1    0    0    0    0 -0.00000000000E+00 -0.00000000000E+00 -0.13226400463E+02  0.13226400463E+02  0.00000000000E+00 0. -1.
          4    1    1    2  501    0  0.11973258360E+01  0.14106892832E+01 -0.40117540741E+01  0.45968145669E+01  0.12700000000E+01 0.  1.
         -4    1    1    2    0  501 -0.11973258360E+01 -0.14106892832E+01 -0.87809911745E+01  0.90632411100E+01  0.12700000000E+01 0. -1.
<mgrwt>
<rscale>  0 0.22442222E+01</rscale>
<asrwt>0</asrwt>
<pdfrwt beam="1">0</pdfrwt>
<pdfrwt beam="2">0</pdfrwt>
<totfact> 0.29120507E+12</totfact>
</mgrwt>
</event>
<event>
 4    1  0.1735226E+006  0.3509876E+01  0.7546771E-02  0.2382075E+00
         22   -1    0    0    0    0  0.00000000000E+00  0.00000000000E+00  0.21930857883E+01  0.21930857883E+01  0.00000000000E+00 0. -1.
         22   -1    0    0    0    0 -0.00000000000E+00 -0.00000000000E+00 -0.80797098889E+01  0.80797098889E+01  0.00000000000E+00 0.  1.
          4    1    1    2  501    0  0.10754521671E+01  0.30902636999E+01 -0.10773997398E+00  0.35115288694E+01  0.12700000000E+01 0. -1.
         -4    1    1    2    0  501 -0.10754521671E+01 -0.30902636999E+01 -0.57788841266E+01  0.67612668078E+01  0.12700000000E+01 0.  1.
<mgrwt>
<rscale>  0 0.35098757E+01</rscale>
<asrwt>0</asrwt>
<pdfrwt beam="1">0</pdfrwt>
<pdfrwt beam="2">0</pdfrwt>
<totfact> 0.83147725E+11</totfact>
</mgrwt>
</event>
<event>
 4    1  0.1735226E+006  0.2127540E+01  0.7546771E-02  0.2899652E+00
         22   -1    0    0    0    0  0.00000000000E+00  0.00000000000E+00  0.11857902624E+01  0.11857902624E+01  0.00000000000E+00 0. -1.
         22   -1    0    0    0    0 -0.00000000000E+00 -0.00000000000E+00 -0.38444240099E+01  0.38444240099E+01  0.00000000000E+00 0.  1.
          4    1    1    2  501    0 -0.17066717496E+01 -0.28257610735E-01 -0.11177605452E+01  0.24032926559E+01  0.12700000000E+01 0. -1.
         -4    1    1    2    0  501  0.17066717496E+01  0.28257610735E-01 -0.15408732023E+01  0.26269216164E+01  0.12700000000E+01 0.  1.
<mgrwt>
<rscale>  0 0.21275401E+01</rscale>
<asrwt>0</asrwt>
<pdfrwt beam="1">0</pdfrwt>
<pdfrwt beam="2">0</pdfrwt>
<totfact> 0.40811834E+12</totfact>
</mgrwt>
</event>
<event>
 4    1  0.1735226E+006  0.6204757E+01  0.7546771E-02  0.2001798E+00
         22   -1    0    0    0    0  0.00000000000E+00  0.00000000000E+00  0.27241793364E+01  0.27241793364E+01  0.00000000000E+00 0. -1.
         22   -1    0    0    0    0 -0.00000000000E+00 -0.00000000000E+00 -0.46402003677E+02  0.46402003677E+02  0.00000000000E+00 0.  1.
          4    1    1    2  501    0  0.15117432578E+01 -0.58822394287E+01 -0.13550460549E+01  0.63509966293E+01  0.12700000000E+01 0. -1.
         -4    1    1    2    0  501 -0.15117432578E+01  0.58822394287E+01 -0.42322778285E+02  0.42775186384E+02  0.12700000000E+01 0.  1.
<mgrwt>
<rscale>  0 0.62047569E+01</rscale>
<asrwt>0</asrwt>
<pdfrwt beam="1">0</pdfrwt>
<pdfrwt beam="2">0</pdfrwt>
<totfact> 0.72830801E+10</totfact>
</mgrwt>
</event>
<event>
 4    1  0.1735226E+006  0.2108888E+01  0.7546771E-02  0.2910914E+00
         22   -1    0    0    0    0  0.00000000000E+00  0.00000000000E+00  0.29718780466E+00  0.29718780466E+00  0.00000000000E+00 0. -1.
         22   -1    0    0    0    0 -0.00000000000E+00 -0.00000000000E+00 -0.14965759025E+02  0.14965759025E+02  0.00000000000E+00 0.  1.
          4    1    1    2  501    0 -0.15632347623E+01  0.62514334080E+00 -0.72789370972E+01  0.75782803052E+01  0.12700000000E+01 0. -1.
         -4    1    1    2    0  501  0.15632347623E+01 -0.62514334080E+00 -0.73896341229E+01  0.76846665243E+01  0.12700000000E+01 0.  1.
<mgrwt>
<rscale>  0 0.21088876E+01</rscale>
<asrwt>0</asrwt>
<pdfrwt beam="1">0</pdfrwt>
<pdfrwt beam="2">0</pdfrwt>
<totfact> 0.38263973E+12</totfact>
</mgrwt>
</event>
<event>
 4    1  0.1735226E+006  0.2424196E+01  0.7546771E-02  0.2742923E+00
         22   -1    0    0    0    0  0.00000000000E+00  0.00000000000E+00  0.11838252334E+02  0.11838252334E+02  0.00000000000E+00 0. -1.
         22   -1    0    0    0    0 -0.00000000000E+00 -0.00000000000E+00 -0.19225751334E+01  0.19225751334E+01  0.00000000000E+00 0. -1.
          4    1    1    2  501    0 -0.11301598851E+01 -0.17281686919E+01  0.10883768297E+02  0.11150477153E+02  0.12700000000E+01 0. -1.
         -4    1    1    2    0  501  0.11301598851E+01  0.17281686919E+01 -0.96809109650E+00  0.26103503145E+01  0.12700000000E+01 0. -1.
<mgrwt>
<rscale>  0 0.24241964E+01</rscale>
<asrwt>0</asrwt>
<pdfrwt beam="1">0</pdfrwt>
<pdfrwt beam="2">0</pdfrwt>
<totfact> 0.60997705E+11</totfact>
</mgrwt>
</event>
<event>
 4    1  0.1735226E+006  0.2053993E+01  0.7546771E-02  0.2945208E+00
         22   -1    0    0    0    0  0.00000000000E+00  0.00000000000E+00  0.47901585283E+00  0.47901585283E+00  0.00000000000E+00 0.  1.
         22   -1    0    0    0    0 -0.00000000000E+00 -0.00000000000E+00 -0.15711111001E+02  0.15711111001E+02  0.00000000000E+00 0. -1.
          4    1    1    2  501    0  0.46066772385E+00  0.15471824254E+01 -0.22499588751E+01  0.30465067124E+01  0.12700000000E+01 0.  1.
         -4    1    1    2    0  501 -0.46066772385E+00 -0.15471824254E+01 -0.12982136273E+02  0.13143620141E+02  0.12700000000E+01 0. -1.
<mgrwt>
<rscale>  0 0.20539932E+01</rscale>
<asrwt>0</asrwt>
<pdfrwt beam="1">0</pdfrwt>
<pdfrwt beam="2">0</pdfrwt>
<totfact> 0.21066910E+12</totfact>
</mgrwt>
</event>
<event>
 4    1  0.1735226E+006  0.2004286E+01  0.7546771E-02  0.2977841E+00
         22   -1    0    0    0    0  0.00000000000E+00  0.00000000000E+00  0.22873756631E+02  0.22873756631E+02  0.00000000000E+00 0.  1.
         22   -1    0    0    0    0 -0.00000000000E+00 -0.00000000000E+00 -0.36106649060E+00  0.36106649060E+00  0.00000000000E+00 0.  1.
          4    1    1    2  501    0  0.15493710186E+01 -0.60933376708E-01  0.19582055254E+02  0.19684360579E+02  0.12700000000E+01 0.  1.
         -4    1    1    2    0  501 -0.15493710186E+01  0.60933376708E-01  0.29306348865E+01  0.35504625428E+01  0.12700000000E+01 0.  1.
<mgrwt>
<rscale>  0 0.20042863E+01</rscale>
<asrwt>0</asrwt>
<pdfrwt beam="1">0</pdfrwt>
<pdfrwt beam="2">0</pdfrwt>
<totfact> 0.18152167E+12</totfact>
</mgrwt>
</event>
<event>
 4    1  0.1735226E+006  0.2498801E+01  0.7546771E-02  0.2709059E+00
         22   -1    0    0    0    0  0.00000000000E+00  0.00000000000E+00  0.98062660166E-01  0.98062660166E-01  0.00000000000E+00 0.  1.
         22   -1    0    0    0    0 -0.00000000000E+00 -0.00000000000E+00 -0.88434582502E+02  0.88434582502E+02  0.00000000000E+00 0.  1.
          4    1    1    2  501    0 -0.21381038846E+01  0.24417067264E+00 -0.20745078920E+02  0.20895030676E+02  0.12700000000E+01 0.  1.
         -4    1    1    2    0  501  0.21381038846E+01 -0.24417067264E+00 -0.67591440921E+02  0.67637614486E+02  0.12700000000E+01 0.  1.
<mgrwt>
<rscale>  0 0.24988012E+01</rscale>
<asrwt>0</asrwt>
<pdfrwt beam="1">0</pdfrwt>
<pdfrwt beam="2">0</pdfrwt>
<totfact> 0.13153318E+12</totfact>
</mgrwt>
</event>
<event>
 4    1  0.1735226E+006  0.2483687E+01  0.7546771E-02  0.2715766E+00
         22   -1    0    0    0    0  0.00000000000E+00  0.00000000000E+00  0.20269642921E+01  0.20269642921E+01  0.00000000000E+00 0.  1.
         22   -1    0    0    0    0 -0.00000000000E+00 -0.00000000000E+00 -0.73387891825E+01  0.73387891825E+01  0.00000000000E+00 0.  1.
          4    1    1    2  501    0  0.11474458935E+01 -0.17997694719E+01  0.92674918651E+00  0.26509557305E+01  0.12700000000E+01 0.  1.
         -4    1    1    2    0  501 -0.11474458935E+01  0.17997694719E+01 -0.62385740769E+01  0.67147977441E+01  0.12700000000E+01 0.  1.
<mgrwt>
<rscale>  0 0.24836872E+01</rscale>
<asrwt>0</asrwt>
<pdfrwt beam="1">0</pdfrwt>
<pdfrwt beam="2">0</pdfrwt>
<totfact> 0.10223502E+12</totfact>
</mgrwt>
</event>
<event>
 4    1  0.1735226E+006  0.4037724E+01  0.7546771E-02  0.2270141E+00
         22   -1    0    0    0    0  0.00000000000E+00  0.00000000000E+00  0.27944808653E+01  0.27944808653E+01  0.00000000000E+00 0.  1.
         22   -1    0    0    0    0 -0.00000000000E+00 -0.00000000000E+00 -0.58672420740E+01  0.58672420740E+01  0.00000000000E+00 0. -1.
          4    1    1    2  501    0  0.27114055334E+01 -0.27089841964E+01 -0.18619927425E+01  0.44463729394E+01  0.12700000000E+01 0.  1.
         -4    1    1    2    0  501 -0.27114055334E+01  0.27089841964E+01 -0.12107684662E+01  0.42153499999E+01  0.12700000000E+01 0. -1.
<mgrwt>
<rscale>  0 0.40377240E+01</rscale>
<asrwt>0</asrwt>
<pdfrwt beam="1">0</pdfrwt>
<pdfrwt beam="2">0</pdfrwt>
<totfact> 0.91959189E+11</totfact>
</mgrwt>
</event>
<event>
 4    1  0.1735226E+006  0.3812843E+01  0.7546771E-02  0.2314564E+00
         22   -1    0    0    0    0  0.00000000000E+00  0.00000000000E+00  0.82005455108E+01  0.82005455108E+01  0.00000000000E+00 0.  1.
         22   -1    0    0    0    0 -0.00000000000E+00 -0.00000000000E+00 -0.19678155587E+01  0.19678155587E+01  0.00000000000E+00 0. -1.
          4    1    1    2  501    0  0.35195386004E+01 -0.73329620517E+00  0.47169693881E+01  0.60652762091E+01  0.12700000000E+01 0.  1.
         -4    1    1    2    0  501 -0.35195386004E+01  0.73329620517E+00  0.15157605640E+01  0.41030848604E+01  0.12700000000E+01 0. -1.
<mgrwt>
<rscale>  0 0.38128435E+01</rscale>
<asrwt>0</asrwt>
<pdfrwt beam="1">0</pdfrwt>
<pdfrwt beam="2">0</pdfrwt>
<totfact> 0.92603683E+11</totfact>
</mgrwt>
</event>
<event>
 4    1  0.1735226E+006  0.2347634E+01  0.7546771E-02  0.2779769E+00
         22   -1    0    0    0    0  0.00000000000E+00  0.00000000000E+00  0.10947468237E+02  0.10947468237E+02  0.00000000000E+00 0.  1.
         22   -1    0    0    0    0 -0.00000000000E+00 -0.00000000000E+00 -0.54386979948E+00  0.54386979948E+00  0.00000000000E+00 0.  1.
          4    1    1    2  501    0  0.31660655826E-01 -0.19742039243E+01  0.67683654923E+01  0.71639482807E+01  0.12700000000E+01 0.  1.
         -4    1    1    2    0  501 -0.31660655826E-01  0.19742039243E+01  0.36352329450E+01  0.43273897555E+01  0.12700000000E+01 0.  1.
<mgrwt>
<rscale>  0 0.23476336E+01</rscale>
<asrwt>0</asrwt>
<pdfrwt beam="1">0</pdfrwt>
<pdfrwt beam="2">0</pdfrwt>
<totfact> 0.28401818E+12</totfact>
</mgrwt>
</event>
<event>
 4    1  0.1735226E+006  0.2399942E+01  0.7546771E-02  0.2754356E+00
         22   -1    0    0    0    0  0.00000000000E+00  0.00000000000E+00  0.56160324581E+01  0.56160324581E+01  0.00000000000E+00 0. -1.
         22   -1    0    0    0    0 -0.00000000000E+00 -0.00000000000E+00 -0.11852253706E+01  0.11852253706E+01  0.00000000000E+00 0. -1.
          4    1    1    2  501    0 -0.17922126645E+01 -0.96684937763E+00  0.34634445420E+01  0.42136886512E+01  0.12700000000E+01 0. -1.
         -4    1    1    2    0  501  0.17922126645E+01  0.96684937763E+00  0.96736254561E+00  0.25875691775E+01  0.12700000000E+01 0. -1.
<mgrwt>
<rscale>  0 0.23999425E+01</rscale>
<asrwt>0</asrwt>
<pdfrwt beam="1">0</pdfrwt>
<pdfrwt beam="2">0</pdfrwt>
<totfact> 0.26094506E+12</totfact>
</mgrwt>
</event>
<event>
 4    1  0.1735226E+006  0.5844693E+01  0.7546771E-02  0.2033902E+00
         22   -1    0    0    0    0  0.00000000000E+00  0.00000000000E+00  0.55340043298E+02  0.55340043298E+02  0.00000000000E+00 0. -1.
         22   -1    0    0    0    0 -0.00000000000E+00 -0.00000000000E+00 -0.70206144481E+00  0.70206144481E+00  0.00000000000E+00 0.  1.
          4    1    1    2  501    0  0.56962131986E+01  0.31731716517E+00  0.17581633130E+02  0.18527661982E+02  0.12700000000E+01 0.  1.
         -4    1    1    2    0  501 -0.56962131986E+01 -0.31731716517E+00  0.37056348723E+02  0.37514442761E+02  0.12700000000E+01 0. -1.
<mgrwt>
<rscale>  0 0.58446929E+01</rscale>
<asrwt>0</asrwt>
<pdfrwt beam="1">0</pdfrwt>
<pdfrwt beam="2">0</pdfrwt>
<totfact> 0.27421544E+11</totfact>
</mgrwt>
</event>
<event>
 4    1  0.1735226E+006  0.2173774E+01  0.7546771E-02  0.2872542E+00
         22   -1    0    0    0    0  0.00000000000E+00  0.00000000000E+00  0.22931355746E+01  0.22931355746E+01  0.00000000000E+00 0. -1.
         22   -1    0    0    0    0 -0.00000000000E+00 -0.00000000000E+00 -0.20690538453E+01  0.20690538453E+01  0.00000000000E+00 0.  1.
          4    1    1    2  501    0 -0.30280526860E+00  0.17380165542E+01  0.25125129335E+00  0.21882458239E+01  0.12700000000E+01 0. -1.
         -4    1    1    2    0  501  0.30280526860E+00 -0.17380165542E+01 -0.27169564000E-01  0.21739435960E+01  0.12700000000E+01 0.  1.
<mgrwt>
<rscale>  0 0.21737738E+01</rscale>
<asrwt>0</asrwt>
<pdfrwt beam="1">0</pdfrwt>
<pdfrwt beam="2">0</pdfrwt>
<totfact> 0.39305332E+12</totfact>
</mgrwt>
</event>
<event>
 4    1  0.1735226E+006  0.2441633E+01  0.7546771E-02  0.2734835E+00
         22   -1    0    0    0    0  0.00000000000E+00  0.00000000000E+00  0.27974991743E+02  0.27974991743E+02  0.00000000000E+00 0. -1.
         22   -1    0    0    0    0 -0.00000000000E+00 -0.00000000000E+00 -0.22829369843E+00  0.22829369843E+00  0.00000000000E+00 0. -1.
          4    1    1    2  501    0 -0.10040057996E+01 -0.18277423971E+01  0.17510855903E+02  0.17680261434E+02  0.12700000000E+01 0. -1.
         -4    1    1    2    0  501  0.10040057996E+01  0.18277423971E+01  0.10235842141E+02  0.10523024007E+02  0.12700000000E+01 0. -1.
<mgrwt>
<rscale>  0 0.24416326E+01</rscale>
<asrwt>0</asrwt>
<pdfrwt beam="1">0</pdfrwt>
<pdfrwt beam="2">0</pdfrwt>
<totfact> 0.23535434E+12</totfact>
</mgrwt>
</event>
<event>
 4    1  0.1735226E+006  0.3132030E+01  0.7546771E-02  0.2482035E+00
         22   -1    0    0    0    0  0.00000000000E+00  0.00000000000E+00  0.26407010376E+02  0.26407010376E+02  0.00000000000E+00 0. -1.
         22   -1    0    0    0    0 -0.00000000000E+00 -0.00000000000E+00 -0.38717509628E+00  0.38717509628E+00  0.00000000000E+00 0.  1.
          4    1    1    2  501    0 -0.22594758311E+01 -0.17582607520E+01  0.10312348778E+02  0.10777483436E+02  0.12700000000E+01 0.  1.
         -4    1    1    2    0  501  0.22594758311E+01  0.17582607520E+01  0.15707486502E+02  0.16016702036E+02  0.12700000000E+01 0.  1.
<mgrwt>
<rscale>  0 0.31320300E+01</rscale>
<asrwt>0</asrwt>
<pdfrwt beam="1">0</pdfrwt>
<pdfrwt beam="2">0</pdfrwt>
<totfact> 0.14004717E+12</totfact>
</mgrwt>
</event>
<event>
 4    1  0.1735226E+006  0.2035312E+01  0.7546771E-02  0.2957290E+00
         22   -1    0    0    0    0  0.00000000000E+00  0.00000000000E+00  0.20222891672E+02  0.20222891672E+02  0.00000000000E+00 0.  1.
         22   -1    0    0    0    0 -0.00000000000E+00 -0.00000000000E+00 -0.92858349086E+00  0.92858349086E+00  0.00000000000E+00 0. -1.
          4    1    1    2  501    0 -0.17960953019E+00  0.15802953813E+01  0.18983823658E+02  0.19092617782E+02  0.12700000000E+01 0.  1.
         -4    1    1    2    0  501  0.17960953019E+00 -0.15802953813E+01  0.31048452262E+00  0.20588573808E+01  0.12700000000E+01 0. -1.
<mgrwt>
<rscale>  0 0.20353115E+01</rscale>
<asrwt>0</asrwt>
<pdfrwt beam="1">0</pdfrwt>
<pdfrwt beam="2">0</pdfrwt>
<totfact> 0.72699928E+11</totfact>
</mgrwt>
</event>
<event>
 4    1  0.1735226E+006  0.3452454E+01  0.7546771E-02  0.2396024E+00
         22   -1    0    0    0    0  0.00000000000E+00  0.00000000000E+00  0.21906472743E+01  0.21906472743E+01  0.00000000000E+00 0.  1.
         22   -1    0    0    0    0 -0.00000000000E+00 -0.00000000000E+00 -0.55344559802E+01  0.55344559802E+01  0.00000000000E+00 0. -1.
          4    1    1    2  501    0 -0.30582796323E+01 -0.97645490820E+00 -0.21736758336E+01  0.40797432673E+01  0.12700000000E+01 0. -1.
         -4    1    1    2    0  501  0.30582796323E+01  0.97645490820E+00 -0.11701328723E+01  0.36453599872E+01  0.12700000000E+01 0.  1.
<mgrwt>
<rscale>  0 0.34524540E+01</rscale>
<asrwt>0</asrwt>
<pdfrwt beam="1">0</pdfrwt>
<pdfrwt beam="2">0</pdfrwt>
<totfact> 0.13082463E+12</totfact>
</mgrwt>
</event>
<event>
 4    1  0.1735226E+006  0.2124160E+01  0.7546771E-02  0.2901679E+00
         22   -1    0    0    0    0  0.00000000000E+00  0.00000000000E+00  0.11414138227E+00  0.11414138227E+00  0.00000000000E+00 0. -1.
         22   -1    0    0    0    0 -0.00000000000E+00 -0.00000000000E+00 -0.39620222575E+02  0.39620222575E+02  0.00000000000E+00 0.  1.
          4    1    1    2  501    0 -0.65534225119E+00 -0.15715222123E+01 -0.18807133027E+02  0.18926708858E+02  0.12700000000E+01 0. -1.
         -4    1    1    2    0  501  0.65534225119E+00  0.15715222123E+01 -0.20698948166E+02  0.20807655099E+02  0.12700000000E+01 0. -1.
<mgrwt>
<rscale>  0 0.21241600E+01</rscale>
<asrwt>0</asrwt>
<pdfrwt beam="1">0</pdfrwt>
<pdfrwt beam="2">0</pdfrwt>
<totfact> 0.32571478E+12</totfact>
</mgrwt>
</event>
<event>
 4    1  0.1735226E+006  0.3639772E+01  0.7546771E-02  0.2351940E+00
         22   -1    0    0    0    0  0.00000000000E+00  0.00000000000E+00  0.13966161347E+02  0.13966161347E+02  0.00000000000E+00 0. -1.
         22   -1    0    0    0    0 -0.00000000000E+00 -0.00000000000E+00 -0.10786598964E+01  0.10786598964E+01  0.00000000000E+00 0. -1.
          4    1    1    2  501    0  0.21497039921E+01 -0.26483603864E+01  0.38314114284E+01  0.52846621011E+01  0.12700000000E+01 0. -1.
         -4    1    1    2    0  501 -0.21497039921E+01  0.26483603864E+01  0.90560900221E+01  0.97601591421E+01  0.12700000000E+01 0. -1.
<mgrwt>
<rscale>  0 0.36397720E+01</rscale>
<asrwt>0</asrwt>
<pdfrwt beam="1">0</pdfrwt>
<pdfrwt beam="2">0</pdfrwt>
<totfact> 0.96861201E+11</totfact>
</mgrwt>
</event>
<event>
 4    1  0.1735226E+006  0.2723837E+01  0.7546771E-02  0.2617381E+00
         22   -1    0    0    0    0  0.00000000000E+00  0.00000000000E+00  0.15497893404E+01  0.15497893404E+01  0.00000000000E+00 0. -1.
         22   -1    0    0    0    0 -0.00000000000E+00 -0.00000000000E+00 -0.55593823463E+01  0.55593823463E+01  0.00000000000E+00 0.  1.
          4    1    1    2  501    0  0.20354084919E+01 -0.12897670918E+01 -0.68011610916E+00  0.28074623420E+01  0.12700000000E+01 0. -1.
         -4    1    1    2    0  501 -0.20354084919E+01  0.12897670918E+01 -0.33294768967E+01  0.43017093446E+01  0.12700000000E+01 0. -1.
<mgrwt>
<rscale>  0 0.27238368E+01</rscale>
<asrwt>0</asrwt>
<pdfrwt beam="1">0</pdfrwt>
<pdfrwt beam="2">0</pdfrwt>
<totfact> 0.19410414E+12</totfact>
</mgrwt>
</event>
<event>
 4    1  0.1735226E+006  0.2235901E+01  0.7546771E-02  0.2837812E+00
         22   -1    0    0    0    0  0.00000000000E+00  0.00000000000E+00  0.61203536851E+01  0.61203536851E+01  0.00000000000E+00 0. -1.
         22   -1    0    0    0    0 -0.00000000000E+00 -0.00000000000E+00 -0.95900030941E+01  0.95900030941E+01  0.00000000000E+00 0.  1.
          4    1    1    2  501    0  0.18371282026E+01 -0.10637368686E+00  0.57783789572E+01  0.61958791763E+01  0.12700000000E+01 0. -1.
         -4    1    1    2    0  501 -0.18371282026E+01  0.10637368686E+00 -0.92480283662E+01  0.95144776029E+01  0.12700000000E+01 0.  1.
<mgrwt>
<rscale>  0 0.22359015E+01</rscale>
<asrwt>0</asrwt>
<pdfrwt beam="1">0</pdfrwt>
<pdfrwt beam="2">0</pdfrwt>
<totfact> 0.20258625E+11</totfact>
</mgrwt>
</event>
<event>
 4    1  0.1735226E+006  0.2339502E+01  0.7546771E-02  0.2783816E+00
         22   -1    0    0    0    0  0.00000000000E+00  0.00000000000E+00  0.86808274692E+02  0.86808274692E+02  0.00000000000E+00 0.  1.
         22   -1    0    0    0    0 -0.00000000000E+00 -0.00000000000E+00 -0.11859261184E+00  0.11859261184E+00  0.00000000000E+00 0. -1.
          4    1    1    2  501    0  0.16244576044E+01 -0.11052184847E+01  0.73089430142E+02  0.73126862841E+02  0.12700000000E+01 0.  1.
         -4    1    1    2    0  501 -0.16244576044E+01  0.11052184847E+01  0.13600251938E+02  0.13800004463E+02  0.12700000000E+01 0. -1.
<mgrwt>
<rscale>  0 0.23395022E+01</rscale>
<asrwt>0</asrwt>
<pdfrwt beam="1">0</pdfrwt>
<pdfrwt beam="2">0</pdfrwt>
<totfact> 0.10933342E+12</totfact>
</mgrwt>
</event>
<event>
 4    1  0.1735226E+006  0.2220309E+01  0.7546771E-02  0.2846353E+00
         22   -1    0    0    0    0  0.00000000000E+00  0.00000000000E+00  0.27126887835E+02  0.27126887835E+02  0.00000000000E+00 0.  1.
         22   -1    0    0    0    0 -0.00000000000E+00 -0.00000000000E+00 -0.59375291383E+00  0.59375291383E+00  0.00000000000E+00 0.  1.
          4    1    1    2  501    0 -0.93406808953E+00 -0.15634538544E+01  0.24812553845E+02  0.24911696038E+02  0.12700000000E+01 0.  1.
         -4    1    1    2    0  501  0.93406808953E+00  0.15634538544E+01  0.17205810755E+01  0.28089447108E+01  0.12700000000E+01 0.  1.
<mgrwt>
<rscale>  0 0.22203088E+01</rscale>
<asrwt>0</asrwt>
<pdfrwt beam="1">0</pdfrwt>
<pdfrwt beam="2">0</pdfrwt>
<totfact> 0.83537388E+11</totfact>
</mgrwt>
</event>
<event>
 4    1  0.1735226E+006  0.5091160E+01  0.7546771E-02  0.2112277E+00
         22   -1    0    0    0    0  0.00000000000E+00  0.00000000000E+00  0.16101764189E+02  0.16101764189E+02  0.00000000000E+00 0.  1.
         22   -1    0    0    0    0 -0.00000000000E+00 -0.00000000000E+00 -0.21243485117E+01  0.21243485117E+01  0.00000000000E+00 0. -1.
          4    1    1    2  501    0  0.33885175547E+01 -0.35811955142E+01  0.11473918820E+02  0.12552717858E+02  0.12700000000E+01 0.  1.
         -4    1    1    2    0  501 -0.33885175547E+01  0.35811955142E+01  0.25034968574E+01  0.56733948430E+01  0.12700000000E+01 0. -1.
<mgrwt>
<rscale>  0 0.50911602E+01</rscale>
<asrwt>0</asrwt>
<pdfrwt beam="1">0</pdfrwt>
<pdfrwt beam="2">0</pdfrwt>
<totfact> 0.37267167E+11</totfact>
</mgrwt>
</event>
<event>
 4    1  0.1735226E+006  0.2028281E+01  0.7546771E-02  0.2961893E+00
         22   -1    0    0    0    0  0.00000000000E+00  0.00000000000E+00  0.38471272181E+01  0.38471272181E+01  0.00000000000E+00 0.  1.
         22   -1    0    0    0    0 -0.00000000000E+00 -0.00000000000E+00 -0.11039229261E+01  0.11039229261E+01  0.00000000000E+00 0.  1.
          4    1    1    2  501    0  0.10544097284E+01 -0.11786622511E+01  0.18096963549E+01  0.27182578014E+01  0.12700000000E+01 0. -1.
         -4    1    1    2    0  501 -0.10544097284E+01  0.11786622511E+01  0.93350793707E+00  0.22327923428E+01  0.12700000000E+01 0. -1.
<mgrwt>
<rscale>  0 0.20282812E+01</rscale>
<asrwt>0</asrwt>
<pdfrwt beam="1">0</pdfrwt>
<pdfrwt beam="2">0</pdfrwt>
<totfact> 0.44256832E+12</totfact>
</mgrwt>
</event>
<event>
 4    1  0.1735226E+006  0.6995051E+01  0.7546771E-02  0.1940480E+00
         22   -1    0    0    0    0  0.00000000000E+00  0.00000000000E+00  0.80880977921E+01  0.80880977921E+01  0.00000000000E+00 0. -1.
         22   -1    0    0    0    0 -0.00000000000E+00 -0.00000000000E+00 -0.95758634622E+01  0.95758634622E+01  0.00000000000E+00 0.  1.
          4    1    1    2  501    0  0.33142077728E+01 -0.60277583428E+01  0.46155520156E+01  0.83805766036E+01  0.12700000000E+01 0. -1.
         -4    1    1    2    0  501 -0.33142077728E+01  0.60277583428E+01 -0.61033176856E+01  0.92833846507E+01  0.12700000000E+01 0.  1.
<mgrwt>
<rscale>  0 0.69950514E+01</rscale>
<asrwt>0</asrwt>
<pdfrwt beam="1">0</pdfrwt>
<pdfrwt beam="2">0</pdfrwt>
<totfact> 0.14540180E+11</totfact>
</mgrwt>
</event>
<event>
 4    1  0.1735226E+006  0.2054821E+01  0.7546771E-02  0.2944678E+00
         22   -1    0    0    0    0  0.00000000000E+00  0.00000000000E+00  0.16739465753E+00  0.16739465753E+00  0.00000000000E+00 0.  1.
         22   -1    0    0    0    0 -0.00000000000E+00 -0.00000000000E+00 -0.35259677931E+02  0.35259677931E+02  0.00000000000E+00 0. -1.
          4    1    1    2  501    0  0.14773418358E+01  0.65333652709E+00 -0.80957633117E+01  0.83524649725E+01  0.12700000000E+01 0.  1.
         -4    1    1    2    0  501 -0.14773418358E+01 -0.65333652709E+00 -0.26996519961E+02  0.27074607616E+02  0.12700000000E+01 0. -1.
<mgrwt>
<rscale>  0 0.20548206E+01</rscale>
<asrwt>0</asrwt>
<pdfrwt beam="1">0</pdfrwt>
<pdfrwt beam="2">0</pdfrwt>
<totfact> 0.24746878E+12</totfact>
</mgrwt>
</event>
<event>
 4    1  0.1735226E+006  0.3311533E+01  0.7546771E-02  0.2432044E+00
         22   -1    0    0    0    0  0.00000000000E+00  0.00000000000E+00  0.11763464877E+01  0.11763464877E+01  0.00000000000E+00 0. -1.
         22   -1    0    0    0    0 -0.00000000000E+00 -0.00000000000E+00 -0.95100983818E+01  0.95100983818E+01  0.00000000000E+00 0.  1.
          4    1    1    2  501    0 -0.27133369302E+01  0.14110835216E+01 -0.49177334374E+01  0.59287735800E+01  0.12700000000E+01 0. -1.
         -4    1    1    2    0  501  0.27133369302E+01 -0.14110835216E+01 -0.34160184567E+01  0.47576712894E+01  0.12700000000E+01 0.  1.
<mgrwt>
<rscale>  0 0.33115335E+01</rscale>
<asrwt>0</asrwt>
<pdfrwt beam="1">0</pdfrwt>
<pdfrwt beam="2">0</pdfrwt>
<totfact> 0.14004152E+12</totfact>
</mgrwt>
</event>
<event>
 4    1  0.1735226E+006  0.2303851E+01  0.7546771E-02  0.2801876E+00
         22   -1    0    0    0    0  0.00000000000E+00  0.00000000000E+00  0.54878798378E+01  0.54878798378E+01  0.00000000000E+00 0.  1.
         22   -1    0    0    0    0 -0.00000000000E+00 -0.00000000000E+00 -0.13098401466E+01  0.13098401466E+01  0.00000000000E+00 0. -1.
          4    1    1    2  501    0 -0.18311350472E+01  0.58461291744E+00  0.38274631042E+01  0.44673483901E+01  0.12700000000E+01 0.  1.
         -4    1    1    2    0  501  0.18311350472E+01 -0.58461291744E+00  0.35057658710E+00  0.23303715943E+01  0.12700000000E+01 0. -1.
<mgrwt>
<rscale>  0 0.23038507E+01</rscale>
<asrwt>0</asrwt>
<pdfrwt beam="1">0</pdfrwt>
<pdfrwt beam="2">0</pdfrwt>
<totfact> 0.23914986E+12</totfact>
</mgrwt>
</event>
<event>
 4    1  0.1735226E+006  0.2864268E+01  0.7546771E-02  0.2566894E+00
         22   -1    0    0    0    0  0.00000000000E+00  0.00000000000E+00  0.52386122097E+01  0.52386122097E+01  0.00000000000E+00 0. -1.
         22   -1    0    0    0    0 -0.00000000000E+00 -0.00000000000E+00 -0.71880524238E+01  0.71880524238E+01  0.00000000000E+00 0.  1.
          4    1    1    2  501    0 -0.17389842361E+01  0.18886674664E+01  0.45202296290E+01  0.53513088932E+01  0.12700000000E+01 0. -1.
         -4    1    1    2    0  501  0.17389842361E+01 -0.18886674664E+01 -0.64696698431E+01  0.70753557402E+01  0.12700000000E+01 0.  1.
<mgrwt>
<rscale>  0 0.28642680E+01</rscale>
<asrwt>0</asrwt>
<pdfrwt beam="1">0</pdfrwt>
<pdfrwt beam="2">0</pdfrwt>
<totfact> 0.34478081E+11</totfact>
</mgrwt>
</event>
<event>
 4    1  0.1735226E+006  0.2506218E+01  0.7546771E-02  0.2705795E+00
         22   -1    0    0    0    0  0.00000000000E+00  0.00000000000E+00  0.31985426496E+02  0.31985426496E+02  0.00000000000E+00 0.  1.
         22   -1    0    0    0    0 -0.00000000000E+00 -0.00000000000E+00 -0.31668975912E+00  0.31668975912E+00  0.00000000000E+00 0. -1.
          4    1    1    2  501    0  0.11241119085E+00  0.21576822090E+01  0.25789429932E+02  0.25910920960E+02  0.12700000000E+01 0.  1.
         -4    1    1    2    0  501 -0.11241119085E+00 -0.21576822090E+01  0.58793068047E+01  0.63911952947E+01  0.12700000000E+01 0. -1.
<mgrwt>
<rscale>  0 0.25062180E+01</rscale>
<asrwt>0</asrwt>
<pdfrwt beam="1">0</pdfrwt>
<pdfrwt beam="2">0</pdfrwt>
<totfact> 0.13754312E+12</totfact>
</mgrwt>
</event>
<event>
 4    1  0.1735226E+006  0.2350566E+01  0.7546771E-02  0.2778316E+00
         22   -1    0    0    0    0  0.00000000000E+00  0.00000000000E+00  0.30665912056E+01  0.30665912056E+01  0.00000000000E+00 0.  1.
         22   -1    0    0    0    0 -0.00000000000E+00 -0.00000000000E+00 -0.28497663480E+01  0.28497663480E+01  0.00000000000E+00 0. -1.
          4    1    1    2  501    0 -0.10047619676E+01 -0.17037346729E+01  0.19023556807E+01  0.30239238719E+01  0.12700000000E+01 0.  1.
         -4    1    1    2    0  501  0.10047619676E+01  0.17037346729E+01 -0.16855308231E+01  0.28924336817E+01  0.12700000000E+01 0. -1.
<mgrwt>
<rscale>  0 0.23505656E+01</rscale>
<asrwt>0</asrwt>
<pdfrwt beam="1">0</pdfrwt>
<pdfrwt beam="2">0</pdfrwt>
<totfact> 0.19311254E+12</totfact>
</mgrwt>
</event>
<event>
 4    1  0.1735226E+006  0.2420892E+01  0.7546771E-02  0.2744468E+00
         22   -1    0    0    0    0  0.00000000000E+00  0.00000000000E+00  0.18980375083E+01  0.18980375083E+01  0.00000000000E+00 0. -1.
         22   -1    0    0    0    0 -0.00000000000E+00 -0.00000000000E+00 -0.33560263263E+01  0.33560263263E+01  0.00000000000E+00 0. -1.
          4    1    1    2  501    0 -0.74956693341E+00  0.19198878098E+01  0.13717886394E-01  0.24209312197E+01  0.12700000000E+01 0. -1.
         -4    1    1    2    0  501  0.74956693341E+00 -0.19198878098E+01 -0.14717067044E+01  0.28331326149E+01  0.12700000000E+01 0. -1.
<mgrwt>
<rscale>  0 0.24208924E+01</rscale>
<asrwt>0</asrwt>
<pdfrwt beam="1">0</pdfrwt>
<pdfrwt beam="2">0</pdfrwt>
<totfact> 0.27858864E+12</totfact>
</mgrwt>
</event>
<event>
 4    1  0.1735226E+006  0.2854007E+01  0.7546771E-02  0.2570430E+00
         22   -1    0    0    0    0  0.00000000000E+00  0.00000000000E+00  0.64739969204E+00  0.64739969204E+00  0.00000000000E+00 0.  1.
         22   -1    0    0    0    0 -0.00000000000E+00 -0.00000000000E+00 -0.13609655663E+02  0.13609655663E+02  0.00000000000E+00 0.  1.
          4    1    1    2  501    0  0.25130141405E+01 -0.46606149273E+00 -0.45219450586E+01  0.53472741185E+01  0.12700000000E+01 0.  1.
         -4    1    1    2    0  501 -0.25130141405E+01  0.46606149273E+00 -0.84403109124E+01  0.89097812366E+01  0.12700000000E+01 0.  1.
<mgrwt>
<rscale>  0 0.28540065E+01</rscale>
<asrwt>0</asrwt>
<pdfrwt beam="1">0</pdfrwt>
<pdfrwt beam="2">0</pdfrwt>
<totfact> 0.17878532E+12</totfact>
</mgrwt>
</event>
<event>
 4    1  0.1735226E+006  0.4055421E+01  0.7546771E-02  0.2266824E+00
         22   -1    0    0    0    0  0.00000000000E+00  0.00000000000E+00  0.23529667618E+01  0.23529667618E+01  0.00000000000E+00 0.  1.
         22   -1    0    0    0    0 -0.00000000000E+00 -0.00000000000E+00 -0.73189770060E+01  0.73189770060E+01  0.00000000000E+00 0. -1.
          4    1    1    2  501    0  0.21654453706E+01 -0.31850246264E+01 -0.14571967179E+01  0.43092757858E+01  0.12700000000E+01 0. -1.
         -4    1    1    2    0  501 -0.21654453706E+01  0.31850246264E+01 -0.35088135263E+01  0.53626679820E+01  0.12700000000E+01 0. -1.
<mgrwt>
<rscale>  0 0.40554205E+01</rscale>
<asrwt>0</asrwt>
<pdfrwt beam="1">0</pdfrwt>
<pdfrwt beam="2">0</pdfrwt>
<totfact> 0.86279582E+11</totfact>
</mgrwt>
</event>
<event>
 4    1  0.1735226E+006  0.2035446E+01  0.7546771E-02  0.2957202E+00
         22   -1    0    0    0    0  0.00000000000E+00  0.00000000000E+00  0.53336650513E+01  0.53336650513E+01  0.00000000000E+00 0.  1.
         22   -1    0    0    0    0 -0.00000000000E+00 -0.00000000000E+00 -0.81295599561E+00  0.81295599561E+00  0.00000000000E+00 0.  1.
          4    1    1    2  501    0 -0.13862697025E+01  0.77999854193E+00  0.29087373085E+01  0.35501822690E+01  0.12700000000E+01 0.  1.
         -4    1    1    2    0  501  0.13862697025E+01 -0.77999854193E+00  0.16119717473E+01  0.25964387779E+01  0.12700000000E+01 0.  1.
<mgrwt>
<rscale>  0 0.20354462E+01</rscale>
<asrwt>0</asrwt>
<pdfrwt beam="1">0</pdfrwt>
<pdfrwt beam="2">0</pdfrwt>
<totfact> 0.42661443E+12</totfact>
</mgrwt>
</event>
<event>
 4    1  0.1735226E+006  0.2150489E+01  0.7546771E-02  0.2886055E+00
         22   -1    0    0    0    0  0.00000000000E+00  0.00000000000E+00  0.11227398039E+02  0.11227398039E+02  0.00000000000E+00 0. -1.
         22   -1    0    0    0    0 -0.00000000000E+00 -0.00000000000E+00 -0.57125216112E+00  0.57125216112E+00  0.00000000000E+00 0. -1.
          4    1    1    2  501    0  0.14746122687E+01 -0.91499904328E+00  0.22123229227E+01  0.30852839912E+01  0.12700000000E+01 0. -1.
         -4    1    1    2    0  501 -0.14746122687E+01  0.91499904328E+00  0.84438229557E+01  0.87133662094E+01  0.12700000000E+01 0. -1.
<mgrwt>
<rscale>  0 0.21504894E+01</rscale>
<asrwt>0</asrwt>
<pdfrwt beam="1">0</pdfrwt>
<pdfrwt beam="2">0</pdfrwt>
<totfact> 0.26053838E+12</totfact>
</mgrwt>
</event>
<event>
 4    1  0.1735226E+006  0.2240490E+01  0.7546771E-02  0.2835320E+00
         22   -1    0    0    0    0  0.00000000000E+00  0.00000000000E+00  0.14444101858E+01  0.14444101858E+01  0.00000000000E+00 0. -1.
         22   -1    0    0    0    0 -0.00000000000E+00 -0.00000000000E+00 -0.34753923789E+01  0.34753923789E+01  0.00000000000E+00 0.  1.
          4    1    1    2  501    0  0.79496112632E+00  0.16658130674E+01 -0.10047458432E+01  0.24554654502E+01  0.12700000000E+01 0.  1.
         -4    1    1    2    0  501 -0.79496112632E+00 -0.16658130674E+01 -0.10262363499E+01  0.24643371145E+01  0.12700000000E+01 0. -1.
<mgrwt>
<rscale>  0 0.22404902E+01</rscale>
<asrwt>0</asrwt>
<pdfrwt beam="1">0</pdfrwt>
<pdfrwt beam="2">0</pdfrwt>
<totfact> 0.36636890E+12</totfact>
</mgrwt>
</event>
<event>
 4    1  0.1735226E+006  0.2460103E+01  0.7546771E-02  0.2726385E+00
         22   -1    0    0    0    0  0.00000000000E+00  0.00000000000E+00  0.11830083106E+01  0.11830083106E+01  0.00000000000E+00 0. -1.
         22   -1    0    0    0    0 -0.00000000000E+00 -0.00000000000E+00 -0.61016649935E+01  0.61016649935E+01  0.00000000000E+00 0.  1.
          4    1    1    2  501    0 -0.81604671809E+00  0.19424912430E+01 -0.99529323967E+00  0.26538110536E+01  0.12700000000E+01 0.  1.
         -4    1    1    2    0  501  0.81604671809E+00 -0.19424912430E+01 -0.39233634432E+01  0.46308622505E+01  0.12700000000E+01 0.  1.
<mgrwt>
<rscale>  0 0.24601025E+01</rscale>
<asrwt>0</asrwt>
<pdfrwt beam="1">0</pdfrwt>
<pdfrwt beam="2">0</pdfrwt>
<totfact> 0.23694012E+12</totfact>
</mgrwt>
</event>
<event>
 4    1  0.1735226E+006  0.2753863E+01  0.7546771E-02  0.2606193E+00
         22   -1    0    0    0    0  0.00000000000E+00  0.00000000000E+00  0.10525568121E+01  0.10525568121E+01  0.00000000000E+00 0.  1.
         22   -1    0    0    0    0 -0.00000000000E+00 -0.00000000000E+00 -0.85632371403E+01  0.85632371403E+01  0.00000000000E+00 0. -1.
          4    1    1    2  501    0 -0.24432027539E+01 -0.40262045310E-01 -0.18405972758E+01  0.33123343824E+01  0.12700000000E+01 0.  1.
         -4    1    1    2    0  501  0.24432027539E+01  0.40262045310E-01 -0.56700830525E+01  0.63034595700E+01  0.12700000000E+01 0. -1.
<mgrwt>
<rscale>  0 0.27538629E+01</rscale>
<asrwt>0</asrwt>
<pdfrwt beam="1">0</pdfrwt>
<pdfrwt beam="2">0</pdfrwt>
<totfact> 0.18048953E+12</totfact>
</mgrwt>
</event>
<event>
 4    1  0.1735226E+006  0.4509313E+01  0.7546771E-02  0.2189367E+00
         22   -1    0    0    0    0  0.00000000000E+00  0.00000000000E+00  0.15684017325E+01  0.15684017325E+01  0.00000000000E+00 0. -1.
         22   -1    0    0    0    0 -0.00000000000E+00 -0.00000000000E+00 -0.20293584242E+02  0.20293584242E+02  0.00000000000E+00 0.  1.
          4    1    1    2  501    0  0.42982893259E+01 -0.49569746623E+00 -0.27936067320E+01  0.53045401007E+01  0.12700000000E+01 0. -1.
         -4    1    1    2    0  501 -0.42982893259E+01  0.49569746623E+00 -0.15931575778E+02  0.16557445874E+02  0.12700000000E+01 0.  1.
<mgrwt>
<rscale>  0 0.45093134E+01</rscale>
<asrwt>0</asrwt>
<pdfrwt beam="1">0</pdfrwt>
<pdfrwt beam="2">0</pdfrwt>
<totfact> 0.39705093E+11</totfact>
</mgrwt>
</event>
<event>
 4    1  0.1735226E+006  0.2574134E+01  0.7546771E-02  0.2676723E+00
         22   -1    0    0    0    0  0.00000000000E+00  0.00000000000E+00  0.22304749511E+00  0.22304749511E+00  0.00000000000E+00 0. -1.
         22   -1    0    0    0    0 -0.00000000000E+00 -0.00000000000E+00 -0.37794843350E+02  0.37794843350E+02  0.00000000000E+00 0.  1.
          4    1    1    2  501    0 -0.33939311955E+00 -0.22131596757E+01 -0.99926949182E+01  0.10318920252E+02  0.12700000000E+01 0. -1.
         -4    1    1    2    0  501  0.33939311955E+00  0.22131596757E+01 -0.27579100936E+02  0.27698970593E+02  0.12700000000E+01 0.  1.
<mgrwt>
<rscale>  0 0.25741335E+01</rscale>
<asrwt>0</asrwt>
<pdfrwt beam="1">0</pdfrwt>
<pdfrwt beam="2">0</pdfrwt>
<totfact> 0.16430854E+12</totfact>
</mgrwt>
</event>
<event>
 4    1  0.1735226E+006  0.3747771E+01  0.7546771E-02  0.2328267E+00
         22   -1    0    0    0    0  0.00000000000E+00  0.00000000000E+00  0.41779875940E+02  0.41779875940E+02  0.00000000000E+00 0. -1.
         22   -1    0    0    0    0 -0.00000000000E+00 -0.00000000000E+00 -0.44321175961E+00  0.44321175961E+00  0.00000000000E+00 0.  1.
          4    1    1    2  501    0  0.20148025324E+01  0.28936932306E+01  0.31042647990E+02  0.31268063324E+02  0.12700000000E+01 0. -1.
         -4    1    1    2    0  501 -0.20148025324E+01 -0.28936932306E+01  0.10294016190E+02  0.10955024376E+02  0.12700000000E+01 0.  1.
<mgrwt>
<rscale>  0 0.37477713E+01</rscale>
<asrwt>0</asrwt>
<pdfrwt beam="1">0</pdfrwt>
<pdfrwt beam="2">0</pdfrwt>
<totfact> 0.66772821E+11</totfact>
</mgrwt>
</event>
<event>
 4    1  0.1735226E+006  0.2380236E+01  0.7546771E-02  0.2763807E+00
         22   -1    0    0    0    0  0.00000000000E+00  0.00000000000E+00  0.81577006554E+00  0.81577006554E+00  0.00000000000E+00 0. -1.
         22   -1    0    0    0    0 -0.00000000000E+00 -0.00000000000E+00 -0.78775497042E+01  0.78775497042E+01  0.00000000000E+00 0. -1.
          4    1    1    2  501    0  0.17455065955E+01  0.10029096561E+01 -0.20353545376E+01  0.31318028589E+01  0.12700000000E+01 0. -1.
         -4    1    1    2    0  501 -0.17455065955E+01 -0.10029096561E+01 -0.50264251011E+01  0.55615169109E+01  0.12700000000E+01 0. -1.
<mgrwt>
<rscale>  0 0.23802355E+01</rscale>
<asrwt>0</asrwt>
<pdfrwt beam="1">0</pdfrwt>
<pdfrwt beam="2">0</pdfrwt>
<totfact> 0.26683969E+12</totfact>
</mgrwt>
</event>
<event>
 4    1  0.1735226E+006  0.2695197E+01  0.7546771E-02  0.2628265E+00
         22   -1    0    0    0    0  0.00000000000E+00  0.00000000000E+00  0.42215149735E+00  0.42215149735E+00  0.00000000000E+00 0.  1.
         22   -1    0    0    0    0 -0.00000000000E+00 -0.00000000000E+00 -0.17560671412E+02  0.17560671412E+02  0.00000000000E+00 0. -1.
          4    1    1    2  501    0 -0.16049036256E+01 -0.17537028972E+01 -0.72937905345E+01  0.77758259922E+01  0.12700000000E+01 0. -1.
         -4    1    1    2    0  501  0.16049036256E+01  0.17537028972E+01 -0.98447293801E+01  0.10206996917E+02  0.12700000000E+01 0.  1.
<mgrwt>
<rscale>  0 0.26951975E+01</rscale>
<asrwt>0</asrwt>
<pdfrwt beam="1">0</pdfrwt>
<pdfrwt beam="2">0</pdfrwt>
<totfact> 0.21172487E+12</totfact>
</mgrwt>
</event>
<event>
 4    1  0.1735226E+006  0.3273527E+01  0.7546771E-02  0.2442223E+00
         22   -1    0    0    0    0  0.00000000000E+00  0.00000000000E+00  0.22515883225E+01  0.22515883225E+01  0.00000000000E+00 0. -1.
         22   -1    0    0    0    0 -0.00000000000E+00 -0.00000000000E+00 -0.24996409969E+02  0.24996409969E+02  0.00000000000E+00 0. -1.
          4    1    1    2  501    0 -0.13202143200E+01  0.27129534112E+01  0.88616576492E+00  0.33913525067E+01  0.12700000000E+01 0. -1.
         -4    1    1    2    0  501  0.13202143200E+01 -0.27129534112E+01 -0.23630987411E+02  0.23856645784E+02  0.12700000000E+01 0. -1.
<mgrwt>
<rscale>  0 0.32735275E+01</rscale>
<asrwt>0</asrwt>
<pdfrwt beam="1">0</pdfrwt>
<pdfrwt beam="2">0</pdfrwt>
<totfact> 0.20126414E+11</totfact>
</mgrwt>
</event>
<event>
 4    1  0.1735226E+006  0.2729902E+01  0.7546771E-02  0.2615103E+00
         22   -1    0    0    0    0  0.00000000000E+00  0.00000000000E+00  0.34711923901E+02  0.34711923901E+02  0.00000000000E+00 0. -1.
         22   -1    0    0    0    0 -0.00000000000E+00 -0.00000000000E+00 -0.41597493362E+00  0.41597493362E+00  0.00000000000E+00 0. -1.
          4    1    1    2  501    0 -0.14538752000E+01 -0.19302098196E+01  0.29365756252E+02  0.29492371951E+02  0.12700000000E+01 0. -1.
         -4    1    1    2    0  501  0.14538752000E+01  0.19302098196E+01  0.49301927151E+01  0.56355268833E+01  0.12700000000E+01 0. -1.
<mgrwt>
<rscale>  0 0.27299017E+01</rscale>
<asrwt>0</asrwt>
<pdfrwt beam="1">0</pdfrwt>
<pdfrwt beam="2">0</pdfrwt>
<totfact> 0.91148403E+11</totfact>
</mgrwt>
</event>
<event>
 4    1  0.1735226E+006  0.2023588E+01  0.7546771E-02  0.2964983E+00
         22   -1    0    0    0    0  0.00000000000E+00  0.00000000000E+00  0.48939039805E+00  0.48939039805E+00  0.00000000000E+00 0.  1.
         22   -1    0    0    0    0 -0.00000000000E+00 -0.00000000000E+00 -0.19586217554E+02  0.19586217554E+02  0.00000000000E+00 0. -1.
          4    1    1    2  501    0 -0.15752913242E+01  0.21532600984E-01 -0.19514908370E+01  0.28112671335E+01  0.12700000000E+01 0.  1.
         -4    1    1    2    0  501  0.15752913242E+01 -0.21532600984E-01 -0.17145336318E+02  0.17264340818E+02  0.12700000000E+01 0. -1.
<mgrwt>
<rscale>  0 0.20235875E+01</rscale>
<asrwt>0</asrwt>
<pdfrwt beam="1">0</pdfrwt>
<pdfrwt beam="2">0</pdfrwt>
<totfact> 0.15647188E+12</totfact>
</mgrwt>
</event>
<event>
 4    1  0.1735226E+006  0.2620619E+01  0.7546771E-02  0.2657629E+00
         22   -1    0    0    0    0  0.00000000000E+00  0.00000000000E+00  0.43803821143E+02  0.43803821143E+02  0.00000000000E+00 0. -1.
         22   -1    0    0    0    0 -0.00000000000E+00 -0.00000000000E+00 -0.16649800503E+00  0.16649800503E+00  0.00000000000E+00 0. -1.
          4    1    1    2  501    0  0.21416560956E+01  0.81734633832E+00  0.27129601981E+02  0.27255879174E+02  0.12700000000E+01 0. -1.
         -4    1    1    2    0  501 -0.21416560956E+01 -0.81734633832E+00  0.16507721157E+02  0.16714439975E+02  0.12700000000E+01 0. -1.
<mgrwt>
<rscale>  0 0.26206194E+01</rscale>
<asrwt>0</asrwt>
<pdfrwt beam="1">0</pdfrwt>
<pdfrwt beam="2">0</pdfrwt>
<totfact> 0.18793130E+12</totfact>
</mgrwt>
</event>
<event>
 4    1  0.1735226E+006  0.3025522E+01  0.7546771E-02  0.2514176E+00
         22   -1    0    0    0    0  0.00000000000E+00  0.00000000000E+00  0.16630777006E+00  0.16630777006E+00  0.00000000000E+00 0.  1.
         22   -1    0    0    0    0 -0.00000000000E+00 -0.00000000000E+00 -0.64817387572E+02  0.64817387572E+02  0.00000000000E+00 0. -1.
          4    1    1    2  501    0  0.14635832437E+01  0.23235338397E+01 -0.19706898922E+02  0.19937794525E+02  0.12700000000E+01 0. -1.
         -4    1    1    2    0  501 -0.14635832437E+01 -0.23235338397E+01 -0.44944180880E+02  0.45045900817E+02  0.12700000000E+01 0.  1.
<mgrwt>
<rscale>  0 0.30255223E+01</rscale>
<asrwt>0</asrwt>
<pdfrwt beam="1">0</pdfrwt>
<pdfrwt beam="2">0</pdfrwt>
<totfact> 0.11192355E+12</totfact>
</mgrwt>
</event>
<event>
 4    1  0.1735226E+006  0.3164537E+01  0.7546771E-02  0.2472610E+00
         22   -1    0    0    0    0  0.00000000000E+00  0.00000000000E+00  0.14061126819E+01  0.14061126819E+01  0.00000000000E+00 0. -1.
         22   -1    0    0    0    0 -0.00000000000E+00 -0.00000000000E+00 -0.88609900144E+01  0.88609900144E+01  0.00000000000E+00 0. -1.
          4    1    1    2  501    0 -0.28562461135E+01  0.49320526116E+00 -0.14532369011E+01  0.34822680513E+01  0.12700000000E+01 0. -1.
         -4    1    1    2    0  501  0.28562461135E+01 -0.49320526116E+00 -0.60016404315E+01  0.67848346449E+01  0.12700000000E+01 0. -1.
<mgrwt>
<rscale>  0 0.31645368E+01</rscale>
<asrwt>0</asrwt>
<pdfrwt beam="1">0</pdfrwt>
<pdfrwt beam="2">0</pdfrwt>
<totfact> 0.12428730E+12</totfact>
</mgrwt>
</event>
<event>
 4    1  0.1735226E+006  0.2100464E+01  0.7546771E-02  0.2916063E+00
         22   -1    0    0    0    0  0.00000000000E+00  0.00000000000E+00  0.23992509052E+00  0.23992509052E+00  0.00000000000E+00 0.  1.
         22   -1    0    0    0    0 -0.00000000000E+00 -0.00000000000E+00 -0.19183160702E+02  0.19183160702E+02  0.00000000000E+00 0. -1.
          4    1    1    2  501    0 -0.13714550024E+01 -0.95820665558E+00 -0.74954641210E+01  0.77842103780E+01  0.12700000000E+01 0. -1.
         -4    1    1    2    0  501  0.13714550024E+01  0.95820665558E+00 -0.11447771490E+02  0.11638875414E+02  0.12700000000E+01 0.  1.
<mgrwt>
<rscale>  0 0.21004640E+01</rscale>
<asrwt>0</asrwt>
<pdfrwt beam="1">0</pdfrwt>
<pdfrwt beam="2">0</pdfrwt>
<totfact> 0.35763896E+12</totfact>
</mgrwt>
</event>
<event>
 4    1  0.1735226E+006  0.2029917E+01  0.7546771E-02  0.2960819E+00
         22   -1    0    0    0    0  0.00000000000E+00  0.00000000000E+00  0.50627602041E+02  0.50627602041E+02  0.00000000000E+00 0. -1.
         22   -1    0    0    0    0 -0.00000000000E+00 -0.00000000000E+00 -0.81673238771E-01  0.81673238771E-01  0.00000000000E+00 0. -1.
          4    1    1    2  501    0 -0.10416199032E+01 -0.11927658842E+01  0.23778907715E+02  0.23865393661E+02  0.12700000000E+01 0. -1.
         -4    1    1    2    0  501  0.10416199032E+01  0.11927658842E+01  0.26767021087E+02  0.26843881619E+02  0.12700000000E+01 0. -1.
<mgrwt>
<rscale>  0 0.20299169E+01</rscale>
<asrwt>0</asrwt>
<pdfrwt beam="1">0</pdfrwt>
<pdfrwt beam="2">0</pdfrwt>
<totfact> 0.34228338E+12</totfact>
</mgrwt>
</event>
<event>
 4    1  0.1735226E+006  0.2567015E+01  0.7546771E-02  0.2679703E+00
         22   -1    0    0    0    0  0.00000000000E+00  0.00000000000E+00  0.17233346456E+01  0.17233346456E+01  0.00000000000E+00 0. -1.
         22   -1    0    0    0    0 -0.00000000000E+00 -0.00000000000E+00 -0.38698648393E+01  0.38698648393E+01  0.00000000000E+00 0.  1.
          4    1    1    2  501    0 -0.93350933501E+00  0.20261364223E+01 -0.13786103666E+01  0.29137836267E+01  0.12700000000E+01 0.  1.
         -4    1    1    2    0  501  0.93350933501E+00 -0.20261364223E+01 -0.76791982718E+00  0.26794158582E+01  0.12700000000E+01 0. -1.
<mgrwt>
<rscale>  0 0.25670155E+01</rscale>
<asrwt>0</asrwt>
<pdfrwt beam="1">0</pdfrwt>
<pdfrwt beam="2">0</pdfrwt>
<totfact> 0.26350890E+12</totfact>
</mgrwt>
</event>
<event>
 4    1  0.1735226E+006  0.2336060E+01  0.7546771E-02  0.2785536E+00
         22   -1    0    0    0    0  0.00000000000E+00  0.00000000000E+00  0.53735027902E+01  0.53735027902E+01  0.00000000000E+00 0.  1.
         22   -1    0    0    0    0 -0.00000000000E+00 -0.00000000000E+00 -0.10419132984E+01  0.10419132984E+01  0.00000000000E+00 0. -1.
          4    1    1    2  501    0  0.85140995496E+00 -0.17661765549E+01  0.26758277839E+01  0.35520744451E+01  0.12700000000E+01 0. -1.
         -4    1    1    2    0  501 -0.85140995496E+00  0.17661765549E+01  0.16557617079E+01  0.28633416436E+01  0.12700000000E+01 0.  1.
<mgrwt>
<rscale>  0 0.23360605E+01</rscale>
<asrwt>0</asrwt>
<pdfrwt beam="1">0</pdfrwt>
<pdfrwt beam="2">0</pdfrwt>
<totfact> 0.31867182E+12</totfact>
</mgrwt>
</event>
<event>
 4    1  0.1735226E+006  0.2018817E+01  0.7546771E-02  0.2968138E+00
         22   -1    0    0    0    0  0.00000000000E+00  0.00000000000E+00  0.10733718188E+01  0.10733718188E+01  0.00000000000E+00 0.  1.
         22   -1    0    0    0    0 -0.00000000000E+00 -0.00000000000E+00 -0.38275562390E+01  0.38275562390E+01  0.00000000000E+00 0. -1.
          4    1    1    2  501    0 -0.15598086112E+01 -0.17239799862E+00 -0.15959343617E+01  0.25734471940E+01  0.12700000000E+01 0. -1.
         -4    1    1    2    0  501  0.15598086112E+01  0.17239799862E+00 -0.11582500585E+01  0.23274808639E+01  0.12700000000E+01 0. -1.
<mgrwt>
<rscale>  0 0.20188175E+01</rscale>
<asrwt>0</asrwt>
<pdfrwt beam="1">0</pdfrwt>
<pdfrwt beam="2">0</pdfrwt>
<totfact> 0.45975079E+12</totfact>
</mgrwt>
</event>
<event>
 4    1  0.1735226E+006  0.2683440E+01  0.7546771E-02  0.2632795E+00
         22   -1    0    0    0    0  0.00000000000E+00  0.00000000000E+00  0.74654106296E-01  0.74654106296E-01  0.00000000000E+00 0.  1.
         22   -1    0    0    0    0 -0.00000000000E+00 -0.00000000000E+00 -0.96495265911E+02  0.96495265911E+02  0.00000000000E+00 0. -1.
          4    1    1    2  501    0  0.35588182240E+00  0.23369415791E+01 -0.47238174166E+02  0.47314331300E+02  0.12700000000E+01 0. -1.
         -4    1    1    2    0  501 -0.35588182240E+00 -0.23369415791E+01 -0.49182437638E+02  0.49255588717E+02  0.12700000000E+01 0.  1.
<mgrwt>
<rscale>  0 0.26834395E+01</rscale>
<asrwt>0</asrwt>
<pdfrwt beam="1">0</pdfrwt>
<pdfrwt beam="2">0</pdfrwt>
<totfact> 0.15743366E+12</totfact>
</mgrwt>
</event>
<event>
 4    1  0.1735226E+006  0.2812157E+01  0.7546771E-02  0.2585094E+00
         22   -1    0    0    0    0  0.00000000000E+00  0.00000000000E+00  0.31294160980E+02  0.31294160980E+02  0.00000000000E+00 0. -1.
         22   -1    0    0    0    0 -0.00000000000E+00 -0.00000000000E+00 -0.25363112830E+00  0.25363112830E+00  0.00000000000E+00 0.  1.
          4    1    1    2  501    0 -0.23509484490E+01 -0.87656512586E+00  0.14567649105E+02  0.14836597503E+02  0.12700000000E+01 0. -1.
         -4    1    1    2    0  501  0.23509484490E+01  0.87656512586E+00  0.16472880747E+02  0.16711194605E+02  0.12700000000E+01 0.  1.
<mgrwt>
<rscale>  0 0.28121567E+01</rscale>
<asrwt>0</asrwt>
<pdfrwt beam="1">0</pdfrwt>
<pdfrwt beam="2">0</pdfrwt>
<totfact> 0.18139324E+12</totfact>
</mgrwt>
</event>
<event>
 4    1  0.1735226E+006  0.2531879E+01  0.7546771E-02  0.2694640E+00
         22   -1    0    0    0    0  0.00000000000E+00  0.00000000000E+00  0.50503404524E+01  0.50503404524E+01  0.00000000000E+00 0. -1.
         22   -1    0    0    0    0 -0.00000000000E+00 -0.00000000000E+00 -0.15995283316E+01  0.15995283316E+01  0.00000000000E+00 0.  1.
          4    1    1    2  501    0  0.13991742548E+00 -0.21858488103E+01  0.32361551933E+01  0.41089064655E+01  0.12700000000E+01 0. -1.
         -4    1    1    2    0  501 -0.13991742548E+00  0.21858488103E+01  0.21465692753E+00  0.25409623185E+01  0.12700000000E+01 0.  1.
<mgrwt>
<rscale>  0 0.25318791E+01</rscale>
<asrwt>0</asrwt>
<pdfrwt beam="1">0</pdfrwt>
<pdfrwt beam="2">0</pdfrwt>
<totfact> 0.20974523E+12</totfact>
</mgrwt>
</event>
<event>
 4    1  0.1735226E+006  0.2291419E+01  0.7546771E-02  0.2808299E+00
         22   -1    0    0    0    0  0.00000000000E+00  0.00000000000E+00  0.77861493262E+02  0.77861493262E+02  0.00000000000E+00 0.  1.
         22   -1    0    0    0    0 -0.00000000000E+00 -0.00000000000E+00 -0.86599775384E-01  0.86599775384E-01  0.00000000000E+00 0. -1.
          4    1    1    2  501    0 -0.17441260597E+01  0.77183164420E+00  0.57221881603E+02  0.57267742526E+02  0.12700000000E+01 0.  1.
         -4    1    1    2    0  501  0.17441260597E+01 -0.77183164420E+00  0.20553011884E+02  0.20680350512E+02  0.12700000000E+01 0. -1.
<mgrwt>
<rscale>  0 0.22914187E+01</rscale>
<asrwt>0</asrwt>
<pdfrwt beam="1">0</pdfrwt>
<pdfrwt beam="2">0</pdfrwt>
<totfact> 0.17989825E+12</totfact>
</mgrwt>
</event>
<event>
 4    1  0.1735226E+006  0.2069949E+01  0.7546771E-02  0.2935058E+00
         22   -1    0    0    0    0  0.00000000000E+00  0.00000000000E+00  0.30706671306E+01  0.30706671306E+01  0.00000000000E+00 0. -1.
         22   -1    0    0    0    0 -0.00000000000E+00 -0.00000000000E+00 -0.15078102657E+01  0.15078102657E+01  0.00000000000E+00 0. -1.
          4    1    1    2  501    0 -0.96413281744E+00 -0.13199379815E+01  0.14065961470E+01  0.25026388244E+01  0.12700000000E+01 0. -1.
         -4    1    1    2    0  501  0.96413281744E+00  0.13199379815E+01  0.15626071791E+00  0.20758385719E+01  0.12700000000E+01 0. -1.
<mgrwt>
<rscale>  0 0.20699489E+01</rscale>
<asrwt>0</asrwt>
<pdfrwt beam="1">0</pdfrwt>
<pdfrwt beam="2">0</pdfrwt>
<totfact> 0.40307798E+12</totfact>
</mgrwt>
</event>
<event>
 4    1  0.1735226E+006  0.3010237E+01  0.7546771E-02  0.2518955E+00
         22   -1    0    0    0    0  0.00000000000E+00  0.00000000000E+00  0.66510009991E+02  0.66510009991E+02  0.00000000000E+00 0. -1.
         22   -1    0    0    0    0 -0.00000000000E+00 -0.00000000000E+00 -0.26187643822E+00  0.26187643822E+00  0.00000000000E+00 0.  1.
          4    1    1    2  501    0 -0.26203977101E+01 -0.76298239178E+00  0.56248334157E+02  0.56328825851E+02  0.12700000000E+01 0. -1.
         -4    1    1    2    0  501  0.26203977101E+01  0.76298239178E+00  0.99997993957E+01  0.10443060578E+02  0.12700000000E+01 0.  1.
<mgrwt>
<rscale>  0 0.30102369E+01</rscale>
<asrwt>0</asrwt>
<pdfrwt beam="1">0</pdfrwt>
<pdfrwt beam="2">0</pdfrwt>
<totfact> 0.65122757E+11</totfact>
</mgrwt>
</event>
<event>
 4    1  0.1735226E+006  0.2419242E+01  0.7546771E-02  0.2745241E+00
         22   -1    0    0    0    0  0.00000000000E+00  0.00000000000E+00  0.25310693457E+01  0.25310693457E+01  0.00000000000E+00 0.  1.
         22   -1    0    0    0    0 -0.00000000000E+00 -0.00000000000E+00 -0.28196380327E+01  0.28196380327E+01  0.00000000000E+00 0.  1.
          4    1    1    2  501    0 -0.17449264831E+01 -0.10931891188E+01  0.99049047357E+00  0.26141542149E+01  0.12700000000E+01 0.  1.
         -4    1    1    2    0  501  0.17449264831E+01  0.10931891188E+01 -0.12790591605E+01  0.27365531636E+01  0.12700000000E+01 0.  1.
<mgrwt>
<rscale>  0 0.24192418E+01</rscale>
<asrwt>0</asrwt>
<pdfrwt beam="1">0</pdfrwt>
<pdfrwt beam="2">0</pdfrwt>
<totfact> 0.24456736E+12</totfact>
</mgrwt>
</event>
<event>
 4    1  0.1735226E+006  0.2623047E+01  0.7546771E-02  0.2656648E+00
         22   -1    0    0    0    0  0.00000000000E+00  0.00000000000E+00  0.12896478413E+02  0.12896478413E+02  0.00000000000E+00 0. -1.
         22   -1    0    0    0    0 -0.00000000000E+00 -0.00000000000E+00 -0.56377089298E+00  0.56377089298E+00  0.00000000000E+00 0.  1.
          4    1    1    2  501    0 -0.51009638589E+00 -0.22376950351E+01  0.46070693319E+01  0.53014587825E+01  0.12700000000E+01 0. -1.
         -4    1    1    2    0  501  0.51009638589E+00  0.22376950351E+01  0.77256381883E+01  0.81587905237E+01  0.12700000000E+01 0.  1.
<mgrwt>
<rscale>  0 0.26230473E+01</rscale>
<asrwt>0</asrwt>
<pdfrwt beam="1">0</pdfrwt>
<pdfrwt beam="2">0</pdfrwt>
<totfact> 0.22334309E+12</totfact>
</mgrwt>
</event>
<event>
 4    1  0.1735226E+006  0.2046443E+01  0.7546771E-02  0.2950065E+00
         22   -1    0    0    0    0  0.00000000000E+00  0.00000000000E+00  0.42363139654E+00  0.42363139654E+00  0.00000000000E+00 0. -1.
         22   -1    0    0    0    0 -0.00000000000E+00 -0.00000000000E+00 -0.16243750344E+02  0.16243750344E+02  0.00000000000E+00 0. -1.
          4    1    1    2  501    0  0.93150462829E+00 -0.13066480573E+01 -0.13123845720E+02  0.13282441662E+02  0.12700000000E+01 0. -1.
         -4    1    1    2    0  501 -0.93150462829E+00  0.13066480573E+01 -0.26962732266E+01  0.33849400779E+01  0.12700000000E+01 0. -1.
<mgrwt>
<rscale>  0 0.20464433E+01</rscale>
<asrwt>0</asrwt>
<pdfrwt beam="1">0</pdfrwt>
<pdfrwt beam="2">0</pdfrwt>
<totfact> 0.23221946E+12</totfact>
</mgrwt>
</event>
<event>
 4    1  0.1735226E+006  0.5980298E+01  0.7546771E-02  0.2021459E+00
         22   -1    0    0    0    0  0.00000000000E+00  0.00000000000E+00  0.74585429932E+02  0.74585429932E+02  0.00000000000E+00 0.  1.
         22   -1    0    0    0    0 -0.00000000000E+00 -0.00000000000E+00 -0.65620786135E+00  0.65620786135E+00  0.00000000000E+00 0. -1.
          4    1    1    2  501    0 -0.39952320680E+01 -0.42648775899E+01  0.56486930017E+02  0.56802616338E+02  0.12700000000E+01 0.  1.
         -4    1    1    2    0  501  0.39952320680E+01  0.42648775899E+01  0.17442292054E+02  0.18439021455E+02  0.12700000000E+01 0. -1.
<mgrwt>
<rscale>  0 0.59802977E+01</rscale>
<asrwt>0</asrwt>
<pdfrwt beam="1">0</pdfrwt>
<pdfrwt beam="2">0</pdfrwt>
<totfact> 0.19807541E+11</totfact>
</mgrwt>
</event>
<event>
 4    1  0.1735226E+006  0.2925063E+01  0.7546771E-02  0.2546405E+00
         22   -1    0    0    0    0  0.00000000000E+00  0.00000000000E+00  0.12982439279E+02  0.12982439279E+02  0.00000000000E+00 0.  1.
         22   -1    0    0    0    0 -0.00000000000E+00 -0.00000000000E+00 -0.17536169009E+01  0.17536169009E+01  0.00000000000E+00 0.  1.
          4    1    1    2  501    0 -0.16963894924E+01 -0.20162724651E+01  0.11435528623E+02  0.11803698863E+02  0.12700000000E+01 0.  1.
         -4    1    1    2    0  501  0.16963894924E+01  0.20162724651E+01 -0.20670624455E+00  0.29323573171E+01  0.12700000000E+01 0.  1.
<mgrwt>
<rscale>  0 0.29250627E+01</rscale>
<asrwt>0</asrwt>
<pdfrwt beam="1">0</pdfrwt>
<pdfrwt beam="2">0</pdfrwt>
<totfact> 0.60612306E+11</totfact>
</mgrwt>
</event>
<event>
 4    1  0.1735226E+006  0.2373563E+01  0.7546771E-02  0.2767040E+00
         22   -1    0    0    0    0  0.00000000000E+00  0.00000000000E+00  0.12640998464E+02  0.12640998464E+02  0.00000000000E+00 0. -1.
         22   -1    0    0    0    0 -0.00000000000E+00 -0.00000000000E+00 -0.55499579259E+00  0.55499579259E+00  0.00000000000E+00 0.  1.
          4    1    1    2  501    0 -0.28731136193E+00 -0.19845288204E+01  0.89712952223E+01  0.92799752383E+01  0.12700000000E+01 0. -1.
         -4    1    1    2    0  501  0.28731136193E+00  0.19845288204E+01  0.31147074487E+01  0.39160190179E+01  0.12700000000E+01 0.  1.
<mgrwt>
<rscale>  0 0.23735632E+01</rscale>
<asrwt>0</asrwt>
<pdfrwt beam="1">0</pdfrwt>
<pdfrwt beam="2">0</pdfrwt>
<totfact> 0.23296553E+12</totfact>
</mgrwt>
</event>
<event>
 4    1  0.1735226E+006  0.3493429E+01  0.7546771E-02  0.2386030E+00
         22   -1    0    0    0    0  0.00000000000E+00  0.00000000000E+00  0.24020366383E+02  0.24020366383E+02  0.00000000000E+00 0. -1.
         22   -1    0    0    0    0 -0.00000000000E+00 -0.00000000000E+00 -0.67636066302E+01  0.67636066302E+01  0.00000000000E+00 0.  1.
          4    1    1    2  501    0 -0.14821477939E+01  0.28973065750E+01  0.23430971583E+02  0.23689965740E+02  0.12700000000E+01 0. -1.
         -4    1    1    2    0  501  0.14821477939E+01 -0.28973065750E+01 -0.61742118296E+01  0.70940072730E+01  0.12700000000E+01 0.  1.
<mgrwt>
<rscale>  0 0.34934292E+01</rscale>
<asrwt>0</asrwt>
<pdfrwt beam="1">0</pdfrwt>
<pdfrwt beam="2">0</pdfrwt>
<totfact> 0.58016150E+10</totfact>
</mgrwt>
</event>
<event>
 4    1  0.1735226E+006  0.2668711E+01  0.7546771E-02  0.2638521E+00
         22   -1    0    0    0    0  0.00000000000E+00  0.00000000000E+00  0.94023549620E+00  0.94023549620E+00  0.00000000000E+00 0.  1.
         22   -1    0    0    0    0 -0.00000000000E+00 -0.00000000000E+00 -0.29245465036E+02  0.29245465036E+02  0.00000000000E+00 0. -1.
          4    1    1    2  501    0 -0.20804698672E+01  0.10866305150E+01 -0.11605278435E+01  0.29101281106E+01  0.12700000000E+01 0.  1.
         -4    1    1    2    0  501  0.20804698672E+01 -0.10866305150E+01 -0.27144701697E+02  0.27275572422E+02  0.12700000000E+01 0. -1.
<mgrwt>
<rscale>  0 0.26687114E+01</rscale>
<asrwt>0</asrwt>
<pdfrwt beam="1">0</pdfrwt>
<pdfrwt beam="2">0</pdfrwt>
<totfact> 0.45038385E+11</totfact>
</mgrwt>
</event>
<event>
 4    1  0.1735226E+006  0.2173280E+01  0.7546771E-02  0.2872826E+00
         22   -1    0    0    0    0  0.00000000000E+00  0.00000000000E+00  0.26910778200E+00  0.26910778200E+00  0.00000000000E+00 0. -1.
         22   -1    0    0    0    0 -0.00000000000E+00 -0.00000000000E+00 -0.19365770379E+02  0.19365770379E+02  0.00000000000E+00 0.  1.
          4    1    1    2  501    0 -0.16129733396E+01  0.71313742354E+00 -0.65431195175E+01  0.68946037595E+01  0.12700000000E+01 0. -1.
         -4    1    1    2    0  501  0.16129733396E+01 -0.71313742354E+00 -0.12553543079E+02  0.12740274401E+02  0.12700000000E+01 0.  1.
<mgrwt>
<rscale>  0 0.21732805E+01</rscale>
<asrwt>0</asrwt>
<pdfrwt beam="1">0</pdfrwt>
<pdfrwt beam="2">0</pdfrwt>
<totfact> 0.31085405E+12</totfact>
</mgrwt>
</event>
<event>
 4    1  0.1735226E+006  0.2172281E+01  0.7546771E-02  0.2873400E+00
         22   -1    0    0    0    0  0.00000000000E+00  0.00000000000E+00  0.66368614981E+01  0.66368614981E+01  0.00000000000E+00 0.  1.
         22   -1    0    0    0    0 -0.00000000000E+00 -0.00000000000E+00 -0.98367895070E+00  0.98367895070E+00  0.00000000000E+00 0. -1.
          4    1    1    2  501    0  0.17617311057E+01  0.47011974148E-01  0.48327030353E+01  0.52984738597E+01  0.12700000000E+01 0.  1.
         -4    1    1    2    0  501 -0.17617311057E+01 -0.47011974148E-01  0.82047951208E+00  0.23220665891E+01  0.12700000000E+01 0. -1.
<mgrwt>
<rscale>  0 0.21722814E+01</rscale>
<asrwt>0</asrwt>
<pdfrwt beam="1">0</pdfrwt>
<pdfrwt beam="2">0</pdfrwt>
<totfact> 0.26467314E+12</totfact>
</mgrwt>
</event>
<event>
 4    1  0.1735226E+006  0.3119397E+01  0.7546771E-02  0.2485745E+00
         22   -1    0    0    0    0  0.00000000000E+00  0.00000000000E+00  0.41846525213E+01  0.41846525213E+01  0.00000000000E+00 0. -1.
         22   -1    0    0    0    0 -0.00000000000E+00 -0.00000000000E+00 -0.23655269764E+01  0.23655269764E+01  0.00000000000E+00 0.  1.
          4    1    1    2  501    0 -0.28128545712E+01 -0.45341482664E+00  0.48255455545E+00  0.31565003948E+01  0.12700000000E+01 0.  1.
         -4    1    1    2    0  501  0.28128545712E+01  0.45341482664E+00  0.13365709895E+01  0.33936791029E+01  0.12700000000E+01 0. -1.
<mgrwt>
<rscale>  0 0.31193967E+01</rscale>
<asrwt>0</asrwt>
<pdfrwt beam="1">0</pdfrwt>
<pdfrwt beam="2">0</pdfrwt>
<totfact> 0.16656207E+12</totfact>
</mgrwt>
</event>
<event>
 4    1  0.1735226E+006  0.3026923E+01  0.7546771E-02  0.2513740E+00
         22   -1    0    0    0    0  0.00000000000E+00  0.00000000000E+00  0.20459137592E+01  0.20459137592E+01  0.00000000000E+00 0.  1.
         22   -1    0    0    0    0 -0.00000000000E+00 -0.00000000000E+00 -0.44831538767E+01  0.44831538767E+01  0.00000000000E+00 0. -1.
          4    1    1    2  501    0 -0.97453121328E+00 -0.25689786394E+01 -0.11114560128E+01  0.32245304781E+01  0.12700000000E+01 0. -1.
         -4    1    1    2    0  501  0.97453121328E+00  0.25689786394E+01 -0.13257841046E+01  0.33045371578E+01  0.12700000000E+01 0.  1.
<mgrwt>
<rscale>  0 0.30269229E+01</rscale>
<asrwt>0</asrwt>
<pdfrwt beam="1">0</pdfrwt>
<pdfrwt beam="2">0</pdfrwt>
<totfact> 0.18172089E+12</totfact>
</mgrwt>
</event>
<event>
 4    1  0.1735226E+006  0.2014166E+01  0.7546771E-02  0.2971229E+00
         22   -1    0    0    0    0  0.00000000000E+00  0.00000000000E+00  0.21201732725E+01  0.21201732725E+01  0.00000000000E+00 0.  1.
         22   -1    0    0    0    0 -0.00000000000E+00 -0.00000000000E+00 -0.28623330492E+01  0.28623330492E+01  0.00000000000E+00 0. -1.
          4    1    1    2  501    0  0.14521601885E+01 -0.57895982513E+00  0.10632933243E+01  0.22775988201E+01  0.12700000000E+01 0.  1.
         -4    1    1    2    0  501 -0.14521601885E+01  0.57895982513E+00 -0.18054531010E+01  0.27049075016E+01  0.12700000000E+01 0. -1.
<mgrwt>
<rscale>  0 0.20141658E+01</rscale>
<asrwt>0</asrwt>
<pdfrwt beam="1">0</pdfrwt>
<pdfrwt beam="2">0</pdfrwt>
<totfact> 0.29517662E+12</totfact>
</mgrwt>
</event>
<event>
 4    1  0.1735226E+006  0.8313246E+01  0.7546771E-02  0.1858707E+00
         22   -1    0    0    0    0  0.00000000000E+00  0.00000000000E+00  0.78024058402E+02  0.78024058402E+02  0.00000000000E+00 0.  1.
         22   -1    0    0    0    0 -0.00000000000E+00 -0.00000000000E+00 -0.12755404931E+01  0.12755404931E+01  0.00000000000E+00 0. -1.
          4    1    1    2  501    0 -0.32437301341E+01  0.75482029531E+01  0.60292603734E+02  0.60863027513E+02  0.12700000000E+01 0.  1.
         -4    1    1    2    0  501  0.32437301341E+01 -0.75482029531E+01  0.16455914175E+02  0.18436571383E+02  0.12700000000E+01 0. -1.
<mgrwt>
<rscale>  0 0.83132456E+01</rscale>
<asrwt>0</asrwt>
<pdfrwt beam="1">0</pdfrwt>
<pdfrwt beam="2">0</pdfrwt>
<totfact> 0.87278273E+10</totfact>
</mgrwt>
</event>
<event>
 4    1  0.1735226E+006  0.2484783E+01  0.7546771E-02  0.2715277E+00
         22   -1    0    0    0    0  0.00000000000E+00  0.00000000000E+00  0.32447205721E+00  0.32447205721E+00  0.00000000000E+00 0.  1.
         22   -1    0    0    0    0 -0.00000000000E+00 -0.00000000000E+00 -0.19242389564E+02  0.19242389564E+02  0.00000000000E+00 0.  1.
          4    1    1    2  501    0  0.12256273609E+01  0.17490235020E+01 -0.10490955207E+02  0.10781200620E+02  0.12700000000E+01 0.  1.
         -4    1    1    2    0  501 -0.12256273609E+01 -0.17490235020E+01 -0.84269622995E+01  0.87856610016E+01  0.12700000000E+01 0.  1.
<mgrwt>
<rscale>  0 0.24847828E+01</rscale>
<asrwt>0</asrwt>
<pdfrwt beam="1">0</pdfrwt>
<pdfrwt beam="2">0</pdfrwt>
<totfact> 0.25406712E+12</totfact>
</mgrwt>
</event>
<event>
 4    1  0.1735226E+006  0.2154603E+01  0.7546771E-02  0.2883647E+00
         22   -1    0    0    0    0  0.00000000000E+00  0.00000000000E+00  0.61241577095E+00  0.61241577095E+00  0.00000000000E+00 0.  1.
         22   -1    0    0    0    0 -0.00000000000E+00 -0.00000000000E+00 -0.87692118892E+01  0.87692118892E+01  0.00000000000E+00 0. -1.
          4    1    1    2  501    0 -0.16885576097E+01  0.42212246530E+00 -0.23512200066E+01  0.31891299278E+01  0.12700000000E+01 0.  1.
         -4    1    1    2    0  501  0.16885576097E+01 -0.42212246530E+00 -0.58055761117E+01  0.61924977324E+01  0.12700000000E+01 0. -1.
<mgrwt>
<rscale>  0 0.21546030E+01</rscale>
<asrwt>0</asrwt>
<pdfrwt beam="1">0</pdfrwt>
<pdfrwt beam="2">0</pdfrwt>
<totfact> 0.32477450E+12</totfact>
</mgrwt>
</event>
<event>
 4    1  0.1735226E+006  0.3890430E+01  0.7546771E-02  0.2298741E+00
         22   -1    0    0    0    0  0.00000000000E+00  0.00000000000E+00  0.13771728273E+01  0.13771728273E+01  0.00000000000E+00 0. -1.
         22   -1    0    0    0    0 -0.00000000000E+00 -0.00000000000E+00 -0.24130260022E+02  0.24130260022E+02  0.00000000000E+00 0.  1.
          4    1    1    2  501    0  0.32204119437E+01  0.17752434059E+01 -0.19651490419E+01  0.43585838290E+01  0.12700000000E+01 0. -1.
         -4    1    1    2    0  501 -0.32204119437E+01 -0.17752434059E+01 -0.20787938153E+02  0.21148849021E+02  0.12700000000E+01 0.  1.
<mgrwt>
<rscale>  0 0.38904296E+01</rscale>
<asrwt>0</asrwt>
<pdfrwt beam="1">0</pdfrwt>
<pdfrwt beam="2">0</pdfrwt>
<totfact> 0.37114164E+11</totfact>
</mgrwt>
</event>
<event>
 4    1  0.1735226E+006  0.2260960E+01  0.7546771E-02  0.2824320E+00
         22   -1    0    0    0    0  0.00000000000E+00  0.00000000000E+00  0.22239596264E+00  0.22239596264E+00  0.00000000000E+00 0. -1.
         22   -1    0    0    0    0 -0.00000000000E+00 -0.00000000000E+00 -0.34350125898E+02  0.34350125898E+02  0.00000000000E+00 0.  1.
          4    1    1    2  501    0 -0.16056794314E+01 -0.95960111764E+00 -0.71210477162E+01  0.74713627484E+01  0.12700000000E+01 0. -1.
         -4    1    1    2    0  501  0.16056794314E+01  0.95960111764E+00 -0.27006682219E+02  0.27101159112E+02  0.12700000000E+01 0.  1.
<mgrwt>
<rscale>  0 0.22609601E+01</rscale>
<asrwt>0</asrwt>
<pdfrwt beam="1">0</pdfrwt>
<pdfrwt beam="2">0</pdfrwt>
<totfact> 0.18644759E+12</totfact>
</mgrwt>
</event>
<event>
 4    1  0.1735226E+006  0.2071633E+01  0.7546771E-02  0.2933995E+00
         22   -1    0    0    0    0  0.00000000000E+00  0.00000000000E+00  0.71693027267E+01  0.71693027267E+01  0.00000000000E+00 0. -1.
         22   -1    0    0    0    0 -0.00000000000E+00 -0.00000000000E+00 -0.23847105375E+01  0.23847105375E+01  0.00000000000E+00 0. -1.
          4    1    1    2  501    0  0.57324276400E+00 -0.15330213608E+01  0.65264837764E+01  0.68473828755E+01  0.12700000000E+01 0. -1.
         -4    1    1    2    0  501 -0.57324276400E+00  0.15330213608E+01 -0.17418915873E+01  0.27066303887E+01  0.12700000000E+01 0. -1.
<mgrwt>
<rscale>  0 0.20716326E+01</rscale>
<asrwt>0</asrwt>
<pdfrwt beam="1">0</pdfrwt>
<pdfrwt beam="2">0</pdfrwt>
<totfact> 0.87065457E+11</totfact>
</mgrwt>
</event>
<event>
 4    1  0.1735226E+006  0.7567761E+01  0.7546771E-02  0.1902301E+00
         22   -1    0    0    0    0  0.00000000000E+00  0.00000000000E+00  0.35066598653E+01  0.35066598653E+01  0.00000000000E+00 0. -1.
         22   -1    0    0    0    0 -0.00000000000E+00 -0.00000000000E+00 -0.20635410903E+02  0.20635410903E+02  0.00000000000E+00 0. -1.
          4    1    1    2  501    0 -0.37886782593E+01  0.64268206252E+01 -0.30519725940E+01  0.81599965083E+01  0.12700000000E+01 0. -1.
         -4    1    1    2    0  501  0.37886782593E+01 -0.64268206252E+01 -0.14076778443E+02  0.15982074260E+02  0.12700000000E+01 0. -1.
<mgrwt>
<rscale>  0 0.75677610E+01</rscale>
<asrwt>0</asrwt>
<pdfrwt beam="1">0</pdfrwt>
<pdfrwt beam="2">0</pdfrwt>
<totfact> 0.15270049E+11</totfact>
</mgrwt>
</event>
<event>
 4    1  0.1735226E+006  0.2617252E+01  0.7546771E-02  0.2658991E+00
         22   -1    0    0    0    0  0.00000000000E+00  0.00000000000E+00  0.85361870991E+01  0.85361870991E+01  0.00000000000E+00 0. -1.
         22   -1    0    0    0    0 -0.00000000000E+00 -0.00000000000E+00 -0.98043856385E+00  0.98043856385E+00  0.00000000000E+00 0.  1.
          4    1    1    2  501    0 -0.31364001138E+00 -0.22668782479E+01  0.58051756084E+01  0.63678937564E+01  0.12700000000E+01 0. -1.
         -4    1    1    2    0  501  0.31364001138E+00  0.22668782479E+01  0.17505729269E+01  0.31487319066E+01  0.12700000000E+01 0.  1.
<mgrwt>
<rscale>  0 0.26172518E+01</rscale>
<asrwt>0</asrwt>
<pdfrwt beam="1">0</pdfrwt>
<pdfrwt beam="2">0</pdfrwt>
<totfact> 0.19647832E+12</totfact>
</mgrwt>
</event>
<event>
 4    1  0.1735226E+006  0.3670536E+01  0.7546771E-02  0.2345074E+00
         22   -1    0    0    0    0  0.00000000000E+00  0.00000000000E+00  0.10360681044E+02  0.10360681044E+02  0.00000000000E+00 0.  1.
         22   -1    0    0    0    0 -0.00000000000E+00 -0.00000000000E+00 -0.13470964036E+01  0.13470964036E+01  0.00000000000E+00 0.  1.
          4    1    1    2  501    0  0.33478658686E+01 -0.80729771002E+00  0.55969114731E+01  0.66931497446E+01  0.12700000000E+01 0.  1.
         -4    1    1    2    0  501 -0.33478658686E+01  0.80729771002E+00  0.34166731671E+01  0.50146277028E+01  0.12700000000E+01 0.  1.
<mgrwt>
<rscale>  0 0.36705361E+01</rscale>
<asrwt>0</asrwt>
<pdfrwt beam="1">0</pdfrwt>
<pdfrwt beam="2">0</pdfrwt>
<totfact> 0.10807331E+12</totfact>
</mgrwt>
</event>
<event>
 4    1  0.1735226E+006  0.2093810E+01  0.7546771E-02  0.2920159E+00
         22   -1    0    0    0    0  0.00000000000E+00  0.00000000000E+00  0.17943111004E+00  0.17943111004E+00  0.00000000000E+00 0.  1.
         22   -1    0    0    0    0 -0.00000000000E+00 -0.00000000000E+00 -0.27021040148E+02  0.27021040148E+02  0.00000000000E+00 0. -1.
          4    1    1    2  501    0  0.14021428540E+01  0.89729353934E+00 -0.92117851783E+01  0.94467468713E+01  0.12700000000E+01 0. -1.
         -4    1    1    2    0  501 -0.14021428540E+01 -0.89729353934E+00 -0.17629823860E+02  0.17753724387E+02  0.12700000000E+01 0. -1.
<mgrwt>
<rscale>  0 0.20938100E+01</rscale>
<asrwt>0</asrwt>
<pdfrwt beam="1">0</pdfrwt>
<pdfrwt beam="2">0</pdfrwt>
<totfact> 0.32173549E+12</totfact>
</mgrwt>
</event>
<event>
 4    1  0.1735226E+006  0.2117813E+01  0.7546771E-02  0.2905501E+00
         22   -1    0    0    0    0  0.00000000000E+00  0.00000000000E+00  0.13844049856E+01  0.13844049856E+01  0.00000000000E+00 0.  1.
         22   -1    0    0    0    0 -0.00000000000E+00 -0.00000000000E+00 -0.13393736377E+02  0.13393736377E+02  0.00000000000E+00 0.  1.
          4    1    1    2  501    0  0.43142654034E-01 -0.16942163877E+01  0.42898040478E+00  0.21608226777E+01  0.12700000000E+01 0.  1.
         -4    1    1    2    0  501 -0.43142654034E-01  0.16942163877E+01 -0.12438311796E+02  0.12617318685E+02  0.12700000000E+01 0.  1.
<mgrwt>
<rscale>  0 0.21178127E+01</rscale>
<asrwt>0</asrwt>
<pdfrwt beam="1">0</pdfrwt>
<pdfrwt beam="2">0</pdfrwt>
<totfact> 0.76589954E+11</totfact>
</mgrwt>
</event>
<event>
 4    1  0.1735226E+006  0.2386779E+01  0.7546771E-02  0.2760652E+00
         22   -1    0    0    0    0  0.00000000000E+00  0.00000000000E+00  0.27274371391E+01  0.27274371391E+01  0.00000000000E+00 0. -1.
         22   -1    0    0    0    0 -0.00000000000E+00 -0.00000000000E+00 -0.20913394289E+01  0.20913394289E+01  0.00000000000E+00 0.  1.
          4    1    1    2  501    0 -0.15844152492E+01  0.12543690713E+01  0.40414498590E+00  0.24207533164E+01  0.12700000000E+01 0.  1.
         -4    1    1    2    0  501  0.15844152492E+01 -0.12543690713E+01  0.23195272435E+00  0.23980232516E+01  0.12700000000E+01 0. -1.
<mgrwt>
<rscale>  0 0.23867789E+01</rscale>
<asrwt>0</asrwt>
<pdfrwt beam="1">0</pdfrwt>
<pdfrwt beam="2">0</pdfrwt>
<totfact> 0.31729045E+12</totfact>
</mgrwt>
</event>
<event>
 4    1  0.1735226E+006  0.3326645E+01  0.7546771E-02  0.2428053E+00
         22   -1    0    0    0    0  0.00000000000E+00  0.00000000000E+00  0.41484837926E+01  0.41484837926E+01  0.00000000000E+00 0. -1.
         22   -1    0    0    0    0 -0.00000000000E+00 -0.00000000000E+00 -0.29192469241E+01  0.29192469241E+01  0.00000000000E+00 0.  1.
          4    1    1    2  501    0  0.30746683351E+01 -0.89432151857E-02 -0.42290003898E+00  0.33534176291E+01  0.12700000000E+01 0.  1.
         -4    1    1    2    0  501 -0.30746683351E+01  0.89432151857E-02  0.16521369075E+01  0.37143130877E+01  0.12700000000E+01 0. -1.
<mgrwt>
<rscale>  0 0.33266448E+01</rscale>
<asrwt>0</asrwt>
<pdfrwt beam="1">0</pdfrwt>
<pdfrwt beam="2">0</pdfrwt>
<totfact> 0.13171818E+12</totfact>
</mgrwt>
</event>
<event>
 4    1  0.1735226E+006  0.3871968E+01  0.7546771E-02  0.2302457E+00
         22   -1    0    0    0    0  0.00000000000E+00  0.00000000000E+00  0.48779126039E+01  0.48779126039E+01  0.00000000000E+00 0.  1.
         22   -1    0    0    0    0 -0.00000000000E+00 -0.00000000000E+00 -0.31086727029E+01  0.31086727029E+01  0.00000000000E+00 0. -1.
          4    1    1    2  501    0  0.34191210394E+01  0.12995556132E+01  0.45969509061E+00  0.38991605571E+01  0.12700000000E+01 0.  1.
         -4    1    1    2    0  501 -0.34191210394E+01 -0.12995556132E+01  0.13095448104E+01  0.40874247497E+01  0.12700000000E+01 0. -1.
<mgrwt>
<rscale>  0 0.38719676E+01</rscale>
<asrwt>0</asrwt>
<pdfrwt beam="1">0</pdfrwt>
<pdfrwt beam="2">0</pdfrwt>
<totfact> 0.10108933E+12</totfact>
</mgrwt>
</event>
<event>
 4    1  0.1735226E+006  0.2923275E+01  0.7546771E-02  0.2546996E+00
         22   -1    0    0    0    0  0.00000000000E+00  0.00000000000E+00  0.71608262022E+00  0.71608262022E+00  0.00000000000E+00 0.  1.
         22   -1    0    0    0    0 -0.00000000000E+00 -0.00000000000E+00 -0.17248418130E+02  0.17248418130E+02  0.00000000000E+00 0. -1.
          4    1    1    2  501    0  0.11612980955E-01  0.26329639712E+01 -0.32801989545E+01  0.43937727884E+01  0.12700000000E+01 0.  1.
         -4    1    1    2    0  501 -0.11612980955E-01 -0.26329639712E+01 -0.13252136556E+02  0.13570727962E+02  0.12700000000E+01 0. -1.
<mgrwt>
<rscale>  0 0.29232746E+01</rscale>
<asrwt>0</asrwt>
<pdfrwt beam="1">0</pdfrwt>
<pdfrwt beam="2">0</pdfrwt>
<totfact> 0.11909473E+12</totfact>
</mgrwt>
</event>
<event>
 4    1  0.1735226E+006  0.2365605E+01  0.7546771E-02  0.2770919E+00
         22   -1    0    0    0    0  0.00000000000E+00  0.00000000000E+00  0.54269510973E+00  0.54269510973E+00  0.00000000000E+00 0.  1.
         22   -1    0    0    0    0 -0.00000000000E+00 -0.00000000000E+00 -0.18582035754E+02  0.18582035754E+02  0.00000000000E+00 0. -1.
          4    1    1    2  501    0 -0.10827345463E+01 -0.16765657551E+01 -0.26402481726E+01  0.35449960849E+01  0.12700000000E+01 0.  1.
         -4    1    1    2    0  501  0.10827345463E+01  0.16765657551E+01 -0.15399092471E+02  0.15579734779E+02  0.12700000000E+01 0. -1.
<mgrwt>
<rscale>  0 0.23656050E+01</rscale>
<asrwt>0</asrwt>
<pdfrwt beam="1">0</pdfrwt>
<pdfrwt beam="2">0</pdfrwt>
<totfact> 0.14865659E+12</totfact>
</mgrwt>
</event>
<event>
 4    1  0.1735226E+006  0.2992871E+01  0.7546771E-02  0.2524438E+00
         22   -1    0    0    0    0  0.00000000000E+00  0.00000000000E+00  0.45322739191E+02  0.45322739191E+02  0.00000000000E+00 0.  1.
         22   -1    0    0    0    0 -0.00000000000E+00 -0.00000000000E+00 -0.80473679445E+00  0.80473679445E+00  0.00000000000E+00 0. -1.
          4    1    1    2  501    0 -0.13570206251E+01  0.23458202491E+01  0.42291455991E+02  0.42397223110E+02  0.12700000000E+01 0.  1.
         -4    1    1    2    0  501  0.13570206251E+01 -0.23458202491E+01  0.22265464058E+01  0.37302528755E+01  0.12700000000E+01 0. -1.
<mgrwt>
<rscale>  0 0.29928711E+01</rscale>
<asrwt>0</asrwt>
<pdfrwt beam="1">0</pdfrwt>
<pdfrwt beam="2">0</pdfrwt>
<totfact> 0.30557875E+11</totfact>
</mgrwt>
</event>
<event>
 4    1  0.1735226E+006  0.2690648E+01  0.7546771E-02  0.2630014E+00
         22   -1    0    0    0    0  0.00000000000E+00  0.00000000000E+00  0.37976418630E+02  0.37976418630E+02  0.00000000000E+00 0.  1.
         22   -1    0    0    0    0 -0.00000000000E+00 -0.00000000000E+00 -0.19763867711E+00  0.19763867711E+00  0.00000000000E+00 0. -1.
          4    1    1    2  501    0  0.88700710060E-01  0.23704043267E+01  0.22482796028E+02  0.22643226399E+02  0.12700000000E+01 0.  1.
         -4    1    1    2    0  501 -0.88700710060E-01 -0.23704043267E+01  0.15295983924E+02  0.15530830908E+02  0.12700000000E+01 0. -1.
<mgrwt>
<rscale>  0 0.26906476E+01</rscale>
<asrwt>0</asrwt>
<pdfrwt beam="1">0</pdfrwt>
<pdfrwt beam="2">0</pdfrwt>
<totfact> 0.18689675E+12</totfact>
</mgrwt>
</event>
<event>
 4    1  0.1735226E+006  0.2493934E+01  0.7546771E-02  0.2711211E+00
         22   -1    0    0    0    0  0.00000000000E+00  0.00000000000E+00  0.62070526012E+00  0.62070526012E+00  0.00000000000E+00 0. -1.
         22   -1    0    0    0    0 -0.00000000000E+00 -0.00000000000E+00 -0.28788936626E+02  0.28788936626E+02  0.00000000000E+00 0.  1.
          4    1    1    2  501    0 -0.75264473401E+00  0.20100577422E+01 -0.22110656415E+01  0.33329442681E+01  0.12700000000E+01 0. -1.
         -4    1    1    2    0  501  0.75264473401E+00 -0.20100577422E+01 -0.25957165724E+02  0.26076697618E+02  0.12700000000E+01 0.  1.
<mgrwt>
<rscale>  0 0.24939339E+01</rscale>
<asrwt>0</asrwt>
<pdfrwt beam="1">0</pdfrwt>
<pdfrwt beam="2">0</pdfrwt>
<totfact> 0.73669137E+11</totfact>
</mgrwt>
</event>
