<event>
 4    2  0.1985873E+006  0.3293291E+01  0.7546771E-02  0.2436904E+00
         22   -1    0    0    0    0  0.00000000000E+00  0.00000000000E+00  0.89310599577E+02  0.89310599577E+02  0.00000000000E+00 0. -1.
         22   -1    0    0    0    0 -0.00000000000E+00 -0.00000000000E+00 -0.15696476519E+00  0.15696476519E+00  0.00000000000E+00 0.  1.
          4    1    1    2  501    0 -0.12669891173E+01  0.30398198222E+01  0.65858594465E+02  0.65940884366E+02  0.00000000000E+00 0. -1.
         -4    1    1    2    0  501  0.12669891173E+01 -0.30398198222E+01  0.23295040346E+02  0.23526679976E+02  0.00000000000E+00 0.  1.
<mgrwt>
<rscale>  0 0.32932911E+01</rscale>
<asrwt>0</asrwt>
<pdfrwt beam="1">0</pdfrwt>
<pdfrwt beam="2">0</pdfrwt>
<totfact> 0.76989007E+11</totfact>
</mgrwt>
</event>
<event>
 4    2  0.1985873E+006  0.2073110E+01  0.7546771E-02  0.2933065E+00
         22   -1    0    0    0    0  0.00000000000E+00  0.00000000000E+00  0.48368704682E+00  0.48368704682E+00  0.00000000000E+00 0.  1.
         22   -1    0    0    0    0 -0.00000000000E+00 -0.00000000000E+00 -0.98961551168E+01  0.98961551168E+01  0.00000000000E+00 0. -1.
          4    1    1    2  501    0 -0.15976862822E+01  0.13210540395E+01 -0.30476552199E+01  0.36859174667E+01  0.00000000000E+00 0.  1.
         -4    1    1    2    0  501  0.15976862822E+01 -0.13210540395E+01 -0.63648128501E+01  0.66939246970E+01  0.00000000000E+00 0. -1.
<mgrwt>
<rscale>  0 0.20731100E+01</rscale>
<asrwt>0</asrwt>
<pdfrwt beam="1">0</pdfrwt>
<pdfrwt beam="2">0</pdfrwt>
<totfact> 0.36646279E+12</totfact>
</mgrwt>
</event>
<event>
 4    2  0.1985873E+006  0.2012817E+01  0.7546771E-02  0.2972128E+00
         22   -1    0    0    0    0  0.00000000000E+00  0.00000000000E+00  0.89135867258E-01  0.89135867258E-01  0.00000000000E+00 0. -1.
         22   -1    0    0    0    0 -0.00000000000E+00 -0.00000000000E+00 -0.45693914964E+02  0.45693914964E+02  0.00000000000E+00 0.  1.
          4    1    1    2  501    0 -0.18302658776E+01 -0.83759134506E+00 -0.24466892730E+02  0.24549547293E+02  0.00000000000E+00 0.  1.
         -4    1    1    2    0  501  0.18302658776E+01  0.83759134506E+00 -0.21137886367E+02  0.21233503538E+02  0.00000000000E+00 0. -1.
<mgrwt>
<rscale>  0 0.20128170E+01</rscale>
<asrwt>0</asrwt>
<pdfrwt beam="1">0</pdfrwt>
<pdfrwt beam="2">0</pdfrwt>
<totfact> 0.35560861E+12</totfact>
</mgrwt>
</event>
<event>
 4    2  0.1985873E+006  0.4472269E+01  0.7546771E-02  0.2195190E+00
         22   -1    0    0    0    0  0.00000000000E+00  0.00000000000E+00  0.16022329271E+02  0.16022329271E+02  0.00000000000E+00 0. -1.
         22   -1    0    0    0    0 -0.00000000000E+00 -0.00000000000E+00 -0.13508462370E+01  0.13508462370E+01  0.00000000000E+00 0.  1.
          4    1    1    2  501    0 -0.42630372679E+01 -0.13519249879E+01  0.97287163762E+01  0.10707432477E+02  0.00000000000E+00 0. -1.
         -4    1    1    2    0  501  0.42630372679E+01  0.13519249879E+01  0.49427666576E+01  0.66657430307E+01  0.00000000000E+00 0.  1.
<mgrwt>
<rscale>  0 0.44722688E+01</rscale>
<asrwt>0</asrwt>
<pdfrwt beam="1">0</pdfrwt>
<pdfrwt beam="2">0</pdfrwt>
<totfact> 0.63208927E+11</totfact>
</mgrwt>
</event>
<event>
 4    2  0.1985873E+006  0.3305285E+01  0.7546771E-02  0.2433703E+00
         22   -1    0    0    0    0  0.00000000000E+00  0.00000000000E+00  0.14023393811E+01  0.14023393811E+01  0.00000000000E+00 0.  1.
         22   -1    0    0    0    0 -0.00000000000E+00 -0.00000000000E+00 -0.18463972468E+02  0.18463972468E+02  0.00000000000E+00 0. -1.
          4    1    1    2  501    0 -0.30771137531E+01 -0.12067636085E+01 -0.97854143507E+00  0.34470930937E+01  0.00000000000E+00 0.  1.
         -4    1    1    2    0  501  0.30771137531E+01  0.12067636085E+01 -0.16083091652E+02  0.16419218756E+02  0.00000000000E+00 0. -1.
<mgrwt>
<rscale>  0 0.33052848E+01</rscale>
<asrwt>0</asrwt>
<pdfrwt beam="1">0</pdfrwt>
<pdfrwt beam="2">0</pdfrwt>
<totfact> 0.50797782E+11</totfact>
</mgrwt>
</event>
<event>
 4    2  0.1985873E+006  0.2481726E+01  0.7546771E-02  0.2716642E+00
         22   -1    0    0    0    0  0.00000000000E+00  0.00000000000E+00  0.81570931523E+00  0.81570931523E+00  0.00000000000E+00 0. -1.
         22   -1    0    0    0    0 -0.00000000000E+00 -0.00000000000E+00 -0.16846883209E+02  0.16846883209E+02  0.00000000000E+00 0.  1.
          4    1    1    2  501    0 -0.18703490381E+01  0.16311828097E+01 -0.14552956944E+01  0.28769512407E+01  0.00000000000E+00 0. -1.
         -4    1    1    2    0  501  0.18703490381E+01 -0.16311828097E+01 -0.14575878199E+02  0.14785641283E+02  0.00000000000E+00 0.  1.
<mgrwt>
<rscale>  0 0.24817258E+01</rscale>
<asrwt>0</asrwt>
<pdfrwt beam="1">0</pdfrwt>
<pdfrwt beam="2">0</pdfrwt>
<totfact> 0.10573892E+12</totfact>
</mgrwt>
</event>
<event>
 4    2  0.1985873E+006  0.2061503E+01  0.7546771E-02  0.2940412E+00
         22   -1    0    0    0    0  0.00000000000E+00  0.00000000000E+00  0.17616589512E+00  0.17616589512E+00  0.00000000000E+00 0. -1.
         22   -1    0    0    0    0 -0.00000000000E+00 -0.00000000000E+00 -0.24811994905E+02  0.24811994905E+02  0.00000000000E+00 0.  1.
          4    1    1    2  501    0 -0.19979335150E+01 -0.50799065345E+00 -0.10237137331E+02  0.10442642078E+02  0.00000000000E+00 0.  1.
         -4    1    1    2    0  501  0.19979335150E+01  0.50799065345E+00 -0.14398691678E+02  0.14545518722E+02  0.00000000000E+00 0. -1.
<mgrwt>
<rscale>  0 0.20615026E+01</rscale>
<asrwt>0</asrwt>
<pdfrwt beam="1">0</pdfrwt>
<pdfrwt beam="2">0</pdfrwt>
<totfact> 0.36575570E+12</totfact>
</mgrwt>
</event>
<event>
 4    2  0.1985873E+006  0.7477794E+01  0.7546771E-02  0.1908003E+00
         22   -1    0    0    0    0  0.00000000000E+00  0.00000000000E+00  0.46370838510E+01  0.46370838510E+01  0.00000000000E+00 0.  1.
         22   -1    0    0    0    0 -0.00000000000E+00 -0.00000000000E+00 -0.12093192661E+02  0.12093192661E+02  0.00000000000E+00 0. -1.
          4    1    1    2  501    0  0.50195500062E+01 -0.55427004025E+01 -0.32815920977E+01  0.81661653616E+01  0.00000000000E+00 0.  1.
         -4    1    1    2    0  501 -0.50195500062E+01  0.55427004025E+01 -0.41745167123E+01  0.85641111505E+01  0.00000000000E+00 0. -1.
<mgrwt>
<rscale>  0 0.74777945E+01</rscale>
<asrwt>0</asrwt>
<pdfrwt beam="1">0</pdfrwt>
<pdfrwt beam="2">0</pdfrwt>
<totfact> 0.21247702E+11</totfact>
</mgrwt>
</event>
<event>
 4    2  0.1985873E+006  0.2563137E+01  0.7546771E-02  0.2681333E+00
         22   -1    0    0    0    0  0.00000000000E+00  0.00000000000E+00  0.53513918440E+02  0.53513918440E+02  0.00000000000E+00 0. -1.
         22   -1    0    0    0    0 -0.00000000000E+00 -0.00000000000E+00 -0.14076242706E+00  0.14076242706E+00  0.00000000000E+00 0.  1.
          4    1    1    2  501    0 -0.22309965950E+01 -0.12618746597E+01  0.36279061397E+02  0.36369492288E+02  0.00000000000E+00 0. -1.
         -4    1    1    2    0  501  0.22309965950E+01  0.12618746597E+01  0.17094094617E+02  0.17285188579E+02  0.00000000000E+00 0.  1.
<mgrwt>
<rscale>  0 0.25631374E+01</rscale>
<asrwt>0</asrwt>
<pdfrwt beam="1">0</pdfrwt>
<pdfrwt beam="2">0</pdfrwt>
<totfact> 0.17405263E+12</totfact>
</mgrwt>
</event>
<event>
 4    2  0.1985873E+006  0.2503428E+01  0.7546771E-02  0.2707021E+00
         22   -1    0    0    0    0  0.00000000000E+00  0.00000000000E+00  0.21200874283E+01  0.21200874283E+01  0.00000000000E+00 0.  1.
         22   -1    0    0    0    0 -0.00000000000E+00 -0.00000000000E+00 -0.29654867187E+01  0.29654867187E+01  0.00000000000E+00 0. -1.
          4    1    1    2  501    0 -0.25009960460E+01 -0.11032990800E+00 -0.27950815688E+00  0.25189836682E+01  0.00000000000E+00 0.  1.
         -4    1    1    2    0  501  0.25009960460E+01  0.11032990800E+00 -0.56589113353E+00  0.25665904788E+01  0.00000000000E+00 0. -1.
<mgrwt>
<rscale>  0 0.25034284E+01</rscale>
<asrwt>0</asrwt>
<pdfrwt beam="1">0</pdfrwt>
<pdfrwt beam="2">0</pdfrwt>
<totfact> 0.28326435E+12</totfact>
</mgrwt>
</event>
<event>
 4    2  0.1985873E+006  0.2101738E+01  0.7546771E-02  0.2915282E+00
         22   -1    0    0    0    0  0.00000000000E+00  0.00000000000E+00  0.22404474741E+01  0.22404474741E+01  0.00000000000E+00 0. -1.
         22   -1    0    0    0    0 -0.00000000000E+00 -0.00000000000E+00 -0.14348064460E+02  0.14348064460E+02  0.00000000000E+00 0.  1.
          4    1    1    2  501    0  0.87448266949E+00  0.19111736001E+01  0.16495263256E+01  0.26717487846E+01  0.00000000000E+00 0. -1.
         -4    1    1    2    0  501 -0.87448266949E+00 -0.19111736001E+01 -0.13757143312E+02  0.13916763150E+02  0.00000000000E+00 0.  1.
<mgrwt>
<rscale>  0 0.21017384E+01</rscale>
<asrwt>0</asrwt>
<pdfrwt beam="1">0</pdfrwt>
<pdfrwt beam="2">0</pdfrwt>
<totfact> 0.40378234E+11</totfact>
</mgrwt>
</event>
<event>
 4    2  0.1985873E+006  0.2764391E+01  0.7546771E-02  0.2602322E+00
         22   -1    0    0    0    0  0.00000000000E+00  0.00000000000E+00  0.13563542616E+02  0.13563542616E+02  0.00000000000E+00 0.  1.
         22   -1    0    0    0    0 -0.00000000000E+00 -0.00000000000E+00 -0.92893176481E+00  0.92893176481E+00  0.00000000000E+00 0. -1.
          4    1    1    2  501    0  0.18984000020E+01  0.20094611383E+01  0.10862749681E+02  0.11208977976E+02  0.00000000000E+00 0.  1.
         -4    1    1    2    0  501 -0.18984000020E+01 -0.20094611383E+01  0.17718611701E+01  0.32834964048E+01  0.00000000000E+00 0. -1.
<mgrwt>
<rscale>  0 0.27643908E+01</rscale>
<asrwt>0</asrwt>
<pdfrwt beam="1">0</pdfrwt>
<pdfrwt beam="2">0</pdfrwt>
<totfact> 0.11907925E+12</totfact>
</mgrwt>
</event>
<event>
 4    2  0.1985873E+006  0.3739750E+01  0.7546771E-02  0.2329985E+00
         22   -1    0    0    0    0  0.00000000000E+00  0.00000000000E+00  0.28362062952E+01  0.28362062952E+01  0.00000000000E+00 0. -1.
         22   -1    0    0    0    0 -0.00000000000E+00 -0.00000000000E+00 -0.64990599534E+01  0.64990599534E+01  0.00000000000E+00 0.  1.
          4    1    1    2  501    0  0.25501150714E+01  0.27354414451E+01 -0.41240546463E+01  0.55671854202E+01  0.00000000000E+00 0.  1.
         -4    1    1    2    0  501 -0.25501150714E+01 -0.27354414451E+01  0.46120098823E+00  0.37680808283E+01  0.00000000000E+00 0. -1.
<mgrwt>
<rscale>  0 0.37397496E+01</rscale>
<asrwt>0</asrwt>
<pdfrwt beam="1">0</pdfrwt>
<pdfrwt beam="2">0</pdfrwt>
<totfact> 0.80014255E+11</totfact>
</mgrwt>
</event>
<event>
 4    2  0.1985873E+006  0.2058886E+01  0.7546771E-02  0.2942079E+00
         22   -1    0    0    0    0  0.00000000000E+00  0.00000000000E+00  0.10569974217E+02  0.10569974217E+02  0.00000000000E+00 0.  1.
         22   -1    0    0    0    0 -0.00000000000E+00 -0.00000000000E+00 -0.42735604550E+00  0.42735604550E+00  0.00000000000E+00 0. -1.
          4    1    1    2  501    0 -0.17812704955E+01  0.10325145491E+01  0.37068815394E+01  0.42402808420E+01  0.00000000000E+00 0. -1.
         -4    1    1    2    0  501  0.17812704955E+01 -0.10325145491E+01  0.64357366323E+01  0.67570494207E+01  0.00000000000E+00 0.  1.
<mgrwt>
<rscale>  0 0.20588858E+01</rscale>
<asrwt>0</asrwt>
<pdfrwt beam="1">0</pdfrwt>
<pdfrwt beam="2">0</pdfrwt>
<totfact> 0.38904382E+12</totfact>
</mgrwt>
</event>
<event>
 4    2  0.1985873E+006  0.2907122E+01  0.7546771E-02  0.2552371E+00
         22   -1    0    0    0    0  0.00000000000E+00  0.00000000000E+00  0.18584357915E+01  0.18584357915E+01  0.00000000000E+00 0. -1.
         22   -1    0    0    0    0 -0.00000000000E+00 -0.00000000000E+00 -0.76435201679E+01  0.76435201679E+01  0.00000000000E+00 0.  1.
          4    1    1    2  501    0 -0.13871341781E+01 -0.25548421722E+01  0.13112201494E+00  0.29100777886E+01  0.00000000000E+00 0. -1.
         -4    1    1    2    0  501  0.13871341781E+01  0.25548421722E+01 -0.59162063914E+01  0.65918781708E+01  0.00000000000E+00 0.  1.
<mgrwt>
<rscale>  0 0.29071222E+01</rscale>
<asrwt>0</asrwt>
<pdfrwt beam="1">0</pdfrwt>
<pdfrwt beam="2">0</pdfrwt>
<totfact> 0.10765496E+12</totfact>
</mgrwt>
</event>
<event>
 4    2  0.1985873E+006  0.2108666E+01  0.7546771E-02  0.2911049E+00
         22   -1    0    0    0    0  0.00000000000E+00  0.00000000000E+00  0.37051800791E+00  0.37051800791E+00  0.00000000000E+00 0. -1.
         22   -1    0    0    0    0 -0.00000000000E+00 -0.00000000000E+00 -0.16946261959E+02  0.16946261959E+02  0.00000000000E+00 0.  1.
          4    1    1    2  501    0  0.24788385644E+00  0.20940449015E+01 -0.36104279233E+01  0.41811075381E+01  0.00000000000E+00 0. -1.
         -4    1    1    2    0  501 -0.24788385644E+00 -0.20940449015E+01 -0.12965316028E+02  0.13135672429E+02  0.00000000000E+00 0.  1.
<mgrwt>
<rscale>  0 0.21086656E+01</rscale>
<asrwt>0</asrwt>
<pdfrwt beam="1">0</pdfrwt>
<pdfrwt beam="2">0</pdfrwt>
<totfact> 0.25624606E+12</totfact>
</mgrwt>
</event>
<event>
 4    2  0.1985873E+006  0.4793858E+01  0.7546771E-02  0.2148444E+00
         22   -1    0    0    0    0  0.00000000000E+00  0.00000000000E+00  0.12666428209E+01  0.12666428209E+01  0.00000000000E+00 0.  1.
         22   -1    0    0    0    0 -0.00000000000E+00 -0.00000000000E+00 -0.19246783387E+02  0.19246783387E+02  0.00000000000E+00 0. -1.
          4    1    1    2  501    0 -0.34440234554E+01  0.33346325999E+01 -0.11445985427E+02  0.12409337393E+02  0.00000000000E+00 0. -1.
         -4    1    1    2    0  501  0.34440234554E+01 -0.33346325999E+01 -0.65341551392E+01  0.81040888149E+01  0.00000000000E+00 0.  1.
<mgrwt>
<rscale>  0 0.47938578E+01</rscale>
<asrwt>0</asrwt>
<pdfrwt beam="1">0</pdfrwt>
<pdfrwt beam="2">0</pdfrwt>
<totfact> 0.54220573E+11</totfact>
</mgrwt>
</event>
<event>
 4    2  0.1985873E+006  0.4618205E+01  0.7546771E-02  0.2172704E+00
         22   -1    0    0    0    0  0.00000000000E+00  0.00000000000E+00  0.81453954508E+01  0.81453954508E+01  0.00000000000E+00 0. -1.
         22   -1    0    0    0    0 -0.00000000000E+00 -0.00000000000E+00 -0.26222782310E+01  0.26222782310E+01  0.00000000000E+00 0.  1.
          4    1    1    2  501    0  0.12974662234E+01 -0.44321997498E+01  0.29689012678E+01  0.54901901571E+01  0.00000000000E+00 0. -1.
         -4    1    1    2    0  501 -0.12974662234E+01  0.44321997498E+01  0.25542159521E+01  0.52774835247E+01  0.00000000000E+00 0.  1.
<mgrwt>
<rscale>  0 0.46182045E+01</rscale>
<asrwt>0</asrwt>
<pdfrwt beam="1">0</pdfrwt>
<pdfrwt beam="2">0</pdfrwt>
<totfact> 0.66898944E+11</totfact>
</mgrwt>
</event>
<event>
 4    2  0.1985873E+006  0.3981543E+01  0.7546771E-02  0.2280837E+00
         22   -1    0    0    0    0  0.00000000000E+00  0.00000000000E+00  0.13396499214E+02  0.13396499214E+02  0.00000000000E+00 0.  1.
         22   -1    0    0    0    0 -0.00000000000E+00 -0.00000000000E+00 -0.21971070107E+01  0.21971070107E+01  0.00000000000E+00 0. -1.
          4    1    1    2  501    0 -0.22089413644E+01 -0.33125913953E+01  0.10895829498E+02  0.11600507927E+02  0.00000000000E+00 0.  1.
         -4    1    1    2    0  501  0.22089413644E+01  0.33125913953E+01  0.30356270543E+00  0.39930982983E+01  0.00000000000E+00 0. -1.
<mgrwt>
<rscale>  0 0.39815429E+01</rscale>
<asrwt>0</asrwt>
<pdfrwt beam="1">0</pdfrwt>
<pdfrwt beam="2">0</pdfrwt>
<totfact> 0.44935179E+11</totfact>
</mgrwt>
</event>
<event>
 4    2  0.1985873E+006  0.2096776E+01  0.7546771E-02  0.2918330E+00
         22   -1    0    0    0    0  0.00000000000E+00  0.00000000000E+00  0.40063200119E+00  0.40063200119E+00  0.00000000000E+00 0. -1.
         22   -1    0    0    0    0 -0.00000000000E+00 -0.00000000000E+00 -0.13011475739E+02  0.13011475739E+02  0.00000000000E+00 0.  1.
          4    1    1    2  501    0 -0.38871577620E+00 -0.20604296762E+01 -0.89592165553E+01  0.92013059774E+01  0.00000000000E+00 0.  1.
         -4    1    1    2    0  501  0.38871577620E+00  0.20604296762E+01 -0.36516271824E+01  0.42108017627E+01  0.00000000000E+00 0. -1.
<mgrwt>
<rscale>  0 0.20967762E+01</rscale>
<asrwt>0</asrwt>
<pdfrwt beam="1">0</pdfrwt>
<pdfrwt beam="2">0</pdfrwt>
<totfact> 0.32481286E+12</totfact>
</mgrwt>
</event>
<event>
 4    2  0.1985873E+006  0.3076523E+01  0.7546771E-02  0.2498538E+00
         22   -1    0    0    0    0  0.00000000000E+00  0.00000000000E+00  0.13528763985E+02  0.13528763985E+02  0.00000000000E+00 0. -1.
         22   -1    0    0    0    0 -0.00000000000E+00 -0.00000000000E+00 -0.73182483502E+00  0.73182483502E+00  0.00000000000E+00 0.  1.
          4    1    1    2  501    0 -0.50881595222E+00 -0.30341553667E+01  0.78942406341E+01  0.84725455238E+01  0.00000000000E+00 0. -1.
         -4    1    1    2    0  501  0.50881595222E+00  0.30341553667E+01  0.49026985163E+01  0.57880432967E+01  0.00000000000E+00 0.  1.
<mgrwt>
<rscale>  0 0.30765228E+01</rscale>
<asrwt>0</asrwt>
<pdfrwt beam="1">0</pdfrwt>
<pdfrwt beam="2">0</pdfrwt>
<totfact> 0.15670949E+12</totfact>
</mgrwt>
</event>
<event>
 4    2  0.1985873E+006  0.2092132E+01  0.7546771E-02  0.2921196E+00
         22   -1    0    0    0    0  0.00000000000E+00  0.00000000000E+00  0.37815519661E+01  0.37815519661E+01  0.00000000000E+00 0.  1.
         22   -1    0    0    0    0 -0.00000000000E+00 -0.00000000000E+00 -0.26588164449E+01  0.26588164449E+01  0.00000000000E+00 0. -1.
          4    1    1    2  501    0  0.19491686921E+01  0.76010295804E+00  0.29811577758E+01  0.36420209748E+01  0.00000000000E+00 0.  1.
         -4    1    1    2    0  501 -0.19491686921E+01 -0.76010295804E+00 -0.18584222546E+01  0.27983474362E+01  0.00000000000E+00 0. -1.
<mgrwt>
<rscale>  0 0.20921317E+01</rscale>
<asrwt>0</asrwt>
<pdfrwt beam="1">0</pdfrwt>
<pdfrwt beam="2">0</pdfrwt>
<totfact> 0.16377429E+12</totfact>
</mgrwt>
</event>
<event>
 4    2  0.1985873E+006  0.7254966E+01  0.7546771E-02  0.1922584E+00
         22   -1    0    0    0    0  0.00000000000E+00  0.00000000000E+00  0.32829428297E+01  0.32829428297E+01  0.00000000000E+00 0.  1.
         22   -1    0    0    0    0 -0.00000000000E+00 -0.00000000000E+00 -0.17748355054E+02  0.17748355054E+02  0.00000000000E+00 0. -1.
          4    1    1    2  501    0  0.54546267712E+01 -0.47834690030E+01 -0.10502109345E+02  0.12764357783E+02  0.00000000000E+00 0.  1.
         -4    1    1    2    0  501 -0.54546267712E+01  0.47834690030E+01 -0.39633028790E+01  0.82669401006E+01  0.00000000000E+00 0. -1.
<mgrwt>
<rscale>  0 0.72549658E+01</rscale>
<asrwt>0</asrwt>
<pdfrwt beam="1">0</pdfrwt>
<pdfrwt beam="2">0</pdfrwt>
<totfact> 0.19899247E+11</totfact>
</mgrwt>
</event>
<event>
 4    2  0.1985873E+006  0.2369621E+01  0.7546771E-02  0.2768958E+00
         22   -1    0    0    0    0  0.00000000000E+00  0.00000000000E+00  0.10275790436E+02  0.10275790436E+02  0.00000000000E+00 0.  1.
         22   -1    0    0    0    0 -0.00000000000E+00 -0.00000000000E+00 -0.14481879625E+01  0.14481879625E+01  0.00000000000E+00 0. -1.
          4    1    1    2  501    0 -0.11029477206E+01  0.20972863355E+01  0.90394762288E+01  0.93449041803E+01  0.00000000000E+00 0.  1.
         -4    1    1    2    0  501  0.11029477206E+01 -0.20972863355E+01 -0.21187375539E+00  0.23790742182E+01  0.00000000000E+00 0. -1.
<mgrwt>
<rscale>  0 0.23696210E+01</rscale>
<asrwt>0</asrwt>
<pdfrwt beam="1">0</pdfrwt>
<pdfrwt beam="2">0</pdfrwt>
<totfact> 0.10044353E+12</totfact>
</mgrwt>
</event>
<event>
 4    2  0.1985873E+006  0.3440898E+01  0.7546771E-02  0.2398881E+00
         22   -1    0    0    0    0  0.00000000000E+00  0.00000000000E+00  0.61985533841E+02  0.61985533841E+02  0.00000000000E+00 0.  1.
         22   -1    0    0    0    0 -0.00000000000E+00 -0.00000000000E+00 -0.33764870126E+00  0.33764870126E+00  0.00000000000E+00 0. -1.
          4    1    1    2  501    0 -0.33840517083E+01  0.62287354671E+00  0.51359821000E+02  0.51474954983E+02  0.00000000000E+00 0.  1.
         -4    1    1    2    0  501  0.33840517083E+01 -0.62287354671E+00  0.10288064140E+02  0.10848227559E+02  0.00000000000E+00 0. -1.
<mgrwt>
<rscale>  0 0.34408978E+01</rscale>
<asrwt>0</asrwt>
<pdfrwt beam="1">0</pdfrwt>
<pdfrwt beam="2">0</pdfrwt>
<totfact> 0.53850671E+11</totfact>
</mgrwt>
</event>
<event>
 4    2  0.1985873E+006  0.3187042E+01  0.7546771E-02  0.2466185E+00
         22   -1    0    0    0    0  0.00000000000E+00  0.00000000000E+00  0.44793531281E+01  0.44793531281E+01  0.00000000000E+00 0. -1.
         22   -1    0    0    0    0 -0.00000000000E+00 -0.00000000000E+00 -0.45421347728E+01  0.45421347728E+01  0.00000000000E+00 0.  1.
          4    1    1    2  501    0  0.15371258086E+01  0.27918601460E+01  0.31606430477E+01  0.44885301939E+01  0.00000000000E+00 0. -1.
         -4    1    1    2    0  501 -0.15371258086E+01 -0.27918601460E+01 -0.32234246924E+01  0.45329577071E+01  0.00000000000E+00 0.  1.
<mgrwt>
<rscale>  0 0.31870423E+01</rscale>
<asrwt>0</asrwt>
<pdfrwt beam="1">0</pdfrwt>
<pdfrwt beam="2">0</pdfrwt>
<totfact> 0.71608756E+11</totfact>
</mgrwt>
</event>
<event>
 4    2  0.1985873E+006  0.2083775E+01  0.7546771E-02  0.2926384E+00
         22   -1    0    0    0    0  0.00000000000E+00  0.00000000000E+00  0.31363073316E+02  0.31363073316E+02  0.00000000000E+00 0.  1.
         22   -1    0    0    0    0 -0.00000000000E+00 -0.00000000000E+00 -0.33548257745E+00  0.33548257745E+00  0.00000000000E+00 0. -1.
          4    1    1    2  501    0 -0.18455905552E+01 -0.96742686455E+00  0.27660178292E+02  0.27738557684E+02  0.00000000000E+00 0.  1.
         -4    1    1    2    0  501  0.18455905552E+01  0.96742686455E+00  0.33674124473E+01  0.39599982103E+01  0.00000000000E+00 0. -1.
<mgrwt>
<rscale>  0 0.20837752E+01</rscale>
<asrwt>0</asrwt>
<pdfrwt beam="1">0</pdfrwt>
<pdfrwt beam="2">0</pdfrwt>
<totfact> 0.13219399E+12</totfact>
</mgrwt>
</event>
<event>
 4    2  0.1985873E+006  0.2962035E+01  0.7546771E-02  0.2534315E+00
         22   -1    0    0    0    0  0.00000000000E+00  0.00000000000E+00  0.25997049225E+01  0.25997049225E+01  0.00000000000E+00 0.  1.
         22   -1    0    0    0    0 -0.00000000000E+00 -0.00000000000E+00 -0.37413682004E+01  0.37413682004E+01  0.00000000000E+00 0. -1.
          4    1    1    2  501    0 -0.21752120624E+01  0.20104981618E+01  0.42150050449E+00  0.29918745044E+01  0.00000000000E+00 0.  1.
         -4    1    1    2    0  501  0.21752120624E+01 -0.20104981618E+01 -0.15631637825E+01  0.33491986184E+01  0.00000000000E+00 0. -1.
<mgrwt>
<rscale>  0 0.29620348E+01</rscale>
<asrwt>0</asrwt>
<pdfrwt beam="1">0</pdfrwt>
<pdfrwt beam="2">0</pdfrwt>
<totfact> 0.17025702E+12</totfact>
</mgrwt>
</event>
<event>
 4    2  0.1985873E+006  0.3740696E+01  0.7546771E-02  0.2329782E+00
         22   -1    0    0    0    0  0.00000000000E+00  0.00000000000E+00  0.17389287598E+01  0.17389287598E+01  0.00000000000E+00 0. -1.
         22   -1    0    0    0    0 -0.00000000000E+00 -0.00000000000E+00 -0.23795339325E+02  0.23795339325E+02  0.00000000000E+00 0.  1.
          4    1    1    2  501    0 -0.33055153305E+01  0.17511072484E+01 -0.64174328858E+00  0.37953448649E+01  0.00000000000E+00 0. -1.
         -4    1    1    2    0  501  0.33055153305E+01 -0.17511072484E+01 -0.21414667277E+02  0.21738923220E+02  0.00000000000E+00 0.  1.
<mgrwt>
<rscale>  0 0.37406962E+01</rscale>
<asrwt>0</asrwt>
<pdfrwt beam="1">0</pdfrwt>
<pdfrwt beam="2">0</pdfrwt>
<totfact> 0.28877139E+11</totfact>
</mgrwt>
</event>
<event>
 4    2  0.1985873E+006  0.3071929E+01  0.7546771E-02  0.2499927E+00
         22   -1    0    0    0    0  0.00000000000E+00  0.00000000000E+00  0.78609118317E+00  0.78609118317E+00  0.00000000000E+00 0. -1.
         22   -1    0    0    0    0 -0.00000000000E+00 -0.00000000000E+00 -0.14554988782E+02  0.14554988782E+02  0.00000000000E+00 0.  1.
          4    1    1    2  501    0  0.30570537811E+01  0.30194692667E+00 -0.36736069747E+01  0.47887511912E+01  0.00000000000E+00 0. -1.
         -4    1    1    2    0  501 -0.30570537811E+01 -0.30194692667E+00 -0.10095290625E+02  0.10552328774E+02  0.00000000000E+00 0.  1.
<mgrwt>
<rscale>  0 0.30719293E+01</rscale>
<asrwt>0</asrwt>
<pdfrwt beam="1">0</pdfrwt>
<pdfrwt beam="2">0</pdfrwt>
<totfact> 0.13207488E+12</totfact>
</mgrwt>
</event>
<event>
 4    2  0.1985873E+006  0.2943584E+01  0.7546771E-02  0.2540314E+00
         22   -1    0    0    0    0  0.00000000000E+00  0.00000000000E+00  0.17365363552E+01  0.17365363552E+01  0.00000000000E+00 0.  1.
         22   -1    0    0    0    0 -0.00000000000E+00 -0.00000000000E+00 -0.50370562347E+01  0.50370562347E+01  0.00000000000E+00 0. -1.
          4    1    1    2  501    0 -0.34964703851E+00 -0.29227444500E+01 -0.13216563136E+01  0.32266799629E+01  0.00000000000E+00 0.  1.
         -4    1    1    2    0  501  0.34964703851E+00  0.29227444500E+01 -0.19788635659E+01  0.35469126271E+01  0.00000000000E+00 0. -1.
<mgrwt>
<rscale>  0 0.29435842E+01</rscale>
<asrwt>0</asrwt>
<pdfrwt beam="1">0</pdfrwt>
<pdfrwt beam="2">0</pdfrwt>
<totfact> 0.19138121E+12</totfact>
</mgrwt>
</event>
<event>
 4    2  0.1985873E+006  0.2136885E+01  0.7546771E-02  0.2894082E+00
         22   -1    0    0    0    0  0.00000000000E+00  0.00000000000E+00  0.11140618617E+01  0.11140618617E+01  0.00000000000E+00 0. -1.
         22   -1    0    0    0    0 -0.00000000000E+00 -0.00000000000E+00 -0.47566571733E+01  0.47566571733E+01  0.00000000000E+00 0.  1.
          4    1    1    2  501    0 -0.14154971174E+01 -0.16008258402E+01 -0.29129602209E+01  0.36127015803E+01  0.00000000000E+00 0.  1.
         -4    1    1    2    0  501  0.14154971174E+01  0.16008258402E+01 -0.72963509067E+00  0.22580174546E+01  0.00000000000E+00 0. -1.
<mgrwt>
<rscale>  0 0.21368845E+01</rscale>
<asrwt>0</asrwt>
<pdfrwt beam="1">0</pdfrwt>
<pdfrwt beam="2">0</pdfrwt>
<totfact> 0.34103451E+12</totfact>
</mgrwt>
</event>
<event>
 4    2  0.1985873E+006  0.2079204E+01  0.7546771E-02  0.2929239E+00
         22   -1    0    0    0    0  0.00000000000E+00  0.00000000000E+00  0.12478975738E+00  0.12478975738E+00  0.00000000000E+00 0.  1.
         22   -1    0    0    0    0 -0.00000000000E+00 -0.00000000000E+00 -0.40779302622E+02  0.40779302622E+02  0.00000000000E+00 0. -1.
          4    1    1    2  501    0  0.18121876801E+01 -0.10193459977E+01 -0.12393651535E+02  0.12566848803E+02  0.00000000000E+00 0.  1.
         -4    1    1    2    0  501 -0.18121876801E+01  0.10193459977E+01 -0.28260861329E+02  0.28337243577E+02  0.00000000000E+00 0. -1.
<mgrwt>
<rscale>  0 0.20792043E+01</rscale>
<asrwt>0</asrwt>
<pdfrwt beam="1">0</pdfrwt>
<pdfrwt beam="2">0</pdfrwt>
<totfact> 0.28419237E+12</totfact>
</mgrwt>
</event>
<event>
 4    2  0.1985873E+006  0.2692062E+01  0.7546771E-02  0.2629469E+00
         22   -1    0    0    0    0  0.00000000000E+00  0.00000000000E+00  0.30410498766E+01  0.30410498766E+01  0.00000000000E+00 0. -1.
         22   -1    0    0    0    0 -0.00000000000E+00 -0.00000000000E+00 -0.31528267787E+01  0.31528267787E+01  0.00000000000E+00 0.  1.
          4    1    1    2  501    0  0.16460626719E+01  0.21301825820E+01 -0.15860733684E+01  0.31245525891E+01  0.00000000000E+00 0.  1.
         -4    1    1    2    0  501 -0.16460626719E+01 -0.21301825820E+01  0.14742964663E+01  0.30693240661E+01  0.00000000000E+00 0. -1.
<mgrwt>
<rscale>  0 0.26920624E+01</rscale>
<asrwt>0</asrwt>
<pdfrwt beam="1">0</pdfrwt>
<pdfrwt beam="2">0</pdfrwt>
<totfact> 0.17329859E+12</totfact>
</mgrwt>
</event>
<event>
 4    2  0.1985873E+006  0.2462586E+01  0.7546771E-02  0.2725258E+00
         22   -1    0    0    0    0  0.00000000000E+00  0.00000000000E+00  0.15590863337E+01  0.15590863337E+01  0.00000000000E+00 0.  1.
         22   -1    0    0    0    0 -0.00000000000E+00 -0.00000000000E+00 -0.43754977983E+01  0.43754977983E+01  0.00000000000E+00 0. -1.
          4    1    1    2  501    0  0.55495120672E-01 -0.24619605641E+01 -0.41945171614E+00  0.24980530958E+01  0.00000000000E+00 0. -1.
         -4    1    1    2    0  501 -0.55495120672E-01  0.24619605641E+01 -0.23969597485E+01  0.34365310363E+01  0.00000000000E+00 0.  1.
<mgrwt>
<rscale>  0 0.24625859E+01</rscale>
<asrwt>0</asrwt>
<pdfrwt beam="1">0</pdfrwt>
<pdfrwt beam="2">0</pdfrwt>
<totfact> 0.25593344E+12</totfact>
</mgrwt>
</event>
<event>
 4    2  0.1985873E+006  0.2660261E+01  0.7546771E-02  0.2641832E+00
         22   -1    0    0    0    0  0.00000000000E+00  0.00000000000E+00  0.35430687788E+02  0.35430687788E+02  0.00000000000E+00 0.  1.
         22   -1    0    0    0    0 -0.00000000000E+00 -0.00000000000E+00 -0.74758063156E+00  0.74758063156E+00  0.00000000000E+00 0. -1.
          4    1    1    2  501    0 -0.20655174347E+01 -0.16764915925E+01  0.32826695871E+02  0.32934312626E+02  0.00000000000E+00 0.  1.
         -4    1    1    2    0  501  0.20655174347E+01  0.16764915925E+01  0.18564112863E+01  0.32439557946E+01  0.00000000000E+00 0. -1.
<mgrwt>
<rscale>  0 0.26602606E+01</rscale>
<asrwt>0</asrwt>
<pdfrwt beam="1">0</pdfrwt>
<pdfrwt beam="2">0</pdfrwt>
<totfact> 0.45741829E+11</totfact>
</mgrwt>
</event>
<event>
 4    2  0.1985873E+006  0.3736656E+01  0.7546771E-02  0.2330649E+00
         22   -1    0    0    0    0  0.00000000000E+00  0.00000000000E+00  0.64958104373E+00  0.64958104373E+00  0.00000000000E+00 0. -1.
         22   -1    0    0    0    0 -0.00000000000E+00 -0.00000000000E+00 -0.23890950379E+02  0.23890950379E+02  0.00000000000E+00 0.  1.
          4    1    1    2  501    0 -0.15118204894E+01 -0.34171625073E+01 -0.77347435263E+01  0.85900441332E+01  0.00000000000E+00 0.  1.
         -4    1    1    2    0  501  0.15118204894E+01  0.34171625073E+01 -0.15506625809E+02  0.15950487290E+02  0.00000000000E+00 0. -1.
<mgrwt>
<rscale>  0 0.37366564E+01</rscale>
<asrwt>0</asrwt>
<pdfrwt beam="1">0</pdfrwt>
<pdfrwt beam="2">0</pdfrwt>
<totfact> 0.88583043E+11</totfact>
</mgrwt>
</event>
<event>
 4    2  0.1985873E+006  0.2225529E+01  0.7546771E-02  0.2843481E+00
         22   -1    0    0    0    0  0.00000000000E+00  0.00000000000E+00  0.17983813720E+01  0.17983813720E+01  0.00000000000E+00 0.  1.
         22   -1    0    0    0    0 -0.00000000000E+00 -0.00000000000E+00 -0.27544922631E+01  0.27544922631E+01  0.00000000000E+00 0. -1.
          4    1    1    2  501    0 -0.21819183110E+01  0.43841992724E+00 -0.50409241172E+00  0.22819046229E+01  0.00000000000E+00 0.  1.
         -4    1    1    2    0  501  0.21819183110E+01 -0.43841992724E+00 -0.45201847940E+00  0.22709690122E+01  0.00000000000E+00 0. -1.
<mgrwt>
<rscale>  0 0.22255290E+01</rscale>
<asrwt>0</asrwt>
<pdfrwt beam="1">0</pdfrwt>
<pdfrwt beam="2">0</pdfrwt>
<totfact> 0.37347674E+12</totfact>
</mgrwt>
</event>
<event>
 4    2  0.1985873E+006  0.2980354E+01  0.7546771E-02  0.2528425E+00
         22   -1    0    0    0    0  0.00000000000E+00  0.00000000000E+00  0.34915964310E+02  0.34915964310E+02  0.00000000000E+00 0. -1.
         22   -1    0    0    0    0 -0.00000000000E+00 -0.00000000000E+00 -0.26477010871E+00  0.26477010871E+00  0.00000000000E+00 0.  1.
          4    1    1    2  501    0  0.23698804644E+00 -0.29709167573E+01  0.20807358500E+02  0.21019721156E+02  0.00000000000E+00 0. -1.
         -4    1    1    2    0  501 -0.23698804644E+00  0.29709167573E+01  0.13843835701E+02  0.14161013263E+02  0.00000000000E+00 0.  1.
<mgrwt>
<rscale>  0 0.29803540E+01</rscale>
<asrwt>0</asrwt>
<pdfrwt beam="1">0</pdfrwt>
<pdfrwt beam="2">0</pdfrwt>
<totfact> 0.15023287E+12</totfact>
</mgrwt>
</event>
<event>
 4    2  0.1985873E+006  0.2433215E+01  0.7546771E-02  0.2738726E+00
         22   -1    0    0    0    0  0.00000000000E+00  0.00000000000E+00  0.29236096499E+01  0.29236096499E+01  0.00000000000E+00 0.  1.
         22   -1    0    0    0    0 -0.00000000000E+00 -0.00000000000E+00 -0.57943629772E+01  0.57943629772E+01  0.00000000000E+00 0. -1.
          4    1    1    2  501    0 -0.24210574202E+01 -0.24293134758E+00  0.20803265091E+01  0.32012955278E+01  0.00000000000E+00 0.  1.
         -4    1    1    2    0  501  0.24210574202E+01  0.24293134758E+00 -0.49510798364E+01  0.55166770993E+01  0.00000000000E+00 0. -1.
<mgrwt>
<rscale>  0 0.24332149E+01</rscale>
<asrwt>0</asrwt>
<pdfrwt beam="1">0</pdfrwt>
<pdfrwt beam="2">0</pdfrwt>
<totfact> 0.88541041E+11</totfact>
</mgrwt>
</event>
<event>
 4    2  0.1985873E+006  0.2863274E+01  0.7546771E-02  0.2567236E+00
         22   -1    0    0    0    0  0.00000000000E+00  0.00000000000E+00  0.66556784641E-01  0.66556784641E-01  0.00000000000E+00 0. -1.
         22   -1    0    0    0    0 -0.00000000000E+00 -0.00000000000E+00 -0.16129932277E+03  0.16129932277E+03  0.00000000000E+00 0.  1.
          4    1    1    2  501    0  0.88593400893E+00  0.27227663604E+01 -0.41392636658E+02  0.41491549805E+02  0.00000000000E+00 0. -1.
         -4    1    1    2    0  501 -0.88593400893E+00 -0.27227663604E+01 -0.11984012933E+03  0.11987432975E+03  0.00000000000E+00 0.  1.
<mgrwt>
<rscale>  0 0.28632736E+01</rscale>
<asrwt>0</asrwt>
<pdfrwt beam="1">0</pdfrwt>
<pdfrwt beam="2">0</pdfrwt>
<totfact> 0.84891091E+11</totfact>
</mgrwt>
</event>
<event>
 4    2  0.1985873E+006  0.2380922E+01  0.7546771E-02  0.2763475E+00
         22   -1    0    0    0    0  0.00000000000E+00  0.00000000000E+00  0.13474987018E+02  0.13474987018E+02  0.00000000000E+00 0. -1.
         22   -1    0    0    0    0 -0.00000000000E+00 -0.00000000000E+00 -0.11312322271E+01  0.11312322271E+01  0.00000000000E+00 0.  1.
          4    1    1    2  501    0  0.10791611370E+01  0.21223099541E+01  0.11959856732E+02  0.12194546378E+02  0.00000000000E+00 0. -1.
         -4    1    1    2    0  501 -0.10791611370E+01 -0.21223099541E+01  0.38389805884E+00  0.24116728676E+01  0.00000000000E+00 0.  1.
<mgrwt>
<rscale>  0 0.23809217E+01</rscale>
<asrwt>0</asrwt>
<pdfrwt beam="1">0</pdfrwt>
<pdfrwt beam="2">0</pdfrwt>
<totfact> 0.95840829E+11</totfact>
</mgrwt>
</event>
<event>
 4    2  0.1985873E+006  0.3034914E+01  0.7546771E-02  0.2511261E+00
         22   -1    0    0    0    0  0.00000000000E+00  0.00000000000E+00  0.64907563220E+01  0.64907563220E+01  0.00000000000E+00 0. -1.
         22   -1    0    0    0    0 -0.00000000000E+00 -0.00000000000E+00 -0.25397195601E+01  0.25397195601E+01  0.00000000000E+00 0.  1.
          4    1    1    2  501    0 -0.23411474125E+01  0.19312510450E+01  0.49748654644E+01  0.58275199008E+01  0.00000000000E+00 0. -1.
         -4    1    1    2    0  501  0.23411474125E+01 -0.19312510450E+01 -0.10238287025E+01  0.32029559813E+01  0.00000000000E+00 0.  1.
<mgrwt>
<rscale>  0 0.30349138E+01</rscale>
<asrwt>0</asrwt>
<pdfrwt beam="1">0</pdfrwt>
<pdfrwt beam="2">0</pdfrwt>
<totfact> 0.91137326E+11</totfact>
</mgrwt>
</event>
<event>
 4    2  0.1985873E+006  0.2084940E+01  0.7546771E-02  0.2925658E+00
         22   -1    0    0    0    0  0.00000000000E+00  0.00000000000E+00  0.35470611589E+01  0.35470611589E+01  0.00000000000E+00 0.  1.
         22   -1    0    0    0    0 -0.00000000000E+00 -0.00000000000E+00 -0.18749101775E+01  0.18749101775E+01  0.00000000000E+00 0. -1.
          4    1    1    2  501    0 -0.66907412472E-01 -0.20838666552E+01 -0.75940501007E+00  0.22189350616E+01  0.00000000000E+00 0. -1.
         -4    1    1    2    0  501  0.66907412472E-01  0.20838666552E+01  0.24315559914E+01  0.32030362748E+01  0.00000000000E+00 0.  1.
<mgrwt>
<rscale>  0 0.20849405E+01</rscale>
<asrwt>0</asrwt>
<pdfrwt beam="1">0</pdfrwt>
<pdfrwt beam="2">0</pdfrwt>
<totfact> 0.26479387E+12</totfact>
</mgrwt>
</event>
<event>
 4    2  0.1985873E+006  0.2191319E+01  0.7546771E-02  0.2862543E+00
         22   -1    0    0    0    0  0.00000000000E+00  0.00000000000E+00  0.21685041778E+01  0.21685041778E+01  0.00000000000E+00 0.  1.
         22   -1    0    0    0    0 -0.00000000000E+00 -0.00000000000E+00 -0.25019948169E+01  0.25019948169E+01  0.00000000000E+00 0. -1.
          4    1    1    2  501    0 -0.16648187458E+01 -0.14248704027E+01  0.62502823197E+00  0.22787139820E+01  0.00000000000E+00 0.  1.
         -4    1    1    2    0  501  0.16648187458E+01  0.14248704027E+01 -0.95851887101E+00  0.23917850127E+01  0.00000000000E+00 0. -1.
<mgrwt>
<rscale>  0 0.21913186E+01</rscale>
<asrwt>0</asrwt>
<pdfrwt beam="1">0</pdfrwt>
<pdfrwt beam="2">0</pdfrwt>
<totfact> 0.33638235E+12</totfact>
</mgrwt>
</event>
<event>
 4    2  0.1985873E+006  0.2361648E+01  0.7546771E-02  0.2772856E+00
         22   -1    0    0    0    0  0.00000000000E+00  0.00000000000E+00  0.73545647227E-01  0.73545647227E-01  0.00000000000E+00 0. -1.
         22   -1    0    0    0    0 -0.00000000000E+00 -0.00000000000E+00 -0.75883423017E+02  0.75883423017E+02  0.00000000000E+00 0.  1.
          4    1    1    2  501    0 -0.15430540371E+01 -0.17878382868E+01 -0.36951958210E+02  0.37027349312E+02  0.00000000000E+00 0.  1.
         -4    1    1    2    0  501  0.15430540371E+01  0.17878382868E+01 -0.38857919159E+02  0.38929619352E+02  0.00000000000E+00 0. -1.
<mgrwt>
<rscale>  0 0.23616480E+01</rscale>
<asrwt>0</asrwt>
<pdfrwt beam="1">0</pdfrwt>
<pdfrwt beam="2">0</pdfrwt>
<totfact> 0.22320381E+12</totfact>
</mgrwt>
</event>
<event>
 4    2  0.1985873E+006  0.2903616E+01  0.7546771E-02  0.2553544E+00
         22   -1    0    0    0    0  0.00000000000E+00  0.00000000000E+00  0.47935129567E+00  0.47935129567E+00  0.00000000000E+00 0. -1.
         22   -1    0    0    0    0 -0.00000000000E+00 -0.00000000000E+00 -0.18674559556E+02  0.18674559556E+02  0.00000000000E+00 0.  1.
          4    1    1    2  501    0  0.28246228495E+01  0.67267309763E+00 -0.67878521016E+01  0.73828124378E+01  0.00000000000E+00 0. -1.
         -4    1    1    2    0  501 -0.28246228495E+01 -0.67267309763E+00 -0.11407356159E+02  0.11771098414E+02  0.00000000000E+00 0.  1.
<mgrwt>
<rscale>  0 0.29036156E+01</rscale>
<asrwt>0</asrwt>
<pdfrwt beam="1">0</pdfrwt>
<pdfrwt beam="2">0</pdfrwt>
<totfact> 0.16998288E+12</totfact>
</mgrwt>
</event>
<event>
 4    2  0.1985873E+006  0.2336114E+01  0.7546771E-02  0.2785510E+00
         22   -1    0    0    0    0  0.00000000000E+00  0.00000000000E+00  0.54532334254E+01  0.54532334254E+01  0.00000000000E+00 0. -1.
         22   -1    0    0    0    0 -0.00000000000E+00 -0.00000000000E+00 -0.25158281427E+01  0.25158281427E+01  0.00000000000E+00 0.  1.
          4    1    1    2  501    0 -0.10661793597E+01 -0.20786271413E+01  0.45607877195E+01  0.51242769091E+01  0.00000000000E+00 0. -1.
         -4    1    1    2    0  501  0.10661793597E+01  0.20786271413E+01 -0.16233824367E+01  0.28447846589E+01  0.00000000000E+00 0.  1.
<mgrwt>
<rscale>  0 0.23361141E+01</rscale>
<asrwt>0</asrwt>
<pdfrwt beam="1">0</pdfrwt>
<pdfrwt beam="2">0</pdfrwt>
<totfact> 0.11336403E+12</totfact>
</mgrwt>
</event>
<event>
 4    2  0.1985873E+006  0.2283715E+01  0.7546771E-02  0.2812313E+00
         22   -1    0    0    0    0  0.00000000000E+00  0.00000000000E+00  0.16225914806E+01  0.16225914806E+01  0.00000000000E+00 0. -1.
         22   -1    0    0    0    0 -0.00000000000E+00 -0.00000000000E+00 -0.80167131082E+01  0.80167131082E+01  0.00000000000E+00 0.  1.
          4    1    1    2  501    0 -0.22391573682E+01 -0.44891871749E+00  0.53330354978E+00  0.23451580779E+01  0.00000000000E+00 0. -1.
         -4    1    1    2    0  501  0.22391573682E+01  0.44891871749E+00 -0.69274251774E+01  0.72941465109E+01  0.00000000000E+00 0.  1.
<mgrwt>
<rscale>  0 0.22837149E+01</rscale>
<asrwt>0</asrwt>
<pdfrwt beam="1">0</pdfrwt>
<pdfrwt beam="2">0</pdfrwt>
<totfact> 0.11889850E+12</totfact>
</mgrwt>
</event>
<event>
 4    2  0.1985873E+006  0.4158872E+01  0.7546771E-02  0.2247917E+00
         22   -1    0    0    0    0  0.00000000000E+00  0.00000000000E+00  0.31017859460E+02  0.31017859460E+02  0.00000000000E+00 0. -1.
         22   -1    0    0    0    0 -0.00000000000E+00 -0.00000000000E+00 -0.55944132417E+00  0.55944132417E+00  0.00000000000E+00 0.  1.
          4    1    1    2  501    0 -0.78823966568E-01 -0.41581246391E+01  0.16129798857E+02  0.16657329465E+02  0.00000000000E+00 0. -1.
         -4    1    1    2    0  501  0.78823966568E-01  0.41581246391E+01  0.14328619278E+02  0.14919971319E+02  0.00000000000E+00 0.  1.
<mgrwt>
<rscale>  0 0.41588717E+01</rscale>
<asrwt>0</asrwt>
<pdfrwt beam="1">0</pdfrwt>
<pdfrwt beam="2">0</pdfrwt>
<totfact> 0.75357575E+11</totfact>
</mgrwt>
</event>
<event>
 4    2  0.1985873E+006  0.2949714E+01  0.7546771E-02  0.2538314E+00
         22   -1    0    0    0    0  0.00000000000E+00  0.00000000000E+00  0.59316492358E+01  0.59316492358E+01  0.00000000000E+00 0.  1.
         22   -1    0    0    0    0 -0.00000000000E+00 -0.00000000000E+00 -0.14802119329E+01  0.14802119329E+01  0.00000000000E+00 0. -1.
          4    1    1    2  501    0  0.21487638901E+01 -0.20207980982E+01  0.25778850908E+01  0.39174357366E+01  0.00000000000E+00 0.  1.
         -4    1    1    2    0  501 -0.21487638901E+01  0.20207980982E+01  0.18735522121E+01  0.34944254321E+01  0.00000000000E+00 0. -1.
<mgrwt>
<rscale>  0 0.29497138E+01</rscale>
<asrwt>0</asrwt>
<pdfrwt beam="1">0</pdfrwt>
<pdfrwt beam="2">0</pdfrwt>
<totfact> 0.18946633E+12</totfact>
</mgrwt>
</event>
<event>
 4    2  0.1985873E+006  0.2059243E+01  0.7546771E-02  0.2941852E+00
         22   -1    0    0    0    0  0.00000000000E+00  0.00000000000E+00  0.13605798798E+01  0.13605798798E+01  0.00000000000E+00 0.  1.
         22   -1    0    0    0    0 -0.00000000000E+00 -0.00000000000E+00 -0.37078546635E+01  0.37078546635E+01  0.00000000000E+00 0. -1.
          4    1    1    2  501    0 -0.20590242493E+01 -0.29984041009E-01 -0.21855516014E+01  0.30028512625E+01  0.00000000000E+00 0. -1.
         -4    1    1    2    0  501  0.20590242493E+01  0.29984041009E-01 -0.16172318231E+00  0.20655832808E+01  0.00000000000E+00 0.  1.
<mgrwt>
<rscale>  0 0.20592426E+01</rscale>
<asrwt>0</asrwt>
<pdfrwt beam="1">0</pdfrwt>
<pdfrwt beam="2">0</pdfrwt>
<totfact> 0.36369968E+12</totfact>
</mgrwt>
</event>
<event>
 4    2  0.1985873E+006  0.3698172E+01  0.7546771E-02  0.2338991E+00
         22   -1    0    0    0    0  0.00000000000E+00  0.00000000000E+00  0.25581163262E+02  0.25581163262E+02  0.00000000000E+00 0.  1.
         22   -1    0    0    0    0 -0.00000000000E+00 -0.00000000000E+00 -0.66628319185E+00  0.66628319185E+00  0.00000000000E+00 0. -1.
          4    1    1    2  501    0  0.29728245650E+01  0.21997249833E+01  0.18291113716E+02  0.18661224957E+02  0.00000000000E+00 0.  1.
         -4    1    1    2    0  501 -0.29728245650E+01 -0.21997249833E+01  0.66237663540E+01  0.75862214974E+01  0.00000000000E+00 0. -1.
<mgrwt>
<rscale>  0 0.36981720E+01</rscale>
<asrwt>0</asrwt>
<pdfrwt beam="1">0</pdfrwt>
<pdfrwt beam="2">0</pdfrwt>
<totfact> 0.78963135E+11</totfact>
</mgrwt>
</event>
<event>
 4    2  0.1985873E+006  0.3920226E+01  0.7546771E-02  0.2292808E+00
         22   -1    0    0    0    0  0.00000000000E+00  0.00000000000E+00  0.57544261743E+01  0.57544261743E+01  0.00000000000E+00 0.  1.
         22   -1    0    0    0    0 -0.00000000000E+00 -0.00000000000E+00 -0.56889899985E+01  0.56889899985E+01  0.00000000000E+00 0. -1.
          4    1    1    2  501    0  0.38908600743E+01 -0.47893705415E+00  0.42003634757E+01  0.57455396741E+01  0.00000000000E+00 0.  1.
         -4    1    1    2    0  501 -0.38908600743E+01  0.47893705415E+00 -0.41349272999E+01  0.56978764987E+01  0.00000000000E+00 0. -1.
<mgrwt>
<rscale>  0 0.39202261E+01</rscale>
<asrwt>0</asrwt>
<pdfrwt beam="1">0</pdfrwt>
<pdfrwt beam="2">0</pdfrwt>
<totfact> 0.40764445E+11</totfact>
</mgrwt>
</event>
<event>
 4    2  0.1985873E+006  0.2878008E+01  0.7546771E-02  0.2562195E+00
         22   -1    0    0    0    0  0.00000000000E+00  0.00000000000E+00  0.17970050215E+01  0.17970050215E+01  0.00000000000E+00 0. -1.
         22   -1    0    0    0    0 -0.00000000000E+00 -0.00000000000E+00 -0.70466321055E+01  0.70466321055E+01  0.00000000000E+00 0.  1.
          4    1    1    2  501    0 -0.28739243442E+01  0.15325627228E+00 -0.24248007487E-01  0.28781098984E+01  0.00000000000E+00 0. -1.
         -4    1    1    2    0  501  0.28739243442E+01 -0.15325627228E+00 -0.52253790765E+01  0.59655272286E+01  0.00000000000E+00 0.  1.
<mgrwt>
<rscale>  0 0.28780078E+01</rscale>
<asrwt>0</asrwt>
<pdfrwt beam="1">0</pdfrwt>
<pdfrwt beam="2">0</pdfrwt>
<totfact> 0.12336765E+12</totfact>
</mgrwt>
</event>
<event>
 4    2  0.1985873E+006  0.2281496E+01  0.7546771E-02  0.2813474E+00
         22   -1    0    0    0    0  0.00000000000E+00  0.00000000000E+00  0.49996967585E+00  0.49996967585E+00  0.00000000000E+00 0.  1.
         22   -1    0    0    0    0 -0.00000000000E+00 -0.00000000000E+00 -0.10753597866E+02  0.10753597866E+02  0.00000000000E+00 0. -1.
          4    1    1    2  501    0  0.15170365778E+01 -0.17040606136E+01 -0.41225980617E+01  0.47117976752E+01  0.00000000000E+00 0.  1.
         -4    1    1    2    0  501 -0.15170365778E+01  0.17040606136E+01 -0.61310301288E+01  0.65417698670E+01  0.00000000000E+00 0. -1.
<mgrwt>
<rscale>  0 0.22814957E+01</rscale>
<asrwt>0</asrwt>
<pdfrwt beam="1">0</pdfrwt>
<pdfrwt beam="2">0</pdfrwt>
<totfact> 0.31920389E+12</totfact>
</mgrwt>
</event>
<event>
 4    2  0.1985873E+006  0.2420386E+01  0.7546771E-02  0.2744705E+00
         22   -1    0    0    0    0  0.00000000000E+00  0.00000000000E+00  0.20018668827E+00  0.20018668827E+00  0.00000000000E+00 0.  1.
         22   -1    0    0    0    0 -0.00000000000E+00 -0.00000000000E+00 -0.42121503983E+02  0.42121503983E+02  0.00000000000E+00 0. -1.
          4    1    1    2  501    0 -0.74114188041E+00  0.23041220119E+01 -0.92694642609E+01  0.95802524610E+01  0.00000000000E+00 0.  1.
         -4    1    1    2    0  501  0.74114188041E+00 -0.23041220119E+01 -0.32651853034E+02  0.32741438210E+02  0.00000000000E+00 0. -1.
<mgrwt>
<rscale>  0 0.24203862E+01</rscale>
<asrwt>0</asrwt>
<pdfrwt beam="1">0</pdfrwt>
<pdfrwt beam="2">0</pdfrwt>
<totfact> 0.16106298E+12</totfact>
</mgrwt>
</event>
<event>
 4    2  0.1985873E+006  0.2872967E+01  0.7546771E-02  0.2563914E+00
         22   -1    0    0    0    0  0.00000000000E+00  0.00000000000E+00  0.63710142127E+00  0.63710142127E+00  0.00000000000E+00 0.  1.
         22   -1    0    0    0    0 -0.00000000000E+00 -0.00000000000E+00 -0.14495343236E+02  0.14495343236E+02  0.00000000000E+00 0. -1.
          4    1    1    2  501    0  0.24074711273E+01  0.15678078492E+01 -0.44630277828E+01  0.53077825569E+01  0.00000000000E+00 0.  1.
         -4    1    1    2    0  501 -0.24074711273E+01 -0.15678078492E+01 -0.93952140315E+01  0.98246621000E+01  0.00000000000E+00 0. -1.
<mgrwt>
<rscale>  0 0.28729669E+01</rscale>
<asrwt>0</asrwt>
<pdfrwt beam="1">0</pdfrwt>
<pdfrwt beam="2">0</pdfrwt>
<totfact> 0.16850956E+12</totfact>
</mgrwt>
</event>
<event>
 4    2  0.1985873E+006  0.2530858E+01  0.7546771E-02  0.2695080E+00
         22   -1    0    0    0    0  0.00000000000E+00  0.00000000000E+00  0.28577537186E+00  0.28577537186E+00  0.00000000000E+00 0.  1.
         22   -1    0    0    0    0 -0.00000000000E+00 -0.00000000000E+00 -0.31801664120E+02  0.31801664120E+02  0.00000000000E+00 0. -1.
          4    1    1    2  501    0 -0.25286531871E+01  0.10562896814E+00 -0.70409048790E+01  0.74819506771E+01  0.00000000000E+00 0.  1.
         -4    1    1    2    0  501  0.25286531871E+01 -0.10562896814E+00 -0.24474983869E+02  0.24605488814E+02  0.00000000000E+00 0. -1.
<mgrwt>
<rscale>  0 0.25308584E+01</rscale>
<asrwt>0</asrwt>
<pdfrwt beam="1">0</pdfrwt>
<pdfrwt beam="2">0</pdfrwt>
<totfact> 0.15547466E+12</totfact>
</mgrwt>
</event>
<event>
 4    2  0.1985873E+006  0.2015225E+01  0.7546771E-02  0.2970524E+00
         22   -1    0    0    0    0  0.00000000000E+00  0.00000000000E+00  0.11559742340E+01  0.11559742340E+01  0.00000000000E+00 0. -1.
         22   -1    0    0    0    0 -0.00000000000E+00 -0.00000000000E+00 -0.37337188924E+01  0.37337188924E+01  0.00000000000E+00 0.  1.
          4    1    1    2  501    0 -0.67385019161E+00  0.18992258157E+01 -0.18830745616E+01  0.27580976387E+01  0.00000000000E+00 0.  1.
         -4    1    1    2    0  501  0.67385019161E+00 -0.18992258157E+01 -0.69467009671E+00  0.21315954877E+01  0.00000000000E+00 0. -1.
<mgrwt>
<rscale>  0 0.20152252E+01</rscale>
<asrwt>0</asrwt>
<pdfrwt beam="1">0</pdfrwt>
<pdfrwt beam="2">0</pdfrwt>
<totfact> 0.43485891E+12</totfact>
</mgrwt>
</event>
<event>
 4    2  0.1985873E+006  0.4501793E+01  0.7546771E-02  0.2190543E+00
         22   -1    0    0    0    0  0.00000000000E+00  0.00000000000E+00  0.20091569671E+02  0.20091569671E+02  0.00000000000E+00 0. -1.
         22   -1    0    0    0    0 -0.00000000000E+00 -0.00000000000E+00 -0.10203195075E+01  0.10203195075E+01  0.00000000000E+00 0.  1.
          4    1    1    2  501    0 -0.62211482320E+00  0.44585996801E+01  0.10662654307E+02  0.11574037102E+02  0.00000000000E+00 0. -1.
         -4    1    1    2    0  501  0.62211482320E+00 -0.44585996801E+01  0.84085958570E+01  0.95378520772E+01  0.00000000000E+00 0.  1.
<mgrwt>
<rscale>  0 0.45017927E+01</rscale>
<asrwt>0</asrwt>
<pdfrwt beam="1">0</pdfrwt>
<pdfrwt beam="2">0</pdfrwt>
<totfact> 0.65829195E+11</totfact>
</mgrwt>
</event>
<event>
 4    2  0.1985873E+006  0.2043331E+01  0.7546771E-02  0.2952077E+00
         22   -1    0    0    0    0  0.00000000000E+00  0.00000000000E+00  0.17200785692E+01  0.17200785692E+01  0.00000000000E+00 0.  1.
         22   -1    0    0    0    0 -0.00000000000E+00 -0.00000000000E+00 -0.48003775723E+01  0.48003775723E+01  0.00000000000E+00 0. -1.
          4    1    1    2  501    0  0.12646027531E+01  0.16049862424E+01  0.75210780022E+00  0.21773532338E+01  0.00000000000E+00 0.  1.
         -4    1    1    2    0  501 -0.12646027531E+01 -0.16049862424E+01 -0.38324068033E+01  0.43431029078E+01  0.00000000000E+00 0. -1.
<mgrwt>
<rscale>  0 0.20433308E+01</rscale>
<asrwt>0</asrwt>
<pdfrwt beam="1">0</pdfrwt>
<pdfrwt beam="2">0</pdfrwt>
<totfact> 0.20481562E+12</totfact>
</mgrwt>
</event>
<event>
 4    2  0.1985873E+006  0.4135311E+01  0.7546771E-02  0.2252152E+00
         22   -1    0    0    0    0  0.00000000000E+00  0.00000000000E+00  0.39143896354E+01  0.39143896354E+01  0.00000000000E+00 0.  1.
         22   -1    0    0    0    0 -0.00000000000E+00 -0.00000000000E+00 -0.43687218159E+01  0.43687218159E+01  0.00000000000E+00 0. -1.
          4    1    1    2  501    0  0.39537478423E+01  0.12118888820E+01 -0.21805658455E+00  0.41410560654E+01  0.00000000000E+00 0.  1.
         -4    1    1    2    0  501 -0.39537478423E+01 -0.12118888820E+01 -0.23627559593E+00  0.41420553859E+01  0.00000000000E+00 0. -1.
<mgrwt>
<rscale>  0 0.41353110E+01</rscale>
<asrwt>0</asrwt>
<pdfrwt beam="1">0</pdfrwt>
<pdfrwt beam="2">0</pdfrwt>
<totfact> 0.87882883E+11</totfact>
</mgrwt>
</event>
<event>
 4    2  0.1985873E+006  0.3375965E+01  0.7546771E-02  0.2415248E+00
         22   -1    0    0    0    0  0.00000000000E+00  0.00000000000E+00  0.19761108265E+02  0.19761108265E+02  0.00000000000E+00 0. -1.
         22   -1    0    0    0    0 -0.00000000000E+00 -0.00000000000E+00 -0.57675728870E+00  0.57675728870E+00  0.00000000000E+00 0.  1.
          4    1    1    2  501    0 -0.33758611882E+01  0.26452581238E-01  0.95470213933E+01  0.10126339713E+02  0.00000000000E+00 0. -1.
         -4    1    1    2    0  501  0.33758611882E+01 -0.26452581238E-01  0.96373295828E+01  0.10211525840E+02  0.00000000000E+00 0.  1.
<mgrwt>
<rscale>  0 0.33759648E+01</rscale>
<asrwt>0</asrwt>
<pdfrwt beam="1">0</pdfrwt>
<pdfrwt beam="2">0</pdfrwt>
<totfact> 0.12854360E+12</totfact>
</mgrwt>
</event>
<event>
 4    2  0.1985873E+006  0.2717216E+01  0.7546771E-02  0.2619879E+00
         22   -1    0    0    0    0  0.00000000000E+00  0.00000000000E+00  0.26803561974E+02  0.26803561974E+02  0.00000000000E+00 0.  1.
         22   -1    0    0    0    0 -0.00000000000E+00 -0.00000000000E+00 -0.56729539773E+00  0.56729539773E+00  0.00000000000E+00 0. -1.
          4    1    1    2  501    0  0.27071051988E+01 -0.23418621108E+00  0.22933896578E+02  0.23094303929E+02  0.00000000000E+00 0.  1.
         -4    1    1    2    0  501 -0.27071051988E+01  0.23418621108E+00  0.33023699984E+01  0.42765534423E+01  0.00000000000E+00 0. -1.
<mgrwt>
<rscale>  0 0.27172158E+01</rscale>
<asrwt>0</asrwt>
<pdfrwt beam="1">0</pdfrwt>
<pdfrwt beam="2">0</pdfrwt>
<totfact> 0.89311357E+11</totfact>
</mgrwt>
</event>
<event>
 4    2  0.1985873E+006  0.3061913E+01  0.7546771E-02  0.2502970E+00
         22   -1    0    0    0    0  0.00000000000E+00  0.00000000000E+00  0.73608666869E+01  0.73608666869E+01  0.00000000000E+00 0. -1.
         22   -1    0    0    0    0 -0.00000000000E+00 -0.00000000000E+00 -0.45731045574E+01  0.45731045574E+01  0.00000000000E+00 0.  1.
          4    1    1    2  501    0  0.20190400615E+01 -0.23019102409E+01  0.64622614216E+01  0.71509535174E+01  0.00000000000E+00 0. -1.
         -4    1    1    2    0  501 -0.20190400615E+01  0.23019102409E+01 -0.36744992922E+01  0.47830177269E+01  0.00000000000E+00 0.  1.
<mgrwt>
<rscale>  0 0.30619134E+01</rscale>
<asrwt>0</asrwt>
<pdfrwt beam="1">0</pdfrwt>
<pdfrwt beam="2">0</pdfrwt>
<totfact> 0.39355778E+11</totfact>
</mgrwt>
</event>
<event>
 4    2  0.1985873E+006  0.3871578E+01  0.7546771E-02  0.2302536E+00
         22   -1    0    0    0    0  0.00000000000E+00  0.00000000000E+00  0.10363260942E+02  0.10363260942E+02  0.00000000000E+00 0.  1.
         22   -1    0    0    0    0 -0.00000000000E+00 -0.00000000000E+00 -0.22578048056E+01  0.22578048056E+01  0.00000000000E+00 0. -1.
          4    1    1    2  501    0  0.36809169814E+01  0.11999873041E+01  0.78358418595E+01  0.87401108117E+01  0.00000000000E+00 0.  1.
         -4    1    1    2    0  501 -0.36809169814E+01 -0.11999873041E+01  0.26961427664E+00  0.38809549356E+01  0.00000000000E+00 0. -1.
<mgrwt>
<rscale>  0 0.38715784E+01</rscale>
<asrwt>0</asrwt>
<pdfrwt beam="1">0</pdfrwt>
<pdfrwt beam="2">0</pdfrwt>
<totfact> 0.59526855E+11</totfact>
</mgrwt>
</event>
<event>
 4    2  0.1985873E+006  0.3028626E+01  0.7546771E-02  0.2513211E+00
         22   -1    0    0    0    0  0.00000000000E+00  0.00000000000E+00  0.44224170313E+01  0.44224170313E+01  0.00000000000E+00 0.  1.
         22   -1    0    0    0    0 -0.00000000000E+00 -0.00000000000E+00 -0.21663567690E+01  0.21663567690E+01  0.00000000000E+00 0. -1.
          4    1    1    2  501    0  0.28740148168E+01 -0.95530820559E+00  0.44822010636E+00  0.30616133327E+01  0.00000000000E+00 0. -1.
         -4    1    1    2    0  501 -0.28740148168E+01  0.95530820559E+00  0.18078401560E+01  0.35271604676E+01  0.00000000000E+00 0.  1.
<mgrwt>
<rscale>  0 0.30286259E+01</rscale>
<asrwt>0</asrwt>
<pdfrwt beam="1">0</pdfrwt>
<pdfrwt beam="2">0</pdfrwt>
<totfact> 0.17282637E+12</totfact>
</mgrwt>
</event>
<event>
 4    2  0.1985873E+006  0.2253973E+01  0.7546771E-02  0.2828053E+00
         22   -1    0    0    0    0  0.00000000000E+00  0.00000000000E+00  0.10484403499E+02  0.10484403499E+02  0.00000000000E+00 0.  1.
         22   -1    0    0    0    0 -0.00000000000E+00 -0.00000000000E+00 -0.71079713544E+01  0.71079713544E+01  0.00000000000E+00 0. -1.
          4    1    1    2  501    0  0.17165542114E+01  0.14607648576E+01  0.10179283431E+02  0.10425843060E+02  0.00000000000E+00 0.  1.
         -4    1    1    2    0  501 -0.17165542114E+01 -0.14607648576E+01 -0.68028512864E+01  0.71665317941E+01  0.00000000000E+00 0. -1.
<mgrwt>
<rscale>  0 0.22539726E+01</rscale>
<asrwt>0</asrwt>
<pdfrwt beam="1">0</pdfrwt>
<pdfrwt beam="2">0</pdfrwt>
<totfact> 0.15210654E+11</totfact>
</mgrwt>
</event>
<event>
 4    2  0.1985873E+006  0.2524816E+01  0.7546771E-02  0.2697690E+00
         22   -1    0    0    0    0  0.00000000000E+00  0.00000000000E+00  0.13502244957E+02  0.13502244957E+02  0.00000000000E+00 0. -1.
         22   -1    0    0    0    0 -0.00000000000E+00 -0.00000000000E+00 -0.10507432578E+01  0.10507432578E+01  0.00000000000E+00 0.  1.
          4    1    1    2  501    0  0.10334257530E+01 -0.23036335959E+01  0.11625472295E+02  0.11896482783E+02  0.00000000000E+00 0. -1.
         -4    1    1    2    0  501 -0.10334257530E+01  0.23036335959E+01  0.82602940423E+00  0.26565054316E+01  0.00000000000E+00 0.  1.
<mgrwt>
<rscale>  0 0.25248161E+01</rscale>
<asrwt>0</asrwt>
<pdfrwt beam="1">0</pdfrwt>
<pdfrwt beam="2">0</pdfrwt>
<totfact> 0.10402648E+12</totfact>
</mgrwt>
</event>
<event>
 4    2  0.1985873E+006  0.2093155E+01  0.7546771E-02  0.2920564E+00
         22   -1    0    0    0    0  0.00000000000E+00  0.00000000000E+00  0.15595021442E+02  0.15595021442E+02  0.00000000000E+00 0. -1.
         22   -1    0    0    0    0 -0.00000000000E+00 -0.00000000000E+00 -0.76757587730E+00  0.76757587730E+00  0.00000000000E+00 0.  1.
          4    1    1    2  501    0 -0.14922248751E+01  0.14678431924E+01  0.13927946880E+02  0.14084353127E+02  0.00000000000E+00 0. -1.
         -4    1    1    2    0  501  0.14922248751E+01 -0.14678431924E+01  0.89949868454E+00  0.22782441921E+01  0.00000000000E+00 0.  1.
<mgrwt>
<rscale>  0 0.20931552E+01</rscale>
<asrwt>0</asrwt>
<pdfrwt beam="1">0</pdfrwt>
<pdfrwt beam="2">0</pdfrwt>
<totfact> 0.12463937E+12</totfact>
</mgrwt>
</event>
<event>
 4    2  0.1985873E+006  0.3057601E+01  0.7546771E-02  0.2504285E+00
         22   -1    0    0    0    0  0.00000000000E+00  0.00000000000E+00  0.34089487497E+01  0.34089487497E+01  0.00000000000E+00 0.  1.
         22   -1    0    0    0    0 -0.00000000000E+00 -0.00000000000E+00 -0.31730746792E+01  0.31730746792E+01  0.00000000000E+00 0. -1.
          4    1    1    2  501    0  0.12924056721E+01  0.27710305322E+01  0.13302958526E+01  0.33344579301E+01  0.00000000000E+00 0.  1.
         -4    1    1    2    0  501 -0.12924056721E+01 -0.27710305322E+01 -0.10944217820E+01  0.32475654988E+01  0.00000000000E+00 0. -1.
<mgrwt>
<rscale>  0 0.30576008E+01</rscale>
<asrwt>0</asrwt>
<pdfrwt beam="1">0</pdfrwt>
<pdfrwt beam="2">0</pdfrwt>
<totfact> 0.15049021E+12</totfact>
</mgrwt>
</event>
<event>
 4    2  0.1985873E+006  0.2344291E+01  0.7546771E-02  0.2781430E+00
         22   -1    0    0    0    0  0.00000000000E+00  0.00000000000E+00  0.14485369353E+00  0.14485369353E+00  0.00000000000E+00 0. -1.
         22   -1    0    0    0    0 -0.00000000000E+00 -0.00000000000E+00 -0.62706094368E+02  0.62706094368E+02  0.00000000000E+00 0.  1.
          4    1    1    2  501    0 -0.23437700854E+01 -0.49397308198E-01 -0.11530997797E+02  0.11766886101E+02  0.00000000000E+00 0. -1.
         -4    1    1    2    0  501  0.23437700854E+01  0.49397308198E-01 -0.51030242877E+02  0.51084061961E+02  0.00000000000E+00 0.  1.
<mgrwt>
<rscale>  0 0.23442906E+01</rscale>
<asrwt>0</asrwt>
<pdfrwt beam="1">0</pdfrwt>
<pdfrwt beam="2">0</pdfrwt>
<totfact> 0.13644781E+12</totfact>
</mgrwt>
</event>
<event>
 4    2  0.1985873E+006  0.2900709E+01  0.7546771E-02  0.2554519E+00
         22   -1    0    0    0    0  0.00000000000E+00  0.00000000000E+00  0.31878392139E+01  0.31878392139E+01  0.00000000000E+00 0. -1.
         22   -1    0    0    0    0 -0.00000000000E+00 -0.00000000000E+00 -0.53945092335E+01  0.53945092335E+01  0.00000000000E+00 0.  1.
          4    1    1    2  501    0 -0.36229446931E+00  0.28779954355E+01  0.19633298726E+01  0.35026817152E+01  0.00000000000E+00 0. -1.
         -4    1    1    2    0  501  0.36229446931E+00 -0.28779954355E+01 -0.41699998922E+01  0.50796667322E+01  0.00000000000E+00 0.  1.
<mgrwt>
<rscale>  0 0.29007094E+01</rscale>
<asrwt>0</asrwt>
<pdfrwt beam="1">0</pdfrwt>
<pdfrwt beam="2">0</pdfrwt>
<totfact> 0.87121959E+11</totfact>
</mgrwt>
</event>
<event>
 4    2  0.1985873E+006  0.2064117E+01  0.7546771E-02  0.2938750E+00
         22   -1    0    0    0    0  0.00000000000E+00  0.00000000000E+00  0.34874573037E+00  0.34874573037E+00  0.00000000000E+00 0. -1.
         22   -1    0    0    0    0 -0.00000000000E+00 -0.00000000000E+00 -0.14912765887E+02  0.14912765887E+02  0.00000000000E+00 0.  1.
          4    1    1    2  501    0 -0.20633427732E+01  0.56541774200E-01 -0.40375665673E+01  0.45345919504E+01  0.00000000000E+00 0. -1.
         -4    1    1    2    0  501  0.20633427732E+01 -0.56541774200E-01 -0.10526453589E+02  0.10726919667E+02  0.00000000000E+00 0.  1.
<mgrwt>
<rscale>  0 0.20641173E+01</rscale>
<asrwt>0</asrwt>
<pdfrwt beam="1">0</pdfrwt>
<pdfrwt beam="2">0</pdfrwt>
<totfact> 0.32114790E+12</totfact>
</mgrwt>
</event>
<event>
 4    2  0.1985873E+006  0.4995455E+01  0.7546771E-02  0.2123547E+00
         22   -1    0    0    0    0  0.00000000000E+00  0.00000000000E+00  0.15806381641E+02  0.15806381641E+02  0.00000000000E+00 0.  1.
         22   -1    0    0    0    0 -0.00000000000E+00 -0.00000000000E+00 -0.16189675085E+01  0.16189675085E+01  0.00000000000E+00 0. -1.
          4    1    1    2  501    0 -0.37046155463E+01  0.33511785858E+01  0.84666574774E+01  0.98305067570E+01  0.00000000000E+00 0. -1.
         -4    1    1    2    0  501  0.37046155463E+01 -0.33511785858E+01  0.57207566549E+01  0.75948423923E+01  0.00000000000E+00 0.  1.
<mgrwt>
<rscale>  0 0.49954554E+01</rscale>
<asrwt>0</asrwt>
<pdfrwt beam="1">0</pdfrwt>
<pdfrwt beam="2">0</pdfrwt>
<totfact> 0.52191248E+11</totfact>
</mgrwt>
</event>
<event>
 4    2  0.1985873E+006  0.3138223E+01  0.7546771E-02  0.2480226E+00
         22   -1    0    0    0    0  0.00000000000E+00  0.00000000000E+00  0.12898157262E+02  0.12898157262E+02  0.00000000000E+00 0. -1.
         22   -1    0    0    0    0 -0.00000000000E+00 -0.00000000000E+00 -0.10259742267E+01  0.10259742267E+01  0.00000000000E+00 0.  1.
          4    1    1    2  501    0 -0.30169786835E+01 -0.86387541921E+00  0.24150718700E+01  0.39599259152E+01  0.00000000000E+00 0. -1.
         -4    1    1    2    0  501  0.30169786835E+01  0.86387541921E+00  0.94571111657E+01  0.99642055738E+01  0.00000000000E+00 0.  1.
<mgrwt>
<rscale>  0 0.31382226E+01</rscale>
<asrwt>0</asrwt>
<pdfrwt beam="1">0</pdfrwt>
<pdfrwt beam="2">0</pdfrwt>
<totfact> 0.11306382E+12</totfact>
</mgrwt>
</event>
<event>
 4    2  0.1985873E+006  0.4307035E+01  0.7546771E-02  0.2222184E+00
         22   -1    0    0    0    0  0.00000000000E+00  0.00000000000E+00  0.83308856256E+01  0.83308856256E+01  0.00000000000E+00 0. -1.
         22   -1    0    0    0    0 -0.00000000000E+00 -0.00000000000E+00 -0.31366200718E+01  0.31366200718E+01  0.00000000000E+00 0.  1.
          4    1    1    2  501    0 -0.42692330685E+01  0.56938836018E+00  0.56853278962E+01  0.71325666758E+01  0.00000000000E+00 0. -1.
         -4    1    1    2    0  501  0.42692330685E+01 -0.56938836018E+00 -0.49106234234E+00  0.43349390217E+01  0.00000000000E+00 0.  1.
<mgrwt>
<rscale>  0 0.43070354E+01</rscale>
<asrwt>0</asrwt>
<pdfrwt beam="1">0</pdfrwt>
<pdfrwt beam="2">0</pdfrwt>
<totfact> 0.52831232E+11</totfact>
</mgrwt>
</event>
<event>
 4    2  0.1985873E+006  0.2108749E+01  0.7546771E-02  0.2910998E+00
         22   -1    0    0    0    0  0.00000000000E+00  0.00000000000E+00  0.31877510443E+02  0.31877510443E+02  0.00000000000E+00 0. -1.
         22   -1    0    0    0    0 -0.00000000000E+00 -0.00000000000E+00 -0.21951107460E+00  0.21951107460E+00  0.00000000000E+00 0.  1.
          4    1    1    2  501    0 -0.13820638510E+01  0.15927094223E+01  0.25518226920E+02  0.25605209019E+02  0.00000000000E+00 0. -1.
         -4    1    1    2    0  501  0.13820638510E+01 -0.15927094223E+01  0.61397724486E+01  0.64918124983E+01  0.00000000000E+00 0.  1.
<mgrwt>
<rscale>  0 0.21087493E+01</rscale>
<asrwt>0</asrwt>
<pdfrwt beam="1">0</pdfrwt>
<pdfrwt beam="2">0</pdfrwt>
<totfact> 0.20819312E+12</totfact>
</mgrwt>
</event>
<event>
 4    2  0.1985873E+006  0.2372730E+01  0.7546771E-02  0.2767445E+00
         22   -1    0    0    0    0  0.00000000000E+00  0.00000000000E+00  0.50092699105E+01  0.50092699105E+01  0.00000000000E+00 0.  1.
         22   -1    0    0    0    0 -0.00000000000E+00 -0.00000000000E+00 -0.31591560059E+01  0.31591560059E+01  0.00000000000E+00 0. -1.
          4    1    1    2  501    0 -0.13294214722E+01  0.19653211051E+01  0.42032449430E+01  0.48267086662E+01  0.00000000000E+00 0.  1.
         -4    1    1    2    0  501  0.13294214722E+01 -0.19653211051E+01 -0.23531310384E+01  0.33417172503E+01  0.00000000000E+00 0. -1.
<mgrwt>
<rscale>  0 0.23727302E+01</rscale>
<asrwt>0</asrwt>
<pdfrwt beam="1">0</pdfrwt>
<pdfrwt beam="2">0</pdfrwt>
<totfact> 0.96127209E+11</totfact>
</mgrwt>
</event>
<event>
 4    2  0.1985873E+006  0.2024081E+01  0.7546771E-02  0.2964657E+00
         22   -1    0    0    0    0  0.00000000000E+00  0.00000000000E+00  0.23421239564E+01  0.23421239564E+01  0.00000000000E+00 0. -1.
         22   -1    0    0    0    0 -0.00000000000E+00 -0.00000000000E+00 -0.59304153794E+01  0.59304153794E+01  0.00000000000E+00 0.  1.
          4    1    1    2  501    0 -0.18720027495E+01  0.76974650328E+00  0.16789456762E+01  0.26297837472E+01  0.00000000000E+00 0. -1.
         -4    1    1    2    0  501  0.18720027495E+01 -0.76974650328E+00 -0.52672370991E+01  0.56427555886E+01  0.00000000000E+00 0.  1.
<mgrwt>
<rscale>  0 0.20240810E+01</rscale>
<asrwt>0</asrwt>
<pdfrwt beam="1">0</pdfrwt>
<pdfrwt beam="2">0</pdfrwt>
<totfact> 0.11149694E+12</totfact>
</mgrwt>
</event>
<event>
 4    2  0.1985873E+006  0.2517795E+01  0.7546771E-02  0.2700736E+00
         22   -1    0    0    0    0  0.00000000000E+00  0.00000000000E+00  0.82859094754E+01  0.82859094754E+01  0.00000000000E+00 0. -1.
         22   -1    0    0    0    0 -0.00000000000E+00 -0.00000000000E+00 -0.43524111705E+01  0.43524111705E+01  0.00000000000E+00 0.  1.
          4    1    1    2  501    0  0.20860329692E+01  0.14098795979E+01  0.77036957321E+01  0.81047036937E+01  0.00000000000E+00 0. -1.
         -4    1    1    2    0  501 -0.20860329692E+01 -0.14098795979E+01 -0.37701974273E+01  0.45336169523E+01  0.00000000000E+00 0.  1.
<mgrwt>
<rscale>  0 0.25177955E+01</rscale>
<asrwt>0</asrwt>
<pdfrwt beam="1">0</pdfrwt>
<pdfrwt beam="2">0</pdfrwt>
<totfact> 0.36193793E+11</totfact>
</mgrwt>
</event>
<event>
 4    2  0.1985873E+006  0.2560022E+01  0.7546771E-02  0.2682645E+00
         22   -1    0    0    0    0  0.00000000000E+00  0.00000000000E+00  0.64538338307E+00  0.64538338307E+00  0.00000000000E+00 0. -1.
         22   -1    0    0    0    0 -0.00000000000E+00 -0.00000000000E+00 -0.38892306307E+02  0.38892306307E+02  0.00000000000E+00 0.  1.
          4    1    1    2  501    0  0.10950967956E+01  0.23139744654E+01 -0.21302966654E+01  0.33304472223E+01  0.00000000000E+00 0. -1.
         -4    1    1    2    0  501 -0.10950967956E+01 -0.23139744654E+01 -0.36116626259E+02  0.36207242468E+02  0.00000000000E+00 0.  1.
<mgrwt>
<rscale>  0 0.25600224E+01</rscale>
<asrwt>0</asrwt>
<pdfrwt beam="1">0</pdfrwt>
<pdfrwt beam="2">0</pdfrwt>
<totfact> 0.47916672E+11</totfact>
</mgrwt>
</event>
<event>
 4    2  0.1985873E+006  0.2219863E+01  0.7546771E-02  0.2846599E+00
         22   -1    0    0    0    0  0.00000000000E+00  0.00000000000E+00  0.69580060770E+01  0.69580060770E+01  0.00000000000E+00 0.  1.
         22   -1    0    0    0    0 -0.00000000000E+00 -0.00000000000E+00 -0.10438944964E+01  0.10438944964E+01  0.00000000000E+00 0. -1.
          4    1    1    2  501    0  0.13525052650E+01  0.17602617046E+01  0.52258479004E+01  0.56777881290E+01  0.00000000000E+00 0.  1.
         -4    1    1    2    0  501 -0.13525052650E+01 -0.17602617046E+01  0.68826368021E+00  0.23241124443E+01  0.00000000000E+00 0. -1.
<mgrwt>
<rscale>  0 0.22198630E+01</rscale>
<asrwt>0</asrwt>
<pdfrwt beam="1">0</pdfrwt>
<pdfrwt beam="2">0</pdfrwt>
<totfact> 0.23373123E+12</totfact>
</mgrwt>
</event>
<event>
 4    2  0.1985873E+006  0.2310440E+01  0.7546771E-02  0.2798499E+00
         22   -1    0    0    0    0  0.00000000000E+00  0.00000000000E+00  0.82134545117E+01  0.82134545117E+01  0.00000000000E+00 0.  1.
         22   -1    0    0    0    0 -0.00000000000E+00 -0.00000000000E+00 -0.68633983813E+00  0.68633983813E+00  0.00000000000E+00 0. -1.
          4    1    1    2  501    0  0.92038722769E+00 -0.21192024804E+01  0.47885431087E+01  0.53167919750E+01  0.00000000000E+00 0.  1.
         -4    1    1    2    0  501 -0.92038722769E+00  0.21192024804E+01  0.27385715648E+01  0.35830023748E+01  0.00000000000E+00 0. -1.
<mgrwt>
<rscale>  0 0.23104397E+01</rscale>
<asrwt>0</asrwt>
<pdfrwt beam="1">0</pdfrwt>
<pdfrwt beam="2">0</pdfrwt>
<totfact> 0.30882607E+12</totfact>
</mgrwt>
</event>
<event>
 4    2  0.1985873E+006  0.2445542E+01  0.7546771E-02  0.2733037E+00
         22   -1    0    0    0    0  0.00000000000E+00  0.00000000000E+00  0.72700835812E+01  0.72700835812E+01  0.00000000000E+00 0.  1.
         22   -1    0    0    0    0 -0.00000000000E+00 -0.00000000000E+00 -0.82712226490E+00  0.82712226490E+00  0.00000000000E+00 0. -1.
          4    1    1    2  501    0  0.54046136674E+00  0.23850742630E+01  0.35194429450E+01  0.42856920529E+01  0.00000000000E+00 0.  1.
         -4    1    1    2    0  501 -0.54046136674E+00 -0.23850742630E+01  0.29235183713E+01  0.38115137932E+01  0.00000000000E+00 0. -1.
<mgrwt>
<rscale>  0 0.24455424E+01</rscale>
<asrwt>0</asrwt>
<pdfrwt beam="1">0</pdfrwt>
<pdfrwt beam="2">0</pdfrwt>
<totfact> 0.28921223E+12</totfact>
</mgrwt>
</event>
<event>
 4    2  0.1985873E+006  0.2795792E+01  0.7546771E-02  0.2590936E+00
         22   -1    0    0    0    0  0.00000000000E+00  0.00000000000E+00  0.18360480412E+01  0.18360480412E+01  0.00000000000E+00 0. -1.
         22   -1    0    0    0    0 -0.00000000000E+00 -0.00000000000E+00 -0.48474439018E+01  0.48474439018E+01  0.00000000000E+00 0.  1.
          4    1    1    2  501    0 -0.27386811264E+01 -0.56221074781E+00 -0.33962295105E+00  0.28163449692E+01  0.00000000000E+00 0. -1.
         -4    1    1    2    0  501  0.27386811264E+01  0.56221074781E+00 -0.26717729095E+01  0.38671469738E+01  0.00000000000E+00 0.  1.
<mgrwt>
<rscale>  0 0.27957924E+01</rscale>
<asrwt>0</asrwt>
<pdfrwt beam="1">0</pdfrwt>
<pdfrwt beam="2">0</pdfrwt>
<totfact> 0.18779213E+12</totfact>
</mgrwt>
</event>
<event>
 4    2  0.1985873E+006  0.2250973E+01  0.7546771E-02  0.2829662E+00
         22   -1    0    0    0    0  0.00000000000E+00  0.00000000000E+00  0.46909344865E+00  0.46909344865E+00  0.00000000000E+00 0.  1.
         22   -1    0    0    0    0 -0.00000000000E+00 -0.00000000000E+00 -0.18100269666E+02  0.18100269666E+02  0.00000000000E+00 0. -1.
          4    1    1    2  501    0  0.25660195876E+00 -0.22362993680E+01 -0.29196700160E+01  0.36866451458E+01  0.00000000000E+00 0.  1.
         -4    1    1    2    0  501 -0.25660195876E+00  0.22362993680E+01 -0.14711506202E+02  0.14882717969E+02  0.00000000000E+00 0. -1.
<mgrwt>
<rscale>  0 0.22509730E+01</rscale>
<asrwt>0</asrwt>
<pdfrwt beam="1">0</pdfrwt>
<pdfrwt beam="2">0</pdfrwt>
<totfact> 0.18106317E+12</totfact>
</mgrwt>
</event>
<event>
 4    2  0.1985873E+006  0.2296037E+01  0.7546771E-02  0.2805906E+00
         22   -1    0    0    0    0  0.00000000000E+00  0.00000000000E+00  0.33588783817E+01  0.33588783817E+01  0.00000000000E+00 0.  1.
         22   -1    0    0    0    0 -0.00000000000E+00 -0.00000000000E+00 -0.21665860940E+01  0.21665860940E+01  0.00000000000E+00 0. -1.
          4    1    1    2  501    0  0.40036774272E+00 -0.22608603410E+01 -0.85418335002E+00  0.24497781545E+01  0.00000000000E+00 0. -1.
         -4    1    1    2    0  501 -0.40036774272E+00  0.22608603410E+01  0.20464756377E+01  0.30756863212E+01  0.00000000000E+00 0.  1.
<mgrwt>
<rscale>  0 0.22960365E+01</rscale>
<asrwt>0</asrwt>
<pdfrwt beam="1">0</pdfrwt>
<pdfrwt beam="2">0</pdfrwt>
<totfact> 0.23877254E+12</totfact>
</mgrwt>
</event>
<event>
 4    2  0.1985873E+006  0.2149417E+01  0.7546771E-02  0.2886684E+00
         22   -1    0    0    0    0  0.00000000000E+00  0.00000000000E+00  0.36333222119E+01  0.36333222119E+01  0.00000000000E+00 0.  1.
         22   -1    0    0    0    0 -0.00000000000E+00 -0.00000000000E+00 -0.14122979380E+01  0.14122979380E+01  0.00000000000E+00 0. -1.
          4    1    1    2  501    0 -0.15850140691E+00  0.21435647015E+01  0.19069003177E+01  0.28733710423E+01  0.00000000000E+00 0. -1.
         -4    1    1    2    0  501  0.15850140691E+00 -0.21435647015E+01  0.31412395620E+00  0.21722491075E+01  0.00000000000E+00 0.  1.
<mgrwt>
<rscale>  0 0.21494167E+01</rscale>
<asrwt>0</asrwt>
<pdfrwt beam="1">0</pdfrwt>
<pdfrwt beam="2">0</pdfrwt>
<totfact> 0.35685642E+12</totfact>
</mgrwt>
</event>
<event>
 4    2  0.1985873E+006  0.2377661E+01  0.7546771E-02  0.2765052E+00
         22   -1    0    0    0    0  0.00000000000E+00  0.00000000000E+00  0.78196948459E+00  0.78196948459E+00  0.00000000000E+00 0.  1.
         22   -1    0    0    0    0 -0.00000000000E+00 -0.00000000000E+00 -0.89331966794E+01  0.89331966794E+01  0.00000000000E+00 0. -1.
          4    1    1    2  501    0  0.18094480659E+01  0.15424549367E+01 -0.19542775047E+01  0.30777378219E+01  0.00000000000E+00 0.  1.
         -4    1    1    2    0  501 -0.18094480659E+01 -0.15424549367E+01 -0.61969496901E+01  0.66374283421E+01  0.00000000000E+00 0. -1.
<mgrwt>
<rscale>  0 0.23776605E+01</rscale>
<asrwt>0</asrwt>
<pdfrwt beam="1">0</pdfrwt>
<pdfrwt beam="2">0</pdfrwt>
<totfact> 0.24067622E+12</totfact>
</mgrwt>
</event>
<event>
 4    2  0.1985873E+006  0.2157776E+01  0.7546771E-02  0.2881796E+00
         22   -1    0    0    0    0  0.00000000000E+00  0.00000000000E+00  0.26892640239E+01  0.26892640239E+01  0.00000000000E+00 0. -1.
         22   -1    0    0    0    0 -0.00000000000E+00 -0.00000000000E+00 -0.13520010107E+02  0.13520010107E+02  0.00000000000E+00 0.  1.
          4    1    1    2  501    0  0.31668450606E-02  0.21577737760E+01  0.21525672058E+01  0.30478752062E+01  0.00000000000E+00 0. -1.
         -4    1    1    2    0  501 -0.31668450606E-02 -0.21577737760E+01 -0.12983313289E+02  0.13161398925E+02  0.00000000000E+00 0.  1.
<mgrwt>
<rscale>  0 0.21577761E+01</rscale>
<asrwt>0</asrwt>
<pdfrwt beam="1">0</pdfrwt>
<pdfrwt beam="2">0</pdfrwt>
<totfact> 0.35125523E+11</totfact>
</mgrwt>
</event>
<event>
 4    2  0.1985873E+006  0.2979722E+01  0.7546771E-02  0.2528627E+00
         22   -1    0    0    0    0  0.00000000000E+00  0.00000000000E+00  0.11537645247E+01  0.11537645247E+01  0.00000000000E+00 0.  1.
         22   -1    0    0    0    0 -0.00000000000E+00 -0.00000000000E+00 -0.14301415511E+02  0.14301415511E+02  0.00000000000E+00 0. -1.
          4    1    1    2  501    0  0.24770107052E+01 -0.16562496885E+01 -0.13218524577E+01  0.32597605716E+01  0.00000000000E+00 0.  1.
         -4    1    1    2    0  501 -0.24770107052E+01  0.16562496885E+01 -0.11825798528E+02  0.12195419464E+02  0.00000000000E+00 0. -1.
<mgrwt>
<rscale>  0 0.29797223E+01</rscale>
<asrwt>0</asrwt>
<pdfrwt beam="1">0</pdfrwt>
<pdfrwt beam="2">0</pdfrwt>
<totfact> 0.87107050E+11</totfact>
</mgrwt>
</event>
<event>
 4    2  0.1985873E+006  0.3545785E+01  0.7546771E-02  0.2373553E+00
         22   -1    0    0    0    0  0.00000000000E+00  0.00000000000E+00  0.16462297637E+01  0.16462297637E+01  0.00000000000E+00 0. -1.
         22   -1    0    0    0    0 -0.00000000000E+00 -0.00000000000E+00 -0.79231477935E+01  0.79231477935E+01  0.00000000000E+00 0.  1.
          4    1    1    2  501    0  0.90065679452E+00 -0.34294905122E+01 -0.22294936787E+01  0.41884639067E+01  0.00000000000E+00 0. -1.
         -4    1    1    2    0  501 -0.90065679452E+00  0.34294905122E+01 -0.40474243511E+01  0.53809136504E+01  0.00000000000E+00 0.  1.
<mgrwt>
<rscale>  0 0.35457845E+01</rscale>
<asrwt>0</asrwt>
<pdfrwt beam="1">0</pdfrwt>
<pdfrwt beam="2">0</pdfrwt>
<totfact> 0.11859995E+12</totfact>
</mgrwt>
</event>
<event>
 4    2  0.1985873E+006  0.2185699E+01  0.7546771E-02  0.2865729E+00
         22   -1    0    0    0    0  0.00000000000E+00  0.00000000000E+00  0.97724491177E+01  0.97724491177E+01  0.00000000000E+00 0.  1.
         22   -1    0    0    0    0 -0.00000000000E+00 -0.00000000000E+00 -0.80144706224E+01  0.80144706224E+01  0.00000000000E+00 0. -1.
          4    1    1    2  501    0 -0.50719917792E+00  0.21260362582E+01  0.94969484200E+01  0.97452198780E+01  0.00000000000E+00 0.  1.
         -4    1    1    2    0  501  0.50719917792E+00 -0.21260362582E+01 -0.77389699247E+01  0.80416998622E+01  0.00000000000E+00 0. -1.
<mgrwt>
<rscale>  0 0.21856992E+01</rscale>
<asrwt>0</asrwt>
<pdfrwt beam="1">0</pdfrwt>
<pdfrwt beam="2">0</pdfrwt>
<totfact> 0.14342698E+11</totfact>
</mgrwt>
</event>
<event>
 4    2  0.1985873E+006  0.4318265E+01  0.7546771E-02  0.2220294E+00
         22   -1    0    0    0    0  0.00000000000E+00  0.00000000000E+00  0.80571395689E+00  0.80571395689E+00  0.00000000000E+00 0.  1.
         22   -1    0    0    0    0 -0.00000000000E+00 -0.00000000000E+00 -0.41166315029E+02  0.41166315029E+02  0.00000000000E+00 0. -1.
          4    1    1    2  501    0 -0.26753351335E+01  0.33896890432E+01 -0.62946967875E+01  0.76335193413E+01  0.00000000000E+00 0.  1.
         -4    1    1    2    0  501  0.26753351335E+01 -0.33896890432E+01 -0.34065904284E+02  0.34338509644E+02  0.00000000000E+00 0. -1.
<mgrwt>
<rscale>  0 0.43182647E+01</rscale>
<asrwt>0</asrwt>
<pdfrwt beam="1">0</pdfrwt>
<pdfrwt beam="2">0</pdfrwt>
<totfact> 0.34596656E+11</totfact>
</mgrwt>
</event>
<event>
 4    2  0.1985873E+006  0.2642813E+01  0.7546771E-02  0.2648731E+00
         22   -1    0    0    0    0  0.00000000000E+00  0.00000000000E+00  0.37177704344E+01  0.37177704344E+01  0.00000000000E+00 0. -1.
         22   -1    0    0    0    0 -0.00000000000E+00 -0.00000000000E+00 -0.22316181160E+01  0.22316181160E+01  0.00000000000E+00 0.  1.
          4    1    1    2  501    0 -0.24367132533E+01  0.10231755382E+01 -0.43993410973E+00  0.26791792926E+01  0.00000000000E+00 0.  1.
         -4    1    1    2    0  501  0.24367132533E+01 -0.10231755382E+01  0.19260864282E+01  0.32702092578E+01  0.00000000000E+00 0. -1.
<mgrwt>
<rscale>  0 0.26428128E+01</rscale>
<asrwt>0</asrwt>
<pdfrwt beam="1">0</pdfrwt>
<pdfrwt beam="2">0</pdfrwt>
<totfact> 0.20482701E+12</totfact>
</mgrwt>
</event>
<event>
 4    2  0.1985873E+006  0.2882089E+01  0.7546771E-02  0.2560807E+00
         22   -1    0    0    0    0  0.00000000000E+00  0.00000000000E+00  0.19469722045E+00  0.19469722045E+00  0.00000000000E+00 0. -1.
         22   -1    0    0    0    0 -0.00000000000E+00 -0.00000000000E+00 -0.48171973790E+02  0.48171973790E+02  0.00000000000E+00 0.  1.
          4    1    1    2  501    0 -0.18701825294E+01  0.21929102997E+01 -0.15810771957E+02  0.16071308228E+02  0.00000000000E+00 0. -1.
         -4    1    1    2    0  501  0.18701825294E+01 -0.21929102997E+01 -0.32166504612E+02  0.32295362782E+02  0.00000000000E+00 0.  1.
<mgrwt>
<rscale>  0 0.28820892E+01</rscale>
<asrwt>0</asrwt>
<pdfrwt beam="1">0</pdfrwt>
<pdfrwt beam="2">0</pdfrwt>
<totfact> 0.13937702E+12</totfact>
</mgrwt>
</event>
<event>
 4    2  0.1985873E+006  0.2459240E+01  0.7546771E-02  0.2726777E+00
         22   -1    0    0    0    0  0.00000000000E+00  0.00000000000E+00  0.21475202218E+01  0.21475202218E+01  0.00000000000E+00 0. -1.
         22   -1    0    0    0    0 -0.00000000000E+00 -0.00000000000E+00 -0.28165958101E+01  0.28165958101E+01  0.00000000000E+00 0.  1.
          4    1    1    2  501    0 -0.24591371653E+01  0.22516433791E-01 -0.36368054178E+00  0.24859859461E+01  0.00000000000E+00 0. -1.
         -4    1    1    2    0  501  0.24591371653E+01 -0.22516433791E-01 -0.30539504653E+00  0.24781300858E+01  0.00000000000E+00 0.  1.
<mgrwt>
<rscale>  0 0.24592402E+01</rscale>
<asrwt>0</asrwt>
<pdfrwt beam="1">0</pdfrwt>
<pdfrwt beam="2">0</pdfrwt>
<totfact> 0.29636668E+12</totfact>
</mgrwt>
</event>
<event>
 4    2  0.1985873E+006  0.4556093E+01  0.7546771E-02  0.2182127E+00
         22   -1    0    0    0    0  0.00000000000E+00  0.00000000000E+00  0.46900923705E+02  0.46900923705E+02  0.00000000000E+00 0.  1.
         22   -1    0    0    0    0 -0.00000000000E+00 -0.00000000000E+00 -0.76661716404E+00  0.76661716404E+00  0.00000000000E+00 0. -1.
          4    1    1    2  501    0 -0.99975635601E+00 -0.44450504570E+01  0.38562192160E+02  0.38830408838E+02  0.00000000000E+00 0.  1.
         -4    1    1    2    0  501  0.99975635601E+00  0.44450504570E+01  0.75721143810E+01  0.88371320311E+01  0.00000000000E+00 0. -1.
<mgrwt>
<rscale>  0 0.45560933E+01</rscale>
<asrwt>0</asrwt>
<pdfrwt beam="1">0</pdfrwt>
<pdfrwt beam="2">0</pdfrwt>
<totfact> 0.30875117E+11</totfact>
</mgrwt>
</event>
<event>
 4    2  0.1985873E+006  0.4063915E+01  0.7546771E-02  0.2265241E+00
         22   -1    0    0    0    0  0.00000000000E+00  0.00000000000E+00  0.17586073431E+02  0.17586073431E+02  0.00000000000E+00 0.  1.
         22   -1    0    0    0    0 -0.00000000000E+00 -0.00000000000E+00 -0.14818693468E+01  0.14818693468E+01  0.00000000000E+00 0. -1.
          4    1    1    2  501    0 -0.23153153385E+01  0.33398677763E+01  0.13822014927E+02  0.14407064188E+02  0.00000000000E+00 0.  1.
         -4    1    1    2    0  501  0.23153153385E+01 -0.33398677763E+01  0.22821891576E+01  0.46608785900E+01  0.00000000000E+00 0. -1.
<mgrwt>
<rscale>  0 0.40639146E+01</rscale>
<asrwt>0</asrwt>
<pdfrwt beam="1">0</pdfrwt>
<pdfrwt beam="2">0</pdfrwt>
<totfact> 0.50646897E+11</totfact>
</mgrwt>
</event>
<event>
 4    2  0.1985873E+006  0.2519012E+01  0.7546771E-02  0.2700207E+00
         22   -1    0    0    0    0  0.00000000000E+00  0.00000000000E+00  0.18175110922E+01  0.18175110922E+01  0.00000000000E+00 0. -1.
         22   -1    0    0    0    0 -0.00000000000E+00 -0.00000000000E+00 -0.94429876913E+01  0.94429876913E+01  0.00000000000E+00 0.  1.
          4    1    1    2  501    0  0.18692230267E+01  0.16886168041E+01  0.65712346641E+00  0.26033118685E+01  0.00000000000E+00 0. -1.
         -4    1    1    2    0  501 -0.18692230267E+01 -0.16886168041E+01 -0.82826000655E+01  0.86571869149E+01  0.00000000000E+00 0.  1.
<mgrwt>
<rscale>  0 0.25190120E+01</rscale>
<asrwt>0</asrwt>
<pdfrwt beam="1">0</pdfrwt>
<pdfrwt beam="2">0</pdfrwt>
<totfact> 0.85636728E+11</totfact>
</mgrwt>
</event>
<event>
 4    2  0.1985873E+006  0.2036534E+01  0.7546771E-02  0.2956493E+00
         22   -1    0    0    0    0  0.00000000000E+00  0.00000000000E+00  0.44631643079E+01  0.44631643079E+01  0.00000000000E+00 0.  1.
         22   -1    0    0    0    0 -0.00000000000E+00 -0.00000000000E+00 -0.10489703885E+01  0.10489703885E+01  0.00000000000E+00 0. -1.
          4    1    1    2  501    0 -0.82194139256E-01 -0.20348742236E+01  0.26381241801E+01  0.33327418400E+01  0.00000000000E+00 0.  1.
         -4    1    1    2    0  501  0.82194139256E-01  0.20348742236E+01  0.77606973937E+00  0.21793928564E+01  0.00000000000E+00 0. -1.
<mgrwt>
<rscale>  0 0.20365336E+01</rscale>
<asrwt>0</asrwt>
<pdfrwt beam="1">0</pdfrwt>
<pdfrwt beam="2">0</pdfrwt>
<totfact> 0.39387475E+12</totfact>
</mgrwt>
</event>
<event>
 4    2  0.1985873E+006  0.3391787E+01  0.7546771E-02  0.2411209E+00
         22   -1    0    0    0    0  0.00000000000E+00  0.00000000000E+00  0.15646837164E+01  0.15646837164E+01  0.00000000000E+00 0.  1.
         22   -1    0    0    0    0 -0.00000000000E+00 -0.00000000000E+00 -0.78500833277E+01  0.78500833277E+01  0.00000000000E+00 0. -1.
          4    1    1    2  501    0  0.15229857212E+01 -0.30306327416E+01 -0.43279441909E+01  0.54986654055E+01  0.00000000000E+00 0. -1.
         -4    1    1    2    0  501 -0.15229857212E+01  0.30306327416E+01 -0.19574554204E+01  0.39161016386E+01  0.00000000000E+00 0.  1.
<mgrwt>
<rscale>  0 0.33917872E+01</rscale>
<asrwt>0</asrwt>
<pdfrwt beam="1">0</pdfrwt>
<pdfrwt beam="2">0</pdfrwt>
<totfact> 0.12715609E+12</totfact>
</mgrwt>
</event>
<event>
 4    2  0.1985873E+006  0.3603093E+01  0.7546771E-02  0.2360258E+00
         22   -1    0    0    0    0  0.00000000000E+00  0.00000000000E+00  0.44076961681E+00  0.44076961681E+00  0.00000000000E+00 0.  1.
         22   -1    0    0    0    0 -0.00000000000E+00 -0.00000000000E+00 -0.29728249216E+02  0.29728249216E+02  0.00000000000E+00 0. -1.
          4    1    1    2  501    0  0.31528654971E+01 -0.17440512437E+01 -0.13193988947E+02  0.13677120308E+02  0.00000000000E+00 0. -1.
         -4    1    1    2    0  501 -0.31528654971E+01  0.17440512437E+01 -0.16093490652E+02  0.16491898525E+02  0.00000000000E+00 0.  1.
<mgrwt>
<rscale>  0 0.36030925E+01</rscale>
<asrwt>0</asrwt>
<pdfrwt beam="1">0</pdfrwt>
<pdfrwt beam="2">0</pdfrwt>
<totfact> 0.10412621E+12</totfact>
</mgrwt>
</event>
<event>
 4    2  0.1985873E+006  0.4205517E+01  0.7546771E-02  0.2239650E+00
         22   -1    0    0    0    0  0.00000000000E+00  0.00000000000E+00  0.37075755442E+01  0.37075755442E+01  0.00000000000E+00 0.  1.
         22   -1    0    0    0    0 -0.00000000000E+00 -0.00000000000E+00 -0.47734914597E+01  0.47734914597E+01  0.00000000000E+00 0. -1.
          4    1    1    2  501    0  0.27394136105E+01  0.31909224667E+01 -0.42389388941E+00  0.42268261316E+01  0.00000000000E+00 0. -1.
         -4    1    1    2    0  501 -0.27394136105E+01 -0.31909224667E+01 -0.64202202606E+00  0.42542408723E+01  0.00000000000E+00 0.  1.
<mgrwt>
<rscale>  0 0.42055170E+01</rscale>
<asrwt>0</asrwt>
<pdfrwt beam="1">0</pdfrwt>
<pdfrwt beam="2">0</pdfrwt>
<totfact> 0.84365133E+11</totfact>
</mgrwt>
</event>
<event>
 4    2  0.1985873E+006  0.2136701E+01  0.7546771E-02  0.2894191E+00
         22   -1    0    0    0    0  0.00000000000E+00  0.00000000000E+00  0.19684071812E+02  0.19684071812E+02  0.00000000000E+00 0. -1.
         22   -1    0    0    0    0 -0.00000000000E+00 -0.00000000000E+00 -0.27379243465E+00  0.27379243465E+00  0.00000000000E+00 0.  1.
          4    1    1    2  501    0  0.17529047539E+00 -0.21294981927E+01  0.13606739794E+02  0.13773483842E+02  0.00000000000E+00 0. -1.
         -4    1    1    2    0  501 -0.17529047539E+00  0.21294981927E+01  0.58035395835E+01  0.61843804055E+01  0.00000000000E+00 0.  1.
<mgrwt>
<rscale>  0 0.21367006E+01</rscale>
<asrwt>0</asrwt>
<pdfrwt beam="1">0</pdfrwt>
<pdfrwt beam="2">0</pdfrwt>
<totfact> 0.29877275E+12</totfact>
</mgrwt>
</event>
<event>
 4    2  0.1985873E+006  0.4687615E+01  0.7546771E-02  0.2162420E+00
         22   -1    0    0    0    0  0.00000000000E+00  0.00000000000E+00  0.71979913563E+00  0.71979913563E+00  0.00000000000E+00 0.  1.
         22   -1    0    0    0    0 -0.00000000000E+00 -0.00000000000E+00 -0.41177258747E+02  0.41177258747E+02  0.00000000000E+00 0. -1.
          4    1    1    2  501    0 -0.26721731289E+01  0.38513920813E+01 -0.95752143165E+01  0.10661072151E+02  0.00000000000E+00 0.  1.
         -4    1    1    2    0  501  0.26721731289E+01 -0.38513920813E+01 -0.30882245295E+02  0.31235985732E+02  0.00000000000E+00 0. -1.
<mgrwt>
<rscale>  0 0.46876146E+01</rscale>
<asrwt>0</asrwt>
<pdfrwt beam="1">0</pdfrwt>
<pdfrwt beam="2">0</pdfrwt>
<totfact> 0.39313943E+11</totfact>
</mgrwt>
</event>
<event>
 4    2  0.1985873E+006  0.2513414E+01  0.7546771E-02  0.2702646E+00
         22   -1    0    0    0    0  0.00000000000E+00  0.00000000000E+00  0.12496905868E+01  0.12496905868E+01  0.00000000000E+00 0.  1.
         22   -1    0    0    0    0 -0.00000000000E+00 -0.00000000000E+00 -0.60209311605E+01  0.60209311605E+01  0.00000000000E+00 0. -1.
          4    1    1    2  501    0  0.15612114261E+01  0.19697384592E+01 -0.92958749506E+00  0.26798103712E+01  0.00000000000E+00 0.  1.
         -4    1    1    2    0  501 -0.15612114261E+01 -0.19697384592E+01 -0.38416530787E+01  0.45908113762E+01  0.00000000000E+00 0. -1.
<mgrwt>
<rscale>  0 0.25134142E+01</rscale>
<asrwt>0</asrwt>
<pdfrwt beam="1">0</pdfrwt>
<pdfrwt beam="2">0</pdfrwt>
<totfact> 0.22606679E+12</totfact>
</mgrwt>
</event>
<event>
 4    2  0.1985873E+006  0.2173321E+01  0.7546771E-02  0.2872803E+00
         22   -1    0    0    0    0  0.00000000000E+00  0.00000000000E+00  0.57554412182E+01  0.57554412182E+01  0.00000000000E+00 0.  1.
         22   -1    0    0    0    0 -0.00000000000E+00 -0.00000000000E+00 -0.94175288276E+00  0.94175288276E+00  0.00000000000E+00 0. -1.
          4    1    1    2  501    0 -0.17445940053E+01  0.12960384846E+01  0.36075424835E+01  0.42116133212E+01  0.00000000000E+00 0.  1.
         -4    1    1    2    0  501  0.17445940053E+01 -0.12960384846E+01  0.12061458520E+01  0.24855807798E+01  0.00000000000E+00 0. -1.
<mgrwt>
<rscale>  0 0.21733210E+01</rscale>
<asrwt>0</asrwt>
<pdfrwt beam="1">0</pdfrwt>
<pdfrwt beam="2">0</pdfrwt>
<totfact> 0.32963352E+12</totfact>
</mgrwt>
</event>
<event>
 4    2  0.1985873E+006  0.2697663E+01  0.7546771E-02  0.2627320E+00
         22   -1    0    0    0    0  0.00000000000E+00  0.00000000000E+00  0.19789140139E+01  0.19789140139E+01  0.00000000000E+00 0. -1.
         22   -1    0    0    0    0 -0.00000000000E+00 -0.00000000000E+00 -0.75337969611E+01  0.75337969611E+01  0.00000000000E+00 0.  1.
          4    1    1    2  501    0 -0.22661290685E+01 -0.14635728872E+01  0.62550070387E+00  0.27692305216E+01  0.00000000000E+00 0. -1.
         -4    1    1    2    0  501  0.22661290685E+01  0.14635728872E+01 -0.61803836510E+01  0.67434804534E+01  0.00000000000E+00 0.  1.
<mgrwt>
<rscale>  0 0.26976632E+01</rscale>
<asrwt>0</asrwt>
<pdfrwt beam="1">0</pdfrwt>
<pdfrwt beam="2">0</pdfrwt>
<totfact> 0.10186278E+12</totfact>
</mgrwt>
</event>
<event>
 4    2  0.1985873E+006  0.3283760E+01  0.7546771E-02  0.2439462E+00
         22   -1    0    0    0    0  0.00000000000E+00  0.00000000000E+00  0.64251176588E+00  0.64251176588E+00  0.00000000000E+00 0. -1.
         22   -1    0    0    0    0 -0.00000000000E+00 -0.00000000000E+00 -0.39297835105E+02  0.39297835105E+02  0.00000000000E+00 0.  1.
          4    1    1    2  501    0  0.57995866954E+00 -0.32321395098E+01 -0.42117318293E+01  0.53405770167E+01  0.00000000000E+00 0. -1.
         -4    1    1    2    0  501 -0.57995866954E+00  0.32321395098E+01 -0.34443591510E+02  0.34599769855E+02  0.00000000000E+00 0.  1.
<mgrwt>
<rscale>  0 0.32837597E+01</rscale>
<asrwt>0</asrwt>
<pdfrwt beam="1">0</pdfrwt>
<pdfrwt beam="2">0</pdfrwt>
<totfact> 0.47517735E+11</totfact>
</mgrwt>
</event>
<event>
 4    2  0.1985873E+006  0.2711943E+01  0.7546771E-02  0.2621876E+00
         22   -1    0    0    0    0  0.00000000000E+00  0.00000000000E+00  0.38842562560E+01  0.38842562560E+01  0.00000000000E+00 0. -1.
         22   -1    0    0    0    0 -0.00000000000E+00 -0.00000000000E+00 -0.19195495087E+01  0.19195495087E+01  0.00000000000E+00 0.  1.
          4    1    1    2  501    0  0.23410849763E+01 -0.13689241652E+01  0.64395619345E+00  0.27873485278E+01  0.00000000000E+00 0.  1.
         -4    1    1    2    0  501 -0.23410849763E+01  0.13689241652E+01  0.13207505538E+01  0.30164572369E+01  0.00000000000E+00 0. -1.
<mgrwt>
<rscale>  0 0.27119425E+01</rscale>
<asrwt>0</asrwt>
<pdfrwt beam="1">0</pdfrwt>
<pdfrwt beam="2">0</pdfrwt>
<totfact> 0.23163727E+12</totfact>
</mgrwt>
</event>
<event>
 4    2  0.1985873E+006  0.2067471E+01  0.7546771E-02  0.2936624E+00
         22   -1    0    0    0    0  0.00000000000E+00  0.00000000000E+00  0.91387660478E+00  0.91387660478E+00  0.00000000000E+00 0. -1.
         22   -1    0    0    0    0 -0.00000000000E+00 -0.00000000000E+00 -0.92046823116E+01  0.92046823116E+01  0.00000000000E+00 0.  1.
          4    1    1    2  501    0  0.20434391005E+01 -0.31431191968E+00 -0.59718778647E+00  0.21519917733E+01  0.00000000000E+00 0. -1.
         -4    1    1    2    0  501 -0.20434391005E+01  0.31431191968E+00 -0.76936179204E+01  0.79665671431E+01  0.00000000000E+00 0.  1.
<mgrwt>
<rscale>  0 0.20674708E+01</rscale>
<asrwt>0</asrwt>
<pdfrwt beam="1">0</pdfrwt>
<pdfrwt beam="2">0</pdfrwt>
<totfact> 0.19437141E+12</totfact>
</mgrwt>
</event>
<event>
 4    2  0.1985873E+006  0.3624077E+01  0.7546771E-02  0.2355481E+00
         22   -1    0    0    0    0  0.00000000000E+00  0.00000000000E+00  0.11805686457E+02  0.11805686457E+02  0.00000000000E+00 0.  1.
         22   -1    0    0    0    0 -0.00000000000E+00 -0.00000000000E+00 -0.10682723920E+02  0.10682723920E+02  0.00000000000E+00 0. -1.
          4    1    1    2  501    0  0.15466126805E+01 -0.32774875829E+01  0.11204102331E+02  0.11775646253E+02  0.00000000000E+00 0.  1.
         -4    1    1    2    0  501 -0.15466126805E+01  0.32774875829E+01 -0.10081139793E+02  0.10712764124E+02  0.00000000000E+00 0. -1.
<mgrwt>
<rscale>  0 0.36240772E+01</rscale>
<asrwt>0</asrwt>
<pdfrwt beam="1">0</pdfrwt>
<pdfrwt beam="2">0</pdfrwt>
<totfact> 0.80591339E+10</totfact>
</mgrwt>
</event>
<event>
 4    2  0.1985873E+006  0.2004928E+01  0.7546771E-02  0.2977409E+00
         22   -1    0    0    0    0  0.00000000000E+00  0.00000000000E+00  0.68529784026E+02  0.68529784026E+02  0.00000000000E+00 0.  1.
         22   -1    0    0    0    0 -0.00000000000E+00 -0.00000000000E+00 -0.11780835949E+00  0.11780835949E+00  0.00000000000E+00 0. -1.
          4    1    1    2  501    0 -0.14694362787E+01  0.13639992284E+01  0.58527490939E+02  0.58561821458E+02  0.00000000000E+00 0.  1.
         -4    1    1    2    0  501  0.14694362787E+01 -0.13639992284E+01  0.98844847279E+01  0.10085770928E+02  0.00000000000E+00 0. -1.
<mgrwt>
<rscale>  0 0.20049281E+01</rscale>
<asrwt>0</asrwt>
<pdfrwt beam="1">0</pdfrwt>
<pdfrwt beam="2">0</pdfrwt>
<totfact> 0.15224316E+12</totfact>
</mgrwt>
</event>
<event>
 4    2  0.1985873E+006  0.2402137E+01  0.7546771E-02  0.2753313E+00
         22   -1    0    0    0    0  0.00000000000E+00  0.00000000000E+00  0.69625561641E+01  0.69625561641E+01  0.00000000000E+00 0. -1.
         22   -1    0    0    0    0 -0.00000000000E+00 -0.00000000000E+00 -0.12338758792E+01  0.12338758792E+01  0.00000000000E+00 0.  1.
          4    1    1    2  501    0 -0.23669206358E+01  0.40981403207E+00  0.52126253240E+01  0.57394880961E+01  0.00000000000E+00 0. -1.
         -4    1    1    2    0  501  0.23669206358E+01 -0.40981403207E+00  0.51605496091E+00  0.24569439472E+01  0.00000000000E+00 0.  1.
<mgrwt>
<rscale>  0 0.24021367E+01</rscale>
<asrwt>0</asrwt>
<pdfrwt beam="1">0</pdfrwt>
<pdfrwt beam="2">0</pdfrwt>
<totfact> 0.19287520E+12</totfact>
</mgrwt>
</event>
<event>
 4    2  0.1985873E+006  0.2032516E+01  0.7546771E-02  0.2959117E+00
         22   -1    0    0    0    0  0.00000000000E+00  0.00000000000E+00  0.32173634629E+01  0.32173634629E+01  0.00000000000E+00 0. -1.
         22   -1    0    0    0    0 -0.00000000000E+00 -0.00000000000E+00 -0.44455939078E+01  0.44455939078E+01  0.00000000000E+00 0.  1.
          4    1    1    2  501    0  0.92644945699E+00  0.18090912105E+01  0.26170117947E+01  0.33135887400E+01  0.00000000000E+00 0. -1.
         -4    1    1    2    0  501 -0.92644945699E+00 -0.18090912105E+01 -0.38452422396E+01  0.43493686307E+01  0.00000000000E+00 0.  1.
<mgrwt>
<rscale>  0 0.20325156E+01</rscale>
<asrwt>0</asrwt>
<pdfrwt beam="1">0</pdfrwt>
<pdfrwt beam="2">0</pdfrwt>
<totfact> 0.10834803E+12</totfact>
</mgrwt>
</event>
<event>
 4    2  0.1985873E+006  0.2845172E+01  0.7546771E-02  0.2573493E+00
         22   -1    0    0    0    0  0.00000000000E+00  0.00000000000E+00  0.20054742951E+01  0.20054742951E+01  0.00000000000E+00 0.  1.
         22   -1    0    0    0    0 -0.00000000000E+00 -0.00000000000E+00 -0.43183974381E+01  0.43183974381E+01  0.00000000000E+00 0. -1.
          4    1    1    2  501    0 -0.27248254601E+01  0.81873518497E+00 -0.34853080028E+00  0.28664393958E+01  0.00000000000E+00 0.  1.
         -4    1    1    2    0  501  0.27248254601E+01 -0.81873518497E+00 -0.19643923428E+01  0.34574323374E+01  0.00000000000E+00 0. -1.
<mgrwt>
<rscale>  0 0.28451715E+01</rscale>
<asrwt>0</asrwt>
<pdfrwt beam="1">0</pdfrwt>
<pdfrwt beam="2">0</pdfrwt>
<totfact> 0.19436831E+12</totfact>
</mgrwt>
</event>
<event>
 4    2  0.1985873E+006  0.2252224E+01  0.7546771E-02  0.2828991E+00
         22   -1    0    0    0    0  0.00000000000E+00  0.00000000000E+00  0.27568504934E+01  0.27568504934E+01  0.00000000000E+00 0.  1.
         22   -1    0    0    0    0 -0.00000000000E+00 -0.00000000000E+00 -0.28391781923E+01  0.28391781923E+01  0.00000000000E+00 0. -1.
          4    1    1    2  501    0 -0.13528764026E+01 -0.18006211845E+01  0.16187382360E+01  0.27735941822E+01  0.00000000000E+00 0.  1.
         -4    1    1    2    0  501  0.13528764026E+01  0.18006211845E+01 -0.17010659349E+01  0.28224345034E+01  0.00000000000E+00 0. -1.
<mgrwt>
<rscale>  0 0.22522236E+01</rscale>
<asrwt>0</asrwt>
<pdfrwt beam="1">0</pdfrwt>
<pdfrwt beam="2">0</pdfrwt>
<totfact> 0.21961914E+12</totfact>
</mgrwt>
</event>
<event>
 4    2  0.1985873E+006  0.4885866E+01  0.7546771E-02  0.2136879E+00
         22   -1    0    0    0    0  0.00000000000E+00  0.00000000000E+00  0.70770782795E+01  0.70770782795E+01  0.00000000000E+00 0. -1.
         22   -1    0    0    0    0 -0.00000000000E+00 -0.00000000000E+00 -0.43017786211E+01  0.43017786211E+01  0.00000000000E+00 0.  1.
          4    1    1    2  501    0 -0.21222379781E+01  0.44008852606E+01  0.40311393175E+01  0.63341747142E+01  0.00000000000E+00 0. -1.
         -4    1    1    2    0  501  0.21222379781E+01 -0.44008852606E+01 -0.12558396591E+01  0.50446821864E+01  0.00000000000E+00 0.  1.
<mgrwt>
<rscale>  0 0.48858659E+01</rscale>
<asrwt>0</asrwt>
<pdfrwt beam="1">0</pdfrwt>
<pdfrwt beam="2">0</pdfrwt>
<totfact> 0.44340577E+11</totfact>
</mgrwt>
</event>
<event>
 4    2  0.1985873E+006  0.3202129E+01  0.7546771E-02  0.2461923E+00
         22   -1    0    0    0    0  0.00000000000E+00  0.00000000000E+00  0.40703624946E+00  0.40703624946E+00  0.00000000000E+00 0.  1.
         22   -1    0    0    0    0 -0.00000000000E+00 -0.00000000000E+00 -0.29893582246E+02  0.29893582246E+02  0.00000000000E+00 0. -1.
          4    1    1    2  501    0  0.28718533893E+00 -0.31892243667E+01 -0.87342579715E+01  0.93027356080E+01  0.00000000000E+00 0.  1.
         -4    1    1    2    0  501 -0.28718533893E+00  0.31892243667E+01 -0.20752288025E+02  0.20997882888E+02  0.00000000000E+00 0. -1.
<mgrwt>
<rscale>  0 0.32021286E+01</rscale>
<asrwt>0</asrwt>
<pdfrwt beam="1">0</pdfrwt>
<pdfrwt beam="2">0</pdfrwt>
<totfact> 0.11309512E+12</totfact>
</mgrwt>
</event>
<event>
 4    2  0.1985873E+006  0.2286249E+01  0.7546771E-02  0.2810990E+00
         22   -1    0    0    0    0  0.00000000000E+00  0.00000000000E+00  0.47086186002E+00  0.47086186002E+00  0.00000000000E+00 0. -1.
         22   -1    0    0    0    0 -0.00000000000E+00 -0.00000000000E+00 -0.12886104996E+02  0.12886104996E+02  0.00000000000E+00 0.  1.
          4    1    1    2  501    0 -0.22377770671E+01 -0.46828411482E+00 -0.37217707066E+01  0.43678957642E+01  0.00000000000E+00 0. -1.
         -4    1    1    2    0  501  0.22377770671E+01  0.46828411482E+00 -0.86934724298E+01  0.89890710923E+01  0.00000000000E+00 0.  1.
<mgrwt>
<rscale>  0 0.22862494E+01</rscale>
<asrwt>0</asrwt>
<pdfrwt beam="1">0</pdfrwt>
<pdfrwt beam="2">0</pdfrwt>
<totfact> 0.27399464E+12</totfact>
</mgrwt>
</event>
<event>
 4    2  0.1985873E+006  0.2761458E+01  0.7546771E-02  0.2603398E+00
         22   -1    0    0    0    0  0.00000000000E+00  0.00000000000E+00  0.24765335991E+01  0.24765335991E+01  0.00000000000E+00 0.  1.
         22   -1    0    0    0    0 -0.00000000000E+00 -0.00000000000E+00 -0.64907455893E+01  0.64907455893E+01  0.00000000000E+00 0. -1.
          4    1    1    2  501    0 -0.26101726915E+01  0.90146917904E+00  0.12434781319E+01  0.30285121800E+01  0.00000000000E+00 0.  1.
         -4    1    1    2    0  501  0.26101726915E+01 -0.90146917904E+00 -0.52576901221E+01  0.59387670084E+01  0.00000000000E+00 0. -1.
<mgrwt>
<rscale>  0 0.27614576E+01</rscale>
<asrwt>0</asrwt>
<pdfrwt beam="1">0</pdfrwt>
<pdfrwt beam="2">0</pdfrwt>
<totfact> 0.93847319E+11</totfact>
</mgrwt>
</event>
<event>
 4    2  0.1985873E+006  0.2968140E+01  0.7546771E-02  0.2532345E+00
         22   -1    0    0    0    0  0.00000000000E+00  0.00000000000E+00  0.38804675014E+00  0.38804675014E+00  0.00000000000E+00 0. -1.
         22   -1    0    0    0    0 -0.00000000000E+00 -0.00000000000E+00 -0.24133104829E+02  0.24133104829E+02  0.00000000000E+00 0.  1.
          4    1    1    2  501    0  0.21612303054E+01  0.20344387321E+01 -0.14857057150E+02  0.15150643701E+02  0.00000000000E+00 0.  1.
         -4    1    1    2    0  501 -0.21612303054E+01 -0.20344387321E+01 -0.88880009282E+01  0.93705078778E+01  0.00000000000E+00 0. -1.
<mgrwt>
<rscale>  0 0.29681404E+01</rscale>
<asrwt>0</asrwt>
<pdfrwt beam="1">0</pdfrwt>
<pdfrwt beam="2">0</pdfrwt>
<totfact> 0.15650465E+12</totfact>
</mgrwt>
</event>
<event>
 4    2  0.1985873E+006  0.4740122E+01  0.7546771E-02  0.2155364E+00
         22   -1    0    0    0    0  0.00000000000E+00  0.00000000000E+00  0.76428314823E+00  0.76428314823E+00  0.00000000000E+00 0. -1.
         22   -1    0    0    0    0 -0.00000000000E+00 -0.00000000000E+00 -0.30333283351E+02  0.30333283351E+02  0.00000000000E+00 0.  1.
          4    1    1    2  501    0 -0.39195908712E+01 -0.26656264842E+01 -0.17514097276E+02  0.18144210111E+02  0.00000000000E+00 0.  1.
         -4    1    1    2    0  501  0.39195908712E+01  0.26656264842E+01 -0.12054902926E+02  0.12953356388E+02  0.00000000000E+00 0. -1.
<mgrwt>
<rscale>  0 0.47401221E+01</rscale>
<asrwt>0</asrwt>
<pdfrwt beam="1">0</pdfrwt>
<pdfrwt beam="2">0</pdfrwt>
<totfact> 0.54431699E+11</totfact>
</mgrwt>
</event>
<event>
 4    2  0.1985873E+006  0.2898937E+01  0.7546771E-02  0.2555115E+00
         22   -1    0    0    0    0  0.00000000000E+00  0.00000000000E+00  0.70892008835E+00  0.70892008835E+00  0.00000000000E+00 0. -1.
         22   -1    0    0    0    0 -0.00000000000E+00 -0.00000000000E+00 -0.11995647547E+02  0.11995647547E+02  0.00000000000E+00 0.  1.
          4    1    1    2  501    0  0.13132723021E+01  0.25844056463E+01 -0.49541129001E+01  0.57399539467E+01  0.00000000000E+00 0. -1.
         -4    1    1    2    0  501 -0.13132723021E+01 -0.25844056463E+01 -0.63326145582E+01  0.69646136882E+01  0.00000000000E+00 0.  1.
<mgrwt>
<rscale>  0 0.28989372E+01</rscale>
<asrwt>0</asrwt>
<pdfrwt beam="1">0</pdfrwt>
<pdfrwt beam="2">0</pdfrwt>
<totfact> 0.18820031E+12</totfact>
</mgrwt>
</event>
<event>
 4    2  0.1985873E+006  0.2146616E+01  0.7546771E-02  0.2888330E+00
         22   -1    0    0    0    0  0.00000000000E+00  0.00000000000E+00  0.10604096802E+01  0.10604096802E+01  0.00000000000E+00 0. -1.
         22   -1    0    0    0    0 -0.00000000000E+00 -0.00000000000E+00 -0.45052291381E+01  0.45052291381E+01  0.00000000000E+00 0.  1.
          4    1    1    2  501    0  0.14214512710E+01  0.16085506511E+01 -0.11983455436E+01  0.24584529596E+01  0.00000000000E+00 0. -1.
         -4    1    1    2    0  501 -0.14214512710E+01 -0.16085506511E+01 -0.22464739143E+01  0.31071858587E+01  0.00000000000E+00 0.  1.
<mgrwt>
<rscale>  0 0.21466157E+01</rscale>
<asrwt>0</asrwt>
<pdfrwt beam="1">0</pdfrwt>
<pdfrwt beam="2">0</pdfrwt>
<totfact> 0.38474995E+12</totfact>
</mgrwt>
</event>
<event>
 4    2  0.1985873E+006  0.3593588E+01  0.7546771E-02  0.2362437E+00
         22   -1    0    0    0    0  0.00000000000E+00  0.00000000000E+00  0.14577105955E+01  0.14577105955E+01  0.00000000000E+00 0.  1.
         22   -1    0    0    0    0 -0.00000000000E+00 -0.00000000000E+00 -0.13475266477E+02  0.13475266477E+02  0.00000000000E+00 0. -1.
          4    1    1    2  501    0 -0.34881113137E+01  0.86426478853E+00 -0.16386652036E+01  0.39495693196E+01  0.00000000000E+00 0.  1.
         -4    1    1    2    0  501  0.34881113137E+01 -0.86426478853E+00 -0.10378890677E+02  0.10983407752E+02  0.00000000000E+00 0. -1.
<mgrwt>
<rscale>  0 0.35935879E+01</rscale>
<asrwt>0</asrwt>
<pdfrwt beam="1">0</pdfrwt>
<pdfrwt beam="2">0</pdfrwt>
<totfact> 0.71652027E+11</totfact>
</mgrwt>
</event>
<event>
 4    2  0.1985873E+006  0.2526682E+01  0.7546771E-02  0.2696882E+00
         22   -1    0    0    0    0  0.00000000000E+00  0.00000000000E+00  0.10287793077E+02  0.10287793077E+02  0.00000000000E+00 0. -1.
         22   -1    0    0    0    0 -0.00000000000E+00 -0.00000000000E+00 -0.90394914835E+00  0.90394914835E+00  0.00000000000E+00 0.  1.
          4    1    1    2  501    0 -0.71487898993E+00  0.24234418728E+01  0.78251539676E+01  0.82229652254E+01  0.00000000000E+00 0. -1.
         -4    1    1    2    0  501  0.71487898993E+00 -0.24234418728E+01  0.15586899611E+01  0.29687770001E+01  0.00000000000E+00 0.  1.
<mgrwt>
<rscale>  0 0.25266821E+01</rscale>
<asrwt>0</asrwt>
<pdfrwt beam="1">0</pdfrwt>
<pdfrwt beam="2">0</pdfrwt>
<totfact> 0.17203993E+12</totfact>
</mgrwt>
</event>
<event>
 4    2  0.1985873E+006  0.2611075E+01  0.7546771E-02  0.2661498E+00
         22   -1    0    0    0    0  0.00000000000E+00  0.00000000000E+00  0.56579652919E+00  0.56579652919E+00  0.00000000000E+00 0.  1.
         22   -1    0    0    0    0 -0.00000000000E+00 -0.00000000000E+00 -0.12058734174E+02  0.12058734174E+02  0.00000000000E+00 0. -1.
          4    1    1    2  501    0 -0.22744265406E+01  0.12824573006E+01 -0.55742767342E+01  0.61555076091E+01  0.00000000000E+00 0.  1.
         -4    1    1    2    0  501  0.22744265406E+01 -0.12824573006E+01 -0.59186609103E+01  0.64690230938E+01  0.00000000000E+00 0. -1.
<mgrwt>
<rscale>  0 0.26110750E+01</rscale>
<asrwt>0</asrwt>
<pdfrwt beam="1">0</pdfrwt>
<pdfrwt beam="2">0</pdfrwt>
<totfact> 0.24145248E+12</totfact>
</mgrwt>
</event>
<event>
 4    2  0.1985873E+006  0.3782377E+01  0.7546771E-02  0.2320929E+00
         22   -1    0    0    0    0  0.00000000000E+00  0.00000000000E+00  0.52730291037E+00  0.52730291037E+00  0.00000000000E+00 0. -1.
         22   -1    0    0    0    0 -0.00000000000E+00 -0.00000000000E+00 -0.35145124072E+02  0.35145124072E+02  0.00000000000E+00 0.  1.
          4    1    1    2  501    0 -0.20326816766E+01 -0.31897617082E+01 -0.25826015997E+02  0.26101522500E+02  0.00000000000E+00 0. -1.
         -4    1    1    2    0  501  0.20326816766E+01  0.31897617082E+01 -0.87918051647E+01  0.95709044822E+01  0.00000000000E+00 0.  1.
<mgrwt>
<rscale>  0 0.37823768E+01</rscale>
<asrwt>0</asrwt>
<pdfrwt beam="1">0</pdfrwt>
<pdfrwt beam="2">0</pdfrwt>
<totfact> 0.68649059E+11</totfact>
</mgrwt>
</event>
<event>
 4    2  0.1985873E+006  0.2490686E+01  0.7546771E-02  0.2712651E+00
         22   -1    0    0    0    0  0.00000000000E+00  0.00000000000E+00  0.21835935525E+01  0.21835935525E+01  0.00000000000E+00 0.  1.
         22   -1    0    0    0    0 -0.00000000000E+00 -0.00000000000E+00 -0.35504621527E+01  0.35504621527E+01  0.00000000000E+00 0. -1.
          4    1    1    2  501    0  0.22791029825E+01  0.10045920355E+01  0.59820087266E+00  0.25615151467E+01  0.00000000000E+00 0.  1.
         -4    1    1    2    0  501 -0.22791029825E+01 -0.10045920355E+01 -0.19650694728E+01  0.31725405585E+01  0.00000000000E+00 0. -1.
<mgrwt>
<rscale>  0 0.24906858E+01</rscale>
<asrwt>0</asrwt>
<pdfrwt beam="1">0</pdfrwt>
<pdfrwt beam="2">0</pdfrwt>
<totfact> 0.22172529E+12</totfact>
</mgrwt>
</event>
<event>
 4    2  0.1985873E+006  0.2398379E+01  0.7546771E-02  0.2755101E+00
         22   -1    0    0    0    0  0.00000000000E+00  0.00000000000E+00  0.12752638673E+02  0.12752638673E+02  0.00000000000E+00 0.  1.
         22   -1    0    0    0    0 -0.00000000000E+00 -0.00000000000E+00 -0.56435685408E+00  0.56435685408E+00  0.00000000000E+00 0. -1.
          4    1    1    2  501    0 -0.33459380696E+00 -0.23749247581E+01  0.31107788398E+01  0.39279976594E+01  0.00000000000E+00 0. -1.
         -4    1    1    2    0  501  0.33459380696E+00  0.23749247581E+01  0.90775029796E+01  0.93889978681E+01  0.00000000000E+00 0.  1.
<mgrwt>
<rscale>  0 0.23983787E+01</rscale>
<asrwt>0</asrwt>
<pdfrwt beam="1">0</pdfrwt>
<pdfrwt beam="2">0</pdfrwt>
<totfact> 0.22615667E+12</totfact>
</mgrwt>
</event>
<event>
 4    2  0.1985873E+006  0.3363370E+01  0.7546771E-02  0.2418487E+00
         22   -1    0    0    0    0  0.00000000000E+00  0.00000000000E+00  0.11473207363E+01  0.11473207363E+01  0.00000000000E+00 0. -1.
         22   -1    0    0    0    0 -0.00000000000E+00 -0.00000000000E+00 -0.98682803979E+01  0.98682803979E+01  0.00000000000E+00 0.  1.
          4    1    1    2  501    0  0.26026058873E+01 -0.21304225245E+01 -0.45227301762E+01  0.56362528141E+01  0.00000000000E+00 0. -1.
         -4    1    1    2    0  501 -0.26026058873E+01  0.21304225245E+01 -0.41982294854E+01  0.53793483201E+01  0.00000000000E+00 0.  1.
<mgrwt>
<rscale>  0 0.33633700E+01</rscale>
<asrwt>0</asrwt>
<pdfrwt beam="1">0</pdfrwt>
<pdfrwt beam="2">0</pdfrwt>
<totfact> 0.13780375E+12</totfact>
</mgrwt>
</event>
<event>
 4    2  0.1985873E+006  0.2104036E+01  0.7546771E-02  0.2913875E+00
         22   -1    0    0    0    0  0.00000000000E+00  0.00000000000E+00  0.24407072511E+02  0.24407072511E+02  0.00000000000E+00 0.  1.
         22   -1    0    0    0    0 -0.00000000000E+00 -0.00000000000E+00 -0.44928642164E+00  0.44928642164E+00  0.00000000000E+00 0. -1.
          4    1    1    2  501    0  0.58440117221E+00 -0.20212477596E+01  0.21575926714E+02  0.21678274396E+02  0.00000000000E+00 0.  1.
         -4    1    1    2    0  501 -0.58440117221E+00  0.20212477596E+01  0.23818593753E+01  0.31780845363E+01  0.00000000000E+00 0. -1.
<mgrwt>
<rscale>  0 0.21040359E+01</rscale>
<asrwt>0</asrwt>
<pdfrwt beam="1">0</pdfrwt>
<pdfrwt beam="2">0</pdfrwt>
<totfact> 0.13080826E+12</totfact>
</mgrwt>
</event>
<event>
 4    2  0.1985873E+006  0.4920483E+01  0.7546771E-02  0.2132616E+00
         22   -1    0    0    0    0  0.00000000000E+00  0.00000000000E+00  0.19934732919E+01  0.19934732919E+01  0.00000000000E+00 0. -1.
         22   -1    0    0    0    0 -0.00000000000E+00 -0.00000000000E+00 -0.13158790871E+02  0.13158790871E+02  0.00000000000E+00 0.  1.
          4    1    1    2  501    0  0.49002418314E+01  0.44585178909E+00 -0.34800013403E+01  0.60267373555E+01  0.00000000000E+00 0.  1.
         -4    1    1    2    0  501 -0.49002418314E+01 -0.44585178909E+00 -0.76853162391E+01  0.91255268077E+01  0.00000000000E+00 0. -1.
<mgrwt>
<rscale>  0 0.49204831E+01</rscale>
<asrwt>0</asrwt>
<pdfrwt beam="1">0</pdfrwt>
<pdfrwt beam="2">0</pdfrwt>
<totfact> 0.51409789E+11</totfact>
</mgrwt>
</event>
<event>
 4    2  0.1985873E+006  0.5122181E+01  0.7546771E-02  0.2108696E+00
         22   -1    0    0    0    0  0.00000000000E+00  0.00000000000E+00  0.77986806928E+02  0.77986806928E+02  0.00000000000E+00 0.  1.
         22   -1    0    0    0    0 -0.00000000000E+00 -0.00000000000E+00 -0.18462852507E+01  0.18462852507E+01  0.00000000000E+00 0. -1.
          4    1    1    2  501    0  0.49629009160E+01  0.12674211784E+01  0.74167324480E+02  0.74343989417E+02  0.00000000000E+00 0.  1.
         -4    1    1    2    0  501 -0.49629009160E+01 -0.12674211784E+01  0.19731971972E+01  0.54891027613E+01  0.00000000000E+00 0. -1.
<mgrwt>
<rscale>  0 0.51221814E+01</rscale>
<asrwt>0</asrwt>
<pdfrwt beam="1">0</pdfrwt>
<pdfrwt beam="2">0</pdfrwt>
<totfact> 0.57056428E+10</totfact>
</mgrwt>
</event>
<event>
 4    2  0.1985873E+006  0.3120821E+01  0.7546771E-02  0.2485325E+00
         22   -1    0    0    0    0  0.00000000000E+00  0.00000000000E+00  0.10378727637E+01  0.10378727637E+01  0.00000000000E+00 0.  1.
         22   -1    0    0    0    0 -0.00000000000E+00 -0.00000000000E+00 -0.98915852580E+01  0.98915852580E+01  0.00000000000E+00 0. -1.
          4    1    1    2  501    0 -0.36366476203E+00 -0.30995598095E+01 -0.31890900231E+01  0.44620419370E+01  0.00000000000E+00 0.  1.
         -4    1    1    2    0  501  0.36366476203E+00  0.30995598095E+01 -0.56646224712E+01  0.64674160847E+01  0.00000000000E+00 0. -1.
<mgrwt>
<rscale>  0 0.31208209E+01</rscale>
<asrwt>0</asrwt>
<pdfrwt beam="1">0</pdfrwt>
<pdfrwt beam="2">0</pdfrwt>
<totfact> 0.15410591E+12</totfact>
</mgrwt>
</event>
<event>
 4    2  0.1985873E+006  0.2003497E+01  0.7546771E-02  0.2978372E+00
         22   -1    0    0    0    0  0.00000000000E+00  0.00000000000E+00  0.54166351472E+00  0.54166351472E+00  0.00000000000E+00 0. -1.
         22   -1    0    0    0    0 -0.00000000000E+00 -0.00000000000E+00 -0.13698183262E+02  0.13698183262E+02  0.00000000000E+00 0.  1.
          4    1    1    2  501    0  0.18352437755E+01 -0.80366575415E+00 -0.17544619497E+01  0.26631062865E+01  0.00000000000E+00 0. -1.
         -4    1    1    2    0  501 -0.18352437755E+01  0.80366575415E+00 -0.11402057797E+02  0.11576740490E+02  0.00000000000E+00 0.  1.
<mgrwt>
<rscale>  0 0.20034965E+01</rscale>
<asrwt>0</asrwt>
<pdfrwt beam="1">0</pdfrwt>
<pdfrwt beam="2">0</pdfrwt>
<totfact> 0.21702214E+12</totfact>
</mgrwt>
</event>
<event>
 4    2  0.1985873E+006  0.2200440E+01  0.7546771E-02  0.2857405E+00
         22   -1    0    0    0    0  0.00000000000E+00  0.00000000000E+00  0.19715834472E+01  0.19715834472E+01  0.00000000000E+00 0. -1.
         22   -1    0    0    0    0 -0.00000000000E+00 -0.00000000000E+00 -0.33830933669E+01  0.33830933669E+01  0.00000000000E+00 0.  1.
          4    1    1    2  501    0  0.14019302939E+01  0.16960328084E+01  0.69589786359E+00  0.23078582436E+01  0.00000000000E+00 0. -1.
         -4    1    1    2    0  501 -0.14019302939E+01 -0.16960328084E+01 -0.21074077833E+01  0.30468185704E+01  0.00000000000E+00 0.  1.
<mgrwt>
<rscale>  0 0.22004399E+01</rscale>
<asrwt>0</asrwt>
<pdfrwt beam="1">0</pdfrwt>
<pdfrwt beam="2">0</pdfrwt>
<totfact> 0.26409871E+12</totfact>
</mgrwt>
</event>
<event>
 4    2  0.1985873E+006  0.2335925E+01  0.7546771E-02  0.2785604E+00
         22   -1    0    0    0    0  0.00000000000E+00  0.00000000000E+00  0.14947466480E+02  0.14947466480E+02  0.00000000000E+00 0.  1.
         22   -1    0    0    0    0 -0.00000000000E+00 -0.00000000000E+00 -0.44994896664E+00  0.44994896664E+00  0.00000000000E+00 0. -1.
          4    1    1    2  501    0 -0.22717663963E+01 -0.54371083679E+00  0.10592959197E+02  0.10847457240E+02  0.00000000000E+00 0.  1.
         -4    1    1    2    0  501  0.22717663963E+01  0.54371083679E+00  0.39045583168E+01  0.45499582067E+01  0.00000000000E+00 0. -1.
<mgrwt>
<rscale>  0 0.23359247E+01</rscale>
<asrwt>0</asrwt>
<pdfrwt beam="1">0</pdfrwt>
<pdfrwt beam="2">0</pdfrwt>
<totfact> 0.24040897E+12</totfact>
</mgrwt>
</event>
<event>
 4    2  0.1985873E+006  0.5521005E+01  0.7546771E-02  0.2065510E+00
         22   -1    0    0    0    0  0.00000000000E+00  0.00000000000E+00  0.28843476199E+01  0.28843476199E+01  0.00000000000E+00 0. -1.
         22   -1    0    0    0    0 -0.00000000000E+00 -0.00000000000E+00 -0.23432696807E+02  0.23432696807E+02  0.00000000000E+00 0.  1.
          4    1    1    2  501    0  0.50562016833E+01 -0.22172786701E+01 -0.52433592110E+00  0.55458478451E+01  0.00000000000E+00 0. -1.
         -4    1    1    2    0  501 -0.50562016833E+01  0.22172786701E+01 -0.20024013266E+02  0.20771196582E+02  0.00000000000E+00 0.  1.
<mgrwt>
<rscale>  0 0.55210054E+01</rscale>
<asrwt>0</asrwt>
<pdfrwt beam="1">0</pdfrwt>
<pdfrwt beam="2">0</pdfrwt>
<totfact> 0.16365419E+11</totfact>
</mgrwt>
</event>
<event>
 4    2  0.1985873E+006  0.2008479E+01  0.7546771E-02  0.2975027E+00
         22   -1    0    0    0    0  0.00000000000E+00  0.00000000000E+00  0.75650740080E+00  0.75650740080E+00  0.00000000000E+00 0. -1.
         22   -1    0    0    0    0 -0.00000000000E+00 -0.00000000000E+00 -0.37198472468E+02  0.37198472468E+02  0.00000000000E+00 0.  1.
          4    1    1    2  501    0 -0.14414111672E+01 -0.13986860939E+01 -0.65628860109E+00  0.21129845410E+01  0.00000000000E+00 0. -1.
         -4    1    1    2    0  501  0.14414111672E+01  0.13986860939E+01 -0.35785676466E+02  0.35841995328E+02  0.00000000000E+00 0.  1.
<mgrwt>
<rscale>  0 0.20084793E+01</rscale>
<asrwt>0</asrwt>
<pdfrwt beam="1">0</pdfrwt>
<pdfrwt beam="2">0</pdfrwt>
<totfact> 0.42376966E+11</totfact>
</mgrwt>
</event>
<event>
 4    2  0.1985873E+006  0.2061464E+01  0.7546771E-02  0.2940436E+00
         22   -1    0    0    0    0  0.00000000000E+00  0.00000000000E+00  0.44990385659E+01  0.44990385659E+01  0.00000000000E+00 0. -1.
         22   -1    0    0    0    0 -0.00000000000E+00 -0.00000000000E+00 -0.14159517841E+01  0.14159517841E+01  0.00000000000E+00 0.  1.
          4    1    1    2  501    0  0.17444953297E+01 -0.10983492427E+01  0.32479732695E+01  0.38469423408E+01  0.00000000000E+00 0. -1.
         -4    1    1    2    0  501 -0.17444953297E+01  0.10983492427E+01 -0.16488648774E+00  0.20680480092E+01  0.00000000000E+00 0.  1.
<mgrwt>
<rscale>  0 0.20614643E+01</rscale>
<asrwt>0</asrwt>
<pdfrwt beam="1">0</pdfrwt>
<pdfrwt beam="2">0</pdfrwt>
<totfact> 0.27665550E+12</totfact>
</mgrwt>
</event>
<event>
 4    2  0.1985873E+006  0.2290474E+01  0.7546771E-02  0.2808790E+00
         22   -1    0    0    0    0  0.00000000000E+00  0.00000000000E+00  0.22388170416E+00  0.22388170416E+00  0.00000000000E+00 0. -1.
         22   -1    0    0    0    0 -0.00000000000E+00 -0.00000000000E+00 -0.23701989765E+02  0.23701989765E+02  0.00000000000E+00 0.  1.
          4    1    1    2  501    0 -0.96704523224E+00 -0.20763178551E+01 -0.10465186040E+02  0.10712907689E+02  0.00000000000E+00 0.  1.
         -4    1    1    2    0  501  0.96704523224E+00  0.20763178551E+01 -0.13012922021E+02  0.13212963779E+02  0.00000000000E+00 0. -1.
<mgrwt>
<rscale>  0 0.22904743E+01</rscale>
<asrwt>0</asrwt>
<pdfrwt beam="1">0</pdfrwt>
<pdfrwt beam="2">0</pdfrwt>
<totfact> 0.29657231E+12</totfact>
</mgrwt>
</event>
<event>
 4    2  0.1985873E+006  0.2944147E+01  0.7546771E-02  0.2540130E+00
         22   -1    0    0    0    0  0.00000000000E+00  0.00000000000E+00  0.25239782289E+01  0.25239782289E+01  0.00000000000E+00 0.  1.
         22   -1    0    0    0    0 -0.00000000000E+00 -0.00000000000E+00 -0.34374086760E+01  0.34374086760E+01  0.00000000000E+00 0. -1.
          4    1    1    2  501    0  0.22895029901E+01  0.18509933593E+01 -0.54691113669E+00  0.29945136749E+01  0.00000000000E+00 0.  1.
         -4    1    1    2    0  501 -0.22895029901E+01 -0.18509933593E+01 -0.36651931042E+00  0.29668732300E+01  0.00000000000E+00 0. -1.
<mgrwt>
<rscale>  0 0.29441468E+01</rscale>
<asrwt>0</asrwt>
<pdfrwt beam="1">0</pdfrwt>
<pdfrwt beam="2">0</pdfrwt>
<totfact> 0.19463768E+12</totfact>
</mgrwt>
</event>
<event>
 4    2  0.1985873E+006  0.2939173E+01  0.7546771E-02  0.2541758E+00
         22   -1    0    0    0    0  0.00000000000E+00  0.00000000000E+00  0.19608309779E+02  0.19608309779E+02  0.00000000000E+00 0. -1.
         22   -1    0    0    0    0 -0.00000000000E+00 -0.00000000000E+00 -0.82722649400E+00  0.82722649400E+00  0.00000000000E+00 0.  1.
          4    1    1    2  501    0 -0.81319817484E+00  0.28244376756E+01  0.16376229247E+02  0.16637897217E+02  0.00000000000E+00 0. -1.
         -4    1    1    2    0  501  0.81319817484E+00 -0.28244376756E+01  0.24048540380E+01  0.37976390559E+01  0.00000000000E+00 0.  1.
<mgrwt>
<rscale>  0 0.29391733E+01</rscale>
<asrwt>0</asrwt>
<pdfrwt beam="1">0</pdfrwt>
<pdfrwt beam="2">0</pdfrwt>
<totfact> 0.86196026E+11</totfact>
</mgrwt>
</event>
<event>
 4    2  0.1985873E+006  0.2483407E+01  0.7546771E-02  0.2715891E+00
         22   -1    0    0    0    0  0.00000000000E+00  0.00000000000E+00  0.82780211471E+01  0.82780211471E+01  0.00000000000E+00 0.  1.
         22   -1    0    0    0    0 -0.00000000000E+00 -0.00000000000E+00 -0.92856060985E+01  0.92856060985E+01  0.00000000000E+00 0. -1.
          4    1    1    2  501    0  0.22672348752E+01 -0.10133873524E+01  0.79183556257E+01  0.82986543319E+01  0.00000000000E+00 0.  1.
         -4    1    1    2    0  501 -0.22672348752E+01  0.10133873524E+01 -0.89259405771E+01  0.92649729137E+01  0.00000000000E+00 0. -1.
<mgrwt>
<rscale>  0 0.24834065E+01</rscale>
<asrwt>0</asrwt>
<pdfrwt beam="1">0</pdfrwt>
<pdfrwt beam="2">0</pdfrwt>
<totfact> 0.14675284E+11</totfact>
</mgrwt>
</event>
<event>
 4    2  0.1985873E+006  0.6295482E+01  0.7546771E-02  0.1994160E+00
         22   -1    0    0    0    0  0.00000000000E+00  0.00000000000E+00  0.81439241606E+01  0.81439241606E+01  0.00000000000E+00 0. -1.
         22   -1    0    0    0    0 -0.00000000000E+00 -0.00000000000E+00 -0.64716817530E+01  0.64716817530E+01  0.00000000000E+00 0.  1.
          4    1    1    2  501    0 -0.48157483925E+01 -0.40548311184E+01  0.44755149659E+01  0.77242036605E+01  0.00000000000E+00 0. -1.
         -4    1    1    2    0  501  0.48157483925E+01  0.40548311184E+01 -0.28032725583E+01  0.68914022532E+01  0.00000000000E+00 0.  1.
<mgrwt>
<rscale>  0 0.62954816E+01</rscale>
<asrwt>0</asrwt>
<pdfrwt beam="1">0</pdfrwt>
<pdfrwt beam="2">0</pdfrwt>
<totfact> 0.23084471E+11</totfact>
</mgrwt>
</event>
<event>
 4    2  0.1985873E+006  0.2038795E+01  0.7546771E-02  0.2955020E+00
         22   -1    0    0    0    0  0.00000000000E+00  0.00000000000E+00  0.11666381718E+02  0.11666381718E+02  0.00000000000E+00 0. -1.
         22   -1    0    0    0    0 -0.00000000000E+00 -0.00000000000E+00 -0.39127044940E+00  0.39127044940E+00  0.00000000000E+00 0.  1.
          4    1    1    2  501    0 -0.18848893441E+01  0.77709540739E+00  0.74400324591E+01  0.77143222712E+01  0.00000000000E+00 0. -1.
         -4    1    1    2    0  501  0.18848893441E+01 -0.77709540739E+00  0.38350788094E+01  0.43433298961E+01  0.00000000000E+00 0.  1.
<mgrwt>
<rscale>  0 0.20387950E+01</rscale>
<asrwt>0</asrwt>
<pdfrwt beam="1">0</pdfrwt>
<pdfrwt beam="2">0</pdfrwt>
<totfact> 0.38109020E+12</totfact>
</mgrwt>
</event>
<event>
 4    2  0.1985873E+006  0.2186917E+01  0.7546771E-02  0.2865037E+00
         22   -1    0    0    0    0  0.00000000000E+00  0.00000000000E+00  0.31404362945E+01  0.31404362945E+01  0.00000000000E+00 0. -1.
         22   -1    0    0    0    0 -0.00000000000E+00 -0.00000000000E+00 -0.16905053024E+01  0.16905053024E+01  0.00000000000E+00 0.  1.
          4    1    1    2  501    0 -0.35945665528E+00 -0.21571736186E+01  0.14855058616E+01  0.26437350042E+01  0.00000000000E+00 0. -1.
         -4    1    1    2    0  501  0.35945665528E+00  0.21571736186E+01 -0.35574869439E-01  0.21872065927E+01  0.00000000000E+00 0.  1.
<mgrwt>
<rscale>  0 0.21869173E+01</rscale>
<asrwt>0</asrwt>
<pdfrwt beam="1">0</pdfrwt>
<pdfrwt beam="2">0</pdfrwt>
<totfact> 0.34416829E+12</totfact>
</mgrwt>
</event>
<event>
 4    2  0.1985873E+006  0.2055256E+01  0.7546771E-02  0.2944399E+00
         22   -1    0    0    0    0  0.00000000000E+00  0.00000000000E+00  0.10700343497E+01  0.10700343497E+01  0.00000000000E+00 0. -1.
         22   -1    0    0    0    0 -0.00000000000E+00 -0.00000000000E+00 -0.45199700506E+01  0.45199700506E+01  0.00000000000E+00 0.  1.
          4    1    1    2  501    0 -0.13051811640E+01 -0.15876327693E+01 -0.73036440234E+00  0.21811712086E+01  0.00000000000E+00 0. -1.
         -4    1    1    2    0  501  0.13051811640E+01  0.15876327693E+01 -0.27195712986E+01  0.34088331917E+01  0.00000000000E+00 0.  1.
<mgrwt>
<rscale>  0 0.20552556E+01</rscale>
<asrwt>0</asrwt>
<pdfrwt beam="1">0</pdfrwt>
<pdfrwt beam="2">0</pdfrwt>
<totfact> 0.37932075E+12</totfact>
</mgrwt>
</event>
<event>
 4    2  0.1985873E+006  0.3723064E+01  0.7546771E-02  0.2333578E+00
         22   -1    0    0    0    0  0.00000000000E+00  0.00000000000E+00  0.22182089640E+02  0.22182089640E+02  0.00000000000E+00 0.  1.
         22   -1    0    0    0    0 -0.00000000000E+00 -0.00000000000E+00 -0.13211621194E+01  0.13211621194E+01  0.00000000000E+00 0. -1.
          4    1    1    2  501    0  0.32735506040E+01 -0.17734349997E+01  0.18961694004E+02  0.19323743031E+02  0.00000000000E+00 0.  1.
         -4    1    1    2    0  501 -0.32735506040E+01  0.17734349997E+01  0.18992335168E+01  0.41795087279E+01  0.00000000000E+00 0. -1.
<mgrwt>
<rscale>  0 0.37230640E+01</rscale>
<asrwt>0</asrwt>
<pdfrwt beam="1">0</pdfrwt>
<pdfrwt beam="2">0</pdfrwt>
<totfact> 0.43268404E+11</totfact>
</mgrwt>
</event>
<event>
 4    2  0.1985873E+006  0.2384439E+01  0.7546771E-02  0.2761779E+00
         22   -1    0    0    0    0  0.00000000000E+00  0.00000000000E+00  0.77291087761E+01  0.77291087761E+01  0.00000000000E+00 0.  1.
         22   -1    0    0    0    0 -0.00000000000E+00 -0.00000000000E+00 -0.16500665140E+02  0.16500665140E+02  0.00000000000E+00 0. -1.
          4    1    1    2  501    0  0.14884448812E+01  0.18628154081E+01  0.74559883708E+01  0.78279826260E+01  0.00000000000E+00 0.  1.
         -4    1    1    2    0  501 -0.14884448812E+01 -0.18628154081E+01 -0.16227544735E+02  0.16401791290E+02  0.00000000000E+00 0. -1.
<mgrwt>
<rscale>  0 0.23844390E+01</rscale>
<asrwt>0</asrwt>
<pdfrwt beam="1">0</pdfrwt>
<pdfrwt beam="2">0</pdfrwt>
<totfact> 0.78972322E+10</totfact>
</mgrwt>
</event>
<event>
 4    2  0.1985873E+006  0.2335400E+01  0.7546771E-02  0.2785867E+00
         22   -1    0    0    0    0  0.00000000000E+00  0.00000000000E+00  0.45405300951E+02  0.45405300951E+02  0.00000000000E+00 0. -1.
         22   -1    0    0    0    0 -0.00000000000E+00 -0.00000000000E+00 -0.13315844731E+00  0.13315844731E+00  0.00000000000E+00 0.  1.
          4    1    1    2  501    0  0.12537920715E-01  0.23353664968E+01  0.15511256636E+02  0.15686082248E+02  0.00000000000E+00 0.  1.
         -4    1    1    2    0  501 -0.12537920715E-01 -0.23353664968E+01  0.29760885868E+02  0.29852377150E+02  0.00000000000E+00 0. -1.
<mgrwt>
<rscale>  0 0.23354002E+01</rscale>
<asrwt>0</asrwt>
<pdfrwt beam="1">0</pdfrwt>
<pdfrwt beam="2">0</pdfrwt>
<totfact> 0.22986706E+12</totfact>
</mgrwt>
</event>
<event>
 4    2  0.1985873E+006  0.2778228E+01  0.7546771E-02  0.2597276E+00
         22   -1    0    0    0    0  0.00000000000E+00  0.00000000000E+00  0.13585475248E+02  0.13585475248E+02  0.00000000000E+00 0.  1.
         22   -1    0    0    0    0 -0.00000000000E+00 -0.00000000000E+00 -0.41751653076E+01  0.41751653076E+01  0.00000000000E+00 0. -1.
          4    1    1    2  501    0  0.23867358832E+01 -0.14219861830E+01  0.12959182993E+02  0.13253640131E+02  0.00000000000E+00 0.  1.
         -4    1    1    2    0  501 -0.23867358832E+01  0.14219861830E+01 -0.35488730527E+01  0.45070004243E+01  0.00000000000E+00 0. -1.
<mgrwt>
<rscale>  0 0.27782284E+01</rscale>
<asrwt>0</asrwt>
<pdfrwt beam="1">0</pdfrwt>
<pdfrwt beam="2">0</pdfrwt>
<totfact> 0.20858751E+11</totfact>
</mgrwt>
</event>
<event>
 4    2  0.1985873E+006  0.2822606E+01  0.7546771E-02  0.2581396E+00
         22   -1    0    0    0    0  0.00000000000E+00  0.00000000000E+00  0.52750482428E+01  0.52750482428E+01  0.00000000000E+00 0.  1.
         22   -1    0    0    0    0 -0.00000000000E+00 -0.00000000000E+00 -0.15106951920E+01  0.15106951920E+01  0.00000000000E+00 0. -1.
          4    1    1    2  501    0 -0.16443183586E+00 -0.28178127977E+01  0.19343340613E+01  0.34218058175E+01  0.00000000000E+00 0.  1.
         -4    1    1    2    0  501  0.16443183586E+00  0.28178127977E+01  0.18300189895E+01  0.33639376174E+01  0.00000000000E+00 0. -1.
<mgrwt>
<rscale>  0 0.28226064E+01</rscale>
<asrwt>0</asrwt>
<pdfrwt beam="1">0</pdfrwt>
<pdfrwt beam="2">0</pdfrwt>
<totfact> 0.21274845E+12</totfact>
</mgrwt>
</event>
<event>
 4    2  0.1985873E+006  0.2859999E+01  0.7546771E-02  0.2568363E+00
         22   -1    0    0    0    0  0.00000000000E+00  0.00000000000E+00  0.26256539127E+01  0.26256539127E+01  0.00000000000E+00 0.  1.
         22   -1    0    0    0    0 -0.00000000000E+00 -0.00000000000E+00 -0.38502130119E+01  0.38502130119E+01  0.00000000000E+00 0. -1.
          4    1    1    2  501    0  0.49932249335E-01  0.28595629170E+01  0.80239152858E+00  0.29704251331E+01  0.00000000000E+00 0.  1.
         -4    1    1    2    0  501 -0.49932249335E-01 -0.28595629170E+01 -0.20269506278E+01  0.35054417915E+01  0.00000000000E+00 0. -1.
<mgrwt>
<rscale>  0 0.28599988E+01</rscale>
<asrwt>0</asrwt>
<pdfrwt beam="1">0</pdfrwt>
<pdfrwt beam="2">0</pdfrwt>
<totfact> 0.16272200E+12</totfact>
</mgrwt>
</event>
<event>
 4    2  0.1985873E+006  0.2668250E+01  0.7546771E-02  0.2638701E+00
         22   -1    0    0    0    0  0.00000000000E+00  0.00000000000E+00  0.15485116534E+01  0.15485116534E+01  0.00000000000E+00 0.  1.
         22   -1    0    0    0    0 -0.00000000000E+00 -0.00000000000E+00 -0.44401930339E+02  0.44401930339E+02  0.00000000000E+00 0. -1.
          4    1    1    2  501    0 -0.51814538073E+00  0.26174574112E+01  0.32650842051E+00  0.26881528386E+01  0.00000000000E+00 0.  1.
         -4    1    1    2    0  501  0.51814538073E+00 -0.26174574112E+01 -0.43179927106E+02  0.43262289154E+02  0.00000000000E+00 0. -1.
<mgrwt>
<rscale>  0 0.26682500E+01</rscale>
<asrwt>0</asrwt>
<pdfrwt beam="1">0</pdfrwt>
<pdfrwt beam="2">0</pdfrwt>
<totfact> 0.14842097E+11</totfact>
</mgrwt>
</event>
<event>
 4    2  0.1985873E+006  0.2631751E+01  0.7546771E-02  0.2653149E+00
         22   -1    0    0    0    0  0.00000000000E+00  0.00000000000E+00  0.37134423788E+01  0.37134423788E+01  0.00000000000E+00 0.  1.
         22   -1    0    0    0    0 -0.00000000000E+00 -0.00000000000E+00 -0.28857802954E+01  0.28857802954E+01  0.00000000000E+00 0. -1.
          4    1    1    2  501    0 -0.12641147188E+01 -0.23082732647E+01  0.23761349770E+01  0.35457198022E+01  0.00000000000E+00 0.  1.
         -4    1    1    2    0  501  0.12641147188E+01  0.23082732647E+01 -0.15484728935E+01  0.30535028719E+01  0.00000000000E+00 0. -1.
<mgrwt>
<rscale>  0 0.26317507E+01</rscale>
<asrwt>0</asrwt>
<pdfrwt beam="1">0</pdfrwt>
<pdfrwt beam="2">0</pdfrwt>
<totfact> 0.15207988E+12</totfact>
</mgrwt>
</event>
<event>
 4    2  0.1985873E+006  0.5623500E+01  0.7546771E-02  0.2055194E+00
         22   -1    0    0    0    0  0.00000000000E+00  0.00000000000E+00  0.22858866997E+01  0.22858866997E+01  0.00000000000E+00 0. -1.
         22   -1    0    0    0    0 -0.00000000000E+00 -0.00000000000E+00 -0.14560877890E+02  0.14560877890E+02  0.00000000000E+00 0.  1.
          4    1    1    2  501    0 -0.53717974801E+01  0.16635921865E+01 -0.80190644838E+01  0.97943423631E+01  0.00000000000E+00 0.  1.
         -4    1    1    2    0  501  0.53717974801E+01 -0.16635921865E+01 -0.42559267066E+01  0.70524222266E+01  0.00000000000E+00 0. -1.
<mgrwt>
<rscale>  0 0.56234995E+01</rscale>
<asrwt>0</asrwt>
<pdfrwt beam="1">0</pdfrwt>
<pdfrwt beam="2">0</pdfrwt>
<totfact> 0.38745106E+11</totfact>
</mgrwt>
</event>
<event>
 4    2  0.1985873E+006  0.2065102E+01  0.7546771E-02  0.2938125E+00
         22   -1    0    0    0    0  0.00000000000E+00  0.00000000000E+00  0.28683131840E+01  0.28683131840E+01  0.00000000000E+00 0. -1.
         22   -1    0    0    0    0 -0.00000000000E+00 -0.00000000000E+00 -0.71163798088E+01  0.71163798088E+01  0.00000000000E+00 0.  1.
          4    1    1    2  501    0  0.76375498142E+00 -0.19186783082E+01  0.23162697407E+01  0.31031844343E+01  0.00000000000E+00 0. -1.
         -4    1    1    2    0  501 -0.76375498142E+00  0.19186783082E+01 -0.65643363654E+01  0.68815085585E+01  0.00000000000E+00 0.  1.
<mgrwt>
<rscale>  0 0.20651024E+01</rscale>
<asrwt>0</asrwt>
<pdfrwt beam="1">0</pdfrwt>
<pdfrwt beam="2">0</pdfrwt>
<totfact> 0.70846903E+11</totfact>
</mgrwt>
</event>
<event>
 4    2  0.1985873E+006  0.2015517E+01  0.7546771E-02  0.2970330E+00
         22   -1    0    0    0    0  0.00000000000E+00  0.00000000000E+00  0.43135680829E+01  0.43135680829E+01  0.00000000000E+00 0.  1.
         22   -1    0    0    0    0 -0.00000000000E+00 -0.00000000000E+00 -0.12162772242E+01  0.12162772242E+01  0.00000000000E+00 0. -1.
          4    1    1    2  501    0  0.20131847261E+00  0.20054373781E+01  0.28622311152E+01  0.35006678166E+01  0.00000000000E+00 0.  1.
         -4    1    1    2    0  501 -0.20131847261E+00 -0.20054373781E+01  0.23505974349E+00  0.20291774905E+01  0.00000000000E+00 0. -1.
<mgrwt>
<rscale>  0 0.20155169E+01</rscale>
<asrwt>0</asrwt>
<pdfrwt beam="1">0</pdfrwt>
<pdfrwt beam="2">0</pdfrwt>
<totfact> 0.34615251E+12</totfact>
</mgrwt>
</event>
<event>
 4    2  0.1985873E+006  0.4447363E+01  0.7546771E-02  0.2199151E+00
         22   -1    0    0    0    0  0.00000000000E+00  0.00000000000E+00  0.20881587978E+01  0.20881587978E+01  0.00000000000E+00 0.  1.
         22   -1    0    0    0    0 -0.00000000000E+00 -0.00000000000E+00 -0.10316011273E+02  0.10316011273E+02  0.00000000000E+00 0. -1.
          4    1    1    2  501    0  0.14663530319E+01 -0.41986725129E+01 -0.58879347348E+01  0.73788086793E+01  0.00000000000E+00 0. -1.
         -4    1    1    2    0  501 -0.14663530319E+01  0.41986725129E+01 -0.23399177407E+01  0.50253613918E+01  0.00000000000E+00 0.  1.
<mgrwt>
<rscale>  0 0.44473635E+01</rscale>
<asrwt>0</asrwt>
<pdfrwt beam="1">0</pdfrwt>
<pdfrwt beam="2">0</pdfrwt>
<totfact> 0.65532030E+11</totfact>
</mgrwt>
</event>
<event>
 4    2  0.1985873E+006  0.2291665E+01  0.7546771E-02  0.2808172E+00
         22   -1    0    0    0    0  0.00000000000E+00  0.00000000000E+00  0.75455790977E+01  0.75455790977E+01  0.00000000000E+00 0. -1.
         22   -1    0    0    0    0 -0.00000000000E+00 -0.00000000000E+00 -0.11330253168E+01  0.11330253168E+01  0.00000000000E+00 0.  1.
          4    1    1    2  501    0  0.22665107502E+01 -0.33861110619E+00  0.59012412877E+01  0.63305905883E+01  0.00000000000E+00 0.  1.
         -4    1    1    2    0  501 -0.22665107502E+01  0.33861110619E+00  0.51131249332E+00  0.23480138262E+01  0.00000000000E+00 0. -1.
<mgrwt>
<rscale>  0 0.22916650E+01</rscale>
<asrwt>0</asrwt>
<pdfrwt beam="1">0</pdfrwt>
<pdfrwt beam="2">0</pdfrwt>
<totfact> 0.19313716E+12</totfact>
</mgrwt>
</event>
<event>
 4    2  0.1985873E+006  0.2464371E+01  0.7546771E-02  0.2724449E+00
         22   -1    0    0    0    0  0.00000000000E+00  0.00000000000E+00  0.89282542929E+00  0.89282542929E+00  0.00000000000E+00 0.  1.
         22   -1    0    0    0    0 -0.00000000000E+00 -0.00000000000E+00 -0.68612784882E+01  0.68612784882E+01  0.00000000000E+00 0. -1.
          4    1    1    2  501    0 -0.16627574001E+00 -0.24587548100E+01 -0.26242806537E+01  0.35999960815E+01  0.00000000000E+00 0.  1.
         -4    1    1    2    0  501  0.16627574001E+00  0.24587548100E+01 -0.33441724051E+01  0.41541078359E+01  0.00000000000E+00 0. -1.
<mgrwt>
<rscale>  0 0.24643707E+01</rscale>
<asrwt>0</asrwt>
<pdfrwt beam="1">0</pdfrwt>
<pdfrwt beam="2">0</pdfrwt>
<totfact> 0.28410589E+12</totfact>
</mgrwt>
</event>
<event>
 4    2  0.1985873E+006  0.2281948E+01  0.7546771E-02  0.2813237E+00
         22   -1    0    0    0    0  0.00000000000E+00  0.00000000000E+00  0.20942791178E+02  0.20942791178E+02  0.00000000000E+00 0. -1.
         22   -1    0    0    0    0 -0.00000000000E+00 -0.00000000000E+00 -0.34648396057E+00  0.34648396057E+00  0.00000000000E+00 0.  1.
          4    1    1    2  501    0  0.22141940017E+01  0.55193519066E+00  0.15954665449E+02  0.16117029414E+02  0.00000000000E+00 0. -1.
         -4    1    1    2    0  501 -0.22141940017E+01 -0.55193519066E+00  0.46416417684E+01  0.51722457249E+01  0.00000000000E+00 0.  1.
<mgrwt>
<rscale>  0 0.22819482E+01</rscale>
<asrwt>0</asrwt>
<pdfrwt beam="1">0</pdfrwt>
<pdfrwt beam="2">0</pdfrwt>
<totfact> 0.21235434E+12</totfact>
</mgrwt>
</event>
<event>
 4    2  0.1985873E+006  0.2444744E+01  0.7546771E-02  0.2733403E+00
         22   -1    0    0    0    0  0.00000000000E+00  0.00000000000E+00  0.23457680140E+01  0.23457680140E+01  0.00000000000E+00 0.  1.
         22   -1    0    0    0    0 -0.00000000000E+00 -0.00000000000E+00 -0.47566986328E+01  0.47566986328E+01  0.00000000000E+00 0. -1.
          4    1    1    2  501    0  0.21314124586E+01  0.11974364646E+01  0.12144760123E+01  0.27297848157E+01  0.00000000000E+00 0.  1.
         -4    1    1    2    0  501 -0.21314124586E+01 -0.11974364646E+01 -0.36254066311E+01  0.43726818311E+01  0.00000000000E+00 0. -1.
<mgrwt>
<rscale>  0 0.24447440E+01</rscale>
<asrwt>0</asrwt>
<pdfrwt beam="1">0</pdfrwt>
<pdfrwt beam="2">0</pdfrwt>
<totfact> 0.14458401E+12</totfact>
</mgrwt>
</event>
<event>
 4    2  0.1985873E+006  0.3180253E+01  0.7546771E-02  0.2468115E+00
         22   -1    0    0    0    0  0.00000000000E+00  0.00000000000E+00  0.37182788482E+01  0.37182788482E+01  0.00000000000E+00 0. -1.
         22   -1    0    0    0    0 -0.00000000000E+00 -0.00000000000E+00 -0.73276018079E+01  0.73276018079E+01  0.00000000000E+00 0.  1.
          4    1    1    2  501    0  0.27662027278E+01 -0.15691178049E+01  0.25748252818E+01  0.40919107332E+01  0.00000000000E+00 0. -1.
         -4    1    1    2    0  501 -0.27662027278E+01  0.15691178049E+01 -0.61841482414E+01  0.69539699229E+01  0.00000000000E+00 0.  1.
<mgrwt>
<rscale>  0 0.31802529E+01</rscale>
<asrwt>0</asrwt>
<pdfrwt beam="1">0</pdfrwt>
<pdfrwt beam="2">0</pdfrwt>
<totfact> 0.50490122E+11</totfact>
</mgrwt>
</event>
<event>
 4    2  0.1985873E+006  0.2370422E+01  0.7546771E-02  0.2768568E+00
         22   -1    0    0    0    0  0.00000000000E+00  0.00000000000E+00  0.13228008088E+00  0.13228008088E+00  0.00000000000E+00 0. -1.
         22   -1    0    0    0    0 -0.00000000000E+00 -0.00000000000E+00 -0.52498151896E+02  0.52498151896E+02  0.00000000000E+00 0.  1.
          4    1    1    2  501    0  0.19910970258E+01 -0.12862481587E+01 -0.14685868244E+02  0.14875941240E+02  0.00000000000E+00 0. -1.
         -4    1    1    2    0  501 -0.19910970258E+01  0.12862481587E+01 -0.37680003571E+02  0.37754490737E+02  0.00000000000E+00 0.  1.
<mgrwt>
<rscale>  0 0.23704223E+01</rscale>
<asrwt>0</asrwt>
<pdfrwt beam="1">0</pdfrwt>
<pdfrwt beam="2">0</pdfrwt>
<totfact> 0.19128291E+12</totfact>
</mgrwt>
</event>
<event>
 4    2  0.1985873E+006  0.2649451E+01  0.7546771E-02  0.2646097E+00
         22   -1    0    0    0    0  0.00000000000E+00  0.00000000000E+00  0.26842599960E+01  0.26842599960E+01  0.00000000000E+00 0.  1.
         22   -1    0    0    0    0 -0.00000000000E+00 -0.00000000000E+00 -0.26570003063E+01  0.26570003063E+01  0.00000000000E+00 0. -1.
          4    1    1    2  501    0  0.25311051469E+01 -0.78300497719E+00  0.34902886478E+00  0.26723418957E+01  0.00000000000E+00 0.  1.
         -4    1    1    2    0  501 -0.25311051469E+01  0.78300497719E+00 -0.32176917516E+00  0.26689184066E+01  0.00000000000E+00 0. -1.
<mgrwt>
<rscale>  0 0.26494509E+01</rscale>
<asrwt>0</asrwt>
<pdfrwt beam="1">0</pdfrwt>
<pdfrwt beam="2">0</pdfrwt>
<totfact> 0.24477517E+12</totfact>
</mgrwt>
</event>
<event>
 4    2  0.1985873E+006  0.2853953E+01  0.7546771E-02  0.2570449E+00
         22   -1    0    0    0    0  0.00000000000E+00  0.00000000000E+00  0.12323741152E+01  0.12323741152E+01  0.00000000000E+00 0.  1.
         22   -1    0    0    0    0 -0.00000000000E+00 -0.00000000000E+00 -0.40400171140E+02  0.40400171140E+02  0.00000000000E+00 0. -1.
          4    1    1    2  501    0 -0.27616990998E+01 -0.71976819880E+00 -0.54632967390E+00  0.29057743014E+01  0.00000000000E+00 0.  1.
         -4    1    1    2    0  501  0.27616990998E+01  0.71976819880E+00 -0.38621467351E+02  0.38726770954E+02  0.00000000000E+00 0. -1.
<mgrwt>
<rscale>  0 0.28539531E+01</rscale>
<asrwt>0</asrwt>
<pdfrwt beam="1">0</pdfrwt>
<pdfrwt beam="2">0</pdfrwt>
<totfact> 0.21820984E+11</totfact>
</mgrwt>
</event>
<event>
 4    2  0.1985873E+006  0.2644937E+01  0.7546771E-02  0.2647887E+00
         22   -1    0    0    0    0  0.00000000000E+00  0.00000000000E+00  0.12410125200E+02  0.12410125200E+02  0.00000000000E+00 0. -1.
         22   -1    0    0    0    0 -0.00000000000E+00 -0.00000000000E+00 -0.71992612455E+00  0.71992612455E+00  0.00000000000E+00 0.  1.
          4    1    1    2  501    0 -0.19728749106E+01  0.17616632188E+01  0.27869584654E+01  0.38422428602E+01  0.00000000000E+00 0.  1.
         -4    1    1    2    0  501  0.19728749106E+01 -0.17616632188E+01  0.89032406103E+01  0.92878084645E+01  0.00000000000E+00 0. -1.
<mgrwt>
<rscale>  0 0.26449372E+01</rscale>
<asrwt>0</asrwt>
<pdfrwt beam="1">0</pdfrwt>
<pdfrwt beam="2">0</pdfrwt>
<totfact> 0.17742671E+12</totfact>
</mgrwt>
</event>
<event>
 4    2  0.1985873E+006  0.3134354E+01  0.7546771E-02  0.2481356E+00
         22   -1    0    0    0    0  0.00000000000E+00  0.00000000000E+00  0.61919665757E+02  0.61919665757E+02  0.00000000000E+00 0.  1.
         22   -1    0    0    0    0 -0.00000000000E+00 -0.00000000000E+00 -0.67101630583E+00  0.67101630583E+00  0.00000000000E+00 0. -1.
          4    1    1    2  501    0  0.20854000858E+01 -0.23399313480E+01  0.57970664638E+02  0.58055336799E+02  0.00000000000E+00 0.  1.
         -4    1    1    2    0  501 -0.20854000858E+01  0.23399313480E+01  0.32779848135E+01  0.45353452645E+01  0.00000000000E+00 0. -1.
<mgrwt>
<rscale>  0 0.31343536E+01</rscale>
<asrwt>0</asrwt>
<pdfrwt beam="1">0</pdfrwt>
<pdfrwt beam="2">0</pdfrwt>
<totfact> 0.24843423E+11</totfact>
</mgrwt>
</event>
<event>
 4    2  0.1985873E+006  0.2295298E+01  0.7546771E-02  0.2806288E+00
         22   -1    0    0    0    0  0.00000000000E+00  0.00000000000E+00  0.49251176170E+00  0.49251176170E+00  0.00000000000E+00 0. -1.
         22   -1    0    0    0    0 -0.00000000000E+00 -0.00000000000E+00 -0.11081989027E+02  0.11081989027E+02  0.00000000000E+00 0.  1.
          4    1    1    2  501    0  0.16147543649E+01 -0.16312446606E+01 -0.42160497693E+01  0.48003610759E+01  0.00000000000E+00 0.  1.
         -4    1    1    2    0  501 -0.16147543649E+01  0.16312446606E+01 -0.63734274956E+01  0.67741397124E+01  0.00000000000E+00 0. -1.
<mgrwt>
<rscale>  0 0.22952975E+01</rscale>
<asrwt>0</asrwt>
<pdfrwt beam="1">0</pdfrwt>
<pdfrwt beam="2">0</pdfrwt>
<totfact> 0.31301696E+12</totfact>
</mgrwt>
</event>
<event>
 4    2  0.1985873E+006  0.3200879E+01  0.7546771E-02  0.2462274E+00
         22   -1    0    0    0    0  0.00000000000E+00  0.00000000000E+00  0.37382064343E+01  0.37382064343E+01  0.00000000000E+00 0. -1.
         22   -1    0    0    0    0 -0.00000000000E+00 -0.00000000000E+00 -0.38584095845E+01  0.38584095845E+01  0.00000000000E+00 0.  1.
          4    1    1    2  501    0 -0.44222249099E+00 -0.31701839066E+01  0.19841467238E+01  0.37659613586E+01  0.00000000000E+00 0. -1.
         -4    1    1    2    0  501  0.44222249099E+00  0.31701839066E+01 -0.21043498741E+01  0.38306546602E+01  0.00000000000E+00 0.  1.
<mgrwt>
<rscale>  0 0.32008791E+01</rscale>
<asrwt>0</asrwt>
<pdfrwt beam="1">0</pdfrwt>
<pdfrwt beam="2">0</pdfrwt>
<totfact> 0.10738300E+12</totfact>
</mgrwt>
</event>
<event>
 4    2  0.1985873E+006  0.2803261E+01  0.7546771E-02  0.2588262E+00
         22   -1    0    0    0    0  0.00000000000E+00  0.00000000000E+00  0.17328565641E+00  0.17328565641E+00  0.00000000000E+00 0. -1.
         22   -1    0    0    0    0 -0.00000000000E+00 -0.00000000000E+00 -0.48564832687E+02  0.48564832687E+02  0.00000000000E+00 0.  1.
          4    1    1    2  501    0  0.38834978604E+00  0.27762305438E+01 -0.30466932009E+02  0.30595624158E+02  0.00000000000E+00 0.  1.
         -4    1    1    2    0  501 -0.38834978604E+00 -0.27762305438E+01 -0.17924615021E+02  0.18142494185E+02  0.00000000000E+00 0. -1.
<mgrwt>
<rscale>  0 0.28032609E+01</rscale>
<asrwt>0</asrwt>
<pdfrwt beam="1">0</pdfrwt>
<pdfrwt beam="2">0</pdfrwt>
<totfact> 0.15701324E+12</totfact>
</mgrwt>
</event>
<event>
 4    2  0.1985873E+006  0.5566944E+01  0.7546771E-02  0.2060850E+00
         22   -1    0    0    0    0  0.00000000000E+00  0.00000000000E+00  0.79266626697E+01  0.79266626697E+01  0.00000000000E+00 0. -1.
         22   -1    0    0    0    0 -0.00000000000E+00 -0.00000000000E+00 -0.46001170158E+01  0.46001170158E+01  0.00000000000E+00 0.  1.
          4    1    1    2  501    0  0.37009570135E+00  0.55546277367E+01 -0.76323256003E+00  0.56190198489E+01  0.00000000000E+00 0.  1.
         -4    1    1    2    0  501 -0.37009570135E+00 -0.55546277367E+01  0.40897782139E+01  0.69077598366E+01  0.00000000000E+00 0. -1.
<mgrwt>
<rscale>  0 0.55669435E+01</rscale>
<asrwt>0</asrwt>
<pdfrwt beam="1">0</pdfrwt>
<pdfrwt beam="2">0</pdfrwt>
<totfact> 0.35761127E+11</totfact>
</mgrwt>
</event>
<event>
 4    2  0.1985873E+006  0.4170174E+01  0.7546771E-02  0.2245899E+00
         22   -1    0    0    0    0  0.00000000000E+00  0.00000000000E+00  0.75598154973E+00  0.75598154973E+00  0.00000000000E+00 0. -1.
         22   -1    0    0    0    0 -0.00000000000E+00 -0.00000000000E+00 -0.35402906607E+02  0.35402906607E+02  0.00000000000E+00 0.  1.
          4    1    1    2  501    0  0.13884168154E+01  0.39322570942E+01 -0.66239705980E+01  0.78273452455E+01  0.00000000000E+00 0.  1.
         -4    1    1    2    0  501 -0.13884168154E+01 -0.39322570942E+01 -0.28022954459E+02  0.28331542911E+02  0.00000000000E+00 0. -1.
<mgrwt>
<rscale>  0 0.41701735E+01</rscale>
<asrwt>0</asrwt>
<pdfrwt beam="1">0</pdfrwt>
<pdfrwt beam="2">0</pdfrwt>
<totfact> 0.45211257E+11</totfact>
</mgrwt>
</event>
<event>
 4    2  0.1985873E+006  0.2944392E+01  0.7546771E-02  0.2540050E+00
         22   -1    0    0    0    0  0.00000000000E+00  0.00000000000E+00  0.14128997030E+02  0.14128997030E+02  0.00000000000E+00 0.  1.
         22   -1    0    0    0    0 -0.00000000000E+00 -0.00000000000E+00 -0.62916579041E+00  0.62916579041E+00  0.00000000000E+00 0. -1.
          4    1    1    2  501    0 -0.20081765157E+01  0.21532928908E+01  0.79108650859E+01  0.84410443429E+01  0.00000000000E+00 0.  1.
         -4    1    1    2    0  501  0.20081765157E+01 -0.21532928908E+01  0.55889661539E+01  0.63171184777E+01  0.00000000000E+00 0. -1.
<mgrwt>
<rscale>  0 0.29443918E+01</rscale>
<asrwt>0</asrwt>
<pdfrwt beam="1">0</pdfrwt>
<pdfrwt beam="2">0</pdfrwt>
<totfact> 0.17637942E+12</totfact>
</mgrwt>
</event>
<event>
 4    2  0.1985873E+006  0.2008303E+01  0.7546771E-02  0.2975145E+00
         22   -1    0    0    0    0  0.00000000000E+00  0.00000000000E+00  0.58919697097E-01  0.58919697097E-01  0.00000000000E+00 0. -1.
         22   -1    0    0    0    0 -0.00000000000E+00 -0.00000000000E+00 -0.68817177997E+02  0.68817177997E+02  0.00000000000E+00 0.  1.
          4    1    1    2  501    0  0.11546465231E+01  0.16431894555E+01 -0.31876832469E+02  0.31940033320E+02  0.00000000000E+00 0. -1.
         -4    1    1    2    0  501 -0.11546465231E+01 -0.16431894555E+01 -0.36881425830E+02  0.36936064374E+02  0.00000000000E+00 0.  1.
<mgrwt>
<rscale>  0 0.20083028E+01</rscale>
<asrwt>0</asrwt>
<pdfrwt beam="1">0</pdfrwt>
<pdfrwt beam="2">0</pdfrwt>
<totfact> 0.32552353E+12</totfact>
</mgrwt>
</event>
<event>
 4    2  0.1985873E+006  0.3025636E+01  0.7546771E-02  0.2514140E+00
         22   -1    0    0    0    0  0.00000000000E+00  0.00000000000E+00  0.50996905720E+01  0.50996905720E+01  0.00000000000E+00 0. -1.
         22   -1    0    0    0    0 -0.00000000000E+00 -0.00000000000E+00 -0.33510816173E+01  0.33510816173E+01  0.00000000000E+00 0.  1.
          4    1    1    2  501    0  0.88519890418E+00  0.28932503316E+01  0.37535293056E+01  0.48211468375E+01  0.00000000000E+00 0. -1.
         -4    1    1    2    0  501 -0.88519890418E+00 -0.28932503316E+01 -0.20049203508E+01  0.36296253518E+01  0.00000000000E+00 0.  1.
<mgrwt>
<rscale>  0 0.30256362E+01</rscale>
<asrwt>0</asrwt>
<pdfrwt beam="1">0</pdfrwt>
<pdfrwt beam="2">0</pdfrwt>
<totfact> 0.87837142E+11</totfact>
</mgrwt>
</event>
<event>
 4    2  0.1985873E+006  0.3544958E+01  0.7546771E-02  0.2373747E+00
         22   -1    0    0    0    0  0.00000000000E+00  0.00000000000E+00  0.66678388564E+01  0.66678388564E+01  0.00000000000E+00 0.  1.
         22   -1    0    0    0    0 -0.00000000000E+00 -0.00000000000E+00 -0.20357938502E+01  0.20357938502E+01  0.00000000000E+00 0. -1.
          4    1    1    2  501    0  0.29435684041E+01 -0.19753812421E+01  0.11303647115E+01  0.37208131346E+01  0.00000000000E+00 0. -1.
         -4    1    1    2    0  501 -0.29435684041E+01  0.19753812421E+01  0.35016802947E+01  0.49828195721E+01  0.00000000000E+00 0.  1.
<mgrwt>
<rscale>  0 0.35449578E+01</rscale>
<asrwt>0</asrwt>
<pdfrwt beam="1">0</pdfrwt>
<pdfrwt beam="2">0</pdfrwt>
<totfact> 0.11408603E+12</totfact>
</mgrwt>
</event>
<event>
 4    2  0.1985873E+006  0.3126756E+01  0.7546771E-02  0.2483580E+00
         22   -1    0    0    0    0  0.00000000000E+00  0.00000000000E+00  0.16630459286E+02  0.16630459286E+02  0.00000000000E+00 0. -1.
         22   -1    0    0    0    0 -0.00000000000E+00 -0.00000000000E+00 -0.59445828098E+00  0.59445828098E+00  0.00000000000E+00 0.  1.
          4    1    1    2  501    0 -0.55900275052E+00 -0.30763812088E+01  0.71115608453E+01  0.77685843674E+01  0.00000000000E+00 0.  1.
         -4    1    1    2    0  501  0.55900275052E+00  0.30763812088E+01  0.89244401594E+01  0.94563331993E+01  0.00000000000E+00 0. -1.
<mgrwt>
<rscale>  0 0.31267564E+01</rscale>
<asrwt>0</asrwt>
<pdfrwt beam="1">0</pdfrwt>
<pdfrwt beam="2">0</pdfrwt>
<totfact> 0.15387251E+12</totfact>
</mgrwt>
</event>
<event>
 4    2  0.1985873E+006  0.2033003E+01  0.7546771E-02  0.2958798E+00
         22   -1    0    0    0    0  0.00000000000E+00  0.00000000000E+00  0.19802344939E+01  0.19802344939E+01  0.00000000000E+00 0. -1.
         22   -1    0    0    0    0 -0.00000000000E+00 -0.00000000000E+00 -0.31640954868E+01  0.31640954868E+01  0.00000000000E+00 0.  1.
          4    1    1    2  501    0 -0.17319095046E+01  0.10647021229E+01  0.90867081183E+00  0.22268326805E+01  0.00000000000E+00 0. -1.
         -4    1    1    2    0  501  0.17319095046E+01 -0.10647021229E+01 -0.20925318048E+01  0.29174973002E+01  0.00000000000E+00 0.  1.
<mgrwt>
<rscale>  0 0.20330030E+01</rscale>
<asrwt>0</asrwt>
<pdfrwt beam="1">0</pdfrwt>
<pdfrwt beam="2">0</pdfrwt>
<totfact> 0.28416587E+12</totfact>
</mgrwt>
</event>
<event>
 4    2  0.1985873E+006  0.2344065E+01  0.7546771E-02  0.2781542E+00
         22   -1    0    0    0    0  0.00000000000E+00  0.00000000000E+00  0.93047027284E+00  0.93047027284E+00  0.00000000000E+00 0. -1.
         22   -1    0    0    0    0 -0.00000000000E+00 -0.00000000000E+00 -0.69265000908E+01  0.69265000908E+01  0.00000000000E+00 0.  1.
          4    1    1    2  501    0  0.95330248511E-02  0.23440453319E+01 -0.14895373170E+01  0.27772937934E+01  0.00000000000E+00 0. -1.
         -4    1    1    2    0  501 -0.95330248511E-02 -0.23440453319E+01 -0.45064925010E+01  0.50796765703E+01  0.00000000000E+00 0.  1.
<mgrwt>
<rscale>  0 0.23440647E+01</rscale>
<asrwt>0</asrwt>
<pdfrwt beam="1">0</pdfrwt>
<pdfrwt beam="2">0</pdfrwt>
<totfact> 0.26798675E+12</totfact>
</mgrwt>
</event>
<event>
 4    2  0.1985873E+006  0.2041405E+01  0.7546771E-02  0.2953325E+00
         22   -1    0    0    0    0  0.00000000000E+00  0.00000000000E+00  0.15652685533E+02  0.15652685533E+02  0.00000000000E+00 0.  1.
         22   -1    0    0    0    0 -0.00000000000E+00 -0.00000000000E+00 -0.27652165521E+00  0.27652165521E+00  0.00000000000E+00 0. -1.
          4    1    1    2  501    0  0.39325026078E-01 -0.20410259625E+01  0.92240485717E+01  0.94472432746E+01  0.00000000000E+00 0.  1.
         -4    1    1    2    0  501 -0.39325026078E-01  0.20410259625E+01  0.61521153057E+01  0.64819639131E+01  0.00000000000E+00 0. -1.
<mgrwt>
<rscale>  0 0.20414048E+01</rscale>
<asrwt>0</asrwt>
<pdfrwt beam="1">0</pdfrwt>
<pdfrwt beam="2">0</pdfrwt>
<totfact> 0.39250996E+12</totfact>
</mgrwt>
</event>
<event>
 4    2  0.1985873E+006  0.3429351E+01  0.7546771E-02  0.2401752E+00
         22   -1    0    0    0    0  0.00000000000E+00  0.00000000000E+00  0.18298279496E+02  0.18298279496E+02  0.00000000000E+00 0.  1.
         22   -1    0    0    0    0 -0.00000000000E+00 -0.00000000000E+00 -0.64955956331E+00  0.64955956331E+00  0.00000000000E+00 0. -1.
          4    1    1    2  501    0  0.73191996228E-01  0.34285697962E+01  0.97973753787E+01  0.10380222167E+02  0.00000000000E+00 0.  1.
         -4    1    1    2    0  501 -0.73191996228E-01 -0.34285697962E+01  0.78513445543E+01  0.85676168931E+01  0.00000000000E+00 0. -1.
<mgrwt>
<rscale>  0 0.34293509E+01</rscale>
<asrwt>0</asrwt>
<pdfrwt beam="1">0</pdfrwt>
<pdfrwt beam="2">0</pdfrwt>
<totfact> 0.12362962E+12</totfact>
</mgrwt>
</event>
<event>
 4    2  0.1985873E+006  0.3067673E+01  0.7546771E-02  0.2501218E+00
         22   -1    0    0    0    0  0.00000000000E+00  0.00000000000E+00  0.19898443268E+02  0.19898443268E+02  0.00000000000E+00 0.  1.
         22   -1    0    0    0    0 -0.00000000000E+00 -0.00000000000E+00 -0.63302250329E+00  0.63302250329E+00  0.00000000000E+00 0. -1.
          4    1    1    2  501    0  0.24945888671E+01  0.17853971967E+01  0.14795242279E+02  0.15109924251E+02  0.00000000000E+00 0.  1.
         -4    1    1    2    0  501 -0.24945888671E+01 -0.17853971967E+01  0.44701784855E+01  0.54215415204E+01  0.00000000000E+00 0. -1.
<mgrwt>
<rscale>  0 0.30676729E+01</rscale>
<asrwt>0</asrwt>
<pdfrwt beam="1">0</pdfrwt>
<pdfrwt beam="2">0</pdfrwt>
<totfact> 0.11468797E+12</totfact>
</mgrwt>
</event>
<event>
 4    2  0.1985873E+006  0.2399157E+01  0.7546771E-02  0.2754730E+00
         22   -1    0    0    0    0  0.00000000000E+00  0.00000000000E+00  0.16209406350E+00  0.16209406350E+00  0.00000000000E+00 0.  1.
         22   -1    0    0    0    0 -0.00000000000E+00 -0.00000000000E+00 -0.43325817318E+02  0.43325817318E+02  0.00000000000E+00 0. -1.
          4    1    1    2  501    0  0.16815752428E+01 -0.17112150392E+01 -0.12346503496E+02  0.12577444128E+02  0.00000000000E+00 0.  1.
         -4    1    1    2    0  501 -0.16815752428E+01  0.17112150392E+01 -0.30817219758E+02  0.30910467254E+02  0.00000000000E+00 0. -1.
<mgrwt>
<rscale>  0 0.23991566E+01</rscale>
<asrwt>0</asrwt>
<pdfrwt beam="1">0</pdfrwt>
<pdfrwt beam="2">0</pdfrwt>
<totfact> 0.19641184E+12</totfact>
</mgrwt>
</event>
<event>
 4    2  0.1985873E+006  0.2120688E+01  0.7546771E-02  0.2903767E+00
         22   -1    0    0    0    0  0.00000000000E+00  0.00000000000E+00  0.41170374952E+01  0.41170374952E+01  0.00000000000E+00 0. -1.
         22   -1    0    0    0    0 -0.00000000000E+00 -0.00000000000E+00 -0.49875214300E+01  0.49875214300E+01  0.00000000000E+00 0.  1.
          4    1    1    2  501    0 -0.20771361409E+01  0.42757893962E+00  0.35877469470E+01  0.41676427934E+01  0.00000000000E+00 0. -1.
         -4    1    1    2    0  501  0.20771361409E+01 -0.42757893962E+00 -0.44582308818E+01  0.49369161318E+01  0.00000000000E+00 0.  1.
<mgrwt>
<rscale>  0 0.21206882E+01</rscale>
<asrwt>0</asrwt>
<pdfrwt beam="1">0</pdfrwt>
<pdfrwt beam="2">0</pdfrwt>
<totfact> 0.70808031E+11</totfact>
</mgrwt>
</event>
<event>
 4    2  0.1985873E+006  0.2092806E+01  0.7546771E-02  0.2920779E+00
         22   -1    0    0    0    0  0.00000000000E+00  0.00000000000E+00  0.36118620566E+01  0.36118620566E+01  0.00000000000E+00 0.  1.
         22   -1    0    0    0    0 -0.00000000000E+00 -0.00000000000E+00 -0.45492782810E+01  0.45492782810E+01  0.00000000000E+00 0. -1.
          4    1    1    2  501    0 -0.19698544515E+01 -0.70676182408E+00  0.30259529068E+01  0.36791615662E+01  0.00000000000E+00 0.  1.
         -4    1    1    2    0  501  0.19698544515E+01  0.70676182408E+00 -0.39633691312E+01  0.44819787713E+01  0.00000000000E+00 0. -1.
<mgrwt>
<rscale>  0 0.20928064E+01</rscale>
<asrwt>0</asrwt>
<pdfrwt beam="1">0</pdfrwt>
<pdfrwt beam="2">0</pdfrwt>
<totfact> 0.92075567E+11</totfact>
</mgrwt>
</event>
<event>
 4    2  0.1985873E+006  0.5164832E+01  0.7546771E-02  0.2103828E+00
         22   -1    0    0    0    0  0.00000000000E+00  0.00000000000E+00  0.13660457411E+02  0.13660457411E+02  0.00000000000E+00 0.  1.
         22   -1    0    0    0    0 -0.00000000000E+00 -0.00000000000E+00 -0.21264233504E+01  0.21264233504E+01  0.00000000000E+00 0. -1.
          4    1    1    2  501    0 -0.50350025505E+01  0.11507556092E+01  0.80228410966E+01  0.95415653022E+01  0.00000000000E+00 0. -1.
         -4    1    1    2    0  501  0.50350025505E+01 -0.11507556092E+01  0.35111929643E+01  0.62453154595E+01  0.00000000000E+00 0.  1.
<mgrwt>
<rscale>  0 0.51648320E+01</rscale>
<asrwt>0</asrwt>
<pdfrwt beam="1">0</pdfrwt>
<pdfrwt beam="2">0</pdfrwt>
<totfact> 0.45568998E+11</totfact>
</mgrwt>
</event>
<event>
 4    2  0.1985873E+006  0.2214483E+01  0.7546771E-02  0.2849574E+00
         22   -1    0    0    0    0  0.00000000000E+00  0.00000000000E+00  0.36294758579E+01  0.36294758579E+01  0.00000000000E+00 0.  1.
         22   -1    0    0    0    0 -0.00000000000E+00 -0.00000000000E+00 -0.29508513158E+01  0.29508513158E+01  0.00000000000E+00 0. -1.
          4    1    1    2  501    0  0.66485257716E+00 -0.21123228002E+01  0.27618156494E+01  0.35399946670E+01  0.00000000000E+00 0.  1.
         -4    1    1    2    0  501 -0.66485257716E+00  0.21123228002E+01 -0.20831911072E+01  0.30403325066E+01  0.00000000000E+00 0. -1.
<mgrwt>
<rscale>  0 0.22144834E+01</rscale>
<asrwt>0</asrwt>
<pdfrwt beam="1">0</pdfrwt>
<pdfrwt beam="2">0</pdfrwt>
<totfact> 0.15219795E+12</totfact>
</mgrwt>
</event>
<event>
 4    2  0.1985873E+006  0.2010974E+01  0.7546771E-02  0.2973358E+00
         22   -1    0    0    0    0  0.00000000000E+00  0.00000000000E+00  0.30031071049E+00  0.30031071049E+00  0.00000000000E+00 0.  1.
         22   -1    0    0    0    0 -0.00000000000E+00 -0.00000000000E+00 -0.13573109550E+02  0.13573109550E+02  0.00000000000E+00 0. -1.
          4    1    1    2  501    0 -0.16486809210E+01  0.11514635431E+01 -0.60205071030E+01  0.63474816146E+01  0.00000000000E+00 0. -1.
         -4    1    1    2    0  501  0.16486809210E+01 -0.11514635431E+01 -0.72522917366E+01  0.75259386460E+01  0.00000000000E+00 0.  1.
<mgrwt>
<rscale>  0 0.20109742E+01</rscale>
<asrwt>0</asrwt>
<pdfrwt beam="1">0</pdfrwt>
<pdfrwt beam="2">0</pdfrwt>
<totfact> 0.42635787E+12</totfact>
</mgrwt>
</event>
<event>
 4    2  0.1985873E+006  0.2156318E+01  0.7546771E-02  0.2882646E+00
         22   -1    0    0    0    0  0.00000000000E+00  0.00000000000E+00  0.13771689499E+02  0.13771689499E+02  0.00000000000E+00 0. -1.
         22   -1    0    0    0    0 -0.00000000000E+00 -0.00000000000E+00 -0.33771299945E+00  0.33771299945E+00  0.00000000000E+00 0.  1.
          4    1    1    2  501    0 -0.20991601088E+01  0.49318774834E+00  0.68289413367E+01  0.71612950712E+01  0.00000000000E+00 0. -1.
         -4    1    1    2    0  501  0.20991601088E+01 -0.49318774834E+00  0.66050351626E+01  0.69481074269E+01  0.00000000000E+00 0.  1.
<mgrwt>
<rscale>  0 0.21563180E+01</rscale>
<asrwt>0</asrwt>
<pdfrwt beam="1">0</pdfrwt>
<pdfrwt beam="2">0</pdfrwt>
<totfact> 0.36716355E+12</totfact>
</mgrwt>
</event>
<event>
 4    2  0.1985873E+006  0.2363550E+01  0.7546771E-02  0.2771925E+00
         22   -1    0    0    0    0  0.00000000000E+00  0.00000000000E+00  0.26186396579E+02  0.26186396579E+02  0.00000000000E+00 0. -1.
         22   -1    0    0    0    0 -0.00000000000E+00 -0.00000000000E+00 -0.27282845423E+00  0.27282845423E+00  0.00000000000E+00 0.  1.
          4    1    1    2  501    0  0.44262564617E+00 -0.23217340874E+01  0.19134842008E+02  0.19280263103E+02  0.00000000000E+00 0. -1.
         -4    1    1    2    0  501 -0.44262564617E+00  0.23217340874E+01  0.67787261172E+01  0.71789619310E+01  0.00000000000E+00 0.  1.
<mgrwt>
<rscale>  0 0.23635496E+01</rscale>
<asrwt>0</asrwt>
<pdfrwt beam="1">0</pdfrwt>
<pdfrwt beam="2">0</pdfrwt>
<totfact> 0.20965064E+12</totfact>
</mgrwt>
</event>
<event>
 4    2  0.1985873E+006  0.2139976E+01  0.7546771E-02  0.2892249E+00
         22   -1    0    0    0    0  0.00000000000E+00  0.00000000000E+00  0.35887628299E+02  0.35887628299E+02  0.00000000000E+00 0.  1.
         22   -1    0    0    0    0 -0.00000000000E+00 -0.00000000000E+00 -0.13844840295E+00  0.13844840295E+00  0.00000000000E+00 0. -1.
          4    1    1    2  501    0  0.21390145516E+01  0.64140138626E-01  0.12833849654E+02  0.13011041240E+02  0.00000000000E+00 0. -1.
         -4    1    1    2    0  501 -0.21390145516E+01 -0.64140138626E-01  0.22915330243E+02  0.23015035462E+02  0.00000000000E+00 0.  1.
<mgrwt>
<rscale>  0 0.21399760E+01</rscale>
<asrwt>0</asrwt>
<pdfrwt beam="1">0</pdfrwt>
<pdfrwt beam="2">0</pdfrwt>
<totfact> 0.29878008E+12</totfact>
</mgrwt>
</event>
<event>
 4    2  0.1985873E+006  0.4853967E+01  0.7546771E-02  0.2140849E+00
         22   -1    0    0    0    0  0.00000000000E+00  0.00000000000E+00  0.25277646163E+01  0.25277646163E+01  0.00000000000E+00 0.  1.
         22   -1    0    0    0    0 -0.00000000000E+00 -0.00000000000E+00 -0.13480731635E+02  0.13480731635E+02  0.00000000000E+00 0. -1.
          4    1    1    2  501    0 -0.48499770456E+01  0.19675967741E+00 -0.10301430867E+01  0.49620748173E+01  0.00000000000E+00 0.  1.
         -4    1    1    2    0  501  0.48499770456E+01 -0.19675967741E+00 -0.99228239317E+01  0.11046421434E+02  0.00000000000E+00 0. -1.
<mgrwt>
<rscale>  0 0.48539666E+01</rscale>
<asrwt>0</asrwt>
<pdfrwt beam="1">0</pdfrwt>
<pdfrwt beam="2">0</pdfrwt>
<totfact> 0.37890114E+11</totfact>
</mgrwt>
</event>
<event>
 4    2  0.1985873E+006  0.2273108E+01  0.7546771E-02  0.2817881E+00
         22   -1    0    0    0    0  0.00000000000E+00  0.00000000000E+00  0.19834109453E+00  0.19834109453E+00  0.00000000000E+00 0. -1.
         22   -1    0    0    0    0 -0.00000000000E+00 -0.00000000000E+00 -0.55473215751E+02  0.55473215751E+02  0.00000000000E+00 0.  1.
          4    1    1    2  501    0  0.12426940205E+01  0.19033476283E+01 -0.73653709644E+01  0.77081586689E+01  0.00000000000E+00 0. -1.
         -4    1    1    2    0  501 -0.12426940205E+01 -0.19033476283E+01 -0.47909503692E+02  0.47963398177E+02  0.00000000000E+00 0.  1.
<mgrwt>
<rscale>  0 0.22731081E+01</rscale>
<asrwt>0</asrwt>
<pdfrwt beam="1">0</pdfrwt>
<pdfrwt beam="2">0</pdfrwt>
<totfact> 0.11327625E+12</totfact>
</mgrwt>
</event>
<event>
 4    2  0.1985873E+006  0.6244386E+01  0.7546771E-02  0.1998440E+00
         22   -1    0    0    0    0  0.00000000000E+00  0.00000000000E+00  0.20538328357E+01  0.20538328357E+01  0.00000000000E+00 0.  1.
         22   -1    0    0    0    0 -0.00000000000E+00 -0.00000000000E+00 -0.19026314536E+02  0.19026314536E+02  0.00000000000E+00 0. -1.
          4    1    1    2  501    0  0.43820217070E+01  0.44486229889E+01 -0.79960843943E+01  0.10145428842E+02  0.00000000000E+00 0.  1.
         -4    1    1    2    0  501 -0.43820217070E+01 -0.44486229889E+01 -0.89763973063E+01  0.10934718530E+02  0.00000000000E+00 0. -1.
<mgrwt>
<rscale>  0 0.62443863E+01</rscale>
<asrwt>0</asrwt>
<pdfrwt beam="1">0</pdfrwt>
<pdfrwt beam="2">0</pdfrwt>
<totfact> 0.31513520E+11</totfact>
</mgrwt>
</event>
<event>
 4    2  0.1985873E+006  0.2230317E+01  0.7546771E-02  0.2840858E+00
         22   -1    0    0    0    0  0.00000000000E+00  0.00000000000E+00  0.77328415513E+00  0.77328415513E+00  0.00000000000E+00 0.  1.
         22   -1    0    0    0    0 -0.00000000000E+00 -0.00000000000E+00 -0.26827397406E+02  0.26827397406E+02  0.00000000000E+00 0. -1.
          4    1    1    2  501    0  0.60282881386E+00  0.21473031078E+01 -0.99446827472E+00  0.24419828757E+01  0.00000000000E+00 0.  1.
         -4    1    1    2    0  501 -0.60282881386E+00 -0.21473031078E+01 -0.25059644976E+02  0.25158698685E+02  0.00000000000E+00 0. -1.
<mgrwt>
<rscale>  0 0.22303168E+01</rscale>
<asrwt>0</asrwt>
<pdfrwt beam="1">0</pdfrwt>
<pdfrwt beam="2">0</pdfrwt>
<totfact> 0.62779685E+11</totfact>
</mgrwt>
</event>
<event>
 4    2  0.1985873E+006  0.2746931E+01  0.7546771E-02  0.2608756E+00
         22   -1    0    0    0    0  0.00000000000E+00  0.00000000000E+00  0.31423740551E+02  0.31423740551E+02  0.00000000000E+00 0.  1.
         22   -1    0    0    0    0 -0.00000000000E+00 -0.00000000000E+00 -0.24178999535E+00  0.24178999535E+00  0.00000000000E+00 0. -1.
          4    1    1    2  501    0 -0.22800338350E+01 -0.15320176946E+01  0.16904734795E+02  0.17126461719E+02  0.00000000000E+00 0.  1.
         -4    1    1    2    0  501  0.22800338350E+01  0.15320176946E+01  0.14277215761E+02  0.14539068828E+02  0.00000000000E+00 0. -1.
<mgrwt>
<rscale>  0 0.27469315E+01</rscale>
<asrwt>0</asrwt>
<pdfrwt beam="1">0</pdfrwt>
<pdfrwt beam="2">0</pdfrwt>
<totfact> 0.19034930E+12</totfact>
</mgrwt>
</event>
<event>
 4    2  0.1985873E+006  0.6736267E+01  0.7546771E-02  0.1959337E+00
         22   -1    0    0    0    0  0.00000000000E+00  0.00000000000E+00  0.30147961922E+01  0.30147961922E+01  0.00000000000E+00 0.  1.
         22   -1    0    0    0    0 -0.00000000000E+00 -0.00000000000E+00 -0.34195251735E+02  0.34195251735E+02  0.00000000000E+00 0. -1.
          4    1    1    2  501    0  0.67353073973E+01  0.11372565492E+00 -0.16695460882E+01  0.69400780544E+01  0.00000000000E+00 0.  1.
         -4    1    1    2    0  501 -0.67353073973E+01 -0.11372565492E+00 -0.29510909455E+02  0.30269969873E+02  0.00000000000E+00 0. -1.
<mgrwt>
<rscale>  0 0.67362675E+01</rscale>
<asrwt>0</asrwt>
<pdfrwt beam="1">0</pdfrwt>
<pdfrwt beam="2">0</pdfrwt>
<totfact> 0.96156131E+10</totfact>
</mgrwt>
</event>
<event>
 4    2  0.1985873E+006  0.2844274E+01  0.7546771E-02  0.2573805E+00
         22   -1    0    0    0    0  0.00000000000E+00  0.00000000000E+00  0.97667733305E+00  0.97667733305E+00  0.00000000000E+00 0. -1.
         22   -1    0    0    0    0 -0.00000000000E+00 -0.00000000000E+00 -0.94851877099E+01  0.94851877099E+01  0.00000000000E+00 0.  1.
          4    1    1    2  501    0 -0.27647743446E+01  0.66777235156E+00 -0.23920491440E+01  0.37164224998E+01  0.00000000000E+00 0. -1.
         -4    1    1    2    0  501  0.27647743446E+01 -0.66777235156E+00 -0.61164612328E+01  0.67454425431E+01  0.00000000000E+00 0.  1.
<mgrwt>
<rscale>  0 0.28442744E+01</rscale>
<asrwt>0</asrwt>
<pdfrwt beam="1">0</pdfrwt>
<pdfrwt beam="2">0</pdfrwt>
<totfact> 0.17377884E+12</totfact>
</mgrwt>
</event>
<event>
 4    2  0.1985873E+006  0.2479633E+01  0.7546771E-02  0.2717578E+00
         22   -1    0    0    0    0  0.00000000000E+00  0.00000000000E+00  0.25464015976E+00  0.25464015976E+00  0.00000000000E+00 0. -1.
         22   -1    0    0    0    0 -0.00000000000E+00 -0.00000000000E+00 -0.31732868796E+02  0.31732868796E+02  0.00000000000E+00 0.  1.
          4    1    1    2  501    0  0.11681298374E+01 -0.21872476857E+01 -0.79188267923E+01  0.82979755074E+01  0.00000000000E+00 0. -1.
         -4    1    1    2    0  501 -0.11681298374E+01  0.21872476857E+01 -0.23559401844E+02  0.23689533449E+02  0.00000000000E+00 0.  1.
<mgrwt>
<rscale>  0 0.24796330E+01</rscale>
<asrwt>0</asrwt>
<pdfrwt beam="1">0</pdfrwt>
<pdfrwt beam="2">0</pdfrwt>
<totfact> 0.17740045E+12</totfact>
</mgrwt>
</event>
<event>
 4    2  0.1985873E+006  0.2042524E+01  0.7546771E-02  0.2952600E+00
         22   -1    0    0    0    0  0.00000000000E+00  0.00000000000E+00  0.96417015093E+00  0.96417015093E+00  0.00000000000E+00 0.  1.
         22   -1    0    0    0    0 -0.00000000000E+00 -0.00000000000E+00 -0.54154306292E+01  0.54154306292E+01  0.00000000000E+00 0. -1.
          4    1    1    2  501    0  0.15480125167E+01 -0.13325017060E+01 -0.79555151948E+00  0.21919867172E+01  0.00000000000E+00 0.  1.
         -4    1    1    2    0  501 -0.15480125167E+01  0.13325017060E+01 -0.36557089587E+01  0.41876140629E+01  0.00000000000E+00 0. -1.
<mgrwt>
<rscale>  0 0.20425238E+01</rscale>
<asrwt>0</asrwt>
<pdfrwt beam="1">0</pdfrwt>
<pdfrwt beam="2">0</pdfrwt>
<totfact> 0.34496193E+12</totfact>
</mgrwt>
</event>
<event>
 4    2  0.1985873E+006  0.8100282E+01  0.7546771E-02  0.1870540E+00
         22   -1    0    0    0    0  0.00000000000E+00  0.00000000000E+00  0.58777474461E+01  0.58777474461E+01  0.00000000000E+00 0. -1.
         22   -1    0    0    0    0 -0.00000000000E+00 -0.00000000000E+00 -0.13364838432E+02  0.13364838432E+02  0.00000000000E+00 0.  1.
          4    1    1    2  501    0  0.30876614951E+01  0.74887188921E+01  0.16147219283E+00  0.81018909782E+01  0.00000000000E+00 0. -1.
         -4    1    1    2    0  501 -0.30876614951E+01 -0.74887188921E+01 -0.76485631786E+01  0.11140694900E+02  0.00000000000E+00 0.  1.
<mgrwt>
<rscale>  0 0.81002817E+01</rscale>
<asrwt>0</asrwt>
<pdfrwt beam="1">0</pdfrwt>
<pdfrwt beam="2">0</pdfrwt>
<totfact> 0.14196348E+11</totfact>
</mgrwt>
</event>
<event>
 4    2  0.1985873E+006  0.2292598E+01  0.7546771E-02  0.2807687E+00
         22   -1    0    0    0    0  0.00000000000E+00  0.00000000000E+00  0.82463243578E+01  0.82463243578E+01  0.00000000000E+00 0.  1.
         22   -1    0    0    0    0 -0.00000000000E+00 -0.00000000000E+00 -0.63913920870E+00  0.63913920870E+00  0.00000000000E+00 0. -1.
          4    1    1    2  501    0 -0.64310295513E+00 -0.22005506956E+01  0.40369764274E+01  0.46425406246E+01  0.00000000000E+00 0.  1.
         -4    1    1    2    0  501  0.64310295513E+00  0.22005506956E+01  0.35702087216E+01  0.42429229419E+01  0.00000000000E+00 0. -1.
<mgrwt>
<rscale>  0 0.22925978E+01</rscale>
<asrwt>0</asrwt>
<pdfrwt beam="1">0</pdfrwt>
<pdfrwt beam="2">0</pdfrwt>
<totfact> 0.33321204E+12</totfact>
</mgrwt>
</event>
<event>
 4    2  0.1985873E+006  0.2622222E+01  0.7546771E-02  0.2656981E+00
         22   -1    0    0    0    0  0.00000000000E+00  0.00000000000E+00  0.14102247570E+02  0.14102247570E+02  0.00000000000E+00 0. -1.
         22   -1    0    0    0    0 -0.00000000000E+00 -0.00000000000E+00 -0.84308158646E+00  0.84308158646E+00  0.00000000000E+00 0.  1.
          4    1    1    2  501    0 -0.19676706936E+01  0.17332977276E+01  0.11482000995E+02  0.11777622672E+02  0.00000000000E+00 0. -1.
         -4    1    1    2    0  501  0.19676706936E+01 -0.17332977276E+01  0.17771649887E+01  0.31677064839E+01  0.00000000000E+00 0.  1.
<mgrwt>
<rscale>  0 0.26222221E+01</rscale>
<asrwt>0</asrwt>
<pdfrwt beam="1">0</pdfrwt>
<pdfrwt beam="2">0</pdfrwt>
<totfact> 0.12678840E+12</totfact>
</mgrwt>
</event>
<event>
 4    2  0.1985873E+006  0.3421393E+01  0.7546771E-02  0.2403740E+00
         22   -1    0    0    0    0  0.00000000000E+00  0.00000000000E+00  0.31655118719E+01  0.31655118719E+01  0.00000000000E+00 0. -1.
         22   -1    0    0    0    0 -0.00000000000E+00 -0.00000000000E+00 -0.38916972191E+01  0.38916972191E+01  0.00000000000E+00 0.  1.
          4    1    1    2  501    0  0.34117730478E+01 -0.25638555626E+00 -0.11503969631E+01  0.36096179931E+01  0.00000000000E+00 0. -1.
         -4    1    1    2    0  501 -0.34117730478E+01  0.25638555626E+00  0.42421161587E+00  0.34475910979E+01  0.00000000000E+00 0.  1.
<mgrwt>
<rscale>  0 0.34213928E+01</rscale>
<asrwt>0</asrwt>
<pdfrwt beam="1">0</pdfrwt>
<pdfrwt beam="2">0</pdfrwt>
<totfact> 0.12918226E+12</totfact>
</mgrwt>
</event>
<event>
 4    2  0.1985873E+006  0.2015682E+01  0.7546771E-02  0.2970220E+00
         22   -1    0    0    0    0  0.00000000000E+00  0.00000000000E+00  0.50401296803E+00  0.50401296803E+00  0.00000000000E+00 0.  1.
         22   -1    0    0    0    0 -0.00000000000E+00 -0.00000000000E+00 -0.14805722276E+02  0.14805722276E+02  0.00000000000E+00 0. -1.
          4    1    1    2  501    0  0.92208042287E+00  0.17924123283E+01 -0.19843492259E+01  0.28285360367E+01  0.00000000000E+00 0.  1.
         -4    1    1    2    0  501 -0.92208042287E+00 -0.17924123283E+01 -0.12317360083E+02  0.12481199208E+02  0.00000000000E+00 0. -1.
<mgrwt>
<rscale>  0 0.20156821E+01</rscale>
<asrwt>0</asrwt>
<pdfrwt beam="1">0</pdfrwt>
<pdfrwt beam="2">0</pdfrwt>
<totfact> 0.21399268E+12</totfact>
</mgrwt>
</event>
<event>
 4    2  0.1985873E+006  0.3157936E+01  0.7546771E-02  0.2474510E+00
         22   -1    0    0    0    0  0.00000000000E+00  0.00000000000E+00  0.25561081383E+02  0.25561081383E+02  0.00000000000E+00 0.  1.
         22   -1    0    0    0    0 -0.00000000000E+00 -0.00000000000E+00 -0.18980438334E+02  0.18980438334E+02  0.00000000000E+00 0. -1.
          4    1    1    2  501    0  0.15983180468E+01  0.27235893826E+01  0.25331003234E+02  0.25527089230E+02  0.00000000000E+00 0.  1.
         -4    1    1    2    0  501 -0.15983180468E+01 -0.27235893826E+01 -0.18750360185E+02  0.19014430487E+02  0.00000000000E+00 0. -1.
<mgrwt>
<rscale>  0 0.31579360E+01</rscale>
<asrwt>0</asrwt>
<pdfrwt beam="1">0</pdfrwt>
<pdfrwt beam="2">0</pdfrwt>
<totfact> 0.15272469E+10</totfact>
</mgrwt>
</event>
<event>
 4    2  0.1985873E+006  0.2299955E+01  0.7546771E-02  0.2803882E+00
         22   -1    0    0    0    0  0.00000000000E+00  0.00000000000E+00  0.30906821817E+00  0.30906821817E+00  0.00000000000E+00 0.  1.
         22   -1    0    0    0    0 -0.00000000000E+00 -0.00000000000E+00 -0.17122752554E+02  0.17122752554E+02  0.00000000000E+00 0. -1.
          4    1    1    2  501    0 -0.12292597328E+01 -0.19438913669E+01 -0.85887619582E+01  0.88913792581E+01  0.00000000000E+00 0.  1.
         -4    1    1    2    0  501  0.12292597328E+01  0.19438913669E+01 -0.82249223773E+01  0.85404415138E+01  0.00000000000E+00 0. -1.
<mgrwt>
<rscale>  0 0.22999550E+01</rscale>
<asrwt>0</asrwt>
<pdfrwt beam="1">0</pdfrwt>
<pdfrwt beam="2">0</pdfrwt>
<totfact> 0.31013570E+12</totfact>
</mgrwt>
</event>
<event>
 4    2  0.1985873E+006  0.1625677E+02  0.7546771E-02  0.1598729E+00
         22   -1    0    0    0    0  0.00000000000E+00  0.00000000000E+00  0.11941593847E+03  0.11941593847E+03  0.00000000000E+00 0.  1.
         22   -1    0    0    0    0 -0.00000000000E+00 -0.00000000000E+00 -0.29094209770E+01  0.29094209770E+01  0.00000000000E+00 0. -1.
          4    1    1    2  501    0  0.23443277667E+01  0.16086849761E+02  0.88174500903E+02  0.89660611292E+02  0.00000000000E+00 0. -1.
         -4    1    1    2    0  501 -0.23443277667E+01 -0.16086849761E+02  0.28332016591E+02  0.32664748155E+02  0.00000000000E+00 0.  1.
<mgrwt>
<rscale>  0 0.16256771E+02</rscale>
<asrwt>0</asrwt>
<pdfrwt beam="1">0</pdfrwt>
<pdfrwt beam="2">0</pdfrwt>
<totfact> 0.18507051E+10</totfact>
</mgrwt>
</event>
<event>
 4    2  0.1985873E+006  0.2278666E+01  0.7546771E-02  0.2814958E+00
         22   -1    0    0    0    0  0.00000000000E+00  0.00000000000E+00  0.35636694529E+00  0.35636694529E+00  0.00000000000E+00 0.  1.
         22   -1    0    0    0    0 -0.00000000000E+00 -0.00000000000E+00 -0.34776066096E+02  0.34776066096E+02  0.00000000000E+00 0. -1.
          4    1    1    2  501    0  0.71647201826E+00 -0.21630962682E+01 -0.38199492197E+01  0.44479579202E+01  0.00000000000E+00 0.  1.
         -4    1    1    2    0  501 -0.71647201826E+00  0.21630962682E+01 -0.30599749931E+02  0.30684475121E+02  0.00000000000E+00 0. -1.
<mgrwt>
<rscale>  0 0.22786658E+01</rscale>
<asrwt>0</asrwt>
<pdfrwt beam="1">0</pdfrwt>
<pdfrwt beam="2">0</pdfrwt>
<totfact> 0.10820944E+12</totfact>
</mgrwt>
</event>
<event>
 4    2  0.1985873E+006  0.2212824E+01  0.7546771E-02  0.2850495E+00
         22   -1    0    0    0    0  0.00000000000E+00  0.00000000000E+00  0.12607983116E+00  0.12607983116E+00  0.00000000000E+00 0.  1.
         22   -1    0    0    0    0 -0.00000000000E+00 -0.00000000000E+00 -0.38843947214E+02  0.38843947214E+02  0.00000000000E+00 0. -1.
          4    1    1    2  501    0 -0.16606682264E+01 -0.14624536431E+01 -0.19615435672E+02  0.19739855781E+02  0.00000000000E+00 0. -1.
         -4    1    1    2    0  501  0.16606682264E+01  0.14624536431E+01 -0.19102431711E+02  0.19230171265E+02  0.00000000000E+00 0.  1.
<mgrwt>
<rscale>  0 0.22128239E+01</rscale>
<asrwt>0</asrwt>
<pdfrwt beam="1">0</pdfrwt>
<pdfrwt beam="2">0</pdfrwt>
<totfact> 0.29927472E+12</totfact>
</mgrwt>
</event>
<event>
 4    2  0.1985873E+006  0.3144017E+01  0.7546771E-02  0.2478539E+00
         22   -1    0    0    0    0  0.00000000000E+00  0.00000000000E+00  0.11187997758E+02  0.11187997758E+02  0.00000000000E+00 0.  1.
         22   -1    0    0    0    0 -0.00000000000E+00 -0.00000000000E+00 -0.12886729227E+01  0.12886729227E+01  0.00000000000E+00 0. -1.
          4    1    1    2  501    0 -0.28549120573E+01  0.13169365339E+01  0.84475484848E+01  0.90136518733E+01  0.00000000000E+00 0.  1.
         -4    1    1    2    0  501  0.28549120573E+01 -0.13169365339E+01  0.14517763506E+01  0.34630188075E+01  0.00000000000E+00 0. -1.
<mgrwt>
<rscale>  0 0.31440173E+01</rscale>
<asrwt>0</asrwt>
<pdfrwt beam="1">0</pdfrwt>
<pdfrwt beam="2">0</pdfrwt>
<totfact> 0.10358711E+12</totfact>
</mgrwt>
</event>
<event>
 4    2  0.1985873E+006  0.2398378E+01  0.7546771E-02  0.2755101E+00
         22   -1    0    0    0    0  0.00000000000E+00  0.00000000000E+00  0.27796098256E+02  0.27796098256E+02  0.00000000000E+00 0. -1.
         22   -1    0    0    0    0 -0.00000000000E+00 -0.00000000000E+00 -0.11202606760E+02  0.11202606760E+02  0.00000000000E+00 0.  1.
          4    1    1    2  501    0  0.23950593922E+01 -0.12611749561E+00  0.27615155134E+02  0.27719109080E+02  0.00000000000E+00 0. -1.
         -4    1    1    2    0  501 -0.23950593922E+01  0.12611749561E+00 -0.11021663638E+02  0.11279595935E+02  0.00000000000E+00 0.  1.
<mgrwt>
<rscale>  0 0.23983776E+01</rscale>
<asrwt>0</asrwt>
<pdfrwt beam="1">0</pdfrwt>
<pdfrwt beam="2">0</pdfrwt>
<totfact> 0.26261674E+10</totfact>
</mgrwt>
</event>
<event>
 4    2  0.1985873E+006  0.2013878E+01  0.7546771E-02  0.2971421E+00
         22   -1    0    0    0    0  0.00000000000E+00  0.00000000000E+00  0.76535183016E+01  0.76535183016E+01  0.00000000000E+00 0.  1.
         22   -1    0    0    0    0 -0.00000000000E+00 -0.00000000000E+00 -0.54388324566E+00  0.54388324566E+00  0.00000000000E+00 0. -1.
          4    1    1    2  501    0 -0.69967569961E+00 -0.18884278595E+01  0.42116901102E+01  0.46684086635E+01  0.00000000000E+00 0.  1.
         -4    1    1    2    0  501  0.69967569961E+00  0.18884278595E+01  0.28979449457E+01  0.35289928838E+01  0.00000000000E+00 0. -1.
<mgrwt>
<rscale>  0 0.20138783E+01</rscale>
<asrwt>0</asrwt>
<pdfrwt beam="1">0</pdfrwt>
<pdfrwt beam="2">0</pdfrwt>
<totfact> 0.43747500E+12</totfact>
</mgrwt>
</event>
<event>
 4    2  0.1985873E+006  0.3067468E+01  0.7546771E-02  0.2501280E+00
         22   -1    0    0    0    0  0.00000000000E+00  0.00000000000E+00  0.79427650014E+00  0.79427650014E+00  0.00000000000E+00 0. -1.
         22   -1    0    0    0    0 -0.00000000000E+00 -0.00000000000E+00 -0.12517378217E+02  0.12517378217E+02  0.00000000000E+00 0.  1.
          4    1    1    2  501    0  0.19223817239E+00 -0.30614384947E+01 -0.74024763038E+01  0.80128656921E+01  0.00000000000E+00 0.  1.
         -4    1    1    2    0  501 -0.19223817239E+00  0.30614384947E+01 -0.43206254130E+01  0.52987890249E+01  0.00000000000E+00 0. -1.
<mgrwt>
<rscale>  0 0.30674682E+01</rscale>
<asrwt>0</asrwt>
<pdfrwt beam="1">0</pdfrwt>
<pdfrwt beam="2">0</pdfrwt>
<totfact> 0.15701789E+12</totfact>
</mgrwt>
</event>
<event>
 4    2  0.1985873E+006  0.2537841E+01  0.7546771E-02  0.2692079E+00
         22   -1    0    0    0    0  0.00000000000E+00  0.00000000000E+00  0.11493673953E+00  0.11493673953E+00  0.00000000000E+00 0. -1.
         22   -1    0    0    0    0 -0.00000000000E+00 -0.00000000000E+00 -0.56503742909E+02  0.56503742909E+02  0.00000000000E+00 0.  1.
          4    1    1    2  501    0 -0.25260395898E+01 -0.24446039466E+00 -0.30769099394E+02  0.30873582792E+02  0.00000000000E+00 0.  1.
         -4    1    1    2    0  501  0.25260395898E+01  0.24446039466E+00 -0.25619706776E+02  0.25745096857E+02  0.00000000000E+00 0. -1.
<mgrwt>
<rscale>  0 0.25378410E+01</rscale>
<asrwt>0</asrwt>
<pdfrwt beam="1">0</pdfrwt>
<pdfrwt beam="2">0</pdfrwt>
<totfact> 0.20276810E+12</totfact>
</mgrwt>
</event>
<event>
 4    2  0.1985873E+006  0.2059495E+01  0.7546771E-02  0.2941691E+00
         22   -1    0    0    0    0  0.00000000000E+00  0.00000000000E+00  0.52794941494E-01  0.52794941494E-01  0.00000000000E+00 0. -1.
         22   -1    0    0    0    0 -0.00000000000E+00 -0.00000000000E+00 -0.12122713245E+03  0.12122713245E+03  0.00000000000E+00 0.  1.
          4    1    1    2  501    0 -0.78794894777E+00 -0.19028023237E+01 -0.25369962949E+02  0.25453419029E+02  0.00000000000E+00 0. -1.
         -4    1    1    2    0  501  0.78794894777E+00  0.19028023237E+01 -0.95804374562E+02  0.95826508365E+02  0.00000000000E+00 0.  1.
<mgrwt>
<rscale>  0 0.20594951E+01</rscale>
<asrwt>0</asrwt>
<pdfrwt beam="1">0</pdfrwt>
<pdfrwt beam="2">0</pdfrwt>
<totfact> 0.16672487E+12</totfact>
</mgrwt>
</event>
<event>
 4    2  0.1985873E+006  0.2027412E+01  0.7546771E-02  0.2962464E+00
         22   -1    0    0    0    0  0.00000000000E+00  0.00000000000E+00  0.59938365861E+01  0.59938365861E+01  0.00000000000E+00 0. -1.
         22   -1    0    0    0    0 -0.00000000000E+00 -0.00000000000E+00 -0.23599909618E+01  0.23599909618E+01  0.00000000000E+00 0.  1.
          4    1    1    2  501    0  0.30643874928E+00  0.20041195243E+01  0.53350099164E+01  0.57072524548E+01  0.00000000000E+00 0. -1.
         -4    1    1    2    0  501 -0.30643874928E+00 -0.20041195243E+01 -0.17011642921E+01  0.26465750931E+01  0.00000000000E+00 0.  1.
<mgrwt>
<rscale>  0 0.20274121E+01</rscale>
<asrwt>0</asrwt>
<pdfrwt beam="1">0</pdfrwt>
<pdfrwt beam="2">0</pdfrwt>
<totfact> 0.10912681E+12</totfact>
</mgrwt>
</event>
<event>
 4    2  0.1985873E+006  0.2294885E+01  0.7546771E-02  0.2806502E+00
         22   -1    0    0    0    0  0.00000000000E+00  0.00000000000E+00  0.43802312448E+00  0.43802312448E+00  0.00000000000E+00 0.  1.
         22   -1    0    0    0    0 -0.00000000000E+00 -0.00000000000E+00 -0.20248985283E+02  0.20248985283E+02  0.00000000000E+00 0. -1.
          4    1    1    2  501    0  0.21587608043E+01 -0.77862073265E+00 -0.33129649328E+01  0.40301656419E+01  0.00000000000E+00 0.  1.
         -4    1    1    2    0  501 -0.21587608043E+01  0.77862073265E+00 -0.16497997225E+02  0.16656842765E+02  0.00000000000E+00 0. -1.
<mgrwt>
<rscale>  0 0.22948853E+01</rscale>
<asrwt>0</asrwt>
<pdfrwt beam="1">0</pdfrwt>
<pdfrwt beam="2">0</pdfrwt>
<totfact> 0.17012611E+12</totfact>
</mgrwt>
</event>
<event>
 4    2  0.1985873E+006  0.4673222E+01  0.7546771E-02  0.2164532E+00
         22   -1    0    0    0    0  0.00000000000E+00  0.00000000000E+00  0.84914353120E+01  0.84914353120E+01  0.00000000000E+00 0.  1.
         22   -1    0    0    0    0 -0.00000000000E+00 -0.00000000000E+00 -0.26206849194E+01  0.26206849194E+01  0.00000000000E+00 0. -1.
          4    1    1    2  501    0  0.46680600791E+01  0.21958725355E+00  0.21772084983E+01  0.51555058248E+01  0.00000000000E+00 0. -1.
         -4    1    1    2    0  501 -0.46680600791E+01 -0.21958725355E+00  0.36935418943E+01  0.59566144066E+01  0.00000000000E+00 0.  1.
<mgrwt>
<rscale>  0 0.46732220E+01</rscale>
<asrwt>0</asrwt>
<pdfrwt beam="1">0</pdfrwt>
<pdfrwt beam="2">0</pdfrwt>
<totfact> 0.63678031E+11</totfact>
</mgrwt>
</event>
<event>
 4    2  0.1985873E+006  0.2894990E+01  0.7546771E-02  0.2556443E+00
         22   -1    0    0    0    0  0.00000000000E+00  0.00000000000E+00  0.27610724251E+02  0.27610724251E+02  0.00000000000E+00 0. -1.
         22   -1    0    0    0    0 -0.00000000000E+00 -0.00000000000E+00 -0.33419168677E+00  0.33419168677E+00  0.00000000000E+00 0.  1.
          4    1    1    2  501    0  0.13029106840E+01 -0.25852252145E+01  0.17869826568E+02  0.18102808269E+02  0.00000000000E+00 0. -1.
         -4    1    1    2    0  501 -0.13029106840E+01  0.25852252145E+01  0.94067059960E+01  0.98421076683E+01  0.00000000000E+00 0.  1.
<mgrwt>
<rscale>  0 0.28949898E+01</rscale>
<asrwt>0</asrwt>
<pdfrwt beam="1">0</pdfrwt>
<pdfrwt beam="2">0</pdfrwt>
<totfact> 0.15616546E+12</totfact>
</mgrwt>
</event>
<event>
 4    2  0.1985873E+006  0.3755924E+01  0.7546771E-02  0.2326528E+00
         22   -1    0    0    0    0  0.00000000000E+00  0.00000000000E+00  0.18546513659E+01  0.18546513659E+01  0.00000000000E+00 0.  1.
         22   -1    0    0    0    0 -0.00000000000E+00 -0.00000000000E+00 -0.78269635623E+01  0.78269635623E+01  0.00000000000E+00 0. -1.
          4    1    1    2  501    0  0.36343936903E+01  0.94770499191E+00 -0.21732789837E+01  0.43393667497E+01  0.00000000000E+00 0. -1.
         -4    1    1    2    0  501 -0.36343936903E+01 -0.94770499191E+00 -0.37990332128E+01  0.53422481784E+01  0.00000000000E+00 0.  1.
<mgrwt>
<rscale>  0 0.37559236E+01</rscale>
<asrwt>0</asrwt>
<pdfrwt beam="1">0</pdfrwt>
<pdfrwt beam="2">0</pdfrwt>
<totfact> 0.10488189E+12</totfact>
</mgrwt>
</event>
<event>
 4    2  0.1985873E+006  0.2476283E+01  0.7546771E-02  0.2719079E+00
         22   -1    0    0    0    0  0.00000000000E+00  0.00000000000E+00  0.61201628468E+00  0.61201628468E+00  0.00000000000E+00 0. -1.
         22   -1    0    0    0    0 -0.00000000000E+00 -0.00000000000E+00 -0.28993407951E+02  0.28993407951E+02  0.00000000000E+00 0.  1.
          4    1    1    2  501    0  0.43513825282E+00 -0.24377513695E+01 -0.26165607015E+02  0.26282522092E+02  0.00000000000E+00 0.  1.
         -4    1    1    2    0  501 -0.43513825282E+00  0.24377513695E+01 -0.22157846518E+01  0.33229021444E+01  0.00000000000E+00 0. -1.
<mgrwt>
<rscale>  0 0.24762829E+01</rscale>
<asrwt>0</asrwt>
<pdfrwt beam="1">0</pdfrwt>
<pdfrwt beam="2">0</pdfrwt>
<totfact> 0.74184309E+11</totfact>
</mgrwt>
</event>
<event>
 4    2  0.1985873E+006  0.2428266E+01  0.7546771E-02  0.2741025E+00
         22   -1    0    0    0    0  0.00000000000E+00  0.00000000000E+00  0.37824959646E+01  0.37824959646E+01  0.00000000000E+00 0.  1.
         22   -1    0    0    0    0 -0.00000000000E+00 -0.00000000000E+00 -0.25770652354E+01  0.25770652354E+01  0.00000000000E+00 0. -1.
          4    1    1    2  501    0 -0.10292948980E+01 -0.21993248995E+01  0.26014110737E+01  0.35586257986E+01  0.00000000000E+00 0.  1.
         -4    1    1    2    0  501  0.10292948980E+01  0.21993248995E+01 -0.13959803446E+01  0.28009354014E+01  0.00000000000E+00 0. -1.
<mgrwt>
<rscale>  0 0.24282665E+01</rscale>
<asrwt>0</asrwt>
<pdfrwt beam="1">0</pdfrwt>
<pdfrwt beam="2">0</pdfrwt>
<totfact> 0.16979989E+12</totfact>
</mgrwt>
</event>
<event>
 4    2  0.1985873E+006  0.2265693E+01  0.7546771E-02  0.2821803E+00
         22   -1    0    0    0    0  0.00000000000E+00  0.00000000000E+00  0.23313543637E+00  0.23313543637E+00  0.00000000000E+00 0. -1.
         22   -1    0    0    0    0 -0.00000000000E+00 -0.00000000000E+00 -0.66622053999E+02  0.66622053999E+02  0.00000000000E+00 0.  1.
          4    1    1    2  501    0  0.90184636958E+00 -0.20784706045E+01 -0.58430757591E+01  0.62669690644E+01  0.00000000000E+00 0. -1.
         -4    1    1    2    0  501 -0.90184636958E+00  0.20784706045E+01 -0.60545842804E+02  0.60588220371E+02  0.00000000000E+00 0.  1.
<mgrwt>
<rscale>  0 0.22656935E+01</rscale>
<asrwt>0</asrwt>
<pdfrwt beam="1">0</pdfrwt>
<pdfrwt beam="2">0</pdfrwt>
<totfact> 0.73991879E+11</totfact>
</mgrwt>
</event>
<event>
 4    2  0.1985873E+006  0.2911223E+01  0.7546771E-02  0.2551001E+00
         22   -1    0    0    0    0  0.00000000000E+00  0.00000000000E+00  0.13707602580E+03  0.13707602580E+03  0.00000000000E+00 0. -1.
         22   -1    0    0    0    0 -0.00000000000E+00 -0.00000000000E+00 -0.13319961230E+00  0.13319961230E+00  0.00000000000E+00 0.  1.
          4    1    1    2  501    0  0.29102397600E+01 -0.75669571403E-01  0.11868979415E+03  0.11872549202E+03  0.00000000000E+00 0. -1.
         -4    1    1    2    0  501 -0.29102397600E+01  0.75669571403E-01  0.18253032042E+02  0.18483733391E+02  0.00000000000E+00 0.  1.
<mgrwt>
<rscale>  0 0.29112233E+01</rscale>
<asrwt>0</asrwt>
<pdfrwt beam="1">0</pdfrwt>
<pdfrwt beam="2">0</pdfrwt>
<totfact> 0.50160799E+11</totfact>
</mgrwt>
</event>
<event>
 4    2  0.1985873E+006  0.3032789E+01  0.7546771E-02  0.2511919E+00
         22   -1    0    0    0    0  0.00000000000E+00  0.00000000000E+00  0.29525946936E+00  0.29525946936E+00  0.00000000000E+00 0.  1.
         22   -1    0    0    0    0 -0.00000000000E+00 -0.00000000000E+00 -0.32297252818E+02  0.32297252818E+02  0.00000000000E+00 0. -1.
          4    1    1    2  501    0 -0.28915818919E+01 -0.91463936131E+00 -0.19070213994E+02  0.19309864649E+02  0.00000000000E+00 0. -1.
         -4    1    1    2    0  501  0.28915818919E+01  0.91463936131E+00 -0.12931779355E+02  0.13282647639E+02  0.00000000000E+00 0.  1.
<mgrwt>
<rscale>  0 0.30327893E+01</rscale>
<asrwt>0</asrwt>
<pdfrwt beam="1">0</pdfrwt>
<pdfrwt beam="2">0</pdfrwt>
<totfact> 0.14695541E+12</totfact>
</mgrwt>
</event>
<event>
 4    2  0.1985873E+006  0.3295615E+01  0.7546771E-02  0.2436282E+00
         22   -1    0    0    0    0  0.00000000000E+00  0.00000000000E+00  0.29689287873E+01  0.29689287873E+01  0.00000000000E+00 0. -1.
         22   -1    0    0    0    0 -0.00000000000E+00 -0.00000000000E+00 -0.52748708084E+01  0.52748708084E+01  0.00000000000E+00 0.  1.
          4    1    1    2  501    0 -0.12250068087E+01 -0.30594832233E+01  0.11289247442E+01  0.34836116823E+01  0.00000000000E+00 0. -1.
         -4    1    1    2    0  501  0.12250068087E+01  0.30594832233E+01 -0.34348667654E+01  0.47601879134E+01  0.00000000000E+00 0.  1.
<mgrwt>
<rscale>  0 0.32956152E+01</rscale>
<asrwt>0</asrwt>
<pdfrwt beam="1">0</pdfrwt>
<pdfrwt beam="2">0</pdfrwt>
<totfact> 0.97229845E+11</totfact>
</mgrwt>
</event>
<event>
 4    2  0.1985873E+006  0.4190511E+01  0.7546771E-02  0.2242293E+00
         22   -1    0    0    0    0  0.00000000000E+00  0.00000000000E+00  0.31919307118E+01  0.31919307118E+01  0.00000000000E+00 0. -1.
         22   -1    0    0    0    0 -0.00000000000E+00 -0.00000000000E+00 -0.85030772216E+01  0.85030772216E+01  0.00000000000E+00 0.  1.
          4    1    1    2  501    0  0.53001417279E-01 -0.41901754158E+01  0.81865102085E+00  0.42697270005E+01  0.00000000000E+00 0. -1.
         -4    1    1    2    0  501 -0.53001417279E-01  0.41901754158E+01 -0.61297975306E+01  0.74252809328E+01  0.00000000000E+00 0.  1.
<mgrwt>
<rscale>  0 0.41905106E+01</rscale>
<asrwt>0</asrwt>
<pdfrwt beam="1">0</pdfrwt>
<pdfrwt beam="2">0</pdfrwt>
<totfact> 0.50503068E+11</totfact>
</mgrwt>
</event>
<event>
 4    2  0.1985873E+006  0.2042132E+01  0.7546771E-02  0.2952854E+00
         22   -1    0    0    0    0  0.00000000000E+00  0.00000000000E+00  0.14922373517E+02  0.14922373517E+02  0.00000000000E+00 0.  1.
         22   -1    0    0    0    0 -0.00000000000E+00 -0.00000000000E+00 -0.58383316736E+01  0.58383316736E+01  0.00000000000E+00 0. -1.
          4    1    1    2  501    0 -0.20368149066E+01 -0.14727445904E+00  0.14670886115E+02  0.14812332839E+02  0.00000000000E+00 0.  1.
         -4    1    1    2    0  501  0.20368149066E+01  0.14727445904E+00 -0.55868442712E+01  0.59483723522E+01  0.00000000000E+00 0. -1.
<mgrwt>
<rscale>  0 0.20421324E+01</rscale>
<asrwt>0</asrwt>
<pdfrwt beam="1">0</pdfrwt>
<pdfrwt beam="2">0</pdfrwt>
<totfact> 0.12497674E+11</totfact>
</mgrwt>
</event>
<event>
 4    2  0.1985873E+006  0.2525615E+01  0.7546771E-02  0.2697344E+00
         22   -1    0    0    0    0  0.00000000000E+00  0.00000000000E+00  0.18426012137E+01  0.18426012137E+01  0.00000000000E+00 0.  1.
         22   -1    0    0    0    0 -0.00000000000E+00 -0.00000000000E+00 -0.90078244589E+01  0.90078244589E+01  0.00000000000E+00 0. -1.
          4    1    1    2  501    0  0.56491567345E+00  0.24616258942E+01  0.67432708983E+00  0.26140866063E+01  0.00000000000E+00 0.  1.
         -4    1    1    2    0  501 -0.56491567345E+00 -0.24616258942E+01 -0.78395503350E+01  0.82363390664E+01  0.00000000000E+00 0. -1.
<mgrwt>
<rscale>  0 0.25256151E+01</rscale>
<asrwt>0</asrwt>
<pdfrwt beam="1">0</pdfrwt>
<pdfrwt beam="2">0</pdfrwt>
<totfact> 0.89231807E+11</totfact>
</mgrwt>
</event>
<event>
 4    2  0.1985873E+006  0.2908305E+01  0.7546771E-02  0.2551975E+00
         22   -1    0    0    0    0  0.00000000000E+00  0.00000000000E+00  0.12441568008E+02  0.12441568008E+02  0.00000000000E+00 0. -1.
         22   -1    0    0    0    0 -0.00000000000E+00 -0.00000000000E+00 -0.85366339200E+01  0.85366339200E+01  0.00000000000E+00 0.  1.
          4    1    1    2  501    0  0.21557020384E+01 -0.19522266525E+01  0.12015240524E+02  0.12362210362E+02  0.00000000000E+00 0. -1.
         -4    1    1    2    0  501 -0.21557020384E+01  0.19522266525E+01 -0.81103064361E+01  0.86159915662E+01  0.00000000000E+00 0.  1.
<mgrwt>
<rscale>  0 0.29083054E+01</rscale>
<asrwt>0</asrwt>
<pdfrwt beam="1">0</pdfrwt>
<pdfrwt beam="2">0</pdfrwt>
<totfact> 0.99136517E+10</totfact>
</mgrwt>
</event>
<event>
 4    2  0.1985873E+006  0.2642048E+01  0.7546771E-02  0.2649035E+00
         22   -1    0    0    0    0  0.00000000000E+00  0.00000000000E+00  0.48110129437E+00  0.48110129437E+00  0.00000000000E+00 0.  1.
         22   -1    0    0    0    0 -0.00000000000E+00 -0.00000000000E+00 -0.22863999650E+02  0.22863999650E+02  0.00000000000E+00 0. -1.
          4    1    1    2  501    0  0.25453768245E+01 -0.70814910133E+00 -0.41354842676E+01  0.49074075086E+01  0.00000000000E+00 0. -1.
         -4    1    1    2    0  501 -0.25453768245E+01  0.70814910133E+00 -0.18247414088E+02  0.18437693436E+02  0.00000000000E+00 0.  1.
<mgrwt>
<rscale>  0 0.26420481E+01</rscale>
<asrwt>0</asrwt>
<pdfrwt beam="1">0</pdfrwt>
<pdfrwt beam="2">0</pdfrwt>
<totfact> 0.13146857E+12</totfact>
</mgrwt>
</event>
<event>
 4    2  0.1985873E+006  0.2000057E+01  0.7546771E-02  0.2980691E+00
         22   -1    0    0    0    0  0.00000000000E+00  0.00000000000E+00  0.11648547449E+02  0.11648547449E+02  0.00000000000E+00 0. -1.
         22   -1    0    0    0    0 -0.00000000000E+00 -0.00000000000E+00 -0.80663148802E+00  0.80663148802E+00  0.00000000000E+00 0.  1.
          4    1    1    2  501    0 -0.73164558488E+00  0.18614300073E+01  0.10140249100E+02  0.10335612161E+02  0.00000000000E+00 0. -1.
         -4    1    1    2    0  501  0.73164558488E+00 -0.18614300073E+01  0.70166686099E+00  0.21195667760E+01  0.00000000000E+00 0.  1.
<mgrwt>
<rscale>  0 0.20000567E+01</rscale>
<asrwt>0</asrwt>
<pdfrwt beam="1">0</pdfrwt>
<pdfrwt beam="2">0</pdfrwt>
<totfact> 0.16841144E+12</totfact>
</mgrwt>
</event>
<event>
 4    2  0.1985873E+006  0.2297111E+01  0.7546771E-02  0.2805350E+00
         22   -1    0    0    0    0  0.00000000000E+00  0.00000000000E+00  0.47638259610E+01  0.47638259610E+01  0.00000000000E+00 0. -1.
         22   -1    0    0    0    0 -0.00000000000E+00 -0.00000000000E+00 -0.54203365455E+01  0.54203365455E+01  0.00000000000E+00 0.  1.
          4    1    1    2  501    0  0.11268469226E+01 -0.20017330266E+01  0.42138315632E+01  0.47992807315E+01  0.00000000000E+00 0. -1.
         -4    1    1    2    0  501 -0.11268469226E+01  0.20017330266E+01 -0.48703421476E+01  0.53848817751E+01  0.00000000000E+00 0.  1.
<mgrwt>
<rscale>  0 0.22971110E+01</rscale>
<asrwt>0</asrwt>
<pdfrwt beam="1">0</pdfrwt>
<pdfrwt beam="2">0</pdfrwt>
<totfact> 0.54010920E+11</totfact>
</mgrwt>
</event>
<event>
 4    2  0.1985873E+006  0.2157944E+01  0.7546771E-02  0.2881699E+00
         22   -1    0    0    0    0  0.00000000000E+00  0.00000000000E+00  0.24375704196E+00  0.24375704196E+00  0.00000000000E+00 0. -1.
         22   -1    0    0    0    0 -0.00000000000E+00 -0.00000000000E+00 -0.60555154862E+02  0.60555154862E+02  0.00000000000E+00 0.  1.
          4    1    1    2  501    0  0.14486377716E+01  0.15994279890E+01 -0.50044906247E+01  0.54499218066E+01  0.00000000000E+00 0. -1.
         -4    1    1    2    0  501 -0.14486377716E+01 -0.15994279890E+01 -0.55306907195E+02  0.55348990097E+02  0.00000000000E+00 0.  1.
<mgrwt>
<rscale>  0 0.21579438E+01</rscale>
<asrwt>0</asrwt>
<pdfrwt beam="1">0</pdfrwt>
<pdfrwt beam="2">0</pdfrwt>
<totfact> 0.80041400E+11</totfact>
</mgrwt>
</event>
<event>
 4    2  0.1985873E+006  0.3906939E+01  0.7546771E-02  0.2295444E+00
         22   -1    0    0    0    0  0.00000000000E+00  0.00000000000E+00  0.92470536960E+01  0.92470536960E+01  0.00000000000E+00 0.  1.
         22   -1    0    0    0    0 -0.00000000000E+00 -0.00000000000E+00 -0.19315186626E+01  0.19315186626E+01  0.00000000000E+00 0. -1.
          4    1    1    2  501    0  0.28670789264E+01 -0.26540588183E+01  0.57889223580E+01  0.69839667703E+01  0.00000000000E+00 0.  1.
         -4    1    1    2    0  501 -0.28670789264E+01  0.26540588183E+01  0.15266126753E+01  0.41946055883E+01  0.00000000000E+00 0. -1.
<mgrwt>
<rscale>  0 0.39069387E+01</rscale>
<asrwt>0</asrwt>
<pdfrwt beam="1">0</pdfrwt>
<pdfrwt beam="2">0</pdfrwt>
<totfact> 0.81871363E+11</totfact>
</mgrwt>
</event>
<event>
 4    2  0.1985873E+006  0.2046249E+01  0.7546771E-02  0.2950190E+00
         22   -1    0    0    0    0  0.00000000000E+00  0.00000000000E+00  0.27996429664E+00  0.27996429664E+00  0.00000000000E+00 0. -1.
         22   -1    0    0    0    0 -0.00000000000E+00 -0.00000000000E+00 -0.14960024551E+02  0.14960024551E+02  0.00000000000E+00 0.  1.
          4    1    1    2  501    0 -0.16074021737E+01 -0.12662520750E+01 -0.72144972766E+01  0.74990737441E+01  0.00000000000E+00 0. -1.
         -4    1    1    2    0  501  0.16074021737E+01  0.12662520750E+01 -0.74655629776E+01  0.77409151034E+01  0.00000000000E+00 0.  1.
<mgrwt>
<rscale>  0 0.20462493E+01</rscale>
<asrwt>0</asrwt>
<pdfrwt beam="1">0</pdfrwt>
<pdfrwt beam="2">0</pdfrwt>
<totfact> 0.40930126E+12</totfact>
</mgrwt>
</event>
<event>
 4    2  0.1985873E+006  0.3968185E+01  0.7546771E-02  0.2283418E+00
         22   -1    0    0    0    0  0.00000000000E+00  0.00000000000E+00  0.77393359392E+01  0.77393359392E+01  0.00000000000E+00 0.  1.
         22   -1    0    0    0    0 -0.00000000000E+00 -0.00000000000E+00 -0.67824074005E+01  0.67824074005E+01  0.00000000000E+00 0. -1.
          4    1    1    2  501    0 -0.32429756712E+01  0.22868324528E+01  0.65534201593E+01  0.76611885276E+01  0.00000000000E+00 0.  1.
         -4    1    1    2    0  501  0.32429756712E+01 -0.22868324528E+01 -0.55964916205E+01  0.68605548121E+01  0.00000000000E+00 0. -1.
<mgrwt>
<rscale>  0 0.39681852E+01</rscale>
<asrwt>0</asrwt>
<pdfrwt beam="1">0</pdfrwt>
<pdfrwt beam="2">0</pdfrwt>
<totfact> 0.23204976E+11</totfact>
</mgrwt>
</event>
<event>
 4    2  0.1985873E+006  0.2134124E+01  0.7546771E-02  0.2895722E+00
         22   -1    0    0    0    0  0.00000000000E+00  0.00000000000E+00  0.26164877321E+00  0.26164877321E+00  0.00000000000E+00 0.  1.
         22   -1    0    0    0    0 -0.00000000000E+00 -0.00000000000E+00 -0.31414438496E+02  0.31414438496E+02  0.00000000000E+00 0. -1.
          4    1    1    2  501    0  0.20408860634E+01  0.62391459476E+00 -0.50004711040E+01  0.54368370040E+01  0.00000000000E+00 0.  1.
         -4    1    1    2    0  501 -0.20408860634E+01 -0.62391459476E+00 -0.26152318619E+02  0.26239250266E+02  0.00000000000E+00 0. -1.
<mgrwt>
<rscale>  0 0.21341240E+01</rscale>
<asrwt>0</asrwt>
<pdfrwt beam="1">0</pdfrwt>
<pdfrwt beam="2">0</pdfrwt>
<totfact> 0.17431346E+12</totfact>
</mgrwt>
</event>
<event>
 4    2  0.1985873E+006  0.2068618E+01  0.7546771E-02  0.2935899E+00
         22   -1    0    0    0    0  0.00000000000E+00  0.00000000000E+00  0.14984394475E+01  0.14984394475E+01  0.00000000000E+00 0.  1.
         22   -1    0    0    0    0 -0.00000000000E+00 -0.00000000000E+00 -0.31373686282E+01  0.31373686282E+01  0.00000000000E+00 0. -1.
          4    1    1    2  501    0  0.19406162774E+01 -0.71637076098E+00 -0.12501913018E+00  0.20723919480E+01  0.00000000000E+00 0.  1.
         -4    1    1    2    0  501 -0.19406162774E+01  0.71637076098E+00 -0.15139100505E+01  0.25634161278E+01  0.00000000000E+00 0. -1.
<mgrwt>
<rscale>  0 0.20686176E+01</rscale>
<asrwt>0</asrwt>
<pdfrwt beam="1">0</pdfrwt>
<pdfrwt beam="2">0</pdfrwt>
<totfact> 0.39590662E+12</totfact>
</mgrwt>
</event>
<event>
 4    2  0.1985873E+006  0.2310623E+01  0.7546771E-02  0.2798405E+00
         22   -1    0    0    0    0  0.00000000000E+00  0.00000000000E+00  0.12869504525E+02  0.12869504525E+02  0.00000000000E+00 0.  1.
         22   -1    0    0    0    0 -0.00000000000E+00 -0.00000000000E+00 -0.11375071532E+01  0.11375071532E+01  0.00000000000E+00 0. -1.
          4    1    1    2  501    0  0.89844991330E+00  0.21287947887E+01  0.11448168570E+02  0.11679021496E+02  0.00000000000E+00 0.  1.
         -4    1    1    2    0  501 -0.89844991330E+00 -0.21287947887E+01  0.28382880176E+00  0.23279901821E+01  0.00000000000E+00 0. -1.
<mgrwt>
<rscale>  0 0.23106232E+01</rscale>
<asrwt>0</asrwt>
<pdfrwt beam="1">0</pdfrwt>
<pdfrwt beam="2">0</pdfrwt>
<totfact> 0.10074735E+12</totfact>
</mgrwt>
</event>
<event>
 4    2  0.1985873E+006  0.2039399E+01  0.7546771E-02  0.2954628E+00
         22   -1    0    0    0    0  0.00000000000E+00  0.00000000000E+00  0.17175451989E+02  0.17175451989E+02  0.00000000000E+00 0.  1.
         22   -1    0    0    0    0 -0.00000000000E+00 -0.00000000000E+00 -0.61425511048E+00  0.61425511048E+00  0.00000000000E+00 0. -1.
          4    1    1    2  501    0 -0.73680115475E+00  0.19016500158E+01  0.15203583427E+02  0.15339755465E+02  0.00000000000E+00 0.  1.
         -4    1    1    2    0  501  0.73680115475E+00 -0.19016500158E+01  0.13576134514E+01  0.24499516337E+01  0.00000000000E+00 0. -1.
<mgrwt>
<rscale>  0 0.20393991E+01</rscale>
<asrwt>0</asrwt>
<pdfrwt beam="1">0</pdfrwt>
<pdfrwt beam="2">0</pdfrwt>
<totfact> 0.14245364E+12</totfact>
</mgrwt>
</event>
<event>
 4    2  0.1985873E+006  0.2519559E+01  0.7546771E-02  0.2699969E+00
         22   -1    0    0    0    0  0.00000000000E+00  0.00000000000E+00  0.47357960901E+00  0.47357960901E+00  0.00000000000E+00 0.  1.
         22   -1    0    0    0    0 -0.00000000000E+00 -0.00000000000E+00 -0.17597944844E+02  0.17597944844E+02  0.00000000000E+00 0. -1.
          4    1    1    2  501    0  0.76782664956E+00  0.23997123897E+01 -0.41514513504E+01  0.48562048589E+01  0.00000000000E+00 0.  1.
         -4    1    1    2    0  501 -0.76782664956E+00 -0.23997123897E+01 -0.12972913885E+02  0.13215319594E+02  0.00000000000E+00 0. -1.
<mgrwt>
<rscale>  0 0.25195590E+01</rscale>
<asrwt>0</asrwt>
<pdfrwt beam="1">0</pdfrwt>
<pdfrwt beam="2">0</pdfrwt>
<totfact> 0.18549860E+12</totfact>
</mgrwt>
</event>
<event>
 4    2  0.1985873E+006  0.2270593E+01  0.7546771E-02  0.2819209E+00
         22   -1    0    0    0    0  0.00000000000E+00  0.00000000000E+00  0.12060190042E+01  0.12060190042E+01  0.00000000000E+00 0. -1.
         22   -1    0    0    0    0 -0.00000000000E+00 -0.00000000000E+00 -0.42801007916E+01  0.42801007916E+01  0.00000000000E+00 0.  1.
          4    1    1    2  501    0  0.22257715044E+01  0.44892586815E+00 -0.14412894914E+01  0.26894067418E+01  0.00000000000E+00 0. -1.
         -4    1    1    2    0  501 -0.22257715044E+01 -0.44892586815E+00 -0.16327922960E+01  0.27967130540E+01  0.00000000000E+00 0.  1.
<mgrwt>
<rscale>  0 0.22705931E+01</rscale>
<asrwt>0</asrwt>
<pdfrwt beam="1">0</pdfrwt>
<pdfrwt beam="2">0</pdfrwt>
<totfact> 0.35277536E+12</totfact>
</mgrwt>
</event>
<event>
 4    2  0.1985873E+006  0.4271937E+01  0.7546771E-02  0.2228143E+00
         22   -1    0    0    0    0  0.00000000000E+00  0.00000000000E+00  0.11880846847E+01  0.11880846847E+01  0.00000000000E+00 0.  1.
         22   -1    0    0    0    0 -0.00000000000E+00 -0.00000000000E+00 -0.15658924808E+02  0.15658924808E+02  0.00000000000E+00 0. -1.
          4    1    1    2  501    0  0.41729844558E+01 -0.91413897145E+00 -0.83984908516E+01  0.94225313962E+01  0.00000000000E+00 0. -1.
         -4    1    1    2    0  501 -0.41729844558E+01  0.91413897145E+00 -0.60723492716E+01  0.74244780964E+01  0.00000000000E+00 0.  1.
<mgrwt>
<rscale>  0 0.42719374E+01</rscale>
<asrwt>0</asrwt>
<pdfrwt beam="1">0</pdfrwt>
<pdfrwt beam="2">0</pdfrwt>
<totfact> 0.75338687E+11</totfact>
</mgrwt>
</event>
<event>
 4    2  0.1985873E+006  0.2285723E+01  0.7546771E-02  0.2811264E+00
         22   -1    0    0    0    0  0.00000000000E+00  0.00000000000E+00  0.31938455266E+00  0.31938455266E+00  0.00000000000E+00 0. -1.
         22   -1    0    0    0    0 -0.00000000000E+00 -0.00000000000E+00 -0.51295749485E+02  0.51295749485E+02  0.00000000000E+00 0.  1.
          4    1    1    2  501    0  0.18341873801E+00  0.22783517933E+01 -0.41894812705E+01  0.47724503814E+01  0.00000000000E+00 0. -1.
         -4    1    1    2    0  501 -0.18341873801E+00 -0.22783517933E+01 -0.46786883662E+02  0.46842683656E+02  0.00000000000E+00 0.  1.
<mgrwt>
<rscale>  0 0.22857229E+01</rscale>
<asrwt>0</asrwt>
<pdfrwt beam="1">0</pdfrwt>
<pdfrwt beam="2">0</pdfrwt>
<totfact> 0.73746905E+11</totfact>
</mgrwt>
</event>
<event>
 4    2  0.1985873E+006  0.2322749E+01  0.7546771E-02  0.2792237E+00
         22   -1    0    0    0    0  0.00000000000E+00  0.00000000000E+00  0.18100218564E+00  0.18100218564E+00  0.00000000000E+00 0.  1.
         22   -1    0    0    0    0 -0.00000000000E+00 -0.00000000000E+00 -0.35902352998E+02  0.35902352998E+02  0.00000000000E+00 0. -1.
          4    1    1    2  501    0  0.59806328205E+00  0.22444341999E+01 -0.10426915825E+02  0.10682496815E+02  0.00000000000E+00 0. -1.
         -4    1    1    2    0  501 -0.59806328205E+00 -0.22444341999E+01 -0.25294434987E+02  0.25400858369E+02  0.00000000000E+00 0.  1.
<mgrwt>
<rscale>  0 0.23227494E+01</rscale>
<asrwt>0</asrwt>
<pdfrwt beam="1">0</pdfrwt>
<pdfrwt beam="2">0</pdfrwt>
<totfact> 0.22163876E+12</totfact>
</mgrwt>
</event>
<event>
 4    2  0.1985873E+006  0.4727834E+01  0.7546771E-02  0.2156964E+00
         22   -1    0    0    0    0  0.00000000000E+00  0.00000000000E+00  0.46061820968E+00  0.46061820968E+00  0.00000000000E+00 0. -1.
         22   -1    0    0    0    0 -0.00000000000E+00 -0.00000000000E+00 -0.48786457011E+02  0.48786457011E+02  0.00000000000E+00 0.  1.
          4    1    1    2  501    0  0.40288026528E+01 -0.24740982196E+01 -0.22367167587E+02  0.22861377882E+02  0.00000000000E+00 0. -1.
         -4    1    1    2    0  501 -0.40288026528E+01  0.24740982196E+01 -0.25958671215E+02  0.26385697339E+02  0.00000000000E+00 0.  1.
<mgrwt>
<rscale>  0 0.47278338E+01</rscale>
<asrwt>0</asrwt>
<pdfrwt beam="1">0</pdfrwt>
<pdfrwt beam="2">0</pdfrwt>
<totfact> 0.52191651E+11</totfact>
</mgrwt>
</event>
<event>
 4    2  0.1985873E+006  0.2588551E+01  0.7546771E-02  0.2670733E+00
         22   -1    0    0    0    0  0.00000000000E+00  0.00000000000E+00  0.23261460497E+01  0.23261460497E+01  0.00000000000E+00 0.  1.
         22   -1    0    0    0    0 -0.00000000000E+00 -0.00000000000E+00 -0.29826463800E+01  0.29826463800E+01  0.00000000000E+00 0. -1.
          4    1    1    2  501    0  0.89758089222E+00  0.24279512162E+01  0.16283075913E+00  0.25936677548E+01  0.00000000000E+00 0.  1.
         -4    1    1    2    0  501 -0.89758089222E+00 -0.24279512162E+01 -0.81933108950E+00  0.27151246749E+01  0.00000000000E+00 0. -1.
<mgrwt>
<rscale>  0 0.25885514E+01</rscale>
<asrwt>0</asrwt>
<pdfrwt beam="1">0</pdfrwt>
<pdfrwt beam="2">0</pdfrwt>
<totfact> 0.25265939E+12</totfact>
</mgrwt>
</event>
<event>
 4    2  0.1985873E+006  0.2158086E+01  0.7546771E-02  0.2881616E+00
         22   -1    0    0    0    0  0.00000000000E+00  0.00000000000E+00  0.59093824218E+01  0.59093824218E+01  0.00000000000E+00 0.  1.
         22   -1    0    0    0    0 -0.00000000000E+00 -0.00000000000E+00 -0.79514649693E+00  0.79514649693E+00  0.00000000000E+00 0. -1.
          4    1    1    2  501    0 -0.21522266178E+01 -0.15891907412E+00  0.22421143003E+01  0.31119786668E+01  0.00000000000E+00 0.  1.
         -4    1    1    2    0  501  0.21522266178E+01  0.15891907412E+00  0.28721216246E+01  0.35925502520E+01  0.00000000000E+00 0. -1.
<mgrwt>
<rscale>  0 0.21580859E+01</rscale>
<asrwt>0</asrwt>
<pdfrwt beam="1">0</pdfrwt>
<pdfrwt beam="2">0</pdfrwt>
<totfact> 0.38735457E+12</totfact>
</mgrwt>
</event>
<event>
 4    2  0.1985873E+006  0.2060404E+01  0.7546771E-02  0.2941112E+00
         22   -1    0    0    0    0  0.00000000000E+00  0.00000000000E+00  0.11688883703E+01  0.11688883703E+01  0.00000000000E+00 0. -1.
         22   -1    0    0    0    0 -0.00000000000E+00 -0.00000000000E+00 -0.87370054881E+01  0.87370054881E+01  0.00000000000E+00 0.  1.
          4    1    1    2  501    0  0.37801638515E+00  0.20254299113E+01  0.19846488338E-02  0.20604044875E+01  0.00000000000E+00 0. -1.
         -4    1    1    2    0  501 -0.37801638515E+00 -0.20254299113E+01 -0.75701017666E+01  0.78454893709E+01  0.00000000000E+00 0.  1.
<mgrwt>
<rscale>  0 0.20604035E+01</rscale>
<asrwt>0</asrwt>
<pdfrwt beam="1">0</pdfrwt>
<pdfrwt beam="2">0</pdfrwt>
<totfact> 0.15624795E+12</totfact>
</mgrwt>
</event>
<event>
 4    2  0.1985873E+006  0.2970205E+01  0.7546771E-02  0.2531680E+00
         22   -1    0    0    0    0  0.00000000000E+00  0.00000000000E+00  0.12918288118E+00  0.12918288118E+00  0.00000000000E+00 0.  1.
         22   -1    0    0    0    0 -0.00000000000E+00 -0.00000000000E+00 -0.69984247747E+02  0.69984247747E+02  0.00000000000E+00 0. -1.
          4    1    1    2  501    0  0.29522830359E+01 -0.32579299798E+00 -0.29475682592E+02  0.29624955366E+02  0.00000000000E+00 0. -1.
         -4    1    1    2    0  501 -0.29522830359E+01  0.32579299798E+00 -0.40379382274E+02  0.40488475261E+02  0.00000000000E+00 0.  1.
<mgrwt>
<rscale>  0 0.29702047E+01</rscale>
<asrwt>0</asrwt>
<pdfrwt beam="1">0</pdfrwt>
<pdfrwt beam="2">0</pdfrwt>
<totfact> 0.13360790E+12</totfact>
</mgrwt>
</event>
<event>
 4    2  0.1985873E+006  0.2296888E+01  0.7546771E-02  0.2805466E+00
         22   -1    0    0    0    0  0.00000000000E+00  0.00000000000E+00  0.38258947472E+01  0.38258947472E+01  0.00000000000E+00 0.  1.
         22   -1    0    0    0    0 -0.00000000000E+00 -0.00000000000E+00 -0.14093248482E+01  0.14093248482E+01  0.00000000000E+00 0. -1.
          4    1    1    2  501    0 -0.10723627096E+01 -0.20311895205E+01  0.15926137729E+01  0.27950154345E+01  0.00000000000E+00 0.  1.
         -4    1    1    2    0  501  0.10723627096E+01  0.20311895205E+01  0.82395612610E+00  0.24402041609E+01  0.00000000000E+00 0. -1.
<mgrwt>
<rscale>  0 0.22968876E+01</rscale>
<asrwt>0</asrwt>
<pdfrwt beam="1">0</pdfrwt>
<pdfrwt beam="2">0</pdfrwt>
<totfact> 0.33667616E+12</totfact>
</mgrwt>
</event>
<event>
 4    2  0.1985873E+006  0.2221773E+01  0.7546771E-02  0.2845546E+00
         22   -1    0    0    0    0  0.00000000000E+00  0.00000000000E+00  0.17719597343E+02  0.17719597343E+02  0.00000000000E+00 0.  1.
         22   -1    0    0    0    0 -0.00000000000E+00 -0.00000000000E+00 -0.51449061578E+00  0.51449061578E+00  0.00000000000E+00 0. -1.
          4    1    1    2  501    0 -0.19148969604E+01 -0.11266971958E+01  0.14776197353E+02  0.14942298523E+02  0.00000000000E+00 0.  1.
         -4    1    1    2    0  501  0.19148969604E+01  0.11266971958E+01  0.24289093740E+01  0.32917894354E+01  0.00000000000E+00 0. -1.
<mgrwt>
<rscale>  0 0.22217734E+01</rscale>
<asrwt>0</asrwt>
<pdfrwt beam="1">0</pdfrwt>
<pdfrwt beam="2">0</pdfrwt>
<totfact> 0.16748929E+12</totfact>
</mgrwt>
</event>
<event>
 4    2  0.1985873E+006  0.3614028E+01  0.7546771E-02  0.2357763E+00
         22   -1    0    0    0    0  0.00000000000E+00  0.00000000000E+00  0.42706438472E+00  0.42706438472E+00  0.00000000000E+00 0.  1.
         22   -1    0    0    0    0 -0.00000000000E+00 -0.00000000000E+00 -0.39867578080E+02  0.39867578080E+02  0.00000000000E+00 0. -1.
          4    1    1    2  501    0  0.36034360677E+01 -0.27649091833E+00 -0.99978752551E+01  0.10631025743E+02  0.00000000000E+00 0.  1.
         -4    1    1    2    0  501 -0.36034360677E+01  0.27649091833E+00 -0.29442638440E+02  0.29663616722E+02  0.00000000000E+00 0. -1.
<mgrwt>
<rscale>  0 0.36140280E+01</rscale>
<asrwt>0</asrwt>
<pdfrwt beam="1">0</pdfrwt>
<pdfrwt beam="2">0</pdfrwt>
<totfact> 0.73995808E+11</totfact>
</mgrwt>
</event>
<event>
 4    2  0.1985873E+006  0.3471227E+01  0.7546771E-02  0.2391420E+00
         22   -1    0    0    0    0  0.00000000000E+00  0.00000000000E+00  0.11482165392E+01  0.11482165392E+01  0.00000000000E+00 0. -1.
         22   -1    0    0    0    0 -0.00000000000E+00 -0.00000000000E+00 -0.12890126999E+02  0.12890126999E+02  0.00000000000E+00 0.  1.
          4    1    1    2  501    0 -0.76039273595E+00 -0.33869190343E+01 -0.28446720732E+01  0.44879368157E+01  0.00000000000E+00 0.  1.
         -4    1    1    2    0  501  0.76039273595E+00  0.33869190343E+01 -0.88972383869E+01  0.95504067228E+01  0.00000000000E+00 0. -1.
<mgrwt>
<rscale>  0 0.34712271E+01</rscale>
<asrwt>0</asrwt>
<pdfrwt beam="1">0</pdfrwt>
<pdfrwt beam="2">0</pdfrwt>
<totfact> 0.99482505E+11</totfact>
</mgrwt>
</event>
<event>
 4    2  0.1985873E+006  0.2276565E+01  0.7546771E-02  0.2816061E+00
         22   -1    0    0    0    0  0.00000000000E+00  0.00000000000E+00  0.20856621271E+00  0.20856621271E+00  0.00000000000E+00 0.  1.
         22   -1    0    0    0    0 -0.00000000000E+00 -0.00000000000E+00 -0.24850575303E+02  0.24850575303E+02  0.00000000000E+00 0. -1.
          4    1    1    2  501    0  0.58422508960E+00 -0.22003244620E+01 -0.12406917156E+02  0.12614053275E+02  0.00000000000E+00 0. -1.
         -4    1    1    2    0  501 -0.58422508960E+00  0.22003244620E+01 -0.12235091934E+02  0.12445088241E+02  0.00000000000E+00 0.  1.
<mgrwt>
<rscale>  0 0.22765647E+01</rscale>
<asrwt>0</asrwt>
<pdfrwt beam="1">0</pdfrwt>
<pdfrwt beam="2">0</pdfrwt>
<totfact> 0.30242001E+12</totfact>
</mgrwt>
</event>
<event>
 4    2  0.1985873E+006  0.2184485E+01  0.7546771E-02  0.2866419E+00
         22   -1    0    0    0    0  0.00000000000E+00  0.00000000000E+00  0.65471233264E+01  0.65471233264E+01  0.00000000000E+00 0.  1.
         22   -1    0    0    0    0 -0.00000000000E+00 -0.00000000000E+00 -0.22151281782E+01  0.22151281782E+01  0.00000000000E+00 0. -1.
          4    1    1    2  501    0  0.21537007754E+01  0.36544309967E+00  0.57546714982E+01  0.61553407494E+01  0.00000000000E+00 0.  1.
         -4    1    1    2    0  501 -0.21537007754E+01 -0.36544309967E+00 -0.14226763499E+01  0.26069107553E+01  0.00000000000E+00 0. -1.
<mgrwt>
<rscale>  0 0.21844852E+01</rscale>
<asrwt>0</asrwt>
<pdfrwt beam="1">0</pdfrwt>
<pdfrwt beam="2">0</pdfrwt>
<totfact> 0.10572590E+12</totfact>
</mgrwt>
</event>
<event>
 4    2  0.1985873E+006  0.4719682E+01  0.7546771E-02  0.2158029E+00
         22   -1    0    0    0    0  0.00000000000E+00  0.00000000000E+00  0.50179000466E+01  0.50179000466E+01  0.00000000000E+00 0.  1.
         22   -1    0    0    0    0 -0.00000000000E+00 -0.00000000000E+00 -0.50610300507E+01  0.50610300507E+01  0.00000000000E+00 0. -1.
          4    1    1    2  501    0 -0.39572070511E+01  0.25721416633E+01  0.17449003064E+01  0.50319059471E+01  0.00000000000E+00 0.  1.
         -4    1    1    2    0  501  0.39572070511E+01 -0.25721416633E+01 -0.17880303105E+01  0.50470241502E+01  0.00000000000E+00 0. -1.
<mgrwt>
<rscale>  0 0.47196822E+01</rscale>
<asrwt>0</asrwt>
<pdfrwt beam="1">0</pdfrwt>
<pdfrwt beam="2">0</pdfrwt>
<totfact> 0.55095986E+11</totfact>
</mgrwt>
</event>
<event>
 4    2  0.1985873E+006  0.2467011E+01  0.7546771E-02  0.2723255E+00
         22   -1    0    0    0    0  0.00000000000E+00  0.00000000000E+00  0.65281242126E+00  0.65281242126E+00  0.00000000000E+00 0.  1.
         22   -1    0    0    0    0 -0.00000000000E+00 -0.00000000000E+00 -0.93321276125E+01  0.93321276125E+01  0.00000000000E+00 0. -1.
          4    1    1    2  501    0  0.17356240436E+01 -0.17532119046E+01 -0.44961524175E+01  0.51285016686E+01  0.00000000000E+00 0.  1.
         -4    1    1    2    0  501 -0.17356240436E+01  0.17532119046E+01 -0.41831627737E+01  0.48564383651E+01  0.00000000000E+00 0. -1.
<mgrwt>
<rscale>  0 0.24670109E+01</rscale>
<asrwt>0</asrwt>
<pdfrwt beam="1">0</pdfrwt>
<pdfrwt beam="2">0</pdfrwt>
<totfact> 0.28026044E+12</totfact>
</mgrwt>
</event>
<event>
 4    2  0.1985873E+006  0.3131820E+01  0.7546771E-02  0.2482096E+00
         22   -1    0    0    0    0  0.00000000000E+00  0.00000000000E+00  0.11946102361E+02  0.11946102361E+02  0.00000000000E+00 0. -1.
         22   -1    0    0    0    0 -0.00000000000E+00 -0.00000000000E+00 -0.87796461491E+00  0.87796461491E+00  0.00000000000E+00 0.  1.
          4    1    1    2  501    0  0.34837867013E+00 -0.31123832178E+01  0.71666894160E+01  0.78211082448E+01  0.00000000000E+00 0. -1.
         -4    1    1    2    0  501 -0.34837867013E+00  0.31123832178E+01  0.39014483299E+01  0.50029587309E+01  0.00000000000E+00 0.  1.
<mgrwt>
<rscale>  0 0.31318201E+01</rscale>
<asrwt>0</asrwt>
<pdfrwt beam="1">0</pdfrwt>
<pdfrwt beam="2">0</pdfrwt>
<totfact> 0.14831242E+12</totfact>
</mgrwt>
</event>
<event>
 4    2  0.1985873E+006  0.3527984E+01  0.7546771E-02  0.2377759E+00
         22   -1    0    0    0    0  0.00000000000E+00  0.00000000000E+00  0.76421547429E+01  0.76421547429E+01  0.00000000000E+00 0. -1.
         22   -1    0    0    0    0 -0.00000000000E+00 -0.00000000000E+00 -0.26407537757E+01  0.26407537757E+01  0.00000000000E+00 0.  1.
          4    1    1    2  501    0 -0.27536443995E+01 -0.22054735361E+01  0.56836284100E+01  0.66895667200E+01  0.00000000000E+00 0. -1.
         -4    1    1    2    0  501  0.27536443995E+01  0.22054735361E+01 -0.68222744281E+00  0.35933417986E+01  0.00000000000E+00 0.  1.
<mgrwt>
<rscale>  0 0.35279840E+01</rscale>
<asrwt>0</asrwt>
<pdfrwt beam="1">0</pdfrwt>
<pdfrwt beam="2">0</pdfrwt>
<totfact> 0.71635243E+11</totfact>
</mgrwt>
</event>
<event>
 4    2  0.1985873E+006  0.2300740E+01  0.7546771E-02  0.2803477E+00
         22   -1    0    0    0    0  0.00000000000E+00  0.00000000000E+00  0.44670684214E+00  0.44670684214E+00  0.00000000000E+00 0. -1.
         22   -1    0    0    0    0 -0.00000000000E+00 -0.00000000000E+00 -0.23046219261E+02  0.23046219261E+02  0.00000000000E+00 0.  1.
          4    1    1    2  501    0 -0.83582604081E+00 -0.21435487661E+01 -0.31123565355E+01  0.38704224171E+01  0.00000000000E+00 0. -1.
         -4    1    1    2    0  501  0.83582604081E+00  0.21435487661E+01 -0.19487155884E+02  0.19622503686E+02  0.00000000000E+00 0.  1.
<mgrwt>
<rscale>  0 0.23007404E+01</rscale>
<asrwt>0</asrwt>
<pdfrwt beam="1">0</pdfrwt>
<pdfrwt beam="2">0</pdfrwt>
<totfact> 0.14151902E+12</totfact>
</mgrwt>
</event>
<event>
 4    2  0.1985873E+006  0.2085228E+01  0.7546771E-02  0.2925480E+00
         22   -1    0    0    0    0  0.00000000000E+00  0.00000000000E+00  0.65662434119E+00  0.65662434119E+00  0.00000000000E+00 0. -1.
         22   -1    0    0    0    0 -0.00000000000E+00 -0.00000000000E+00 -0.18705353721E+02  0.18705353721E+02  0.00000000000E+00 0.  1.
          4    1    1    2  501    0  0.14179569319E+01 -0.15289126234E+01 -0.12434571283E+01  0.24278305750E+01  0.00000000000E+00 0. -1.
         -4    1    1    2    0  501 -0.14179569319E+01  0.15289126234E+01 -0.16805272251E+02  0.16934147487E+02  0.00000000000E+00 0.  1.
<mgrwt>
<rscale>  0 0.20852280E+01</rscale>
<asrwt>0</asrwt>
<pdfrwt beam="1">0</pdfrwt>
<pdfrwt beam="2">0</pdfrwt>
<totfact> 0.11881709E+12</totfact>
</mgrwt>
</event>
<event>
 4    2  0.1985873E+006  0.2203925E+01  0.7546771E-02  0.2855453E+00
         22   -1    0    0    0    0  0.00000000000E+00  0.00000000000E+00  0.13958652908E+01  0.13958652908E+01  0.00000000000E+00 0.  1.
         22   -1    0    0    0    0 -0.00000000000E+00 -0.00000000000E+00 -0.51881249010E+01  0.51881249010E+01  0.00000000000E+00 0. -1.
          4    1    1    2  501    0  0.26678778778E+00 -0.21877174359E+01 -0.70789845211E-02  0.22039358918E+01  0.00000000000E+00 0.  1.
         -4    1    1    2    0  501 -0.26678778778E+00  0.21877174359E+01 -0.37851806257E+01  0.43800543001E+01  0.00000000000E+00 0. -1.
<mgrwt>
<rscale>  0 0.22039245E+01</rscale>
<asrwt>0</asrwt>
<pdfrwt beam="1">0</pdfrwt>
<pdfrwt beam="2">0</pdfrwt>
<totfact> 0.23761699E+12</totfact>
</mgrwt>
</event>
<event>
 4    2  0.1985873E+006  0.2123146E+01  0.7546771E-02  0.2902288E+00
         22   -1    0    0    0    0  0.00000000000E+00  0.00000000000E+00  0.57079930688E+02  0.57079930688E+02  0.00000000000E+00 0.  1.
         22   -1    0    0    0    0 -0.00000000000E+00 -0.00000000000E+00 -0.25000610879E+00  0.25000610879E+00  0.00000000000E+00 0. -1.
          4    1    1    2  501    0 -0.13585968920E+01 -0.16315528180E+01  0.52124155134E+02  0.52167377724E+02  0.00000000000E+00 0.  1.
         -4    1    1    2    0  501  0.13585968920E+01  0.16315528180E+01  0.47057694443E+01  0.51625590724E+01  0.00000000000E+00 0. -1.
<mgrwt>
<rscale>  0 0.21231463E+01</rscale>
<asrwt>0</asrwt>
<pdfrwt beam="1">0</pdfrwt>
<pdfrwt beam="2">0</pdfrwt>
<totfact> 0.84199715E+11</totfact>
</mgrwt>
</event>
<event>
 4    2  0.1985873E+006  0.1651901E+02  0.7546771E-02  0.1593436E+00
         22   -1    0    0    0    0  0.00000000000E+00  0.00000000000E+00  0.21304375531E+02  0.21304375531E+02  0.00000000000E+00 0.  1.
         22   -1    0    0    0    0 -0.00000000000E+00 -0.00000000000E+00 -0.13248966994E+02  0.13248966994E+02  0.00000000000E+00 0. -1.
          4    1    1    2  501    0 -0.24751224641E+01 -0.16332526285E+02  0.71777217955E+01  0.18011033736E+02  0.00000000000E+00 0. -1.
         -4    1    1    2    0  501  0.24751224641E+01  0.16332526285E+02  0.87768674145E+00  0.16542308789E+02  0.00000000000E+00 0.  1.
<mgrwt>
<rscale>  0 0.16519009E+02</rscale>
<asrwt>0</asrwt>
<pdfrwt beam="1">0</pdfrwt>
<pdfrwt beam="2">0</pdfrwt>
<totfact> 0.29919495E+10</totfact>
</mgrwt>
</event>
<event>
 4    2  0.1985873E+006  0.3630843E+01  0.7546771E-02  0.2353951E+00
         22   -1    0    0    0    0  0.00000000000E+00  0.00000000000E+00  0.87857607799E+01  0.87857607799E+01  0.00000000000E+00 0.  1.
         22   -1    0    0    0    0 -0.00000000000E+00 -0.00000000000E+00 -0.16007940595E+01  0.16007940595E+01  0.00000000000E+00 0. -1.
          4    1    1    2  501    0 -0.14560155180E+01 -0.33261143985E+01  0.48923994122E+01  0.60925027854E+01  0.00000000000E+00 0.  1.
         -4    1    1    2    0  501  0.14560155180E+01  0.33261143985E+01  0.22925673081E+01  0.42940520540E+01  0.00000000000E+00 0. -1.
<mgrwt>
<rscale>  0 0.36308426E+01</rscale>
<asrwt>0</asrwt>
<pdfrwt beam="1">0</pdfrwt>
<pdfrwt beam="2">0</pdfrwt>
<totfact> 0.10816669E+12</totfact>
</mgrwt>
</event>
<event>
 4    2  0.1985873E+006  0.2310281E+01  0.7546771E-02  0.2798580E+00
         22   -1    0    0    0    0  0.00000000000E+00  0.00000000000E+00  0.10344114660E+02  0.10344114660E+02  0.00000000000E+00 0. -1.
         22   -1    0    0    0    0 -0.00000000000E+00 -0.00000000000E+00 -0.28233842355E+01  0.28233842355E+01  0.00000000000E+00 0.  1.
          4    1    1    2  501    0  0.23072013403E+01 -0.11924636356E+00  0.97121849316E+01  0.99831825520E+01  0.00000000000E+00 0. -1.
         -4    1    1    2    0  501 -0.23072013403E+01  0.11924636356E+00 -0.21914545071E+01  0.31843163437E+01  0.00000000000E+00 0.  1.
<mgrwt>
<rscale>  0 0.23102809E+01</rscale>
<asrwt>0</asrwt>
<pdfrwt beam="1">0</pdfrwt>
<pdfrwt beam="2">0</pdfrwt>
<totfact> 0.45994912E+11</totfact>
</mgrwt>
</event>
<event>
 4    2  0.1985873E+006  0.2347249E+01  0.7546771E-02  0.2779960E+00
         22   -1    0    0    0    0  0.00000000000E+00  0.00000000000E+00  0.21747925555E+01  0.21747925555E+01  0.00000000000E+00 0. -1.
         22   -1    0    0    0    0 -0.00000000000E+00 -0.00000000000E+00 -0.75469562863E+01  0.75469562863E+01  0.00000000000E+00 0.  1.
          4    1    1    2  501    0 -0.11104614773E+01  0.20679582732E+01  0.12758070542E+01  0.26715650379E+01  0.00000000000E+00 0. -1.
         -4    1    1    2    0  501  0.11104614773E+01 -0.20679582732E+01 -0.66479707849E+01  0.70501838039E+01  0.00000000000E+00 0.  1.
<mgrwt>
<rscale>  0 0.23472486E+01</rscale>
<asrwt>0</asrwt>
<pdfrwt beam="1">0</pdfrwt>
<pdfrwt beam="2">0</pdfrwt>
<totfact> 0.91119561E+11</totfact>
</mgrwt>
</event>
<event>
 4    2  0.1985873E+006  0.3593206E+01  0.7546771E-02  0.2362525E+00
         22   -1    0    0    0    0  0.00000000000E+00  0.00000000000E+00  0.85852938151E+01  0.85852938151E+01  0.00000000000E+00 0.  1.
         22   -1    0    0    0    0 -0.00000000000E+00 -0.00000000000E+00 -0.19181571980E+01  0.19181571980E+01  0.00000000000E+00 0. -1.
          4    1    1    2  501    0 -0.10751754094E+01  0.34285753677E+01  0.57742592511E+01  0.68009706007E+01  0.00000000000E+00 0.  1.
         -4    1    1    2    0  501  0.10751754094E+01 -0.34285753677E+01  0.89287736607E+00  0.37024804124E+01  0.00000000000E+00 0. -1.
<mgrwt>
<rscale>  0 0.35932063E+01</rscale>
<asrwt>0</asrwt>
<pdfrwt beam="1">0</pdfrwt>
<pdfrwt beam="2">0</pdfrwt>
<totfact> 0.90262186E+11</totfact>
</mgrwt>
</event>
<event>
 4    2  0.1985873E+006  0.2233558E+01  0.7546771E-02  0.2839088E+00
         22   -1    0    0    0    0  0.00000000000E+00  0.00000000000E+00  0.44172824723E+01  0.44172824723E+01  0.00000000000E+00 0. -1.
         22   -1    0    0    0    0 -0.00000000000E+00 -0.00000000000E+00 -0.18587738703E+01  0.18587738703E+01  0.00000000000E+00 0.  1.
          4    1    1    2  501    0 -0.75821331985E+00 -0.21009273017E+01  0.32449899770E+01  0.39393835706E+01  0.00000000000E+00 0. -1.
         -4    1    1    2    0  501  0.75821331985E+00  0.21009273017E+01 -0.68648137490E+00  0.23366727720E+01  0.00000000000E+00 0.  1.
<mgrwt>
<rscale>  0 0.22335584E+01</rscale>
<asrwt>0</asrwt>
<pdfrwt beam="1">0</pdfrwt>
<pdfrwt beam="2">0</pdfrwt>
<totfact> 0.20661527E+12</totfact>
</mgrwt>
</event>
<event>
 4    2  0.1985873E+006  0.2251880E+01  0.7546771E-02  0.2829175E+00
         22   -1    0    0    0    0  0.00000000000E+00  0.00000000000E+00  0.36786131786E-01  0.36786131786E-01  0.00000000000E+00 0. -1.
         22   -1    0    0    0    0 -0.00000000000E+00 -0.00000000000E+00 -0.14518007977E+03  0.14518007977E+03  0.00000000000E+00 0.  1.
          4    1    1    2  501    0  0.16322853359E+00  0.22459559888E+01 -0.56256422098E+02  0.56301474129E+02  0.00000000000E+00 0. -1.
         -4    1    1    2    0  501 -0.16322853359E+00 -0.22459559888E+01 -0.88886871538E+02  0.88915391770E+02  0.00000000000E+00 0.  1.
<mgrwt>
<rscale>  0 0.22518796E+01</rscale>
<asrwt>0</asrwt>
<pdfrwt beam="1">0</pdfrwt>
<pdfrwt beam="2">0</pdfrwt>
<totfact> 0.19058823E+12</totfact>
</mgrwt>
</event>
<event>
 4    2  0.1985873E+006  0.3178596E+01  0.7546771E-02  0.2468587E+00
         22   -1    0    0    0    0  0.00000000000E+00  0.00000000000E+00  0.47372755743E+01  0.47372755743E+01  0.00000000000E+00 0.  1.
         22   -1    0    0    0    0 -0.00000000000E+00 -0.00000000000E+00 -0.25955804798E+02  0.25955804798E+02  0.00000000000E+00 0. -1.
          4    1    1    2  501    0  0.26934382938E+01 -0.16878579119E+01  0.40932581530E+01  0.51824932687E+01  0.00000000000E+00 0.  1.
         -4    1    1    2    0  501 -0.26934382938E+01  0.16878579119E+01 -0.25311787377E+02  0.25510587104E+02  0.00000000000E+00 0. -1.
<mgrwt>
<rscale>  0 0.31785963E+01</rscale>
<asrwt>0</asrwt>
<pdfrwt beam="1">0</pdfrwt>
<pdfrwt beam="2">0</pdfrwt>
<totfact> 0.80330381E+10</totfact>
</mgrwt>
</event>
<event>
 4    2  0.1985873E+006  0.2022647E+01  0.7546771E-02  0.2965604E+00
         22   -1    0    0    0    0  0.00000000000E+00  0.00000000000E+00  0.72280853991E+00  0.72280853991E+00  0.00000000000E+00 0. -1.
         22   -1    0    0    0    0 -0.00000000000E+00 -0.00000000000E+00 -0.82891145663E+01  0.82891145663E+01  0.00000000000E+00 0.  1.
          4    1    1    2  501    0  0.91788393791E+00  0.18023839802E+01 -0.12454670976E+01  0.23753499168E+01  0.00000000000E+00 0. -1.
         -4    1    1    2    0  501 -0.91788393791E+00 -0.18023839802E+01 -0.63208389287E+01  0.66365731894E+01  0.00000000000E+00 0.  1.
<mgrwt>
<rscale>  0 0.20226465E+01</rscale>
<asrwt>0</asrwt>
<pdfrwt beam="1">0</pdfrwt>
<pdfrwt beam="2">0</pdfrwt>
<totfact> 0.28798504E+12</totfact>
</mgrwt>
</event>
<event>
 4    2  0.1985873E+006  0.3502887E+01  0.7546771E-02  0.2383752E+00
         22   -1    0    0    0    0  0.00000000000E+00  0.00000000000E+00  0.50257682084E+01  0.50257682084E+01  0.00000000000E+00 0. -1.
         22   -1    0    0    0    0 -0.00000000000E+00 -0.00000000000E+00 -0.49133295985E+01  0.49133295985E+01  0.00000000000E+00 0.  1.
          4    1    1    2  501    0  0.30972750036E+01  0.16361853019E+01  0.35810783077E+01  0.50094247810E+01  0.00000000000E+00 0. -1.
         -4    1    1    2    0  501 -0.30972750036E+01 -0.16361853019E+01 -0.34686396978E+01  0.49296730260E+01  0.00000000000E+00 0.  1.
<mgrwt>
<rscale>  0 0.35028866E+01</rscale>
<asrwt>0</asrwt>
<pdfrwt beam="1">0</pdfrwt>
<pdfrwt beam="2">0</pdfrwt>
<totfact> 0.56956296E+11</totfact>
</mgrwt>
</event>
<event>
 4    2  0.1985873E+006  0.3193813E+01  0.7546771E-02  0.2464268E+00
         22   -1    0    0    0    0  0.00000000000E+00  0.00000000000E+00  0.35288562919E+01  0.35288562919E+01  0.00000000000E+00 0.  1.
         22   -1    0    0    0    0 -0.00000000000E+00 -0.00000000000E+00 -0.57497869166E+01  0.57497869166E+01  0.00000000000E+00 0. -1.
          4    1    1    2  501    0  0.31418144018E+01  0.57397089423E+00  0.21610685569E+01  0.38562491661E+01  0.00000000000E+00 0.  1.
         -4    1    1    2    0  501 -0.31418144018E+01 -0.57397089423E+00 -0.43819991817E+01  0.54223940424E+01  0.00000000000E+00 0. -1.
<mgrwt>
<rscale>  0 0.31938128E+01</rscale>
<asrwt>0</asrwt>
<pdfrwt beam="1">0</pdfrwt>
<pdfrwt beam="2">0</pdfrwt>
<totfact> 0.71701296E+11</totfact>
</mgrwt>
</event>
<event>
 4    2  0.1985873E+006  0.2079786E+01  0.7546771E-02  0.2928875E+00
         22   -1    0    0    0    0  0.00000000000E+00  0.00000000000E+00  0.29832703043E+01  0.29832703043E+01  0.00000000000E+00 0.  1.
         22   -1    0    0    0    0 -0.00000000000E+00 -0.00000000000E+00 -0.19295098943E+01  0.19295098943E+01  0.00000000000E+00 0. -1.
          4    1    1    2  501    0  0.20566413699E+01  0.30941459335E+00  0.17515179920E+01  0.27190671914E+01  0.00000000000E+00 0.  1.
         -4    1    1    2    0  501 -0.20566413699E+01 -0.30941459335E+00 -0.69775758198E+00  0.21937130072E+01  0.00000000000E+00 0. -1.
<mgrwt>
<rscale>  0 0.20797863E+01</rscale>
<asrwt>0</asrwt>
<pdfrwt beam="1">0</pdfrwt>
<pdfrwt beam="2">0</pdfrwt>
<totfact> 0.31368167E+12</totfact>
</mgrwt>
</event>
<event>
 4    2  0.1985873E+006  0.2079068E+01  0.7546771E-02  0.2929325E+00
         22   -1    0    0    0    0  0.00000000000E+00  0.00000000000E+00  0.20786596411E+01  0.20786596411E+01  0.00000000000E+00 0.  1.
         22   -1    0    0    0    0 -0.00000000000E+00 -0.00000000000E+00 -0.29701339890E+01  0.29701339890E+01  0.00000000000E+00 0. -1.
          4    1    1    2  501    0 -0.10618672865E+01  0.17874452517E+01  0.93663539391E+00  0.22803088657E+01  0.00000000000E+00 0.  1.
         -4    1    1    2    0  501  0.10618672865E+01 -0.17874452517E+01 -0.18281097418E+01  0.27684847643E+01  0.00000000000E+00 0. -1.
<mgrwt>
<rscale>  0 0.20790677E+01</rscale>
<asrwt>0</asrwt>
<pdfrwt beam="1">0</pdfrwt>
<pdfrwt beam="2">0</pdfrwt>
<totfact> 0.28926668E+12</totfact>
</mgrwt>
</event>
<event>
 4    2  0.1985873E+006  0.4812791E+01  0.7546771E-02  0.2146036E+00
         22   -1    0    0    0    0  0.00000000000E+00  0.00000000000E+00  0.24923611328E+01  0.24923611328E+01  0.00000000000E+00 0.  1.
         22   -1    0    0    0    0 -0.00000000000E+00 -0.00000000000E+00 -0.11721022153E+02  0.11721022153E+02  0.00000000000E+00 0. -1.
          4    1    1    2  501    0  0.25992832049E+01 -0.40505161375E+01 -0.78484740857E+01  0.92066008729E+01  0.00000000000E+00 0. -1.
         -4    1    1    2    0  501 -0.25992832049E+01  0.40505161375E+01 -0.13801869349E+01  0.50067824133E+01  0.00000000000E+00 0.  1.
<mgrwt>
<rscale>  0 0.48127907E+01</rscale>
<asrwt>0</asrwt>
<pdfrwt beam="1">0</pdfrwt>
<pdfrwt beam="2">0</pdfrwt>
<totfact> 0.45694239E+11</totfact>
</mgrwt>
</event>
<event>
 4    2  0.1985873E+006  0.4887648E+01  0.7546771E-02  0.2136658E+00
         22   -1    0    0    0    0  0.00000000000E+00  0.00000000000E+00  0.98129935005E+00  0.98129935005E+00  0.00000000000E+00 0.  1.
         22   -1    0    0    0    0 -0.00000000000E+00 -0.00000000000E+00 -0.25889416658E+02  0.25889416658E+02  0.00000000000E+00 0. -1.
          4    1    1    2  501    0  0.23662417768E+01 -0.42766809012E+01 -0.91718889882E+01  0.10392913321E+02  0.00000000000E+00 0. -1.
         -4    1    1    2    0  501 -0.23662417768E+01  0.42766809012E+01 -0.15736228320E+02  0.16477802688E+02  0.00000000000E+00 0.  1.
<mgrwt>
<rscale>  0 0.48876477E+01</rscale>
<asrwt>0</asrwt>
<pdfrwt beam="1">0</pdfrwt>
<pdfrwt beam="2">0</pdfrwt>
<totfact> 0.50065076E+11</totfact>
</mgrwt>
</event>
<event>
 4    2  0.1985873E+006  0.2005223E+01  0.7546771E-02  0.2977211E+00
         22   -1    0    0    0    0  0.00000000000E+00  0.00000000000E+00  0.15133241518E+01  0.15133241518E+01  0.00000000000E+00 0. -1.
         22   -1    0    0    0    0 -0.00000000000E+00 -0.00000000000E+00 -0.41275691596E+01  0.41275691596E+01  0.00000000000E+00 0.  1.
          4    1    1    2  501    0 -0.28775144031E+00  0.19844695796E+01  0.37637186614E+00  0.20402392471E+01  0.00000000000E+00 0. -1.
         -4    1    1    2    0  501  0.28775144031E+00 -0.19844695796E+01 -0.29906168740E+01  0.36006540643E+01  0.00000000000E+00 0.  1.
<mgrwt>
<rscale>  0 0.20052233E+01</rscale>
<asrwt>0</asrwt>
<pdfrwt beam="1">0</pdfrwt>
<pdfrwt beam="2">0</pdfrwt>
<totfact> 0.28368801E+12</totfact>
</mgrwt>
</event>
<event>
 4    2  0.1985873E+006  0.2525989E+01  0.7546771E-02  0.2697182E+00
         22   -1    0    0    0    0  0.00000000000E+00  0.00000000000E+00  0.12257461653E+01  0.12257461653E+01  0.00000000000E+00 0.  1.
         22   -1    0    0    0    0 -0.00000000000E+00 -0.00000000000E+00 -0.91727648354E+01  0.91727648354E+01  0.00000000000E+00 0. -1.
          4    1    1    2  501    0  0.82573661966E+00  0.23872114213E+01 -0.55421308055E+00  0.25860725964E+01  0.00000000000E+00 0.  1.
         -4    1    1    2    0  501 -0.82573661966E+00 -0.23872114213E+01 -0.73928055895E+01  0.78124384042E+01  0.00000000000E+00 0. -1.
<mgrwt>
<rscale>  0 0.25259888E+01</rscale>
<asrwt>0</asrwt>
<pdfrwt beam="1">0</pdfrwt>
<pdfrwt beam="2">0</pdfrwt>
<totfact> 0.13954781E+12</totfact>
</mgrwt>
</event>
<event>
 4    2  0.1985873E+006  0.2153065E+01  0.7546771E-02  0.2884546E+00
         22   -1    0    0    0    0  0.00000000000E+00  0.00000000000E+00  0.18815326633E+00  0.18815326633E+00  0.00000000000E+00 0. -1.
         22   -1    0    0    0    0 -0.00000000000E+00 -0.00000000000E+00 -0.34554770949E+02  0.34554770949E+02  0.00000000000E+00 0.  1.
          4    1    1    2  501    0 -0.87658325977E-03 -0.21530651763E+01 -0.78771391371E+01  0.81660891133E+01  0.00000000000E+00 0. -1.
         -4    1    1    2    0  501  0.87658325977E-03  0.21530651763E+01 -0.26489478546E+02  0.26576835102E+02  0.00000000000E+00 0.  1.
<mgrwt>
<rscale>  0 0.21530654E+01</rscale>
<asrwt>0</asrwt>
<pdfrwt beam="1">0</pdfrwt>
<pdfrwt beam="2">0</pdfrwt>
<totfact> 0.22297629E+12</totfact>
</mgrwt>
</event>
<event>
 4    2  0.1985873E+006  0.5825351E+01  0.7546771E-02  0.2035714E+00
         22   -1    0    0    0    0  0.00000000000E+00  0.00000000000E+00  0.12516610816E+02  0.12516610816E+02  0.00000000000E+00 0. -1.
         22   -1    0    0    0    0 -0.00000000000E+00 -0.00000000000E+00 -0.67379493604E+01  0.67379493604E+01  0.00000000000E+00 0.  1.
          4    1    1    2  501    0 -0.38310522241E+00  0.58127396053E+01  0.10331823651E+02  0.11860914437E+02  0.00000000000E+00 0. -1.
         -4    1    1    2    0  501  0.38310522241E+00 -0.58127396053E+01 -0.45531621958E+01  0.73936457389E+01  0.00000000000E+00 0.  1.
<mgrwt>
<rscale>  0 0.58253507E+01</rscale>
<asrwt>0</asrwt>
<pdfrwt beam="1">0</pdfrwt>
<pdfrwt beam="2">0</pdfrwt>
<totfact> 0.13070424E+11</totfact>
</mgrwt>
</event>
<event>
 4    2  0.1985873E+006  0.2293109E+01  0.7546771E-02  0.2807422E+00
         22   -1    0    0    0    0  0.00000000000E+00  0.00000000000E+00  0.11460003019E+01  0.11460003019E+01  0.00000000000E+00 0.  1.
         22   -1    0    0    0    0 -0.00000000000E+00 -0.00000000000E+00 -0.74385494648E+01  0.74385494648E+01  0.00000000000E+00 0. -1.
          4    1    1    2  501    0 -0.10078532507E+01 -0.20597529962E+01 -0.48937970111E+00  0.23447479763E+01  0.00000000000E+00 0.  1.
         -4    1    1    2    0  501  0.10078532507E+01  0.20597529962E+01 -0.58031694618E+01  0.62398017904E+01  0.00000000000E+00 0. -1.
<mgrwt>
<rscale>  0 0.22931094E+01</rscale>
<asrwt>0</asrwt>
<pdfrwt beam="1">0</pdfrwt>
<pdfrwt beam="2">0</pdfrwt>
<totfact> 0.19392922E+12</totfact>
</mgrwt>
</event>
<event>
 4    2  0.1985873E+006  0.3530628E+01  0.7546771E-02  0.2377132E+00
         22   -1    0    0    0    0  0.00000000000E+00  0.00000000000E+00  0.14393868839E+02  0.14393868839E+02  0.00000000000E+00 0. -1.
         22   -1    0    0    0    0 -0.00000000000E+00 -0.00000000000E+00 -0.13355584443E+01  0.13355584443E+01  0.00000000000E+00 0.  1.
          4    1    1    2  501    0 -0.62911778505E+00 -0.34741249993E+01  0.11192402811E+02  0.11736064689E+02  0.00000000000E+00 0. -1.
         -4    1    1    2    0  501  0.62911778505E+00  0.34741249993E+01  0.18659075837E+01  0.39933625943E+01  0.00000000000E+00 0.  1.
<mgrwt>
<rscale>  0 0.35306279E+01</rscale>
<asrwt>0</asrwt>
<pdfrwt beam="1">0</pdfrwt>
<pdfrwt beam="2">0</pdfrwt>
<totfact> 0.73074590E+11</totfact>
</mgrwt>
</event>
<event>
 4    2  0.1985873E+006  0.2457341E+01  0.7546771E-02  0.2727641E+00
         22   -1    0    0    0    0  0.00000000000E+00  0.00000000000E+00  0.55646438001E+01  0.55646438001E+01  0.00000000000E+00 0.  1.
         22   -1    0    0    0    0 -0.00000000000E+00 -0.00000000000E+00 -0.37650818209E+01  0.37650818209E+01  0.00000000000E+00 0. -1.
          4    1    1    2  501    0 -0.20455963160E+01  0.13616381449E+01  0.48353979063E+01  0.54239833737E+01  0.00000000000E+00 0.  1.
         -4    1    1    2    0  501  0.20455963160E+01 -0.13616381449E+01 -0.30358359271E+01  0.39057422473E+01  0.00000000000E+00 0. -1.
<mgrwt>
<rscale>  0 0.24573406E+01</rscale>
<asrwt>0</asrwt>
<pdfrwt beam="1">0</pdfrwt>
<pdfrwt beam="2">0</pdfrwt>
<totfact> 0.69082989E+11</totfact>
</mgrwt>
</event>
<event>
 4    2  0.1985873E+006  0.2692192E+01  0.7546771E-02  0.2629419E+00
         22   -1    0    0    0    0  0.00000000000E+00  0.00000000000E+00  0.10698370827E+00  0.10698370827E+00  0.00000000000E+00 0. -1.
         22   -1    0    0    0    0 -0.00000000000E+00 -0.00000000000E+00 -0.76220749201E+02  0.76220749201E+02  0.00000000000E+00 0.  1.
          4    1    1    2  501    0 -0.65988316985E+00 -0.26100677609E+01 -0.25332527582E+02  0.25475181122E+02  0.00000000000E+00 0. -1.
         -4    1    1    2    0  501  0.65988316985E+00  0.26100677609E+01 -0.50781237911E+02  0.50852551787E+02  0.00000000000E+00 0.  1.
<mgrwt>
<rscale>  0 0.26921923E+01</rscale>
<asrwt>0</asrwt>
<pdfrwt beam="1">0</pdfrwt>
<pdfrwt beam="2">0</pdfrwt>
<totfact> 0.14659765E+12</totfact>
</mgrwt>
</event>
<event>
 4    2  0.1985873E+006  0.2317170E+01  0.7546771E-02  0.2795067E+00
         22   -1    0    0    0    0  0.00000000000E+00  0.00000000000E+00  0.98541266890E+00  0.98541266890E+00  0.00000000000E+00 0.  1.
         22   -1    0    0    0    0 -0.00000000000E+00 -0.00000000000E+00 -0.13080373072E+02  0.13080373072E+02  0.00000000000E+00 0. -1.
          4    1    1    2  501    0 -0.22827352627E+01  0.39799034059E+00 -0.67552819666E+00  0.24136310686E+01  0.00000000000E+00 0.  1.
         -4    1    1    2    0  501  0.22827352627E+01 -0.39799034059E+00 -0.11419432207E+02  0.11652154673E+02  0.00000000000E+00 0. -1.
<mgrwt>
<rscale>  0 0.23171700E+01</rscale>
<asrwt>0</asrwt>
<pdfrwt beam="1">0</pdfrwt>
<pdfrwt beam="2">0</pdfrwt>
<totfact> 0.11637467E+12</totfact>
</mgrwt>
</event>
<event>
 4    2  0.1985873E+006  0.2008097E+01  0.7546771E-02  0.2975283E+00
         22   -1    0    0    0    0  0.00000000000E+00  0.00000000000E+00  0.61655706235E+01  0.61655706235E+01  0.00000000000E+00 0.  1.
         22   -1    0    0    0    0 -0.00000000000E+00 -0.00000000000E+00 -0.80671124261E+00  0.80671124261E+00  0.00000000000E+00 0. -1.
          4    1    1    2  501    0  0.17165522919E+01  0.10420668843E+01  0.11627924160E+01  0.23204614551E+01  0.00000000000E+00 0. -1.
         -4    1    1    2    0  501 -0.17165522919E+01 -0.10420668843E+01  0.41960669649E+01  0.46518204110E+01  0.00000000000E+00 0.  1.
<mgrwt>
<rscale>  0 0.20080974E+01</rscale>
<asrwt>0</asrwt>
<pdfrwt beam="1">0</pdfrwt>
<pdfrwt beam="2">0</pdfrwt>
<totfact> 0.36225196E+12</totfact>
</mgrwt>
</event>
<event>
 4    2  0.1985873E+006  0.2129475E+01  0.7546771E-02  0.2898495E+00
         22   -1    0    0    0    0  0.00000000000E+00  0.00000000000E+00  0.11174684744E+02  0.11174684744E+02  0.00000000000E+00 0. -1.
         22   -1    0    0    0    0 -0.00000000000E+00 -0.00000000000E+00 -0.15639687368E+01  0.15639687368E+01  0.00000000000E+00 0.  1.
          4    1    1    2  501    0 -0.59286066319E-01  0.21286495626E+01  0.10286433750E+02  0.10504541070E+02  0.00000000000E+00 0. -1.
         -4    1    1    2    0  501  0.59286066319E-01 -0.21286495626E+01 -0.67571774250E+00  0.22341124112E+01  0.00000000000E+00 0.  1.
<mgrwt>
<rscale>  0 0.21294750E+01</rscale>
<asrwt>0</asrwt>
<pdfrwt beam="1">0</pdfrwt>
<pdfrwt beam="2">0</pdfrwt>
<totfact> 0.83032778E+11</totfact>
</mgrwt>
</event>
<event>
 4    2  0.1985873E+006  0.2177937E+01  0.7546771E-02  0.2870156E+00
         22   -1    0    0    0    0  0.00000000000E+00  0.00000000000E+00  0.15929839548E+01  0.15929839548E+01  0.00000000000E+00 0.  1.
         22   -1    0    0    0    0 -0.00000000000E+00 -0.00000000000E+00 -0.74347829118E+01  0.74347829118E+01  0.00000000000E+00 0. -1.
          4    1    1    2  501    0 -0.13022980205E+00 -0.21740402422E+01  0.57405953302E+00  0.22523221624E+01  0.00000000000E+00 0.  1.
         -4    1    1    2    0  501  0.13022980205E+00  0.21740402422E+01 -0.64158584900E+01  0.67754447042E+01  0.00000000000E+00 0. -1.
<mgrwt>
<rscale>  0 0.21779373E+01</rscale>
<asrwt>0</asrwt>
<pdfrwt beam="1">0</pdfrwt>
<pdfrwt beam="2">0</pdfrwt>
<totfact> 0.13294016E+12</totfact>
</mgrwt>
</event>
<event>
 4    2  0.1985873E+006  0.2579326E+01  0.7546771E-02  0.2674558E+00
         22   -1    0    0    0    0  0.00000000000E+00  0.00000000000E+00  0.41412886459E+02  0.41412886459E+02  0.00000000000E+00 0. -1.
         22   -1    0    0    0    0 -0.00000000000E+00 -0.00000000000E+00 -0.16270739113E+00  0.16270739113E+00  0.00000000000E+00 0.  1.
          4    1    1    2  501    0 -0.25727122237E+01 -0.18458661313E+00  0.22963472426E+02  0.23107877147E+02  0.00000000000E+00 0. -1.
         -4    1    1    2    0  501  0.25727122237E+01  0.18458661313E+00  0.18286706642E+02  0.18467716703E+02  0.00000000000E+00 0.  1.
<mgrwt>
<rscale>  0 0.25793256E+01</rscale>
<asrwt>0</asrwt>
<pdfrwt beam="1">0</pdfrwt>
<pdfrwt beam="2">0</pdfrwt>
<totfact> 0.20744560E+12</totfact>
</mgrwt>
</event>
<event>
 4    2  0.1985873E+006  0.3190311E+01  0.7546771E-02  0.2465258E+00
         22   -1    0    0    0    0  0.00000000000E+00  0.00000000000E+00  0.19710334950E+02  0.19710334950E+02  0.00000000000E+00 0.  1.
         22   -1    0    0    0    0 -0.00000000000E+00 -0.00000000000E+00 -0.53242612385E+00  0.53242612385E+00  0.00000000000E+00 0. -1.
          4    1    1    2  501    0 -0.30696505887E+01  0.86909629193E+00  0.78320274274E+01  0.84568751159E+01  0.00000000000E+00 0.  1.
         -4    1    1    2    0  501  0.30696505887E+01 -0.86909629193E+00  0.11345881399E+02  0.11785885958E+02  0.00000000000E+00 0. -1.
<mgrwt>
<rscale>  0 0.31903108E+01</rscale>
<asrwt>0</asrwt>
<pdfrwt beam="1">0</pdfrwt>
<pdfrwt beam="2">0</pdfrwt>
<totfact> 0.14116440E+12</totfact>
</mgrwt>
</event>
<event>
 4    2  0.1985873E+006  0.3774494E+01  0.7546771E-02  0.2322591E+00
         22   -1    0    0    0    0  0.00000000000E+00  0.00000000000E+00  0.68482760318E+00  0.68482760318E+00  0.00000000000E+00 0. -1.
         22   -1    0    0    0    0 -0.00000000000E+00 -0.00000000000E+00 -0.68029833454E+02  0.68029833454E+02  0.00000000000E+00 0.  1.
          4    1    1    2  501    0  0.21255405141E+01  0.31191156594E+01 -0.50464239922E+01  0.63018410074E+01  0.00000000000E+00 0. -1.
         -4    1    1    2    0  501 -0.21255405141E+01 -0.31191156594E+01 -0.62298581859E+02  0.62412820050E+02  0.00000000000E+00 0.  1.
<mgrwt>
<rscale>  0 0.37744940E+01</rscale>
<asrwt>0</asrwt>
<pdfrwt beam="1">0</pdfrwt>
<pdfrwt beam="2">0</pdfrwt>
<totfact> 0.21384491E+11</totfact>
</mgrwt>
</event>
<event>
 4    2  0.1985873E+006  0.2599175E+01  0.7546771E-02  0.2666359E+00
         22   -1    0    0    0    0  0.00000000000E+00  0.00000000000E+00  0.39955744657E+01  0.39955744657E+01  0.00000000000E+00 0.  1.
         22   -1    0    0    0    0 -0.00000000000E+00 -0.00000000000E+00 -0.20232804189E+01  0.20232804189E+01  0.00000000000E+00 0. -1.
          4    1    1    2  501    0 -0.92613934344E+00 -0.24285747231E+01  0.22060918451E+01  0.34091861930E+01  0.00000000000E+00 0. -1.
         -4    1    1    2    0  501  0.92613934344E+00  0.24285747231E+01 -0.23379779840E+00  0.26096686916E+01  0.00000000000E+00 0.  1.
<mgrwt>
<rscale>  0 0.25991747E+01</rscale>
<asrwt>0</asrwt>
<pdfrwt beam="1">0</pdfrwt>
<pdfrwt beam="2">0</pdfrwt>
<totfact> 0.21082607E+12</totfact>
</mgrwt>
</event>
<event>
 4    2  0.1985873E+006  0.2611455E+01  0.7546771E-02  0.2661343E+00
         22   -1    0    0    0    0  0.00000000000E+00  0.00000000000E+00  0.83678103497E+01  0.83678103497E+01  0.00000000000E+00 0.  1.
         22   -1    0    0    0    0 -0.00000000000E+00 -0.00000000000E+00 -0.81501238785E+00  0.81501238785E+00  0.00000000000E+00 0. -1.
          4    1    1    2  501    0 -0.25277085287E-01 -0.26113325750E+01  0.37533177773E+01  0.45724272641E+01  0.00000000000E+00 0.  1.
         -4    1    1    2    0  501  0.25277085287E-01  0.26113325750E+01  0.37994801846E+01  0.46103954735E+01  0.00000000000E+00 0. -1.
<mgrwt>
<rscale>  0 0.26114549E+01</rscale>
<asrwt>0</asrwt>
<pdfrwt beam="1">0</pdfrwt>
<pdfrwt beam="2">0</pdfrwt>
<totfact> 0.24842772E+12</totfact>
</mgrwt>
</event>
<event>
 4    2  0.1985873E+006  0.2343137E+01  0.7546771E-02  0.2782003E+00
         22   -1    0    0    0    0  0.00000000000E+00  0.00000000000E+00  0.92701569795E+00  0.92701569795E+00  0.00000000000E+00 0. -1.
         22   -1    0    0    0    0 -0.00000000000E+00 -0.00000000000E+00 -0.80734460365E+01  0.80734460365E+01  0.00000000000E+00 0.  1.
          4    1    1    2  501    0  0.17187428983E+01  0.15925501074E+01 -0.12503957553E+01  0.26558958075E+01  0.00000000000E+00 0. -1.
         -4    1    1    2    0  501 -0.17187428983E+01 -0.15925501074E+01 -0.58960345832E+01  0.63445659270E+01  0.00000000000E+00 0.  1.
<mgrwt>
<rscale>  0 0.23431374E+01</rscale>
<asrwt>0</asrwt>
<pdfrwt beam="1">0</pdfrwt>
<pdfrwt beam="2">0</pdfrwt>
<totfact> 0.22396778E+12</totfact>
</mgrwt>
</event>
<event>
 4    2  0.1985873E+006  0.3504729E+01  0.7546771E-02  0.2383309E+00
         22   -1    0    0    0    0  0.00000000000E+00  0.00000000000E+00  0.71179911743E+01  0.71179911743E+01  0.00000000000E+00 0.  1.
         22   -1    0    0    0    0 -0.00000000000E+00 -0.00000000000E+00 -0.16738317458E+02  0.16738317458E+02  0.00000000000E+00 0. -1.
          4    1    1    2  501    0  0.30780165524E+01 -0.16759901151E+01  0.64864003512E+01  0.73726873173E+01  0.00000000000E+00 0.  1.
         -4    1    1    2    0  501 -0.30780165524E+01  0.16759901151E+01 -0.16106726635E+02  0.16483621315E+02  0.00000000000E+00 0. -1.
<mgrwt>
<rscale>  0 0.35047295E+01</rscale>
<asrwt>0</asrwt>
<pdfrwt beam="1">0</pdfrwt>
<pdfrwt beam="2">0</pdfrwt>
<totfact> 0.85642183E+10</totfact>
</mgrwt>
</event>
<event>
 4    2  0.1985873E+006  0.2044947E+01  0.7546771E-02  0.2951032E+00
         22   -1    0    0    0    0  0.00000000000E+00  0.00000000000E+00  0.35676835384E+01  0.35676835384E+01  0.00000000000E+00 0. -1.
         22   -1    0    0    0    0 -0.00000000000E+00 -0.00000000000E+00 -0.11918347447E+01  0.11918347447E+01  0.00000000000E+00 0.  1.
          4    1    1    2  501    0 -0.18677063109E+01  0.83275446863E+00  0.88197126895E+00  0.22270339441E+01  0.00000000000E+00 0.  1.
         -4    1    1    2    0  501  0.18677063109E+01 -0.83275446863E+00  0.14938775247E+01  0.25324843391E+01  0.00000000000E+00 0. -1.
<mgrwt>
<rscale>  0 0.20449467E+01</rscale>
<asrwt>0</asrwt>
<pdfrwt beam="1">0</pdfrwt>
<pdfrwt beam="2">0</pdfrwt>
<totfact> 0.44294417E+12</totfact>
</mgrwt>
</event>
<event>
 4    2  0.1985873E+006  0.2690800E+01  0.7546771E-02  0.2629955E+00
         22   -1    0    0    0    0  0.00000000000E+00  0.00000000000E+00  0.32441692748E+01  0.32441692748E+01  0.00000000000E+00 0. -1.
         22   -1    0    0    0    0 -0.00000000000E+00 -0.00000000000E+00 -0.22393690534E+01  0.22393690534E+01  0.00000000000E+00 0.  1.
          4    1    1    2  501    0  0.15501486400E+01 -0.21994186862E+01  0.34321550545E+00  0.27126002740E+01  0.00000000000E+00 0. -1.
         -4    1    1    2    0  501 -0.15501486400E+01  0.21994186862E+01  0.66158471593E+00  0.27709380541E+01  0.00000000000E+00 0.  1.
<mgrwt>
<rscale>  0 0.26907998E+01</rscale>
<asrwt>0</asrwt>
<pdfrwt beam="1">0</pdfrwt>
<pdfrwt beam="2">0</pdfrwt>
<totfact> 0.23934549E+12</totfact>
</mgrwt>
</event>
<event>
 4    2  0.1985873E+006  0.2263483E+01  0.7546771E-02  0.2822977E+00
         22   -1    0    0    0    0  0.00000000000E+00  0.00000000000E+00  0.13236700670E+02  0.13236700670E+02  0.00000000000E+00 0. -1.
         22   -1    0    0    0    0 -0.00000000000E+00 -0.00000000000E+00 -0.61152762632E+01  0.61152762632E+01  0.00000000000E+00 0.  1.
          4    1    1    2  501    0  0.11738344226E+01 -0.19353212010E+01  0.12925482396E+02  0.13122174004E+02  0.00000000000E+00 0. -1.
         -4    1    1    2    0  501 -0.11738344226E+01  0.19353212010E+01 -0.58040579892E+01  0.62298029298E+01  0.00000000000E+00 0.  1.
<mgrwt>
<rscale>  0 0.22634830E+01</rscale>
<asrwt>0</asrwt>
<pdfrwt beam="1">0</pdfrwt>
<pdfrwt beam="2">0</pdfrwt>
<totfact> 0.13702158E+11</totfact>
</mgrwt>
</event>
<event>
 4    2  0.1985873E+006  0.2487461E+01  0.7546771E-02  0.2714084E+00
         22   -1    0    0    0    0  0.00000000000E+00  0.00000000000E+00  0.56144616547E+00  0.56144616547E+00  0.00000000000E+00 0.  1.
         22   -1    0    0    0    0 -0.00000000000E+00 -0.00000000000E+00 -0.11052878484E+02  0.11052878484E+02  0.00000000000E+00 0. -1.
          4    1    1    2  501    0  0.23105334947E+01 -0.92135698062E+00 -0.49318088935E+01  0.55236041384E+01  0.00000000000E+00 0.  1.
         -4    1    1    2    0  501 -0.23105334947E+01  0.92135698062E+00 -0.55596234254E+01  0.60907205114E+01  0.00000000000E+00 0. -1.
<mgrwt>
<rscale>  0 0.24874613E+01</rscale>
<asrwt>0</asrwt>
<pdfrwt beam="1">0</pdfrwt>
<pdfrwt beam="2">0</pdfrwt>
<totfact> 0.27081537E+12</totfact>
</mgrwt>
</event>
<event>
 4    2  0.1985873E+006  0.2006117E+01  0.7546771E-02  0.2976610E+00
         22   -1    0    0    0    0  0.00000000000E+00  0.00000000000E+00  0.11263418013E+01  0.11263418013E+01  0.00000000000E+00 0. -1.
         22   -1    0    0    0    0 -0.00000000000E+00 -0.00000000000E+00 -0.46896510147E+01  0.46896510147E+01  0.00000000000E+00 0.  1.
          4    1    1    2  501    0 -0.79542448488E+00  0.18416859888E+01 -0.36270452233E+00  0.20386421861E+01  0.00000000000E+00 0. -1.
         -4    1    1    2    0  501  0.79542448488E+00 -0.18416859888E+01 -0.32006046911E+01  0.37773506299E+01  0.00000000000E+00 0.  1.
<mgrwt>
<rscale>  0 0.20061175E+01</rscale>
<asrwt>0</asrwt>
<pdfrwt beam="1">0</pdfrwt>
<pdfrwt beam="2">0</pdfrwt>
<totfact> 0.34246504E+12</totfact>
</mgrwt>
</event>
<event>
 4    2  0.1985873E+006  0.3191127E+01  0.7546771E-02  0.2465027E+00
         22   -1    0    0    0    0  0.00000000000E+00  0.00000000000E+00  0.43374935587E+02  0.43374935587E+02  0.00000000000E+00 0.  1.
         22   -1    0    0    0    0 -0.00000000000E+00 -0.00000000000E+00 -0.83523961080E+00  0.83523961080E+00  0.00000000000E+00 0. -1.
          4    1    1    2  501    0  0.18876331145E+01 -0.25729623078E+01  0.40012493020E+02  0.40139542741E+02  0.00000000000E+00 0.  1.
         -4    1    1    2    0  501 -0.18876331145E+01  0.25729623078E+01  0.25272029559E+01  0.40706324561E+01  0.00000000000E+00 0. -1.
<mgrwt>
<rscale>  0 0.31911274E+01</rscale>
<asrwt>0</asrwt>
<pdfrwt beam="1">0</pdfrwt>
<pdfrwt beam="2">0</pdfrwt>
<totfact> 0.31022360E+11</totfact>
</mgrwt>
</event>
<event>
 4    2  0.1985873E+006  0.2181789E+01  0.7546771E-02  0.2867955E+00
         22   -1    0    0    0    0  0.00000000000E+00  0.00000000000E+00  0.89900658227E+00  0.89900658227E+00  0.00000000000E+00 0.  1.
         22   -1    0    0    0    0 -0.00000000000E+00 -0.00000000000E+00 -0.70064367021E+01  0.70064367021E+01  0.00000000000E+00 0. -1.
          4    1    1    2  501    0  0.86984682321E+00 -0.20008922194E+01 -0.11001259391E+01  0.24434566195E+01  0.00000000000E+00 0.  1.
         -4    1    1    2    0  501 -0.86984682321E+00  0.20008922194E+01 -0.50073041807E+01  0.54619866649E+01  0.00000000000E+00 0. -1.
<mgrwt>
<rscale>  0 0.21817890E+01</rscale>
<asrwt>0</asrwt>
<pdfrwt beam="1">0</pdfrwt>
<pdfrwt beam="2">0</pdfrwt>
<totfact> 0.27490048E+12</totfact>
</mgrwt>
</event>
<event>
 4    2  0.1985873E+006  0.2508212E+01  0.7546771E-02  0.2704921E+00
         22   -1    0    0    0    0  0.00000000000E+00  0.00000000000E+00  0.16432359823E+02  0.16432359823E+02  0.00000000000E+00 0. -1.
         22   -1    0    0    0    0 -0.00000000000E+00 -0.00000000000E+00 -0.69137387824E+00  0.69137387824E+00  0.00000000000E+00 0.  1.
          4    1    1    2  501    0 -0.91937581789E+00  0.23336395892E+01  0.13589972632E+02  0.13819496437E+02  0.00000000000E+00 0. -1.
         -4    1    1    2    0  501  0.91937581789E+00 -0.23336395892E+01  0.21510133121E+01  0.33042372638E+01  0.00000000000E+00 0.  1.
<mgrwt>
<rscale>  0 0.25082116E+01</rscale>
<asrwt>0</asrwt>
<pdfrwt beam="1">0</pdfrwt>
<pdfrwt beam="2">0</pdfrwt>
<totfact> 0.13159279E+12</totfact>
</mgrwt>
</event>
<event>
 4    2  0.1985873E+006  0.2253043E+01  0.7546771E-02  0.2828551E+00
         22   -1    0    0    0    0  0.00000000000E+00  0.00000000000E+00  0.83279020332E+01  0.83279020332E+01  0.00000000000E+00 0.  1.
         22   -1    0    0    0    0 -0.00000000000E+00 -0.00000000000E+00 -0.61848515356E+00  0.61848515356E+00  0.00000000000E+00 0. -1.
          4    1    1    2  501    0  0.22514580470E+01  0.84483714312E-01  0.33167934651E+01  0.40096533174E+01  0.00000000000E+00 0. -1.
         -4    1    1    2    0  501 -0.22514580470E+01 -0.84483714312E-01  0.43926234145E+01  0.49367338693E+01  0.00000000000E+00 0.  1.
<mgrwt>
<rscale>  0 0.22530426E+01</rscale>
<asrwt>0</asrwt>
<pdfrwt beam="1">0</pdfrwt>
<pdfrwt beam="2">0</pdfrwt>
<totfact> 0.34177609E+12</totfact>
</mgrwt>
</event>
<event>
 4    2  0.1985873E+006  0.3409431E+01  0.7546771E-02  0.2406744E+00
         22   -1    0    0    0    0  0.00000000000E+00  0.00000000000E+00  0.52746991378E+01  0.52746991378E+01  0.00000000000E+00 0.  1.
         22   -1    0    0    0    0 -0.00000000000E+00 -0.00000000000E+00 -0.25517345773E+01  0.25517345773E+01  0.00000000000E+00 0. -1.
          4    1    1    2  501    0 -0.27289672199E+01 -0.20437613460E+01  0.28065354436E+01  0.44159782295E+01  0.00000000000E+00 0.  1.
         -4    1    1    2    0  501  0.27289672199E+01  0.20437613460E+01 -0.83570883152E-01  0.34104554856E+01  0.00000000000E+00 0. -1.
<mgrwt>
<rscale>  0 0.34094314E+01</rscale>
<asrwt>0</asrwt>
<pdfrwt beam="1">0</pdfrwt>
<pdfrwt beam="2">0</pdfrwt>
<totfact> 0.11600709E+12</totfact>
</mgrwt>
</event>
<event>
 4    2  0.1985873E+006  0.3007690E+01  0.7546771E-02  0.2519756E+00
         22   -1    0    0    0    0  0.00000000000E+00  0.00000000000E+00  0.15536558438E+01  0.15536558438E+01  0.00000000000E+00 0. -1.
         22   -1    0    0    0    0 -0.00000000000E+00 -0.00000000000E+00 -0.59220885504E+01  0.59220885504E+01  0.00000000000E+00 0.  1.
          4    1    1    2  501    0  0.29579324399E+01 -0.54482397082E+00 -0.16995524051E+01  0.34546600203E+01  0.00000000000E+00 0. -1.
         -4    1    1    2    0  501 -0.29579324399E+01  0.54482397082E+00 -0.26688803016E+01  0.40210843739E+01  0.00000000000E+00 0.  1.
<mgrwt>
<rscale>  0 0.30076897E+01</rscale>
<asrwt>0</asrwt>
<pdfrwt beam="1">0</pdfrwt>
<pdfrwt beam="2">0</pdfrwt>
<totfact> 0.17954039E+12</totfact>
</mgrwt>
</event>
<event>
 4    2  0.1985873E+006  0.2320720E+01  0.7546771E-02  0.2793265E+00
         22   -1    0    0    0    0  0.00000000000E+00  0.00000000000E+00  0.37498093787E+01  0.37498093787E+01  0.00000000000E+00 0.  1.
         22   -1    0    0    0    0 -0.00000000000E+00 -0.00000000000E+00 -0.17290539019E+01  0.17290539019E+01  0.00000000000E+00 0. -1.
          4    1    1    2  501    0  0.18048325729E+01  0.14588763856E+01  0.21376514047E+01  0.31552011747E+01  0.00000000000E+00 0. -1.
         -4    1    1    2    0  501 -0.18048325729E+01 -0.14588763856E+01 -0.11689592787E+00  0.23236621059E+01  0.00000000000E+00 0.  1.
<mgrwt>
<rscale>  0 0.23207199E+01</rscale>
<asrwt>0</asrwt>
<pdfrwt beam="1">0</pdfrwt>
<pdfrwt beam="2">0</pdfrwt>
<totfact> 0.27240172E+12</totfact>
</mgrwt>
</event>
<event>
 4    2  0.1985873E+006  0.2064871E+01  0.7546771E-02  0.2938271E+00
         22   -1    0    0    0    0  0.00000000000E+00  0.00000000000E+00  0.50640246675E+02  0.50640246675E+02  0.00000000000E+00 0.  1.
         22   -1    0    0    0    0 -0.00000000000E+00 -0.00000000000E+00 -0.96525816679E-01  0.96525816679E-01  0.00000000000E+00 0. -1.
          4    1    1    2  501    0 -0.14022881717E+01 -0.15156780464E+01  0.34338666580E+02  0.34400693518E+02  0.00000000000E+00 0.  1.
         -4    1    1    2    0  501  0.14022881717E+01  0.15156780464E+01  0.16205054278E+02  0.16336078973E+02  0.00000000000E+00 0. -1.
<mgrwt>
<rscale>  0 0.20648710E+01</rscale>
<asrwt>0</asrwt>
<pdfrwt beam="1">0</pdfrwt>
<pdfrwt beam="2">0</pdfrwt>
<totfact> 0.28445855E+12</totfact>
</mgrwt>
</event>
<event>
 4    2  0.1985873E+006  0.2048359E+01  0.7546771E-02  0.2948829E+00
         22   -1    0    0    0    0  0.00000000000E+00  0.00000000000E+00  0.71519709393E+01  0.71519709393E+01  0.00000000000E+00 0.  1.
         22   -1    0    0    0    0 -0.00000000000E+00 -0.00000000000E+00 -0.63357790263E+00  0.63357790263E+00  0.00000000000E+00 0. -1.
          4    1    1    2  501    0 -0.14456521555E+01  0.14511601766E+01  0.43185186401E+01  0.47796840123E+01  0.00000000000E+00 0.  1.
         -4    1    1    2    0  501  0.14456521555E+01 -0.14511601766E+01  0.21998743966E+01  0.30058648296E+01  0.00000000000E+00 0. -1.
<mgrwt>
<rscale>  0 0.20483593E+01</rscale>
<asrwt>0</asrwt>
<pdfrwt beam="1">0</pdfrwt>
<pdfrwt beam="2">0</pdfrwt>
<totfact> 0.39919677E+12</totfact>
</mgrwt>
</event>
<event>
 4    2  0.1985873E+006  0.2642189E+01  0.7546771E-02  0.2648979E+00
         22   -1    0    0    0    0  0.00000000000E+00  0.00000000000E+00  0.37956314428E+02  0.37956314428E+02  0.00000000000E+00 0.  1.
         22   -1    0    0    0    0 -0.00000000000E+00 -0.00000000000E+00 -0.18630211258E+00  0.18630211258E+00  0.00000000000E+00 0. -1.
          4    1    1    2  501    0 -0.24030578928E+01 -0.10983976280E+01  0.21038667529E+02  0.21203931144E+02  0.00000000000E+00 0. -1.
         -4    1    1    2    0  501  0.24030578928E+01  0.10983976280E+01  0.16731344787E+02  0.16938685396E+02  0.00000000000E+00 0.  1.
<mgrwt>
<rscale>  0 0.26421894E+01</rscale>
<asrwt>0</asrwt>
<pdfrwt beam="1">0</pdfrwt>
<pdfrwt beam="2">0</pdfrwt>
<totfact> 0.19975723E+12</totfact>
</mgrwt>
</event>
<event>
 4    2  0.1985873E+006  0.2261607E+01  0.7546771E-02  0.2823975E+00
         22   -1    0    0    0    0  0.00000000000E+00  0.00000000000E+00  0.20010572786E+02  0.20010572786E+02  0.00000000000E+00 0. -1.
         22   -1    0    0    0    0 -0.00000000000E+00 -0.00000000000E+00 -0.31580879243E+00  0.31580879243E+00  0.00000000000E+00 0.  1.
          4    1    1    2  501    0  0.18510898592E+01 -0.12993582889E+01  0.14284679094E+02  0.14462604276E+02  0.00000000000E+00 0. -1.
         -4    1    1    2    0  501 -0.18510898592E+01  0.12993582889E+01  0.54100848993E+01  0.58637773020E+01  0.00000000000E+00 0.  1.
<mgrwt>
<rscale>  0 0.22616069E+01</rscale>
<asrwt>0</asrwt>
<pdfrwt beam="1">0</pdfrwt>
<pdfrwt beam="2">0</pdfrwt>
<totfact> 0.24942814E+12</totfact>
</mgrwt>
</event>
<event>
 4    2  0.1985873E+006  0.3018771E+01  0.7546771E-02  0.2516281E+00
         22   -1    0    0    0    0  0.00000000000E+00  0.00000000000E+00  0.10856704038E+01  0.10856704038E+01  0.00000000000E+00 0.  1.
         22   -1    0    0    0    0 -0.00000000000E+00 -0.00000000000E+00 -0.84406575191E+01  0.84406575191E+01  0.00000000000E+00 0. -1.
          4    1    1    2  501    0 -0.66353665135E+00  0.29449444455E+01 -0.33228745918E+01  0.44893734782E+01  0.00000000000E+00 0.  1.
         -4    1    1    2    0  501  0.66353665135E+00 -0.29449444455E+01 -0.40321125236E+01  0.50369544446E+01  0.00000000000E+00 0. -1.
<mgrwt>
<rscale>  0 0.30187711E+01</rscale>
<asrwt>0</asrwt>
<pdfrwt beam="1">0</pdfrwt>
<pdfrwt beam="2">0</pdfrwt>
<totfact> 0.17726105E+12</totfact>
</mgrwt>
</event>
<event>
 4    2  0.1985873E+006  0.2141897E+01  0.7546771E-02  0.2891113E+00
         22   -1    0    0    0    0  0.00000000000E+00  0.00000000000E+00  0.12993134039E+01  0.12993134039E+01  0.00000000000E+00 0. -1.
         22   -1    0    0    0    0 -0.00000000000E+00 -0.00000000000E+00 -0.42854057780E+01  0.42854057780E+01  0.00000000000E+00 0.  1.
          4    1    1    2  501    0 -0.17891327642E+01 -0.11775939192E+01 -0.32135928811E+00  0.21658705591E+01  0.00000000000E+00 0. -1.
         -4    1    1    2    0  501  0.17891327642E+01  0.11775939192E+01 -0.26647330860E+01  0.34188486229E+01  0.00000000000E+00 0.  1.
<mgrwt>
<rscale>  0 0.21418972E+01</rscale>
<asrwt>0</asrwt>
<pdfrwt beam="1">0</pdfrwt>
<pdfrwt beam="2">0</pdfrwt>
<totfact> 0.32340610E+12</totfact>
</mgrwt>
</event>
<event>
 4    2  0.1985873E+006  0.2074729E+01  0.7546771E-02  0.2932046E+00
         22   -1    0    0    0    0  0.00000000000E+00  0.00000000000E+00  0.34911516393E+01  0.34911516393E+01  0.00000000000E+00 0. -1.
         22   -1    0    0    0    0 -0.00000000000E+00 -0.00000000000E+00 -0.17643861367E+01  0.17643861367E+01  0.00000000000E+00 0.  1.
          4    1    1    2  501    0 -0.16310444558E+01  0.12822614547E+01 -0.57875231053E+00  0.21539393427E+01  0.00000000000E+00 0.  1.
         -4    1    1    2    0  501  0.16310444558E+01 -0.12822614547E+01  0.23055178131E+01  0.31015984333E+01  0.00000000000E+00 0. -1.
<mgrwt>
<rscale>  0 0.20747290E+01</rscale>
<asrwt>0</asrwt>
<pdfrwt beam="1">0</pdfrwt>
<pdfrwt beam="2">0</pdfrwt>
<totfact> 0.28938738E+12</totfact>
</mgrwt>
</event>
<event>
 4    2  0.1985873E+006  0.2442700E+01  0.7546771E-02  0.2734344E+00
         22   -1    0    0    0    0  0.00000000000E+00  0.00000000000E+00  0.18442107617E+01  0.18442107617E+01  0.00000000000E+00 0.  1.
         22   -1    0    0    0    0 -0.00000000000E+00 -0.00000000000E+00 -0.51671323604E+01  0.51671323604E+01  0.00000000000E+00 0. -1.
          4    1    1    2  501    0 -0.24138834744E+01  0.37409998857E+00  0.48201410118E+00  0.24898035712E+01  0.00000000000E+00 0.  1.
         -4    1    1    2    0  501  0.24138834744E+01 -0.37409998857E+00 -0.38049356999E+01  0.45215395509E+01  0.00000000000E+00 0. -1.
<mgrwt>
<rscale>  0 0.24427002E+01</rscale>
<asrwt>0</asrwt>
<pdfrwt beam="1">0</pdfrwt>
<pdfrwt beam="2">0</pdfrwt>
<totfact> 0.17322125E+12</totfact>
</mgrwt>
</event>
<event>
 4    2  0.1985873E+006  0.2196019E+01  0.7546771E-02  0.2859890E+00
         22   -1    0    0    0    0  0.00000000000E+00  0.00000000000E+00  0.19287619612E+00  0.19287619612E+00  0.00000000000E+00 0.  1.
         22   -1    0    0    0    0 -0.00000000000E+00 -0.00000000000E+00 -0.25368443356E+02  0.25368443356E+02  0.00000000000E+00 0. -1.
          4    1    1    2  501    0 -0.28533532939E+00 -0.21774033540E+01 -0.14121555134E+02  0.14291284793E+02  0.00000000000E+00 0. -1.
         -4    1    1    2    0  501  0.28533532939E+00  0.21774033540E+01 -0.11054012025E+02  0.11270034759E+02  0.00000000000E+00 0.  1.
<mgrwt>
<rscale>  0 0.21960195E+01</rscale>
<asrwt>0</asrwt>
<pdfrwt beam="1">0</pdfrwt>
<pdfrwt beam="2">0</pdfrwt>
<totfact> 0.32150946E+12</totfact>
</mgrwt>
</event>
<event>
 4    2  0.1985873E+006  0.2010878E+01  0.7546771E-02  0.2973422E+00
         22   -1    0    0    0    0  0.00000000000E+00  0.00000000000E+00  0.43209365352E+02  0.43209365352E+02  0.00000000000E+00 0. -1.
         22   -1    0    0    0    0 -0.00000000000E+00 -0.00000000000E+00 -0.14072094353E+00  0.14072094353E+00  0.00000000000E+00 0.  1.
          4    1    1    2  501    0 -0.93180940448E+00  0.17819548872E+01  0.34079277592E+02  0.34138552887E+02  0.00000000000E+00 0. -1.
         -4    1    1    2    0  501  0.93180940448E+00 -0.17819548872E+01  0.89893668164E+01  0.92115334091E+01  0.00000000000E+00 0.  1.
<mgrwt>
<rscale>  0 0.20108784E+01</rscale>
<asrwt>0</asrwt>
<pdfrwt beam="1">0</pdfrwt>
<pdfrwt beam="2">0</pdfrwt>
<totfact> 0.23063770E+12</totfact>
</mgrwt>
</event>
<event>
 4    2  0.1985873E+006  0.5111276E+01  0.7546771E-02  0.2109951E+00
         22   -1    0    0    0    0  0.00000000000E+00  0.00000000000E+00  0.74742727062E+02  0.74742727062E+02  0.00000000000E+00 0. -1.
         22   -1    0    0    0    0 -0.00000000000E+00 -0.00000000000E+00 -0.39629882915E+00  0.39629882915E+00  0.00000000000E+00 0.  1.
          4    1    1    2  501    0 -0.42115415641E+01 -0.28962147738E+01  0.50078948660E+02  0.50339112440E+02  0.00000000000E+00 0. -1.
         -4    1    1    2    0  501  0.42115415641E+01  0.28962147738E+01  0.24267479572E+02  0.24799913450E+02  0.00000000000E+00 0.  1.
<mgrwt>
<rscale>  0 0.51112760E+01</rscale>
<asrwt>0</asrwt>
<pdfrwt beam="1">0</pdfrwt>
<pdfrwt beam="2">0</pdfrwt>
<totfact> 0.34913124E+11</totfact>
</mgrwt>
</event>
<event>
 4    2  0.1985873E+006  0.4301445E+01  0.7546771E-02  0.2223127E+00
         22   -1    0    0    0    0  0.00000000000E+00  0.00000000000E+00  0.13267914970E+02  0.13267914970E+02  0.00000000000E+00 0. -1.
         22   -1    0    0    0    0 -0.00000000000E+00 -0.00000000000E+00 -0.38649277035E+01  0.38649277035E+01  0.00000000000E+00 0.  1.
          4    1    1    2  501    0  0.42998860941E+01  0.11577980897E+00  0.11550265688E+02  0.12325220600E+02  0.00000000000E+00 0. -1.
         -4    1    1    2    0  501 -0.42998860941E+01 -0.11577980897E+00 -0.21472784209E+01  0.48076220737E+01  0.00000000000E+00 0.  1.
<mgrwt>
<rscale>  0 0.43014446E+01</rscale>
<asrwt>0</asrwt>
<pdfrwt beam="1">0</pdfrwt>
<pdfrwt beam="2">0</pdfrwt>
<totfact> 0.23514760E+11</totfact>
</mgrwt>
</event>
<event>
 4    2  0.1985873E+006  0.2456839E+01  0.7546771E-02  0.2727870E+00
         22   -1    0    0    0    0  0.00000000000E+00  0.00000000000E+00  0.10119602536E+01  0.10119602536E+01  0.00000000000E+00 0.  1.
         22   -1    0    0    0    0 -0.00000000000E+00 -0.00000000000E+00 -0.68883391120E+01  0.68883391120E+01  0.00000000000E+00 0. -1.
          4    1    1    2  501    0 -0.23175408370E+01  0.81551367202E+00 -0.14917405369E+01  0.28742560620E+01  0.00000000000E+00 0.  1.
         -4    1    1    2    0  501  0.23175408370E+01 -0.81551367202E+00 -0.43846383215E+01  0.50260433037E+01  0.00000000000E+00 0. -1.
<mgrwt>
<rscale>  0 0.24568390E+01</rscale>
<asrwt>0</asrwt>
<pdfrwt beam="1">0</pdfrwt>
<pdfrwt beam="2">0</pdfrwt>
<totfact> 0.24511639E+12</totfact>
</mgrwt>
</event>
<event>
 4    2  0.1985873E+006  0.3030091E+01  0.7546771E-02  0.2512756E+00
         22   -1    0    0    0    0  0.00000000000E+00  0.00000000000E+00  0.21375246099E+01  0.21375246099E+01  0.00000000000E+00 0.  1.
         22   -1    0    0    0    0 -0.00000000000E+00 -0.00000000000E+00 -0.98355555313E+01  0.98355555313E+01  0.00000000000E+00 0. -1.
          4    1    1    2  501    0  0.14475290545E+01 -0.26619750332E+01  0.64400856512E+00  0.30977731474E+01  0.00000000000E+00 0.  1.
         -4    1    1    2    0  501 -0.14475290545E+01  0.26619750332E+01 -0.83420394865E+01  0.88753069938E+01  0.00000000000E+00 0. -1.
<mgrwt>
<rscale>  0 0.30300910E+01</rscale>
<asrwt>0</asrwt>
<pdfrwt beam="1">0</pdfrwt>
<pdfrwt beam="2">0</pdfrwt>
<totfact> 0.67573888E+11</totfact>
</mgrwt>
</event>
<event>
 4    2  0.1985873E+006  0.2239028E+01  0.7546771E-02  0.2836113E+00
         22   -1    0    0    0    0  0.00000000000E+00  0.00000000000E+00  0.56692067857E+00  0.56692067857E+00  0.00000000000E+00 0.  1.
         22   -1    0    0    0    0 -0.00000000000E+00 -0.00000000000E+00 -0.14611448935E+02  0.14611448935E+02  0.00000000000E+00 0. -1.
          4    1    1    2  501    0 -0.22106289209E+01 -0.35547892547E+00 -0.22537807331E+01  0.31769125082E+01  0.00000000000E+00 0.  1.
         -4    1    1    2    0  501  0.22106289209E+01  0.35547892547E+00 -0.11790747524E+02  0.12001457106E+02  0.00000000000E+00 0. -1.
<mgrwt>
<rscale>  0 0.22390278E+01</rscale>
<asrwt>0</asrwt>
<pdfrwt beam="1">0</pdfrwt>
<pdfrwt beam="2">0</pdfrwt>
<totfact> 0.19043197E+12</totfact>
</mgrwt>
</event>
<event>
 4    2  0.1985873E+006  0.2734411E+01  0.7546771E-02  0.2613416E+00
         22   -1    0    0    0    0  0.00000000000E+00  0.00000000000E+00  0.66459872383E+02  0.66459872383E+02  0.00000000000E+00 0.  1.
         22   -1    0    0    0    0 -0.00000000000E+00 -0.00000000000E+00 -0.91858113140E+00  0.91858113140E+00  0.00000000000E+00 0. -1.
          4    1    1    2  501    0 -0.27033929347E+01 -0.41069143443E+00  0.64329453230E+02  0.64387541914E+02  0.00000000000E+00 0.  1.
         -4    1    1    2    0  501  0.27033929347E+01  0.41069143443E+00  0.12118380219E+01  0.29909116010E+01  0.00000000000E+00 0. -1.
<mgrwt>
<rscale>  0 0.27344105E+01</rscale>
<asrwt>0</asrwt>
<pdfrwt beam="1">0</pdfrwt>
<pdfrwt beam="2">0</pdfrwt>
<totfact> 0.15802690E+11</totfact>
</mgrwt>
</event>
<event>
 4    2  0.1985873E+006  0.3445152E+01  0.7546771E-02  0.2397827E+00
         22   -1    0    0    0    0  0.00000000000E+00  0.00000000000E+00  0.37823979232E+01  0.37823979232E+01  0.00000000000E+00 0. -1.
         22   -1    0    0    0    0 -0.00000000000E+00 -0.00000000000E+00 -0.74904336265E+01  0.74904336265E+01  0.00000000000E+00 0.  1.
          4    1    1    2  501    0 -0.24296047104E+00 -0.34365745936E+01  0.24425018412E+01  0.42231374560E+01  0.00000000000E+00 0. -1.
         -4    1    1    2    0  501  0.24296047104E+00  0.34365745936E+01 -0.61505375445E+01  0.70496940937E+01  0.00000000000E+00 0.  1.
<mgrwt>
<rscale>  0 0.34451524E+01</rscale>
<asrwt>0</asrwt>
<pdfrwt beam="1">0</pdfrwt>
<pdfrwt beam="2">0</pdfrwt>
<totfact> 0.48199923E+11</totfact>
</mgrwt>
</event>
<event>
 4    2  0.1985873E+006  0.2202276E+01  0.7546771E-02  0.2856376E+00
         22   -1    0    0    0    0  0.00000000000E+00  0.00000000000E+00  0.59300889468E+01  0.59300889468E+01  0.00000000000E+00 0.  1.
         22   -1    0    0    0    0 -0.00000000000E+00 -0.00000000000E+00 -0.17518215676E+01  0.17518215676E+01  0.00000000000E+00 0. -1.
          4    1    1    2  501    0 -0.69352390056E+00 -0.20902253605E+01  0.48936466261E+01  0.53663576809E+01  0.00000000000E+00 0.  1.
         -4    1    1    2    0  501  0.69352390056E+00  0.20902253605E+01 -0.71537924686E+00  0.23155528336E+01  0.00000000000E+00 0. -1.
<mgrwt>
<rscale>  0 0.22022755E+01</rscale>
<asrwt>0</asrwt>
<pdfrwt beam="1">0</pdfrwt>
<pdfrwt beam="2">0</pdfrwt>
<totfact> 0.15607578E+12</totfact>
</mgrwt>
</event>
<event>
 4    2  0.1985873E+006  0.2514085E+01  0.7546771E-02  0.2702353E+00
         22   -1    0    0    0    0  0.00000000000E+00  0.00000000000E+00  0.15132417471E+01  0.15132417471E+01  0.00000000000E+00 0.  1.
         22   -1    0    0    0    0 -0.00000000000E+00 -0.00000000000E+00 -0.46299944912E+01  0.46299944912E+01  0.00000000000E+00 0. -1.
          4    1    1    2  501    0 -0.13733994489E+01 -0.21058014103E+01 -0.59746775555E+00  0.25841039733E+01  0.00000000000E+00 0.  1.
         -4    1    1    2    0  501  0.13733994489E+01  0.21058014103E+01 -0.25192849886E+01  0.35591322650E+01  0.00000000000E+00 0. -1.
<mgrwt>
<rscale>  0 0.25140854E+01</rscale>
<asrwt>0</asrwt>
<pdfrwt beam="1">0</pdfrwt>
<pdfrwt beam="2">0</pdfrwt>
<totfact> 0.24777931E+12</totfact>
</mgrwt>
</event>
<event>
 4    2  0.1985873E+006  0.2205654E+01  0.7546771E-02  0.2854486E+00
         22   -1    0    0    0    0  0.00000000000E+00  0.00000000000E+00  0.19131939619E+02  0.19131939619E+02  0.00000000000E+00 0. -1.
         22   -1    0    0    0    0 -0.00000000000E+00 -0.00000000000E+00 -0.32854305538E+00  0.32854305538E+00  0.00000000000E+00 0.  1.
          4    1    1    2  501    0  0.16750455815E+01  0.14349680291E+01  0.47756777615E+01  0.52604190923E+01  0.00000000000E+00 0.  1.
         -4    1    1    2    0  501 -0.16750455815E+01 -0.14349680291E+01  0.14027718802E+02  0.14200063582E+02  0.00000000000E+00 0. -1.
<mgrwt>
<rscale>  0 0.22056543E+01</rscale>
<asrwt>0</asrwt>
<pdfrwt beam="1">0</pdfrwt>
<pdfrwt beam="2">0</pdfrwt>
<totfact> 0.25232717E+12</totfact>
</mgrwt>
</event>
<event>
 4    2  0.1985873E+006  0.2439697E+01  0.7546771E-02  0.2735728E+00
         22   -1    0    0    0    0  0.00000000000E+00  0.00000000000E+00  0.47549116217E+00  0.47549116217E+00  0.00000000000E+00 0.  1.
         22   -1    0    0    0    0 -0.00000000000E+00 -0.00000000000E+00 -0.21677605294E+02  0.21677605294E+02  0.00000000000E+00 0. -1.
          4    1    1    2  501    0 -0.20627273450E+01 -0.13027967057E+01 -0.34009175755E+01  0.41854944405E+01  0.00000000000E+00 0.  1.
         -4    1    1    2    0  501  0.20627273450E+01  0.13027967057E+01 -0.17801196557E+02  0.17967602016E+02  0.00000000000E+00 0. -1.
<mgrwt>
<rscale>  0 0.24396974E+01</rscale>
<asrwt>0</asrwt>
<pdfrwt beam="1">0</pdfrwt>
<pdfrwt beam="2">0</pdfrwt>
<totfact> 0.14242136E+12</totfact>
</mgrwt>
</event>
<event>
 4    2  0.1985873E+006  0.2037097E+01  0.7546771E-02  0.2956125E+00
         22   -1    0    0    0    0  0.00000000000E+00  0.00000000000E+00  0.36603566310E+01  0.36603566310E+01  0.00000000000E+00 0. -1.
         22   -1    0    0    0    0 -0.00000000000E+00 -0.00000000000E+00 -0.12395690533E+01  0.12395690533E+01  0.00000000000E+00 0.  1.
          4    1    1    2  501    0  0.19566142287E+01  0.56694450336E+00  0.19263690297E+01  0.28036873842E+01  0.00000000000E+00 0. -1.
         -4    1    1    2    0  501 -0.19566142287E+01 -0.56694450336E+00  0.49441854802E+00  0.20962383000E+01  0.00000000000E+00 0.  1.
<mgrwt>
<rscale>  0 0.20370973E+01</rscale>
<asrwt>0</asrwt>
<pdfrwt beam="1">0</pdfrwt>
<pdfrwt beam="2">0</pdfrwt>
<totfact> 0.41089624E+12</totfact>
</mgrwt>
</event>
<event>
 4    2  0.1985873E+006  0.2175100E+01  0.7546771E-02  0.2871781E+00
         22   -1    0    0    0    0  0.00000000000E+00  0.00000000000E+00  0.26897145076E+01  0.26897145076E+01  0.00000000000E+00 0. -1.
         22   -1    0    0    0    0 -0.00000000000E+00 -0.00000000000E+00 -0.24924905343E+01  0.24924905343E+01  0.00000000000E+00 0.  1.
          4    1    1    2  501    0  0.10848666660E+01  0.18852385083E+01  0.15042755040E+01  0.26445991583E+01  0.00000000000E+00 0. -1.
         -4    1    1    2    0  501 -0.10848666660E+01 -0.18852385083E+01 -0.13070515307E+01  0.25376058835E+01  0.00000000000E+00 0.  1.
<mgrwt>
<rscale>  0 0.21751000E+01</rscale>
<asrwt>0</asrwt>
<pdfrwt beam="1">0</pdfrwt>
<pdfrwt beam="2">0</pdfrwt>
<totfact> 0.26304294E+12</totfact>
</mgrwt>
</event>
<event>
 4    2  0.1985873E+006  0.2382618E+01  0.7546771E-02  0.2762656E+00
         22   -1    0    0    0    0  0.00000000000E+00  0.00000000000E+00  0.14603574786E+01  0.14603574786E+01  0.00000000000E+00 0. -1.
         22   -1    0    0    0    0 -0.00000000000E+00 -0.00000000000E+00 -0.45922026437E+01  0.45922026437E+01  0.00000000000E+00 0.  1.
          4    1    1    2  501    0 -0.23680636790E+01 -0.26294853614E+00 -0.38026586149E+00  0.24127721911E+01  0.00000000000E+00 0. -1.
         -4    1    1    2    0  501  0.23680636790E+01  0.26294853614E+00 -0.27515793036E+01  0.36397879313E+01  0.00000000000E+00 0.  1.
<mgrwt>
<rscale>  0 0.23826178E+01</rscale>
<asrwt>0</asrwt>
<pdfrwt beam="1">0</pdfrwt>
<pdfrwt beam="2">0</pdfrwt>
<totfact> 0.26063795E+12</totfact>
</mgrwt>
</event>
<event>
 4    2  0.1985873E+006  0.2861159E+01  0.7546771E-02  0.2567963E+00
         22   -1    0    0    0    0  0.00000000000E+00  0.00000000000E+00  0.23728530222E+01  0.23728530222E+01  0.00000000000E+00 0.  1.
         22   -1    0    0    0    0 -0.00000000000E+00 -0.00000000000E+00 -0.38929474224E+01  0.38929474224E+01  0.00000000000E+00 0. -1.
          4    1    1    2  501    0  0.19586754645E-01 -0.28610915713E+01  0.29678733892E+00  0.28765102720E+01  0.00000000000E+00 0.  1.
         -4    1    1    2    0  501 -0.19586754645E-01  0.28610915713E+01 -0.18168817391E+01  0.33892901726E+01  0.00000000000E+00 0. -1.
<mgrwt>
<rscale>  0 0.28611586E+01</rscale>
<asrwt>0</asrwt>
<pdfrwt beam="1">0</pdfrwt>
<pdfrwt beam="2">0</pdfrwt>
<totfact> 0.18069651E+12</totfact>
</mgrwt>
</event>
<event>
 4    2  0.1985873E+006  0.2145397E+01  0.7546771E-02  0.2889048E+00
         22   -1    0    0    0    0  0.00000000000E+00  0.00000000000E+00  0.44542782291E+00  0.44542782291E+00  0.00000000000E+00 0. -1.
         22   -1    0    0    0    0 -0.00000000000E+00 -0.00000000000E+00 -0.27781132002E+02  0.27781132002E+02  0.00000000000E+00 0.  1.
          4    1    1    2  501    0 -0.18625669217E+01  0.10646937284E+01 -0.24831600605E+01  0.32815868355E+01  0.00000000000E+00 0. -1.
         -4    1    1    2    0  501  0.18625669217E+01 -0.10646937284E+01 -0.24852544119E+02  0.24944972990E+02  0.00000000000E+00 0.  1.
<mgrwt>
<rscale>  0 0.21453970E+01</rscale>
<asrwt>0</asrwt>
<pdfrwt beam="1">0</pdfrwt>
<pdfrwt beam="2">0</pdfrwt>
<totfact> 0.11214296E+12</totfact>
</mgrwt>
</event>
<event>
 4    2  0.1985873E+006  0.2022344E+01  0.7546771E-02  0.2965804E+00
         22   -1    0    0    0    0  0.00000000000E+00  0.00000000000E+00  0.40040549627E+02  0.40040549627E+02  0.00000000000E+00 0. -1.
         22   -1    0    0    0    0 -0.00000000000E+00 -0.00000000000E+00 -0.10883909628E+00  0.10883909628E+00  0.00000000000E+00 0.  1.
          4    1    1    2  501    0  0.19412783233E+01  0.56684598880E+00  0.14986696785E+02  0.15122531416E+02  0.00000000000E+00 0.  1.
         -4    1    1    2    0  501 -0.19412783233E+01 -0.56684598880E+00  0.24945013746E+02  0.25026857308E+02  0.00000000000E+00 0. -1.
<mgrwt>
<rscale>  0 0.20223442E+01</rscale>
<asrwt>0</asrwt>
<pdfrwt beam="1">0</pdfrwt>
<pdfrwt beam="2">0</pdfrwt>
<totfact> 0.33866438E+12</totfact>
</mgrwt>
</event>
<event>
 4    2  0.1985873E+006  0.2041880E+01  0.7546771E-02  0.2953017E+00
         22   -1    0    0    0    0  0.00000000000E+00  0.00000000000E+00  0.45306068168E+01  0.45306068168E+01  0.00000000000E+00 0. -1.
         22   -1    0    0    0    0 -0.00000000000E+00 -0.00000000000E+00 -0.95638014036E+00  0.95638014036E+00  0.00000000000E+00 0.  1.
          4    1    1    2  501    0 -0.34064686671E+00 -0.20132642595E+01  0.23203830325E+01  0.30908656852E+01  0.00000000000E+00 0. -1.
         -4    1    1    2    0  501  0.34064686671E+00  0.20132642595E+01  0.12538436440E+01  0.23961212720E+01  0.00000000000E+00 0.  1.
<mgrwt>
<rscale>  0 0.20418798E+01</rscale>
<asrwt>0</asrwt>
<pdfrwt beam="1">0</pdfrwt>
<pdfrwt beam="2">0</pdfrwt>
<totfact> 0.43003249E+12</totfact>
</mgrwt>
</event>
<event>
 4    2  0.1985873E+006  0.2043999E+01  0.7546771E-02  0.2951644E+00
         22   -1    0    0    0    0  0.00000000000E+00  0.00000000000E+00  0.15601299473E+00  0.15601299473E+00  0.00000000000E+00 0.  1.
         22   -1    0    0    0    0 -0.00000000000E+00 -0.00000000000E+00 -0.32339254185E+02  0.32339254185E+02  0.00000000000E+00 0. -1.
          4    1    1    2  501    0  0.18726047654E+01 -0.81931939998E+00 -0.93547656874E+01  0.95754672968E+01  0.00000000000E+00 0.  1.
         -4    1    1    2    0  501 -0.18726047654E+01  0.81931939998E+00 -0.22828475503E+02  0.22919799883E+02  0.00000000000E+00 0. -1.
<mgrwt>
<rscale>  0 0.20439992E+01</rscale>
<asrwt>0</asrwt>
<pdfrwt beam="1">0</pdfrwt>
<pdfrwt beam="2">0</pdfrwt>
<totfact> 0.29905158E+12</totfact>
</mgrwt>
</event>
<event>
 4    2  0.1985873E+006  0.3517582E+01  0.7546771E-02  0.2380234E+00
         22   -1    0    0    0    0  0.00000000000E+00  0.00000000000E+00  0.33708976556E+01  0.33708976556E+01  0.00000000000E+00 0.  1.
         22   -1    0    0    0    0 -0.00000000000E+00 -0.00000000000E+00 -0.61446065179E+01  0.61446065179E+01  0.00000000000E+00 0. -1.
          4    1    1    2  501    0 -0.18383206818E+01 -0.29989930417E+01  0.16320605773E+01  0.38777575893E+01  0.00000000000E+00 0.  1.
         -4    1    1    2    0  501  0.18383206818E+01  0.29989930417E+01 -0.44057694396E+01  0.56377465842E+01  0.00000000000E+00 0. -1.
<mgrwt>
<rscale>  0 0.35175819E+01</rscale>
<asrwt>0</asrwt>
<pdfrwt beam="1">0</pdfrwt>
<pdfrwt beam="2">0</pdfrwt>
<totfact> 0.69906608E+11</totfact>
</mgrwt>
</event>
<event>
 4    2  0.1985873E+006  0.2240674E+01  0.7546771E-02  0.2835220E+00
         22   -1    0    0    0    0  0.00000000000E+00  0.00000000000E+00  0.13475409038E+00  0.13475409038E+00  0.00000000000E+00 0. -1.
         22   -1    0    0    0    0 -0.00000000000E+00 -0.00000000000E+00 -0.99793569526E+02  0.99793569526E+02  0.00000000000E+00 0.  1.
          4    1    1    2  501    0 -0.22087258771E+01 -0.37702502666E+00 -0.10277068718E+02  0.10518496057E+02  0.00000000000E+00 0. -1.
         -4    1    1    2    0  501  0.22087258771E+01  0.37702502666E+00 -0.89381746718E+02  0.89409827559E+02  0.00000000000E+00 0.  1.
<mgrwt>
<rscale>  0 0.22406735E+01</rscale>
<asrwt>0</asrwt>
<pdfrwt beam="1">0</pdfrwt>
<pdfrwt beam="2">0</pdfrwt>
<totfact> 0.78093969E+11</totfact>
</mgrwt>
</event>
<event>
 4    2  0.1985873E+006  0.3138196E+01  0.7546771E-02  0.2480234E+00
         22   -1    0    0    0    0  0.00000000000E+00  0.00000000000E+00  0.10768482811E+02  0.10768482811E+02  0.00000000000E+00 0. -1.
         22   -1    0    0    0    0 -0.00000000000E+00 -0.00000000000E+00 -0.10629485985E+01  0.10629485985E+01  0.00000000000E+00 0.  1.
          4    1    1    2  501    0  0.30615429744E+01 -0.68936694133E+00  0.70631729138E+01  0.77289510139E+01  0.00000000000E+00 0.  1.
         -4    1    1    2    0  501 -0.30615429744E+01  0.68936694133E+00  0.26423612990E+01  0.41024803958E+01  0.00000000000E+00 0. -1.
<mgrwt>
<rscale>  0 0.31381957E+01</rscale>
<asrwt>0</asrwt>
<pdfrwt beam="1">0</pdfrwt>
<pdfrwt beam="2">0</pdfrwt>
<totfact> 0.13528464E+12</totfact>
</mgrwt>
</event>
<event>
 4    2  0.1985873E+006  0.2334723E+01  0.7546771E-02  0.2786206E+00
         22   -1    0    0    0    0  0.00000000000E+00  0.00000000000E+00  0.61232169660E+00  0.61232169660E+00  0.00000000000E+00 0.  1.
         22   -1    0    0    0    0 -0.00000000000E+00 -0.00000000000E+00 -0.93129403386E+01  0.93129403386E+01  0.00000000000E+00 0. -1.
          4    1    1    2  501    0 -0.11987989563E+01 -0.20034505315E+01 -0.53926721828E+01  0.58763803690E+01  0.00000000000E+00 0. -1.
         -4    1    1    2    0  501  0.11987989563E+01  0.20034505315E+01 -0.33079464591E+01  0.40488816661E+01  0.00000000000E+00 0.  1.
<mgrwt>
<rscale>  0 0.23347233E+01</rscale>
<asrwt>0</asrwt>
<pdfrwt beam="1">0</pdfrwt>
<pdfrwt beam="2">0</pdfrwt>
<totfact> 0.30209976E+12</totfact>
</mgrwt>
</event>
<event>
 4    2  0.1985873E+006  0.2321811E+01  0.7546771E-02  0.2792712E+00
         22   -1    0    0    0    0  0.00000000000E+00  0.00000000000E+00  0.90892620156E+01  0.90892620156E+01  0.00000000000E+00 0.  1.
         22   -1    0    0    0    0 -0.00000000000E+00 -0.00000000000E+00 -0.73624116161E+00  0.73624116161E+00  0.00000000000E+00 0. -1.
          4    1    1    2  501    0  0.23119877695E+01 -0.21335058470E+00  0.63427322749E+01  0.67543362834E+01  0.00000000000E+00 0.  1.
         -4    1    1    2    0  501 -0.23119877695E+01  0.21335058470E+00  0.20102885791E+01  0.30711668938E+01  0.00000000000E+00 0. -1.
<mgrwt>
<rscale>  0 0.23218109E+01</rscale>
<asrwt>0</asrwt>
<pdfrwt beam="1">0</pdfrwt>
<pdfrwt beam="2">0</pdfrwt>
<totfact> 0.25240664E+12</totfact>
</mgrwt>
</event>
<event>
 4    2  0.1985873E+006  0.4890796E+01  0.7546771E-02  0.2136269E+00
         22   -1    0    0    0    0  0.00000000000E+00  0.00000000000E+00  0.17494620847E+02  0.17494620847E+02  0.00000000000E+00 0. -1.
         22   -1    0    0    0    0 -0.00000000000E+00 -0.00000000000E+00 -0.40060764353E+01  0.40060764353E+01  0.00000000000E+00 0.  1.
          4    1    1    2  501    0 -0.48627734780E+01  0.52279803824E+00  0.15469296348E+02  0.16224025801E+02  0.00000000000E+00 0. -1.
         -4    1    1    2    0  501  0.48627734780E+01 -0.52279803824E+00 -0.19807519364E+01  0.52766714813E+01  0.00000000000E+00 0.  1.
<mgrwt>
<rscale>  0 0.48907958E+01</rscale>
<asrwt>0</asrwt>
<pdfrwt beam="1">0</pdfrwt>
<pdfrwt beam="2">0</pdfrwt>
<totfact> 0.16036526E+11</totfact>
</mgrwt>
</event>
<event>
 4    2  0.1985873E+006  0.2237388E+01  0.7546771E-02  0.2837003E+00
         22   -1    0    0    0    0  0.00000000000E+00  0.00000000000E+00  0.26078125469E+02  0.26078125469E+02  0.00000000000E+00 0. -1.
         22   -1    0    0    0    0 -0.00000000000E+00 -0.00000000000E+00 -0.24497374673E+00  0.24497374673E+00  0.00000000000E+00 0.  1.
          4    1    1    2  501    0  0.21243897984E+01 -0.70204870299E+00  0.19039371425E+02  0.19170382591E+02  0.00000000000E+00 0.  1.
         -4    1    1    2    0  501 -0.21243897984E+01  0.70204870299E+00  0.67937802970E+01  0.71527166252E+01  0.00000000000E+00 0. -1.
<mgrwt>
<rscale>  0 0.22373879E+01</rscale>
<asrwt>0</asrwt>
<pdfrwt beam="1">0</pdfrwt>
<pdfrwt beam="2">0</pdfrwt>
<totfact> 0.23773994E+12</totfact>
</mgrwt>
</event>
<event>
 4    2  0.1985873E+006  0.2284380E+01  0.7546771E-02  0.2811966E+00
         22   -1    0    0    0    0  0.00000000000E+00  0.00000000000E+00  0.16112179447E+02  0.16112179447E+02  0.00000000000E+00 0.  1.
         22   -1    0    0    0    0 -0.00000000000E+00 -0.00000000000E+00 -0.34665264515E+00  0.34665264515E+00  0.00000000000E+00 0. -1.
          4    1    1    2  501    0 -0.13986776874E+01  0.18061258712E+01  0.99920809161E+01  0.10249881510E+02  0.00000000000E+00 0. -1.
         -4    1    1    2    0  501  0.13986776874E+01 -0.18061258712E+01  0.57734458858E+01  0.62089505822E+01  0.00000000000E+00 0.  1.
<mgrwt>
<rscale>  0 0.22843796E+01</rscale>
<asrwt>0</asrwt>
<pdfrwt beam="1">0</pdfrwt>
<pdfrwt beam="2">0</pdfrwt>
<totfact> 0.29394229E+12</totfact>
</mgrwt>
</event>
<event>
 4    2  0.1985873E+006  0.2133478E+01  0.7546771E-02  0.2896107E+00
         22   -1    0    0    0    0  0.00000000000E+00  0.00000000000E+00  0.16755194253E+01  0.16755194253E+01  0.00000000000E+00 0. -1.
         22   -1    0    0    0    0 -0.00000000000E+00 -0.00000000000E+00 -0.37840321387E+01  0.37840321387E+01  0.00000000000E+00 0.  1.
          4    1    1    2  501    0  0.10836810022E+01 -0.18377608224E+01  0.39557701775E+00  0.21698411305E+01  0.00000000000E+00 0. -1.
         -4    1    1    2    0  501 -0.10836810022E+01  0.18377608224E+01 -0.25040897311E+01  0.32897104335E+01  0.00000000000E+00 0.  1.
<mgrwt>
<rscale>  0 0.21334782E+01</rscale>
<asrwt>0</asrwt>
<pdfrwt beam="1">0</pdfrwt>
<pdfrwt beam="2">0</pdfrwt>
<totfact> 0.27945738E+12</totfact>
</mgrwt>
</event>
<event>
 4    2  0.1985873E+006  0.6336710E+01  0.7546771E-02  0.1990745E+00
         22   -1    0    0    0    0  0.00000000000E+00  0.00000000000E+00  0.38206549220E+02  0.38206549220E+02  0.00000000000E+00 0. -1.
         22   -1    0    0    0    0 -0.00000000000E+00 -0.00000000000E+00 -0.37544865471E+01  0.37544865471E+01  0.00000000000E+00 0.  1.
          4    1    1    2  501    0  0.23038762457E+01  0.59030539488E+01  0.35029537500E+02  0.35598067211E+02  0.00000000000E+00 0. -1.
         -4    1    1    2    0  501 -0.23038762457E+01 -0.59030539488E+01 -0.57747482679E+00  0.63629685567E+01  0.00000000000E+00 0.  1.
<mgrwt>
<rscale>  0 0.63367098E+01</rscale>
<asrwt>0</asrwt>
<pdfrwt beam="1">0</pdfrwt>
<pdfrwt beam="2">0</pdfrwt>
<totfact> 0.64452334E+10</totfact>
</mgrwt>
</event>
<event>
 4    2  0.1985873E+006  0.2353129E+01  0.7546771E-02  0.2777049E+00
         22   -1    0    0    0    0  0.00000000000E+00  0.00000000000E+00  0.18429395163E+01  0.18429395163E+01  0.00000000000E+00 0.  1.
         22   -1    0    0    0    0 -0.00000000000E+00 -0.00000000000E+00 -0.81640932364E+01  0.81640932364E+01  0.00000000000E+00 0. -1.
          4    1    1    2  501    0 -0.54753636956E+00  0.22885406298E+01  0.81707472255E+00  0.24909486933E+01  0.00000000000E+00 0.  1.
         -4    1    1    2    0  501  0.54753636956E+00 -0.22885406298E+01 -0.71382284426E+01  0.75160840595E+01  0.00000000000E+00 0. -1.
<mgrwt>
<rscale>  0 0.23531286E+01</rscale>
<asrwt>0</asrwt>
<pdfrwt beam="1">0</pdfrwt>
<pdfrwt beam="2">0</pdfrwt>
<totfact> 0.10042858E+12</totfact>
</mgrwt>
</event>
<event>
 4    2  0.1985873E+006  0.2541554E+01  0.7546771E-02  0.2690489E+00
         22   -1    0    0    0    0  0.00000000000E+00  0.00000000000E+00  0.77805502513E+01  0.77805502513E+01  0.00000000000E+00 0. -1.
         22   -1    0    0    0    0 -0.00000000000E+00 -0.00000000000E+00 -0.10256009694E+01  0.10256009694E+01  0.00000000000E+00 0.  1.
          4    1    1    2  501    0 -0.13597800640E+01 -0.21472058418E+01  0.52993206516E+01  0.58772692738E+01  0.00000000000E+00 0.  1.
         -4    1    1    2    0  501  0.13597800640E+01  0.21472058418E+01  0.14556286303E+01  0.29288819469E+01  0.00000000000E+00 0. -1.
<mgrwt>
<rscale>  0 0.25415536E+01</rscale>
<asrwt>0</asrwt>
<pdfrwt beam="1">0</pdfrwt>
<pdfrwt beam="2">0</pdfrwt>
<totfact> 0.20862632E+12</totfact>
</mgrwt>
</event>
<event>
 4    2  0.1985873E+006  0.2036285E+01  0.7546771E-02  0.2956655E+00
         22   -1    0    0    0    0  0.00000000000E+00  0.00000000000E+00  0.44107008626E+00  0.44107008626E+00  0.00000000000E+00 0. -1.
         22   -1    0    0    0    0 -0.00000000000E+00 -0.00000000000E+00 -0.22543521572E+02  0.22543521572E+02  0.00000000000E+00 0.  1.
          4    1    1    2  501    0  0.15586903954E+01 -0.13103209297E+01 -0.22764326522E+01  0.30542760693E+01  0.00000000000E+00 0. -1.
         -4    1    1    2    0  501 -0.15586903954E+01  0.13103209297E+01 -0.19826018833E+02  0.19930315589E+02  0.00000000000E+00 0.  1.
<mgrwt>
<rscale>  0 0.20362850E+01</rscale>
<asrwt>0</asrwt>
<pdfrwt beam="1">0</pdfrwt>
<pdfrwt beam="2">0</pdfrwt>
<totfact> 0.14757864E+12</totfact>
</mgrwt>
</event>
<event>
 4    2  0.1985873E+006  0.2089278E+01  0.7546771E-02  0.2922964E+00
         22   -1    0    0    0    0  0.00000000000E+00  0.00000000000E+00  0.44986168231E+00  0.44986168231E+00  0.00000000000E+00 0. -1.
         22   -1    0    0    0    0 -0.00000000000E+00 -0.00000000000E+00 -0.10008801636E+02  0.10008801636E+02  0.00000000000E+00 0.  1.
          4    1    1    2  501    0 -0.74642401732E+00 -0.19513924385E+01 -0.38656529998E+01  0.43941272600E+01  0.00000000000E+00 0. -1.
         -4    1    1    2    0  501  0.74642401732E+00  0.19513924385E+01 -0.56932869535E+01  0.60645360579E+01  0.00000000000E+00 0.  1.
<mgrwt>
<rscale>  0 0.20892777E+01</rscale>
<asrwt>0</asrwt>
<pdfrwt beam="1">0</pdfrwt>
<pdfrwt beam="2">0</pdfrwt>
<totfact> 0.39228290E+12</totfact>
</mgrwt>
</event>
<event>
 4    2  0.1985873E+006  0.2565776E+01  0.7546771E-02  0.2680223E+00
         22   -1    0    0    0    0  0.00000000000E+00  0.00000000000E+00  0.93916981536E+01  0.93916981536E+01  0.00000000000E+00 0. -1.
         22   -1    0    0    0    0 -0.00000000000E+00 -0.00000000000E+00 -0.80588623572E+00  0.80588623572E+00  0.00000000000E+00 0.  1.
          4    1    1    2  501    0 -0.24863725034E+01  0.63337187745E+00  0.24531012113E+01  0.35497765724E+01  0.00000000000E+00 0.  1.
         -4    1    1    2    0  501  0.24863725034E+01 -0.63337187745E+00  0.61327107065E+01  0.66478078169E+01  0.00000000000E+00 0. -1.
<mgrwt>
<rscale>  0 0.25657763E+01</rscale>
<asrwt>0</asrwt>
<pdfrwt beam="1">0</pdfrwt>
<pdfrwt beam="2">0</pdfrwt>
<totfact> 0.21893733E+12</totfact>
</mgrwt>
</event>
<event>
 4    2  0.1985873E+006  0.2510732E+01  0.7546771E-02  0.2703818E+00
         22   -1    0    0    0    0  0.00000000000E+00  0.00000000000E+00  0.13346971957E+01  0.13346971957E+01  0.00000000000E+00 0.  1.
         22   -1    0    0    0    0 -0.00000000000E+00 -0.00000000000E+00 -0.49660801515E+01  0.49660801515E+01  0.00000000000E+00 0. -1.
          4    1    1    2  501    0  0.23042174703E+01 -0.99717338428E+00 -0.11186905971E+01  0.27486799670E+01  0.00000000000E+00 0. -1.
         -4    1    1    2    0  501 -0.23042174703E+01  0.99717338428E+00 -0.25126923587E+01  0.35520973802E+01  0.00000000000E+00 0.  1.
<mgrwt>
<rscale>  0 0.25107315E+01</rscale>
<asrwt>0</asrwt>
<pdfrwt beam="1">0</pdfrwt>
<pdfrwt beam="2">0</pdfrwt>
<totfact> 0.26347981E+12</totfact>
</mgrwt>
</event>
<event>
 4    2  0.1985873E+006  0.2349979E+01  0.7546771E-02  0.2778607E+00
         22   -1    0    0    0    0  0.00000000000E+00  0.00000000000E+00  0.12036099298E+01  0.12036099298E+01  0.00000000000E+00 0.  1.
         22   -1    0    0    0    0 -0.00000000000E+00 -0.00000000000E+00 -0.53187959196E+01  0.53187959196E+01  0.00000000000E+00 0. -1.
          4    1    1    2  501    0 -0.23080719356E+01  0.44181788040E+00 -0.84891458728E+00  0.24986106291E+01  0.00000000000E+00 0.  1.
         -4    1    1    2    0  501  0.23080719356E+01 -0.44181788040E+00 -0.32662714025E+01  0.40237952202E+01  0.00000000000E+00 0. -1.
<mgrwt>
<rscale>  0 0.23499785E+01</rscale>
<asrwt>0</asrwt>
<pdfrwt beam="1">0</pdfrwt>
<pdfrwt beam="2">0</pdfrwt>
<totfact> 0.27347798E+12</totfact>
</mgrwt>
</event>
<event>
 4    2  0.1985873E+006  0.2092482E+01  0.7546771E-02  0.2920979E+00
         22   -1    0    0    0    0  0.00000000000E+00  0.00000000000E+00  0.13312875082E+00  0.13312875082E+00  0.00000000000E+00 0.  1.
         22   -1    0    0    0    0 -0.00000000000E+00 -0.00000000000E+00 -0.48477122738E+02  0.48477122738E+02  0.00000000000E+00 0. -1.
          4    1    1    2  501    0 -0.31950023844E+00 -0.20679464068E+01 -0.10389586366E+02  0.10598206811E+02  0.00000000000E+00 0.  1.
         -4    1    1    2    0  501  0.31950023844E+00  0.20679464068E+01 -0.37954407621E+02  0.38012044678E+02  0.00000000000E+00 0. -1.
<mgrwt>
<rscale>  0 0.20924824E+01</rscale>
<asrwt>0</asrwt>
<pdfrwt beam="1">0</pdfrwt>
<pdfrwt beam="2">0</pdfrwt>
<totfact> 0.21097864E+12</totfact>
</mgrwt>
</event>
<event>
 4    2  0.1985873E+006  0.3997818E+01  0.7546771E-02  0.2277712E+00
         22   -1    0    0    0    0  0.00000000000E+00  0.00000000000E+00  0.41876091837E+01  0.41876091837E+01  0.00000000000E+00 0. -1.
         22   -1    0    0    0    0 -0.00000000000E+00 -0.00000000000E+00 -0.94079223911E+01  0.94079223911E+01  0.00000000000E+00 0.  1.
          4    1    1    2  501    0 -0.59959344110E+00  0.39525990072E+01  0.26303765123E+01  0.47855440446E+01  0.00000000000E+00 0. -1.
         -4    1    1    2    0  501  0.59959344110E+00 -0.39525990072E+01 -0.78506897197E+01  0.88099875302E+01  0.00000000000E+00 0.  1.
<mgrwt>
<rscale>  0 0.39978183E+01</rscale>
<asrwt>0</asrwt>
<pdfrwt beam="1">0</pdfrwt>
<pdfrwt beam="2">0</pdfrwt>
<totfact> 0.32502750E+11</totfact>
</mgrwt>
</event>
<event>
 4    2  0.1985873E+006  0.2050346E+01  0.7546771E-02  0.2947550E+00
         22   -1    0    0    0    0  0.00000000000E+00  0.00000000000E+00  0.64658980744E+01  0.64658980744E+01  0.00000000000E+00 0.  1.
         22   -1    0    0    0    0 -0.00000000000E+00 -0.00000000000E+00 -0.65908429010E+00  0.65908429010E+00  0.00000000000E+00 0. -1.
          4    1    1    2  501    0  0.12370868925E+01 -0.16350950877E+01  0.33177649285E+01  0.39001902577E+01  0.00000000000E+00 0.  1.
         -4    1    1    2    0  501 -0.12370868925E+01  0.16350950877E+01  0.24890488557E+01  0.32247921067E+01  0.00000000000E+00 0. -1.
<mgrwt>
<rscale>  0 0.20503463E+01</rscale>
<asrwt>0</asrwt>
<pdfrwt beam="1">0</pdfrwt>
<pdfrwt beam="2">0</pdfrwt>
<totfact> 0.43062043E+12</totfact>
</mgrwt>
</event>
<event>
 4    2  0.1985873E+006  0.2520028E+01  0.7546771E-02  0.2699766E+00
         22   -1    0    0    0    0  0.00000000000E+00  0.00000000000E+00  0.44059361753E+01  0.44059361753E+01  0.00000000000E+00 0.  1.
         22   -1    0    0    0    0 -0.00000000000E+00 -0.00000000000E+00 -0.14492884118E+01  0.14492884118E+01  0.00000000000E+00 0. -1.
          4    1    1    2  501    0  0.16409806843E+01  0.19125178985E+01  0.16948527822E+01  0.30369504888E+01  0.00000000000E+00 0. -1.
         -4    1    1    2    0  501 -0.16409806843E+01 -0.19125178985E+01  0.12617949813E+01  0.28182740983E+01  0.00000000000E+00 0.  1.
<mgrwt>
<rscale>  0 0.25200282E+01</rscale>
<asrwt>0</asrwt>
<pdfrwt beam="1">0</pdfrwt>
<pdfrwt beam="2">0</pdfrwt>
<totfact> 0.27610319E+12</totfact>
</mgrwt>
</event>
<event>
 4    2  0.1985873E+006  0.2185341E+01  0.7546771E-02  0.2865933E+00
         22   -1    0    0    0    0  0.00000000000E+00  0.00000000000E+00  0.52981317826E+02  0.52981317826E+02  0.00000000000E+00 0.  1.
         22   -1    0    0    0    0 -0.00000000000E+00 -0.00000000000E+00 -0.99974646352E-01  0.99974646352E-01  0.00000000000E+00 0. -1.
          4    1    1    2  501    0 -0.57857326832E+00 -0.21073605931E+01  0.34765099287E+02  0.34833717059E+02  0.00000000000E+00 0. -1.
         -4    1    1    2    0  501  0.57857326832E+00  0.21073605931E+01  0.18116243893E+02  0.18247575414E+02  0.00000000000E+00 0.  1.
<mgrwt>
<rscale>  0 0.21853411E+01</rscale>
<asrwt>0</asrwt>
<pdfrwt beam="1">0</pdfrwt>
<pdfrwt beam="2">0</pdfrwt>
<totfact> 0.25775374E+12</totfact>
</mgrwt>
</event>
<event>
 4    2  0.1985873E+006  0.2108045E+01  0.7546771E-02  0.2911427E+00
         22   -1    0    0    0    0  0.00000000000E+00  0.00000000000E+00  0.94557964229E+01  0.94557964229E+01  0.00000000000E+00 0. -1.
         22   -1    0    0    0    0 -0.00000000000E+00 -0.00000000000E+00 -0.55600543797E+00  0.55600543797E+00  0.00000000000E+00 0.  1.
          4    1    1    2  501    0  0.10372331834E+01 -0.18352116940E+01  0.64191614495E+01  0.67564405091E+01  0.00000000000E+00 0. -1.
         -4    1    1    2    0  501 -0.10372331834E+01  0.18352116940E+01  0.24806295354E+01  0.32553613517E+01  0.00000000000E+00 0.  1.
<mgrwt>
<rscale>  0 0.21080452E+01</rscale>
<asrwt>0</asrwt>
<pdfrwt beam="1">0</pdfrwt>
<pdfrwt beam="2">0</pdfrwt>
<totfact> 0.33080351E+12</totfact>
</mgrwt>
</event>
<event>
 4    2  0.1985873E+006  0.2098257E+01  0.7546771E-02  0.2917419E+00
         22   -1    0    0    0    0  0.00000000000E+00  0.00000000000E+00  0.54853001011E+01  0.54853001011E+01  0.00000000000E+00 0.  1.
         22   -1    0    0    0    0 -0.00000000000E+00 -0.00000000000E+00 -0.19556523784E+01  0.19556523784E+01  0.00000000000E+00 0. -1.
          4    1    1    2  501    0  0.20868933462E+01  0.21807578232E+00  0.46215662348E+01  0.50755842371E+01  0.00000000000E+00 0.  1.
         -4    1    1    2    0  501 -0.20868933462E+01 -0.21807578232E+00 -0.10919185120E+01  0.23653682424E+01  0.00000000000E+00 0. -1.
<mgrwt>
<rscale>  0 0.20982566E+01</rscale>
<asrwt>0</asrwt>
<pdfrwt beam="1">0</pdfrwt>
<pdfrwt beam="2">0</pdfrwt>
<totfact> 0.15077610E+12</totfact>
</mgrwt>
</event>
<event>
 4    2  0.1985873E+006  0.3786987E+01  0.7546771E-02  0.2319960E+00
         22   -1    0    0    0    0  0.00000000000E+00  0.00000000000E+00  0.46859378983E+01  0.46859378983E+01  0.00000000000E+00 0.  1.
         22   -1    0    0    0    0 -0.00000000000E+00 -0.00000000000E+00 -0.31164476657E+01  0.31164476657E+01  0.00000000000E+00 0. -1.
          4    1    1    2  501    0 -0.79877363619E+00 -0.37017876384E+01  0.26199615614E+00  0.37960391235E+01  0.00000000000E+00 0.  1.
         -4    1    1    2    0  501  0.79877363619E+00  0.37017876384E+01  0.13074940764E+01  0.40063464405E+01  0.00000000000E+00 0. -1.
<mgrwt>
<rscale>  0 0.37869871E+01</rscale>
<asrwt>0</asrwt>
<pdfrwt beam="1">0</pdfrwt>
<pdfrwt beam="2">0</pdfrwt>
<totfact> 0.10569550E+12</totfact>
</mgrwt>
</event>
<event>
 4    2  0.1985873E+006  0.4411136E+01  0.7546771E-02  0.2204979E+00
         22   -1    0    0    0    0  0.00000000000E+00  0.00000000000E+00  0.63440407703E+01  0.63440407703E+01  0.00000000000E+00 0.  1.
         22   -1    0    0    0    0 -0.00000000000E+00 -0.00000000000E+00 -0.63936621462E+01  0.63936621462E+01  0.00000000000E+00 0. -1.
          4    1    1    2  501    0 -0.33957581510E+01 -0.28154830766E+01  0.45690825654E+01  0.63509553505E+01  0.00000000000E+00 0. -1.
         -4    1    1    2    0  501  0.33957581510E+01  0.28154830766E+01 -0.46187039412E+01  0.63867475660E+01  0.00000000000E+00 0.  1.
<mgrwt>
<rscale>  0 0.44111357E+01</rscale>
<asrwt>0</asrwt>
<pdfrwt beam="1">0</pdfrwt>
<pdfrwt beam="2">0</pdfrwt>
<totfact> 0.31583608E+11</totfact>
</mgrwt>
</event>
<event>
 4    2  0.1985873E+006  0.2261324E+01  0.7546771E-02  0.2824126E+00
         22   -1    0    0    0    0  0.00000000000E+00  0.00000000000E+00  0.11365291498E+02  0.11365291498E+02  0.00000000000E+00 0. -1.
         22   -1    0    0    0    0 -0.00000000000E+00 -0.00000000000E+00 -0.55215046685E+00  0.55215046685E+00  0.00000000000E+00 0.  1.
          4    1    1    2  501    0 -0.16616787971E+01  0.15337572233E+01  0.79704220726E+01  0.82849994363E+01  0.00000000000E+00 0. -1.
         -4    1    1    2    0  501  0.16616787971E+01 -0.15337572233E+01  0.28427189580E+01  0.36324425280E+01  0.00000000000E+00 0.  1.
<mgrwt>
<rscale>  0 0.22613243E+01</rscale>
<asrwt>0</asrwt>
<pdfrwt beam="1">0</pdfrwt>
<pdfrwt beam="2">0</pdfrwt>
<totfact> 0.26677258E+12</totfact>
</mgrwt>
</event>
<event>
 4    2  0.1985873E+006  0.2774477E+01  0.7546771E-02  0.2598640E+00
         22   -1    0    0    0    0  0.00000000000E+00  0.00000000000E+00  0.20290246761E+00  0.20290246761E+00  0.00000000000E+00 0. -1.
         22   -1    0    0    0    0 -0.00000000000E+00 -0.00000000000E+00 -0.46146373312E+02  0.46146373312E+02  0.00000000000E+00 0.  1.
          4    1    1    2  501    0 -0.13707910130E+01  0.24121886041E+01 -0.13197750380E+02  0.13486227677E+02  0.00000000000E+00 0. -1.
         -4    1    1    2    0  501  0.13707910130E+01 -0.24121886041E+01 -0.32745720464E+02  0.32863048102E+02  0.00000000000E+00 0.  1.
<mgrwt>
<rscale>  0 0.27744769E+01</rscale>
<asrwt>0</asrwt>
<pdfrwt beam="1">0</pdfrwt>
<pdfrwt beam="2">0</pdfrwt>
<totfact> 0.14082818E+12</totfact>
</mgrwt>
</event>
<event>
 4    2  0.1985873E+006  0.2368322E+01  0.7546771E-02  0.2769592E+00
         22   -1    0    0    0    0  0.00000000000E+00  0.00000000000E+00  0.48195844826E+02  0.48195844826E+02  0.00000000000E+00 0.  1.
         22   -1    0    0    0    0 -0.00000000000E+00 -0.00000000000E+00 -0.12506696740E+00  0.12506696740E+00  0.00000000000E+00 0. -1.
          4    1    1    2  501    0 -0.19925066601E+01  0.12801821785E+01  0.30403506448E+02  0.30495608758E+02  0.00000000000E+00 0.  1.
         -4    1    1    2    0  501  0.19925066601E+01 -0.12801821785E+01  0.17667271411E+02  0.17825303035E+02  0.00000000000E+00 0. -1.
<mgrwt>
<rscale>  0 0.23683220E+01</rscale>
<asrwt>0</asrwt>
<pdfrwt beam="1">0</pdfrwt>
<pdfrwt beam="2">0</pdfrwt>
<totfact> 0.22788014E+12</totfact>
</mgrwt>
</event>
<event>
 4    2  0.1985873E+006  0.2061461E+01  0.7546771E-02  0.2940438E+00
         22   -1    0    0    0    0  0.00000000000E+00  0.00000000000E+00  0.10861628425E+01  0.10861628425E+01  0.00000000000E+00 0. -1.
         22   -1    0    0    0    0 -0.00000000000E+00 -0.00000000000E+00 -0.13982525923E+02  0.13982525923E+02  0.00000000000E+00 0.  1.
          4    1    1    2  501    0  0.15413650583E+01  0.13688735324E+01 -0.54253137954E-01  0.20621746758E+01  0.00000000000E+00 0. -1.
         -4    1    1    2    0  501 -0.15413650583E+01 -0.13688735324E+01 -0.12842109943E+02  0.13006514090E+02  0.00000000000E+00 0.  1.
<mgrwt>
<rscale>  0 0.20614609E+01</rscale>
<asrwt>0</asrwt>
<pdfrwt beam="1">0</pdfrwt>
<pdfrwt beam="2">0</pdfrwt>
<totfact> 0.95947670E+11</totfact>
</mgrwt>
</event>
<event>
 4    2  0.1985873E+006  0.2177795E+01  0.7546771E-02  0.2870237E+00
         22   -1    0    0    0    0  0.00000000000E+00  0.00000000000E+00  0.43055658557E+00  0.43055658557E+00  0.00000000000E+00 0. -1.
         22   -1    0    0    0    0 -0.00000000000E+00 -0.00000000000E+00 -0.26041790125E+02  0.26041790125E+02  0.00000000000E+00 0.  1.
          4    1    1    2  501    0  0.20712478949E+01 -0.67284782434E+00 -0.27512887583E+01  0.35089003788E+01  0.00000000000E+00 0. -1.
         -4    1    1    2    0  501 -0.20712478949E+01  0.67284782434E+00 -0.22859944781E+02  0.22963446332E+02  0.00000000000E+00 0.  1.
<mgrwt>
<rscale>  0 0.21777952E+01</rscale>
<asrwt>0</asrwt>
<pdfrwt beam="1">0</pdfrwt>
<pdfrwt beam="2">0</pdfrwt>
<totfact> 0.12646140E+12</totfact>
</mgrwt>
</event>
<event>
 4    2  0.1985873E+006  0.3592286E+01  0.7546771E-02  0.2362737E+00
         22   -1    0    0    0    0  0.00000000000E+00  0.00000000000E+00  0.19531584172E+01  0.19531584172E+01  0.00000000000E+00 0.  1.
         22   -1    0    0    0    0 -0.00000000000E+00 -0.00000000000E+00 -0.10813868135E+02  0.10813868135E+02  0.00000000000E+00 0. -1.
          4    1    1    2  501    0 -0.25682670513E+01 -0.25116775812E+01 -0.44883742995E+00  0.36202175290E+01  0.00000000000E+00 0.  1.
         -4    1    1    2    0  501  0.25682670513E+01  0.25116775812E+01 -0.84118722879E+01  0.91468090232E+01  0.00000000000E+00 0. -1.
<mgrwt>
<rscale>  0 0.35922862E+01</rscale>
<asrwt>0</asrwt>
<pdfrwt beam="1">0</pdfrwt>
<pdfrwt beam="2">0</pdfrwt>
<totfact> 0.66868190E+11</totfact>
</mgrwt>
</event>
<event>
 4    2  0.1985873E+006  0.2144100E+01  0.7546771E-02  0.2889812E+00
         22   -1    0    0    0    0  0.00000000000E+00  0.00000000000E+00  0.49898390208E+01  0.49898390208E+01  0.00000000000E+00 0.  1.
         22   -1    0    0    0    0 -0.00000000000E+00 -0.00000000000E+00 -0.15197544766E+01  0.15197544766E+01  0.00000000000E+00 0. -1.
          4    1    1    2  501    0 -0.14391072206E+01  0.15893826430E+01  0.37774887057E+01  0.43435685445E+01  0.00000000000E+00 0.  1.
         -4    1    1    2    0  501  0.14391072206E+01 -0.15893826430E+01 -0.30740416158E+00  0.21660249530E+01  0.00000000000E+00 0. -1.
<mgrwt>
<rscale>  0 0.21441005E+01</rscale>
<asrwt>0</asrwt>
<pdfrwt beam="1">0</pdfrwt>
<pdfrwt beam="2">0</pdfrwt>
<totfact> 0.22565838E+12</totfact>
</mgrwt>
</event>
<event>
 4    2  0.1985873E+006  0.2699634E+01  0.7546771E-02  0.2626565E+00
         22   -1    0    0    0    0  0.00000000000E+00  0.00000000000E+00  0.39393988210E+01  0.39393988210E+01  0.00000000000E+00 0. -1.
         22   -1    0    0    0    0 -0.00000000000E+00 -0.00000000000E+00 -0.78250326402E+01  0.78250326402E+01  0.00000000000E+00 0.  1.
          4    1    1    2  501    0  0.20918507664E+01  0.17065114997E+01  0.31972264263E+01  0.41845284022E+01  0.00000000000E+00 0. -1.
         -4    1    1    2    0  501 -0.20918507664E+01 -0.17065114997E+01 -0.70828602455E+01  0.75799030591E+01  0.00000000000E+00 0.  1.
<mgrwt>
<rscale>  0 0.26996335E+01</rscale>
<asrwt>0</asrwt>
<pdfrwt beam="1">0</pdfrwt>
<pdfrwt beam="2">0</pdfrwt>
<totfact> 0.43601978E+11</totfact>
</mgrwt>
</event>
<event>
 4    2  0.1985873E+006  0.3526718E+01  0.7546771E-02  0.2378059E+00
         22   -1    0    0    0    0  0.00000000000E+00  0.00000000000E+00  0.31204976592E+00  0.31204976592E+00  0.00000000000E+00 0.  1.
         22   -1    0    0    0    0 -0.00000000000E+00 -0.00000000000E+00 -0.41586178347E+02  0.41586178347E+02  0.00000000000E+00 0. -1.
          4    1    1    2  501    0  0.35157225330E+01  0.27827514588E+00 -0.16366745464E+02  0.16742404221E+02  0.00000000000E+00 0. -1.
         -4    1    1    2    0  501 -0.35157225330E+01 -0.27827514588E+00 -0.24907383116E+02  0.25155823892E+02  0.00000000000E+00 0.  1.
<mgrwt>
<rscale>  0 0.35267183E+01</rscale>
<asrwt>0</asrwt>
<pdfrwt beam="1">0</pdfrwt>
<pdfrwt beam="2">0</pdfrwt>
<totfact> 0.99674681E+11</totfact>
</mgrwt>
</event>
<event>
 4    2  0.1985873E+006  0.2011374E+01  0.7546771E-02  0.2973091E+00
         22   -1    0    0    0    0  0.00000000000E+00  0.00000000000E+00  0.15011957930E+01  0.15011957930E+01  0.00000000000E+00 0.  1.
         22   -1    0    0    0    0 -0.00000000000E+00 -0.00000000000E+00 -0.34307590722E+01  0.34307590722E+01  0.00000000000E+00 0. -1.
          4    1    1    2  501    0 -0.11537735726E+01 -0.16475531083E+01  0.17725768546E+00  0.20191693808E+01  0.00000000000E+00 0.  1.
         -4    1    1    2    0  501  0.11537735726E+01  0.16475531083E+01 -0.21068209646E+01  0.29127854844E+01  0.00000000000E+00 0. -1.
<mgrwt>
<rscale>  0 0.20113738E+01</rscale>
<asrwt>0</asrwt>
<pdfrwt beam="1">0</pdfrwt>
<pdfrwt beam="2">0</pdfrwt>
<totfact> 0.35580430E+12</totfact>
</mgrwt>
</event>
<event>
 4    2  0.1985873E+006  0.2171284E+01  0.7546771E-02  0.2873974E+00
         22   -1    0    0    0    0  0.00000000000E+00  0.00000000000E+00  0.20918874739E+00  0.20918874739E+00  0.00000000000E+00 0. -1.
         22   -1    0    0    0    0 -0.00000000000E+00 -0.00000000000E+00 -0.22547806037E+02  0.22547806037E+02  0.00000000000E+00 0.  1.
          4    1    1    2  501    0 -0.18746071476E+01  0.10955919733E+01 -0.11419123295E+02  0.11623719308E+02  0.00000000000E+00 0. -1.
         -4    1    1    2    0  501  0.18746071476E+01 -0.10955919733E+01 -0.10919493994E+02  0.11133275476E+02  0.00000000000E+00 0.  1.
<mgrwt>
<rscale>  0 0.21712839E+01</rscale>
<asrwt>0</asrwt>
<pdfrwt beam="1">0</pdfrwt>
<pdfrwt beam="2">0</pdfrwt>
<totfact> 0.34062152E+12</totfact>
</mgrwt>
</event>
<event>
 4    2  0.1985873E+006  0.3860873E+01  0.7546771E-02  0.2304705E+00
         22   -1    0    0    0    0  0.00000000000E+00  0.00000000000E+00  0.11190264976E+01  0.11190264976E+01  0.00000000000E+00 0.  1.
         22   -1    0    0    0    0 -0.00000000000E+00 -0.00000000000E+00 -0.27995189108E+02  0.27995189108E+02  0.00000000000E+00 0. -1.
          4    1    1    2  501    0 -0.38412447516E+01 -0.38881320125E+00 -0.28987442274E+01  0.48279452196E+01  0.00000000000E+00 0.  1.
         -4    1    1    2    0  501  0.38412447516E+01  0.38881320125E+00 -0.23977418383E+02  0.24286270386E+02  0.00000000000E+00 0. -1.
<mgrwt>
<rscale>  0 0.38608726E+01</rscale>
<asrwt>0</asrwt>
<pdfrwt beam="1">0</pdfrwt>
<pdfrwt beam="2">0</pdfrwt>
<totfact> 0.39023994E+11</totfact>
</mgrwt>
</event>
<event>
 4    2  0.1985873E+006  0.2311237E+01  0.7546771E-02  0.2798091E+00
         22   -1    0    0    0    0  0.00000000000E+00  0.00000000000E+00  0.31035747269E+02  0.31035747269E+02  0.00000000000E+00 0.  1.
         22   -1    0    0    0    0 -0.00000000000E+00 -0.00000000000E+00 -0.17824560183E+00  0.17824560183E+00  0.00000000000E+00 0. -1.
          4    1    1    2  501    0  0.13642429738E+01  0.18656514569E+01  0.18322435414E+02  0.18467632597E+02  0.00000000000E+00 0. -1.
         -4    1    1    2    0  501 -0.13642429738E+01 -0.18656514569E+01  0.12535066254E+02  0.12746360274E+02  0.00000000000E+00 0.  1.
<mgrwt>
<rscale>  0 0.23112365E+01</rscale>
<asrwt>0</asrwt>
<pdfrwt beam="1">0</pdfrwt>
<pdfrwt beam="2">0</pdfrwt>
<totfact> 0.27177915E+12</totfact>
</mgrwt>
</event>
<event>
 4    2  0.1985873E+006  0.5632092E+01  0.7546771E-02  0.2054343E+00
         22   -1    0    0    0    0  0.00000000000E+00  0.00000000000E+00  0.12124627286E+01  0.12124627286E+01  0.00000000000E+00 0. -1.
         22   -1    0    0    0    0 -0.00000000000E+00 -0.00000000000E+00 -0.56721018525E+02  0.56721018525E+02  0.00000000000E+00 0.  1.
          4    1    1    2  501    0  0.40360680179E+00 -0.56176114991E+01 -0.64926126026E+01  0.85950262252E+01  0.00000000000E+00 0. -1.
         -4    1    1    2    0  501 -0.40360680179E+00  0.56176114991E+01 -0.49015943194E+02  0.49338455029E+02  0.00000000000E+00 0.  1.
<mgrwt>
<rscale>  0 0.56320917E+01</rscale>
<asrwt>0</asrwt>
<pdfrwt beam="1">0</pdfrwt>
<pdfrwt beam="2">0</pdfrwt>
<totfact> 0.14230881E+11</totfact>
</mgrwt>
</event>
<event>
 4    2  0.1985873E+006  0.2261763E+01  0.7546771E-02  0.2823892E+00
         22   -1    0    0    0    0  0.00000000000E+00  0.00000000000E+00  0.49507521295E+00  0.49507521295E+00  0.00000000000E+00 0. -1.
         22   -1    0    0    0    0 -0.00000000000E+00 -0.00000000000E+00 -0.18310685314E+02  0.18310685314E+02  0.00000000000E+00 0.  1.
          4    1    1    2  501    0 -0.16850539871E+01 -0.15086957066E+01 -0.27012674086E+01  0.35231257836E+01  0.00000000000E+00 0. -1.
         -4    1    1    2    0  501  0.16850539871E+01  0.15086957066E+01 -0.15114342692E+02  0.15282634743E+02  0.00000000000E+00 0.  1.
<mgrwt>
<rscale>  0 0.22617625E+01</rscale>
<asrwt>0</asrwt>
<pdfrwt beam="1">0</pdfrwt>
<pdfrwt beam="2">0</pdfrwt>
<totfact> 0.16794864E+12</totfact>
</mgrwt>
</event>
<event>
 4    2  0.1985873E+006  0.3205469E+01  0.7546771E-02  0.2460984E+00
         22   -1    0    0    0    0  0.00000000000E+00  0.00000000000E+00  0.39638789131E+02  0.39638789131E+02  0.00000000000E+00 0.  1.
         22   -1    0    0    0    0 -0.00000000000E+00 -0.00000000000E+00 -0.58014030172E+00  0.58014030172E+00  0.00000000000E+00 0. -1.
          4    1    1    2  501    0 -0.88087132886E+00 -0.30820602272E+01  0.34485995158E+02  0.34634648714E+02  0.00000000000E+00 0.  1.
         -4    1    1    2    0  501  0.88087132886E+00  0.30820602272E+01  0.45726536714E+01  0.55842807183E+01  0.00000000000E+00 0. -1.
<mgrwt>
<rscale>  0 0.32054687E+01</rscale>
<asrwt>0</asrwt>
<pdfrwt beam="1">0</pdfrwt>
<pdfrwt beam="2">0</pdfrwt>
<totfact> 0.52749977E+11</totfact>
</mgrwt>
</event>
<event>
 4    2  0.1985873E+006  0.3910635E+01  0.7546771E-02  0.2294709E+00
         22   -1    0    0    0    0  0.00000000000E+00  0.00000000000E+00  0.20973630452E+01  0.20973630452E+01  0.00000000000E+00 0. -1.
         22   -1    0    0    0    0 -0.00000000000E+00 -0.00000000000E+00 -0.17730721265E+02  0.17730721265E+02  0.00000000000E+00 0.  1.
          4    1    1    2  501    0 -0.10627382775E+01  0.37634631590E+01 -0.20956074633E+00  0.39162460727E+01  0.00000000000E+00 0. -1.
         -4    1    1    2    0  501  0.10627382775E+01 -0.37634631590E+01 -0.15423797474E+02  0.15911838238E+02  0.00000000000E+00 0.  1.
<mgrwt>
<rscale>  0 0.39106352E+01</rscale>
<asrwt>0</asrwt>
<pdfrwt beam="1">0</pdfrwt>
<pdfrwt beam="2">0</pdfrwt>
<totfact> 0.33572408E+11</totfact>
</mgrwt>
</event>
<event>
 4    2  0.1985873E+006  0.2275047E+01  0.7546771E-02  0.2816860E+00
         22   -1    0    0    0    0  0.00000000000E+00  0.00000000000E+00  0.85584679782E+01  0.85584679782E+01  0.00000000000E+00 0. -1.
         22   -1    0    0    0    0 -0.00000000000E+00 -0.00000000000E+00 -0.22231493649E+01  0.22231493649E+01  0.00000000000E+00 0.  1.
          4    1    1    2  501    0 -0.57045719699E+00  0.22023663866E+01  0.77671610862E+01  0.80934930934E+01  0.00000000000E+00 0. -1.
         -4    1    1    2    0  501  0.57045719699E+00 -0.22023663866E+01 -0.14318424730E+01  0.26881242497E+01  0.00000000000E+00 0.  1.
<mgrwt>
<rscale>  0 0.22750471E+01</rscale>
<asrwt>0</asrwt>
<pdfrwt beam="1">0</pdfrwt>
<pdfrwt beam="2">0</pdfrwt>
<totfact> 0.76364564E+11</totfact>
</mgrwt>
</event>
<event>
 4    2  0.1985873E+006  0.2433954E+01  0.7546771E-02  0.2738384E+00
         22   -1    0    0    0    0  0.00000000000E+00  0.00000000000E+00  0.19676602146E+01  0.19676602146E+01  0.00000000000E+00 0. -1.
         22   -1    0    0    0    0 -0.00000000000E+00 -0.00000000000E+00 -0.62316802830E+01  0.62316802830E+01  0.00000000000E+00 0.  1.
          4    1    1    2  501    0  0.19024509725E+01 -0.15181602073E+01  0.81537656883E+00  0.25668987255E+01  0.00000000000E+00 0. -1.
         -4    1    1    2    0  501 -0.19024509725E+01  0.15181602073E+01 -0.50793966372E+01  0.56324417721E+01  0.00000000000E+00 0.  1.
<mgrwt>
<rscale>  0 0.24339536E+01</rscale>
<asrwt>0</asrwt>
<pdfrwt beam="1">0</pdfrwt>
<pdfrwt beam="2">0</pdfrwt>
<totfact> 0.12864136E+12</totfact>
</mgrwt>
</event>
<event>
 4    2  0.1985873E+006  0.3917461E+01  0.7546771E-02  0.2293355E+00
         22   -1    0    0    0    0  0.00000000000E+00  0.00000000000E+00  0.14779552926E+02  0.14779552926E+02  0.00000000000E+00 0. -1.
         22   -1    0    0    0    0 -0.00000000000E+00 -0.00000000000E+00 -0.10455402557E+01  0.10455402557E+01  0.00000000000E+00 0.  1.
          4    1    1    2  501    0 -0.32228479749E+01  0.22270493812E+01  0.75227180004E+01  0.84816144765E+01  0.00000000000E+00 0. -1.
         -4    1    1    2    0  501  0.32228479749E+01 -0.22270493812E+01  0.62112946702E+01  0.73434787053E+01  0.00000000000E+00 0.  1.
<mgrwt>
<rscale>  0 0.39174607E+01</rscale>
<asrwt>0</asrwt>
<pdfrwt beam="1">0</pdfrwt>
<pdfrwt beam="2">0</pdfrwt>
<totfact> 0.93634388E+11</totfact>
</mgrwt>
</event>
<event>
 4    2  0.1985873E+006  0.3521142E+01  0.7546771E-02  0.2379385E+00
         22   -1    0    0    0    0  0.00000000000E+00  0.00000000000E+00  0.84558708202E+00  0.84558708202E+00  0.00000000000E+00 0. -1.
         22   -1    0    0    0    0 -0.00000000000E+00 -0.00000000000E+00 -0.14765254110E+02  0.14765254110E+02  0.00000000000E+00 0.  1.
          4    1    1    2  501    0  0.28765188006E+01 -0.20307838309E+01 -0.63087772995E+01  0.72248954589E+01  0.00000000000E+00 0.  1.
         -4    1    1    2    0  501 -0.28765188006E+01  0.20307838309E+01 -0.76108897285E+01  0.83859457331E+01  0.00000000000E+00 0. -1.
<mgrwt>
<rscale>  0 0.35211423E+01</rscale>
<asrwt>0</asrwt>
<pdfrwt beam="1">0</pdfrwt>
<pdfrwt beam="2">0</pdfrwt>
<totfact> 0.11942839E+12</totfact>
</mgrwt>
</event>
<event>
 4    2  0.1985873E+006  0.3419096E+01  0.7546771E-02  0.2404315E+00
         22   -1    0    0    0    0  0.00000000000E+00  0.00000000000E+00  0.98579789609E+00  0.98579789609E+00  0.00000000000E+00 0. -1.
         22   -1    0    0    0    0 -0.00000000000E+00 -0.00000000000E+00 -0.14184846813E+02  0.14184846813E+02  0.00000000000E+00 0.  1.
          4    1    1    2  501    0 -0.13836209971E+01 -0.31266295754E+01 -0.35277725040E+01  0.49127790919E+01  0.00000000000E+00 0. -1.
         -4    1    1    2    0  501  0.13836209971E+01  0.31266295754E+01 -0.96712764130E+01  0.10257865617E+02  0.00000000000E+00 0.  1.
<mgrwt>
<rscale>  0 0.34190963E+01</rscale>
<asrwt>0</asrwt>
<pdfrwt beam="1">0</pdfrwt>
<pdfrwt beam="2">0</pdfrwt>
<totfact> 0.10532688E+12</totfact>
</mgrwt>
</event>
<event>
 4    2  0.1985873E+006  0.2049660E+01  0.7546771E-02  0.2947991E+00
         22   -1    0    0    0    0  0.00000000000E+00  0.00000000000E+00  0.92054178351E-01  0.92054178351E-01  0.00000000000E+00 0. -1.
         22   -1    0    0    0    0 -0.00000000000E+00 -0.00000000000E+00 -0.52445367870E+02  0.52445367870E+02  0.00000000000E+00 0.  1.
          4    1    1    2  501    0 -0.11051901676E+01  0.17261689244E+01 -0.16712170993E+02  0.16837391834E+02  0.00000000000E+00 0. -1.
         -4    1    1    2    0  501  0.11051901676E+01 -0.17261689244E+01 -0.35641142699E+02  0.35700030215E+02  0.00000000000E+00 0.  1.
<mgrwt>
<rscale>  0 0.20496596E+01</rscale>
<asrwt>0</asrwt>
<pdfrwt beam="1">0</pdfrwt>
<pdfrwt beam="2">0</pdfrwt>
<totfact> 0.28621683E+12</totfact>
</mgrwt>
</event>
<event>
 4    2  0.1985873E+006  0.2149003E+01  0.7546771E-02  0.2886927E+00
         22   -1    0    0    0    0  0.00000000000E+00  0.00000000000E+00  0.25738697585E+01  0.25738697585E+01  0.00000000000E+00 0.  1.
         22   -1    0    0    0    0 -0.00000000000E+00 -0.00000000000E+00 -0.26721533242E+01  0.26721533242E+01  0.00000000000E+00 0. -1.
          4    1    1    2  501    0 -0.13500175317E+01 -0.16720241018E+01  0.14543062784E+01  0.25948446358E+01  0.00000000000E+00 0.  1.
         -4    1    1    2    0  501  0.13500175317E+01  0.16720241018E+01 -0.15525898441E+01  0.26511784468E+01  0.00000000000E+00 0. -1.
<mgrwt>
<rscale>  0 0.21490025E+01</rscale>
<asrwt>0</asrwt>
<pdfrwt beam="1">0</pdfrwt>
<pdfrwt beam="2">0</pdfrwt>
<totfact> 0.25533102E+12</totfact>
</mgrwt>
</event>
<event>
 4    2  0.1985873E+006  0.2650105E+01  0.7546771E-02  0.2645838E+00
         22   -1    0    0    0    0  0.00000000000E+00  0.00000000000E+00  0.66468866758E+01  0.66468866758E+01  0.00000000000E+00 0.  1.
         22   -1    0    0    0    0 -0.00000000000E+00 -0.00000000000E+00 -0.36832033209E+01  0.36832033209E+01  0.00000000000E+00 0. -1.
          4    1    1    2  501    0  0.66765822970E+00  0.25646230621E+01  0.58435741384E+01  0.64164178226E+01  0.00000000000E+00 0.  1.
         -4    1    1    2    0  501 -0.66765822970E+00 -0.25646230621E+01 -0.28798907835E+01  0.39136721742E+01  0.00000000000E+00 0. -1.
<mgrwt>
<rscale>  0 0.26501055E+01</rscale>
<asrwt>0</asrwt>
<pdfrwt beam="1">0</pdfrwt>
<pdfrwt beam="2">0</pdfrwt>
<totfact> 0.57369098E+11</totfact>
</mgrwt>
</event>
<event>
 4    2  0.1985873E+006  0.2194151E+01  0.7546771E-02  0.2860944E+00
         22   -1    0    0    0    0  0.00000000000E+00  0.00000000000E+00  0.38687193795E+01  0.38687193795E+01  0.00000000000E+00 0. -1.
         22   -1    0    0    0    0 -0.00000000000E+00 -0.00000000000E+00 -0.13806085380E+01  0.13806085380E+01  0.00000000000E+00 0.  1.
          4    1    1    2  501    0  0.21254921494E+01 -0.54459221157E+00  0.41969986717E+00  0.22339305120E+01  0.00000000000E+00 0.  1.
         -4    1    1    2    0  501 -0.21254921494E+01  0.54459221157E+00  0.20684109744E+01  0.30153974055E+01  0.00000000000E+00 0. -1.
<mgrwt>
<rscale>  0 0.21941508E+01</rscale>
<asrwt>0</asrwt>
<pdfrwt beam="1">0</pdfrwt>
<pdfrwt beam="2">0</pdfrwt>
<totfact> 0.34024729E+12</totfact>
</mgrwt>
</event>
<event>
 4    2  0.1985873E+006  0.2880059E+01  0.7546771E-02  0.2561497E+00
         22   -1    0    0    0    0  0.00000000000E+00  0.00000000000E+00  0.42110274436E+01  0.42110274436E+01  0.00000000000E+00 0. -1.
         22   -1    0    0    0    0 -0.00000000000E+00 -0.00000000000E+00 -0.19697702105E+01  0.19697702105E+01  0.00000000000E+00 0.  1.
          4    1    1    2  501    0 -0.23285622173E+01 -0.16948563036E+01  0.11162667182E+01  0.30888171321E+01  0.00000000000E+00 0.  1.
         -4    1    1    2    0  501  0.23285622173E+01  0.16948563036E+01  0.11249905149E+01  0.30919805220E+01  0.00000000000E+00 0. -1.
<mgrwt>
<rscale>  0 0.28800590E+01</rscale>
<asrwt>0</asrwt>
<pdfrwt beam="1">0</pdfrwt>
<pdfrwt beam="2">0</pdfrwt>
<totfact> 0.20442962E+12</totfact>
</mgrwt>
</event>
<event>
 4    2  0.1985873E+006  0.3797333E+01  0.7546771E-02  0.2317793E+00
         22   -1    0    0    0    0  0.00000000000E+00  0.00000000000E+00  0.16775863003E+01  0.16775863003E+01  0.00000000000E+00 0. -1.
         22   -1    0    0    0    0 -0.00000000000E+00 -0.00000000000E+00 -0.90415822336E+01  0.90415822336E+01  0.00000000000E+00 0.  1.
          4    1    1    2  501    0  0.20357840532E+01  0.32055140951E+01 -0.24915689641E+01  0.45417676326E+01  0.00000000000E+00 0. -1.
         -4    1    1    2    0  501 -0.20357840532E+01 -0.32055140951E+01 -0.48724269692E+01  0.61774009013E+01  0.00000000000E+00 0.  1.
<mgrwt>
<rscale>  0 0.37973329E+01</rscale>
<asrwt>0</asrwt>
<pdfrwt beam="1">0</pdfrwt>
<pdfrwt beam="2">0</pdfrwt>
<totfact> 0.98993393E+11</totfact>
</mgrwt>
</event>
<event>
 4    2  0.1985873E+006  0.3356748E+01  0.7546771E-02  0.2420198E+00
         22   -1    0    0    0    0  0.00000000000E+00  0.00000000000E+00  0.55778617628E+00  0.55778617628E+00  0.00000000000E+00 0. -1.
         22   -1    0    0    0    0 -0.00000000000E+00 -0.00000000000E+00 -0.20607074028E+02  0.20607074028E+02  0.00000000000E+00 0.  1.
          4    1    1    2  501    0 -0.28493116440E+01  0.17745929785E+01 -0.11510435647E+02  0.11989907667E+02  0.00000000000E+00 0.  1.
         -4    1    1    2    0  501  0.28493116440E+01 -0.17745929785E+01 -0.85388522049E+01  0.91749525373E+01  0.00000000000E+00 0. -1.
<mgrwt>
<rscale>  0 0.33567480E+01</rscale>
<asrwt>0</asrwt>
<pdfrwt beam="1">0</pdfrwt>
<pdfrwt beam="2">0</pdfrwt>
<totfact> 0.12669889E+12</totfact>
</mgrwt>
</event>
<event>
 4    2  0.1985873E+006  0.2289615E+01  0.7546771E-02  0.2809237E+00
         22   -1    0    0    0    0  0.00000000000E+00  0.00000000000E+00  0.41664265624E+00  0.41664265624E+00  0.00000000000E+00 0. -1.
         22   -1    0    0    0    0 -0.00000000000E+00 -0.00000000000E+00 -0.17019301679E+02  0.17019301679E+02  0.00000000000E+00 0.  1.
          4    1    1    2  501    0 -0.22321310537E+01 -0.50983015599E+00 -0.38500190361E+01  0.44793953172E+01  0.00000000000E+00 0. -1.
         -4    1    1    2    0  501  0.22321310537E+01  0.50983015599E+00 -0.12752639987E+02  0.12956549018E+02  0.00000000000E+00 0.  1.
<mgrwt>
<rscale>  0 0.22896148E+01</rscale>
<asrwt>0</asrwt>
<pdfrwt beam="1">0</pdfrwt>
<pdfrwt beam="2">0</pdfrwt>
<totfact> 0.22336880E+12</totfact>
</mgrwt>
</event>
<event>
 4    2  0.1985873E+006  0.2350224E+01  0.7546771E-02  0.2778486E+00
         22   -1    0    0    0    0  0.00000000000E+00  0.00000000000E+00  0.21341963632E+02  0.21341963632E+02  0.00000000000E+00 0. -1.
         22   -1    0    0    0    0 -0.00000000000E+00 -0.00000000000E+00 -0.26755770331E+01  0.26755770331E+01  0.00000000000E+00 0.  1.
          4    1    1    2  501    0 -0.20852329450E+01  0.10841378957E+01  0.20746383222E+02  0.20879079679E+02  0.00000000000E+00 0. -1.
         -4    1    1    2    0  501  0.20852329450E+01 -0.10841378957E+01 -0.20799966233E+01  0.31384609867E+01  0.00000000000E+00 0.  1.
<mgrwt>
<rscale>  0 0.23502237E+01</rscale>
<asrwt>0</asrwt>
<pdfrwt beam="1">0</pdfrwt>
<pdfrwt beam="2">0</pdfrwt>
<totfact> 0.20083917E+11</totfact>
</mgrwt>
</event>
<event>
 4    2  0.1985873E+006  0.2079335E+01  0.7546771E-02  0.2929157E+00
         22   -1    0    0    0    0  0.00000000000E+00  0.00000000000E+00  0.17055590870E+02  0.17055590870E+02  0.00000000000E+00 0.  1.
         22   -1    0    0    0    0 -0.00000000000E+00 -0.00000000000E+00 -0.25742577789E+00  0.25742577789E+00  0.00000000000E+00 0. -1.
          4    1    1    2  501    0  0.76604086834E-01 -0.20779234864E+01  0.73304125486E+01  0.76196182538E+01  0.00000000000E+00 0. -1.
         -4    1    1    2    0  501 -0.76604086834E-01  0.20779234864E+01  0.94677525440E+01  0.96933983946E+01  0.00000000000E+00 0.  1.
<mgrwt>
<rscale>  0 0.20793350E+01</rscale>
<asrwt>0</asrwt>
<pdfrwt beam="1">0</pdfrwt>
<pdfrwt beam="2">0</pdfrwt>
<totfact> 0.38247261E+12</totfact>
</mgrwt>
</event>
<event>
 4    2  0.1985873E+006  0.2120347E+01  0.7546771E-02  0.2903972E+00
         22   -1    0    0    0    0  0.00000000000E+00  0.00000000000E+00  0.14882266225E+01  0.14882266225E+01  0.00000000000E+00 0.  1.
         22   -1    0    0    0    0 -0.00000000000E+00 -0.00000000000E+00 -0.32809006362E+01  0.32809006362E+01  0.00000000000E+00 0. -1.
          4    1    1    2  501    0  0.57647931797E+00  0.20404765134E+01 -0.15675334236E+01  0.26368606030E+01  0.00000000000E+00 0. -1.
         -4    1    1    2    0  501 -0.57647931797E+00 -0.20404765134E+01 -0.22514059004E+00  0.21322666557E+01  0.00000000000E+00 0.  1.
<mgrwt>
<rscale>  0 0.21203473E+01</rscale>
<asrwt>0</asrwt>
<pdfrwt beam="1">0</pdfrwt>
<pdfrwt beam="2">0</pdfrwt>
<totfact> 0.37868990E+12</totfact>
</mgrwt>
</event>
<event>
 4    2  0.1985873E+006  0.2134246E+01  0.7546771E-02  0.2895650E+00
         22   -1    0    0    0    0  0.00000000000E+00  0.00000000000E+00  0.12354467248E+01  0.12354467248E+01  0.00000000000E+00 0. -1.
         22   -1    0    0    0    0 -0.00000000000E+00 -0.00000000000E+00 -0.13896838725E+02  0.13896838725E+02  0.00000000000E+00 0.  1.
          4    1    1    2  501    0  0.20126755498E+01 -0.71002894937E+00  0.15456528736E+00  0.21398351352E+01  0.00000000000E+00 0. -1.
         -4    1    1    2    0  501 -0.20126755498E+01  0.71002894937E+00 -0.12815957287E+02  0.12992450314E+02  0.00000000000E+00 0.  1.
<mgrwt>
<rscale>  0 0.21342455E+01</rscale>
<asrwt>0</asrwt>
<pdfrwt beam="1">0</pdfrwt>
<pdfrwt beam="2">0</pdfrwt>
<totfact> 0.83422105E+11</totfact>
</mgrwt>
</event>
<event>
 4    2  0.1985873E+006  0.2724653E+01  0.7546771E-02  0.2617074E+00
         22   -1    0    0    0    0  0.00000000000E+00  0.00000000000E+00  0.73857522208E+00  0.73857522208E+00  0.00000000000E+00 0. -1.
         22   -1    0    0    0    0 -0.00000000000E+00 -0.00000000000E+00 -0.11561194355E+02  0.11561194355E+02  0.00000000000E+00 0.  1.
          4    1    1    2  501    0  0.11398358548E+01  0.24747749034E+01 -0.31889193381E+01  0.41943942522E+01  0.00000000000E+00 0.  1.
         -4    1    1    2    0  501 -0.11398358548E+01 -0.24747749034E+01 -0.76336997945E+01  0.81053753245E+01  0.00000000000E+00 0. -1.
<mgrwt>
<rscale>  0 0.27246535E+01</rscale>
<asrwt>0</asrwt>
<pdfrwt beam="1">0</pdfrwt>
<pdfrwt beam="2">0</pdfrwt>
<totfact> 0.18789931E+12</totfact>
</mgrwt>
</event>
<event>
 4    2  0.1985873E+006  0.2699585E+01  0.7546771E-02  0.2626584E+00
         22   -1    0    0    0    0  0.00000000000E+00  0.00000000000E+00  0.37960484712E+00  0.37960484712E+00  0.00000000000E+00 0. -1.
         22   -1    0    0    0    0 -0.00000000000E+00 -0.00000000000E+00 -0.22728162913E+02  0.22728162913E+02  0.00000000000E+00 0.  1.
          4    1    1    2  501    0  0.19732383500E+01 -0.18423058517E+01 -0.66209825047E+01  0.71501866944E+01  0.00000000000E+00 0. -1.
         -4    1    1    2    0  501 -0.19732383500E+01  0.18423058517E+01 -0.15727575561E+02  0.15957581066E+02  0.00000000000E+00 0.  1.
<mgrwt>
<rscale>  0 0.26995852E+01</rscale>
<asrwt>0</asrwt>
<pdfrwt beam="1">0</pdfrwt>
<pdfrwt beam="2">0</pdfrwt>
<totfact> 0.17298655E+12</totfact>
</mgrwt>
</event>
<event>
 4    2  0.1985873E+006  0.2556250E+01  0.7546771E-02  0.2684239E+00
         22   -1    0    0    0    0  0.00000000000E+00  0.00000000000E+00  0.18101686730E+01  0.18101686730E+01  0.00000000000E+00 0. -1.
         22   -1    0    0    0    0 -0.00000000000E+00 -0.00000000000E+00 -0.48906881379E+02  0.48906881379E+02  0.00000000000E+00 0.  1.
          4    1    1    2  501    0  0.12010836373E+01 -0.22565043659E+01  0.85636968933E+00  0.26958825831E+01  0.00000000000E+00 0. -1.
         -4    1    1    2    0  501 -0.12010836373E+01  0.22565043659E+01 -0.47953082395E+02  0.48021167469E+02  0.00000000000E+00 0.  1.
<mgrwt>
<rscale>  0 0.25562500E+01</rscale>
<asrwt>0</asrwt>
<pdfrwt beam="1">0</pdfrwt>
<pdfrwt beam="2">0</pdfrwt>
<totfact> 0.10920447E+11</totfact>
</mgrwt>
</event>
<event>
 4    2  0.1985873E+006  0.4362448E+01  0.7546771E-02  0.2212940E+00
         22   -1    0    0    0    0  0.00000000000E+00  0.00000000000E+00  0.48420848680E+02  0.48420848680E+02  0.00000000000E+00 0. -1.
         22   -1    0    0    0    0 -0.00000000000E+00 -0.00000000000E+00 -0.88027543884E+00  0.88027543884E+00  0.00000000000E+00 0.  1.
          4    1    1    2  501    0 -0.39832715740E+01  0.17789042882E+01  0.42109911257E+02  0.42335275823E+02  0.00000000000E+00 0. -1.
         -4    1    1    2    0  501  0.39832715740E+01 -0.17789042882E+01  0.54306619835E+01  0.69658482956E+01  0.00000000000E+00 0.  1.
<mgrwt>
<rscale>  0 0.43624480E+01</rscale>
<asrwt>0</asrwt>
<pdfrwt beam="1">0</pdfrwt>
<pdfrwt beam="2">0</pdfrwt>
<totfact> 0.25297333E+11</totfact>
</mgrwt>
</event>
<event>
 4    2  0.1985873E+006  0.5802364E+01  0.7546771E-02  0.2037879E+00
         22   -1    0    0    0    0  0.00000000000E+00  0.00000000000E+00  0.35588638767E+02  0.35588638767E+02  0.00000000000E+00 0.  1.
         22   -1    0    0    0    0 -0.00000000000E+00 -0.00000000000E+00 -0.13631218422E+01  0.13631218422E+01  0.00000000000E+00 0. -1.
          4    1    1    2  501    0 -0.26818137950E+01 -0.51454161728E+01  0.27332990952E+02  0.27942079865E+02  0.00000000000E+00 0.  1.
         -4    1    1    2    0  501  0.26818137950E+01  0.51454161728E+01  0.68925259735E+01  0.90096807446E+01  0.00000000000E+00 0. -1.
<mgrwt>
<rscale>  0 0.58023644E+01</rscale>
<asrwt>0</asrwt>
<pdfrwt beam="1">0</pdfrwt>
<pdfrwt beam="2">0</pdfrwt>
<totfact> 0.22900980E+11</totfact>
</mgrwt>
</event>
<event>
 4    2  0.1985873E+006  0.2412860E+01  0.7546771E-02  0.2748240E+00
         22   -1    0    0    0    0  0.00000000000E+00  0.00000000000E+00  0.18331835609E+00  0.18331835609E+00  0.00000000000E+00 0. -1.
         22   -1    0    0    0    0 -0.00000000000E+00 -0.00000000000E+00 -0.34797294191E+02  0.34797294191E+02  0.00000000000E+00 0.  1.
          4    1    1    2  501    0 -0.16489288908E+01 -0.17615131043E+01 -0.12138261460E+02  0.12375753964E+02  0.00000000000E+00 0. -1.
         -4    1    1    2    0  501  0.16489288908E+01  0.17615131043E+01 -0.22475714375E+02  0.22604858583E+02  0.00000000000E+00 0.  1.
<mgrwt>
<rscale>  0 0.24128603E+01</rscale>
<asrwt>0</asrwt>
<pdfrwt beam="1">0</pdfrwt>
<pdfrwt beam="2">0</pdfrwt>
<totfact> 0.22749720E+12</totfact>
</mgrwt>
</event>
<event>
 4    2  0.1985873E+006  0.2421775E+01  0.7546771E-02  0.2744055E+00
         22   -1    0    0    0    0  0.00000000000E+00  0.00000000000E+00  0.12294127822E+01  0.12294127822E+01  0.00000000000E+00 0.  1.
         22   -1    0    0    0    0 -0.00000000000E+00 -0.00000000000E+00 -0.52597659044E+01  0.52597659044E+01  0.00000000000E+00 0. -1.
          4    1    1    2  501    0  0.12121336324E+01  0.20965989163E+01 -0.30046853611E+01  0.38591617066E+01  0.00000000000E+00 0.  1.
         -4    1    1    2    0  501 -0.12121336324E+01 -0.20965989163E+01 -0.10256677611E+01  0.26300169799E+01  0.00000000000E+00 0. -1.
<mgrwt>
<rscale>  0 0.24217752E+01</rscale>
<asrwt>0</asrwt>
<pdfrwt beam="1">0</pdfrwt>
<pdfrwt beam="2">0</pdfrwt>
<totfact> 0.27046857E+12</totfact>
</mgrwt>
</event>
<event>
 4    2  0.1985873E+006  0.2529413E+01  0.7546771E-02  0.2695703E+00
         22   -1    0    0    0    0  0.00000000000E+00  0.00000000000E+00  0.16007483508E+01  0.16007483508E+01  0.00000000000E+00 0.  1.
         22   -1    0    0    0    0 -0.00000000000E+00 -0.00000000000E+00 -0.62011204193E+01  0.62011204193E+01  0.00000000000E+00 0. -1.
          4    1    1    2  501    0 -0.23405452901E+01  0.95905148258E+00  0.25586145055E-01  0.25295427753E+01  0.00000000000E+00 0.  1.
         -4    1    1    2    0  501  0.23405452901E+01 -0.95905148258E+00 -0.46259582136E+01  0.52723259947E+01  0.00000000000E+00 0. -1.
<mgrwt>
<rscale>  0 0.25294134E+01</rscale>
<asrwt>0</asrwt>
<pdfrwt beam="1">0</pdfrwt>
<pdfrwt beam="2">0</pdfrwt>
<totfact> 0.16421321E+12</totfact>
</mgrwt>
</event>
<event>
 4    2  0.1985873E+006  0.3493109E+01  0.7546771E-02  0.2386107E+00
         22   -1    0    0    0    0  0.00000000000E+00  0.00000000000E+00  0.11138088831E+01  0.11138088831E+01  0.00000000000E+00 0. -1.
         22   -1    0    0    0    0 -0.00000000000E+00 -0.00000000000E+00 -0.22553780942E+02  0.22553780942E+02  0.00000000000E+00 0.  1.
          4    1    1    2  501    0  0.34107755866E+01 -0.75393565823E+00 -0.22336547380E+01  0.41462058037E+01  0.00000000000E+00 0. -1.
         -4    1    1    2    0  501 -0.34107755866E+01  0.75393565823E+00 -0.19206317321E+02  0.19521384022E+02  0.00000000000E+00 0.  1.
<mgrwt>
<rscale>  0 0.34931088E+01</rscale>
<asrwt>0</asrwt>
<pdfrwt beam="1">0</pdfrwt>
<pdfrwt beam="2">0</pdfrwt>
<totfact> 0.51533385E+11</totfact>
</mgrwt>
</event>
<event>
 4    2  0.1985873E+006  0.2380988E+01  0.7546771E-02  0.2763443E+00
         22   -1    0    0    0    0  0.00000000000E+00  0.00000000000E+00  0.75554305171E+01  0.75554305171E+01  0.00000000000E+00 0. -1.
         22   -1    0    0    0    0 -0.00000000000E+00 -0.00000000000E+00 -0.91870164467E+00  0.91870164467E+00  0.00000000000E+00 0.  1.
          4    1    1    2  501    0 -0.13413955025E+01 -0.19671713520E+01  0.51322330958E+01  0.56576427575E+01  0.00000000000E+00 0. -1.
         -4    1    1    2    0  501  0.13413955025E+01  0.19671713520E+01  0.15044957767E+01  0.28164894043E+01  0.00000000000E+00 0.  1.
<mgrwt>
<rscale>  0 0.23809882E+01</rscale>
<asrwt>0</asrwt>
<pdfrwt beam="1">0</pdfrwt>
<pdfrwt beam="2">0</pdfrwt>
<totfact> 0.24503161E+12</totfact>
</mgrwt>
</event>
<event>
 4    2  0.1985873E+006  0.3477303E+01  0.7546771E-02  0.2389939E+00
         22   -1    0    0    0    0  0.00000000000E+00  0.00000000000E+00  0.16425589825E+02  0.16425589825E+02  0.00000000000E+00 0.  1.
         22   -1    0    0    0    0 -0.00000000000E+00 -0.00000000000E+00 -0.12241896506E+01  0.12241896506E+01  0.00000000000E+00 0. -1.
          4    1    1    2  501    0  0.64985189288E+00  0.34160399475E+01  0.20286609665E+01  0.40258044814E+01  0.00000000000E+00 0. -1.
         -4    1    1    2    0  501 -0.64985189288E+00 -0.34160399475E+01  0.13172739207E+02  0.13623974994E+02  0.00000000000E+00 0.  1.
<mgrwt>
<rscale>  0 0.34773030E+01</rscale>
<asrwt>0</asrwt>
<pdfrwt beam="1">0</pdfrwt>
<pdfrwt beam="2">0</pdfrwt>
<totfact> 0.68627542E+11</totfact>
</mgrwt>
</event>
<event>
 4    2  0.1985873E+006  0.2100689E+01  0.7546771E-02  0.2915925E+00
         22   -1    0    0    0    0  0.00000000000E+00  0.00000000000E+00  0.16546860750E+02  0.16546860750E+02  0.00000000000E+00 0. -1.
         22   -1    0    0    0    0 -0.00000000000E+00 -0.00000000000E+00 -0.27573212555E+00  0.27573212555E+00  0.00000000000E+00 0.  1.
          4    1    1    2  501    0 -0.10898333257E+01 -0.17958719646E+01  0.66124262008E+01  0.69380885734E+01  0.00000000000E+00 0. -1.
         -4    1    1    2    0  501  0.10898333257E+01  0.17958719646E+01  0.96587024241E+01  0.98845043026E+01  0.00000000000E+00 0.  1.
<mgrwt>
<rscale>  0 0.21006886E+01</rscale>
<asrwt>0</asrwt>
<pdfrwt beam="1">0</pdfrwt>
<pdfrwt beam="2">0</pdfrwt>
<totfact> 0.36767778E+12</totfact>
</mgrwt>
</event>
<event>
 4    2  0.1985873E+006  0.2293009E+01  0.7546771E-02  0.2807474E+00
         22   -1    0    0    0    0  0.00000000000E+00  0.00000000000E+00  0.18781463999E+00  0.18781463999E+00  0.00000000000E+00 0. -1.
         22   -1    0    0    0    0 -0.00000000000E+00 -0.00000000000E+00 -0.28084398712E+02  0.28084398712E+02  0.00000000000E+00 0.  1.
          4    1    1    2  501    0  0.22539644196E+01  0.42134654563E+00 -0.13151152705E+02  0.13349558269E+02  0.00000000000E+00 0. -1.
         -4    1    1    2    0  501 -0.22539644196E+01 -0.42134654563E+00 -0.14745431367E+02  0.14922655083E+02  0.00000000000E+00 0.  1.
<mgrwt>
<rscale>  0 0.22930086E+01</rscale>
<asrwt>0</asrwt>
<pdfrwt beam="1">0</pdfrwt>
<pdfrwt beam="2">0</pdfrwt>
<totfact> 0.29117944E+12</totfact>
</mgrwt>
</event>
<event>
 4    2  0.1985873E+006  0.2914284E+01  0.7546771E-02  0.2549981E+00
         22   -1    0    0    0    0  0.00000000000E+00  0.00000000000E+00  0.65614179297E+00  0.65614179297E+00  0.00000000000E+00 0. -1.
         22   -1    0    0    0    0 -0.00000000000E+00 -0.00000000000E+00 -0.37842873421E+02  0.37842873421E+02  0.00000000000E+00 0.  1.
          4    1    1    2  501    0  0.10614875021E+01  0.27140924799E+01 -0.29792272893E+01  0.41675951036E+01  0.00000000000E+00 0. -1.
         -4    1    1    2    0  501 -0.10614875021E+01 -0.27140924799E+01 -0.34207504339E+02  0.34331420110E+02  0.00000000000E+00 0.  1.
<mgrwt>
<rscale>  0 0.29142844E+01</rscale>
<asrwt>0</asrwt>
<pdfrwt beam="1">0</pdfrwt>
<pdfrwt beam="2">0</pdfrwt>
<totfact> 0.48722389E+11</totfact>
</mgrwt>
</event>
<event>
 4    2  0.1985873E+006  0.2120576E+01  0.7546771E-02  0.2903834E+00
         22   -1    0    0    0    0  0.00000000000E+00  0.00000000000E+00  0.11245545198E+01  0.11245545198E+01  0.00000000000E+00 0.  1.
         22   -1    0    0    0    0 -0.00000000000E+00 -0.00000000000E+00 -0.85870012430E+01  0.85870012430E+01  0.00000000000E+00 0. -1.
          4    1    1    2  501    0  0.20861228896E+01 -0.38070183673E+00 -0.18177899425E+00  0.21283529316E+01  0.00000000000E+00 0.  1.
         -4    1    1    2    0  501 -0.20861228896E+01  0.38070183673E+00 -0.72806677290E+01  0.75832028312E+01  0.00000000000E+00 0. -1.
<mgrwt>
<rscale>  0 0.21205760E+01</rscale>
<asrwt>0</asrwt>
<pdfrwt beam="1">0</pdfrwt>
<pdfrwt beam="2">0</pdfrwt>
<totfact> 0.16676568E+12</totfact>
</mgrwt>
</event>
<event>
 4    2  0.1985873E+006  0.2333125E+01  0.7546771E-02  0.2787008E+00
         22   -1    0    0    0    0  0.00000000000E+00  0.00000000000E+00  0.79204445317E-01  0.79204445317E-01  0.00000000000E+00 0. -1.
         22   -1    0    0    0    0 -0.00000000000E+00 -0.00000000000E+00 -0.15006536669E+03  0.15006536669E+03  0.00000000000E+00 0.  1.
          4    1    1    2  501    0 -0.10618816364E+01 -0.20774694485E+01 -0.19723327431E+02  0.19860843811E+02  0.00000000000E+00 0. -1.
         -4    1    1    2    0  501  0.10618816364E+01  0.20774694485E+01 -0.13026283481E+03  0.13028372732E+03  0.00000000000E+00 0.  1.
<mgrwt>
<rscale>  0 0.23331249E+01</rscale>
<asrwt>0</asrwt>
<pdfrwt beam="1">0</pdfrwt>
<pdfrwt beam="2">0</pdfrwt>
<totfact> 0.78036096E+11</totfact>
</mgrwt>
</event>
<event>
 4    2  0.1985873E+006  0.2575872E+01  0.7546771E-02  0.2675997E+00
         22   -1    0    0    0    0  0.00000000000E+00  0.00000000000E+00  0.15687843715E+02  0.15687843715E+02  0.00000000000E+00 0. -1.
         22   -1    0    0    0    0 -0.00000000000E+00 -0.00000000000E+00 -0.42322301586E+00  0.42322301586E+00  0.00000000000E+00 0.  1.
          4    1    1    2  501    0 -0.65018939687E+00 -0.24924630574E+01  0.78382225378E+01  0.82506273032E+01  0.00000000000E+00 0.  1.
         -4    1    1    2    0  501  0.65018939687E+00  0.24924630574E+01  0.74263981608E+01  0.78604394271E+01  0.00000000000E+00 0. -1.
<mgrwt>
<rscale>  0 0.25758723E+01</rscale>
<asrwt>0</asrwt>
<pdfrwt beam="1">0</pdfrwt>
<pdfrwt beam="2">0</pdfrwt>
<totfact> 0.24270115E+12</totfact>
</mgrwt>
</event>
<event>
 4    2  0.1985873E+006  0.2107439E+01  0.7546771E-02  0.2911796E+00
         22   -1    0    0    0    0  0.00000000000E+00  0.00000000000E+00  0.29352637408E+02  0.29352637408E+02  0.00000000000E+00 0.  1.
         22   -1    0    0    0    0 -0.00000000000E+00 -0.00000000000E+00 -0.17003014652E+00  0.17003014652E+00  0.00000000000E+00 0. -1.
          4    1    1    2  501    0  0.87267503441E+00 -0.19182641623E+01  0.19489502401E+02  0.19603112074E+02  0.00000000000E+00 0.  1.
         -4    1    1    2    0  501 -0.87267503441E+00  0.19182641623E+01  0.96931048595E+01  0.99195554805E+01  0.00000000000E+00 0. -1.
<mgrwt>
<rscale>  0 0.21074390E+01</rscale>
<asrwt>0</asrwt>
<pdfrwt beam="1">0</pdfrwt>
<pdfrwt beam="2">0</pdfrwt>
<totfact> 0.30753207E+12</totfact>
</mgrwt>
</event>
<event>
 4    2  0.1985873E+006  0.2222895E+01  0.7546771E-02  0.2844928E+00
         22   -1    0    0    0    0  0.00000000000E+00  0.00000000000E+00  0.26190324784E+00  0.26190324784E+00  0.00000000000E+00 0.  1.
         22   -1    0    0    0    0 -0.00000000000E+00 -0.00000000000E+00 -0.29650958477E+02  0.29650958477E+02  0.00000000000E+00 0. -1.
          4    1    1    2  501    0  0.17252713213E+01 -0.14016787062E+01 -0.56746085092E+01  0.60944602763E+01  0.00000000000E+00 0.  1.
         -4    1    1    2    0  501 -0.17252713213E+01  0.14016787062E+01 -0.23714446720E+02  0.23818401448E+02  0.00000000000E+00 0. -1.
<mgrwt>
<rscale>  0 0.22228955E+01</rscale>
<asrwt>0</asrwt>
<pdfrwt beam="1">0</pdfrwt>
<pdfrwt beam="2">0</pdfrwt>
<totfact> 0.18744633E+12</totfact>
</mgrwt>
</event>
<event>
 4    2  0.1985873E+006  0.5018650E+01  0.7546771E-02  0.2120784E+00
         22   -1    0    0    0    0  0.00000000000E+00  0.00000000000E+00  0.39617032678E+01  0.39617032678E+01  0.00000000000E+00 0. -1.
         22   -1    0    0    0    0 -0.00000000000E+00 -0.00000000000E+00 -0.75108095523E+01  0.75108095523E+01  0.00000000000E+00 0.  1.
          4    1    1    2  501    0 -0.38963842818E+01  0.31630742348E+01  0.47317037893E+00  0.50409065944E+01  0.00000000000E+00 0.  1.
         -4    1    1    2    0  501  0.38963842818E+01 -0.31630742348E+01 -0.40222766634E+01  0.64316062258E+01  0.00000000000E+00 0. -1.
<mgrwt>
<rscale>  0 0.50186501E+01</rscale>
<asrwt>0</asrwt>
<pdfrwt beam="1">0</pdfrwt>
<pdfrwt beam="2">0</pdfrwt>
<totfact> 0.45497123E+11</totfact>
</mgrwt>
</event>
<event>
 4    2  0.1985873E+006  0.3121455E+01  0.7546771E-02  0.2485139E+00
         22   -1    0    0    0    0  0.00000000000E+00  0.00000000000E+00  0.19980043826E+02  0.19980043826E+02  0.00000000000E+00 0. -1.
         22   -1    0    0    0    0 -0.00000000000E+00 -0.00000000000E+00 -0.25090555274E+01  0.25090555274E+01  0.00000000000E+00 0.  1.
          4    1    1    2  501    0 -0.30060307705E+01  0.84098755790E+00  0.18828313779E+02  0.19085305364E+02  0.00000000000E+00 0. -1.
         -4    1    1    2    0  501  0.30060307705E+01 -0.84098755790E+00 -0.13573254803E+01  0.34037939898E+01  0.00000000000E+00 0.  1.
<mgrwt>
<rscale>  0 0.31214550E+01</rscale>
<asrwt>0</asrwt>
<pdfrwt beam="1">0</pdfrwt>
<pdfrwt beam="2">0</pdfrwt>
<totfact> 0.23503032E+11</totfact>
</mgrwt>
</event>
<event>
 4    2  0.1985873E+006  0.4927550E+01  0.7546771E-02  0.2131752E+00
         22   -1    0    0    0    0  0.00000000000E+00  0.00000000000E+00  0.17269736903E+01  0.17269736903E+01  0.00000000000E+00 0. -1.
         22   -1    0    0    0    0 -0.00000000000E+00 -0.00000000000E+00 -0.57434137774E+02  0.57434137774E+02  0.00000000000E+00 0.  1.
          4    1    1    2  501    0 -0.49045562085E+01  0.47547765917E+00 -0.21473661090E+01  0.53751215626E+01  0.00000000000E+00 0. -1.
         -4    1    1    2    0  501  0.49045562085E+01 -0.47547765917E+00 -0.53559797975E+02  0.53785989902E+02  0.00000000000E+00 0.  1.
<mgrwt>
<rscale>  0 0.49275502E+01</rscale>
<asrwt>0</asrwt>
<pdfrwt beam="1">0</pdfrwt>
<pdfrwt beam="2">0</pdfrwt>
<totfact> 0.93188562E+10</totfact>
</mgrwt>
</event>
<event>
 4    2  0.1985873E+006  0.2227172E+01  0.7546771E-02  0.2842580E+00
         22   -1    0    0    0    0  0.00000000000E+00  0.00000000000E+00  0.61870997694E+01  0.61870997694E+01  0.00000000000E+00 0. -1.
         22   -1    0    0    0    0 -0.00000000000E+00 -0.00000000000E+00 -0.17495630946E+01  0.17495630946E+01  0.00000000000E+00 0.  1.
          4    1    1    2  501    0  0.20672724829E+01 -0.82866075580E+00  0.51396393212E+01  0.56014450385E+01  0.00000000000E+00 0. -1.
         -4    1    1    2    0  501 -0.20672724829E+01  0.82866075580E+00 -0.70210264642E+00  0.23352178255E+01  0.00000000000E+00 0.  1.
<mgrwt>
<rscale>  0 0.22271718E+01</rscale>
<asrwt>0</asrwt>
<pdfrwt beam="1">0</pdfrwt>
<pdfrwt beam="2">0</pdfrwt>
<totfact> 0.14860859E+12</totfact>
</mgrwt>
</event>
<event>
 4    2  0.1985873E+006  0.3457739E+01  0.7546771E-02  0.2394724E+00
         22   -1    0    0    0    0  0.00000000000E+00  0.00000000000E+00  0.21848603240E+02  0.21848603240E+02  0.00000000000E+00 0.  1.
         22   -1    0    0    0    0 -0.00000000000E+00 -0.00000000000E+00 -0.95081258281E+00  0.95081258281E+00  0.00000000000E+00 0. -1.
          4    1    1    2  501    0  0.20185583191E+01 -0.28073801673E+01  0.17875984346E+02  0.18207327575E+02  0.00000000000E+00 0.  1.
         -4    1    1    2    0  501 -0.20185583191E+01  0.28073801673E+01  0.30218063110E+01  0.45920882474E+01  0.00000000000E+00 0. -1.
<mgrwt>
<rscale>  0 0.34577393E+01</rscale>
<asrwt>0</asrwt>
<pdfrwt beam="1">0</pdfrwt>
<pdfrwt beam="2">0</pdfrwt>
<totfact> 0.64252820E+11</totfact>
</mgrwt>
</event>
<event>
 4    2  0.1985873E+006  0.3424006E+01  0.7546771E-02  0.2403086E+00
         22   -1    0    0    0    0  0.00000000000E+00  0.00000000000E+00  0.70901607131E+01  0.70901607131E+01  0.00000000000E+00 0. -1.
         22   -1    0    0    0    0 -0.00000000000E+00 -0.00000000000E+00 -0.31176476173E+01  0.31176476173E+01  0.00000000000E+00 0.  1.
          4    1    1    2  501    0 -0.52129515665E+00  0.33840906556E+01  0.54839074715E+01  0.64650645288E+01  0.00000000000E+00 0. -1.
         -4    1    1    2    0  501  0.52129515665E+00 -0.33840906556E+01 -0.15113943756E+01  0.37427438016E+01  0.00000000000E+00 0.  1.
<mgrwt>
<rscale>  0 0.34240062E+01</rscale>
<asrwt>0</asrwt>
<pdfrwt beam="1">0</pdfrwt>
<pdfrwt beam="2">0</pdfrwt>
<totfact> 0.64565462E+11</totfact>
</mgrwt>
</event>
<event>
 4    2  0.1985873E+006  0.2125757E+01  0.7546771E-02  0.2900720E+00
         22   -1    0    0    0    0  0.00000000000E+00  0.00000000000E+00  0.13412450917E+02  0.13412450917E+02  0.00000000000E+00 0. -1.
         22   -1    0    0    0    0 -0.00000000000E+00 -0.00000000000E+00 -0.38975691933E+00  0.38975691933E+00  0.00000000000E+00 0.  1.
          4    1    1    2  501    0  0.21035592635E+01  0.30639943904E+00  0.90524083004E+01  0.92986524953E+01  0.00000000000E+00 0. -1.
         -4    1    1    2    0  501 -0.21035592635E+01 -0.30639943904E+00  0.39702856970E+01  0.45035553407E+01  0.00000000000E+00 0.  1.
<mgrwt>
<rscale>  0 0.21257569E+01</rscale>
<asrwt>0</asrwt>
<pdfrwt beam="1">0</pdfrwt>
<pdfrwt beam="2">0</pdfrwt>
<totfact> 0.32281426E+12</totfact>
</mgrwt>
</event>
<event>
 4    2  0.1985873E+006  0.2058057E+01  0.7546771E-02  0.2942608E+00
         22   -1    0    0    0    0  0.00000000000E+00  0.00000000000E+00  0.22625694046E+01  0.22625694046E+01  0.00000000000E+00 0. -1.
         22   -1    0    0    0    0 -0.00000000000E+00 -0.00000000000E+00 -0.19529940639E+01  0.19529940639E+01  0.00000000000E+00 0.  1.
          4    1    1    2  501    0  0.16937440466E+01  0.11691149140E+01  0.58394882567E+00  0.21392977372E+01  0.00000000000E+00 0. -1.
         -4    1    1    2    0  501 -0.16937440466E+01 -0.11691149140E+01 -0.27437348507E+00  0.20762657313E+01  0.00000000000E+00 0.  1.
<mgrwt>
<rscale>  0 0.20580570E+01</rscale>
<asrwt>0</asrwt>
<pdfrwt beam="1">0</pdfrwt>
<pdfrwt beam="2">0</pdfrwt>
<totfact> 0.42680037E+12</totfact>
</mgrwt>
</event>
<event>
 4    2  0.1985873E+006  0.2348239E+01  0.7546771E-02  0.2779469E+00
         22   -1    0    0    0    0  0.00000000000E+00  0.00000000000E+00  0.14815616114E+01  0.14815616114E+01  0.00000000000E+00 0.  1.
         22   -1    0    0    0    0 -0.00000000000E+00 -0.00000000000E+00 -0.37397080150E+01  0.37397080150E+01  0.00000000000E+00 0. -1.
          4    1    1    2  501    0  0.33069467603E-01 -0.23480062132E+01 -0.94893177792E+00  0.25327254660E+01  0.00000000000E+00 0. -1.
         -4    1    1    2    0  501 -0.33069467603E-01  0.23480062132E+01 -0.13092146257E+01  0.26885441605E+01  0.00000000000E+00 0.  1.
<mgrwt>
<rscale>  0 0.23482391E+01</rscale>
<asrwt>0</asrwt>
<pdfrwt beam="1">0</pdfrwt>
<pdfrwt beam="2">0</pdfrwt>
<totfact> 0.32649925E+12</totfact>
</mgrwt>
</event>
<event>
 4    2  0.1985873E+006  0.2208221E+01  0.7546771E-02  0.2853054E+00
         22   -1    0    0    0    0  0.00000000000E+00  0.00000000000E+00  0.17013763389E+01  0.17013763389E+01  0.00000000000E+00 0. -1.
         22   -1    0    0    0    0 -0.00000000000E+00 -0.00000000000E+00 -0.13724758490E+02  0.13724758490E+02  0.00000000000E+00 0.  1.
          4    1    1    2  501    0  0.11725976568E+01  0.18711645037E+01  0.84893445895E+00  0.23657835024E+01  0.00000000000E+00 0. -1.
         -4    1    1    2    0  501 -0.11725976568E+01 -0.18711645037E+01 -0.12872316610E+02  0.13060351327E+02  0.00000000000E+00 0.  1.
<mgrwt>
<rscale>  0 0.22082214E+01</rscale>
<asrwt>0</asrwt>
<pdfrwt beam="1">0</pdfrwt>
<pdfrwt beam="2">0</pdfrwt>
<totfact> 0.58629641E+11</totfact>
</mgrwt>
</event>
<event>
 4    2  0.1985873E+006  0.2285803E+01  0.7546771E-02  0.2811223E+00
         22   -1    0    0    0    0  0.00000000000E+00  0.00000000000E+00  0.31341200678E+00  0.31341200678E+00  0.00000000000E+00 0. -1.
         22   -1    0    0    0    0 -0.00000000000E+00 -0.00000000000E+00 -0.22769738952E+02  0.22769738952E+02  0.00000000000E+00 0.  1.
          4    1    1    2  501    0 -0.13071730758E+01 -0.18751515273E+01 -0.52549816292E+01  0.57305956604E+01  0.00000000000E+00 0. -1.
         -4    1    1    2    0  501  0.13071730758E+01  0.18751515273E+01 -0.17201345316E+02  0.17352555299E+02  0.00000000000E+00 0.  1.
<mgrwt>
<rscale>  0 0.22858029E+01</rscale>
<asrwt>0</asrwt>
<pdfrwt beam="1">0</pdfrwt>
<pdfrwt beam="2">0</pdfrwt>
<totfact> 0.21403153E+12</totfact>
</mgrwt>
</event>
<event>
 4    2  0.1985873E+006  0.2714401E+01  0.7546771E-02  0.2620944E+00
         22   -1    0    0    0    0  0.00000000000E+00  0.00000000000E+00  0.10394821596E+01  0.10394821596E+01  0.00000000000E+00 0.  1.
         22   -1    0    0    0    0 -0.00000000000E+00 -0.00000000000E+00 -0.71981537874E+01  0.71981537874E+01  0.00000000000E+00 0. -1.
          4    1    1    2  501    0  0.25999478627E+01  0.77990079403E+00 -0.35885791442E+01  0.44995415779E+01  0.00000000000E+00 0. -1.
         -4    1    1    2    0  501 -0.25999478627E+01 -0.77990079403E+00 -0.25700924836E+01  0.37380943690E+01  0.00000000000E+00 0.  1.
<mgrwt>
<rscale>  0 0.27144012E+01</rscale>
<asrwt>0</asrwt>
<pdfrwt beam="1">0</pdfrwt>
<pdfrwt beam="2">0</pdfrwt>
<totfact> 0.22553133E+12</totfact>
</mgrwt>
</event>
<event>
 4    2  0.1985873E+006  0.2420613E+01  0.7546771E-02  0.2744599E+00
         22   -1    0    0    0    0  0.00000000000E+00  0.00000000000E+00  0.68683687327E+01  0.68683687327E+01  0.00000000000E+00 0. -1.
         22   -1    0    0    0    0 -0.00000000000E+00 -0.00000000000E+00 -0.15018656553E+02  0.15018656553E+02  0.00000000000E+00 0.  1.
          4    1    1    2  501    0  0.23947048144E+01  0.35320905772E+00  0.65530166333E+01  0.69857995092E+01  0.00000000000E+00 0. -1.
         -4    1    1    2    0  501 -0.23947048144E+01 -0.35320905772E+00 -0.14703304454E+02  0.14901225777E+02  0.00000000000E+00 0.  1.
<mgrwt>
<rscale>  0 0.24206131E+01</rscale>
<asrwt>0</asrwt>
<pdfrwt beam="1">0</pdfrwt>
<pdfrwt beam="2">0</pdfrwt>
<totfact> 0.10216275E+11</totfact>
</mgrwt>
</event>
<event>
 4    2  0.1985873E+006  0.2328574E+01  0.7546771E-02  0.2789296E+00
         22   -1    0    0    0    0  0.00000000000E+00  0.00000000000E+00  0.25539258696E+01  0.25539258696E+01  0.00000000000E+00 0.  1.
         22   -1    0    0    0    0 -0.00000000000E+00 -0.00000000000E+00 -0.43119971196E+01  0.43119971196E+01  0.00000000000E+00 0. -1.
          4    1    1    2  501    0  0.23223139643E+01 -0.17063294962E+00  0.15668812145E+01  0.28066660814E+01  0.00000000000E+00 0.  1.
         -4    1    1    2    0  501 -0.23223139643E+01  0.17063294962E+00 -0.33249524645E+01  0.40592569078E+01  0.00000000000E+00 0. -1.
<mgrwt>
<rscale>  0 0.23285742E+01</rscale>
<asrwt>0</asrwt>
<pdfrwt beam="1">0</pdfrwt>
<pdfrwt beam="2">0</pdfrwt>
<totfact> 0.14706763E+12</totfact>
</mgrwt>
</event>
<event>
 4    2  0.1985873E+006  0.2163265E+01  0.7546771E-02  0.2878607E+00
         22   -1    0    0    0    0  0.00000000000E+00  0.00000000000E+00  0.86080409047E+01  0.86080409047E+01  0.00000000000E+00 0. -1.
         22   -1    0    0    0    0 -0.00000000000E+00 -0.00000000000E+00 -0.97872647143E+00  0.97872647143E+00  0.00000000000E+00 0.  1.
          4    1    1    2  501    0 -0.21343377985E+01 -0.35258467233E+00  0.70105859606E+01  0.73367587734E+01  0.00000000000E+00 0. -1.
         -4    1    1    2    0  501  0.21343377985E+01  0.35258467233E+00  0.61872847269E+00  0.22500086027E+01  0.00000000000E+00 0.  1.
<mgrwt>
<rscale>  0 0.21632646E+01</rscale>
<asrwt>0</asrwt>
<pdfrwt beam="1">0</pdfrwt>
<pdfrwt beam="2">0</pdfrwt>
<totfact> 0.19488239E+12</totfact>
</mgrwt>
</event>
<event>
 4    2  0.1985873E+006  0.2956688E+01  0.7546771E-02  0.2536047E+00
         22   -1    0    0    0    0  0.00000000000E+00  0.00000000000E+00  0.42693145096E+01  0.42693145096E+01  0.00000000000E+00 0. -1.
         22   -1    0    0    0    0 -0.00000000000E+00 -0.00000000000E+00 -0.29780073992E+01  0.29780073992E+01  0.00000000000E+00 0.  1.
          4    1    1    2  501    0 -0.10642974235E+01  0.27584914588E+01  0.26710625472E+01  0.39845425415E+01  0.00000000000E+00 0. -1.
         -4    1    1    2    0  501  0.10642974235E+01 -0.27584914588E+01 -0.13797554367E+01  0.32627793672E+01  0.00000000000E+00 0.  1.
<mgrwt>
<rscale>  0 0.29566880E+01</rscale>
<asrwt>0</asrwt>
<pdfrwt beam="1">0</pdfrwt>
<pdfrwt beam="2">0</pdfrwt>
<totfact> 0.12440693E+12</totfact>
</mgrwt>
</event>
<event>
 4    2  0.1985873E+006  0.4083957E+01  0.7546771E-02  0.2261528E+00
         22   -1    0    0    0    0  0.00000000000E+00  0.00000000000E+00  0.95546968787E+00  0.95546968787E+00  0.00000000000E+00 0. -1.
         22   -1    0    0    0    0 -0.00000000000E+00 -0.00000000000E+00 -0.36145608850E+02  0.36145608850E+02  0.00000000000E+00 0.  1.
          4    1    1    2  501    0 -0.31316742332E+01  0.26213197880E+01 -0.42559058061E+01  0.58984264990E+01  0.00000000000E+00 0. -1.
         -4    1    1    2    0  501  0.31316742332E+01 -0.26213197880E+01 -0.30934233356E+02  0.31202652039E+02  0.00000000000E+00 0.  1.
<mgrwt>
<rscale>  0 0.40839565E+01</rscale>
<asrwt>0</asrwt>
<pdfrwt beam="1">0</pdfrwt>
<pdfrwt beam="2">0</pdfrwt>
<totfact> 0.33714106E+11</totfact>
</mgrwt>
</event>
<event>
 4    2  0.1985873E+006  0.3469811E+01  0.7546771E-02  0.2391766E+00
         22   -1    0    0    0    0  0.00000000000E+00  0.00000000000E+00  0.16066295325E+02  0.16066295325E+02  0.00000000000E+00 0. -1.
         22   -1    0    0    0    0 -0.00000000000E+00 -0.00000000000E+00 -0.13196145473E+01  0.13196145473E+01  0.00000000000E+00 0.  1.
          4    1    1    2  501    0 -0.74986661650E+00 -0.33878149131E+01  0.13087793667E+02  0.13539938438E+02  0.00000000000E+00 0. -1.
         -4    1    1    2    0  501  0.74986661650E+00  0.33878149131E+01  0.16588871103E+01  0.38459714342E+01  0.00000000000E+00 0.  1.
<mgrwt>
<rscale>  0 0.34698112E+01</rscale>
<asrwt>0</asrwt>
<pdfrwt beam="1">0</pdfrwt>
<pdfrwt beam="2">0</pdfrwt>
<totfact> 0.64709946E+11</totfact>
</mgrwt>
</event>
<event>
 4    2  0.1985873E+006  0.2302029E+01  0.7546771E-02  0.2802814E+00
         22   -1    0    0    0    0  0.00000000000E+00  0.00000000000E+00  0.42048700198E+01  0.42048700198E+01  0.00000000000E+00 0.  1.
         22   -1    0    0    0    0 -0.00000000000E+00 -0.00000000000E+00 -0.14098646510E+01  0.14098646510E+01  0.00000000000E+00 0. -1.
          4    1    1    2  501    0 -0.15222056395E+01 -0.17269126320E+01  0.23119230286E+01  0.32625642274E+01  0.00000000000E+00 0.  1.
         -4    1    1    2    0  501  0.15222056395E+01  0.17269126320E+01  0.48308234025E+00  0.23521704435E+01  0.00000000000E+00 0. -1.
<mgrwt>
<rscale>  0 0.23020289E+01</rscale>
<asrwt>0</asrwt>
<pdfrwt beam="1">0</pdfrwt>
<pdfrwt beam="2">0</pdfrwt>
<totfact> 0.30112603E+12</totfact>
</mgrwt>
</event>
<event>
 4    2  0.1985873E+006  0.4208473E+01  0.7546771E-02  0.2239132E+00
         22   -1    0    0    0    0  0.00000000000E+00  0.00000000000E+00  0.11977144923E+01  0.11977144923E+01  0.00000000000E+00 0.  1.
         22   -1    0    0    0    0 -0.00000000000E+00 -0.00000000000E+00 -0.14965165492E+02  0.14965165492E+02  0.00000000000E+00 0. -1.
          4    1    1    2  501    0  0.41252253968E+01  0.83292070887E+00 -0.77641868877E+01  0.88314120903E+01  0.00000000000E+00 0.  1.
         -4    1    1    2    0  501 -0.41252253968E+01 -0.83292070887E+00 -0.60032641116E+01  0.73314678937E+01  0.00000000000E+00 0. -1.
<mgrwt>
<rscale>  0 0.42084726E+01</rscale>
<asrwt>0</asrwt>
<pdfrwt beam="1">0</pdfrwt>
<pdfrwt beam="2">0</pdfrwt>
<totfact> 0.78929961E+11</totfact>
</mgrwt>
</event>
<event>
 4    2  0.1985873E+006  0.2124252E+01  0.7546771E-02  0.2901623E+00
         22   -1    0    0    0    0  0.00000000000E+00  0.00000000000E+00  0.47852837515E+01  0.47852837515E+01  0.00000000000E+00 0.  1.
         22   -1    0    0    0    0 -0.00000000000E+00 -0.00000000000E+00 -0.18722897811E+01  0.18722897811E+01  0.00000000000E+00 0. -1.
          4    1    1    2  501    0 -0.20806110891E+01  0.42837615442E+00  0.38016902282E+01  0.43549164429E+01  0.00000000000E+00 0.  1.
         -4    1    1    2    0  501  0.20806110891E+01 -0.42837615442E+00 -0.88869625777E+00  0.23026570896E+01  0.00000000000E+00 0. -1.
<mgrwt>
<rscale>  0 0.21242525E+01</rscale>
<asrwt>0</asrwt>
<pdfrwt beam="1">0</pdfrwt>
<pdfrwt beam="2">0</pdfrwt>
<totfact> 0.18640832E+12</totfact>
</mgrwt>
</event>
<event>
 4    2  0.1985873E+006  0.4301749E+01  0.7546771E-02  0.2223076E+00
         22   -1    0    0    0    0  0.00000000000E+00  0.00000000000E+00  0.57394768132E+01  0.57394768132E+01  0.00000000000E+00 0. -1.
         22   -1    0    0    0    0 -0.00000000000E+00 -0.00000000000E+00 -0.52928369748E+01  0.52928369748E+01  0.00000000000E+00 0.  1.
          4    1    1    2  501    0 -0.64975969288E+00  0.42523943445E+01  0.36718793004E+01  0.56557707623E+01  0.00000000000E+00 0. -1.
         -4    1    1    2    0  501  0.64975969288E+00 -0.42523943445E+01 -0.32252394620E+01  0.53765430257E+01  0.00000000000E+00 0.  1.
<mgrwt>
<rscale>  0 0.43017491E+01</rscale>
<asrwt>0</asrwt>
<pdfrwt beam="1">0</pdfrwt>
<pdfrwt beam="2">0</pdfrwt>
<totfact> 0.44549185E+11</totfact>
</mgrwt>
</event>
<event>
 4    2  0.1985873E+006  0.3639463E+01  0.7546771E-02  0.2352009E+00
         22   -1    0    0    0    0  0.00000000000E+00  0.00000000000E+00  0.31018799984E+00  0.31018799984E+00  0.00000000000E+00 0. -1.
         22   -1    0    0    0    0 -0.00000000000E+00 -0.00000000000E+00 -0.42866185414E+02  0.42866185414E+02  0.00000000000E+00 0.  1.
          4    1    1    2  501    0  0.36295399213E+01 -0.26857859256E+00 -0.22613448426E+02  0.22904448132E+02  0.00000000000E+00 0. -1.
         -4    1    1    2    0  501 -0.36295399213E+01  0.26857859256E+00 -0.19942548988E+02  0.20271925282E+02  0.00000000000E+00 0.  1.
<mgrwt>
<rscale>  0 0.36394635E+01</rscale>
<asrwt>0</asrwt>
<pdfrwt beam="1">0</pdfrwt>
<pdfrwt beam="2">0</pdfrwt>
<totfact> 0.96460534E+11</totfact>
</mgrwt>
</event>
<event>
 4    2  0.1985873E+006  0.2448276E+01  0.7546771E-02  0.2731782E+00
         22   -1    0    0    0    0  0.00000000000E+00  0.00000000000E+00  0.38676547067E+01  0.38676547067E+01  0.00000000000E+00 0. -1.
         22   -1    0    0    0    0 -0.00000000000E+00 -0.00000000000E+00 -0.19433520253E+01  0.19433520253E+01  0.00000000000E+00 0.  1.
          4    1    1    2  501    0  0.28814457047E+00 -0.24312610970E+01  0.22696808284E+01  0.33384890112E+01  0.00000000000E+00 0. -1.
         -4    1    1    2    0  501 -0.28814457047E+00  0.24312610970E+01 -0.34537814700E+00  0.24725177208E+01  0.00000000000E+00 0.  1.
<mgrwt>
<rscale>  0 0.24482765E+01</rscale>
<asrwt>0</asrwt>
<pdfrwt beam="1">0</pdfrwt>
<pdfrwt beam="2">0</pdfrwt>
<totfact> 0.22950814E+12</totfact>
</mgrwt>
</event>
<event>
 4    2  0.1985873E+006  0.2111960E+01  0.7546771E-02  0.2909046E+00
         22   -1    0    0    0    0  0.00000000000E+00  0.00000000000E+00  0.71355904561E+00  0.71355904561E+00  0.00000000000E+00 0.  1.
         22   -1    0    0    0    0 -0.00000000000E+00 -0.00000000000E+00 -0.10807531100E+02  0.10807531100E+02  0.00000000000E+00 0. -1.
          4    1    1    2  501    0 -0.20948100115E+01  0.26859918929E+00 -0.13065429457E+01  0.24834308885E+01  0.00000000000E+00 0.  1.
         -4    1    1    2    0  501  0.20948100115E+01 -0.26859918929E+00 -0.87874291090E+01  0.90376592575E+01  0.00000000000E+00 0. -1.
<mgrwt>
<rscale>  0 0.21119599E+01</rscale>
<asrwt>0</asrwt>
<pdfrwt beam="1">0</pdfrwt>
<pdfrwt beam="2">0</pdfrwt>
<totfact> 0.21207431E+12</totfact>
</mgrwt>
</event>
<event>
 4    2  0.1985873E+006  0.2006161E+01  0.7546771E-02  0.2976581E+00
         22   -1    0    0    0    0  0.00000000000E+00  0.00000000000E+00  0.34160240763E+00  0.34160240763E+00  0.00000000000E+00 0. -1.
         22   -1    0    0    0    0 -0.00000000000E+00 -0.00000000000E+00 -0.12339326349E+02  0.12339326349E+02  0.00000000000E+00 0.  1.
          4    1    1    2  501    0  0.16495230143E+01 -0.11418207145E+01 -0.46510787567E+01  0.50652950871E+01  0.00000000000E+00 0. -1.
         -4    1    1    2    0  501 -0.16495230143E+01  0.11418207145E+01 -0.73466451848E+01  0.76156336696E+01  0.00000000000E+00 0.  1.
<mgrwt>
<rscale>  0 0.20061607E+01</rscale>
<asrwt>0</asrwt>
<pdfrwt beam="1">0</pdfrwt>
<pdfrwt beam="2">0</pdfrwt>
<totfact> 0.41457660E+12</totfact>
</mgrwt>
</event>
<event>
 4    2  0.1985873E+006  0.3422402E+01  0.7546771E-02  0.2403487E+00
         22   -1    0    0    0    0  0.00000000000E+00  0.00000000000E+00  0.72997734055E+00  0.72997734055E+00  0.00000000000E+00 0. -1.
         22   -1    0    0    0    0 -0.00000000000E+00 -0.00000000000E+00 -0.18238448276E+02  0.18238448276E+02  0.00000000000E+00 0.  1.
          4    1    1    2  501    0  0.56909683141E+00 -0.33747540516E+01 -0.12042930616E+02  0.12519784899E+02  0.00000000000E+00 0.  1.
         -4    1    1    2    0  501 -0.56909683141E+00  0.33747540516E+01 -0.54655403198E+01  0.64486407172E+01  0.00000000000E+00 0. -1.
<mgrwt>
<rscale>  0 0.34224021E+01</rscale>
<asrwt>0</asrwt>
<pdfrwt beam="1">0</pdfrwt>
<pdfrwt beam="2">0</pdfrwt>
<totfact> 0.10873366E+12</totfact>
</mgrwt>
</event>
<event>
 4    2  0.1985873E+006  0.2144710E+01  0.7546771E-02  0.2889452E+00
         22   -1    0    0    0    0  0.00000000000E+00  0.00000000000E+00  0.75964757873E+02  0.75964757873E+02  0.00000000000E+00 0. -1.
         22   -1    0    0    0    0 -0.00000000000E+00 -0.00000000000E+00 -0.39826358159E+00  0.39826358159E+00  0.00000000000E+00 0.  1.
          4    1    1    2  501    0  0.16374463583E+01  0.13851181581E+01  0.72942617204E+02  0.72974140539E+02  0.00000000000E+00 0. -1.
         -4    1    1    2    0  501 -0.16374463583E+01 -0.13851181581E+01  0.26238770876E+01  0.33888809154E+01  0.00000000000E+00 0.  1.
<mgrwt>
<rscale>  0 0.21447104E+01</rscale>
<asrwt>0</asrwt>
<pdfrwt beam="1">0</pdfrwt>
<pdfrwt beam="2">0</pdfrwt>
<totfact> 0.33954479E+11</totfact>
</mgrwt>
</event>
<event>
 4    2  0.1985873E+006  0.3107411E+01  0.7546771E-02  0.2489290E+00
         22   -1    0    0    0    0  0.00000000000E+00  0.00000000000E+00  0.94300105805E+01  0.94300105805E+01  0.00000000000E+00 0. -1.
         22   -1    0    0    0    0 -0.00000000000E+00 -0.00000000000E+00 -0.12036435846E+01  0.12036435846E+01  0.00000000000E+00 0.  1.
          4    1    1    2  501    0 -0.58638295159E+00 -0.30515826612E+01  0.61674255931E+01  0.69060220207E+01  0.00000000000E+00 0. -1.
         -4    1    1    2    0  501  0.58638295159E+00  0.30515826612E+01  0.20589414028E+01  0.37276321444E+01  0.00000000000E+00 0.  1.
<mgrwt>
<rscale>  0 0.31074108E+01</rscale>
<asrwt>0</asrwt>
<pdfrwt beam="1">0</pdfrwt>
<pdfrwt beam="2">0</pdfrwt>
<totfact> 0.13781030E+12</totfact>
</mgrwt>
</event>
<event>
 4    2  0.1985873E+006  0.2135158E+01  0.7546771E-02  0.2895107E+00
         22   -1    0    0    0    0  0.00000000000E+00  0.00000000000E+00  0.11910286842E+01  0.11910286842E+01  0.00000000000E+00 0. -1.
         22   -1    0    0    0    0 -0.00000000000E+00 -0.00000000000E+00 -0.50436721983E+01  0.50436721983E+01  0.00000000000E+00 0.  1.
          4    1    1    2  501    0  0.13687407738E+01  0.16387335643E+01 -0.39567756798E+00  0.21715109345E+01  0.00000000000E+00 0. -1.
         -4    1    1    2    0  501 -0.13687407738E+01 -0.16387335643E+01 -0.34569659462E+01  0.40631899480E+01  0.00000000000E+00 0.  1.
<mgrwt>
<rscale>  0 0.21351578E+01</rscale>
<asrwt>0</asrwt>
<pdfrwt beam="1">0</pdfrwt>
<pdfrwt beam="2">0</pdfrwt>
<totfact> 0.29476279E+12</totfact>
</mgrwt>
</event>
<event>
 4    2  0.1985873E+006  0.2179229E+01  0.7546771E-02  0.2869417E+00
         22   -1    0    0    0    0  0.00000000000E+00  0.00000000000E+00  0.11790668021E+02  0.11790668021E+02  0.00000000000E+00 0.  1.
         22   -1    0    0    0    0 -0.00000000000E+00 -0.00000000000E+00 -0.55348285723E+00  0.55348285723E+00  0.00000000000E+00 0. -1.
          4    1    1    2  501    0  0.20778843575E+00  0.21693005720E+01  0.88392193801E+01  0.91038914896E+01  0.00000000000E+00 0.  1.
         -4    1    1    2    0  501 -0.20778843575E+00 -0.21693005720E+01  0.23979657837E+01  0.32402593886E+01  0.00000000000E+00 0. -1.
<mgrwt>
<rscale>  0 0.21792295E+01</rscale>
<asrwt>0</asrwt>
<pdfrwt beam="1">0</pdfrwt>
<pdfrwt beam="2">0</pdfrwt>
<totfact> 0.25440155E+12</totfact>
</mgrwt>
</event>
<event>
 4    2  0.1985873E+006  0.2472379E+01  0.7546771E-02  0.2720834E+00
         22   -1    0    0    0    0  0.00000000000E+00  0.00000000000E+00  0.24245726522E+02  0.24245726522E+02  0.00000000000E+00 0. -1.
         22   -1    0    0    0    0 -0.00000000000E+00 -0.00000000000E+00 -0.39769502447E+00  0.39769502447E+00  0.00000000000E+00 0.  1.
          4    1    1    2  501    0  0.15567346728E+01  0.19207380431E+01  0.19379058525E+02  0.19536134899E+02  0.00000000000E+00 0. -1.
         -4    1    1    2    0  501 -0.15567346728E+01 -0.19207380431E+01  0.44689729727E+01  0.51072866478E+01  0.00000000000E+00 0.  1.
<mgrwt>
<rscale>  0 0.24723789E+01</rscale>
<asrwt>0</asrwt>
<pdfrwt beam="1">0</pdfrwt>
<pdfrwt beam="2">0</pdfrwt>
<totfact> 0.15134475E+12</totfact>
</mgrwt>
</event>
<event>
 4    2  0.1985873E+006  0.2062046E+01  0.7546771E-02  0.2940066E+00
         22   -1    0    0    0    0  0.00000000000E+00  0.00000000000E+00  0.52975549379E+01  0.52975549379E+01  0.00000000000E+00 0. -1.
         22   -1    0    0    0    0 -0.00000000000E+00 -0.00000000000E+00 -0.81647121584E+00  0.81647121584E+00  0.00000000000E+00 0.  1.
          4    1    1    2  501    0  0.15782786723E+01  0.13270538157E+01  0.26384103510E+01  0.33486183087E+01  0.00000000000E+00 0.  1.
         -4    1    1    2    0  501 -0.15782786723E+01 -0.13270538157E+01  0.18426733711E+01  0.27654078451E+01  0.00000000000E+00 0. -1.
<mgrwt>
<rscale>  0 0.20620464E+01</rscale>
<asrwt>0</asrwt>
<pdfrwt beam="1">0</pdfrwt>
<pdfrwt beam="2">0</pdfrwt>
<totfact> 0.42796311E+12</totfact>
</mgrwt>
</event>
<event>
 4    2  0.1985873E+006  0.3805937E+01  0.7546771E-02  0.2315999E+00
         22   -1    0    0    0    0  0.00000000000E+00  0.00000000000E+00  0.39826309255E+01  0.39826309255E+01  0.00000000000E+00 0.  1.
         22   -1    0    0    0    0 -0.00000000000E+00 -0.00000000000E+00 -0.37221503618E+01  0.37221503618E+01  0.00000000000E+00 0. -1.
          4    1    1    2  501    0  0.37840883405E+01  0.40722811585E+00  0.71263147469E+00  0.38720799224E+01  0.00000000000E+00 0.  1.
         -4    1    1    2    0  501 -0.37840883405E+01 -0.40722811585E+00 -0.45215091095E+00  0.38327013650E+01  0.00000000000E+00 0. -1.
<mgrwt>
<rscale>  0 0.38059374E+01</rscale>
<asrwt>0</asrwt>
<pdfrwt beam="1">0</pdfrwt>
<pdfrwt beam="2">0</pdfrwt>
<totfact> 0.10397945E+12</totfact>
</mgrwt>
</event>
<event>
 4    2  0.1985873E+006  0.2014104E+01  0.7546771E-02  0.2971270E+00
         22   -1    0    0    0    0  0.00000000000E+00  0.00000000000E+00  0.77897769913E+00  0.77897769913E+00  0.00000000000E+00 0. -1.
         22   -1    0    0    0    0 -0.00000000000E+00 -0.00000000000E+00 -0.13941207256E+02  0.13941207256E+02  0.00000000000E+00 0.  1.
          4    1    1    2  501    0 -0.19624055593E+01 -0.45340799542E+00 -0.75566335367E+00  0.21511953639E+01  0.00000000000E+00 0. -1.
         -4    1    1    2    0  501  0.19624055593E+01  0.45340799542E+00 -0.12406566203E+02  0.12568989591E+02  0.00000000000E+00 0.  1.
<mgrwt>
<rscale>  0 0.20141039E+01</rscale>
<asrwt>0</asrwt>
<pdfrwt beam="1">0</pdfrwt>
<pdfrwt beam="2">0</pdfrwt>
<totfact> 0.14067985E+12</totfact>
</mgrwt>
</event>
<event>
 4    2  0.1985873E+006  0.2059911E+01  0.7546771E-02  0.2941425E+00
         22   -1    0    0    0    0  0.00000000000E+00  0.00000000000E+00  0.23019501804E+00  0.23019501804E+00  0.00000000000E+00 0. -1.
         22   -1    0    0    0    0 -0.00000000000E+00 -0.00000000000E+00 -0.43055543812E+02  0.43055543812E+02  0.00000000000E+00 0.  1.
          4    1    1    2  501    0  0.19130202757E+01  0.76392880454E+00 -0.50458327400E+01  0.54501065892E+01  0.00000000000E+00 0. -1.
         -4    1    1    2    0  501 -0.19130202757E+01 -0.76392880454E+00 -0.37779516054E+02  0.37835632241E+02  0.00000000000E+00 0.  1.
<mgrwt>
<rscale>  0 0.20599111E+01</rscale>
<asrwt>0</asrwt>
<pdfrwt beam="1">0</pdfrwt>
<pdfrwt beam="2">0</pdfrwt>
<totfact> 0.13391033E+12</totfact>
</mgrwt>
</event>
<event>
 4    2  0.1985873E+006  0.5867921E+01  0.7546771E-02  0.2031739E+00
         22   -1    0    0    0    0  0.00000000000E+00  0.00000000000E+00  0.13443658253E+01  0.13443658253E+01  0.00000000000E+00 0. -1.
         22   -1    0    0    0    0 -0.00000000000E+00 -0.00000000000E+00 -0.32228960191E+02  0.32228960191E+02  0.00000000000E+00 0.  1.
          4    1    1    2  501    0  0.40657338015E+01  0.42311116145E+01 -0.78363053326E+01  0.97897996968E+01  0.00000000000E+00 0. -1.
         -4    1    1    2    0  501 -0.40657338015E+01 -0.42311116145E+01 -0.23048289033E+02  0.23783526320E+02  0.00000000000E+00 0.  1.
<mgrwt>
<rscale>  0 0.58679210E+01</rscale>
<asrwt>0</asrwt>
<pdfrwt beam="1">0</pdfrwt>
<pdfrwt beam="2">0</pdfrwt>
<totfact> 0.26427266E+11</totfact>
</mgrwt>
</event>
<event>
 4    2  0.1985873E+006  0.2448679E+01  0.7546771E-02  0.2731598E+00
         22   -1    0    0    0    0  0.00000000000E+00  0.00000000000E+00  0.26564920844E+02  0.26564920844E+02  0.00000000000E+00 0.  1.
         22   -1    0    0    0    0 -0.00000000000E+00 -0.00000000000E+00 -0.26405422520E+00  0.26405422520E+00  0.00000000000E+00 0. -1.
          4    1    1    2  501    0 -0.11367581975E+01  0.21688263911E+01  0.18262128713E+02  0.18425563011E+02  0.00000000000E+00 0.  1.
         -4    1    1    2    0  501  0.11367581975E+01 -0.21688263911E+01  0.80387379053E+01  0.84034120584E+01  0.00000000000E+00 0. -1.
<mgrwt>
<rscale>  0 0.24486786E+01</rscale>
<asrwt>0</asrwt>
<pdfrwt beam="1">0</pdfrwt>
<pdfrwt beam="2">0</pdfrwt>
<totfact> 0.21355539E+12</totfact>
</mgrwt>
</event>
<event>
 4    2  0.1985873E+006  0.3796488E+01  0.7546771E-02  0.2317970E+00
         22   -1    0    0    0    0  0.00000000000E+00  0.00000000000E+00  0.82325713465E+02  0.82325713465E+02  0.00000000000E+00 0.  1.
         22   -1    0    0    0    0 -0.00000000000E+00 -0.00000000000E+00 -0.31235313898E+00  0.31235313898E+00  0.00000000000E+00 0. -1.
          4    1    1    2  501    0 -0.37724523899E+01 -0.42652378899E+00  0.68398766681E+02  0.68504048078E+02  0.00000000000E+00 0.  1.
         -4    1    1    2    0  501  0.37724523899E+01  0.42652378899E+00  0.13614593645E+02  0.14134018526E+02  0.00000000000E+00 0. -1.
<mgrwt>
<rscale>  0 0.37964878E+01</rscale>
<asrwt>0</asrwt>
<pdfrwt beam="1">0</pdfrwt>
<pdfrwt beam="2">0</pdfrwt>
<totfact> 0.39955740E+11</totfact>
</mgrwt>
</event>
<event>
 4    2  0.1985873E+006  0.2016194E+01  0.7546771E-02  0.2969880E+00
         22   -1    0    0    0    0  0.00000000000E+00  0.00000000000E+00  0.35110902476E+01  0.35110902476E+01  0.00000000000E+00 0. -1.
         22   -1    0    0    0    0 -0.00000000000E+00 -0.00000000000E+00 -0.35705546429E+02  0.35705546429E+02  0.00000000000E+00 0.  1.
          4    1    1    2  501    0  0.12513010757E+01 -0.15809127853E+01  0.31905654657E+01  0.37742214572E+01  0.00000000000E+00 0. -1.
         -4    1    1    2    0  501 -0.12513010757E+01  0.15809127853E+01 -0.35385021647E+02  0.35442415219E+02  0.00000000000E+00 0.  1.
<mgrwt>
<rscale>  0 0.20161943E+01</rscale>
<asrwt>0</asrwt>
<pdfrwt beam="1">0</pdfrwt>
<pdfrwt beam="2">0</pdfrwt>
<totfact> 0.76083566E+10</totfact>
</mgrwt>
</event>
<event>
 4    2  0.1985873E+006  0.2815315E+01  0.7546771E-02  0.2583974E+00
         22   -1    0    0    0    0  0.00000000000E+00  0.00000000000E+00  0.45712894316E+01  0.45712894316E+01  0.00000000000E+00 0.  1.
         22   -1    0    0    0    0 -0.00000000000E+00 -0.00000000000E+00 -0.38682555529E+01  0.38682555529E+01  0.00000000000E+00 0. -1.
          4    1    1    2  501    0 -0.79966341999E-01 -0.28141789546E+01  0.34860180204E+01  0.44808837793E+01  0.00000000000E+00 0.  1.
         -4    1    1    2    0  501  0.79966341999E-01  0.28141789546E+01 -0.27829841418E+01  0.39586612052E+01  0.00000000000E+00 0. -1.
<mgrwt>
<rscale>  0 0.28153149E+01</rscale>
<asrwt>0</asrwt>
<pdfrwt beam="1">0</pdfrwt>
<pdfrwt beam="2">0</pdfrwt>
<totfact> 0.84473494E+11</totfact>
</mgrwt>
</event>
<event>
 4    2  0.1985873E+006  0.2939427E+01  0.7546771E-02  0.2541675E+00
         22   -1    0    0    0    0  0.00000000000E+00  0.00000000000E+00  0.11944842529E+02  0.11944842529E+02  0.00000000000E+00 0.  1.
         22   -1    0    0    0    0 -0.00000000000E+00 -0.00000000000E+00 -0.11413982901E+01  0.11413982901E+01  0.00000000000E+00 0. -1.
          4    1    1    2  501    0  0.28226559214E+01  0.82027221169E+00  0.93616066772E+01  0.98122328005E+01  0.00000000000E+00 0.  1.
         -4    1    1    2    0  501 -0.28226559214E+01 -0.82027221169E+00  0.14418375618E+01  0.32740080187E+01  0.00000000000E+00 0. -1.
<mgrwt>
<rscale>  0 0.29394273E+01</rscale>
<asrwt>0</asrwt>
<pdfrwt beam="1">0</pdfrwt>
<pdfrwt beam="2">0</pdfrwt>
<totfact> 0.10992331E+12</totfact>
</mgrwt>
</event>
<event>
 4    2  0.1985873E+006  0.2286893E+01  0.7546771E-02  0.2810654E+00
         22   -1    0    0    0    0  0.00000000000E+00  0.00000000000E+00  0.65875014368E+02  0.65875014368E+02  0.00000000000E+00 0.  1.
         22   -1    0    0    0    0 -0.00000000000E+00 -0.00000000000E+00 -0.87519628578E-01  0.87519628578E-01  0.00000000000E+00 0. -1.
          4    1    1    2  501    0 -0.20721954033E+01 -0.96741211489E+00  0.42945101417E+02  0.43005948608E+02  0.00000000000E+00 0.  1.
         -4    1    1    2    0  501  0.20721954033E+01  0.96741211489E+00  0.22842393323E+02  0.22956585388E+02  0.00000000000E+00 0. -1.
<mgrwt>
<rscale>  0 0.22868931E+01</rscale>
<asrwt>0</asrwt>
<pdfrwt beam="1">0</pdfrwt>
<pdfrwt beam="2">0</pdfrwt>
<totfact> 0.22319219E+12</totfact>
</mgrwt>
</event>
<event>
 4    2  0.1985873E+006  0.2002526E+01  0.7546771E-02  0.2979025E+00
         22   -1    0    0    0    0  0.00000000000E+00  0.00000000000E+00  0.21873033212E+01  0.21873033212E+01  0.00000000000E+00 0.  1.
         22   -1    0    0    0    0 -0.00000000000E+00 -0.00000000000E+00 -0.24418836044E+01  0.24418836044E+01  0.00000000000E+00 0. -1.
          4    1    1    2  501    0 -0.35462702869E+00  0.19708757437E+01  0.10281605818E+01  0.22510499125E+01  0.00000000000E+00 0.  1.
         -4    1    1    2    0  501  0.35462702869E+00 -0.19708757437E+01 -0.12827408650E+01  0.23781370131E+01  0.00000000000E+00 0. -1.
<mgrwt>
<rscale>  0 0.20025263E+01</rscale>
<asrwt>0</asrwt>
<pdfrwt beam="1">0</pdfrwt>
<pdfrwt beam="2">0</pdfrwt>
<totfact> 0.34256643E+12</totfact>
</mgrwt>
</event>
<event>
 4    2  0.1985873E+006  0.9006352E+01  0.7546771E-02  0.1823149E+00
         22   -1    0    0    0    0  0.00000000000E+00  0.00000000000E+00  0.28103285399E+02  0.28103285399E+02  0.00000000000E+00 0.  1.
         22   -1    0    0    0    0 -0.00000000000E+00 -0.00000000000E+00 -0.32766140594E+01  0.32766140594E+01  0.00000000000E+00 0. -1.
          4    1    1    2  501    0 -0.71490102083E+01  0.54777767556E+01  0.17828585888E+02  0.19974304992E+02  0.00000000000E+00 0. -1.
         -4    1    1    2    0  501  0.71490102083E+01 -0.54777767556E+01  0.69980854510E+01  0.11405594466E+02  0.00000000000E+00 0.  1.
<mgrwt>
<rscale>  0 0.90063525E+01</rscale>
<asrwt>0</asrwt>
<pdfrwt beam="1">0</pdfrwt>
<pdfrwt beam="2">0</pdfrwt>
<totfact> 0.11206918E+11</totfact>
</mgrwt>
</event>
<event>
 4    2  0.1985873E+006  0.2363875E+01  0.7546771E-02  0.2771765E+00
         22   -1    0    0    0    0  0.00000000000E+00  0.00000000000E+00  0.59388146666E+01  0.59388146666E+01  0.00000000000E+00 0. -1.
         22   -1    0    0    0    0 -0.00000000000E+00 -0.00000000000E+00 -0.95888433444E+00  0.95888433444E+00  0.00000000000E+00 0.  1.
          4    1    1    2  501    0 -0.14975918207E+01 -0.18289675312E+01  0.20178039471E+01  0.31079633622E+01  0.00000000000E+00 0.  1.
         -4    1    1    2    0  501  0.14975918207E+01  0.18289675312E+01  0.29621263851E+01  0.37897356389E+01  0.00000000000E+00 0. -1.
<mgrwt>
<rscale>  0 0.23638747E+01</rscale>
<asrwt>0</asrwt>
<pdfrwt beam="1">0</pdfrwt>
<pdfrwt beam="2">0</pdfrwt>
<totfact> 0.31110741E+12</totfact>
</mgrwt>
</event>
<event>
 4    2  0.1985873E+006  0.3066438E+01  0.7546771E-02  0.2501593E+00
         22   -1    0    0    0    0  0.00000000000E+00  0.00000000000E+00  0.91081709019E+01  0.91081709019E+01  0.00000000000E+00 0.  1.
         22   -1    0    0    0    0 -0.00000000000E+00 -0.00000000000E+00 -0.10952423496E+01  0.10952423496E+01  0.00000000000E+00 0. -1.
          4    1    1    2  501    0  0.28800618837E+01 -0.10527509749E+01  0.52287578998E+01  0.60615963445E+01  0.00000000000E+00 0. -1.
         -4    1    1    2    0  501 -0.28800618837E+01  0.10527509749E+01  0.27841706524E+01  0.41418169069E+01  0.00000000000E+00 0.  1.
<mgrwt>
<rscale>  0 0.30664378E+01</rscale>
<asrwt>0</asrwt>
<pdfrwt beam="1">0</pdfrwt>
<pdfrwt beam="2">0</pdfrwt>
<totfact> 0.16010888E+12</totfact>
</mgrwt>
</event>
<event>
 4    2  0.1985873E+006  0.2447152E+01  0.7546771E-02  0.2732298E+00
         22   -1    0    0    0    0  0.00000000000E+00  0.00000000000E+00  0.19759880114E+02  0.19759880114E+02  0.00000000000E+00 0.  1.
         22   -1    0    0    0    0 -0.00000000000E+00 -0.00000000000E+00 -0.97899572166E+00  0.97899572166E+00  0.00000000000E+00 0. -1.
          4    1    1    2  501    0  0.17945597917E+01 -0.16637633529E+01  0.18006636832E+02  0.18172163420E+02  0.00000000000E+00 0.  1.
         -4    1    1    2    0  501 -0.17945597917E+01  0.16637633529E+01  0.77424755955E+00  0.25667124155E+01  0.00000000000E+00 0. -1.
<mgrwt>
<rscale>  0 0.24471521E+01</rscale>
<asrwt>0</asrwt>
<pdfrwt beam="1">0</pdfrwt>
<pdfrwt beam="2">0</pdfrwt>
<totfact> 0.70456270E+11</totfact>
</mgrwt>
</event>
<event>
 4    2  0.1985873E+006  0.4207773E+01  0.7546771E-02  0.2239254E+00
         22   -1    0    0    0    0  0.00000000000E+00  0.00000000000E+00  0.36098220996E+02  0.36098220996E+02  0.00000000000E+00 0. -1.
         22   -1    0    0    0    0 -0.00000000000E+00 -0.00000000000E+00 -0.65010588154E+00  0.65010588154E+00  0.00000000000E+00 0.  1.
          4    1    1    2  501    0  0.26829933485E+01 -0.32414353255E+01  0.26828868212E+02  0.27156832028E+02  0.00000000000E+00 0. -1.
         -4    1    1    2    0  501 -0.26829933485E+01  0.32414353255E+01  0.86192469027E+01  0.95914948495E+01  0.00000000000E+00 0.  1.
<mgrwt>
<rscale>  0 0.42077733E+01</rscale>
<asrwt>0</asrwt>
<pdfrwt beam="1">0</pdfrwt>
<pdfrwt beam="2">0</pdfrwt>
<totfact> 0.52329692E+11</totfact>
</mgrwt>
</event>
<event>
 4    2  0.1985873E+006  0.4398146E+01  0.7546771E-02  0.2207089E+00
         22   -1    0    0    0    0  0.00000000000E+00  0.00000000000E+00  0.38160003869E+01  0.38160003869E+01  0.00000000000E+00 0.  1.
         22   -1    0    0    0    0 -0.00000000000E+00 -0.00000000000E+00 -0.53873778236E+01  0.53873778236E+01  0.00000000000E+00 0. -1.
          4    1    1    2  501    0  0.15475095551E+01 -0.41169043299E+01  0.33280057678E+00  0.44107191373E+01  0.00000000000E+00 0.  1.
         -4    1    1    2    0  501 -0.15475095551E+01  0.41169043299E+01 -0.19041780135E+01  0.47926590731E+01  0.00000000000E+00 0. -1.
<mgrwt>
<rscale>  0 0.43981459E+01</rscale>
<asrwt>0</asrwt>
<pdfrwt beam="1">0</pdfrwt>
<pdfrwt beam="2">0</pdfrwt>
<totfact> 0.70667796E+11</totfact>
</mgrwt>
</event>
<event>
 4    2  0.1985873E+006  0.2082285E+01  0.7546771E-02  0.2927314E+00
         22   -1    0    0    0    0  0.00000000000E+00  0.00000000000E+00  0.12131191360E+01  0.12131191360E+01  0.00000000000E+00 0.  1.
         22   -1    0    0    0    0 -0.00000000000E+00 -0.00000000000E+00 -0.17987195095E+02  0.17987195095E+02  0.00000000000E+00 0. -1.
          4    1    1    2  501    0  0.15094742625E+01  0.14343631044E+01  0.20653936930E+00  0.20925029451E+01  0.00000000000E+00 0.  1.
         -4    1    1    2    0  501 -0.15094742625E+01 -0.14343631044E+01 -0.16980615328E+02  0.17107811286E+02  0.00000000000E+00 0. -1.
<mgrwt>
<rscale>  0 0.20822848E+01</rscale>
<asrwt>0</asrwt>
<pdfrwt beam="1">0</pdfrwt>
<pdfrwt beam="2">0</pdfrwt>
<totfact> 0.61963993E+11</totfact>
</mgrwt>
</event>
<event>
 4    2  0.1985873E+006  0.2864353E+01  0.7546771E-02  0.2566865E+00
         22   -1    0    0    0    0  0.00000000000E+00  0.00000000000E+00  0.66944040696E+01  0.66944040696E+01  0.00000000000E+00 0. -1.
         22   -1    0    0    0    0 -0.00000000000E+00 -0.00000000000E+00 -0.36742261926E+01  0.36742261926E+01  0.00000000000E+00 0.  1.
          4    1    1    2  501    0 -0.24215870251E+01 -0.15298475590E+01  0.57423417844E+01  0.64170870683E+01  0.00000000000E+00 0. -1.
         -4    1    1    2    0  501  0.24215870251E+01  0.15298475590E+01 -0.27221639074E+01  0.39515431938E+01  0.00000000000E+00 0.  1.
<mgrwt>
<rscale>  0 0.28643529E+01</rscale>
<asrwt>0</asrwt>
<pdfrwt beam="1">0</pdfrwt>
<pdfrwt beam="2">0</pdfrwt>
<totfact> 0.57046826E+11</totfact>
</mgrwt>
</event>
<event>
 4    2  0.1985873E+006  0.2249278E+01  0.7546771E-02  0.2830573E+00
         22   -1    0    0    0    0  0.00000000000E+00  0.00000000000E+00  0.30075381781E+02  0.30075381781E+02  0.00000000000E+00 0. -1.
         22   -1    0    0    0    0 -0.00000000000E+00 -0.00000000000E+00 -0.78334384196E+00  0.78334384196E+00  0.00000000000E+00 0.  1.
          4    1    1    2  501    0 -0.14463629458E+01  0.17225813983E+01  0.28318690692E+02  0.28407877340E+02  0.00000000000E+00 0. -1.
         -4    1    1    2    0  501  0.14463629458E+01 -0.17225813983E+01  0.97334724737E+00  0.24508482835E+01  0.00000000000E+00 0.  1.
<mgrwt>
<rscale>  0 0.22492782E+01</rscale>
<asrwt>0</asrwt>
<pdfrwt beam="1">0</pdfrwt>
<pdfrwt beam="2">0</pdfrwt>
<totfact> 0.53503868E+11</totfact>
</mgrwt>
</event>
<event>
 4    2  0.1985873E+006  0.2087812E+01  0.7546771E-02  0.2923873E+00
         22   -1    0    0    0    0  0.00000000000E+00  0.00000000000E+00  0.60060474760E+00  0.60060474760E+00  0.00000000000E+00 0.  1.
         22   -1    0    0    0    0 -0.00000000000E+00 -0.00000000000E+00 -0.73507162853E+01  0.73507162853E+01  0.00000000000E+00 0. -1.
          4    1    1    2  501    0 -0.17868767735E+01 -0.10798286486E+01 -0.38224809288E+01  0.43554929647E+01  0.00000000000E+00 0.  1.
         -4    1    1    2    0  501  0.17868767735E+01  0.10798286486E+01 -0.29276306089E+01  0.35958280682E+01  0.00000000000E+00 0. -1.
<mgrwt>
<rscale>  0 0.20878119E+01</rscale>
<asrwt>0</asrwt>
<pdfrwt beam="1">0</pdfrwt>
<pdfrwt beam="2">0</pdfrwt>
<totfact> 0.41042345E+12</totfact>
</mgrwt>
</event>
<event>
 4    2  0.1985873E+006  0.3320106E+01  0.7546771E-02  0.2429776E+00
         22   -1    0    0    0    0  0.00000000000E+00  0.00000000000E+00  0.18545469224E+01  0.18545469224E+01  0.00000000000E+00 0.  1.
         22   -1    0    0    0    0 -0.00000000000E+00 -0.00000000000E+00 -0.70693392569E+01  0.70693392569E+01  0.00000000000E+00 0. -1.
          4    1    1    2  501    0  0.22921082049E+01  0.24019456967E+01 -0.82702713055E+00  0.34215606129E+01  0.00000000000E+00 0. -1.
         -4    1    1    2    0  501 -0.22921082049E+01 -0.24019456967E+01 -0.43877652040E+01  0.55023255664E+01  0.00000000000E+00 0.  1.
<mgrwt>
<rscale>  0 0.33201059E+01</rscale>
<asrwt>0</asrwt>
<pdfrwt beam="1">0</pdfrwt>
<pdfrwt beam="2">0</pdfrwt>
<totfact> 0.11850029E+12</totfact>
</mgrwt>
</event>
<event>
 4    2  0.1985873E+006  0.2107601E+01  0.7546771E-02  0.2911697E+00
         22   -1    0    0    0    0  0.00000000000E+00  0.00000000000E+00  0.68763876914E+00  0.68763876914E+00  0.00000000000E+00 0. -1.
         22   -1    0    0    0    0 -0.00000000000E+00 -0.00000000000E+00 -0.68270449810E+01  0.68270449810E+01  0.00000000000E+00 0.  1.
          4    1    1    2  501    0 -0.20561703033E+01  0.46276089926E+00 -0.39411957429E+01  0.44693408742E+01  0.00000000000E+00 0. -1.
         -4    1    1    2    0  501  0.20561703033E+01 -0.46276089926E+00 -0.21982104689E+01  0.30453428759E+01  0.00000000000E+00 0.  1.
<mgrwt>
<rscale>  0 0.21076015E+01</rscale>
<asrwt>0</asrwt>
<pdfrwt beam="1">0</pdfrwt>
<pdfrwt beam="2">0</pdfrwt>
<totfact> 0.38460940E+12</totfact>
</mgrwt>
</event>
<event>
 4    2  0.1985873E+006  0.8924747E+01  0.7546771E-02  0.1827120E+00
         22   -1    0    0    0    0  0.00000000000E+00  0.00000000000E+00  0.39663383473E+01  0.39663383473E+01  0.00000000000E+00 0.  1.
         22   -1    0    0    0    0 -0.00000000000E+00 -0.00000000000E+00 -0.55904160504E+02  0.55904160504E+02  0.00000000000E+00 0. -1.
          4    1    1    2  501    0 -0.28843424014E+01  0.84458081540E+01 -0.20060825776E+01  0.91474298998E+01  0.00000000000E+00 0.  1.
         -4    1    1    2    0  501  0.28843424014E+01 -0.84458081540E+01 -0.49931739579E+02  0.50723068951E+02  0.00000000000E+00 0. -1.
<mgrwt>
<rscale>  0 0.89247469E+01</rscale>
<asrwt>0</asrwt>
<pdfrwt beam="1">0</pdfrwt>
<pdfrwt beam="2">0</pdfrwt>
<totfact> 0.36678778E+10</totfact>
</mgrwt>
</event>
<event>
 4    2  0.1985873E+006  0.2543732E+01  0.7546771E-02  0.2689559E+00
         22   -1    0    0    0    0  0.00000000000E+00  0.00000000000E+00  0.45165935795E+02  0.45165935795E+02  0.00000000000E+00 0.  1.
         22   -1    0    0    0    0 -0.00000000000E+00 -0.00000000000E+00 -0.17796815433E+00  0.17796815433E+00  0.00000000000E+00 0. -1.
          4    1    1    2  501    0 -0.12983422076E+01 -0.21874366278E+01  0.32505958389E+02  0.32605335488E+02  0.00000000000E+00 0.  1.
         -4    1    1    2    0  501  0.12983422076E+01  0.21874366278E+01  0.12482009252E+02  0.12738568461E+02  0.00000000000E+00 0. -1.
<mgrwt>
<rscale>  0 0.25437318E+01</rscale>
<asrwt>0</asrwt>
<pdfrwt beam="1">0</pdfrwt>
<pdfrwt beam="2">0</pdfrwt>
<totfact> 0.16764410E+12</totfact>
</mgrwt>
</event>
<event>
 4    2  0.1985873E+006  0.2314188E+01  0.7546771E-02  0.2796585E+00
         22   -1    0    0    0    0  0.00000000000E+00  0.00000000000E+00  0.11824143736E+01  0.11824143736E+01  0.00000000000E+00 0.  1.
         22   -1    0    0    0    0 -0.00000000000E+00 -0.00000000000E+00 -0.49242964258E+01  0.49242964258E+01  0.00000000000E+00 0. -1.
          4    1    1    2  501    0 -0.19328291387E+01 -0.12726504800E+01 -0.10061299707E+01  0.25234431322E+01  0.00000000000E+00 0.  1.
         -4    1    1    2    0  501  0.19328291387E+01  0.12726504800E+01 -0.27357520814E+01  0.35832676672E+01  0.00000000000E+00 0. -1.
<mgrwt>
<rscale>  0 0.23141884E+01</rscale>
<asrwt>0</asrwt>
<pdfrwt beam="1">0</pdfrwt>
<pdfrwt beam="2">0</pdfrwt>
<totfact> 0.30578352E+12</totfact>
</mgrwt>
</event>
<event>
 4    2  0.1985873E+006  0.4624731E+01  0.7546771E-02  0.2171726E+00
         22   -1    0    0    0    0  0.00000000000E+00  0.00000000000E+00  0.12484757453E+02  0.12484757453E+02  0.00000000000E+00 0. -1.
         22   -1    0    0    0    0 -0.00000000000E+00 -0.00000000000E+00 -0.14659780013E+02  0.14659780013E+02  0.00000000000E+00 0.  1.
          4    1    1    2  501    0  0.41393390684E+01  0.20625254972E+01  0.11667100877E+02  0.12550274189E+02  0.00000000000E+00 0. -1.
         -4    1    1    2    0  501 -0.41393390684E+01 -0.20625254972E+01 -0.13842123437E+02  0.14594263277E+02  0.00000000000E+00 0.  1.
<mgrwt>
<rscale>  0 0.46247313E+01</rscale>
<asrwt>0</asrwt>
<pdfrwt beam="1">0</pdfrwt>
<pdfrwt beam="2">0</pdfrwt>
<totfact> 0.51141861E+10</totfact>
</mgrwt>
</event>
<event>
 4    2  0.1985873E+006  0.2914221E+01  0.7546771E-02  0.2550002E+00
         22   -1    0    0    0    0  0.00000000000E+00  0.00000000000E+00  0.54157914539E+01  0.54157914539E+01  0.00000000000E+00 0.  1.
         22   -1    0    0    0    0 -0.00000000000E+00 -0.00000000000E+00 -0.18697732754E+01  0.18697732754E+01  0.00000000000E+00 0. -1.
          4    1    1    2  501    0  0.29050491468E+01 -0.23103035437E+00  0.32361388633E+01  0.43549145011E+01  0.00000000000E+00 0.  1.
         -4    1    1    2    0  501 -0.29050491468E+01  0.23103035437E+00  0.30987931520E+00  0.29306502282E+01  0.00000000000E+00 0. -1.
<mgrwt>
<rscale>  0 0.29142213E+01</rscale>
<asrwt>0</asrwt>
<pdfrwt beam="1">0</pdfrwt>
<pdfrwt beam="2">0</pdfrwt>
<totfact> 0.16124832E+12</totfact>
</mgrwt>
</event>
<event>
 4    2  0.1985873E+006  0.2494366E+01  0.7546771E-02  0.2711019E+00
         22   -1    0    0    0    0  0.00000000000E+00  0.00000000000E+00  0.34353951209E+01  0.34353951209E+01  0.00000000000E+00 0.  1.
         22   -1    0    0    0    0 -0.00000000000E+00 -0.00000000000E+00 -0.18442304088E+01  0.18442304088E+01  0.00000000000E+00 0. -1.
          4    1    1    2  501    0 -0.21115037552E+00 -0.24854130011E+01  0.44179339683E+00  0.25331884400E+01  0.00000000000E+00 0. -1.
         -4    1    1    2    0  501  0.21115037552E+00  0.24854130011E+01  0.11493713152E+01  0.27464370897E+01  0.00000000000E+00 0.  1.
<mgrwt>
<rscale>  0 0.24943661E+01</rscale>
<asrwt>0</asrwt>
<pdfrwt beam="1">0</pdfrwt>
<pdfrwt beam="2">0</pdfrwt>
<totfact> 0.28022499E+12</totfact>
</mgrwt>
</event>
<event>
 4    2  0.1985873E+006  0.2602241E+01  0.7546771E-02  0.2665102E+00
         22   -1    0    0    0    0  0.00000000000E+00  0.00000000000E+00  0.67144762043E+00  0.67144762043E+00  0.00000000000E+00 0.  1.
         22   -1    0    0    0    0 -0.00000000000E+00 -0.00000000000E+00 -0.10750474426E+02  0.10750474426E+02  0.00000000000E+00 0. -1.
          4    1    1    2  501    0 -0.21825160674E+01  0.14171377652E+01 -0.36187908778E+01  0.44572753165E+01  0.00000000000E+00 0. -1.
         -4    1    1    2    0  501  0.21825160674E+01 -0.14171377652E+01 -0.64602359277E+01  0.69646467299E+01  0.00000000000E+00 0.  1.
<mgrwt>
<rscale>  0 0.26022405E+01</rscale>
<asrwt>0</asrwt>
<pdfrwt beam="1">0</pdfrwt>
<pdfrwt beam="2">0</pdfrwt>
<totfact> 0.22871344E+12</totfact>
</mgrwt>
</event>
<event>
 4    2  0.1985873E+006  0.4019325E+01  0.7546771E-02  0.2273616E+00
         22   -1    0    0    0    0  0.00000000000E+00  0.00000000000E+00  0.56265983269E+01  0.56265983269E+01  0.00000000000E+00 0.  1.
         22   -1    0    0    0    0 -0.00000000000E+00 -0.00000000000E+00 -0.33169770621E+01  0.33169770621E+01  0.00000000000E+00 0. -1.
          4    1    1    2  501    0  0.30784046900E+01  0.25842600685E+01  0.27941868634E+01  0.48951461434E+01  0.00000000000E+00 0.  1.
         -4    1    1    2    0  501 -0.30784046900E+01 -0.25842600685E+01 -0.48456559858E+00  0.40484292456E+01  0.00000000000E+00 0. -1.
<mgrwt>
<rscale>  0 0.40193253E+01</rscale>
<asrwt>0</asrwt>
<pdfrwt beam="1">0</pdfrwt>
<pdfrwt beam="2">0</pdfrwt>
<totfact> 0.79108678E+11</totfact>
</mgrwt>
</event>
<event>
 4    2  0.1985873E+006  0.2297615E+01  0.7546771E-02  0.2805090E+00
         22   -1    0    0    0    0  0.00000000000E+00  0.00000000000E+00  0.49896490503E+00  0.49896490503E+00  0.00000000000E+00 0. -1.
         22   -1    0    0    0    0 -0.00000000000E+00 -0.00000000000E+00 -0.15988322857E+02  0.15988322857E+02  0.00000000000E+00 0.  1.
          4    1    1    2  501    0  0.17859522724E+01 -0.14454792880E+01 -0.29501041300E+01  0.37392713554E+01  0.00000000000E+00 0. -1.
         -4    1    1    2    0  501 -0.17859522724E+01  0.14454792880E+01 -0.12539253822E+02  0.12748016406E+02  0.00000000000E+00 0.  1.
<mgrwt>
<rscale>  0 0.22976153E+01</rscale>
<asrwt>0</asrwt>
<pdfrwt beam="1">0</pdfrwt>
<pdfrwt beam="2">0</pdfrwt>
<totfact> 0.19690322E+12</totfact>
</mgrwt>
</event>
<event>
 4    2  0.1985873E+006  0.2034237E+01  0.7546771E-02  0.2957991E+00
         22   -1    0    0    0    0  0.00000000000E+00  0.00000000000E+00  0.46374270824E+00  0.46374270824E+00  0.00000000000E+00 0.  1.
         22   -1    0    0    0    0 -0.00000000000E+00 -0.00000000000E+00 -0.90084001695E+01  0.90084001695E+01  0.00000000000E+00 0. -1.
          4    1    1    2  501    0 -0.16276432131E+01  0.12202032667E+01 -0.38120272372E+01  0.43208413646E+01  0.00000000000E+00 0.  1.
         -4    1    1    2    0  501  0.16276432131E+01 -0.12202032667E+01 -0.47326302241E+01  0.51513015131E+01  0.00000000000E+00 0. -1.
<mgrwt>
<rscale>  0 0.20342366E+01</rscale>
<asrwt>0</asrwt>
<pdfrwt beam="1">0</pdfrwt>
<pdfrwt beam="2">0</pdfrwt>
<totfact> 0.43051055E+12</totfact>
</mgrwt>
</event>
<event>
 4    2  0.1985873E+006  0.2563952E+01  0.7546771E-02  0.2680990E+00
         22   -1    0    0    0    0  0.00000000000E+00  0.00000000000E+00  0.10052996414E+01  0.10052996414E+01  0.00000000000E+00 0. -1.
         22   -1    0    0    0    0 -0.00000000000E+00 -0.00000000000E+00 -0.11213655701E+02  0.11213655701E+02  0.00000000000E+00 0.  1.
          4    1    1    2  501    0 -0.84782734191E+00  0.24197190618E+01 -0.11596397377E+01  0.28140035289E+01  0.00000000000E+00 0. -1.
         -4    1    1    2    0  501  0.84782734191E+00 -0.24197190618E+01 -0.90487163223E+01  0.94049518139E+01  0.00000000000E+00 0.  1.
<mgrwt>
<rscale>  0 0.25639523E+01</rscale>
<asrwt>0</asrwt>
<pdfrwt beam="1">0</pdfrwt>
<pdfrwt beam="2">0</pdfrwt>
<totfact> 0.13725638E+12</totfact>
</mgrwt>
</event>
<event>
 4    2  0.1985873E+006  0.2022455E+01  0.7546771E-02  0.2965731E+00
         22   -1    0    0    0    0  0.00000000000E+00  0.00000000000E+00  0.32730173801E+01  0.32730173801E+01  0.00000000000E+00 0.  1.
         22   -1    0    0    0    0 -0.00000000000E+00 -0.00000000000E+00 -0.16160557338E+01  0.16160557338E+01  0.00000000000E+00 0. -1.
          4    1    1    2  501    0  0.12223847197E+01  0.16112412344E+01  0.19923761053E+01  0.28389937062E+01  0.00000000000E+00 0.  1.
         -4    1    1    2    0  501 -0.12223847197E+01 -0.16112412344E+01 -0.33541445902E+00  0.20500794077E+01  0.00000000000E+00 0. -1.
<mgrwt>
<rscale>  0 0.20224546E+01</rscale>
<asrwt>0</asrwt>
<pdfrwt beam="1">0</pdfrwt>
<pdfrwt beam="2">0</pdfrwt>
<totfact> 0.34537320E+12</totfact>
</mgrwt>
</event>
<event>
 4    2  0.1985873E+006  0.4006190E+01  0.7546771E-02  0.2276113E+00
         22   -1    0    0    0    0  0.00000000000E+00  0.00000000000E+00  0.99388835246E+00  0.99388835246E+00  0.00000000000E+00 0. -1.
         22   -1    0    0    0    0 -0.00000000000E+00 -0.00000000000E+00 -0.20842774592E+02  0.20842774592E+02  0.00000000000E+00 0.  1.
          4    1    1    2  501    0 -0.20549509540E+01  0.34390017808E+01 -0.47427181172E+01  0.62082954030E+01  0.00000000000E+00 0.  1.
         -4    1    1    2    0  501  0.20549509540E+01 -0.34390017808E+01 -0.15106168122E+02  0.15628367542E+02  0.00000000000E+00 0. -1.
<mgrwt>
<rscale>  0 0.40061898E+01</rscale>
<asrwt>0</asrwt>
<pdfrwt beam="1">0</pdfrwt>
<pdfrwt beam="2">0</pdfrwt>
<totfact> 0.64794068E+11</totfact>
</mgrwt>
</event>
<event>
 4    2  0.1985873E+006  0.2036892E+01  0.7546771E-02  0.2956259E+00
         22   -1    0    0    0    0  0.00000000000E+00  0.00000000000E+00  0.12191434532E+00  0.12191434532E+00  0.00000000000E+00 0. -1.
         22   -1    0    0    0    0 -0.00000000000E+00 -0.00000000000E+00 -0.39219396102E+02  0.39219396102E+02  0.00000000000E+00 0.  1.
          4    1    1    2  501    0  0.18577297153E+01  0.83532489902E+00 -0.12394488822E+02  0.12560743630E+02  0.00000000000E+00 0.  1.
         -4    1    1    2    0  501 -0.18577297153E+01 -0.83532489902E+00 -0.26702992934E+02  0.26780566817E+02  0.00000000000E+00 0. -1.
<mgrwt>
<rscale>  0 0.20368916E+01</rscale>
<asrwt>0</asrwt>
<pdfrwt beam="1">0</pdfrwt>
<pdfrwt beam="2">0</pdfrwt>
<totfact> 0.30677585E+12</totfact>
</mgrwt>
</event>
<event>
 4    2  0.1985873E+006  0.2131429E+01  0.7546771E-02  0.2897328E+00
         22   -1    0    0    0    0  0.00000000000E+00  0.00000000000E+00  0.31777730566E+01  0.31777730566E+01  0.00000000000E+00 0.  1.
         22   -1    0    0    0    0 -0.00000000000E+00 -0.00000000000E+00 -0.17011422177E+01  0.17011422177E+01  0.00000000000E+00 0. -1.
          4    1    1    2  501    0  0.20881299066E+01 -0.42743845874E+00 -0.23629293211E+00  0.21444869998E+01  0.00000000000E+00 0. -1.
         -4    1    1    2    0  501 -0.20881299066E+01  0.42743845874E+00  0.17129237711E+01  0.27344282745E+01  0.00000000000E+00 0.  1.
<mgrwt>
<rscale>  0 0.21314291E+01</rscale>
<asrwt>0</asrwt>
<pdfrwt beam="1">0</pdfrwt>
<pdfrwt beam="2">0</pdfrwt>
<totfact> 0.33699192E+12</totfact>
</mgrwt>
</event>
<event>
 4    2  0.1985873E+006  0.4089577E+01  0.7546771E-02  0.2260492E+00
         22   -1    0    0    0    0  0.00000000000E+00  0.00000000000E+00  0.22686854590E+02  0.22686854590E+02  0.00000000000E+00 0.  1.
         22   -1    0    0    0    0 -0.00000000000E+00 -0.00000000000E+00 -0.93328944132E+00  0.93328944132E+00  0.00000000000E+00 0. -1.
          4    1    1    2  501    0  0.34568669207E+01  0.21851110926E+01  0.16290266282E+02  0.16795755861E+02  0.00000000000E+00 0.  1.
         -4    1    1    2    0  501 -0.34568669207E+01 -0.21851110926E+01  0.54632988658E+01  0.68243881697E+01  0.00000000000E+00 0. -1.
<mgrwt>
<rscale>  0 0.40895769E+01</rscale>
<asrwt>0</asrwt>
<pdfrwt beam="1">0</pdfrwt>
<pdfrwt beam="2">0</pdfrwt>
<totfact> 0.62605201E+11</totfact>
</mgrwt>
</event>
<event>
 4    2  0.1985873E+006  0.2132380E+01  0.7546771E-02  0.2896761E+00
         22   -1    0    0    0    0  0.00000000000E+00  0.00000000000E+00  0.23813170044E+00  0.23813170044E+00  0.00000000000E+00 0. -1.
         22   -1    0    0    0    0 -0.00000000000E+00 -0.00000000000E+00 -0.19126012995E+02  0.19126012995E+02  0.00000000000E+00 0.  1.
          4    1    1    2  501    0 -0.15987686021E+01 -0.14110226587E+01 -0.90519879790E+01  0.92997598011E+01  0.00000000000E+00 0. -1.
         -4    1    1    2    0  501  0.15987686021E+01  0.14110226587E+01 -0.98358933158E+01  0.10064384895E+02  0.00000000000E+00 0.  1.
<mgrwt>
<rscale>  0 0.21323804E+01</rscale>
<asrwt>0</asrwt>
<pdfrwt beam="1">0</pdfrwt>
<pdfrwt beam="2">0</pdfrwt>
<totfact> 0.36199632E+12</totfact>
</mgrwt>
</event>
<event>
 4    2  0.1985873E+006  0.2199030E+01  0.7546771E-02  0.2858197E+00
         22   -1    0    0    0    0  0.00000000000E+00  0.00000000000E+00  0.74923923432E+00  0.74923923432E+00  0.00000000000E+00 0.  1.
         22   -1    0    0    0    0 -0.00000000000E+00 -0.00000000000E+00 -0.76706895075E+01  0.76706895075E+01  0.00000000000E+00 0. -1.
          4    1    1    2  501    0  0.43653975861E+00  0.21552650829E+01 -0.17841745133E+01  0.28317862265E+01  0.00000000000E+00 0.  1.
         -4    1    1    2    0  501 -0.43653975861E+00 -0.21552650829E+01 -0.51372757599E+01  0.55881425154E+01  0.00000000000E+00 0. -1.
<mgrwt>
<rscale>  0 0.21990304E+01</rscale>
<asrwt>0</asrwt>
<pdfrwt beam="1">0</pdfrwt>
<pdfrwt beam="2">0</pdfrwt>
<totfact> 0.30347619E+12</totfact>
</mgrwt>
</event>
<event>
 4    2  0.1985873E+006  0.5101985E+01  0.7546771E-02  0.2111024E+00
         22   -1    0    0    0    0  0.00000000000E+00  0.00000000000E+00  0.11646074555E+02  0.11646074555E+02  0.00000000000E+00 0. -1.
         22   -1    0    0    0    0 -0.00000000000E+00 -0.00000000000E+00 -0.37059837656E+01  0.37059837656E+01  0.00000000000E+00 0.  1.
          4    1    1    2  501    0 -0.14472047257E+01  0.48924282589E+01  0.88058927614E+01  0.10177131379E+02  0.00000000000E+00 0. -1.
         -4    1    1    2    0  501  0.14472047257E+01 -0.48924282589E+01 -0.86580197243E+00  0.51749269408E+01  0.00000000000E+00 0.  1.
<mgrwt>
<rscale>  0 0.51019855E+01</rscale>
<asrwt>0</asrwt>
<pdfrwt beam="1">0</pdfrwt>
<pdfrwt beam="2">0</pdfrwt>
<totfact> 0.28967459E+11</totfact>
</mgrwt>
</event>
<event>
 4    2  0.1985873E+006  0.2048938E+01  0.7546771E-02  0.2948456E+00
         22   -1    0    0    0    0  0.00000000000E+00  0.00000000000E+00  0.12451841534E+01  0.12451841534E+01  0.00000000000E+00 0.  1.
         22   -1    0    0    0    0 -0.00000000000E+00 -0.00000000000E+00 -0.34414401118E+01  0.34414401118E+01  0.00000000000E+00 0. -1.
          4    1    1    2  501    0  0.13085995334E+01 -0.15766144429E+01 -0.76408328794E+00  0.21867713898E+01  0.00000000000E+00 0.  1.
         -4    1    1    2    0  501 -0.13085995334E+01  0.15766144429E+01 -0.14321726704E+01  0.24998528753E+01  0.00000000000E+00 0. -1.
<mgrwt>
<rscale>  0 0.20489377E+01</rscale>
<asrwt>0</asrwt>
<pdfrwt beam="1">0</pdfrwt>
<pdfrwt beam="2">0</pdfrwt>
<totfact> 0.43944316E+12</totfact>
</mgrwt>
</event>
<event>
 4    2  0.1985873E+006  0.3040688E+01  0.7546771E-02  0.2509476E+00
         22   -1    0    0    0    0  0.00000000000E+00  0.00000000000E+00  0.22013504343E+02  0.22013504343E+02  0.00000000000E+00 0.  1.
         22   -1    0    0    0    0 -0.00000000000E+00 -0.00000000000E+00 -0.73139137493E+00  0.73139137493E+00  0.00000000000E+00 0. -1.
          4    1    1    2  501    0 -0.23609074341E+01 -0.19162208218E+01  0.18061480202E+02  0.18315645041E+02  0.00000000000E+00 0.  1.
         -4    1    1    2    0  501  0.23609074341E+01  0.19162208218E+01  0.32206327651E+01  0.44292506768E+01  0.00000000000E+00 0. -1.
<mgrwt>
<rscale>  0 0.30406884E+01</rscale>
<asrwt>0</asrwt>
<pdfrwt beam="1">0</pdfrwt>
<pdfrwt beam="2">0</pdfrwt>
<totfact> 0.85805431E+11</totfact>
</mgrwt>
</event>
<event>
 4    2  0.1985873E+006  0.2134864E+01  0.7546771E-02  0.2895282E+00
         22   -1    0    0    0    0  0.00000000000E+00  0.00000000000E+00  0.47562904346E+01  0.47562904346E+01  0.00000000000E+00 0. -1.
         22   -1    0    0    0    0 -0.00000000000E+00 -0.00000000000E+00 -0.12369851742E+01  0.12369851742E+01  0.00000000000E+00 0.  1.
          4    1    1    2  501    0 -0.20805190044E+01  0.47862916261E+00  0.31821758947E+01  0.38319562404E+01  0.00000000000E+00 0. -1.
         -4    1    1    2    0  501  0.20805190044E+01 -0.47862916261E+00  0.33712936568E+00  0.21613193684E+01  0.00000000000E+00 0.  1.
<mgrwt>
<rscale>  0 0.21348642E+01</rscale>
<asrwt>0</asrwt>
<pdfrwt beam="1">0</pdfrwt>
<pdfrwt beam="2">0</pdfrwt>
<totfact> 0.30253746E+12</totfact>
</mgrwt>
</event>
<event>
 4    2  0.1985873E+006  0.2761840E+01  0.7546771E-02  0.2603258E+00
         22   -1    0    0    0    0  0.00000000000E+00  0.00000000000E+00  0.12601247651E+02  0.12601247651E+02  0.00000000000E+00 0.  1.
         22   -1    0    0    0    0 -0.00000000000E+00 -0.00000000000E+00 -0.11608908103E+01  0.11608908103E+01  0.00000000000E+00 0. -1.
          4    1    1    2  501    0  0.14981264826E+01 -0.23202107888E+01  0.10480439386E+02  0.10838236517E+02  0.00000000000E+00 0.  1.
         -4    1    1    2    0  501 -0.14981264826E+01  0.23202107888E+01  0.95991745447E+00  0.29239019446E+01  0.00000000000E+00 0. -1.
<mgrwt>
<rscale>  0 0.27618402E+01</rscale>
<asrwt>0</asrwt>
<pdfrwt beam="1">0</pdfrwt>
<pdfrwt beam="2">0</pdfrwt>
<totfact> 0.10099835E+12</totfact>
</mgrwt>
</event>
<event>
 4    2  0.1985873E+006  0.2435714E+01  0.7546771E-02  0.2737569E+00
         22   -1    0    0    0    0  0.00000000000E+00  0.00000000000E+00  0.39244991212E+02  0.39244991212E+02  0.00000000000E+00 0.  1.
         22   -1    0    0    0    0 -0.00000000000E+00 -0.00000000000E+00 -0.15138523711E+00  0.15138523711E+00  0.00000000000E+00 0. -1.
          4    1    1    2  501    0  0.18222578531E+01  0.16161922151E+01  0.20287985239E+02  0.20433674315E+02  0.00000000000E+00 0. -1.
         -4    1    1    2    0  501 -0.18222578531E+01 -0.16161922151E+01  0.18805620736E+02  0.18962702134E+02  0.00000000000E+00 0.  1.
<mgrwt>
<rscale>  0 0.24357136E+01</rscale>
<asrwt>0</asrwt>
<pdfrwt beam="1">0</pdfrwt>
<pdfrwt beam="2">0</pdfrwt>
<totfact> 0.24102688E+12</totfact>
</mgrwt>
</event>
<event>
 4    2  0.1985873E+006  0.2322800E+01  0.7546771E-02  0.2792211E+00
         22   -1    0    0    0    0  0.00000000000E+00  0.00000000000E+00  0.29603835976E+00  0.29603835976E+00  0.00000000000E+00 0.  1.
         22   -1    0    0    0    0 -0.00000000000E+00 -0.00000000000E+00 -0.25020323582E+02  0.25020323582E+02  0.00000000000E+00 0. -1.
          4    1    1    2  501    0 -0.30966140695E-01  0.23225938980E+01 -0.57655619518E+01  0.62158753155E+01  0.00000000000E+00 0.  1.
         -4    1    1    2    0  501  0.30966140695E-01 -0.23225938980E+01 -0.18958723271E+02  0.19100486626E+02  0.00000000000E+00 0. -1.
<mgrwt>
<rscale>  0 0.23228003E+01</rscale>
<asrwt>0</asrwt>
<pdfrwt beam="1">0</pdfrwt>
<pdfrwt beam="2">0</pdfrwt>
<totfact> 0.20265142E+12</totfact>
</mgrwt>
</event>
<event>
 4    2  0.1985873E+006  0.2719908E+01  0.7546771E-02  0.2618862E+00
         22   -1    0    0    0    0  0.00000000000E+00  0.00000000000E+00  0.98152361561E+00  0.98152361561E+00  0.00000000000E+00 0.  1.
         22   -1    0    0    0    0 -0.00000000000E+00 -0.00000000000E+00 -0.79221404817E+01  0.79221404817E+01  0.00000000000E+00 0. -1.
          4    1    1    2  501    0 -0.27198504740E+01 -0.17668523424E-01 -0.24889269316E+01  0.36868219442E+01  0.00000000000E+00 0.  1.
         -4    1    1    2    0  501  0.27198504740E+01  0.17668523424E-01 -0.44516899345E+01  0.52168421531E+01  0.00000000000E+00 0. -1.
<mgrwt>
<rscale>  0 0.27199079E+01</rscale>
<asrwt>0</asrwt>
<pdfrwt beam="1">0</pdfrwt>
<pdfrwt beam="2">0</pdfrwt>
<totfact> 0.21466275E+12</totfact>
</mgrwt>
</event>
<event>
 4    2  0.1985873E+006  0.2311936E+01  0.7546771E-02  0.2797734E+00
         22   -1    0    0    0    0  0.00000000000E+00  0.00000000000E+00  0.25936284018E+00  0.25936284018E+00  0.00000000000E+00 0. -1.
         22   -1    0    0    0    0 -0.00000000000E+00 -0.00000000000E+00 -0.20686843461E+02  0.20686843461E+02  0.00000000000E+00 0.  1.
          4    1    1    2  501    0 -0.20107080163E+01  0.11410967163E+01 -0.95687444419E+01  0.98440803856E+01  0.00000000000E+00 0.  1.
         -4    1    1    2    0  501  0.20107080163E+01 -0.11410967163E+01 -0.10858736179E+02  0.11102125915E+02  0.00000000000E+00 0. -1.
<mgrwt>
<rscale>  0 0.23119361E+01</rscale>
<asrwt>0</asrwt>
<pdfrwt beam="1">0</pdfrwt>
<pdfrwt beam="2">0</pdfrwt>
<totfact> 0.29837325E+12</totfact>
</mgrwt>
</event>
<event>
 4    2  0.1985873E+006  0.2161546E+01  0.7546771E-02  0.2879604E+00
         22   -1    0    0    0    0  0.00000000000E+00  0.00000000000E+00  0.24352608588E+01  0.24352608588E+01  0.00000000000E+00 0. -1.
         22   -1    0    0    0    0 -0.00000000000E+00 -0.00000000000E+00 -0.25978318672E+01  0.25978318672E+01  0.00000000000E+00 0.  1.
          4    1    1    2  501    0  0.59753664556E+00 -0.20773134257E+01  0.12055107982E+01  0.24749823022E+01  0.00000000000E+00 0.  1.
         -4    1    1    2    0  501 -0.59753664556E+00  0.20773134257E+01 -0.13680818066E+01  0.25581104239E+01  0.00000000000E+00 0. -1.
<mgrwt>
<rscale>  0 0.21615460E+01</rscale>
<asrwt>0</asrwt>
<pdfrwt beam="1">0</pdfrwt>
<pdfrwt beam="2">0</pdfrwt>
<totfact> 0.28140830E+12</totfact>
</mgrwt>
</event>
<event>
 4    2  0.1985873E+006  0.2229334E+01  0.7546771E-02  0.2841395E+00
         22   -1    0    0    0    0  0.00000000000E+00  0.00000000000E+00  0.51023989022E+02  0.51023989022E+02  0.00000000000E+00 0. -1.
         22   -1    0    0    0    0 -0.00000000000E+00 -0.00000000000E+00 -0.10825757978E+00  0.10825757978E+00  0.00000000000E+00 0.  1.
          4    1    1    2  501    0 -0.17942050003E+01 -0.13231625299E+01  0.33553038646E+02  0.33627017903E+02  0.00000000000E+00 0. -1.
         -4    1    1    2    0  501  0.17942050003E+01  0.13231625299E+01  0.17362692797E+02  0.17505228700E+02  0.00000000000E+00 0.  1.
<mgrwt>
<rscale>  0 0.22293341E+01</rscale>
<asrwt>0</asrwt>
<pdfrwt beam="1">0</pdfrwt>
<pdfrwt beam="2">0</pdfrwt>
<totfact> 0.24805873E+12</totfact>
</mgrwt>
</event>
<event>
 4    2  0.1985873E+006  0.2016444E+01  0.7546771E-02  0.2969713E+00
         22   -1    0    0    0    0  0.00000000000E+00  0.00000000000E+00  0.11730054659E+00  0.11730054659E+00  0.00000000000E+00 0.  1.
         22   -1    0    0    0    0 -0.00000000000E+00 -0.00000000000E+00 -0.64303820140E+02  0.64303820140E+02  0.00000000000E+00 0. -1.
          4    1    1    2  501    0  0.39258031707E+00 -0.19778594379E+01 -0.10224641079E+02  0.10421580133E+02  0.00000000000E+00 0.  1.
         -4    1    1    2    0  501 -0.39258031707E+00  0.19778594379E+01 -0.53961878515E+02  0.53999540554E+02  0.00000000000E+00 0. -1.
<mgrwt>
<rscale>  0 0.20164442E+01</rscale>
<asrwt>0</asrwt>
<pdfrwt beam="1">0</pdfrwt>
<pdfrwt beam="2">0</pdfrwt>
<totfact> 0.16670358E+12</totfact>
</mgrwt>
</event>
<event>
 4    2  0.1985873E+006  0.2774792E+01  0.7546771E-02  0.2598525E+00
         22   -1    0    0    0    0  0.00000000000E+00  0.00000000000E+00  0.19002684799E+01  0.19002684799E+01  0.00000000000E+00 0.  1.
         22   -1    0    0    0    0 -0.00000000000E+00 -0.00000000000E+00 -0.64226180779E+01  0.64226180779E+01  0.00000000000E+00 0. -1.
          4    1    1    2  501    0  0.27708389698E+01  0.14806134021E+00  0.26718474518E+00  0.27876259514E+01  0.00000000000E+00 0.  1.
         -4    1    1    2    0  501 -0.27708389698E+01 -0.14806134021E+00 -0.47895343432E+01  0.55352606065E+01  0.00000000000E+00 0. -1.
<mgrwt>
<rscale>  0 0.27747920E+01</rscale>
<asrwt>0</asrwt>
<pdfrwt beam="1">0</pdfrwt>
<pdfrwt beam="2">0</pdfrwt>
<totfact> 0.12920156E+12</totfact>
</mgrwt>
</event>
<event>
 4    2  0.1985873E+006  0.2949343E+01  0.7546771E-02  0.2538434E+00
         22   -1    0    0    0    0  0.00000000000E+00  0.00000000000E+00  0.17842759895E+01  0.17842759895E+01  0.00000000000E+00 0. -1.
         22   -1    0    0    0    0 -0.00000000000E+00 -0.00000000000E+00 -0.49904586929E+01  0.49904586929E+01  0.00000000000E+00 0.  1.
          4    1    1    2  501    0  0.30913991931E+00 -0.29330968313E+01 -0.21179772924E+01  0.36310401158E+01  0.00000000000E+00 0. -1.
         -4    1    1    2    0  501 -0.30913991931E+00  0.29330968313E+01 -0.10882054110E+01  0.31436945666E+01  0.00000000000E+00 0.  1.
<mgrwt>
<rscale>  0 0.29493431E+01</rscale>
<asrwt>0</asrwt>
<pdfrwt beam="1">0</pdfrwt>
<pdfrwt beam="2">0</pdfrwt>
<totfact> 0.18753514E+12</totfact>
</mgrwt>
</event>
<event>
 4    2  0.1985873E+006  0.4855748E+01  0.7546771E-02  0.2140626E+00
         22   -1    0    0    0    0  0.00000000000E+00  0.00000000000E+00  0.21244122558E+01  0.21244122558E+01  0.00000000000E+00 0. -1.
         22   -1    0    0    0    0 -0.00000000000E+00 -0.00000000000E+00 -0.13913840576E+02  0.13913840576E+02  0.00000000000E+00 0.  1.
          4    1    1    2  501    0  0.45995137403E+01 -0.15565219606E+01 -0.95017540285E+01  0.10670595901E+02  0.00000000000E+00 0.  1.
         -4    1    1    2    0  501 -0.45995137403E+01  0.15565219606E+01 -0.22876742911E+01  0.53676569305E+01  0.00000000000E+00 0. -1.
<mgrwt>
<rscale>  0 0.48557479E+01</rscale>
<asrwt>0</asrwt>
<pdfrwt beam="1">0</pdfrwt>
<pdfrwt beam="2">0</pdfrwt>
<totfact> 0.44602414E+11</totfact>
</mgrwt>
</event>
<event>
 4    2  0.1985873E+006  0.2095312E+01  0.7546771E-02  0.2919232E+00
         22   -1    0    0    0    0  0.00000000000E+00  0.00000000000E+00  0.13045220314E+01  0.13045220314E+01  0.00000000000E+00 0.  1.
         22   -1    0    0    0    0 -0.00000000000E+00 -0.00000000000E+00 -0.34706348459E+01  0.34706348459E+01  0.00000000000E+00 0. -1.
          4    1    1    2  501    0  0.12630774014E+01 -0.16718158162E+01 -0.66744839045E+00  0.21990497946E+01  0.00000000000E+00 0.  1.
         -4    1    1    2    0  501 -0.12630774014E+01  0.16718158162E+01 -0.14986644241E+01  0.25761070827E+01  0.00000000000E+00 0. -1.
<mgrwt>
<rscale>  0 0.20953121E+01</rscale>
<asrwt>0</asrwt>
<pdfrwt beam="1">0</pdfrwt>
<pdfrwt beam="2">0</pdfrwt>
<totfact> 0.41249389E+12</totfact>
</mgrwt>
</event>
<event>
 4    2  0.1985873E+006  0.2665241E+01  0.7546771E-02  0.2639878E+00
         22   -1    0    0    0    0  0.00000000000E+00  0.00000000000E+00  0.17644811912E+01  0.17644811912E+01  0.00000000000E+00 0. -1.
         22   -1    0    0    0    0 -0.00000000000E+00 -0.00000000000E+00 -0.65257805609E+01  0.65257805609E+01  0.00000000000E+00 0.  1.
          4    1    1    2  501    0 -0.17118276535E+01 -0.20428300609E+01  0.18494098202E+00  0.26716496289E+01  0.00000000000E+00 0.  1.
         -4    1    1    2    0  501  0.17118276535E+01  0.20428300609E+01 -0.49462403517E+01  0.56186121231E+01  0.00000000000E+00 0. -1.
<mgrwt>
<rscale>  0 0.26652408E+01</rscale>
<asrwt>0</asrwt>
<pdfrwt beam="1">0</pdfrwt>
<pdfrwt beam="2">0</pdfrwt>
<totfact> 0.13810410E+12</totfact>
</mgrwt>
</event>
<event>
 4    2  0.1985873E+006  0.3591441E+01  0.7546771E-02  0.2362931E+00
         22   -1    0    0    0    0  0.00000000000E+00  0.00000000000E+00  0.19178840075E+01  0.19178840075E+01  0.00000000000E+00 0.  1.
         22   -1    0    0    0    0 -0.00000000000E+00 -0.00000000000E+00 -0.77240836898E+01  0.77240836898E+01  0.00000000000E+00 0. -1.
          4    1    1    2  501    0  0.21159464179E+01  0.29019331632E+01 -0.11695490343E+01  0.37770743003E+01  0.00000000000E+00 0.  1.
         -4    1    1    2    0  501 -0.21159464179E+01 -0.29019331632E+01 -0.46366506480E+01  0.58648933970E+01  0.00000000000E+00 0. -1.
<mgrwt>
<rscale>  0 0.35914406E+01</rscale>
<asrwt>0</asrwt>
<pdfrwt beam="1">0</pdfrwt>
<pdfrwt beam="2">0</pdfrwt>
<totfact> 0.10250990E+12</totfact>
</mgrwt>
</event>
<event>
 4    2  0.1985873E+006  0.9683445E+01  0.7546771E-02  0.1792153E+00
         22   -1    0    0    0    0  0.00000000000E+00  0.00000000000E+00  0.73657592650E+02  0.73657592650E+02  0.00000000000E+00 0. -1.
         22   -1    0    0    0    0 -0.00000000000E+00 -0.00000000000E+00 -0.16589039211E+01  0.16589039211E+01  0.00000000000E+00 0.  1.
          4    1    1    2  501    0  0.88522329594E+01 -0.39251855359E+01  0.54161450810E+02  0.55020285929E+02  0.00000000000E+00 0. -1.
         -4    1    1    2    0  501 -0.88522329594E+01  0.39251855359E+01  0.17837237919E+02  0.20296210642E+02  0.00000000000E+00 0.  1.
<mgrwt>
<rscale>  0 0.96834451E+01</rscale>
<asrwt>0</asrwt>
<pdfrwt beam="1">0</pdfrwt>
<pdfrwt beam="2">0</pdfrwt>
<totfact> 0.69800466E+10</totfact>
</mgrwt>
</event>
<event>
 4    2  0.1985873E+006  0.2045566E+01  0.7546771E-02  0.2950631E+00
         22   -1    0    0    0    0  0.00000000000E+00  0.00000000000E+00  0.27987066121E+00  0.27987066121E+00  0.00000000000E+00 0. -1.
         22   -1    0    0    0    0 -0.00000000000E+00 -0.00000000000E+00 -0.25513733064E+02  0.25513733064E+02  0.00000000000E+00 0.  1.
          4    1    1    2  501    0 -0.45354653657E+00 -0.19946520852E+01 -0.43187381750E+01  0.47786860983E+01  0.00000000000E+00 0. -1.
         -4    1    1    2    0  501  0.45354653657E+00  0.19946520852E+01 -0.20915124228E+02  0.21014917627E+02  0.00000000000E+00 0.  1.
<mgrwt>
<rscale>  0 0.20455663E+01</rscale>
<asrwt>0</asrwt>
<pdfrwt beam="1">0</pdfrwt>
<pdfrwt beam="2">0</pdfrwt>
<totfact> 0.21054649E+12</totfact>
</mgrwt>
</event>
<event>
 4    2  0.1985873E+006  0.3184632E+01  0.7546771E-02  0.2466869E+00
         22   -1    0    0    0    0  0.00000000000E+00  0.00000000000E+00  0.92838768207E+01  0.92838768207E+01  0.00000000000E+00 0.  1.
         22   -1    0    0    0    0 -0.00000000000E+00 -0.00000000000E+00 -0.15160977842E+01  0.15160977842E+01  0.00000000000E+00 0. -1.
          4    1    1    2  501    0 -0.31453800996E+01 -0.49845991990E+00  0.67385060469E+01  0.74531430959E+01  0.00000000000E+00 0. -1.
         -4    1    1    2    0  501  0.31453800996E+01  0.49845991990E+00  0.10292729896E+01  0.33468315090E+01  0.00000000000E+00 0.  1.
<mgrwt>
<rscale>  0 0.31846316E+01</rscale>
<asrwt>0</asrwt>
<pdfrwt beam="1">0</pdfrwt>
<pdfrwt beam="2">0</pdfrwt>
<totfact> 0.10774125E+12</totfact>
</mgrwt>
</event>
<event>
 4    2  0.1985873E+006  0.2357548E+01  0.7546771E-02  0.2774871E+00
         22   -1    0    0    0    0  0.00000000000E+00  0.00000000000E+00  0.23169056346E+02  0.23169056346E+02  0.00000000000E+00 0. -1.
         22   -1    0    0    0    0 -0.00000000000E+00 -0.00000000000E+00 -0.28330459504E+00  0.28330459504E+00  0.00000000000E+00 0.  1.
          4    1    1    2  501    0  0.21883095279E+01  0.87711722435E+00  0.16033226425E+02  0.16205628122E+02  0.00000000000E+00 0. -1.
         -4    1    1    2    0  501 -0.21883095279E+01 -0.87711722435E+00  0.68525253250E+01  0.72467328186E+01  0.00000000000E+00 0.  1.
<mgrwt>
<rscale>  0 0.23575481E+01</rscale>
<asrwt>0</asrwt>
<pdfrwt beam="1">0</pdfrwt>
<pdfrwt beam="2">0</pdfrwt>
<totfact> 0.23451853E+12</totfact>
</mgrwt>
</event>
<event>
 4    2  0.1985873E+006  0.2604492E+01  0.7546771E-02  0.2664182E+00
         22   -1    0    0    0    0  0.00000000000E+00  0.00000000000E+00  0.18604590479E+01  0.18604590479E+01  0.00000000000E+00 0.  1.
         22   -1    0    0    0    0 -0.00000000000E+00 -0.00000000000E+00 -0.55998817778E+01  0.55998817778E+01  0.00000000000E+00 0. -1.
          4    1    1    2  501    0  0.24057966780E+01 -0.99775801253E+00  0.33361951956E+00  0.26257723989E+01  0.00000000000E+00 0.  1.
         -4    1    1    2    0  501 -0.24057966780E+01  0.99775801253E+00 -0.40730422494E+01  0.48345684267E+01  0.00000000000E+00 0. -1.
<mgrwt>
<rscale>  0 0.26044920E+01</rscale>
<asrwt>0</asrwt>
<pdfrwt beam="1">0</pdfrwt>
<pdfrwt beam="2">0</pdfrwt>
<totfact> 0.15586916E+12</totfact>
</mgrwt>
</event>
<event>
 4    2  0.1985873E+006  0.4620386E+01  0.7546771E-02  0.2172377E+00
         22   -1    0    0    0    0  0.00000000000E+00  0.00000000000E+00  0.25261902851E+01  0.25261902851E+01  0.00000000000E+00 0. -1.
         22   -1    0    0    0    0 -0.00000000000E+00 -0.00000000000E+00 -0.10695115314E+02  0.10695115314E+02  0.00000000000E+00 0.  1.
          4    1    1    2  501    0  0.37952054835E+01  0.26352193483E+01 -0.10561028123E+01  0.47395483778E+01  0.00000000000E+00 0. -1.
         -4    1    1    2    0  501 -0.37952054835E+01 -0.26352193483E+01 -0.71128222168E+01  0.84817572214E+01  0.00000000000E+00 0.  1.
<mgrwt>
<rscale>  0 0.46203859E+01</rscale>
<asrwt>0</asrwt>
<pdfrwt beam="1">0</pdfrwt>
<pdfrwt beam="2">0</pdfrwt>
<totfact> 0.50283411E+11</totfact>
</mgrwt>
</event>
<event>
 4    2  0.1985873E+006  0.2541476E+01  0.7546771E-02  0.2690522E+00
         22   -1    0    0    0    0  0.00000000000E+00  0.00000000000E+00  0.21793464348E+01  0.21793464348E+01  0.00000000000E+00 0. -1.
         22   -1    0    0    0    0 -0.00000000000E+00 -0.00000000000E+00 -0.32098798226E+01  0.32098798226E+01  0.00000000000E+00 0.  1.
          4    1    1    2  501    0  0.15409150548E+01  0.20210597319E+01  0.23085279831E+00  0.25519393920E+01  0.00000000000E+00 0.  1.
         -4    1    1    2    0  501 -0.15409150548E+01 -0.20210597319E+01 -0.12613861861E+01  0.28372868654E+01  0.00000000000E+00 0. -1.
<mgrwt>
<rscale>  0 0.25414763E+01</rscale>
<asrwt>0</asrwt>
<pdfrwt beam="1">0</pdfrwt>
<pdfrwt beam="2">0</pdfrwt>
<totfact> 0.25009731E+12</totfact>
</mgrwt>
</event>
<event>
 4    2  0.1985873E+006  0.3673628E+01  0.7546771E-02  0.2344389E+00
         22   -1    0    0    0    0  0.00000000000E+00  0.00000000000E+00  0.24194728637E+02  0.24194728637E+02  0.00000000000E+00 0.  1.
         22   -1    0    0    0    0 -0.00000000000E+00 -0.00000000000E+00 -0.57527384956E+00  0.57527384956E+00  0.00000000000E+00 0. -1.
          4    1    1    2  501    0 -0.24417618134E+01 -0.27446927947E+01  0.13968947807E+02  0.14443927517E+02  0.00000000000E+00 0.  1.
         -4    1    1    2    0  501  0.24417618134E+01  0.27446927947E+01  0.96505069801E+01  0.10326074969E+02  0.00000000000E+00 0. -1.
<mgrwt>
<rscale>  0 0.36736275E+01</rscale>
<asrwt>0</asrwt>
<pdfrwt beam="1">0</pdfrwt>
<pdfrwt beam="2">0</pdfrwt>
<totfact> 0.10004670E+12</totfact>
</mgrwt>
</event>
<event>
 4    2  0.1985873E+006  0.2562048E+01  0.7546771E-02  0.2681791E+00
         22   -1    0    0    0    0  0.00000000000E+00  0.00000000000E+00  0.17733572637E+02  0.17733572637E+02  0.00000000000E+00 0.  1.
         22   -1    0    0    0    0 -0.00000000000E+00 -0.00000000000E+00 -0.10757287719E+01  0.10757287719E+01  0.00000000000E+00 0. -1.
          4    1    1    2  501    0 -0.53895505818E+00 -0.25047191550E+01  0.15945569841E+02  0.16150086320E+02  0.00000000000E+00 0.  1.
         -4    1    1    2    0  501  0.53895505818E+00  0.25047191550E+01  0.71227402380E+00  0.26592150882E+01  0.00000000000E+00 0. -1.
<mgrwt>
<rscale>  0 0.25620481E+01</rscale>
<asrwt>0</asrwt>
<pdfrwt beam="1">0</pdfrwt>
<pdfrwt beam="2">0</pdfrwt>
<totfact> 0.72373380E+11</totfact>
</mgrwt>
</event>
<event>
 4    2  0.1985873E+006  0.3203363E+01  0.7546771E-02  0.2461575E+00
         22   -1    0    0    0    0  0.00000000000E+00  0.00000000000E+00  0.12208234187E+02  0.12208234187E+02  0.00000000000E+00 0.  1.
         22   -1    0    0    0    0 -0.00000000000E+00 -0.00000000000E+00 -0.11343298661E+01  0.11343298661E+01  0.00000000000E+00 0. -1.
          4    1    1    2  501    0  0.14271417987E+01 -0.28678918697E+01  0.89320813768E+01  0.94891314256E+01  0.00000000000E+00 0.  1.
         -4    1    1    2    0  501 -0.14271417987E+01  0.28678918697E+01  0.21418229438E+01  0.38534326272E+01  0.00000000000E+00 0. -1.
<mgrwt>
<rscale>  0 0.32033635E+01</rscale>
<asrwt>0</asrwt>
<pdfrwt beam="1">0</pdfrwt>
<pdfrwt beam="2">0</pdfrwt>
<totfact> 0.10780203E+12</totfact>
</mgrwt>
</event>
<event>
 4    2  0.1985873E+006  0.2616112E+01  0.7546771E-02  0.2659452E+00
         22   -1    0    0    0    0  0.00000000000E+00  0.00000000000E+00  0.39512052381E+01  0.39512052381E+01  0.00000000000E+00 0.  1.
         22   -1    0    0    0    0 -0.00000000000E+00 -0.00000000000E+00 -0.18710941030E+01  0.18710941030E+01  0.00000000000E+00 0. -1.
          4    1    1    2  501    0  0.25904541462E+01 -0.36550088647E+00  0.18333807566E+01  0.31945779972E+01  0.00000000000E+00 0.  1.
         -4    1    1    2    0  501 -0.25904541462E+01  0.36550088647E+00  0.24673037840E+00  0.26277213439E+01  0.00000000000E+00 0. -1.
<mgrwt>
<rscale>  0 0.26161123E+01</rscale>
<asrwt>0</asrwt>
<pdfrwt beam="1">0</pdfrwt>
<pdfrwt beam="2">0</pdfrwt>
<totfact> 0.23383800E+12</totfact>
</mgrwt>
</event>
<event>
 4    2  0.1985873E+006  0.2836998E+01  0.7546771E-02  0.2576343E+00
         22   -1    0    0    0    0  0.00000000000E+00  0.00000000000E+00  0.22429770644E+02  0.22429770644E+02  0.00000000000E+00 0.  1.
         22   -1    0    0    0    0 -0.00000000000E+00 -0.00000000000E+00 -0.51987998997E+00  0.51987998997E+00  0.00000000000E+00 0. -1.
          4    1    1    2  501    0  0.90541197219E+00  0.26886400884E+01  0.17341549022E+02  0.17572076680E+02  0.00000000000E+00 0.  1.
         -4    1    1    2    0  501 -0.90541197219E+00 -0.26886400884E+01  0.45683416324E+01  0.53775739544E+01  0.00000000000E+00 0. -1.
<mgrwt>
<rscale>  0 0.28369978E+01</rscale>
<asrwt>0</asrwt>
<pdfrwt beam="1">0</pdfrwt>
<pdfrwt beam="2">0</pdfrwt>
<totfact> 0.12338351E+12</totfact>
</mgrwt>
</event>
<event>
 4    2  0.1985873E+006  0.2030325E+01  0.7546771E-02  0.2960551E+00
         22   -1    0    0    0    0  0.00000000000E+00  0.00000000000E+00  0.95768509693E+01  0.95768509693E+01  0.00000000000E+00 0. -1.
         22   -1    0    0    0    0 -0.00000000000E+00 -0.00000000000E+00 -0.45914770831E+01  0.45914770831E+01  0.00000000000E+00 0.  1.
          4    1    1    2  501    0  0.20208746425E+01 -0.19566939465E+00  0.92366223632E+01  0.94571355871E+01  0.00000000000E+00 0. -1.
         -4    1    1    2    0  501 -0.20208746425E+01  0.19566939465E+00 -0.42512484770E+01  0.47111924654E+01  0.00000000000E+00 0.  1.
<mgrwt>
<rscale>  0 0.20303253E+01</rscale>
<asrwt>0</asrwt>
<pdfrwt beam="1">0</pdfrwt>
<pdfrwt beam="2">0</pdfrwt>
<totfact> 0.28533247E+11</totfact>
</mgrwt>
</event>
<event>
 4    2  0.1985873E+006  0.2407154E+01  0.7546771E-02  0.2750934E+00
         22   -1    0    0    0    0  0.00000000000E+00  0.00000000000E+00  0.22160867652E+02  0.22160867652E+02  0.00000000000E+00 0. -1.
         22   -1    0    0    0    0 -0.00000000000E+00 -0.00000000000E+00 -0.33104763738E+00  0.33104763738E+00  0.00000000000E+00 0.  1.
          4    1    1    2  501    0  0.14905915955E+01 -0.18901125928E+01  0.16070612960E+02  0.16249891994E+02  0.00000000000E+00 0.  1.
         -4    1    1    2    0  501 -0.14905915955E+01  0.18901125928E+01  0.57592070554E+01  0.62420232958E+01  0.00000000000E+00 0. -1.
<mgrwt>
<rscale>  0 0.24071537E+01</rscale>
<asrwt>0</asrwt>
<pdfrwt beam="1">0</pdfrwt>
<pdfrwt beam="2">0</pdfrwt>
<totfact> 0.20824158E+12</totfact>
</mgrwt>
</event>
<event>
 4    2  0.1985873E+006  0.4492613E+01  0.7546771E-02  0.2191983E+00
         22   -1    0    0    0    0  0.00000000000E+00  0.00000000000E+00  0.29396872585E+02  0.29396872585E+02  0.00000000000E+00 0. -1.
         22   -1    0    0    0    0 -0.00000000000E+00 -0.00000000000E+00 -0.87020718990E+00  0.87020718990E+00  0.00000000000E+00 0.  1.
          4    1    1    2  501    0  0.39030087038E+01 -0.22248808768E+01  0.73116980005E+01  0.85816373443E+01  0.00000000000E+00 0.  1.
         -4    1    1    2    0  501 -0.39030087038E+01  0.22248808768E+01  0.21214967394E+02  0.21685442430E+02  0.00000000000E+00 0. -1.
<mgrwt>
<rscale>  0 0.44926130E+01</rscale>
<asrwt>0</asrwt>
<pdfrwt beam="1">0</pdfrwt>
<pdfrwt beam="2">0</pdfrwt>
<totfact> 0.48871653E+11</totfact>
</mgrwt>
</event>
<event>
 4    2  0.1985873E+006  0.2047663E+01  0.7546771E-02  0.2949278E+00
         22   -1    0    0    0    0  0.00000000000E+00  0.00000000000E+00  0.41798252518E+01  0.41798252518E+01  0.00000000000E+00 0. -1.
         22   -1    0    0    0    0 -0.00000000000E+00 -0.00000000000E+00 -0.26071278554E+01  0.26071278554E+01  0.00000000000E+00 0.  1.
          4    1    1    2  501    0  0.63078276479E+00 -0.19480852714E+01  0.34480854018E+01  0.40102638391E+01  0.00000000000E+00 0. -1.
         -4    1    1    2    0  501 -0.63078276479E+00  0.19480852714E+01 -0.18753880053E+01  0.27766892681E+01  0.00000000000E+00 0.  1.
<mgrwt>
<rscale>  0 0.20476628E+01</rscale>
<asrwt>0</asrwt>
<pdfrwt beam="1">0</pdfrwt>
<pdfrwt beam="2">0</pdfrwt>
<totfact> 0.14893687E+12</totfact>
</mgrwt>
</event>
<event>
 4    2  0.1985873E+006  0.3076270E+01  0.7546771E-02  0.2498614E+00
         22   -1    0    0    0    0  0.00000000000E+00  0.00000000000E+00  0.35411153156E+02  0.35411153156E+02  0.00000000000E+00 0. -1.
         22   -1    0    0    0    0 -0.00000000000E+00 -0.00000000000E+00 -0.51244332004E+00  0.51244332004E+00  0.00000000000E+00 0.  1.
          4    1    1    2  501    0  0.30024285722E+01 -0.66996862386E+00  0.29874060298E+02  0.30032031466E+02  0.00000000000E+00 0. -1.
         -4    1    1    2    0  501 -0.30024285722E+01  0.66996862386E+00  0.50246495380E+01  0.58915650100E+01  0.00000000000E+00 0.  1.
<mgrwt>
<rscale>  0 0.30762697E+01</rscale>
<asrwt>0</asrwt>
<pdfrwt beam="1">0</pdfrwt>
<pdfrwt beam="2">0</pdfrwt>
<totfact> 0.70217191E+11</totfact>
</mgrwt>
</event>
<event>
 4    2  0.1985873E+006  0.2431552E+01  0.7546771E-02  0.2739498E+00
         22   -1    0    0    0    0  0.00000000000E+00  0.00000000000E+00  0.40482552482E+00  0.40482552482E+00  0.00000000000E+00 0. -1.
         22   -1    0    0    0    0 -0.00000000000E+00 -0.00000000000E+00 -0.18226975616E+02  0.18226975616E+02  0.00000000000E+00 0.  1.
          4    1    1    2  501    0  0.23273264469E+01  0.70427060250E+00 -0.47582375469E+01  0.53435259918E+01  0.00000000000E+00 0. -1.
         -4    1    1    2    0  501 -0.23273264469E+01 -0.70427060250E+00 -0.13063912544E+02  0.13288275149E+02  0.00000000000E+00 0.  1.
<mgrwt>
<rscale>  0 0.24315521E+01</rscale>
<asrwt>0</asrwt>
<pdfrwt beam="1">0</pdfrwt>
<pdfrwt beam="2">0</pdfrwt>
<totfact> 0.21193301E+12</totfact>
</mgrwt>
</event>
<event>
 4    2  0.1985873E+006  0.4002986E+01  0.7546771E-02  0.2276724E+00
         22   -1    0    0    0    0  0.00000000000E+00  0.00000000000E+00  0.70765445283E+01  0.70765445283E+01  0.00000000000E+00 0.  1.
         22   -1    0    0    0    0 -0.00000000000E+00 -0.00000000000E+00 -0.70318412422E+01  0.70318412422E+01  0.00000000000E+00 0. -1.
          4    1    1    2  501    0 -0.38614908635E+01 -0.10548871843E+01  0.58307574247E+01  0.70725971754E+01  0.00000000000E+00 0.  1.
         -4    1    1    2    0  501  0.38614908635E+01  0.10548871843E+01 -0.57860541386E+01  0.70357885951E+01  0.00000000000E+00 0. -1.
<mgrwt>
<rscale>  0 0.40029862E+01</rscale>
<asrwt>0</asrwt>
<pdfrwt beam="1">0</pdfrwt>
<pdfrwt beam="2">0</pdfrwt>
<totfact> 0.24741205E+11</totfact>
</mgrwt>
</event>
<event>
 4    2  0.1985873E+006  0.4863265E+01  0.7546771E-02  0.2139687E+00
         22   -1    0    0    0    0  0.00000000000E+00  0.00000000000E+00  0.21810638350E+02  0.21810638350E+02  0.00000000000E+00 0. -1.
         22   -1    0    0    0    0 -0.00000000000E+00 -0.00000000000E+00 -0.46455389846E+02  0.46455389846E+02  0.00000000000E+00 0.  1.
          4    1    1    2  501    0  0.46801268797E+01  0.13220267682E+01  0.21409907448E+02  0.21955306405E+02  0.00000000000E+00 0. -1.
         -4    1    1    2    0  501 -0.46801268797E+01 -0.13220267682E+01 -0.46054658944E+02  0.46310721792E+02  0.00000000000E+00 0.  1.
<mgrwt>
<rscale>  0 0.48632646E+01</rscale>
<asrwt>0</asrwt>
<pdfrwt beam="1">0</pdfrwt>
<pdfrwt beam="2">0</pdfrwt>
<totfact> 0.59558491E+09</totfact>
</mgrwt>
</event>
<event>
 4    2  0.1985873E+006  0.2628322E+01  0.7546771E-02  0.2654525E+00
         22   -1    0    0    0    0  0.00000000000E+00  0.00000000000E+00  0.78149656310E+00  0.78149656310E+00  0.00000000000E+00 0.  1.
         22   -1    0    0    0    0 -0.00000000000E+00 -0.00000000000E+00 -0.20517790213E+02  0.20517790213E+02  0.00000000000E+00 0. -1.
          4    1    1    2  501    0 -0.24466137217E+01 -0.96029175459E+00 -0.18336543047E+01  0.32047413416E+01  0.00000000000E+00 0. -1.
         -4    1    1    2    0  501  0.24466137217E+01  0.96029175459E+00 -0.17902639345E+02  0.18094545435E+02  0.00000000000E+00 0.  1.
<mgrwt>
<rscale>  0 0.26283225E+01</rscale>
<asrwt>0</asrwt>
<pdfrwt beam="1">0</pdfrwt>
<pdfrwt beam="2">0</pdfrwt>
<totfact> 0.86900587E+11</totfact>
</mgrwt>
</event>
<event>
 4    2  0.1985873E+006  0.2027693E+01  0.7546771E-02  0.2962279E+00
         22   -1    0    0    0    0  0.00000000000E+00  0.00000000000E+00  0.56880233907E+02  0.56880233907E+02  0.00000000000E+00 0. -1.
         22   -1    0    0    0    0 -0.00000000000E+00 -0.00000000000E+00 -0.14650719785E+00  0.14650719785E+00  0.00000000000E+00 0.  1.
          4    1    1    2  501    0 -0.78928840644E+00  0.18677691589E+01  0.48661839647E+02  0.48704067342E+02  0.00000000000E+00 0. -1.
         -4    1    1    2    0  501  0.78928840644E+00 -0.18677691589E+01  0.80718870624E+01  0.83226737632E+01  0.00000000000E+00 0.  1.
<mgrwt>
<rscale>  0 0.20276927E+01</rscale>
<asrwt>0</asrwt>
<pdfrwt beam="1">0</pdfrwt>
<pdfrwt beam="2">0</pdfrwt>
<totfact> 0.15349945E+12</totfact>
</mgrwt>
</event>
<event>
 4    2  0.1985873E+006  0.2980120E+01  0.7546771E-02  0.2528500E+00
         22   -1    0    0    0    0  0.00000000000E+00  0.00000000000E+00  0.36827132425E+01  0.36827132425E+01  0.00000000000E+00 0.  1.
         22   -1    0    0    0    0 -0.00000000000E+00 -0.00000000000E+00 -0.33582951479E+01  0.33582951479E+01  0.00000000000E+00 0. -1.
          4    1    1    2  501    0  0.29772691485E+01 -0.13032341565E+00  0.20314173579E+01  0.36066289326E+01  0.00000000000E+00 0.  1.
         -4    1    1    2    0  501 -0.29772691485E+01  0.13032341565E+00 -0.17069992633E+01  0.34343794578E+01  0.00000000000E+00 0. -1.
<mgrwt>
<rscale>  0 0.29801201E+01</rscale>
<asrwt>0</asrwt>
<pdfrwt beam="1">0</pdfrwt>
<pdfrwt beam="2">0</pdfrwt>
<totfact> 0.12862134E+12</totfact>
</mgrwt>
</event>
<event>
 4    2  0.1985873E+006  0.3995826E+01  0.7546771E-02  0.2278093E+00
         22   -1    0    0    0    0  0.00000000000E+00  0.00000000000E+00  0.19671859309E+00  0.19671859309E+00  0.00000000000E+00 0. -1.
         22   -1    0    0    0    0 -0.00000000000E+00 -0.00000000000E+00 -0.81897021167E+02  0.81897021167E+02  0.00000000000E+00 0.  1.
          4    1    1    2  501    0 -0.36690010233E+01 -0.15827365421E+01 -0.44731385363E+02  0.44909503003E+02  0.00000000000E+00 0. -1.
         -4    1    1    2    0  501  0.36690010233E+01  0.15827365421E+01 -0.36968917210E+02  0.37184236756E+02  0.00000000000E+00 0.  1.
<mgrwt>
<rscale>  0 0.39958258E+01</rscale>
<asrwt>0</asrwt>
<pdfrwt beam="1">0</pdfrwt>
<pdfrwt beam="2">0</pdfrwt>
<totfact> 0.67499886E+11</totfact>
</mgrwt>
</event>
<event>
 4    2  0.1985873E+006  0.2005364E+01  0.7546771E-02  0.2977116E+00
         22   -1    0    0    0    0  0.00000000000E+00  0.00000000000E+00  0.29298430371E+02  0.29298430371E+02  0.00000000000E+00 0.  1.
         22   -1    0    0    0    0 -0.00000000000E+00 -0.00000000000E+00 -0.14302866527E+00  0.14302866527E+00  0.00000000000E+00 0. -1.
          4    1    1    2  501    0  0.19850781175E+01 -0.28451909839E+00  0.11621210917E+02  0.11792965252E+02  0.00000000000E+00 0.  1.
         -4    1    1    2    0  501 -0.19850781175E+01  0.28451909839E+00  0.17534190789E+02  0.17648493785E+02  0.00000000000E+00 0. -1.
<mgrwt>
<rscale>  0 0.20053644E+01</rscale>
<asrwt>0</asrwt>
<pdfrwt beam="1">0</pdfrwt>
<pdfrwt beam="2">0</pdfrwt>
<totfact> 0.37362387E+12</totfact>
</mgrwt>
</event>
<event>
 4    2  0.1985873E+006  0.3984710E+01  0.7546771E-02  0.2280227E+00
         22   -1    0    0    0    0  0.00000000000E+00  0.00000000000E+00  0.34041965945E+01  0.34041965945E+01  0.00000000000E+00 0.  1.
         22   -1    0    0    0    0 -0.00000000000E+00 -0.00000000000E+00 -0.10309928666E+02  0.10309928666E+02  0.00000000000E+00 0. -1.
          4    1    1    2  501    0 -0.39248424464E+01 -0.68813458307E+00  0.16213571752E+01  0.43019433426E+01  0.00000000000E+00 0.  1.
         -4    1    1    2    0  501  0.39248424464E+01  0.68813458307E+00 -0.85270892468E+01  0.94121819179E+01  0.00000000000E+00 0. -1.
<mgrwt>
<rscale>  0 0.39847105E+01</rscale>
<asrwt>0</asrwt>
<pdfrwt beam="1">0</pdfrwt>
<pdfrwt beam="2">0</pdfrwt>
<totfact> 0.37109921E+11</totfact>
</mgrwt>
</event>
<event>
 4    2  0.1985873E+006  0.2287875E+01  0.7546771E-02  0.2810142E+00
         22   -1    0    0    0    0  0.00000000000E+00  0.00000000000E+00  0.40168531683E+01  0.40168531683E+01  0.00000000000E+00 0.  1.
         22   -1    0    0    0    0 -0.00000000000E+00 -0.00000000000E+00 -0.25522415518E+01  0.25522415518E+01  0.00000000000E+00 0. -1.
          4    1    1    2  501    0  0.16232372873E+01 -0.16122882395E+01  0.30301468370E+01  0.37968621929E+01  0.00000000000E+00 0.  1.
         -4    1    1    2    0  501 -0.16232372873E+01  0.16122882395E+01 -0.15655352205E+01  0.27722325272E+01  0.00000000000E+00 0. -1.
<mgrwt>
<rscale>  0 0.22878751E+01</rscale>
<asrwt>0</asrwt>
<pdfrwt beam="1">0</pdfrwt>
<pdfrwt beam="2">0</pdfrwt>
<totfact> 0.16000052E+12</totfact>
</mgrwt>
</event>
<event>
 4    2  0.1985873E+006  0.2764460E+01  0.7546771E-02  0.2602297E+00
         22   -1    0    0    0    0  0.00000000000E+00  0.00000000000E+00  0.19409897120E+02  0.19409897120E+02  0.00000000000E+00 0. -1.
         22   -1    0    0    0    0 -0.00000000000E+00 -0.00000000000E+00 -0.45220008717E+00  0.45220008717E+00  0.00000000000E+00 0.  1.
          4    1    1    2  501    0 -0.41921132066E+00  0.27324901499E+01  0.13049933188E+02  0.13339527606E+02  0.00000000000E+00 0. -1.
         -4    1    1    2    0  501  0.41921132066E+00 -0.27324901499E+01  0.59077638452E+01  0.65225696011E+01  0.00000000000E+00 0.  1.
<mgrwt>
<rscale>  0 0.27644603E+01</rscale>
<asrwt>0</asrwt>
<pdfrwt beam="1">0</pdfrwt>
<pdfrwt beam="2">0</pdfrwt>
<totfact> 0.17302295E+12</totfact>
</mgrwt>
</event>
<event>
 4    2  0.1985873E+006  0.2351944E+01  0.7546771E-02  0.2777635E+00
         22   -1    0    0    0    0  0.00000000000E+00  0.00000000000E+00  0.24128839820E+02  0.24128839820E+02  0.00000000000E+00 0.  1.
         22   -1    0    0    0    0 -0.00000000000E+00 -0.00000000000E+00 -0.97494643083E+00  0.97494643083E+00  0.00000000000E+00 0. -1.
          4    1    1    2  501    0 -0.19166817664E+01  0.13630743462E+01  0.22554325002E+02  0.22676622697E+02  0.00000000000E+00 0.  1.
         -4    1    1    2    0  501  0.19166817664E+01 -0.13630743462E+01  0.59956838795E+00  0.24271635542E+01  0.00000000000E+00 0. -1.
<mgrwt>
<rscale>  0 0.23519440E+01</rscale>
<asrwt>0</asrwt>
<pdfrwt beam="1">0</pdfrwt>
<pdfrwt beam="2">0</pdfrwt>
<totfact> 0.55120333E+11</totfact>
</mgrwt>
</event>
<event>
 4    2  0.1985873E+006  0.2410319E+01  0.7546771E-02  0.2749438E+00
         22   -1    0    0    0    0  0.00000000000E+00  0.00000000000E+00  0.11302597895E+01  0.11302597895E+01  0.00000000000E+00 0.  1.
         22   -1    0    0    0    0 -0.00000000000E+00 -0.00000000000E+00 -0.14216738828E+02  0.14216738828E+02  0.00000000000E+00 0. -1.
          4    1    1    2  501    0  0.22192812566E+01 -0.94044173987E+00 -0.41188863677E+00  0.24452591297E+01  0.00000000000E+00 0.  1.
         -4    1    1    2    0  501 -0.22192812566E+01  0.94044173987E+00 -0.12674590402E+02  0.12901739488E+02  0.00000000000E+00 0. -1.
<mgrwt>
<rscale>  0 0.24103195E+01</rscale>
<asrwt>0</asrwt>
<pdfrwt beam="1">0</pdfrwt>
<pdfrwt beam="2">0</pdfrwt>
<totfact> 0.89833595E+11</totfact>
</mgrwt>
</event>
<event>
 4    2  0.1985873E+006  0.2757714E+01  0.7546771E-02  0.2604774E+00
         22   -1    0    0    0    0  0.00000000000E+00  0.00000000000E+00  0.55753026648E+02  0.55753026648E+02  0.00000000000E+00 0. -1.
         22   -1    0    0    0    0 -0.00000000000E+00 -0.00000000000E+00 -0.27018223843E+01  0.27018223843E+01  0.00000000000E+00 0.  1.
          4    1    1    2  501    0  0.23226844310E-01 -0.27576162720E+01  0.55005680074E+02  0.55074765795E+02  0.00000000000E+00 0. -1.
         -4    1    1    2    0  501 -0.23226844310E-01  0.27576162720E+01 -0.19544758109E+01  0.33800832365E+01  0.00000000000E+00 0.  1.
<mgrwt>
<rscale>  0 0.27577141E+01</rscale>
<asrwt>0</asrwt>
<pdfrwt beam="1">0</pdfrwt>
<pdfrwt beam="2">0</pdfrwt>
<totfact> 0.57699671E+10</totfact>
</mgrwt>
</event>
<event>
 4    2  0.1985873E+006  0.2345745E+01  0.7546771E-02  0.2780707E+00
         22   -1    0    0    0    0  0.00000000000E+00  0.00000000000E+00  0.24191481198E+01  0.24191481198E+01  0.00000000000E+00 0. -1.
         22   -1    0    0    0    0 -0.00000000000E+00 -0.00000000000E+00 -0.23649689864E+01  0.23649689864E+01  0.00000000000E+00 0.  1.
          4    1    1    2  501    0  0.17074142232E+01  0.16084951973E+01  0.49476274119E+00  0.23973548548E+01  0.00000000000E+00 0. -1.
         -4    1    1    2    0  501 -0.17074142232E+01 -0.16084951973E+01 -0.44058360776E+00  0.23867622515E+01  0.00000000000E+00 0.  1.
<mgrwt>
<rscale>  0 0.23457451E+01</rscale>
<asrwt>0</asrwt>
<pdfrwt beam="1">0</pdfrwt>
<pdfrwt beam="2">0</pdfrwt>
<totfact> 0.31632521E+12</totfact>
</mgrwt>
</event>
<event>
 4    2  0.1985873E+006  0.6087644E+01  0.7546771E-02  0.2011916E+00
         22   -1    0    0    0    0  0.00000000000E+00  0.00000000000E+00  0.23177954089E+01  0.23177954089E+01  0.00000000000E+00 0.  1.
         22   -1    0    0    0    0 -0.00000000000E+00 -0.00000000000E+00 -0.16034490408E+02  0.16034490408E+02  0.00000000000E+00 0. -1.
          4    1    1    2  501    0 -0.41158272834E+01 -0.44854627459E+01 -0.63700072115E+01  0.88111521464E+01  0.00000000000E+00 0.  1.
         -4    1    1    2    0  501  0.41158272834E+01  0.44854627459E+01 -0.73466877881E+01  0.95411336710E+01  0.00000000000E+00 0. -1.
<mgrwt>
<rscale>  0 0.60876441E+01</rscale>
<asrwt>0</asrwt>
<pdfrwt beam="1">0</pdfrwt>
<pdfrwt beam="2">0</pdfrwt>
<totfact> 0.33858121E+11</totfact>
</mgrwt>
</event>
<event>
 4    2  0.1985873E+006  0.2641468E+01  0.7546771E-02  0.2649266E+00
         22   -1    0    0    0    0  0.00000000000E+00  0.00000000000E+00  0.91454329207E+00  0.91454329207E+00  0.00000000000E+00 0.  1.
         22   -1    0    0    0    0 -0.00000000000E+00 -0.00000000000E+00 -0.97673320652E+01  0.97673320652E+01  0.00000000000E+00 0. -1.
          4    1    1    2  501    0 -0.24813617240E+01 -0.90564790388E+00 -0.19275833166E+01  0.32700048278E+01  0.00000000000E+00 0.  1.
         -4    1    1    2    0  501  0.24813617240E+01  0.90564790388E+00 -0.69252054565E+01  0.74118705295E+01  0.00000000000E+00 0. -1.
<mgrwt>
<rscale>  0 0.26414682E+01</rscale>
<asrwt>0</asrwt>
<pdfrwt beam="1">0</pdfrwt>
<pdfrwt beam="2">0</pdfrwt>
<totfact> 0.18078696E+12</totfact>
</mgrwt>
</event>
<event>
 4    2  0.1985873E+006  0.2076352E+01  0.7546771E-02  0.2931027E+00
         22   -1    0    0    0    0  0.00000000000E+00  0.00000000000E+00  0.29907391397E+00  0.29907391397E+00  0.00000000000E+00 0. -1.
         22   -1    0    0    0    0 -0.00000000000E+00 -0.00000000000E+00 -0.14415447578E+02  0.14415447578E+02  0.00000000000E+00 0.  1.
          4    1    1    2  501    0 -0.10491181063E+01  0.17918116882E+01 -0.70340499825E+01  0.73341050635E+01  0.00000000000E+00 0.  1.
         -4    1    1    2    0  501  0.10491181063E+01 -0.17918116882E+01 -0.70823236817E+01  0.73804164286E+01  0.00000000000E+00 0. -1.
<mgrwt>
<rscale>  0 0.20763521E+01</rscale>
<asrwt>0</asrwt>
<pdfrwt beam="1">0</pdfrwt>
<pdfrwt beam="2">0</pdfrwt>
<totfact> 0.39784163E+12</totfact>
</mgrwt>
</event>
<event>
 4    2  0.1985873E+006  0.2070461E+01  0.7546771E-02  0.2934734E+00
         22   -1    0    0    0    0  0.00000000000E+00  0.00000000000E+00  0.20403612587E+02  0.20403612587E+02  0.00000000000E+00 0.  1.
         22   -1    0    0    0    0 -0.00000000000E+00 -0.00000000000E+00 -0.24988445356E+00  0.24988445356E+00  0.00000000000E+00 0. -1.
          4    1    1    2  501    0  0.10948198643E+01  0.17573216568E+01  0.59563845882E+01  0.63059755235E+01  0.00000000000E+00 0. -1.
         -4    1    1    2    0  501 -0.10948198643E+01 -0.17573216568E+01  0.14197343545E+02  0.14347521517E+02  0.00000000000E+00 0.  1.
<mgrwt>
<rscale>  0 0.20704613E+01</rscale>
<asrwt>0</asrwt>
<pdfrwt beam="1">0</pdfrwt>
<pdfrwt beam="2">0</pdfrwt>
<totfact> 0.31644741E+12</totfact>
</mgrwt>
</event>
<event>
 4    2  0.1985873E+006  0.2852411E+01  0.7546771E-02  0.2570982E+00
         22   -1    0    0    0    0  0.00000000000E+00  0.00000000000E+00  0.62494617698E+00  0.62494617698E+00  0.00000000000E+00 0.  1.
         22   -1    0    0    0    0 -0.00000000000E+00 -0.00000000000E+00 -0.13783828381E+02  0.13783828381E+02  0.00000000000E+00 0. -1.
          4    1    1    2  501    0 -0.28440978992E+01  0.21761908764E+00 -0.48825292050E+01  0.56546743819E+01  0.00000000000E+00 0.  1.
         -4    1    1    2    0  501  0.28440978992E+01 -0.21761908764E+00 -0.82763529987E+01  0.87541001757E+01  0.00000000000E+00 0. -1.
<mgrwt>
<rscale>  0 0.28524114E+01</rscale>
<asrwt>0</asrwt>
<pdfrwt beam="1">0</pdfrwt>
<pdfrwt beam="2">0</pdfrwt>
<totfact> 0.18320461E+12</totfact>
</mgrwt>
</event>
<event>
 4    2  0.1985873E+006  0.2218200E+01  0.7546771E-02  0.2847518E+00
         22   -1    0    0    0    0  0.00000000000E+00  0.00000000000E+00  0.30598848406E+01  0.30598848406E+01  0.00000000000E+00 0. -1.
         22   -1    0    0    0    0 -0.00000000000E+00 -0.00000000000E+00 -0.49069098334E+01  0.49069098334E+01  0.00000000000E+00 0.  1.
          4    1    1    2  501    0 -0.14684571230E+01  0.16625411295E+01  0.23426091001E+01  0.32261783468E+01  0.00000000000E+00 0. -1.
         -4    1    1    2    0  501  0.14684571230E+01 -0.16625411295E+01 -0.41896340929E+01  0.47406163272E+01  0.00000000000E+00 0.  1.
<mgrwt>
<rscale>  0 0.22181996E+01</rscale>
<asrwt>0</asrwt>
<pdfrwt beam="1">0</pdfrwt>
<pdfrwt beam="2">0</pdfrwt>
<totfact> 0.10224959E+12</totfact>
</mgrwt>
</event>
<event>
 4    2  0.1985873E+006  0.2918965E+01  0.7546771E-02  0.2548425E+00
         22   -1    0    0    0    0  0.00000000000E+00  0.00000000000E+00  0.18306822302E+01  0.18306822302E+01  0.00000000000E+00 0.  1.
         22   -1    0    0    0    0 -0.00000000000E+00 -0.00000000000E+00 -0.70684443622E+01  0.70684443622E+01  0.00000000000E+00 0. -1.
          4    1    1    2  501    0 -0.26603464497E+01 -0.12012122002E+01 -0.18443468588E-01  0.29190228064E+01  0.00000000000E+00 0.  1.
         -4    1    1    2    0  501  0.26603464497E+01  0.12012122002E+01 -0.52193186634E+01  0.59801037861E+01  0.00000000000E+00 0. -1.
<mgrwt>
<rscale>  0 0.29189645E+01</rscale>
<asrwt>0</asrwt>
<pdfrwt beam="1">0</pdfrwt>
<pdfrwt beam="2">0</pdfrwt>
<totfact> 0.12030447E+12</totfact>
</mgrwt>
</event>
<event>
 4    2  0.1985873E+006  0.2432461E+01  0.7546771E-02  0.2739076E+00
         22   -1    0    0    0    0  0.00000000000E+00  0.00000000000E+00  0.12373517234E+01  0.12373517234E+01  0.00000000000E+00 0.  1.
         22   -1    0    0    0    0 -0.00000000000E+00 -0.00000000000E+00 -0.60519879371E+01  0.60519879371E+01  0.00000000000E+00 0. -1.
          4    1    1    2  501    0  0.73848449515E+00  0.23176508226E+01 -0.73765110873E+00  0.25418485091E+01  0.00000000000E+00 0.  1.
         -4    1    1    2    0  501 -0.73848449515E+00 -0.23176508226E+01 -0.40769851050E+01  0.47474911513E+01  0.00000000000E+00 0. -1.
<mgrwt>
<rscale>  0 0.24324606E+01</rscale>
<asrwt>0</asrwt>
<pdfrwt beam="1">0</pdfrwt>
<pdfrwt beam="2">0</pdfrwt>
<totfact> 0.22725532E+12</totfact>
</mgrwt>
</event>
<event>
 4    2  0.1985873E+006  0.2442780E+01  0.7546771E-02  0.2734307E+00
         22   -1    0    0    0    0  0.00000000000E+00  0.00000000000E+00  0.18507887123E+01  0.18507887123E+01  0.00000000000E+00 0. -1.
         22   -1    0    0    0    0 -0.00000000000E+00 -0.00000000000E+00 -0.40735852232E+01  0.40735852232E+01  0.00000000000E+00 0.  1.
          4    1    1    2  501    0 -0.16541700434E+01  0.17974687878E+01  0.24128403996E+00  0.24546670983E+01  0.00000000000E+00 0. -1.
         -4    1    1    2    0  501  0.16541700434E+01 -0.17974687878E+01 -0.24640805509E+01  0.34697068373E+01  0.00000000000E+00 0.  1.
<mgrwt>
<rscale>  0 0.24427797E+01</rscale>
<asrwt>0</asrwt>
<pdfrwt beam="1">0</pdfrwt>
<pdfrwt beam="2">0</pdfrwt>
<totfact> 0.22845275E+12</totfact>
</mgrwt>
</event>
<event>
 4    2  0.1985873E+006  0.3445543E+01  0.7546771E-02  0.2397731E+00
         22   -1    0    0    0    0  0.00000000000E+00  0.00000000000E+00  0.76812898639E+00  0.76812898639E+00  0.00000000000E+00 0. -1.
         22   -1    0    0    0    0 -0.00000000000E+00 -0.00000000000E+00 -0.62543007068E+02  0.62543007068E+02  0.00000000000E+00 0.  1.
          4    1    1    2  501    0  0.22485046762E+01 -0.26107462881E+01 -0.34202719366E+01  0.48548974840E+01  0.00000000000E+00 0. -1.
         -4    1    1    2    0  501 -0.22485046762E+01  0.26107462881E+01 -0.58354606145E+02  0.58456238570E+02  0.00000000000E+00 0.  1.
<mgrwt>
<rscale>  0 0.34455434E+01</rscale>
<asrwt>0</asrwt>
<pdfrwt beam="1">0</pdfrwt>
<pdfrwt beam="2">0</pdfrwt>
<totfact> 0.21023864E+11</totfact>
</mgrwt>
</event>
<event>
 4    2  0.1985873E+006  0.2438388E+01  0.7546771E-02  0.2736332E+00
         22   -1    0    0    0    0  0.00000000000E+00  0.00000000000E+00  0.15004702543E+02  0.15004702543E+02  0.00000000000E+00 0. -1.
         22   -1    0    0    0    0 -0.00000000000E+00 -0.00000000000E+00 -0.39852633588E+00  0.39852633588E+00  0.00000000000E+00 0.  1.
          4    1    1    2  501    0 -0.19857656617E+01  0.14150866545E+01  0.78841115424E+01  0.82525723454E+01  0.00000000000E+00 0.  1.
         -4    1    1    2    0  501  0.19857656617E+01 -0.14150866545E+01  0.67220646644E+01  0.71506565332E+01  0.00000000000E+00 0. -1.
<mgrwt>
<rscale>  0 0.24383879E+01</rscale>
<asrwt>0</asrwt>
<pdfrwt beam="1">0</pdfrwt>
<pdfrwt beam="2">0</pdfrwt>
<totfact> 0.27433961E+12</totfact>
</mgrwt>
</event>
<event>
 4    2  0.1985873E+006  0.2136588E+01  0.7546771E-02  0.2894258E+00
         22   -1    0    0    0    0  0.00000000000E+00  0.00000000000E+00  0.43387597955E+00  0.43387597955E+00  0.00000000000E+00 0.  1.
         22   -1    0    0    0    0 -0.00000000000E+00 -0.00000000000E+00 -0.14651038177E+02  0.14651038177E+02  0.00000000000E+00 0. -1.
          4    1    1    2  501    0  0.13111603941E+01  0.16869691523E+01 -0.31042335150E+01  0.37684575379E+01  0.00000000000E+00 0.  1.
         -4    1    1    2    0  501 -0.13111603941E+01 -0.16869691523E+01 -0.11112928683E+02  0.11316456619E+02  0.00000000000E+00 0. -1.
<mgrwt>
<rscale>  0 0.21365876E+01</rscale>
<asrwt>0</asrwt>
<pdfrwt beam="1">0</pdfrwt>
<pdfrwt beam="2">0</pdfrwt>
<totfact> 0.25670838E+12</totfact>
</mgrwt>
</event>
<event>
 4    2  0.1985873E+006  0.2180957E+01  0.7546771E-02  0.2868430E+00
         22   -1    0    0    0    0  0.00000000000E+00  0.00000000000E+00  0.10189231158E+02  0.10189231158E+02  0.00000000000E+00 0.  1.
         22   -1    0    0    0    0 -0.00000000000E+00 -0.00000000000E+00 -0.15542360888E+01  0.15542360888E+01  0.00000000000E+00 0. -1.
          4    1    1    2  501    0  0.21491422884E+01  0.37116104628E+00  0.92288942814E+01  0.94830935224E+01  0.00000000000E+00 0.  1.
         -4    1    1    2    0  501 -0.21491422884E+01 -0.37116104628E+00 -0.59389921251E+00  0.22603737241E+01  0.00000000000E+00 0. -1.
<mgrwt>
<rscale>  0 0.21809569E+01</rscale>
<asrwt>0</asrwt>
<pdfrwt beam="1">0</pdfrwt>
<pdfrwt beam="2">0</pdfrwt>
<totfact> 0.93550185E+11</totfact>
</mgrwt>
</event>
<event>
 4    2  0.1985873E+006  0.3365469E+01  0.7546771E-02  0.2417945E+00
         22   -1    0    0    0    0  0.00000000000E+00  0.00000000000E+00  0.51237576210E+01  0.51237576210E+01  0.00000000000E+00 0. -1.
         22   -1    0    0    0    0 -0.00000000000E+00 -0.00000000000E+00 -0.27857574435E+01  0.27857574435E+01  0.00000000000E+00 0.  1.
          4    1    1    2  501    0  0.44516390777E+00 -0.33358974439E+01  0.29660329608E+01  0.44859485268E+01  0.00000000000E+00 0.  1.
         -4    1    1    2    0  501 -0.44516390777E+00  0.33358974439E+01 -0.62803278332E+00  0.34235665377E+01  0.00000000000E+00 0. -1.
<mgrwt>
<rscale>  0 0.33654692E+01</rscale>
<asrwt>0</asrwt>
<pdfrwt beam="1">0</pdfrwt>
<pdfrwt beam="2">0</pdfrwt>
<totfact> 0.10840212E+12</totfact>
</mgrwt>
</event>
<event>
 4    2  0.1985873E+006  0.2050885E+01  0.7546771E-02  0.2947203E+00
         22   -1    0    0    0    0  0.00000000000E+00  0.00000000000E+00  0.16414767624E+02  0.16414767624E+02  0.00000000000E+00 0.  1.
         22   -1    0    0    0    0 -0.00000000000E+00 -0.00000000000E+00 -0.25862238276E+00  0.25862238276E+00  0.00000000000E+00 0. -1.
          4    1    1    2  501    0  0.17550886008E+01  0.10610334042E+01  0.88781337495E+01  0.91119364986E+01  0.00000000000E+00 0. -1.
         -4    1    1    2    0  501 -0.17550886008E+01 -0.10610334042E+01  0.72780114915E+01  0.75614535079E+01  0.00000000000E+00 0.  1.
<mgrwt>
<rscale>  0 0.20508847E+01</rscale>
<asrwt>0</asrwt>
<pdfrwt beam="1">0</pdfrwt>
<pdfrwt beam="2">0</pdfrwt>
<totfact> 0.39894140E+12</totfact>
</mgrwt>
</event>
<event>
 4    2  0.1985873E+006  0.2304464E+01  0.7546771E-02  0.2801561E+00
         22   -1    0    0    0    0  0.00000000000E+00  0.00000000000E+00  0.34294282763E+02  0.34294282763E+02  0.00000000000E+00 0.  1.
         22   -1    0    0    0    0 -0.00000000000E+00 -0.00000000000E+00 -0.29061348830E+00  0.29061348830E+00  0.00000000000E+00 0. -1.
          4    1    1    2  501    0 -0.22547169914E+01 -0.47624019669E+00  0.51826862318E+01  0.56719300078E+01  0.00000000000E+00 0. -1.
         -4    1    1    2    0  501  0.22547169914E+01  0.47624019669E+00  0.28820983043E+02  0.28912966243E+02  0.00000000000E+00 0.  1.
<mgrwt>
<rscale>  0 0.23044638E+01</rscale>
<asrwt>0</asrwt>
<pdfrwt beam="1">0</pdfrwt>
<pdfrwt beam="2">0</pdfrwt>
<totfact> 0.13850619E+12</totfact>
</mgrwt>
</event>
<event>
 4    2  0.1985873E+006  0.2174958E+01  0.7546771E-02  0.2871863E+00
         22   -1    0    0    0    0  0.00000000000E+00  0.00000000000E+00  0.36508611194E+01  0.36508611194E+01  0.00000000000E+00 0. -1.
         22   -1    0    0    0    0 -0.00000000000E+00 -0.00000000000E+00 -0.47198208322E+01  0.47198208322E+01  0.00000000000E+00 0.  1.
          4    1    1    2  501    0  0.20991390933E+01 -0.56926114424E+00  0.30303781853E+01  0.37300985415E+01  0.00000000000E+00 0. -1.
         -4    1    1    2    0  501 -0.20991390933E+01  0.56926114424E+00 -0.40993378981E+01  0.46405834101E+01  0.00000000000E+00 0.  1.
<mgrwt>
<rscale>  0 0.21749582E+01</rscale>
<asrwt>0</asrwt>
<pdfrwt beam="1">0</pdfrwt>
<pdfrwt beam="2">0</pdfrwt>
<totfact> 0.87055446E+11</totfact>
</mgrwt>
</event>
<event>
 4    2  0.1985873E+006  0.3779063E+01  0.7546771E-02  0.2321627E+00
         22   -1    0    0    0    0  0.00000000000E+00  0.00000000000E+00  0.21752045275E+02  0.21752045275E+02  0.00000000000E+00 0. -1.
         22   -1    0    0    0    0 -0.00000000000E+00 -0.00000000000E+00 -0.16488949108E+01  0.16488949108E+01  0.00000000000E+00 0.  1.
          4    1    1    2  501    0 -0.13633518006E+01  0.35245695466E+01  0.19128484813E+02  0.19498211453E+02  0.00000000000E+00 0. -1.
         -4    1    1    2    0  501  0.13633518006E+01 -0.35245695466E+01  0.97466555028E+00  0.39027287321E+01  0.00000000000E+00 0.  1.
<mgrwt>
<rscale>  0 0.37790632E+01</rscale>
<asrwt>0</asrwt>
<pdfrwt beam="1">0</pdfrwt>
<pdfrwt beam="2">0</pdfrwt>
<totfact> 0.34365604E+11</totfact>
</mgrwt>
</event>
<event>
 4    2  0.1985873E+006  0.2056067E+01  0.7546771E-02  0.2943880E+00
         22   -1    0    0    0    0  0.00000000000E+00  0.00000000000E+00  0.54941778519E+01  0.54941778519E+01  0.00000000000E+00 0. -1.
         22   -1    0    0    0    0 -0.00000000000E+00 -0.00000000000E+00 -0.89676154999E+00  0.89676154999E+00  0.00000000000E+00 0.  1.
          4    1    1    2  501    0 -0.18357858130E+01 -0.92590611881E+00  0.35027900404E+01  0.40616437263E+01  0.00000000000E+00 0. -1.
         -4    1    1    2    0  501  0.18357858130E+01  0.92590611881E+00  0.10946262615E+01  0.23292956756E+01  0.00000000000E+00 0.  1.
<mgrwt>
<rscale>  0 0.20560670E+01</rscale>
<asrwt>0</asrwt>
<pdfrwt beam="1">0</pdfrwt>
<pdfrwt beam="2">0</pdfrwt>
<totfact> 0.36832446E+12</totfact>
</mgrwt>
</event>
<event>
 4    2  0.1985873E+006  0.4431007E+01  0.7546771E-02  0.2201773E+00
         22   -1    0    0    0    0  0.00000000000E+00  0.00000000000E+00  0.28850402733E+01  0.28850402733E+01  0.00000000000E+00 0. -1.
         22   -1    0    0    0    0 -0.00000000000E+00 -0.00000000000E+00 -0.79799348459E+01  0.79799348459E+01  0.00000000000E+00 0.  1.
          4    1    1    2  501    0 -0.43763543705E+01 -0.69379044402E+00 -0.46327333517E+00  0.44551593618E+01  0.00000000000E+00 0. -1.
         -4    1    1    2    0  501  0.43763543705E+01  0.69379044402E+00 -0.46316212375E+01  0.64098157574E+01  0.00000000000E+00 0.  1.
<mgrwt>
<rscale>  0 0.44310070E+01</rscale>
<asrwt>0</asrwt>
<pdfrwt beam="1">0</pdfrwt>
<pdfrwt beam="2">0</pdfrwt>
<totfact> 0.61345379E+11</totfact>
</mgrwt>
</event>
<event>
 4    2  0.1985873E+006  0.2740887E+01  0.7546771E-02  0.2611000E+00
         22   -1    0    0    0    0  0.00000000000E+00  0.00000000000E+00  0.57707055679E+00  0.57707055679E+00  0.00000000000E+00 0. -1.
         22   -1    0    0    0    0 -0.00000000000E+00 -0.00000000000E+00 -0.29150190554E+02  0.29150190554E+02  0.00000000000E+00 0.  1.
          4    1    1    2  501    0 -0.91661006737E+00 -0.25830776184E+01 -0.32293093475E+01  0.42356702964E+01  0.00000000000E+00 0. -1.
         -4    1    1    2    0  501  0.91661006737E+00  0.25830776184E+01 -0.25343810650E+02  0.25491590814E+02  0.00000000000E+00 0.  1.
<mgrwt>
<rscale>  0 0.27408874E+01</rscale>
<asrwt>0</asrwt>
<pdfrwt beam="1">0</pdfrwt>
<pdfrwt beam="2">0</pdfrwt>
<totfact> 0.78749947E+11</totfact>
</mgrwt>
</event>
<event>
 4    2  0.1985873E+006  0.4717607E+01  0.7546771E-02  0.2158300E+00
         22   -1    0    0    0    0  0.00000000000E+00  0.00000000000E+00  0.11025769616E+01  0.11025769616E+01  0.00000000000E+00 0.  1.
         22   -1    0    0    0    0 -0.00000000000E+00 -0.00000000000E+00 -0.22446251248E+02  0.22446251248E+02  0.00000000000E+00 0. -1.
          4    1    1    2  501    0 -0.43006232576E+01  0.19391904059E+01 -0.69349039073E+01  0.83874139064E+01  0.00000000000E+00 0.  1.
         -4    1    1    2    0  501  0.43006232576E+01 -0.19391904059E+01 -0.14408770379E+02  0.15161414303E+02  0.00000000000E+00 0. -1.
<mgrwt>
<rscale>  0 0.47176074E+01</rscale>
<asrwt>0</asrwt>
<pdfrwt beam="1">0</pdfrwt>
<pdfrwt beam="2">0</pdfrwt>
<totfact> 0.52448038E+11</totfact>
</mgrwt>
</event>
<event>
 4    2  0.1985873E+006  0.2387674E+01  0.7546771E-02  0.2760222E+00
         22   -1    0    0    0    0  0.00000000000E+00  0.00000000000E+00  0.33690094804E+01  0.33690094804E+01  0.00000000000E+00 0. -1.
         22   -1    0    0    0    0 -0.00000000000E+00 -0.00000000000E+00 -0.60241166094E+01  0.60241166094E+01  0.00000000000E+00 0.  1.
          4    1    1    2  501    0  0.57984416644E+00 -0.23161964541E+01  0.26551162054E+01  0.35708020578E+01  0.00000000000E+00 0. -1.
         -4    1    1    2    0  501 -0.57984416644E+00  0.23161964541E+01 -0.53102233345E+01  0.58223240320E+01  0.00000000000E+00 0.  1.
<mgrwt>
<rscale>  0 0.23876736E+01</rscale>
<asrwt>0</asrwt>
<pdfrwt beam="1">0</pdfrwt>
<pdfrwt beam="2">0</pdfrwt>
<totfact> 0.71619064E+11</totfact>
</mgrwt>
</event>
<event>
 4    2  0.1985873E+006  0.2671773E+01  0.7546771E-02  0.2637326E+00
         22   -1    0    0    0    0  0.00000000000E+00  0.00000000000E+00  0.63623139542E+02  0.63623139542E+02  0.00000000000E+00 0. -1.
         22   -1    0    0    0    0 -0.00000000000E+00 -0.00000000000E+00 -0.14311863897E+01  0.14311863897E+01  0.00000000000E+00 0.  1.
          4    1    1    2  501    0  0.21399038434E+01 -0.15997442156E+01  0.62322139571E+02  0.62379383219E+02  0.00000000000E+00 0. -1.
         -4    1    1    2    0  501 -0.21399038434E+01  0.15997442156E+01 -0.13018641889E+00  0.26749427131E+01  0.00000000000E+00 0.  1.
<mgrwt>
<rscale>  0 0.26717728E+01</rscale>
<asrwt>0</asrwt>
<pdfrwt beam="1">0</pdfrwt>
<pdfrwt beam="2">0</pdfrwt>
<totfact> 0.10087751E+11</totfact>
</mgrwt>
</event>
<event>
 4    2  0.1985873E+006  0.2891048E+01  0.7546771E-02  0.2557773E+00
         22   -1    0    0    0    0  0.00000000000E+00  0.00000000000E+00  0.37879683406E+00  0.37879683406E+00  0.00000000000E+00 0.  1.
         22   -1    0    0    0    0 -0.00000000000E+00 -0.00000000000E+00 -0.33863624330E+02  0.33863624330E+02  0.00000000000E+00 0. -1.
          4    1    1    2  501    0 -0.26723356230E+01  0.11030778937E+01 -0.66363245541E+01  0.72387127384E+01  0.00000000000E+00 0.  1.
         -4    1    1    2    0  501  0.26723356230E+01 -0.11030778937E+01 -0.26848502942E+02  0.27003708426E+02  0.00000000000E+00 0. -1.
<mgrwt>
<rscale>  0 0.28910480E+01</rscale>
<asrwt>0</asrwt>
<pdfrwt beam="1">0</pdfrwt>
<pdfrwt beam="2">0</pdfrwt>
<totfact> 0.10454924E+12</totfact>
</mgrwt>
</event>
<event>
 4    2  0.1985873E+006  0.2854788E+01  0.7546771E-02  0.2570160E+00
         22   -1    0    0    0    0  0.00000000000E+00  0.00000000000E+00  0.11812614412E+01  0.11812614412E+01  0.00000000000E+00 0. -1.
         22   -1    0    0    0    0 -0.00000000000E+00 -0.00000000000E+00 -0.11020839962E+02  0.11020839962E+02  0.00000000000E+00 0.  1.
          4    1    1    2  501    0 -0.27634842724E+01  0.71621907659E+00 -0.11887500965E+01  0.30924006664E+01  0.00000000000E+00 0. -1.
         -4    1    1    2    0  501  0.27634842724E+01 -0.71621907659E+00 -0.86508284246E+01  0.91097007372E+01  0.00000000000E+00 0.  1.
<mgrwt>
<rscale>  0 0.28547881E+01</rscale>
<asrwt>0</asrwt>
<pdfrwt beam="1">0</pdfrwt>
<pdfrwt beam="2">0</pdfrwt>
<totfact> 0.11656760E+12</totfact>
</mgrwt>
</event>
<event>
 4    2  0.1985873E+006  0.2173090E+01  0.7546771E-02  0.2872935E+00
         22   -1    0    0    0    0  0.00000000000E+00  0.00000000000E+00  0.10056022061E+01  0.10056022061E+01  0.00000000000E+00 0. -1.
         22   -1    0    0    0    0 -0.00000000000E+00 -0.00000000000E+00 -0.13610196628E+02  0.13610196628E+02  0.00000000000E+00 0.  1.
          4    1    1    2  501    0 -0.60685757532E+00 -0.20866348260E+01 -0.38802717256E+00  0.22074614606E+01  0.00000000000E+00 0. -1.
         -4    1    1    2    0  501  0.60685757532E+00  0.20866348260E+01 -0.12216567249E+02  0.12408337373E+02  0.00000000000E+00 0.  1.
<mgrwt>
<rscale>  0 0.21730902E+01</rscale>
<asrwt>0</asrwt>
<pdfrwt beam="1">0</pdfrwt>
<pdfrwt beam="2">0</pdfrwt>
<totfact> 0.10831088E+12</totfact>
</mgrwt>
</event>
<event>
 4    2  0.1985873E+006  0.3443045E+01  0.7546771E-02  0.2398349E+00
         22   -1    0    0    0    0  0.00000000000E+00  0.00000000000E+00  0.14905413645E+02  0.14905413645E+02  0.00000000000E+00 0. -1.
         22   -1    0    0    0    0 -0.00000000000E+00 -0.00000000000E+00 -0.88518729141E+00  0.88518729141E+00  0.00000000000E+00 0.  1.
          4    1    1    2  501    0 -0.20292526459E+01 -0.27814916320E+01  0.95257838139E+01  0.10128924882E+02  0.00000000000E+00 0. -1.
         -4    1    1    2    0  501  0.20292526459E+01  0.27814916320E+01  0.44944425394E+01  0.56616760540E+01  0.00000000000E+00 0.  1.
<mgrwt>
<rscale>  0 0.34430455E+01</rscale>
<asrwt>0</asrwt>
<pdfrwt beam="1">0</pdfrwt>
<pdfrwt beam="2">0</pdfrwt>
<totfact> 0.11205180E+12</totfact>
</mgrwt>
</event>
<event>
 4    2  0.1985873E+006  0.2066530E+01  0.7546771E-02  0.2937220E+00
         22   -1    0    0    0    0  0.00000000000E+00  0.00000000000E+00  0.34974659041E+00  0.34974659041E+00  0.00000000000E+00 0. -1.
         22   -1    0    0    0    0 -0.00000000000E+00 -0.00000000000E+00 -0.23771561504E+02  0.23771561504E+02  0.00000000000E+00 0.  1.
          4    1    1    2  501    0 -0.30024226730E+00  0.20446029591E+01 -0.33000031878E+01  0.38936573705E+01  0.00000000000E+00 0. -1.
         -4    1    1    2    0  501  0.30024226730E+00 -0.20446029591E+01 -0.20121811726E+02  0.20227650724E+02  0.00000000000E+00 0.  1.
<mgrwt>
<rscale>  0 0.20665301E+01</rscale>
<asrwt>0</asrwt>
<pdfrwt beam="1">0</pdfrwt>
<pdfrwt beam="2">0</pdfrwt>
<totfact> 0.17925562E+12</totfact>
</mgrwt>
</event>
<event>
 4    2  0.1985873E+006  0.3699104E+01  0.7546771E-02  0.2338787E+00
         22   -1    0    0    0    0  0.00000000000E+00  0.00000000000E+00  0.62697447047E+01  0.62697447047E+01  0.00000000000E+00 0.  1.
         22   -1    0    0    0    0 -0.00000000000E+00 -0.00000000000E+00 -0.23845069221E+01  0.23845069221E+01  0.00000000000E+00 0. -1.
          4    1    1    2  501    0 -0.34640013991E+01 -0.12977146930E+01  0.32022492852E+01  0.48926239997E+01  0.00000000000E+00 0.  1.
         -4    1    1    2    0  501  0.34640013991E+01  0.12977146930E+01  0.68298849737E+00  0.37616276271E+01  0.00000000000E+00 0. -1.
<mgrwt>
<rscale>  0 0.36991038E+01</rscale>
<asrwt>0</asrwt>
<pdfrwt beam="1">0</pdfrwt>
<pdfrwt beam="2">0</pdfrwt>
<totfact> 0.10220862E+12</totfact>
</mgrwt>
</event>
<event>
 4    2  0.1985873E+006  0.2221381E+01  0.7546771E-02  0.2845763E+00
         22   -1    0    0    0    0  0.00000000000E+00  0.00000000000E+00  0.25163865011E+02  0.25163865011E+02  0.00000000000E+00 0. -1.
         22   -1    0    0    0    0 -0.00000000000E+00 -0.00000000000E+00 -0.71075680504E+00  0.71075680504E+00  0.00000000000E+00 0.  1.
          4    1    1    2  501    0  0.78936673509E+00  0.20763987871E+01  0.23235457852E+02  0.23341401701E+02  0.00000000000E+00 0. -1.
         -4    1    1    2    0  501 -0.78936673509E+00 -0.20763987871E+01  0.12176503531E+01  0.25332201144E+01  0.00000000000E+00 0.  1.
<mgrwt>
<rscale>  0 0.22213806E+01</rscale>
<asrwt>0</asrwt>
<pdfrwt beam="1">0</pdfrwt>
<pdfrwt beam="2">0</pdfrwt>
<totfact> 0.74914263E+11</totfact>
</mgrwt>
</event>
<event>
 4    2  0.1985873E+006  0.2655237E+01  0.7546771E-02  0.2643810E+00
         22   -1    0    0    0    0  0.00000000000E+00  0.00000000000E+00  0.40958843132E+00  0.40958843132E+00  0.00000000000E+00 0.  1.
         22   -1    0    0    0    0 -0.00000000000E+00 -0.00000000000E+00 -0.19013082298E+02  0.19013082298E+02  0.00000000000E+00 0. -1.
          4    1    1    2  501    0 -0.22375655653E+00  0.26457926079E+01 -0.63137019520E+01  0.68493151380E+01  0.00000000000E+00 0.  1.
         -4    1    1    2    0  501  0.22375655653E+00 -0.26457926079E+01 -0.12289791915E+02  0.12573355591E+02  0.00000000000E+00 0. -1.
<mgrwt>
<rscale>  0 0.26552374E+01</rscale>
<asrwt>0</asrwt>
<pdfrwt beam="1">0</pdfrwt>
<pdfrwt beam="2">0</pdfrwt>
<totfact> 0.19847163E+12</totfact>
</mgrwt>
</event>
<event>
 4    2  0.1985873E+006  0.2702121E+01  0.7546771E-02  0.2625615E+00
         22   -1    0    0    0    0  0.00000000000E+00  0.00000000000E+00  0.77759213671E+01  0.77759213671E+01  0.00000000000E+00 0. -1.
         22   -1    0    0    0    0 -0.00000000000E+00 -0.00000000000E+00 -0.10631615326E+01  0.10631615326E+01  0.00000000000E+00 0.  1.
          4    1    1    2  501    0 -0.26465614709E+01 -0.54513303666E+00  0.48668110172E+01  0.55666243922E+01  0.00000000000E+00 0. -1.
         -4    1    1    2    0  501  0.26465614709E+01  0.54513303666E+00  0.18459488173E+01  0.32724585075E+01  0.00000000000E+00 0.  1.
<mgrwt>
<rscale>  0 0.27021210E+01</rscale>
<asrwt>0</asrwt>
<pdfrwt beam="1">0</pdfrwt>
<pdfrwt beam="2">0</pdfrwt>
<totfact> 0.20036931E+12</totfact>
</mgrwt>
</event>
<event>
 4    2  0.1985873E+006  0.3376763E+01  0.7546771E-02  0.2415043E+00
         22   -1    0    0    0    0  0.00000000000E+00  0.00000000000E+00  0.47694726591E+02  0.47694726591E+02  0.00000000000E+00 0.  1.
         22   -1    0    0    0    0 -0.00000000000E+00 -0.00000000000E+00 -0.23987641386E+00  0.23987641386E+00  0.00000000000E+00 0. -1.
          4    1    1    2  501    0  0.31979719182E+01  0.10842062388E+01  0.25114372386E+02  0.25340367557E+02  0.00000000000E+00 0. -1.
         -4    1    1    2    0  501 -0.31979719182E+01 -0.10842062388E+01  0.22340477791E+02  0.22594235448E+02  0.00000000000E+00 0.  1.
<mgrwt>
<rscale>  0 0.33767629E+01</rscale>
<asrwt>0</asrwt>
<pdfrwt beam="1">0</pdfrwt>
<pdfrwt beam="2">0</pdfrwt>
<totfact> 0.11186266E+12</totfact>
</mgrwt>
</event>
<event>
 4    2  0.1985873E+006  0.2193977E+01  0.7546771E-02  0.2861042E+00
         22   -1    0    0    0    0  0.00000000000E+00  0.00000000000E+00  0.23463261532E+01  0.23463261532E+01  0.00000000000E+00 0.  1.
         22   -1    0    0    0    0 -0.00000000000E+00 -0.00000000000E+00 -0.20546640370E+01  0.20546640370E+01  0.00000000000E+00 0. -1.
          4    1    1    2  501    0  0.94924913839E+00 -0.19779938840E+01  0.23191695698E+00  0.22062001738E+01  0.00000000000E+00 0.  1.
         -4    1    1    2    0  501 -0.94924913839E+00  0.19779938840E+01  0.59745159185E-01  0.21947900164E+01  0.00000000000E+00 0. -1.
<mgrwt>
<rscale>  0 0.21939767E+01</rscale>
<asrwt>0</asrwt>
<pdfrwt beam="1">0</pdfrwt>
<pdfrwt beam="2">0</pdfrwt>
<totfact> 0.38583320E+12</totfact>
</mgrwt>
</event>
<event>
 4    2  0.1985873E+006  0.3022227E+01  0.7546771E-02  0.2515202E+00
         22   -1    0    0    0    0  0.00000000000E+00  0.00000000000E+00  0.27684890323E+02  0.27684890323E+02  0.00000000000E+00 0. -1.
         22   -1    0    0    0    0 -0.00000000000E+00 -0.00000000000E+00 -0.33155058235E+00  0.33155058235E+00  0.00000000000E+00 0.  1.
          4    1    1    2  501    0  0.29454870948E+01 -0.67672849351E+00  0.14658432951E+02  0.14966746883E+02  0.00000000000E+00 0.  1.
         -4    1    1    2    0  501 -0.29454870948E+01  0.67672849351E+00  0.12694906789E+02  0.13049694022E+02  0.00000000000E+00 0. -1.
<mgrwt>
<rscale>  0 0.30222269E+01</rscale>
<asrwt>0</asrwt>
<pdfrwt beam="1">0</pdfrwt>
<pdfrwt beam="2">0</pdfrwt>
<totfact> 0.15702818E+12</totfact>
</mgrwt>
</event>
<event>
 4    2  0.1985873E+006  0.4616571E+01  0.7546771E-02  0.2172949E+00
         22   -1    0    0    0    0  0.00000000000E+00  0.00000000000E+00  0.14629256318E+02  0.14629256318E+02  0.00000000000E+00 0.  1.
         22   -1    0    0    0    0 -0.00000000000E+00 -0.00000000000E+00 -0.25873134092E+01  0.25873134092E+01  0.00000000000E+00 0. -1.
          4    1    1    2  501    0 -0.32755636145E+01  0.32532156181E+01  0.11711060915E+02  0.12588156204E+02  0.00000000000E+00 0.  1.
         -4    1    1    2    0  501  0.32755636145E+01 -0.32532156181E+01  0.33088199362E+00  0.46284135234E+01  0.00000000000E+00 0. -1.
<mgrwt>
<rscale>  0 0.46165711E+01</rscale>
<asrwt>0</asrwt>
<pdfrwt beam="1">0</pdfrwt>
<pdfrwt beam="2">0</pdfrwt>
<totfact> 0.33356624E+11</totfact>
</mgrwt>
</event>
<event>
 4    2  0.1985873E+006  0.2509164E+01  0.7546771E-02  0.2704504E+00
         22   -1    0    0    0    0  0.00000000000E+00  0.00000000000E+00  0.23364534272E+02  0.23364534272E+02  0.00000000000E+00 0. -1.
         22   -1    0    0    0    0 -0.00000000000E+00 -0.00000000000E+00 -0.12145837129E+01  0.12145837129E+01  0.00000000000E+00 0.  1.
          4    1    1    2  501    0  0.74683540112E+00  0.23954419687E+01  0.21915890268E+02  0.22059060533E+02  0.00000000000E+00 0. -1.
         -4    1    1    2    0  501 -0.74683540112E+00 -0.23954419687E+01  0.23406029079E+00  0.25200574520E+01  0.00000000000E+00 0.  1.
<mgrwt>
<rscale>  0 0.25091643E+01</rscale>
<asrwt>0</asrwt>
<pdfrwt beam="1">0</pdfrwt>
<pdfrwt beam="2">0</pdfrwt>
<totfact> 0.44641880E+11</totfact>
</mgrwt>
</event>
<event>
 4    2  0.1985873E+006  0.2274378E+01  0.7546771E-02  0.2817212E+00
         22   -1    0    0    0    0  0.00000000000E+00  0.00000000000E+00  0.39731203328E+01  0.39731203328E+01  0.00000000000E+00 0.  1.
         22   -1    0    0    0    0 -0.00000000000E+00 -0.00000000000E+00 -0.34173374657E+01  0.34173374657E+01  0.00000000000E+00 0. -1.
          4    1    1    2  501    0 -0.21604356196E+01  0.71085349360E+00  0.31852099507E+01  0.39138672929E+01  0.00000000000E+00 0.  1.
         -4    1    1    2    0  501  0.21604356196E+01 -0.71085349360E+00 -0.26294270836E+01  0.34765905056E+01  0.00000000000E+00 0. -1.
<mgrwt>
<rscale>  0 0.22743779E+01</rscale>
<asrwt>0</asrwt>
<pdfrwt beam="1">0</pdfrwt>
<pdfrwt beam="2">0</pdfrwt>
<totfact> 0.11526020E+12</totfact>
</mgrwt>
</event>
<event>
 4    2  0.1985873E+006  0.2039792E+01  0.7546771E-02  0.2954372E+00
         22   -1    0    0    0    0  0.00000000000E+00  0.00000000000E+00  0.22987811819E+02  0.22987811819E+02  0.00000000000E+00 0.  1.
         22   -1    0    0    0    0 -0.00000000000E+00 -0.00000000000E+00 -0.26399899189E+00  0.26399899189E+00  0.00000000000E+00 0. -1.
          4    1    1    2  501    0  0.13268408657E+01 -0.15492724089E+01  0.17880694587E+02  0.17996666097E+02  0.00000000000E+00 0. -1.
         -4    1    1    2    0  501 -0.13268408657E+01  0.15492724089E+01  0.48431182397E+01  0.52551447139E+01  0.00000000000E+00 0.  1.
<mgrwt>
<rscale>  0 0.20397921E+01</rscale>
<asrwt>0</asrwt>
<pdfrwt beam="1">0</pdfrwt>
<pdfrwt beam="2">0</pdfrwt>
<totfact> 0.25630326E+12</totfact>
</mgrwt>
</event>
<event>
 4    2  0.1985873E+006  0.2941680E+01  0.7546771E-02  0.2540937E+00
         22   -1    0    0    0    0  0.00000000000E+00  0.00000000000E+00  0.12584921599E+01  0.12584921599E+01  0.00000000000E+00 0.  1.
         22   -1    0    0    0    0 -0.00000000000E+00 -0.00000000000E+00 -0.78139894438E+01  0.78139894438E+01  0.00000000000E+00 0. -1.
          4    1    1    2  501    0  0.28974710820E+01  0.50807726500E+00 -0.17061477102E+01  0.34006501125E+01  0.00000000000E+00 0. -1.
         -4    1    1    2    0  501 -0.28974710820E+01 -0.50807726500E+00 -0.48493495736E+01  0.56718314913E+01  0.00000000000E+00 0.  1.
<mgrwt>
<rscale>  0 0.29416800E+01</rscale>
<asrwt>0</asrwt>
<pdfrwt beam="1">0</pdfrwt>
<pdfrwt beam="2">0</pdfrwt>
<totfact> 0.16421726E+12</totfact>
</mgrwt>
</event>
<event>
 4    2  0.1985873E+006  0.3680964E+01  0.7546771E-02  0.2342769E+00
         22   -1    0    0    0    0  0.00000000000E+00  0.00000000000E+00  0.13966470235E+02  0.13966470235E+02  0.00000000000E+00 0.  1.
         22   -1    0    0    0    0 -0.00000000000E+00 -0.00000000000E+00 -0.16459224980E+01  0.16459224980E+01  0.00000000000E+00 0. -1.
          4    1    1    2  501    0 -0.32860463179E+01  0.16587321589E+01  0.11162194999E+02  0.11753471401E+02  0.00000000000E+00 0.  1.
         -4    1    1    2    0  501  0.32860463179E+01 -0.16587321589E+01  0.11583527377E+01  0.38589213316E+01  0.00000000000E+00 0. -1.
<mgrwt>
<rscale>  0 0.36809636E+01</rscale>
<asrwt>0</asrwt>
<pdfrwt beam="1">0</pdfrwt>
<pdfrwt beam="2">0</pdfrwt>
<totfact> 0.59627301E+11</totfact>
</mgrwt>
</event>
<event>
 4    2  0.1985873E+006  0.2173708E+01  0.7546771E-02  0.2872580E+00
         22   -1    0    0    0    0  0.00000000000E+00  0.00000000000E+00  0.29814026843E+01  0.29814026843E+01  0.00000000000E+00 0. -1.
         22   -1    0    0    0    0 -0.00000000000E+00 -0.00000000000E+00 -0.19644528881E+01  0.19644528881E+01  0.00000000000E+00 0.  1.
          4    1    1    2  501    0 -0.20214863835E+01 -0.79912357974E+00  0.15955733491E+01  0.26964532272E+01  0.00000000000E+00 0. -1.
         -4    1    1    2    0  501  0.20214863835E+01  0.79912357974E+00 -0.57862355288E+00  0.22494023451E+01  0.00000000000E+00 0.  1.
<mgrwt>
<rscale>  0 0.21737078E+01</rscale>
<asrwt>0</asrwt>
<pdfrwt beam="1">0</pdfrwt>
<pdfrwt beam="2">0</pdfrwt>
<totfact> 0.30746833E+12</totfact>
</mgrwt>
</event>
<event>
 4    2  0.1985873E+006  0.2061809E+01  0.7546771E-02  0.2940217E+00
         22   -1    0    0    0    0  0.00000000000E+00  0.00000000000E+00  0.23189663814E+01  0.23189663814E+01  0.00000000000E+00 0. -1.
         22   -1    0    0    0    0 -0.00000000000E+00 -0.00000000000E+00 -0.28518173118E+01  0.28518173118E+01  0.00000000000E+00 0.  1.
          4    1    1    2  501    0 -0.71122496931E+00  0.19352561824E+01  0.12787494318E+01  0.24261610742E+01  0.00000000000E+00 0. -1.
         -4    1    1    2    0  501  0.71122496931E+00 -0.19352561824E+01 -0.18116003622E+01  0.27446226190E+01  0.00000000000E+00 0.  1.
<mgrwt>
<rscale>  0 0.20618093E+01</rscale>
<asrwt>0</asrwt>
<pdfrwt beam="1">0</pdfrwt>
<pdfrwt beam="2">0</pdfrwt>
<totfact> 0.26717819E+12</totfact>
</mgrwt>
</event>
<event>
 4    2  0.1985873E+006  0.3015489E+01  0.7546771E-02  0.2517308E+00
         22   -1    0    0    0    0  0.00000000000E+00  0.00000000000E+00  0.45398962073E+01  0.45398962073E+01  0.00000000000E+00 0.  1.
         22   -1    0    0    0    0 -0.00000000000E+00 -0.00000000000E+00 -0.20064966858E+01  0.20064966858E+01  0.00000000000E+00 0. -1.
          4    1    1    2  501    0  0.27614019843E+01  0.12115427564E+01  0.14043498930E+01  0.33264659012E+01  0.00000000000E+00 0.  1.
         -4    1    1    2    0  501 -0.27614019843E+01 -0.12115427564E+01  0.11290496284E+01  0.32199269919E+01  0.00000000000E+00 0. -1.
<mgrwt>
<rscale>  0 0.30154895E+01</rscale>
<asrwt>0</asrwt>
<pdfrwt beam="1">0</pdfrwt>
<pdfrwt beam="2">0</pdfrwt>
<totfact> 0.18312093E+12</totfact>
</mgrwt>
</event>
<event>
 4    2  0.1985873E+006  0.6069765E+01  0.7546771E-02  0.2013487E+00
         22   -1    0    0    0    0  0.00000000000E+00  0.00000000000E+00  0.47209579403E+01  0.47209579403E+01  0.00000000000E+00 0. -1.
         22   -1    0    0    0    0 -0.00000000000E+00 -0.00000000000E+00 -0.78197399999E+01  0.78197399999E+01  0.00000000000E+00 0.  1.
          4    1    1    2  501    0 -0.12495102341E+01  0.59397618019E+01 -0.12674871872E+01  0.62006910791E+01  0.00000000000E+00 0.  1.
         -4    1    1    2    0  501  0.12495102341E+01 -0.59397618019E+01 -0.18312948724E+01  0.63400068611E+01  0.00000000000E+00 0. -1.
<mgrwt>
<rscale>  0 0.60697649E+01</rscale>
<asrwt>0</asrwt>
<pdfrwt beam="1">0</pdfrwt>
<pdfrwt beam="2">0</pdfrwt>
<totfact> 0.35252233E+11</totfact>
</mgrwt>
</event>
<event>
 4    2  0.1985873E+006  0.2307215E+01  0.7546771E-02  0.2800149E+00
         22   -1    0    0    0    0  0.00000000000E+00  0.00000000000E+00  0.23929470311E+00  0.23929470311E+00  0.00000000000E+00 0. -1.
         22   -1    0    0    0    0 -0.00000000000E+00 -0.00000000000E+00 -0.27236777395E+02  0.27236777395E+02  0.00000000000E+00 0.  1.
          4    1    1    2  501    0 -0.51747497104E+00  0.22484356810E+01 -0.76177536102E+01  0.79594857512E+01  0.00000000000E+00 0. -1.
         -4    1    1    2    0  501  0.51747497104E+00 -0.22484356810E+01 -0.19379729081E+02  0.19516586347E+02  0.00000000000E+00 0.  1.
<mgrwt>
<rscale>  0 0.23072155E+01</rscale>
<asrwt>0</asrwt>
<pdfrwt beam="1">0</pdfrwt>
<pdfrwt beam="2">0</pdfrwt>
<totfact> 0.23099367E+12</totfact>
</mgrwt>
</event>
<event>
 4    2  0.1985873E+006  0.2222503E+01  0.7546771E-02  0.2845145E+00
         22   -1    0    0    0    0  0.00000000000E+00  0.00000000000E+00  0.44273047545E+01  0.44273047545E+01  0.00000000000E+00 0.  1.
         22   -1    0    0    0    0 -0.00000000000E+00 -0.00000000000E+00 -0.16000684408E+01  0.16000684408E+01  0.00000000000E+00 0. -1.
          4    1    1    2  501    0 -0.12539587051E+01  0.18349675185E+01  0.30717510223E+01  0.37914604799E+01  0.00000000000E+00 0.  1.
         -4    1    1    2    0  501  0.12539587051E+01 -0.18349675185E+01 -0.24451470856E+00  0.22359127154E+01  0.00000000000E+00 0. -1.
<mgrwt>
<rscale>  0 0.22225027E+01</rscale>
<asrwt>0</asrwt>
<pdfrwt beam="1">0</pdfrwt>
<pdfrwt beam="2">0</pdfrwt>
<totfact> 0.24496465E+12</totfact>
</mgrwt>
</event>
<event>
 4    2  0.1985873E+006  0.2069276E+01  0.7546771E-02  0.2935483E+00
         22   -1    0    0    0    0  0.00000000000E+00  0.00000000000E+00  0.82955902005E-01  0.82955902005E-01  0.00000000000E+00 0.  1.
         22   -1    0    0    0    0 -0.00000000000E+00 -0.00000000000E+00 -0.52949250059E+02  0.52949250059E+02  0.00000000000E+00 0. -1.
          4    1    1    2  501    0  0.16941301800E+01  0.11882025076E+01 -0.30639798890E+02  0.30709594238E+02  0.00000000000E+00 0. -1.
         -4    1    1    2    0  501 -0.16941301800E+01 -0.11882025076E+01 -0.22226495267E+02  0.22322611723E+02  0.00000000000E+00 0.  1.
<mgrwt>
<rscale>  0 0.20692758E+01</rscale>
<asrwt>0</asrwt>
<pdfrwt beam="1">0</pdfrwt>
<pdfrwt beam="2">0</pdfrwt>
<totfact> 0.31707517E+12</totfact>
</mgrwt>
</event>
<event>
 4    2  0.1985873E+006  0.2218288E+01  0.7546771E-02  0.2847469E+00
         22   -1    0    0    0    0  0.00000000000E+00  0.00000000000E+00  0.12795686012E+01  0.12795686012E+01  0.00000000000E+00 0. -1.
         22   -1    0    0    0    0 -0.00000000000E+00 -0.00000000000E+00 -0.81763330836E+02  0.81763330836E+02  0.00000000000E+00 0.  1.
          4    1    1    2  501    0  0.10868276414E+01 -0.19338068399E+01  0.29134428785E+00  0.22373387563E+01  0.00000000000E+00 0. -1.
         -4    1    1    2    0  501 -0.10868276414E+01  0.19338068399E+01 -0.80775106522E+02  0.80805560681E+02  0.00000000000E+00 0.  1.
<mgrwt>
<rscale>  0 0.22182884E+01</rscale>
<asrwt>0</asrwt>
<pdfrwt beam="1">0</pdfrwt>
<pdfrwt beam="2">0</pdfrwt>
<totfact> 0.81536986E+10</totfact>
</mgrwt>
</event>
<event>
 4    2  0.1985873E+006  0.2039056E+01  0.7546771E-02  0.2954851E+00
         22   -1    0    0    0    0  0.00000000000E+00  0.00000000000E+00  0.10024213214E+01  0.10024213214E+01  0.00000000000E+00 0. -1.
         22   -1    0    0    0    0 -0.00000000000E+00 -0.00000000000E+00 -0.43166201696E+01  0.43166201696E+01  0.00000000000E+00 0.  1.
          4    1    1    2  501    0  0.13957760305E+01 -0.14864580947E+01 -0.21831956564E+01  0.29873218220E+01  0.00000000000E+00 0. -1.
         -4    1    1    2    0  501 -0.13957760305E+01  0.14864580947E+01 -0.11310031918E+01  0.23317196689E+01  0.00000000000E+00 0.  1.
<mgrwt>
<rscale>  0 0.20390558E+01</rscale>
<asrwt>0</asrwt>
<pdfrwt beam="1">0</pdfrwt>
<pdfrwt beam="2">0</pdfrwt>
<totfact> 0.43150372E+12</totfact>
</mgrwt>
</event>
<event>
 4    2  0.1985873E+006  0.3243968E+01  0.7546771E-02  0.2450286E+00
         22   -1    0    0    0    0  0.00000000000E+00  0.00000000000E+00  0.90418908611E+00  0.90418908611E+00  0.00000000000E+00 0. -1.
         22   -1    0    0    0    0 -0.00000000000E+00 -0.00000000000E+00 -0.67733133138E+02  0.67733133138E+02  0.00000000000E+00 0.  1.
          4    1    1    2  501    0  0.12408126509E+01  0.29972836635E+01 -0.21831226249E+01  0.39101598164E+01  0.00000000000E+00 0. -1.
         -4    1    1    2    0  501 -0.12408126509E+01 -0.29972836635E+01 -0.64645821427E+02  0.64727162408E+02  0.00000000000E+00 0.  1.
<mgrwt>
<rscale>  0 0.32439675E+01</rscale>
<asrwt>0</asrwt>
<pdfrwt beam="1">0</pdfrwt>
<pdfrwt beam="2">0</pdfrwt>
<totfact> 0.15682591E+11</totfact>
</mgrwt>
</event>
<event>
 4    2  0.1985873E+006  0.4573259E+01  0.7546771E-02  0.2179501E+00
         22   -1    0    0    0    0  0.00000000000E+00  0.00000000000E+00  0.23219446309E+01  0.23219446309E+01  0.00000000000E+00 0.  1.
         22   -1    0    0    0    0 -0.00000000000E+00 -0.00000000000E+00 -0.14624501369E+02  0.14624501369E+02  0.00000000000E+00 0. -1.
          4    1    1    2  501    0  0.42427041195E+01  0.17070904143E+01 -0.90001214990E+00  0.46609782019E+01  0.00000000000E+00 0.  1.
         -4    1    1    2    0  501 -0.42427041195E+01 -0.17070904143E+01 -0.11402544589E+02  0.12285467798E+02  0.00000000000E+00 0. -1.
<mgrwt>
<rscale>  0 0.45732588E+01</rscale>
<asrwt>0</asrwt>
<pdfrwt beam="1">0</pdfrwt>
<pdfrwt beam="2">0</pdfrwt>
<totfact> 0.37844045E+11</totfact>
</mgrwt>
</event>
<event>
 4    2  0.1985873E+006  0.2036211E+01  0.7546771E-02  0.2956703E+00
         22   -1    0    0    0    0  0.00000000000E+00  0.00000000000E+00  0.14672513653E+01  0.14672513653E+01  0.00000000000E+00 0.  1.
         22   -1    0    0    0    0 -0.00000000000E+00 -0.00000000000E+00 -0.80247197517E+01  0.80247197517E+01  0.00000000000E+00 0. -1.
          4    1    1    2  501    0  0.11279705746E+01  0.16952401347E+01  0.54130742174E+00  0.21069338994E+01  0.00000000000E+00 0.  1.
         -4    1    1    2    0  501 -0.11279705746E+01 -0.16952401347E+01 -0.70987758081E+01  0.73850372176E+01  0.00000000000E+00 0. -1.
<mgrwt>
<rscale>  0 0.20362114E+01</rscale>
<asrwt>0</asrwt>
<pdfrwt beam="1">0</pdfrwt>
<pdfrwt beam="2">0</pdfrwt>
<totfact> 0.13333514E+12</totfact>
</mgrwt>
</event>
<event>
 4    2  0.1985873E+006  0.2016843E+01  0.7546771E-02  0.2969449E+00
         22   -1    0    0    0    0  0.00000000000E+00  0.00000000000E+00  0.68667168546E+00  0.68667168546E+00  0.00000000000E+00 0. -1.
         22   -1    0    0    0    0 -0.00000000000E+00 -0.00000000000E+00 -0.68726785833E+01  0.68726785833E+01  0.00000000000E+00 0.  1.
          4    1    1    2  501    0  0.27838590588E+00  0.19975375609E+01 -0.16885295307E+01  0.26303587200E+01  0.00000000000E+00 0.  1.
         -4    1    1    2    0  501 -0.27838590588E+00 -0.19975375609E+01 -0.44974773671E+01  0.49289915488E+01  0.00000000000E+00 0. -1.
<mgrwt>
<rscale>  0 0.20168428E+01</rscale>
<asrwt>0</asrwt>
<pdfrwt beam="1">0</pdfrwt>
<pdfrwt beam="2">0</pdfrwt>
<totfact> 0.38215755E+12</totfact>
</mgrwt>
</event>
<event>
 4    2  0.1985873E+006  0.2009610E+01  0.7546771E-02  0.2974270E+00
         22   -1    0    0    0    0  0.00000000000E+00  0.00000000000E+00  0.11837805882E+01  0.11837805882E+01  0.00000000000E+00 0. -1.
         22   -1    0    0    0    0 -0.00000000000E+00 -0.00000000000E+00 -0.80456113017E+01  0.80456113017E+01  0.00000000000E+00 0.  1.
          4    1    1    2  501    0  0.50398956684E+00  0.19453861966E+01  0.71310957079E-01  0.20108749812E+01  0.00000000000E+00 0. -1.
         -4    1    1    2    0  501 -0.50398956684E+00 -0.19453861966E+01 -0.69331416705E+01  0.72185169087E+01  0.00000000000E+00 0.  1.
<mgrwt>
<rscale>  0 0.20096101E+01</rscale>
<asrwt>0</asrwt>
<pdfrwt beam="1">0</pdfrwt>
<pdfrwt beam="2">0</pdfrwt>
<totfact> 0.17005659E+12</totfact>
</mgrwt>
</event>
<event>
 4    2  0.1985873E+006  0.2187154E+01  0.7546771E-02  0.2864903E+00
         22   -1    0    0    0    0  0.00000000000E+00  0.00000000000E+00  0.26809949971E+01  0.26809949971E+01  0.00000000000E+00 0.  1.
         22   -1    0    0    0    0 -0.00000000000E+00 -0.00000000000E+00 -0.18563240302E+01  0.18563240302E+01  0.00000000000E+00 0. -1.
          4    1    1    2  501    0  0.19618342010E+01 -0.96687571544E+00 -0.34600740536E-01  0.21874275514E+01  0.00000000000E+00 0. -1.
         -4    1    1    2    0  501 -0.19618342010E+01  0.96687571544E+00  0.85927170739E+00  0.23498914759E+01  0.00000000000E+00 0.  1.
<mgrwt>
<rscale>  0 0.21871539E+01</rscale>
<asrwt>0</asrwt>
<pdfrwt beam="1">0</pdfrwt>
<pdfrwt beam="2">0</pdfrwt>
<totfact> 0.37156869E+12</totfact>
</mgrwt>
</event>
<event>
 4    2  0.1985873E+006  0.2239201E+01  0.7546771E-02  0.2836019E+00
         22   -1    0    0    0    0  0.00000000000E+00  0.00000000000E+00  0.12545937275E+01  0.12545937275E+01  0.00000000000E+00 0.  1.
         22   -1    0    0    0    0 -0.00000000000E+00 -0.00000000000E+00 -0.96859068536E+01  0.96859068536E+01  0.00000000000E+00 0. -1.
          4    1    1    2  501    0  0.14274235250E+01 -0.17252489688E+01 -0.23192093666E-01  0.22393212805E+01  0.00000000000E+00 0.  1.
         -4    1    1    2    0  501 -0.14274235250E+01  0.17252489688E+01 -0.84081210325E+01  0.87011793006E+01  0.00000000000E+00 0. -1.
<mgrwt>
<rscale>  0 0.22392012E+01</rscale>
<asrwt>0</asrwt>
<pdfrwt beam="1">0</pdfrwt>
<pdfrwt beam="2">0</pdfrwt>
<totfact> 0.12722174E+12</totfact>
</mgrwt>
</event>
<event>
 4    2  0.1985873E+006  0.2213687E+01  0.7546771E-02  0.2850016E+00
         22   -1    0    0    0    0  0.00000000000E+00  0.00000000000E+00  0.83002346392E+01  0.83002346392E+01  0.00000000000E+00 0.  1.
         22   -1    0    0    0    0 -0.00000000000E+00 -0.00000000000E+00 -0.64442662947E+00  0.64442662947E+00  0.00000000000E+00 0. -1.
          4    1    1    2  501    0 -0.13148837163E+00  0.22097782774E+01  0.25328884818E+01  0.33639163617E+01  0.00000000000E+00 0. -1.
         -4    1    1    2    0  501  0.13148837163E+00 -0.22097782774E+01  0.51229195279E+01  0.55807449070E+01  0.00000000000E+00 0.  1.
<mgrwt>
<rscale>  0 0.22136868E+01</rscale>
<asrwt>0</asrwt>
<pdfrwt beam="1">0</pdfrwt>
<pdfrwt beam="2">0</pdfrwt>
<totfact> 0.32753300E+12</totfact>
</mgrwt>
</event>
<event>
 4    2  0.1985873E+006  0.2944740E+01  0.7546771E-02  0.2539936E+00
         22   -1    0    0    0    0  0.00000000000E+00  0.00000000000E+00  0.16081817828E+00  0.16081817828E+00  0.00000000000E+00 0. -1.
         22   -1    0    0    0    0 -0.00000000000E+00 -0.00000000000E+00 -0.65639196066E+02  0.65639196066E+02  0.00000000000E+00 0.  1.
          4    1    1    2  501    0  0.26220671437E+01 -0.13402458766E+01 -0.18838297336E+02  0.19067064317E+02  0.00000000000E+00 0. -1.
         -4    1    1    2    0  501 -0.26220671437E+01  0.13402458766E+01 -0.46640080551E+02  0.46732949928E+02  0.00000000000E+00 0.  1.
<mgrwt>
<rscale>  0 0.29447402E+01</rscale>
<asrwt>0</asrwt>
<pdfrwt beam="1">0</pdfrwt>
<pdfrwt beam="2">0</pdfrwt>
<totfact> 0.11422665E+12</totfact>
</mgrwt>
</event>
<event>
 4    2  0.1985873E+006  0.4591831E+01  0.7546771E-02  0.2176679E+00
         22   -1    0    0    0    0  0.00000000000E+00  0.00000000000E+00  0.33333316491E+02  0.33333316491E+02  0.00000000000E+00 0. -1.
         22   -1    0    0    0    0 -0.00000000000E+00 -0.00000000000E+00 -0.22707013312E+01  0.22707013312E+01  0.00000000000E+00 0.  1.
          4    1    1    2  501    0 -0.35014251016E+00  0.45784620053E+01  0.30651813256E+02  0.30993847292E+02  0.00000000000E+00 0. -1.
         -4    1    1    2    0  501  0.35014251016E+00 -0.45784620053E+01  0.41080190415E+00  0.46101705300E+01  0.00000000000E+00 0.  1.
<mgrwt>
<rscale>  0 0.45918312E+01</rscale>
<asrwt>0</asrwt>
<pdfrwt beam="1">0</pdfrwt>
<pdfrwt beam="2">0</pdfrwt>
<totfact> 0.13821263E+11</totfact>
</mgrwt>
</event>
<event>
 4    2  0.1985873E+006  0.2851120E+01  0.7546771E-02  0.2571429E+00
         22   -1    0    0    0    0  0.00000000000E+00  0.00000000000E+00  0.36865855478E+01  0.36865855478E+01  0.00000000000E+00 0. -1.
         22   -1    0    0    0    0 -0.00000000000E+00 -0.00000000000E+00 -0.11248938677E+02  0.11248938677E+02  0.00000000000E+00 0.  1.
          4    1    1    2  501    0 -0.27042759519E+01  0.90320460340E+00  0.29147969504E+01  0.40773678080E+01  0.00000000000E+00 0. -1.
         -4    1    1    2    0  501  0.27042759519E+01 -0.90320460340E+00 -0.10477150079E+02  0.10858156417E+02  0.00000000000E+00 0.  1.
<mgrwt>
<rscale>  0 0.28511203E+01</rscale>
<asrwt>0</asrwt>
<pdfrwt beam="1">0</pdfrwt>
<pdfrwt beam="2">0</pdfrwt>
<totfact> 0.30403255E+11</totfact>
</mgrwt>
</event>
<event>
 4    2  0.1985873E+006  0.2939120E+01  0.7546771E-02  0.2541776E+00
         22   -1    0    0    0    0  0.00000000000E+00  0.00000000000E+00  0.45077434412E+00  0.45077434412E+00  0.00000000000E+00 0. -1.
         22   -1    0    0    0    0 -0.00000000000E+00 -0.00000000000E+00 -0.33460304024E+02  0.33460304024E+02  0.00000000000E+00 0.  1.
          4    1    1    2  501    0 -0.16390016200E+01  0.24396927365E+01 -0.54215509716E+01  0.61669799656E+01  0.00000000000E+00 0. -1.
         -4    1    1    2    0  501  0.16390016200E+01 -0.24396927365E+01 -0.27587978708E+02  0.27744098403E+02  0.00000000000E+00 0.  1.
<mgrwt>
<rscale>  0 0.29391201E+01</rscale>
<asrwt>0</asrwt>
<pdfrwt beam="1">0</pdfrwt>
<pdfrwt beam="2">0</pdfrwt>
<totfact> 0.87280350E+11</totfact>
</mgrwt>
</event>
<event>
 4    2  0.1985873E+006  0.2853629E+01  0.7546771E-02  0.2570561E+00
         22   -1    0    0    0    0  0.00000000000E+00  0.00000000000E+00  0.20705479926E+01  0.20705479926E+01  0.00000000000E+00 0. -1.
         22   -1    0    0    0    0 -0.00000000000E+00 -0.00000000000E+00 -0.40135232793E+01  0.40135232793E+01  0.00000000000E+00 0.  1.
          4    1    1    2  501    0  0.24487490546E+01  0.14652053720E+01 -0.54025761194E+00  0.29043204027E+01  0.00000000000E+00 0.  1.
         -4    1    1    2    0  501 -0.24487490546E+01 -0.14652053720E+01 -0.14027176748E+01  0.31797508691E+01  0.00000000000E+00 0. -1.
<mgrwt>
<rscale>  0 0.28536290E+01</rscale>
<asrwt>0</asrwt>
<pdfrwt beam="1">0</pdfrwt>
<pdfrwt beam="2">0</pdfrwt>
<totfact> 0.20418512E+12</totfact>
</mgrwt>
</event>
<event>
 4    2  0.1985873E+006  0.2223847E+01  0.7546771E-02  0.2844405E+00
         22   -1    0    0    0    0  0.00000000000E+00  0.00000000000E+00  0.36704663759E+00  0.36704663759E+00  0.00000000000E+00 0. -1.
         22   -1    0    0    0    0 -0.00000000000E+00 -0.00000000000E+00 -0.31243506085E+02  0.31243506085E+02  0.00000000000E+00 0.  1.
          4    1    1    2  501    0  0.22104365489E+01 -0.24385433590E+00 -0.35185950692E+01  0.41624519138E+01  0.00000000000E+00 0. -1.
         -4    1    1    2    0  501 -0.22104365489E+01  0.24385433590E+00 -0.27357864378E+02  0.27448100808E+02  0.00000000000E+00 0.  1.
<mgrwt>
<rscale>  0 0.22238468E+01</rscale>
<asrwt>0</asrwt>
<pdfrwt beam="1">0</pdfrwt>
<pdfrwt beam="2">0</pdfrwt>
<totfact> 0.12008004E+12</totfact>
</mgrwt>
</event>
<event>
 4    2  0.1985873E+006  0.4418513E+01  0.7546771E-02  0.2203786E+00
         22   -1    0    0    0    0  0.00000000000E+00  0.00000000000E+00  0.43022069986E+00  0.43022069986E+00  0.00000000000E+00 0.  1.
         22   -1    0    0    0    0 -0.00000000000E+00 -0.00000000000E+00 -0.58416720947E+02  0.58416720947E+02  0.00000000000E+00 0. -1.
          4    1    1    2  501    0 -0.35689844080E+01 -0.26049196364E+01 -0.15093222371E+02  0.15726684888E+02  0.00000000000E+00 0.  1.
         -4    1    1    2    0  501  0.35689844080E+01  0.26049196364E+01 -0.42893277876E+02  0.43120256759E+02  0.00000000000E+00 0. -1.
<mgrwt>
<rscale>  0 0.44185129E+01</rscale>
<asrwt>0</asrwt>
<pdfrwt beam="1">0</pdfrwt>
<pdfrwt beam="2">0</pdfrwt>
<totfact> 0.44391854E+11</totfact>
</mgrwt>
</event>
<event>
 4    2  0.1985873E+006  0.4128200E+01  0.7546771E-02  0.2253439E+00
         22   -1    0    0    0    0  0.00000000000E+00  0.00000000000E+00  0.63627200288E+01  0.63627200288E+01  0.00000000000E+00 0. -1.
         22   -1    0    0    0    0 -0.00000000000E+00 -0.00000000000E+00 -0.39882556951E+01  0.39882556951E+01  0.00000000000E+00 0.  1.
          4    1    1    2  501    0 -0.40464933325E+01 -0.81726871517E+00  0.41532121223E+01  0.58558694807E+01  0.00000000000E+00 0. -1.
         -4    1    1    2    0  501  0.40464933325E+01  0.81726871517E+00 -0.17787477886E+01  0.44951062432E+01  0.00000000000E+00 0.  1.
<mgrwt>
<rscale>  0 0.41282001E+01</rscale>
<asrwt>0</asrwt>
<pdfrwt beam="1">0</pdfrwt>
<pdfrwt beam="2">0</pdfrwt>
<totfact> 0.55044238E+11</totfact>
</mgrwt>
</event>
<event>
 4    2  0.1985873E+006  0.3095370E+01  0.7546771E-02  0.2492875E+00
         22   -1    0    0    0    0  0.00000000000E+00  0.00000000000E+00  0.26211167055E+01  0.26211167055E+01  0.00000000000E+00 0. -1.
         22   -1    0    0    0    0 -0.00000000000E+00 -0.00000000000E+00 -0.21350671948E+02  0.21350671948E+02  0.00000000000E+00 0.  1.
          4    1    1    2  501    0 -0.29553242158E+01 -0.92052820278E+00  0.15469345311E+01  0.34603930176E+01  0.00000000000E+00 0. -1.
         -4    1    1    2    0  501  0.29553242158E+01  0.92052820278E+00 -0.20276489774E+02  0.20511395636E+02  0.00000000000E+00 0.  1.
<mgrwt>
<rscale>  0 0.30953697E+01</rscale>
<asrwt>0</asrwt>
<pdfrwt beam="1">0</pdfrwt>
<pdfrwt beam="2">0</pdfrwt>
<totfact> 0.20561233E+11</totfact>
</mgrwt>
</event>
<event>
 4    2  0.1985873E+006  0.3012410E+01  0.7546771E-02  0.2518273E+00
         22   -1    0    0    0    0  0.00000000000E+00  0.00000000000E+00  0.49924206151E+00  0.49924206151E+00  0.00000000000E+00 0.  1.
         22   -1    0    0    0    0 -0.00000000000E+00 -0.00000000000E+00 -0.33263016633E+02  0.33263016633E+02  0.00000000000E+00 0. -1.
          4    1    1    2  501    0 -0.25666432612E+01 -0.15770082773E+01 -0.50131782948E+01  0.58486382477E+01  0.00000000000E+00 0.  1.
         -4    1    1    2    0  501  0.25666432612E+01  0.15770082773E+01 -0.27750596276E+02  0.27913620446E+02  0.00000000000E+00 0. -1.
<mgrwt>
<rscale>  0 0.30124098E+01</rscale>
<asrwt>0</asrwt>
<pdfrwt beam="1">0</pdfrwt>
<pdfrwt beam="2">0</pdfrwt>
<totfact> 0.78372903E+11</totfact>
</mgrwt>
</event>
<event>
 4    2  0.1985873E+006  0.2065560E+01  0.7546771E-02  0.2937835E+00
         22   -1    0    0    0    0  0.00000000000E+00  0.00000000000E+00  0.12006159073E+01  0.12006159073E+01  0.00000000000E+00 0.  1.
         22   -1    0    0    0    0 -0.00000000000E+00 -0.00000000000E+00 -0.35539817973E+01  0.35539817973E+01  0.00000000000E+00 0. -1.
          4    1    1    2  501    0  0.20015339676E+01 -0.51029239655E+00 -0.12005623855E+01  0.23891183719E+01  0.00000000000E+00 0. -1.
         -4    1    1    2    0  501 -0.20015339676E+01  0.51029239655E+00 -0.11528035044E+01  0.23654793327E+01  0.00000000000E+00 0.  1.
<mgrwt>
<rscale>  0 0.20655596E+01</rscale>
<asrwt>0</asrwt>
<pdfrwt beam="1">0</pdfrwt>
<pdfrwt beam="2">0</pdfrwt>
<totfact> 0.44122480E+12</totfact>
</mgrwt>
</event>
<event>
 4    2  0.1985873E+006  0.2120303E+01  0.7546771E-02  0.2903999E+00
         22   -1    0    0    0    0  0.00000000000E+00  0.00000000000E+00  0.88037786753E+01  0.88037786753E+01  0.00000000000E+00 0.  1.
         22   -1    0    0    0    0 -0.00000000000E+00 -0.00000000000E+00 -0.51141049942E+00  0.51141049942E+00  0.00000000000E+00 0. -1.
          4    1    1    2  501    0 -0.20900210321E+01 -0.35706938130E+00  0.43252970295E+01  0.48170406736E+01  0.00000000000E+00 0. -1.
         -4    1    1    2    0  501  0.20900210321E+01  0.35706938130E+00  0.39670711464E+01  0.44981485011E+01  0.00000000000E+00 0.  1.
<mgrwt>
<rscale>  0 0.21203034E+01</rscale>
<asrwt>0</asrwt>
<pdfrwt beam="1">0</pdfrwt>
<pdfrwt beam="2">0</pdfrwt>
<totfact> 0.39633493E+12</totfact>
</mgrwt>
</event>
<event>
 4    2  0.1985873E+006  0.2089516E+01  0.7546771E-02  0.2922816E+00
         22   -1    0    0    0    0  0.00000000000E+00  0.00000000000E+00  0.62436358378E+01  0.62436358378E+01  0.00000000000E+00 0.  1.
         22   -1    0    0    0    0 -0.00000000000E+00 -0.00000000000E+00 -0.70772124104E+00  0.70772124104E+00  0.00000000000E+00 0. -1.
          4    1    1    2  501    0  0.40001673594E+00 -0.20508685577E+01  0.23884620905E+01  0.31734565363E+01  0.00000000000E+00 0. -1.
         -4    1    1    2    0  501 -0.40001673594E+00  0.20508685577E+01  0.31474525063E+01  0.37779005425E+01  0.00000000000E+00 0.  1.
<mgrwt>
<rscale>  0 0.20895155E+01</rscale>
<asrwt>0</asrwt>
<pdfrwt beam="1">0</pdfrwt>
<pdfrwt beam="2">0</pdfrwt>
<totfact> 0.41412352E+12</totfact>
</mgrwt>
</event>
<event>
 4    2  0.1985873E+006  0.3852782E+01  0.7546771E-02  0.2306351E+00
         22   -1    0    0    0    0  0.00000000000E+00  0.00000000000E+00  0.17219641175E+01  0.17219641175E+01  0.00000000000E+00 0. -1.
         22   -1    0    0    0    0 -0.00000000000E+00 -0.00000000000E+00 -0.86244346736E+01  0.86244346736E+01  0.00000000000E+00 0.  1.
          4    1    1    2  501    0 -0.20227252489E+01 -0.32791023971E+01 -0.35638455620E+01  0.52483259381E+01  0.00000000000E+00 0. -1.
         -4    1    1    2    0  501  0.20227252489E+01  0.32791023971E+01 -0.33386249941E+01  0.50980728530E+01  0.00000000000E+00 0.  1.
<mgrwt>
<rscale>  0 0.38527821E+01</rscale>
<asrwt>0</asrwt>
<pdfrwt beam="1">0</pdfrwt>
<pdfrwt beam="2">0</pdfrwt>
<totfact> 0.10168475E+12</totfact>
</mgrwt>
</event>
<event>
 4    2  0.1985873E+006  0.2349493E+01  0.7546771E-02  0.2778848E+00
         22   -1    0    0    0    0  0.00000000000E+00  0.00000000000E+00  0.27129371457E+00  0.27129371457E+00  0.00000000000E+00 0. -1.
         22   -1    0    0    0    0 -0.00000000000E+00 -0.00000000000E+00 -0.20674285820E+02  0.20674285820E+02  0.00000000000E+00 0.  1.
          4    1    1    2  501    0 -0.30007351593E+00 -0.23302514650E+01 -0.88845766998E+01  0.91899847192E+01  0.00000000000E+00 0.  1.
         -4    1    1    2    0  501  0.30007351593E+00  0.23302514650E+01 -0.11518415405E+02  0.11755594815E+02  0.00000000000E+00 0. -1.
<mgrwt>
<rscale>  0 0.23494927E+01</rscale>
<asrwt>0</asrwt>
<pdfrwt beam="1">0</pdfrwt>
<pdfrwt beam="2">0</pdfrwt>
<totfact> 0.28393994E+12</totfact>
</mgrwt>
</event>
<event>
 4    2  0.1985873E+006  0.2127109E+01  0.7546771E-02  0.2899910E+00
         22   -1    0    0    0    0  0.00000000000E+00  0.00000000000E+00  0.14302601573E+02  0.14302601573E+02  0.00000000000E+00 0.  1.
         22   -1    0    0    0    0 -0.00000000000E+00 -0.00000000000E+00 -0.31709143669E+00  0.31709143669E+00  0.00000000000E+00 0. -1.
          4    1    1    2  501    0 -0.15898307713E+01  0.14131634539E+01  0.66386988760E+01  0.69711488002E+01  0.00000000000E+00 0.  1.
         -4    1    1    2    0  501  0.15898307713E+01 -0.14131634539E+01  0.73468112601E+01  0.76485442092E+01  0.00000000000E+00 0. -1.
<mgrwt>
<rscale>  0 0.21271090E+01</rscale>
<asrwt>0</asrwt>
<pdfrwt beam="1">0</pdfrwt>
<pdfrwt beam="2">0</pdfrwt>
<totfact> 0.37619516E+12</totfact>
</mgrwt>
</event>
<event>
 4    2  0.1985873E+006  0.2218494E+01  0.7546771E-02  0.2847355E+00
         22   -1    0    0    0    0  0.00000000000E+00  0.00000000000E+00  0.13560623480E+02  0.13560623480E+02  0.00000000000E+00 0. -1.
         22   -1    0    0    0    0 -0.00000000000E+00 -0.00000000000E+00 -0.56143664534E+00  0.56143664534E+00  0.00000000000E+00 0.  1.
          4    1    1    2  501    0 -0.33674051790E+00 -0.21927887333E+01  0.10698075834E+02  0.10925682732E+02  0.00000000000E+00 0. -1.
         -4    1    1    2    0  501  0.33674051790E+00  0.21927887333E+01  0.23011110011E+01  0.31963773940E+01  0.00000000000E+00 0.  1.
<mgrwt>
<rscale>  0 0.22184942E+01</rscale>
<asrwt>0</asrwt>
<pdfrwt beam="1">0</pdfrwt>
<pdfrwt beam="2">0</pdfrwt>
<totfact> 0.21100605E+12</totfact>
</mgrwt>
</event>
<event>
 4    2  0.1985873E+006  0.2371600E+01  0.7546771E-02  0.2767995E+00
         22   -1    0    0    0    0  0.00000000000E+00  0.00000000000E+00  0.26912470737E+00  0.26912470737E+00  0.00000000000E+00 0. -1.
         22   -1    0    0    0    0 -0.00000000000E+00 -0.00000000000E+00 -0.22685795802E+02  0.22685795802E+02  0.00000000000E+00 0.  1.
          4    1    1    2  501    0  0.18925773983E+01  0.14292078169E+01 -0.14429293499E+02  0.14622892842E+02  0.00000000000E+00 0. -1.
         -4    1    1    2    0  501 -0.18925773983E+01 -0.14292078169E+01 -0.79873775961E+01  0.83320276677E+01  0.00000000000E+00 0.  1.
<mgrwt>
<rscale>  0 0.23715995E+01</rscale>
<asrwt>0</asrwt>
<pdfrwt beam="1">0</pdfrwt>
<pdfrwt beam="2">0</pdfrwt>
<totfact> 0.25506370E+12</totfact>
</mgrwt>
</event>
<event>
 4    2  0.1985873E+006  0.2177576E+01  0.7546771E-02  0.2870362E+00
         22   -1    0    0    0    0  0.00000000000E+00  0.00000000000E+00  0.82296645730E+00  0.82296645730E+00  0.00000000000E+00 0. -1.
         22   -1    0    0    0    0 -0.00000000000E+00 -0.00000000000E+00 -0.58369150717E+01  0.58369150717E+01  0.00000000000E+00 0.  1.
          4    1    1    2  501    0 -0.21725184866E+01  0.14833157505E+00 -0.28845116215E+01  0.36141729517E+01  0.00000000000E+00 0. -1.
         -4    1    1    2    0  501  0.21725184866E+01 -0.14833157505E+00 -0.21294369929E+01  0.30457085772E+01  0.00000000000E+00 0.  1.
<mgrwt>
<rscale>  0 0.21775764E+01</rscale>
<asrwt>0</asrwt>
<pdfrwt beam="1">0</pdfrwt>
<pdfrwt beam="2">0</pdfrwt>
<totfact> 0.37800034E+12</totfact>
</mgrwt>
</event>
<event>
 4    2  0.1985873E+006  0.2029725E+01  0.7546771E-02  0.2960945E+00
         22   -1    0    0    0    0  0.00000000000E+00  0.00000000000E+00  0.21542288218E+01  0.21542288218E+01  0.00000000000E+00 0. -1.
         22   -1    0    0    0    0 -0.00000000000E+00 -0.00000000000E+00 -0.21732792304E+01  0.21732792304E+01  0.00000000000E+00 0.  1.
          4    1    1    2  501    0 -0.59576057072E+00 -0.19403227003E+01  0.74012058384E+00  0.21604539609E+01  0.00000000000E+00 0. -1.
         -4    1    1    2    0  501  0.59576057072E+00  0.19403227003E+01 -0.75917099247E+00  0.21670540913E+01  0.00000000000E+00 0.  1.
<mgrwt>
<rscale>  0 0.20297248E+01</rscale>
<asrwt>0</asrwt>
<pdfrwt beam="1">0</pdfrwt>
<pdfrwt beam="2">0</pdfrwt>
<totfact> 0.39919205E+12</totfact>
</mgrwt>
</event>
<event>
 4    2  0.1985873E+006  0.2133484E+01  0.7546771E-02  0.2896103E+00
         22   -1    0    0    0    0  0.00000000000E+00  0.00000000000E+00  0.11593683890E+02  0.11593683890E+02  0.00000000000E+00 0.  1.
         22   -1    0    0    0    0 -0.00000000000E+00 -0.00000000000E+00 -0.87480027952E+00  0.87480027952E+00  0.00000000000E+00 0. -1.
          4    1    1    2  501    0  0.20176940737E+01 -0.69330059018E+00  0.99879392675E+01  0.10213260297E+02  0.00000000000E+00 0.  1.
         -4    1    1    2    0  501 -0.20176940737E+01  0.69330059018E+00  0.73094434323E+00  0.22552238728E+01  0.00000000000E+00 0. -1.
<mgrwt>
<rscale>  0 0.21334843E+01</rscale>
<asrwt>0</asrwt>
<pdfrwt beam="1">0</pdfrwt>
<pdfrwt beam="2">0</pdfrwt>
<totfact> 0.15444487E+12</totfact>
</mgrwt>
</event>
<event>
 4    2  0.1985873E+006  0.2220915E+01  0.7546771E-02  0.2846019E+00
         22   -1    0    0    0    0  0.00000000000E+00  0.00000000000E+00  0.13333896029E+03  0.13333896029E+03  0.00000000000E+00 0.  1.
         22   -1    0    0    0    0 -0.00000000000E+00 -0.00000000000E+00 -0.64172211452E-01  0.64172211452E-01  0.00000000000E+00 0. -1.
          4    1    1    2  501    0  0.21053185553E+01  0.70717528075E+00  0.11004738015E+03  0.11006978850E+03  0.00000000000E+00 0.  1.
         -4    1    1    2    0  501 -0.21053185553E+01 -0.70717528075E+00  0.23227407933E+02  0.23333344003E+02  0.00000000000E+00 0. -1.
<mgrwt>
<rscale>  0 0.22209149E+01</rscale>
<asrwt>0</asrwt>
<pdfrwt beam="1">0</pdfrwt>
<pdfrwt beam="2">0</pdfrwt>
<totfact> 0.11714255E+12</totfact>
</mgrwt>
</event>
<event>
 4    2  0.1985873E+006  0.2195077E+01  0.7546771E-02  0.2860421E+00
         22   -1    0    0    0    0  0.00000000000E+00  0.00000000000E+00  0.70658297799E+00  0.70658297799E+00  0.00000000000E+00 0.  1.
         22   -1    0    0    0    0 -0.00000000000E+00 -0.00000000000E+00 -0.72673436355E+01  0.72673436355E+01  0.00000000000E+00 0. -1.
          4    1    1    2  501    0 -0.21877840036E+01  0.17878110392E+00 -0.42703954447E+01  0.48015246311E+01  0.00000000000E+00 0. -1.
         -4    1    1    2    0  501  0.21877840036E+01 -0.17878110392E+00 -0.22903652129E+01  0.31724019824E+01  0.00000000000E+00 0.  1.
<mgrwt>
<rscale>  0 0.21950767E+01</rscale>
<asrwt>0</asrwt>
<pdfrwt beam="1">0</pdfrwt>
<pdfrwt beam="2">0</pdfrwt>
<totfact> 0.34606573E+12</totfact>
</mgrwt>
</event>
<event>
 4    2  0.1985873E+006  0.2528276E+01  0.7546771E-02  0.2696194E+00
         22   -1    0    0    0    0  0.00000000000E+00  0.00000000000E+00  0.17831903211E+01  0.17831903211E+01  0.00000000000E+00 0. -1.
         22   -1    0    0    0    0 -0.00000000000E+00 -0.00000000000E+00 -0.36566004950E+01  0.36566004950E+01  0.00000000000E+00 0.  1.
          4    1    1    2  501    0  0.10491527538E+01 -0.23003167383E+01 -0.55527091155E+00  0.25885332493E+01  0.00000000000E+00 0.  1.
         -4    1    1    2    0  501 -0.10491527538E+01  0.23003167383E+01 -0.13181392624E+01  0.28512575668E+01  0.00000000000E+00 0. -1.
<mgrwt>
<rscale>  0 0.25282758E+01</rscale>
<asrwt>0</asrwt>
<pdfrwt beam="1">0</pdfrwt>
<pdfrwt beam="2">0</pdfrwt>
<totfact> 0.27077063E+12</totfact>
</mgrwt>
</event>
<event>
 4    2  0.1985873E+006  0.2000644E+01  0.7546771E-02  0.2980294E+00
         22   -1    0    0    0    0  0.00000000000E+00  0.00000000000E+00  0.72038790036E+00  0.72038790036E+00  0.00000000000E+00 0.  1.
         22   -1    0    0    0    0 -0.00000000000E+00 -0.00000000000E+00 -0.16511609544E+02  0.16511609544E+02  0.00000000000E+00 0. -1.
          4    1    1    2  501    0 -0.11794951771E+01  0.16159731871E+01 -0.87740082990E+00  0.21845847273E+01  0.00000000000E+00 0.  1.
         -4    1    1    2    0  501  0.11794951771E+01 -0.16159731871E+01 -0.14913820814E+02  0.15047412718E+02  0.00000000000E+00 0. -1.
<mgrwt>
<rscale>  0 0.20006444E+01</rscale>
<asrwt>0</asrwt>
<pdfrwt beam="1">0</pdfrwt>
<pdfrwt beam="2">0</pdfrwt>
<totfact> 0.12483452E+12</totfact>
</mgrwt>
</event>
<event>
 4    2  0.1985873E+006  0.2272023E+01  0.7546771E-02  0.2818454E+00
         22   -1    0    0    0    0  0.00000000000E+00  0.00000000000E+00  0.11950377215E+02  0.11950377215E+02  0.00000000000E+00 0.  1.
         22   -1    0    0    0    0 -0.00000000000E+00 -0.00000000000E+00 -0.14696865943E+01  0.14696865943E+01  0.00000000000E+00 0. -1.
          4    1    1    2  501    0 -0.17360156613E+01 -0.14657204731E+01  0.10878716433E+02  0.11113440426E+02  0.00000000000E+00 0.  1.
         -4    1    1    2    0  501  0.17360156613E+01  0.14657204731E+01 -0.39802581256E+00  0.23066233826E+01  0.00000000000E+00 0. -1.
<mgrwt>
<rscale>  0 0.22720226E+01</rscale>
<asrwt>0</asrwt>
<pdfrwt beam="1">0</pdfrwt>
<pdfrwt beam="2">0</pdfrwt>
<totfact> 0.82196655E+11</totfact>
</mgrwt>
</event>
<event>
 4    2  0.1985873E+006  0.2621912E+01  0.7546771E-02  0.2657106E+00
         22   -1    0    0    0    0  0.00000000000E+00  0.00000000000E+00  0.10412401262E+02  0.10412401262E+02  0.00000000000E+00 0. -1.
         22   -1    0    0    0    0 -0.00000000000E+00 -0.00000000000E+00 -0.91558433371E+00  0.91558433371E+00  0.00000000000E+00 0.  1.
          4    1    1    2  501    0  0.22156554638E+01  0.14018894247E+01  0.77396943425E+01  0.81717373679E+01  0.00000000000E+00 0. -1.
         -4    1    1    2    0  501 -0.22156554638E+01 -0.14018894247E+01  0.17571225855E+01  0.31562482275E+01  0.00000000000E+00 0.  1.
<mgrwt>
<rscale>  0 0.26219121E+01</rscale>
<asrwt>0</asrwt>
<pdfrwt beam="1">0</pdfrwt>
<pdfrwt beam="2">0</pdfrwt>
<totfact> 0.16709373E+12</totfact>
</mgrwt>
</event>
<event>
 4    2  0.1985873E+006  0.2196386E+01  0.7546771E-02  0.2859684E+00
         22   -1    0    0    0    0  0.00000000000E+00  0.00000000000E+00  0.15162717187E+01  0.15162717187E+01  0.00000000000E+00 0. -1.
         22   -1    0    0    0    0 -0.00000000000E+00 -0.00000000000E+00 -0.53888534741E+01  0.53888534741E+01  0.00000000000E+00 0.  1.
          4    1    1    2  501    0 -0.10295053353E+01 -0.19401620412E+01  0.27335856406E+00  0.22133311741E+01  0.00000000000E+00 0. -1.
         -4    1    1    2    0  501  0.10295053353E+01  0.19401620412E+01 -0.41459403195E+01  0.46917940188E+01  0.00000000000E+00 0.  1.
<mgrwt>
<rscale>  0 0.21963857E+01</rscale>
<asrwt>0</asrwt>
<pdfrwt beam="1">0</pdfrwt>
<pdfrwt beam="2">0</pdfrwt>
<totfact> 0.20654006E+12</totfact>
</mgrwt>
</event>
<event>
 4    2  0.1985873E+006  0.2048297E+01  0.7546771E-02  0.2948869E+00
         22   -1    0    0    0    0  0.00000000000E+00  0.00000000000E+00  0.13330203750E+02  0.13330203750E+02  0.00000000000E+00 0.  1.
         22   -1    0    0    0    0 -0.00000000000E+00 -0.00000000000E+00 -0.32551372877E+00  0.32551372877E+00  0.00000000000E+00 0. -1.
          4    1    1    2  501    0 -0.81038969938E+00  0.18811669290E+01  0.52600492744E+01  0.56447886452E+01  0.00000000000E+00 0. -1.
         -4    1    1    2    0  501  0.81038969938E+00 -0.18811669290E+01  0.77446407469E+01  0.80109288337E+01  0.00000000000E+00 0.  1.
<mgrwt>
<rscale>  0 0.20482970E+01</rscale>
<asrwt>0</asrwt>
<pdfrwt beam="1">0</pdfrwt>
<pdfrwt beam="2">0</pdfrwt>
<totfact> 0.39822108E+12</totfact>
</mgrwt>
</event>
<event>
 4    2  0.1985873E+006  0.2041856E+01  0.7546771E-02  0.2953033E+00
         22   -1    0    0    0    0  0.00000000000E+00  0.00000000000E+00  0.73816744528E-01  0.73816744528E-01  0.00000000000E+00 0.  1.
         22   -1    0    0    0    0 -0.00000000000E+00 -0.00000000000E+00 -0.82373901489E+02  0.82373901489E+02  0.00000000000E+00 0. -1.
          4    1    1    2  501    0  0.83578790463E+00 -0.18629642076E+01 -0.18037286065E+02  0.18152489242E+02  0.00000000000E+00 0.  1.
         -4    1    1    2    0  501 -0.83578790463E+00  0.18629642076E+01 -0.64262798679E+02  0.64295228992E+02  0.00000000000E+00 0. -1.
<mgrwt>
<rscale>  0 0.20418563E+01</rscale>
<asrwt>0</asrwt>
<pdfrwt beam="1">0</pdfrwt>
<pdfrwt beam="2">0</pdfrwt>
<totfact> 0.19859347E+12</totfact>
</mgrwt>
</event>
<event>
 4    2  0.1985873E+006  0.2187626E+01  0.7546771E-02  0.2864635E+00
         22   -1    0    0    0    0  0.00000000000E+00  0.00000000000E+00  0.11713659186E+02  0.11713659186E+02  0.00000000000E+00 0. -1.
         22   -1    0    0    0    0 -0.00000000000E+00 -0.00000000000E+00 -0.13039889747E+01  0.13039889747E+01  0.00000000000E+00 0.  1.
          4    1    1    2  501    0  0.57159535432E+00  0.21116312750E+01  0.10598471394E+02  0.10821890028E+02  0.00000000000E+00 0. -1.
         -4    1    1    2    0  501 -0.57159535432E+00 -0.21116312750E+01 -0.18880118264E+00  0.21957581326E+01  0.00000000000E+00 0.  1.
<mgrwt>
<rscale>  0 0.21876261E+01</rscale>
<asrwt>0</asrwt>
<pdfrwt beam="1">0</pdfrwt>
<pdfrwt beam="2">0</pdfrwt>
<totfact> 0.96631487E+11</totfact>
</mgrwt>
</event>
<event>
 4    2  0.1985873E+006  0.3625929E+01  0.7546771E-02  0.2355062E+00
         22   -1    0    0    0    0  0.00000000000E+00  0.00000000000E+00  0.19509055881E+01  0.19509055881E+01  0.00000000000E+00 0.  1.
         22   -1    0    0    0    0 -0.00000000000E+00 -0.00000000000E+00 -0.82950465715E+01  0.82950465715E+01  0.00000000000E+00 0. -1.
          4    1    1    2  501    0 -0.28350811329E+00 -0.36148282796E+01 -0.95331543551E+00  0.37491559931E+01  0.00000000000E+00 0. -1.
         -4    1    1    2    0  501  0.28350811329E+00  0.36148282796E+01 -0.53908255479E+01  0.64967961665E+01  0.00000000000E+00 0.  1.
<mgrwt>
<rscale>  0 0.36259289E+01</rscale>
<asrwt>0</asrwt>
<pdfrwt beam="1">0</pdfrwt>
<pdfrwt beam="2">0</pdfrwt>
<totfact> 0.92252852E+11</totfact>
</mgrwt>
</event>
<event>
 4    2  0.1985873E+006  0.2537103E+01  0.7546771E-02  0.2692395E+00
         22   -1    0    0    0    0  0.00000000000E+00  0.00000000000E+00  0.28407221644E+00  0.28407221644E+00  0.00000000000E+00 0. -1.
         22   -1    0    0    0    0 -0.00000000000E+00 -0.00000000000E+00 -0.22788521525E+02  0.22788521525E+02  0.00000000000E+00 0.  1.
          4    1    1    2  501    0  0.13331066275E+01 -0.21586378943E+01 -0.10383669716E+02  0.10689129413E+02  0.00000000000E+00 0.  1.
         -4    1    1    2    0  501 -0.13331066275E+01  0.21586378943E+01 -0.12120779592E+02  0.12383464328E+02  0.00000000000E+00 0. -1.
<mgrwt>
<rscale>  0 0.25371028E+01</rscale>
<asrwt>0</asrwt>
<pdfrwt beam="1">0</pdfrwt>
<pdfrwt beam="2">0</pdfrwt>
<totfact> 0.23872618E+12</totfact>
</mgrwt>
</event>
<event>
 4    2  0.1985873E+006  0.2317881E+01  0.7546771E-02  0.2794706E+00
         22   -1    0    0    0    0  0.00000000000E+00  0.00000000000E+00  0.11666847893E+02  0.11666847893E+02  0.00000000000E+00 0. -1.
         22   -1    0    0    0    0 -0.00000000000E+00 -0.00000000000E+00 -0.46062562795E+00  0.46062562795E+00  0.00000000000E+00 0.  1.
          4    1    1    2  501    0  0.17975758300E+01 -0.14633164153E+01  0.57035809809E+01  0.61565745185E+01  0.00000000000E+00 0. -1.
         -4    1    1    2    0  501 -0.17975758300E+01  0.14633164153E+01  0.55026412843E+01  0.59708990027E+01  0.00000000000E+00 0.  1.
<mgrwt>
<rscale>  0 0.23178813E+01</rscale>
<asrwt>0</asrwt>
<pdfrwt beam="1">0</pdfrwt>
<pdfrwt beam="2">0</pdfrwt>
<totfact> 0.31709812E+12</totfact>
</mgrwt>
</event>
<event>
 4    2  0.1985873E+006  0.3104101E+01  0.7546771E-02  0.2490273E+00
         22   -1    0    0    0    0  0.00000000000E+00  0.00000000000E+00  0.65282429073E+02  0.65282429073E+02  0.00000000000E+00 0. -1.
         22   -1    0    0    0    0 -0.00000000000E+00 -0.00000000000E+00 -0.19734407120E+00  0.19734407120E+00  0.00000000000E+00 0.  1.
          4    1    1    2  501    0  0.25521678205E+01 -0.17668853646E+01  0.48980656084E+02  0.49078917214E+02  0.00000000000E+00 0. -1.
         -4    1    1    2    0  501 -0.25521678205E+01  0.17668853646E+01  0.16104428917E+02  0.16400855930E+02  0.00000000000E+00 0.  1.
<mgrwt>
<rscale>  0 0.31041012E+01</rscale>
<asrwt>0</asrwt>
<pdfrwt beam="1">0</pdfrwt>
<pdfrwt beam="2">0</pdfrwt>
<totfact> 0.91608721E+11</totfact>
</mgrwt>
</event>
<event>
 4    2  0.1985873E+006  0.2026714E+01  0.7546771E-02  0.2962923E+00
         22   -1    0    0    0    0  0.00000000000E+00  0.00000000000E+00  0.76846458935E+00  0.76846458935E+00  0.00000000000E+00 0.  1.
         22   -1    0    0    0    0 -0.00000000000E+00 -0.00000000000E+00 -0.55126144520E+01  0.55126144520E+01  0.00000000000E+00 0. -1.
          4    1    1    2  501    0 -0.18077736625E+01 -0.91625538426E+00 -0.29194287261E+01  0.35539602742E+01  0.00000000000E+00 0.  1.
         -4    1    1    2    0  501  0.18077736625E+01  0.91625538426E+00 -0.18247211366E+01  0.27271187671E+01  0.00000000000E+00 0. -1.
<mgrwt>
<rscale>  0 0.20267140E+01</rscale>
<asrwt>0</asrwt>
<pdfrwt beam="1">0</pdfrwt>
<pdfrwt beam="2">0</pdfrwt>
<totfact> 0.43734711E+12</totfact>
</mgrwt>
</event>
<event>
 4    2  0.1985873E+006  0.3877166E+01  0.7546771E-02  0.2301408E+00
         22   -1    0    0    0    0  0.00000000000E+00  0.00000000000E+00  0.72562399560E+01  0.72562399560E+01  0.00000000000E+00 0.  1.
         22   -1    0    0    0    0 -0.00000000000E+00 -0.00000000000E+00 -0.21771021008E+02  0.21771021008E+02  0.00000000000E+00 0. -1.
          4    1    1    2  501    0 -0.22732501375E+00 -0.38704955824E+01  0.65484485803E+01  0.76101636989E+01  0.00000000000E+00 0.  1.
         -4    1    1    2    0  501  0.22732501375E+00  0.38704955824E+01 -0.21063229632E+02  0.21417097265E+02  0.00000000000E+00 0. -1.
<mgrwt>
<rscale>  0 0.38771656E+01</rscale>
<asrwt>0</asrwt>
<pdfrwt beam="1">0</pdfrwt>
<pdfrwt beam="2">0</pdfrwt>
<totfact> 0.60344058E+10</totfact>
</mgrwt>
</event>
<event>
 4    2  0.1985873E+006  0.2107298E+01  0.7546771E-02  0.2911882E+00
         22   -1    0    0    0    0  0.00000000000E+00  0.00000000000E+00  0.70855678703E+00  0.70855678703E+00  0.00000000000E+00 0. -1.
         22   -1    0    0    0    0 -0.00000000000E+00 -0.00000000000E+00 -0.76108113033E+01  0.76108113033E+01  0.00000000000E+00 0.  1.
          4    1    1    2  501    0  0.35776362295E+00  0.20767065485E+01 -0.51988521390E+01  0.56097030635E+01  0.00000000000E+00 0. -1.
         -4    1    1    2    0  501 -0.35776362295E+00 -0.20767065485E+01 -0.17034023773E+01  0.27096650268E+01  0.00000000000E+00 0.  1.
<mgrwt>
<rscale>  0 0.21072980E+01</rscale>
<asrwt>0</asrwt>
<pdfrwt beam="1">0</pdfrwt>
<pdfrwt beam="2">0</pdfrwt>
<totfact> 0.32639056E+12</totfact>
</mgrwt>
</event>
<event>
 4    2  0.1985873E+006  0.2014134E+01  0.7546771E-02  0.2971250E+00
         22   -1    0    0    0    0  0.00000000000E+00  0.00000000000E+00  0.71568701361E+02  0.71568701361E+02  0.00000000000E+00 0.  1.
         22   -1    0    0    0    0 -0.00000000000E+00 -0.00000000000E+00 -0.64731420163E+00  0.64731420163E+00  0.00000000000E+00 0. -1.
          4    1    1    2  501    0  0.20003458270E+01  0.23527315225E+00  0.69951560523E+02  0.69980551273E+02  0.00000000000E+00 0.  1.
         -4    1    1    2    0  501 -0.20003458270E+01 -0.23527315225E+00  0.96982663581E+00  0.22354642890E+01  0.00000000000E+00 0. -1.
<mgrwt>
<rscale>  0 0.20141343E+01</rscale>
<asrwt>0</asrwt>
<pdfrwt beam="1">0</pdfrwt>
<pdfrwt beam="2">0</pdfrwt>
<totfact> 0.21276470E+11</totfact>
</mgrwt>
</event>
<event>
 4    2  0.1985873E+006  0.2145478E+01  0.7546771E-02  0.2889000E+00
         22   -1    0    0    0    0  0.00000000000E+00  0.00000000000E+00  0.67375470085E+01  0.67375470085E+01  0.00000000000E+00 0. -1.
         22   -1    0    0    0    0 -0.00000000000E+00 -0.00000000000E+00 -0.82227361114E+00  0.82227361114E+00  0.00000000000E+00 0.  1.
          4    1    1    2  501    0  0.59703122190E+00 -0.20607353205E+01  0.45121675305E+01  0.49962718265E+01  0.00000000000E+00 0. -1.
         -4    1    1    2    0  501 -0.59703122190E+00  0.20607353205E+01  0.14031058670E+01  0.25635487932E+01  0.00000000000E+00 0.  1.
<mgrwt>
<rscale>  0 0.21454781E+01</rscale>
<asrwt>0</asrwt>
<pdfrwt beam="1">0</pdfrwt>
<pdfrwt beam="2">0</pdfrwt>
<totfact> 0.31887495E+12</totfact>
</mgrwt>
</event>
<event>
 4    2  0.1985873E+006  0.3139513E+01  0.7546771E-02  0.2479850E+00
         22   -1    0    0    0    0  0.00000000000E+00  0.00000000000E+00  0.50097034123E+01  0.50097034123E+01  0.00000000000E+00 0.  1.
         22   -1    0    0    0    0 -0.00000000000E+00 -0.00000000000E+00 -0.47925911807E+01  0.47925911807E+01  0.00000000000E+00 0. -1.
          4    1    1    2  501    0  0.29848547124E+01  0.97323275804E+00  0.38715160326E+01  0.49844935597E+01  0.00000000000E+00 0.  1.
         -4    1    1    2    0  501 -0.29848547124E+01 -0.97323275804E+00 -0.36544038010E+01  0.48178010333E+01  0.00000000000E+00 0. -1.
<mgrwt>
<rscale>  0 0.31395126E+01</rscale>
<asrwt>0</asrwt>
<pdfrwt beam="1">0</pdfrwt>
<pdfrwt beam="2">0</pdfrwt>
<totfact> 0.58880232E+11</totfact>
</mgrwt>
</event>
<event>
 4    2  0.1985873E+006  0.2215892E+01  0.7546771E-02  0.2848794E+00
         22   -1    0    0    0    0  0.00000000000E+00  0.00000000000E+00  0.30120319117E+02  0.30120319117E+02  0.00000000000E+00 0. -1.
         22   -1    0    0    0    0 -0.00000000000E+00 -0.00000000000E+00 -0.36599405325E+00  0.36599405325E+00  0.00000000000E+00 0.  1.
          4    1    1    2  501    0 -0.22157430516E+01 -0.25714018700E-01  0.26228824109E+02  0.26322260401E+02  0.00000000000E+00 0. -1.
         -4    1    1    2    0  501  0.22157430516E+01  0.25714018700E-01  0.35255009540E+01  0.41640527684E+01  0.00000000000E+00 0.  1.
<mgrwt>
<rscale>  0 0.22158923E+01</rscale>
<asrwt>0</asrwt>
<pdfrwt beam="1">0</pdfrwt>
<pdfrwt beam="2">0</pdfrwt>
<totfact> 0.12623004E+12</totfact>
</mgrwt>
</event>
<event>
 4    2  0.1985873E+006  0.2650694E+01  0.7546771E-02  0.2645604E+00
         22   -1    0    0    0    0  0.00000000000E+00  0.00000000000E+00  0.26141680567E+01  0.26141680567E+01  0.00000000000E+00 0. -1.
         22   -1    0    0    0    0 -0.00000000000E+00 -0.00000000000E+00 -0.33100270428E+01  0.33100270428E+01  0.00000000000E+00 0.  1.
          4    1    1    2  501    0 -0.11534373327E+01  0.23865797720E+01  0.93641664400E+00  0.28112375957E+01  0.00000000000E+00 0. -1.
         -4    1    1    2    0  501  0.11534373327E+01 -0.23865797720E+01 -0.16322756301E+01  0.31129575039E+01  0.00000000000E+00 0.  1.
<mgrwt>
<rscale>  0 0.26506944E+01</rscale>
<asrwt>0</asrwt>
<pdfrwt beam="1">0</pdfrwt>
<pdfrwt beam="2">0</pdfrwt>
<totfact> 0.19529394E+12</totfact>
</mgrwt>
</event>
<event>
 4    2  0.1985873E+006  0.2325513E+01  0.7546771E-02  0.2790840E+00
         22   -1    0    0    0    0  0.00000000000E+00  0.00000000000E+00  0.65878758083E+01  0.65878758083E+01  0.00000000000E+00 0.  1.
         22   -1    0    0    0    0 -0.00000000000E+00 -0.00000000000E+00 -0.83252655386E+00  0.83252655386E+00  0.00000000000E+00 0. -1.
          4    1    1    2  501    0  0.20943498373E+01 -0.10107953432E+01  0.24392814768E+01  0.33701784211E+01  0.00000000000E+00 0. -1.
         -4    1    1    2    0  501 -0.20943498373E+01  0.10107953432E+01  0.33160677776E+01  0.40502239410E+01  0.00000000000E+00 0.  1.
<mgrwt>
<rscale>  0 0.23255125E+01</rscale>
<asrwt>0</asrwt>
<pdfrwt beam="1">0</pdfrwt>
<pdfrwt beam="2">0</pdfrwt>
<totfact> 0.32296888E+12</totfact>
</mgrwt>
</event>
<event>
 4    2  0.1985873E+006  0.2584660E+01  0.7546771E-02  0.2672343E+00
         22   -1    0    0    0    0  0.00000000000E+00  0.00000000000E+00  0.66703457374E+00  0.66703457374E+00  0.00000000000E+00 0.  1.
         22   -1    0    0    0    0 -0.00000000000E+00 -0.00000000000E+00 -0.10027892663E+02  0.10027892663E+02  0.00000000000E+00 0. -1.
          4    1    1    2  501    0  0.19005236244E+01  0.17517071908E+01 -0.48708624052E+01  0.55141426078E+01  0.00000000000E+00 0. -1.
         -4    1    1    2    0  501 -0.19005236244E+01 -0.17517071908E+01 -0.44899956845E+01  0.51807846294E+01  0.00000000000E+00 0.  1.
<mgrwt>
<rscale>  0 0.25846602E+01</rscale>
<asrwt>0</asrwt>
<pdfrwt beam="1">0</pdfrwt>
<pdfrwt beam="2">0</pdfrwt>
<totfact> 0.25071567E+12</totfact>
</mgrwt>
</event>
<event>
 4    2  0.1985873E+006  0.2655376E+01  0.7546771E-02  0.2643755E+00
         22   -1    0    0    0    0  0.00000000000E+00  0.00000000000E+00  0.30022448446E+01  0.30022448446E+01  0.00000000000E+00 0. -1.
         22   -1    0    0    0    0 -0.00000000000E+00 -0.00000000000E+00 -0.25363219107E+01  0.25363219107E+01  0.00000000000E+00 0.  1.
          4    1    1    2  501    0  0.17121363043E+01 -0.20296828624E+01  0.98638914773E+00  0.28326642577E+01  0.00000000000E+00 0.  1.
         -4    1    1    2    0  501 -0.17121363043E+01  0.20296828624E+01 -0.52046621380E+00  0.27059024975E+01  0.00000000000E+00 0. -1.
<mgrwt>
<rscale>  0 0.26553763E+01</rscale>
<asrwt>0</asrwt>
<pdfrwt beam="1">0</pdfrwt>
<pdfrwt beam="2">0</pdfrwt>
<totfact> 0.22674891E+12</totfact>
</mgrwt>
</event>
<event>
 4    2  0.1985873E+006  0.1229246E+02  0.7546771E-02  0.1697403E+00
         22   -1    0    0    0    0  0.00000000000E+00  0.00000000000E+00  0.17935761808E+01  0.17935761808E+01  0.00000000000E+00 0.  1.
         22   -1    0    0    0    0 -0.00000000000E+00 -0.00000000000E+00 -0.84835967553E+02  0.84835967553E+02  0.00000000000E+00 0. -1.
          4    1    1    2  501    0  0.40653735735E+01 -0.11600745536E+02 -0.37914115100E+02  0.39857053116E+02  0.00000000000E+00 0.  1.
         -4    1    1    2    0  501 -0.40653735735E+01  0.11600745536E+02 -0.45128276273E+02  0.46772490618E+02  0.00000000000E+00 0. -1.
<mgrwt>
<rscale>  0 0.12292459E+02</rscale>
<asrwt>0</asrwt>
<pdfrwt beam="1">0</pdfrwt>
<pdfrwt beam="2">0</pdfrwt>
<totfact> 0.52541673E+10</totfact>
</mgrwt>
</event>
<event>
 4    2  0.1985873E+006  0.2194763E+01  0.7546771E-02  0.2860598E+00
         22   -1    0    0    0    0  0.00000000000E+00  0.00000000000E+00  0.19729798092E+01  0.19729798092E+01  0.00000000000E+00 0. -1.
         22   -1    0    0    0    0 -0.00000000000E+00 -0.00000000000E+00 -0.27895779532E+01  0.27895779532E+01  0.00000000000E+00 0.  1.
          4    1    1    2  501    0  0.15981017777E+01 -0.15043456840E+01  0.43288974058E+00  0.22370468829E+01  0.00000000000E+00 0. -1.
         -4    1    1    2    0  501 -0.15981017777E+01  0.15043456840E+01 -0.12494878846E+01  0.25255108795E+01  0.00000000000E+00 0.  1.
<mgrwt>
<rscale>  0 0.21947631E+01</rscale>
<asrwt>0</asrwt>
<pdfrwt beam="1">0</pdfrwt>
<pdfrwt beam="2">0</pdfrwt>
<totfact> 0.33062356E+12</totfact>
</mgrwt>
</event>
<event>
 4    2  0.1985873E+006  0.2699605E+01  0.7546771E-02  0.2626576E+00
         22   -1    0    0    0    0  0.00000000000E+00  0.00000000000E+00  0.60611622184E+01  0.60611622184E+01  0.00000000000E+00 0.  1.
         22   -1    0    0    0    0 -0.00000000000E+00 -0.00000000000E+00 -0.13092573971E+01  0.13092573971E+01  0.00000000000E+00 0. -1.
          4    1    1    2  501    0  0.20164368911E+01  0.17949506267E+01  0.34288289835E+01  0.43640272325E+01  0.00000000000E+00 0.  1.
         -4    1    1    2    0  501 -0.20164368911E+01 -0.17949506267E+01  0.13230758378E+01  0.30063923830E+01  0.00000000000E+00 0. -1.
<mgrwt>
<rscale>  0 0.26996047E+01</rscale>
<asrwt>0</asrwt>
<pdfrwt beam="1">0</pdfrwt>
<pdfrwt beam="2">0</pdfrwt>
<totfact> 0.21261828E+12</totfact>
</mgrwt>
</event>
<event>
 4    2  0.1985873E+006  0.2530189E+01  0.7546771E-02  0.2695368E+00
         22   -1    0    0    0    0  0.00000000000E+00  0.00000000000E+00  0.97160303495E+01  0.97160303495E+01  0.00000000000E+00 0.  1.
         22   -1    0    0    0    0 -0.00000000000E+00 -0.00000000000E+00 -0.82293883212E+00  0.82293883212E+00  0.00000000000E+00 0. -1.
          4    1    1    2  501    0 -0.65985960562E+00 -0.24426302808E+01  0.20938679016E+01  0.32842259632E+01  0.00000000000E+00 0. -1.
         -4    1    1    2    0  501  0.65985960562E+00  0.24426302808E+01  0.67992236158E+01  0.72547432184E+01  0.00000000000E+00 0.  1.
<mgrwt>
<rscale>  0 0.25301892E+01</rscale>
<asrwt>0</asrwt>
<pdfrwt beam="1">0</pdfrwt>
<pdfrwt beam="2">0</pdfrwt>
<totfact> 0.20518513E+12</totfact>
</mgrwt>
</event>
<event>
 4    2  0.1985873E+006  0.2562989E+01  0.7546771E-02  0.2681395E+00
         22   -1    0    0    0    0  0.00000000000E+00  0.00000000000E+00  0.20212569985E+00  0.20212569985E+00  0.00000000000E+00 0. -1.
         22   -1    0    0    0    0 -0.00000000000E+00 -0.00000000000E+00 -0.35443904965E+02  0.35443904965E+02  0.00000000000E+00 0.  1.
          4    1    1    2  501    0 -0.24651456955E+01  0.70140385197E+00 -0.12483577037E+02  0.12743963524E+02  0.00000000000E+00 0.  1.
         -4    1    1    2    0  501  0.24651456955E+01 -0.70140385197E+00 -0.22758202228E+02  0.22902067141E+02  0.00000000000E+00 0. -1.
<mgrwt>
<rscale>  0 0.25629886E+01</rscale>
<asrwt>0</asrwt>
<pdfrwt beam="1">0</pdfrwt>
<pdfrwt beam="2">0</pdfrwt>
<totfact> 0.19924982E+12</totfact>
</mgrwt>
</event>
<event>
 4    2  0.1985873E+006  0.2997844E+01  0.7546771E-02  0.2522862E+00
         22   -1    0    0    0    0  0.00000000000E+00  0.00000000000E+00  0.76455495879E+01  0.76455495879E+01  0.00000000000E+00 0. -1.
         22   -1    0    0    0    0 -0.00000000000E+00 -0.00000000000E+00 -0.14817580258E+01  0.14817580258E+01  0.00000000000E+00 0.  1.
          4    1    1    2  501    0 -0.77792846999E+00  0.28951503073E+01  0.51567774706E+01  0.59648488571E+01  0.00000000000E+00 0. -1.
         -4    1    1    2    0  501  0.77792846999E+00 -0.28951503073E+01  0.10070140916E+01  0.31624587566E+01  0.00000000000E+00 0.  1.
<mgrwt>
<rscale>  0 0.29978439E+01</rscale>
<asrwt>0</asrwt>
<pdfrwt beam="1">0</pdfrwt>
<pdfrwt beam="2">0</pdfrwt>
<totfact> 0.13973806E+12</totfact>
</mgrwt>
</event>
<event>
 4    2  0.1985873E+006  0.3591647E+01  0.7546771E-02  0.2362884E+00
         22   -1    0    0    0    0  0.00000000000E+00  0.00000000000E+00  0.19517778857E+01  0.19517778857E+01  0.00000000000E+00 0.  1.
         22   -1    0    0    0    0 -0.00000000000E+00 -0.00000000000E+00 -0.66101010125E+01  0.66101010125E+01  0.00000000000E+00 0. -1.
          4    1    1    2  501    0 -0.35903013909E+01 -0.98305109958E-01 -0.22826795068E+01  0.42556496218E+01  0.00000000000E+00 0. -1.
         -4    1    1    2    0  501  0.35903013909E+01  0.98305109958E-01 -0.23756436199E+01  0.43062292765E+01  0.00000000000E+00 0.  1.
<mgrwt>
<rscale>  0 0.35916470E+01</rscale>
<asrwt>0</asrwt>
<pdfrwt beam="1">0</pdfrwt>
<pdfrwt beam="2">0</pdfrwt>
<totfact> 0.12103934E+12</totfact>
</mgrwt>
</event>
<event>
 4    2  0.1985873E+006  0.2789338E+01  0.7546771E-02  0.2593257E+00
         22   -1    0    0    0    0  0.00000000000E+00  0.00000000000E+00  0.16675519030E+01  0.16675519030E+01  0.00000000000E+00 0.  1.
         22   -1    0    0    0    0 -0.00000000000E+00 -0.00000000000E+00 -0.47084877281E+01  0.47084877281E+01  0.00000000000E+00 0. -1.
          4    1    1    2  501    0 -0.14260458843E+01 -0.23972486276E+01 -0.12167978133E+01  0.30431898996E+01  0.00000000000E+00 0.  1.
         -4    1    1    2    0  501  0.14260458843E+01  0.23972486276E+01 -0.18241380119E+01  0.33328497315E+01  0.00000000000E+00 0. -1.
<mgrwt>
<rscale>  0 0.27893382E+01</rscale>
<asrwt>0</asrwt>
<pdfrwt beam="1">0</pdfrwt>
<pdfrwt beam="2">0</pdfrwt>
<totfact> 0.21720251E+12</totfact>
</mgrwt>
</event>
<event>
 4    2  0.1985873E+006  0.3512366E+01  0.7546771E-02  0.2381479E+00
         22   -1    0    0    0    0  0.00000000000E+00  0.00000000000E+00  0.78677047790E+01  0.78677047790E+01  0.00000000000E+00 0. -1.
         22   -1    0    0    0    0 -0.00000000000E+00 -0.00000000000E+00 -0.15914639686E+01  0.15914639686E+01  0.00000000000E+00 0.  1.
          4    1    1    2  501    0  0.25319620146E+01  0.24343141156E+01  0.37121602131E+01  0.51104647836E+01  0.00000000000E+00 0. -1.
         -4    1    1    2    0  501 -0.25319620146E+01 -0.24343141156E+01  0.25640805973E+01  0.43487039640E+01  0.00000000000E+00 0.  1.
<mgrwt>
<rscale>  0 0.35123663E+01</rscale>
<asrwt>0</asrwt>
<pdfrwt beam="1">0</pdfrwt>
<pdfrwt beam="2">0</pdfrwt>
<totfact> 0.12435960E+12</totfact>
</mgrwt>
</event>
<event>
 4    2  0.1985873E+006  0.2091364E+01  0.7546771E-02  0.2921671E+00
         22   -1    0    0    0    0  0.00000000000E+00  0.00000000000E+00  0.20244417593E+00  0.20244417593E+00  0.00000000000E+00 0.  1.
         22   -1    0    0    0    0 -0.00000000000E+00 -0.00000000000E+00 -0.29819170076E+02  0.29819170076E+02  0.00000000000E+00 0. -1.
          4    1    1    2  501    0  0.95867512828E+00 -0.18586947337E+01 -0.69299559050E+01  0.72386527034E+01  0.00000000000E+00 0.  1.
         -4    1    1    2    0  501 -0.95867512828E+00  0.18586947337E+01 -0.22686769995E+02  0.22782961548E+02  0.00000000000E+00 0. -1.
<mgrwt>
<rscale>  0 0.20913642E+01</rscale>
<asrwt>0</asrwt>
<pdfrwt beam="1">0</pdfrwt>
<pdfrwt beam="2">0</pdfrwt>
<totfact> 0.24814514E+12</totfact>
</mgrwt>
</event>
<event>
 4    2  0.1985873E+006  0.2016968E+01  0.7546771E-02  0.2969365E+00
         22   -1    0    0    0    0  0.00000000000E+00  0.00000000000E+00  0.25961317266E+00  0.25961317266E+00  0.00000000000E+00 0. -1.
         22   -1    0    0    0    0 -0.00000000000E+00 -0.00000000000E+00 -0.17317120531E+02  0.17317120531E+02  0.00000000000E+00 0.  1.
          4    1    1    2  501    0 -0.18424920692E+01  0.82059941140E+00 -0.11239081691E+02  0.11418630289E+02  0.00000000000E+00 0.  1.
         -4    1    1    2    0  501  0.18424920692E+01 -0.82059941140E+00 -0.58184256666E+01  0.61581034140E+01  0.00000000000E+00 0. -1.
<mgrwt>
<rscale>  0 0.20169681E+01</rscale>
<asrwt>0</asrwt>
<pdfrwt beam="1">0</pdfrwt>
<pdfrwt beam="2">0</pdfrwt>
<totfact> 0.37178823E+12</totfact>
</mgrwt>
</event>
<event>
 4    2  0.1985873E+006  0.3193420E+01  0.7546771E-02  0.2464379E+00
         22   -1    0    0    0    0  0.00000000000E+00  0.00000000000E+00  0.18739122986E+00  0.18739122986E+00  0.00000000000E+00 0.  1.
         22   -1    0    0    0    0 -0.00000000000E+00 -0.00000000000E+00 -0.54420682136E+02  0.54420682136E+02  0.00000000000E+00 0. -1.
          4    1    1    2  501    0 -0.11234712354E+01 -0.29892718487E+01 -0.27074106673E+02  0.27261789852E+02  0.00000000000E+00 0.  1.
         -4    1    1    2    0  501  0.11234712354E+01  0.29892718487E+01 -0.27159184233E+02  0.27346283513E+02  0.00000000000E+00 0. -1.
<mgrwt>
<rscale>  0 0.31934204E+01</rscale>
<asrwt>0</asrwt>
<pdfrwt beam="1">0</pdfrwt>
<pdfrwt beam="2">0</pdfrwt>
<totfact> 0.12380060E+12</totfact>
</mgrwt>
</event>
<event>
 4    2  0.1985873E+006  0.3453835E+01  0.7546771E-02  0.2395684E+00
         22   -1    0    0    0    0  0.00000000000E+00  0.00000000000E+00  0.58905996613E+01  0.58905996613E+01  0.00000000000E+00 0.  1.
         22   -1    0    0    0    0 -0.00000000000E+00 -0.00000000000E+00 -0.21207844876E+01  0.21207844876E+01  0.00000000000E+00 0. -1.
          4    1    1    2  501    0  0.14506806009E+01 -0.31344061639E+01  0.10340051106E+01  0.36052937155E+01  0.00000000000E+00 0. -1.
         -4    1    1    2    0  501 -0.14506806009E+01  0.31344061639E+01  0.27358100631E+01  0.44060904334E+01  0.00000000000E+00 0.  1.
<mgrwt>
<rscale>  0 0.34538350E+01</rscale>
<asrwt>0</asrwt>
<pdfrwt beam="1">0</pdfrwt>
<pdfrwt beam="2">0</pdfrwt>
<totfact> 0.12612908E+12</totfact>
</mgrwt>
</event>
<event>
 4    2  0.1985873E+006  0.2795326E+01  0.7546771E-02  0.2591104E+00
         22   -1    0    0    0    0  0.00000000000E+00  0.00000000000E+00  0.33990920079E+02  0.33990920079E+02  0.00000000000E+00 0. -1.
         22   -1    0    0    0    0 -0.00000000000E+00 -0.00000000000E+00 -0.25547879358E+00  0.25547879358E+00  0.00000000000E+00 0.  1.
          4    1    1    2  501    0  0.11747128192E+01 -0.25365125561E+01  0.22287902772E+02  0.22462512240E+02  0.00000000000E+00 0. -1.
         -4    1    1    2    0  501 -0.11747128192E+01  0.25365125561E+01  0.11447538513E+02  0.11783886632E+02  0.00000000000E+00 0.  1.
<mgrwt>
<rscale>  0 0.27953258E+01</rscale>
<asrwt>0</asrwt>
<pdfrwt beam="1">0</pdfrwt>
<pdfrwt beam="2">0</pdfrwt>
<totfact> 0.16184983E+12</totfact>
</mgrwt>
</event>
<event>
 4    2  0.1985873E+006  0.2458032E+01  0.7546771E-02  0.2727327E+00
         22   -1    0    0    0    0  0.00000000000E+00  0.00000000000E+00  0.68841449676E+02  0.68841449676E+02  0.00000000000E+00 0.  1.
         22   -1    0    0    0    0 -0.00000000000E+00 -0.00000000000E+00 -0.14686743651E+00  0.14686743651E+00  0.00000000000E+00 0. -1.
          4    1    1    2  501    0  0.22402046978E+01  0.10116333816E+01  0.56229081657E+02  0.56282781943E+02  0.00000000000E+00 0.  1.
         -4    1    1    2    0  501 -0.22402046978E+01 -0.10116333816E+01  0.12465500583E+02  0.12705535170E+02  0.00000000000E+00 0. -1.
<mgrwt>
<rscale>  0 0.24580316E+01</rscale>
<asrwt>0</asrwt>
<pdfrwt beam="1">0</pdfrwt>
<pdfrwt beam="2">0</pdfrwt>
<totfact> 0.11847318E+12</totfact>
</mgrwt>
</event>
<event>
 4    2  0.1985873E+006  0.2005299E+01  0.7546771E-02  0.2977160E+00
         22   -1    0    0    0    0  0.00000000000E+00  0.00000000000E+00  0.11996394909E+01  0.11996394909E+01  0.00000000000E+00 0. -1.
         22   -1    0    0    0    0 -0.00000000000E+00 -0.00000000000E+00 -0.64606916226E+01  0.64606916226E+01  0.00000000000E+00 0.  1.
          4    1    1    2  501    0 -0.15621352861E+01 -0.12573611699E+01  0.26311403905E-01  0.20054715290E+01  0.00000000000E+00 0. -1.
         -4    1    1    2    0  501  0.15621352861E+01  0.12573611699E+01 -0.52873635356E+01  0.56548595846E+01  0.00000000000E+00 0.  1.
<mgrwt>
<rscale>  0 0.20052989E+01</rscale>
<asrwt>0</asrwt>
<pdfrwt beam="1">0</pdfrwt>
<pdfrwt beam="2">0</pdfrwt>
<totfact> 0.21779771E+12</totfact>
</mgrwt>
</event>
<event>
 4    2  0.1985873E+006  0.3422502E+01  0.7546771E-02  0.2403463E+00
         22   -1    0    0    0    0  0.00000000000E+00  0.00000000000E+00  0.58492011681E+01  0.58492011681E+01  0.00000000000E+00 0. -1.
         22   -1    0    0    0    0 -0.00000000000E+00 -0.00000000000E+00 -0.11049410530E+02  0.11049410530E+02  0.00000000000E+00 0.  1.
          4    1    1    2  501    0 -0.21933168401E+01 -0.26273328695E+01  0.50452846698E+01  0.60965903723E+01  0.00000000000E+00 0. -1.
         -4    1    1    2    0  501  0.21933168401E+01  0.26273328695E+01 -0.10245494031E+02  0.10802021325E+02  0.00000000000E+00 0.  1.
<mgrwt>
<rscale>  0 0.34225015E+01</rscale>
<asrwt>0</asrwt>
<pdfrwt beam="1">0</pdfrwt>
<pdfrwt beam="2">0</pdfrwt>
<totfact> 0.18008987E+11</totfact>
</mgrwt>
</event>
<event>
 4    2  0.1985873E+006  0.3335445E+01  0.7546771E-02  0.2425744E+00
         22   -1    0    0    0    0  0.00000000000E+00  0.00000000000E+00  0.35365124641E+02  0.35365124641E+02  0.00000000000E+00 0. -1.
         22   -1    0    0    0    0 -0.00000000000E+00 -0.00000000000E+00 -0.37188587544E+00  0.37188587544E+00  0.00000000000E+00 0.  1.
          4    1    1    2  501    0 -0.33338460313E+01  0.10325939092E+00  0.24510843554E+02  0.24736746827E+02  0.00000000000E+00 0. -1.
         -4    1    1    2    0  501  0.33338460313E+01 -0.10325939092E+00  0.10482395212E+02  0.11000263690E+02  0.00000000000E+00 0.  1.
<mgrwt>
<rscale>  0 0.33354448E+01</rscale>
<asrwt>0</asrwt>
<pdfrwt beam="1">0</pdfrwt>
<pdfrwt beam="2">0</pdfrwt>
<totfact> 0.10094750E+12</totfact>
</mgrwt>
</event>
<event>
 4    2  0.1985873E+006  0.2088692E+01  0.7546771E-02  0.2923327E+00
         22   -1    0    0    0    0  0.00000000000E+00  0.00000000000E+00  0.60173099778E+01  0.60173099778E+01  0.00000000000E+00 0. -1.
         22   -1    0    0    0    0 -0.00000000000E+00 -0.00000000000E+00 -0.92417714901E+00  0.92417714901E+00  0.00000000000E+00 0.  1.
          4    1    1    2  501    0 -0.15451647539E+01  0.14053820687E+01  0.41577669794E+01  0.46529194201E+01  0.00000000000E+00 0. -1.
         -4    1    1    2    0  501  0.15451647539E+01 -0.14053820687E+01  0.93536584939E+00  0.22885677066E+01  0.00000000000E+00 0.  1.
<mgrwt>
<rscale>  0 0.20886917E+01</rscale>
<asrwt>0</asrwt>
<pdfrwt beam="1">0</pdfrwt>
<pdfrwt beam="2">0</pdfrwt>
<totfact> 0.31942178E+12</totfact>
</mgrwt>
</event>
<event>
 4    2  0.1985873E+006  0.2405415E+01  0.7546771E-02  0.2751757E+00
         22   -1    0    0    0    0  0.00000000000E+00  0.00000000000E+00  0.29900359659E+00  0.29900359659E+00  0.00000000000E+00 0.  1.
         22   -1    0    0    0    0 -0.00000000000E+00 -0.00000000000E+00 -0.22515947577E+02  0.22515947577E+02  0.00000000000E+00 0. -1.
          4    1    1    2  501    0 -0.20883031120E+01  0.11937391009E+01 -0.15385348396E+02  0.15572249941E+02  0.00000000000E+00 0.  1.
         -4    1    1    2    0  501  0.20883031120E+01 -0.11937391009E+01 -0.68315955835E+01  0.72427012326E+01  0.00000000000E+00 0. -1.
<mgrwt>
<rscale>  0 0.24054153E+01</rscale>
<asrwt>0</asrwt>
<pdfrwt beam="1">0</pdfrwt>
<pdfrwt beam="2">0</pdfrwt>
<totfact> 0.22883190E+12</totfact>
</mgrwt>
</event>
<event>
 4    2  0.1985873E+006  0.2511545E+01  0.7546771E-02  0.2703462E+00
         22   -1    0    0    0    0  0.00000000000E+00  0.00000000000E+00  0.41990012110E+00  0.41990012110E+00  0.00000000000E+00 0. -1.
         22   -1    0    0    0    0 -0.00000000000E+00 -0.00000000000E+00 -0.18245469541E+02  0.18245469541E+02  0.00000000000E+00 0.  1.
          4    1    1    2  501    0  0.16935167581E+01  0.18546854406E+01 -0.12835366572E+02  0.13078780224E+02  0.00000000000E+00 0.  1.
         -4    1    1    2    0  501 -0.16935167581E+01 -0.18546854406E+01 -0.49902028474E+01  0.55865894383E+01  0.00000000000E+00 0. -1.
<mgrwt>
<rscale>  0 0.25115448E+01</rscale>
<asrwt>0</asrwt>
<pdfrwt beam="1">0</pdfrwt>
<pdfrwt beam="2">0</pdfrwt>
<totfact> 0.20313034E+12</totfact>
</mgrwt>
</event>
<event>
 4    2  0.1985873E+006  0.3122217E+01  0.7546771E-02  0.2484914E+00
         22   -1    0    0    0    0  0.00000000000E+00  0.00000000000E+00  0.84046173821E+01  0.84046173821E+01  0.00000000000E+00 0. -1.
         22   -1    0    0    0    0 -0.00000000000E+00 -0.00000000000E+00 -0.75807622406E+01  0.75807622406E+01  0.00000000000E+00 0.  1.
          4    1    1    2  501    0 -0.30910346772E+01  0.44016368109E+00  0.77678020287E+01  0.83717971666E+01  0.00000000000E+00 0. -1.
         -4    1    1    2    0  501  0.30910346772E+01 -0.44016368109E+00 -0.69439468872E+01  0.76135824560E+01  0.00000000000E+00 0.  1.
<mgrwt>
<rscale>  0 0.31222171E+01</rscale>
<asrwt>0</asrwt>
<pdfrwt beam="1">0</pdfrwt>
<pdfrwt beam="2">0</pdfrwt>
<totfact> 0.18394374E+11</totfact>
</mgrwt>
</event>
<event>
 4    2  0.1985873E+006  0.2436086E+01  0.7546771E-02  0.2737396E+00
         22   -1    0    0    0    0  0.00000000000E+00  0.00000000000E+00  0.83958178881E+00  0.83958178881E+00  0.00000000000E+00 0.  1.
         22   -1    0    0    0    0 -0.00000000000E+00 -0.00000000000E+00 -0.74121803030E+01  0.74121803030E+01  0.00000000000E+00 0. -1.
          4    1    1    2  501    0 -0.23444456640E+01  0.66188298363E+00 -0.23977670061E+01  0.34181575697E+01  0.00000000000E+00 0. -1.
         -4    1    1    2    0  501  0.23444456640E+01 -0.66188298363E+00 -0.41748315081E+01  0.48336045222E+01  0.00000000000E+00 0.  1.
<mgrwt>
<rscale>  0 0.24360859E+01</rscale>
<asrwt>0</asrwt>
<pdfrwt beam="1">0</pdfrwt>
<pdfrwt beam="2">0</pdfrwt>
<totfact> 0.27781355E+12</totfact>
</mgrwt>
</event>
<event>
 4    2  0.1985873E+006  0.2239367E+01  0.7546771E-02  0.2835929E+00
         22   -1    0    0    0    0  0.00000000000E+00  0.00000000000E+00  0.45403097833E+00  0.45403097833E+00  0.00000000000E+00 0.  1.
         22   -1    0    0    0    0 -0.00000000000E+00 -0.00000000000E+00 -0.17545371201E+02  0.17545371201E+02  0.00000000000E+00 0. -1.
          4    1    1    2  501    0  0.19342670624E+01 -0.11284397120E+01 -0.30677412051E+01  0.37981312976E+01  0.00000000000E+00 0.  1.
         -4    1    1    2    0  501 -0.19342670624E+01  0.11284397120E+01 -0.14023599018E+02  0.14201270882E+02  0.00000000000E+00 0. -1.
<mgrwt>
<rscale>  0 0.22393672E+01</rscale>
<asrwt>0</asrwt>
<pdfrwt beam="1">0</pdfrwt>
<pdfrwt beam="2">0</pdfrwt>
<totfact> 0.19524776E+12</totfact>
</mgrwt>
</event>
<event>
 4    2  0.1985873E+006  0.2972139E+01  0.7546771E-02  0.2531058E+00
         22   -1    0    0    0    0  0.00000000000E+00  0.00000000000E+00  0.10911842498E+01  0.10911842498E+01  0.00000000000E+00 0.  1.
         22   -1    0    0    0    0 -0.00000000000E+00 -0.00000000000E+00 -0.86993393752E+01  0.86993393752E+01  0.00000000000E+00 0. -1.
          4    1    1    2  501    0  0.15692118249E+01 -0.25241203148E+01 -0.25142918802E+01  0.38929773662E+01  0.00000000000E+00 0. -1.
         -4    1    1    2    0  501 -0.15692118249E+01  0.25241203148E+01 -0.50938632451E+01  0.58975462588E+01  0.00000000000E+00 0.  1.
<mgrwt>
<rscale>  0 0.29721388E+01</rscale>
<asrwt>0</asrwt>
<pdfrwt beam="1">0</pdfrwt>
<pdfrwt beam="2">0</pdfrwt>
<totfact> 0.16994526E+12</totfact>
</mgrwt>
</event>
<event>
 4    2  0.1985873E+006  0.2342806E+01  0.7546771E-02  0.2782168E+00
         22   -1    0    0    0    0  0.00000000000E+00  0.00000000000E+00  0.19885651668E+00  0.19885651668E+00  0.00000000000E+00 0. -1.
         22   -1    0    0    0    0 -0.00000000000E+00 -0.00000000000E+00 -0.39753087847E+02  0.39753087847E+02  0.00000000000E+00 0.  1.
          4    1    1    2  501    0  0.23228326397E+01 -0.30526669000E+00 -0.87327975121E+01  0.90415978462E+01  0.00000000000E+00 0. -1.
         -4    1    1    2    0  501 -0.23228326397E+01  0.30526669000E+00 -0.30821433818E+02  0.30910346517E+02  0.00000000000E+00 0.  1.
<mgrwt>
<rscale>  0 0.23428058E+01</rscale>
<asrwt>0</asrwt>
<pdfrwt beam="1">0</pdfrwt>
<pdfrwt beam="2">0</pdfrwt>
<totfact> 0.17494050E+12</totfact>
</mgrwt>
</event>
<event>
 4    2  0.1985873E+006  0.4453146E+01  0.7546771E-02  0.2198228E+00
         22   -1    0    0    0    0  0.00000000000E+00  0.00000000000E+00  0.90363833485E+00  0.90363833485E+00  0.00000000000E+00 0.  1.
         22   -1    0    0    0    0 -0.00000000000E+00 -0.00000000000E+00 -0.21945693887E+02  0.21945693887E+02  0.00000000000E+00 0. -1.
          4    1    1    2  501    0 -0.16225739337E+01 -0.41470185067E+01 -0.10576148128E+02  0.11475426698E+02  0.00000000000E+00 0.  1.
         -4    1    1    2    0  501  0.16225739337E+01  0.41470185067E+01 -0.10465907425E+02  0.11373905525E+02  0.00000000000E+00 0. -1.
<mgrwt>
<rscale>  0 0.44531459E+01</rscale>
<asrwt>0</asrwt>
<pdfrwt beam="1">0</pdfrwt>
<pdfrwt beam="2">0</pdfrwt>
<totfact> 0.67715086E+11</totfact>
</mgrwt>
</event>
<event>
 4    2  0.1985873E+006  0.3896421E+01  0.7546771E-02  0.2297542E+00
         22   -1    0    0    0    0  0.00000000000E+00  0.00000000000E+00  0.15788115292E+02  0.15788115292E+02  0.00000000000E+00 0.  1.
         22   -1    0    0    0    0 -0.00000000000E+00 -0.00000000000E+00 -0.96175579994E+00  0.96175579994E+00  0.00000000000E+00 0. -1.
          4    1    1    2  501    0  0.18723577190E+01  0.34170713213E+01  0.73121060660E+01  0.82854689042E+01  0.00000000000E+00 0. -1.
         -4    1    1    2    0  501 -0.18723577190E+01 -0.34170713213E+01  0.75142534256E+01  0.84644021873E+01  0.00000000000E+00 0.  1.
<mgrwt>
<rscale>  0 0.38964214E+01</rscale>
<asrwt>0</asrwt>
<pdfrwt beam="1">0</pdfrwt>
<pdfrwt beam="2">0</pdfrwt>
<totfact> 0.94963080E+11</totfact>
</mgrwt>
</event>
<event>
 4    2  0.1985873E+006  0.3402360E+01  0.7546771E-02  0.2408529E+00
         22   -1    0    0    0    0  0.00000000000E+00  0.00000000000E+00  0.29178357937E+00  0.29178357937E+00  0.00000000000E+00 0.  1.
         22   -1    0    0    0    0 -0.00000000000E+00 -0.00000000000E+00 -0.99787823435E+02  0.99787823435E+02  0.00000000000E+00 0. -1.
          4    1    1    2  501    0  0.23805574827E+01  0.24308433657E+01 -0.10909195134E+02  0.11427449054E+02  0.00000000000E+00 0.  1.
         -4    1    1    2    0  501 -0.23805574827E+01 -0.24308433657E+01 -0.88586844721E+02  0.88652157961E+02  0.00000000000E+00 0. -1.
<mgrwt>
<rscale>  0 0.34023600E+01</rscale>
<asrwt>0</asrwt>
<pdfrwt beam="1">0</pdfrwt>
<pdfrwt beam="2">0</pdfrwt>
<totfact> 0.32992394E+11</totfact>
</mgrwt>
</event>
<event>
 4    2  0.1985873E+006  0.5720622E+01  0.7546771E-02  0.2045687E+00
         22   -1    0    0    0    0  0.00000000000E+00  0.00000000000E+00  0.11741433196E+02  0.11741433196E+02  0.00000000000E+00 0. -1.
         22   -1    0    0    0    0 -0.00000000000E+00 -0.00000000000E+00 -0.41667985430E+01  0.41667985430E+01  0.00000000000E+00 0.  1.
          4    1    1    2  501    0 -0.30612480944E+01  0.48326263436E+01  0.83641999764E+01  0.10133378436E+02  0.00000000000E+00 0. -1.
         -4    1    1    2    0  501  0.30612480944E+01 -0.48326263436E+01 -0.78956532385E+00  0.57748533031E+01  0.00000000000E+00 0.  1.
<mgrwt>
<rscale>  0 0.57206221E+01</rscale>
<asrwt>0</asrwt>
<pdfrwt beam="1">0</pdfrwt>
<pdfrwt beam="2">0</pdfrwt>
<totfact> 0.24987879E+11</totfact>
</mgrwt>
</event>
<event>
 4    2  0.1985873E+006  0.2073298E+01  0.7546771E-02  0.2932946E+00
         22   -1    0    0    0    0  0.00000000000E+00  0.00000000000E+00  0.31946450560E+00  0.31946450560E+00  0.00000000000E+00 0. -1.
         22   -1    0    0    0    0 -0.00000000000E+00 -0.00000000000E+00 -0.16011763732E+02  0.16011763732E+02  0.00000000000E+00 0.  1.
          4    1    1    2  501    0  0.20338869368E+01 -0.40233082408E+00 -0.45835105240E+01  0.50306197319E+01  0.00000000000E+00 0. -1.
         -4    1    1    2    0  501 -0.20338869368E+01  0.40233082408E+00 -0.11108788702E+02  0.11300608505E+02  0.00000000000E+00 0.  1.
<mgrwt>
<rscale>  0 0.20732984E+01</rscale>
<asrwt>0</asrwt>
<pdfrwt beam="1">0</pdfrwt>
<pdfrwt beam="2">0</pdfrwt>
<totfact> 0.32465251E+12</totfact>
</mgrwt>
</event>
<event>
 4    2  0.1985873E+006  0.2026988E+01  0.7546771E-02  0.2962743E+00
         22   -1    0    0    0    0  0.00000000000E+00  0.00000000000E+00  0.14445356595E+00  0.14445356595E+00  0.00000000000E+00 0.  1.
         22   -1    0    0    0    0 -0.00000000000E+00 -0.00000000000E+00 -0.37035822215E+02  0.37035822215E+02  0.00000000000E+00 0. -1.
          4    1    1    2  501    0  0.71501420205E+00  0.18966904829E+01 -0.94911759467E+01  0.97052099899E+01  0.00000000000E+00 0.  1.
         -4    1    1    2    0  501 -0.71501420205E+00 -0.18966904829E+01 -0.27400192702E+02  0.27475065791E+02  0.00000000000E+00 0. -1.
<mgrwt>
<rscale>  0 0.20269879E+01</rscale>
<asrwt>0</asrwt>
<pdfrwt beam="1">0</pdfrwt>
<pdfrwt beam="2">0</pdfrwt>
<totfact> 0.27365408E+12</totfact>
</mgrwt>
</event>
<event>
 4    2  0.1985873E+006  0.2090376E+01  0.7546771E-02  0.2922283E+00
         22   -1    0    0    0    0  0.00000000000E+00  0.00000000000E+00  0.76170791620E+01  0.76170791620E+01  0.00000000000E+00 0.  1.
         22   -1    0    0    0    0 -0.00000000000E+00 -0.00000000000E+00 -0.57440128983E+00  0.57440128983E+00  0.00000000000E+00 0. -1.
          4    1    1    2  501    0  0.16530500021E+01  0.12794911081E+01  0.33749629114E+01  0.39698924996E+01  0.00000000000E+00 0. -1.
         -4    1    1    2    0  501 -0.16530500021E+01 -0.12794911081E+01  0.36677149608E+01  0.42215879523E+01  0.00000000000E+00 0.  1.
<mgrwt>
<rscale>  0 0.20903760E+01</rscale>
<asrwt>0</asrwt>
<pdfrwt beam="1">0</pdfrwt>
<pdfrwt beam="2">0</pdfrwt>
<totfact> 0.41364871E+12</totfact>
</mgrwt>
</event>
<event>
 4    2  0.1985873E+006  0.2155327E+01  0.7546771E-02  0.2883225E+00
         22   -1    0    0    0    0  0.00000000000E+00  0.00000000000E+00  0.29077951348E+01  0.29077951348E+01  0.00000000000E+00 0. -1.
         22   -1    0    0    0    0 -0.00000000000E+00 -0.00000000000E+00 -0.17888650229E+01  0.17888650229E+01  0.00000000000E+00 0.  1.
          4    1    1    2  501    0 -0.21185555436E+01 -0.39642747153E+00  0.13273780513E+01  0.25312773105E+01  0.00000000000E+00 0. -1.
         -4    1    1    2    0  501  0.21185555436E+01  0.39642747153E+00 -0.20844793936E+00  0.21653828472E+01  0.00000000000E+00 0.  1.
<mgrwt>
<rscale>  0 0.21553265E+01</rscale>
<asrwt>0</asrwt>
<pdfrwt beam="1">0</pdfrwt>
<pdfrwt beam="2">0</pdfrwt>
<totfact> 0.35275903E+12</totfact>
</mgrwt>
</event>
<event>
 4    2  0.1985873E+006  0.2265469E+01  0.7546771E-02  0.2821922E+00
         22   -1    0    0    0    0  0.00000000000E+00  0.00000000000E+00  0.12446168718E+02  0.12446168718E+02  0.00000000000E+00 0. -1.
         22   -1    0    0    0    0 -0.00000000000E+00 -0.00000000000E+00 -0.71855104807E+00  0.71855104807E+00  0.00000000000E+00 0.  1.
          4    1    1    2  501    0  0.12952292957E+01  0.18586912270E+01  0.10160619452E+02  0.10410117177E+02  0.00000000000E+00 0. -1.
         -4    1    1    2    0  501 -0.12952292957E+01 -0.18586912270E+01  0.15669982185E+01  0.27546025889E+01  0.00000000000E+00 0.  1.
<mgrwt>
<rscale>  0 0.22654695E+01</rscale>
<asrwt>0</asrwt>
<pdfrwt beam="1">0</pdfrwt>
<pdfrwt beam="2">0</pdfrwt>
<totfact> 0.17717695E+12</totfact>
</mgrwt>
</event>
<event>
 4    2  0.1985873E+006  0.2639098E+01  0.7546771E-02  0.2650211E+00
         22   -1    0    0    0    0  0.00000000000E+00  0.00000000000E+00  0.17596360376E+01  0.17596360376E+01  0.00000000000E+00 0.  1.
         22   -1    0    0    0    0 -0.00000000000E+00 -0.00000000000E+00 -0.44410012157E+01  0.44410012157E+01  0.00000000000E+00 0. -1.
          4    1    1    2  501    0 -0.24995222703E+01  0.84689120467E+00 -0.31835591112E+00  0.26582300085E+01  0.00000000000E+00 0.  1.
         -4    1    1    2    0  501  0.24995222703E+01 -0.84689120467E+00 -0.23630092670E+01  0.35424072448E+01  0.00000000000E+00 0. -1.
<mgrwt>
<rscale>  0 0.26390976E+01</rscale>
<asrwt>0</asrwt>
<pdfrwt beam="1">0</pdfrwt>
<pdfrwt beam="2">0</pdfrwt>
<totfact> 0.21874058E+12</totfact>
</mgrwt>
</event>
<event>
 4    2  0.1985873E+006  0.4894626E+01  0.7546771E-02  0.2135796E+00
         22   -1    0    0    0    0  0.00000000000E+00  0.00000000000E+00  0.67029063643E+00  0.67029063643E+00  0.00000000000E+00 0.  1.
         22   -1    0    0    0    0 -0.00000000000E+00 -0.00000000000E+00 -0.36865905786E+02  0.36865905786E+02  0.00000000000E+00 0. -1.
          4    1    1    2  501    0  0.35988309873E+01 -0.33174954981E+01 -0.14820471950E+02  0.15607810534E+02  0.00000000000E+00 0.  1.
         -4    1    1    2    0  501 -0.35988309873E+01  0.33174954981E+01 -0.21375143200E+02  0.21928385888E+02  0.00000000000E+00 0. -1.
<mgrwt>
<rscale>  0 0.48946257E+01</rscale>
<asrwt>0</asrwt>
<pdfrwt beam="1">0</pdfrwt>
<pdfrwt beam="2">0</pdfrwt>
<totfact> 0.49192686E+11</totfact>
</mgrwt>
</event>
<event>
 4    2  0.1985873E+006  0.3226771E+01  0.7546771E-02  0.2455037E+00
         22   -1    0    0    0    0  0.00000000000E+00  0.00000000000E+00  0.28527849089E+02  0.28527849089E+02  0.00000000000E+00 0. -1.
         22   -1    0    0    0    0 -0.00000000000E+00 -0.00000000000E+00 -0.52695420828E+00  0.52695420828E+00  0.00000000000E+00 0.  1.
          4    1    1    2  501    0 -0.17882635696E+01  0.26859191117E+01  0.22054725405E+02  0.22289525809E+02  0.00000000000E+00 0. -1.
         -4    1    1    2    0  501  0.17882635696E+01 -0.26859191117E+01  0.59461694760E+01  0.67652774892E+01  0.00000000000E+00 0.  1.
<mgrwt>
<rscale>  0 0.32267705E+01</rscale>
<asrwt>0</asrwt>
<pdfrwt beam="1">0</pdfrwt>
<pdfrwt beam="2">0</pdfrwt>
<totfact> 0.89700166E+11</totfact>
</mgrwt>
</event>
<event>
 4    2  0.1985873E+006  0.2052649E+01  0.7546771E-02  0.2946070E+00
         22   -1    0    0    0    0  0.00000000000E+00  0.00000000000E+00  0.45249692115E+00  0.45249692115E+00  0.00000000000E+00 0.  1.
         22   -1    0    0    0    0 -0.00000000000E+00 -0.00000000000E+00 -0.95055726154E+01  0.95055726154E+01  0.00000000000E+00 0. -1.
          4    1    1    2  501    0 -0.17825688145E+01 -0.10177498871E+01 -0.52382152431E+01  0.56260346021E+01  0.00000000000E+00 0. -1.
         -4    1    1    2    0  501  0.17825688145E+01  0.10177498871E+01 -0.38148604512E+01  0.43320349344E+01  0.00000000000E+00 0.  1.
<mgrwt>
<rscale>  0 0.20526486E+01</rscale>
<asrwt>0</asrwt>
<pdfrwt beam="1">0</pdfrwt>
<pdfrwt beam="2">0</pdfrwt>
<totfact> 0.41479971E+12</totfact>
</mgrwt>
</event>
<event>
 4    2  0.1985873E+006  0.2323965E+01  0.7546771E-02  0.2791622E+00
         22   -1    0    0    0    0  0.00000000000E+00  0.00000000000E+00  0.48802199463E+02  0.48802199463E+02  0.00000000000E+00 0. -1.
         22   -1    0    0    0    0 -0.00000000000E+00 -0.00000000000E+00 -0.12081865950E+00  0.12081865950E+00  0.00000000000E+00 0.  1.
          4    1    1    2  501    0  0.23154899155E+01 -0.19829130580E+00  0.17250204435E+02  0.17406043951E+02  0.00000000000E+00 0. -1.
         -4    1    1    2    0  501 -0.23154899155E+01  0.19829130580E+00  0.31431176368E+02  0.31516974171E+02  0.00000000000E+00 0.  1.
<mgrwt>
<rscale>  0 0.23239649E+01</rscale>
<asrwt>0</asrwt>
<pdfrwt beam="1">0</pdfrwt>
<pdfrwt beam="2">0</pdfrwt>
<totfact> 0.23292130E+12</totfact>
</mgrwt>
</event>
<event>
 4    2  0.1985873E+006  0.2291348E+01  0.7546771E-02  0.2808336E+00
         22   -1    0    0    0    0  0.00000000000E+00  0.00000000000E+00  0.35973762971E+02  0.35973762971E+02  0.00000000000E+00 0.  1.
         22   -1    0    0    0    0 -0.00000000000E+00 -0.00000000000E+00 -0.25727650272E+00  0.25727650272E+00  0.00000000000E+00 0. -1.
          4    1    1    2  501    0 -0.21110390185E+00 -0.22816028113E+01  0.59415669628E+01  0.63680840305E+01  0.00000000000E+00 0. -1.
         -4    1    1    2    0  501  0.21110390185E+00  0.22816028113E+01  0.29774919505E+02  0.29862955443E+02  0.00000000000E+00 0.  1.
<mgrwt>
<rscale>  0 0.22913481E+01</rscale>
<asrwt>0</asrwt>
<pdfrwt beam="1">0</pdfrwt>
<pdfrwt beam="2">0</pdfrwt>
<totfact> 0.14928253E+12</totfact>
</mgrwt>
</event>
<event>
 4    2  0.1985873E+006  0.2034187E+01  0.7546771E-02  0.2958024E+00
         22   -1    0    0    0    0  0.00000000000E+00  0.00000000000E+00  0.14666673151E+01  0.14666673151E+01  0.00000000000E+00 0.  1.
         22   -1    0    0    0    0 -0.00000000000E+00 -0.00000000000E+00 -0.30380465610E+01  0.30380465610E+01  0.00000000000E+00 0. -1.
          4    1    1    2  501    0  0.12097384444E+01 -0.16353749071E+01 -0.18408732223E+00  0.20425000203E+01  0.00000000000E+00 0. -1.
         -4    1    1    2    0  501 -0.12097384444E+01  0.16353749071E+01 -0.13872919237E+01  0.24622138559E+01  0.00000000000E+00 0.  1.
<mgrwt>
<rscale>  0 0.20341874E+01</rscale>
<asrwt>0</asrwt>
<pdfrwt beam="1">0</pdfrwt>
<pdfrwt beam="2">0</pdfrwt>
<totfact> 0.42133501E+12</totfact>
</mgrwt>
</event>
<event>
 4    2  0.1985873E+006  0.2034182E+01  0.7546771E-02  0.2958027E+00
         22   -1    0    0    0    0  0.00000000000E+00  0.00000000000E+00  0.77583642409E-01  0.77583642409E-01  0.00000000000E+00 0.  1.
         22   -1    0    0    0    0 -0.00000000000E+00 -0.00000000000E+00 -0.60953298404E+02  0.60953298404E+02  0.00000000000E+00 0. -1.
          4    1    1    2  501    0  0.16517429591E+01  0.11872825328E+01 -0.19649367183E+02  0.19754379901E+02  0.00000000000E+00 0. -1.
         -4    1    1    2    0  501 -0.16517429591E+01 -0.11872825328E+01 -0.41226347579E+02  0.41276502145E+02  0.00000000000E+00 0.  1.
<mgrwt>
<rscale>  0 0.20341816E+01</rscale>
<asrwt>0</asrwt>
<pdfrwt beam="1">0</pdfrwt>
<pdfrwt beam="2">0</pdfrwt>
<totfact> 0.28301656E+12</totfact>
</mgrwt>
</event>
<event>
 4    2  0.1985873E+006  0.2094702E+01  0.7546771E-02  0.2919608E+00
         22   -1    0    0    0    0  0.00000000000E+00  0.00000000000E+00  0.61165825160E+00  0.61165825160E+00  0.00000000000E+00 0. -1.
         22   -1    0    0    0    0 -0.00000000000E+00 -0.00000000000E+00 -0.71754854797E+01  0.71754854797E+01  0.00000000000E+00 0.  1.
          4    1    1    2  501    0  0.16964621971E+01 -0.12287368776E+01 -0.33453925385E+01  0.39470786080E+01  0.00000000000E+00 0. -1.
         -4    1    1    2    0  501 -0.16964621971E+01  0.12287368776E+01 -0.32184346895E+01  0.38400651233E+01  0.00000000000E+00 0.  1.
<mgrwt>
<rscale>  0 0.20947024E+01</rscale>
<asrwt>0</asrwt>
<pdfrwt beam="1">0</pdfrwt>
<pdfrwt beam="2">0</pdfrwt>
<totfact> 0.41382041E+12</totfact>
</mgrwt>
</event>
<event>
 4    2  0.1985873E+006  0.2482959E+01  0.7546771E-02  0.2716091E+00
         22   -1    0    0    0    0  0.00000000000E+00  0.00000000000E+00  0.99609447734E+00  0.99609447734E+00  0.00000000000E+00 0.  1.
         22   -1    0    0    0    0 -0.00000000000E+00 -0.00000000000E+00 -0.13494134943E+03  0.13494134943E+03  0.00000000000E+00 0. -1.
          4    1    1    2  501    0 -0.22464006340E+01  0.10577184786E+01 -0.58093680842E+00  0.25500140713E+01  0.00000000000E+00 0.  1.
         -4    1    1    2    0  501  0.22464006340E+01 -0.10577184786E+01 -0.13336431814E+03  0.13338742983E+03  0.00000000000E+00 0. -1.
<mgrwt>
<rscale>  0 0.24829588E+01</rscale>
<asrwt>0</asrwt>
<pdfrwt beam="1">0</pdfrwt>
<pdfrwt beam="2">0</pdfrwt>
<totfact> 0.53391117E+10</totfact>
</mgrwt>
</event>
<event>
 4    2  0.1985873E+006  0.2509573E+01  0.7546771E-02  0.2704324E+00
         22   -1    0    0    0    0  0.00000000000E+00  0.00000000000E+00  0.10454506120E+02  0.10454506120E+02  0.00000000000E+00 0. -1.
         22   -1    0    0    0    0 -0.00000000000E+00 -0.00000000000E+00 -0.15255992776E+01  0.15255992776E+01  0.00000000000E+00 0.  1.
          4    1    1    2  501    0  0.23139767053E+01 -0.97132415832E+00  0.91241156536E+01  0.94629511925E+01  0.00000000000E+00 0. -1.
         -4    1    1    2    0  501 -0.23139767053E+01  0.97132415832E+00 -0.19520881098E+00  0.25171542052E+01  0.00000000000E+00 0.  1.
<mgrwt>
<rscale>  0 0.25095734E+01</rscale>
<asrwt>0</asrwt>
<pdfrwt beam="1">0</pdfrwt>
<pdfrwt beam="2">0</pdfrwt>
<totfact> 0.92646966E+11</totfact>
</mgrwt>
</event>
<event>
 4    2  0.1985873E+006  0.2204341E+01  0.7546771E-02  0.2855220E+00
         22   -1    0    0    0    0  0.00000000000E+00  0.00000000000E+00  0.14522024537E+02  0.14522024537E+02  0.00000000000E+00 0.  1.
         22   -1    0    0    0    0 -0.00000000000E+00 -0.00000000000E+00 -0.45426340033E+00  0.45426340033E+00  0.00000000000E+00 0. -1.
          4    1    1    2  501    0 -0.18333166571E+01 -0.12239561328E+01  0.10877096954E+02  0.11098214123E+02  0.00000000000E+00 0.  1.
         -4    1    1    2    0  501  0.18333166571E+01  0.12239561328E+01  0.31906641827E+01  0.38780738140E+01  0.00000000000E+00 0. -1.
<mgrwt>
<rscale>  0 0.22043408E+01</rscale>
<asrwt>0</asrwt>
<pdfrwt beam="1">0</pdfrwt>
<pdfrwt beam="2">0</pdfrwt>
<totfact> 0.24642685E+12</totfact>
</mgrwt>
</event>
<event>
 4    2  0.1985873E+006  0.3693129E+01  0.7546771E-02  0.2340095E+00
         22   -1    0    0    0    0  0.00000000000E+00  0.00000000000E+00  0.18999892837E+02  0.18999892837E+02  0.00000000000E+00 0.  1.
         22   -1    0    0    0    0 -0.00000000000E+00 -0.00000000000E+00 -0.75213129992E+00  0.75213129992E+00  0.00000000000E+00 0. -1.
          4    1    1    2  501    0 -0.12856843463E+01  0.34621120337E+01  0.11232119451E+02  0.11823692796E+02  0.00000000000E+00 0.  1.
         -4    1    1    2    0  501  0.12856843463E+01 -0.34621120337E+01  0.70156420864E+01  0.79283313412E+01  0.00000000000E+00 0. -1.
<mgrwt>
<rscale>  0 0.36931293E+01</rscale>
<asrwt>0</asrwt>
<pdfrwt beam="1">0</pdfrwt>
<pdfrwt beam="2">0</pdfrwt>
<totfact> 0.99893755E+11</totfact>
</mgrwt>
</event>
<event>
 4    2  0.1985873E+006  0.2457359E+01  0.7546771E-02  0.2727633E+00
         22   -1    0    0    0    0  0.00000000000E+00  0.00000000000E+00  0.73685864162E+01  0.73685864162E+01  0.00000000000E+00 0. -1.
         22   -1    0    0    0    0 -0.00000000000E+00 -0.00000000000E+00 -0.42415591969E+01  0.42415591969E+01  0.00000000000E+00 0.  1.
          4    1    1    2  501    0 -0.33943536804E+00  0.24338025405E+01  0.67777197103E+01  0.72094448917E+01  0.00000000000E+00 0. -1.
         -4    1    1    2    0  501  0.33943536804E+00 -0.24338025405E+01 -0.36506924910E+01  0.44007007214E+01  0.00000000000E+00 0.  1.
<mgrwt>
<rscale>  0 0.24573586E+01</rscale>
<asrwt>0</asrwt>
<pdfrwt beam="1">0</pdfrwt>
<pdfrwt beam="2">0</pdfrwt>
<totfact> 0.42954963E+11</totfact>
</mgrwt>
</event>
<event>
 4    2  0.1985873E+006  0.2219618E+01  0.7546771E-02  0.2846735E+00
         22   -1    0    0    0    0  0.00000000000E+00  0.00000000000E+00  0.31583790747E+00  0.31583790747E+00  0.00000000000E+00 0.  1.
         22   -1    0    0    0    0 -0.00000000000E+00 -0.00000000000E+00 -0.21321348409E+02  0.21321348409E+02  0.00000000000E+00 0. -1.
          4    1    1    2  501    0 -0.21504248679E+01 -0.54988638653E+00 -0.48979953108E+01  0.53774585276E+01  0.00000000000E+00 0.  1.
         -4    1    1    2    0  501  0.21504248679E+01  0.54988638653E+00 -0.16107515191E+02  0.16259727789E+02  0.00000000000E+00 0. -1.
<mgrwt>
<rscale>  0 0.22196176E+01</rscale>
<asrwt>0</asrwt>
<pdfrwt beam="1">0</pdfrwt>
<pdfrwt beam="2">0</pdfrwt>
<totfact> 0.23039932E+12</totfact>
</mgrwt>
</event>
<event>
 4    2  0.1985873E+006  0.2098663E+01  0.7546771E-02  0.2917170E+00
         22   -1    0    0    0    0  0.00000000000E+00  0.00000000000E+00  0.11048493840E+02  0.11048493840E+02  0.00000000000E+00 0. -1.
         22   -1    0    0    0    0 -0.00000000000E+00 -0.00000000000E+00 -0.46700973325E+00  0.46700973325E+00  0.00000000000E+00 0.  1.
          4    1    1    2  501    0  0.27538584937E-01  0.20984818674E+01  0.74937608181E+01  0.77820842787E+01  0.00000000000E+00 0. -1.
         -4    1    1    2    0  501 -0.27538584937E-01 -0.20984818674E+01  0.30877232885E+01  0.37334192944E+01  0.00000000000E+00 0.  1.
<mgrwt>
<rscale>  0 0.20986626E+01</rscale>
<asrwt>0</asrwt>
<pdfrwt beam="1">0</pdfrwt>
<pdfrwt beam="2">0</pdfrwt>
<totfact> 0.33358498E+12</totfact>
</mgrwt>
</event>
<event>
 4    2  0.1985873E+006  0.2334371E+01  0.7546771E-02  0.2786383E+00
         22   -1    0    0    0    0  0.00000000000E+00  0.00000000000E+00  0.41189441173E+01  0.41189441173E+01  0.00000000000E+00 0. -1.
         22   -1    0    0    0    0 -0.00000000000E+00 -0.00000000000E+00 -0.13229820943E+01  0.13229820943E+01  0.00000000000E+00 0.  1.
          4    1    1    2  501    0 -0.14788251254E+01 -0.18062019718E+01  0.13979507165E+01  0.27209475408E+01  0.00000000000E+00 0. -1.
         -4    1    1    2    0  501  0.14788251254E+01  0.18062019718E+01  0.13980113065E+01  0.27209786709E+01  0.00000000000E+00 0.  1.
<mgrwt>
<rscale>  0 0.23343713E+01</rscale>
<asrwt>0</asrwt>
<pdfrwt beam="1">0</pdfrwt>
<pdfrwt beam="2">0</pdfrwt>
<totfact> 0.33192452E+12</totfact>
</mgrwt>
</event>
<event>
 4    2  0.1985873E+006  0.2054110E+01  0.7546771E-02  0.2945133E+00
         22   -1    0    0    0    0  0.00000000000E+00  0.00000000000E+00  0.37430431818E+00  0.37430431818E+00  0.00000000000E+00 0.  1.
         22   -1    0    0    0    0 -0.00000000000E+00 -0.00000000000E+00 -0.17135816265E+02  0.17135816265E+02  0.00000000000E+00 0. -1.
          4    1    1    2  501    0 -0.58075215842E+00 -0.19703031292E+01 -0.32595031085E+01  0.38527558974E+01  0.00000000000E+00 0.  1.
         -4    1    1    2    0  501  0.58075215842E+00  0.19703031292E+01 -0.13502008839E+02  0.13657364686E+02  0.00000000000E+00 0. -1.
<mgrwt>
<rscale>  0 0.20541099E+01</rscale>
<asrwt>0</asrwt>
<pdfrwt beam="1">0</pdfrwt>
<pdfrwt beam="2">0</pdfrwt>
<totfact> 0.24986499E+12</totfact>
</mgrwt>
</event>
<event>
 4    2  0.1985873E+006  0.2001422E+01  0.7546771E-02  0.2979769E+00
         22   -1    0    0    0    0  0.00000000000E+00  0.00000000000E+00  0.52007836143E+01  0.52007836143E+01  0.00000000000E+00 0. -1.
         22   -1    0    0    0    0 -0.00000000000E+00 -0.00000000000E+00 -0.96181918591E+00  0.96181918591E+00  0.00000000000E+00 0.  1.
          4    1    1    2  501    0 -0.19623131255E+01  0.39372427599E+00  0.34947791792E+01  0.40273034551E+01  0.00000000000E+00 0. -1.
         -4    1    1    2    0  501  0.19623131255E+01 -0.39372427599E+00  0.74418524913E+00  0.21352993451E+01  0.00000000000E+00 0.  1.
<mgrwt>
<rscale>  0 0.20014224E+01</rscale>
<asrwt>0</asrwt>
<pdfrwt beam="1">0</pdfrwt>
<pdfrwt beam="2">0</pdfrwt>
<totfact> 0.36291648E+12</totfact>
</mgrwt>
</event>
<event>
 4    2  0.1985873E+006  0.5788004E+01  0.7546771E-02  0.2039238E+00
         22   -1    0    0    0    0  0.00000000000E+00  0.00000000000E+00  0.96609203609E+02  0.96609203609E+02  0.00000000000E+00 0.  1.
         22   -1    0    0    0    0 -0.00000000000E+00 -0.00000000000E+00 -0.94013979482E+00  0.94013979482E+00  0.00000000000E+00 0. -1.
          4    1    1    2  501    0 -0.57170528450E+01 -0.90349070303E+00  0.86583626076E+02  0.86776870727E+02  0.00000000000E+00 0.  1.
         -4    1    1    2    0  501  0.57170528450E+01  0.90349070303E+00  0.90854377387E+01  0.10772472677E+02  0.00000000000E+00 0. -1.
<mgrwt>
<rscale>  0 0.57880039E+01</rscale>
<asrwt>0</asrwt>
<pdfrwt beam="1">0</pdfrwt>
<pdfrwt beam="2">0</pdfrwt>
<totfact> 0.92011171E+10</totfact>
</mgrwt>
</event>
<event>
 4    2  0.1985873E+006  0.2381835E+01  0.7546771E-02  0.2763034E+00
         22   -1    0    0    0    0  0.00000000000E+00  0.00000000000E+00  0.13442223849E+01  0.13442223849E+01  0.00000000000E+00 0. -1.
         22   -1    0    0    0    0 -0.00000000000E+00 -0.00000000000E+00 -0.49642165166E+01  0.49642165166E+01  0.00000000000E+00 0.  1.
          4    1    1    2  501    0  0.37160170789E+00  0.23526689057E+01 -0.58903204096E+00  0.24535887093E+01  0.00000000000E+00 0.  1.
         -4    1    1    2    0  501 -0.37160170789E+00 -0.23526689057E+01 -0.30309620907E+01  0.38548501922E+01  0.00000000000E+00 0. -1.
<mgrwt>
<rscale>  0 0.23818352E+01</rscale>
<asrwt>0</asrwt>
<pdfrwt beam="1">0</pdfrwt>
<pdfrwt beam="2">0</pdfrwt>
<totfact> 0.26145043E+12</totfact>
</mgrwt>
</event>
<event>
 4    2  0.1985873E+006  0.2040553E+01  0.7546771E-02  0.2953878E+00
         22   -1    0    0    0    0  0.00000000000E+00  0.00000000000E+00  0.27297928580E+00  0.27297928580E+00  0.00000000000E+00 0. -1.
         22   -1    0    0    0    0 -0.00000000000E+00 -0.00000000000E+00 -0.15254848609E+02  0.15254848609E+02  0.00000000000E+00 0.  1.
          4    1    1    2  501    0 -0.20125622070E+01 -0.33682167771E+00 -0.75672360135E+01  0.78375325430E+01  0.00000000000E+00 0.  1.
         -4    1    1    2    0  501  0.20125622070E+01  0.33682167771E+00 -0.74146333097E+01  0.76902953518E+01  0.00000000000E+00 0. -1.
<mgrwt>
<rscale>  0 0.20405527E+01</rscale>
<asrwt>0</asrwt>
<pdfrwt beam="1">0</pdfrwt>
<pdfrwt beam="2">0</pdfrwt>
<totfact> 0.41105409E+12</totfact>
</mgrwt>
</event>
<event>
 4    2  0.1985873E+006  0.3251357E+01  0.7546771E-02  0.2448259E+00
         22   -1    0    0    0    0  0.00000000000E+00  0.00000000000E+00  0.58429482895E+00  0.58429482895E+00  0.00000000000E+00 0. -1.
         22   -1    0    0    0    0 -0.00000000000E+00 -0.00000000000E+00 -0.12957886311E+03  0.12957886311E+03  0.00000000000E+00 0.  1.
          4    1    1    2  501    0 -0.32404091789E+01 -0.26658653112E+00 -0.41299515570E+01  0.52562172604E+01  0.00000000000E+00 0. -1.
         -4    1    1    2    0  501  0.32404091789E+01  0.26658653112E+00 -0.12486461672E+03  0.12490694067E+03  0.00000000000E+00 0.  1.
<mgrwt>
<rscale>  0 0.32513566E+01</rscale>
<asrwt>0</asrwt>
<pdfrwt beam="1">0</pdfrwt>
<pdfrwt beam="2">0</pdfrwt>
<totfact> 0.10387884E+11</totfact>
</mgrwt>
</event>
<event>
 4    2  0.1985873E+006  0.2075160E+01  0.7546771E-02  0.2931775E+00
         22   -1    0    0    0    0  0.00000000000E+00  0.00000000000E+00  0.59141591804E+01  0.59141591804E+01  0.00000000000E+00 0. -1.
         22   -1    0    0    0    0 -0.00000000000E+00 -0.00000000000E+00 -0.82599434670E+00  0.82599434670E+00  0.00000000000E+00 0.  1.
          4    1    1    2  501    0 -0.16058163964E+00  0.20689378170E+01  0.37040836955E+01  0.42457656762E+01  0.00000000000E+00 0.  1.
         -4    1    1    2    0  501  0.16058163964E+00 -0.20689378170E+01  0.13840811382E+01  0.24943878509E+01  0.00000000000E+00 0. -1.
<mgrwt>
<rscale>  0 0.20751603E+01</rscale>
<asrwt>0</asrwt>
<pdfrwt beam="1">0</pdfrwt>
<pdfrwt beam="2">0</pdfrwt>
<totfact> 0.37057241E+12</totfact>
</mgrwt>
</event>
<event>
 4    2  0.1985873E+006  0.2971719E+01  0.7546771E-02  0.2531193E+00
         22   -1    0    0    0    0  0.00000000000E+00  0.00000000000E+00  0.72062876909E+01  0.72062876909E+01  0.00000000000E+00 0. -1.
         22   -1    0    0    0    0 -0.00000000000E+00 -0.00000000000E+00 -0.14482519862E+01  0.14482519862E+01  0.00000000000E+00 0.  1.
          4    1    1    2  501    0 -0.88859417691E-01  0.29703899756E+01  0.45762013702E+01  0.54564394602E+01  0.00000000000E+00 0. -1.
         -4    1    1    2    0  501  0.88859417691E-01 -0.29703899756E+01  0.11818343346E+01  0.31981002169E+01  0.00000000000E+00 0.  1.
<mgrwt>
<rscale>  0 0.29717188E+01</rscale>
<asrwt>0</asrwt>
<pdfrwt beam="1">0</pdfrwt>
<pdfrwt beam="2">0</pdfrwt>
<totfact> 0.15400494E+12</totfact>
</mgrwt>
</event>
<event>
 4    2  0.1985873E+006  0.3860686E+01  0.7546771E-02  0.2304743E+00
         22   -1    0    0    0    0  0.00000000000E+00  0.00000000000E+00  0.27067715674E+01  0.27067715674E+01  0.00000000000E+00 0.  1.
         22   -1    0    0    0    0 -0.00000000000E+00 -0.00000000000E+00 -0.55095274118E+01  0.55095274118E+01  0.00000000000E+00 0. -1.
          4    1    1    2  501    0  0.26338054222E+01 -0.28227584290E+01 -0.14973331530E+01  0.41408818773E+01  0.00000000000E+00 0. -1.
         -4    1    1    2    0  501 -0.26338054222E+01  0.28227584290E+01 -0.13054226914E+01  0.40754171019E+01  0.00000000000E+00 0.  1.
<mgrwt>
<rscale>  0 0.38606860E+01</rscale>
<asrwt>0</asrwt>
<pdfrwt beam="1">0</pdfrwt>
<pdfrwt beam="2">0</pdfrwt>
<totfact> 0.10285100E+12</totfact>
</mgrwt>
</event>
<event>
 4    2  0.1985873E+006  0.3511736E+01  0.7546771E-02  0.2381630E+00
         22   -1    0    0    0    0  0.00000000000E+00  0.00000000000E+00  0.11976421199E+03  0.11976421199E+03  0.00000000000E+00 0.  1.
         22   -1    0    0    0    0 -0.00000000000E+00 -0.00000000000E+00 -0.20536587511E+00  0.20536587511E+00  0.00000000000E+00 0. -1.
          4    1    1    2  501    0  0.31194398157E+01 -0.16128803465E+01  0.10213545540E+03  0.10219580978E+03  0.00000000000E+00 0.  1.
         -4    1    1    2    0  501 -0.31194398157E+01  0.16128803465E+01  0.17423390718E+02  0.17773768083E+02  0.00000000000E+00 0. -1.
<mgrwt>
<rscale>  0 0.35117357E+01</rscale>
<asrwt>0</asrwt>
<pdfrwt beam="1">0</pdfrwt>
<pdfrwt beam="2">0</pdfrwt>
<totfact> 0.37690479E+11</totfact>
</mgrwt>
</event>
<event>
 4    2  0.1985873E+006  0.4691591E+01  0.7546771E-02  0.2161839E+00
         22   -1    0    0    0    0  0.00000000000E+00  0.00000000000E+00  0.59946917545E+01  0.59946917545E+01  0.00000000000E+00 0.  1.
         22   -1    0    0    0    0 -0.00000000000E+00 -0.00000000000E+00 -0.61211108620E+01  0.61211108620E+01  0.00000000000E+00 0. -1.
          4    1    1    2  501    0  0.32567498267E+01  0.33770712484E+01  0.37688580262E+01  0.60179166222E+01  0.00000000000E+00 0.  1.
         -4    1    1    2    0  501 -0.32567498267E+01 -0.33770712484E+01 -0.38952771338E+01  0.60978859943E+01  0.00000000000E+00 0. -1.
<mgrwt>
<rscale>  0 0.46915914E+01</rscale>
<asrwt>0</asrwt>
<pdfrwt beam="1">0</pdfrwt>
<pdfrwt beam="2">0</pdfrwt>
<totfact> 0.35589280E+11</totfact>
</mgrwt>
</event>
<event>
 4    2  0.1985873E+006  0.2847954E+01  0.7546771E-02  0.2572527E+00
         22   -1    0    0    0    0  0.00000000000E+00  0.00000000000E+00  0.36790476081E+02  0.36790476081E+02  0.00000000000E+00 0. -1.
         22   -1    0    0    0    0 -0.00000000000E+00 -0.00000000000E+00 -0.30451881464E+00  0.30451881464E+00  0.00000000000E+00 0.  1.
          4    1    1    2  501    0  0.21049225542E+00 -0.28401642682E+01  0.27987691876E+02  0.28132218835E+02  0.00000000000E+00 0. -1.
         -4    1    1    2    0  501 -0.21049225542E+00  0.28401642682E+01  0.84982653903E+01  0.89627760602E+01  0.00000000000E+00 0.  1.
<mgrwt>
<rscale>  0 0.28479537E+01</rscale>
<asrwt>0</asrwt>
<pdfrwt beam="1">0</pdfrwt>
<pdfrwt beam="2">0</pdfrwt>
<totfact> 0.12007148E+12</totfact>
</mgrwt>
</event>
<event>
 4    2  0.1985873E+006  0.2332497E+01  0.7546771E-02  0.2787323E+00
         22   -1    0    0    0    0  0.00000000000E+00  0.00000000000E+00  0.91201614781E+00  0.91201614781E+00  0.00000000000E+00 0.  1.
         22   -1    0    0    0    0 -0.00000000000E+00 -0.00000000000E+00 -0.88515436079E+01  0.88515436079E+01  0.00000000000E+00 0. -1.
          4    1    1    2  501    0  0.20316034475E+01  0.11459181190E+01 -0.11821815906E+01  0.26149749935E+01  0.00000000000E+00 0.  1.
         -4    1    1    2    0  501 -0.20316034475E+01 -0.11459181190E+01 -0.67573458695E+01  0.71485847623E+01  0.00000000000E+00 0. -1.
<mgrwt>
<rscale>  0 0.23324967E+01</rscale>
<asrwt>0</asrwt>
<pdfrwt beam="1">0</pdfrwt>
<pdfrwt beam="2">0</pdfrwt>
<totfact> 0.20425081E+12</totfact>
</mgrwt>
</event>
<event>
 4    2  0.1985873E+006  0.2017483E+01  0.7546771E-02  0.2969024E+00
         22   -1    0    0    0    0  0.00000000000E+00  0.00000000000E+00  0.53915685356E+01  0.53915685356E+01  0.00000000000E+00 0. -1.
         22   -1    0    0    0    0 -0.00000000000E+00 -0.00000000000E+00 -0.11296037702E+01  0.11296037702E+01  0.00000000000E+00 0.  1.
          4    1    1    2  501    0 -0.28273270399E+00 -0.19975734708E+01  0.40088342533E+01  0.44878713912E+01  0.00000000000E+00 0. -1.
         -4    1    1    2    0  501  0.28273270399E+00  0.19975734708E+01  0.25313051212E+00  0.20333009146E+01  0.00000000000E+00 0.  1.
<mgrwt>
<rscale>  0 0.20174830E+01</rscale>
<asrwt>0</asrwt>
<pdfrwt beam="1">0</pdfrwt>
<pdfrwt beam="2">0</pdfrwt>
<totfact> 0.28936605E+12</totfact>
</mgrwt>
</event>
<event>
 4    2  0.1985873E+006  0.4640098E+01  0.7546771E-02  0.2169433E+00
         22   -1    0    0    0    0  0.00000000000E+00  0.00000000000E+00  0.32310128653E+01  0.32310128653E+01  0.00000000000E+00 0. -1.
         22   -1    0    0    0    0 -0.00000000000E+00 -0.00000000000E+00 -0.86262379635E+01  0.86262379635E+01  0.00000000000E+00 0.  1.
          4    1    1    2  501    0 -0.32487283133E+00  0.46287115587E+01  0.13020832028E+00  0.46419249517E+01  0.00000000000E+00 0. -1.
         -4    1    1    2    0  501  0.32487283133E+00 -0.46287115587E+01 -0.55254334185E+01  0.72153258771E+01  0.00000000000E+00 0.  1.
<mgrwt>
<rscale>  0 0.46400984E+01</rscale>
<asrwt>0</asrwt>
<pdfrwt beam="1">0</pdfrwt>
<pdfrwt beam="2">0</pdfrwt>
<totfact> 0.48934229E+11</totfact>
</mgrwt>
</event>
<event>
 4    2  0.1985873E+006  0.2382127E+01  0.7546771E-02  0.2762893E+00
         22   -1    0    0    0    0  0.00000000000E+00  0.00000000000E+00  0.90608525074E+00  0.90608525074E+00  0.00000000000E+00 0. -1.
         22   -1    0    0    0    0 -0.00000000000E+00 -0.00000000000E+00 -0.72025180390E+01  0.72025180390E+01  0.00000000000E+00 0.  1.
          4    1    1    2  501    0  0.99356738078E+00 -0.21650290993E+01 -0.46127490942E+01  0.51915297695E+01  0.00000000000E+00 0.  1.
         -4    1    1    2    0  501 -0.99356738078E+00  0.21650290993E+01 -0.16836836940E+01  0.29170735203E+01  0.00000000000E+00 0. -1.
<mgrwt>
<rscale>  0 0.23821266E+01</rscale>
<asrwt>0</asrwt>
<pdfrwt beam="1">0</pdfrwt>
<pdfrwt beam="2">0</pdfrwt>
<totfact> 0.26360966E+12</totfact>
</mgrwt>
</event>
<event>
 4    2  0.1985873E+006  0.3763248E+01  0.7546771E-02  0.2324971E+00
         22   -1    0    0    0    0  0.00000000000E+00  0.00000000000E+00  0.68296968250E+01  0.68296968250E+01  0.00000000000E+00 0. -1.
         22   -1    0    0    0    0 -0.00000000000E+00 -0.00000000000E+00 -0.24520458833E+01  0.24520458833E+01  0.00000000000E+00 0.  1.
          4    1    1    2  501    0 -0.20279816602E+01 -0.31700673334E+01  0.40120453346E+01  0.55007766978E+01  0.00000000000E+00 0. -1.
         -4    1    1    2    0  501  0.20279816602E+01  0.31700673334E+01  0.36560560724E+00  0.37809660105E+01  0.00000000000E+00 0.  1.
<mgrwt>
<rscale>  0 0.37632481E+01</rscale>
<asrwt>0</asrwt>
<pdfrwt beam="1">0</pdfrwt>
<pdfrwt beam="2">0</pdfrwt>
<totfact> 0.89339853E+11</totfact>
</mgrwt>
</event>
<event>
 4    2  0.1985873E+006  0.5029513E+01  0.7546771E-02  0.2119497E+00
         22   -1    0    0    0    0  0.00000000000E+00  0.00000000000E+00  0.69623369887E+01  0.69623369887E+01  0.00000000000E+00 0. -1.
         22   -1    0    0    0    0 -0.00000000000E+00 -0.00000000000E+00 -0.70456069103E+01  0.70456069103E+01  0.00000000000E+00 0.  1.
          4    1    1    2  501    0  0.30407678857E+01  0.40062111602E+01  0.48326580098E+01  0.69749968197E+01  0.00000000000E+00 0. -1.
         -4    1    1    2    0  501 -0.30407678857E+01 -0.40062111602E+01 -0.49159279313E+01  0.70329470793E+01  0.00000000000E+00 0.  1.
<mgrwt>
<rscale>  0 0.50295126E+01</rscale>
<asrwt>0</asrwt>
<pdfrwt beam="1">0</pdfrwt>
<pdfrwt beam="2">0</pdfrwt>
<totfact> 0.25168542E+11</totfact>
</mgrwt>
</event>
<event>
 4    2  0.1985873E+006  0.2583015E+01  0.7546771E-02  0.2673025E+00
         22   -1    0    0    0    0  0.00000000000E+00  0.00000000000E+00  0.34318971162E+01  0.34318971162E+01  0.00000000000E+00 0. -1.
         22   -1    0    0    0    0 -0.00000000000E+00 -0.00000000000E+00 -0.48569159155E+01  0.48569159155E+01  0.00000000000E+00 0.  1.
          4    1    1    2  501    0  0.20039873581E+01  0.16297248294E+01  0.24969966743E+01  0.35926258840E+01  0.00000000000E+00 0. -1.
         -4    1    1    2    0  501 -0.20039873581E+01 -0.16297248294E+01 -0.39220154736E+01  0.46961871477E+01  0.00000000000E+00 0.  1.
<mgrwt>
<rscale>  0 0.25830154E+01</rscale>
<asrwt>0</asrwt>
<pdfrwt beam="1">0</pdfrwt>
<pdfrwt beam="2">0</pdfrwt>
<totfact> 0.90494510E+11</totfact>
</mgrwt>
</event>
<event>
 4    2  0.1985873E+006  0.2337184E+01  0.7546771E-02  0.2784974E+00
         22   -1    0    0    0    0  0.00000000000E+00  0.00000000000E+00  0.65693051763E+01  0.65693051763E+01  0.00000000000E+00 0.  1.
         22   -1    0    0    0    0 -0.00000000000E+00 -0.00000000000E+00 -0.98178217499E+00  0.98178217499E+00  0.00000000000E+00 0. -1.
          4    1    1    2  501    0 -0.27994564987E+00  0.23203572235E+01  0.42708777460E+01  0.48685546041E+01  0.00000000000E+00 0.  1.
         -4    1    1    2    0  501  0.27994564987E+00 -0.23203572235E+01  0.13166452553E+01  0.26825327472E+01  0.00000000000E+00 0. -1.
<mgrwt>
<rscale>  0 0.23371836E+01</rscale>
<asrwt>0</asrwt>
<pdfrwt beam="1">0</pdfrwt>
<pdfrwt beam="2">0</pdfrwt>
<totfact> 0.26852465E+12</totfact>
</mgrwt>
</event>
<event>
 4    2  0.1985873E+006  0.2011941E+01  0.7546771E-02  0.2972712E+00
         22   -1    0    0    0    0  0.00000000000E+00  0.00000000000E+00  0.68468958197E+00  0.68468958197E+00  0.00000000000E+00 0.  1.
         22   -1    0    0    0    0 -0.00000000000E+00 -0.00000000000E+00 -0.60693733682E+01  0.60693733682E+01  0.00000000000E+00 0. -1.
          4    1    1    2  501    0  0.21453287241E+00 -0.20004705923E+01 -0.32360730107E+01  0.38105216801E+01  0.00000000000E+00 0. -1.
         -4    1    1    2    0  501 -0.21453287241E+00  0.20004705923E+01 -0.21486107755E+01  0.29435412701E+01  0.00000000000E+00 0.  1.
<mgrwt>
<rscale>  0 0.20119411E+01</rscale>
<asrwt>0</asrwt>
<pdfrwt beam="1">0</pdfrwt>
<pdfrwt beam="2">0</pdfrwt>
<totfact> 0.44470623E+12</totfact>
</mgrwt>
</event>
<event>
 4    2  0.1985873E+006  0.2174050E+01  0.7546771E-02  0.2872384E+00
         22   -1    0    0    0    0  0.00000000000E+00  0.00000000000E+00  0.17500703103E+00  0.17500703103E+00  0.00000000000E+00 0. -1.
         22   -1    0    0    0    0 -0.00000000000E+00 -0.00000000000E+00 -0.28864969788E+02  0.28864969788E+02  0.00000000000E+00 0.  1.
          4    1    1    2  501    0 -0.20057127266E+01  0.83881456414E+00 -0.18028370415E+02  0.18158982164E+02  0.00000000000E+00 0.  1.
         -4    1    1    2    0  501  0.20057127266E+01 -0.83881456414E+00 -0.10661592342E+02  0.10880994655E+02  0.00000000000E+00 0. -1.
<mgrwt>
<rscale>  0 0.21740500E+01</rscale>
<asrwt>0</asrwt>
<pdfrwt beam="1">0</pdfrwt>
<pdfrwt beam="2">0</pdfrwt>
<totfact> 0.30422964E+12</totfact>
</mgrwt>
</event>
<event>
 4    2  0.1985873E+006  0.2188855E+01  0.7546771E-02  0.2863938E+00
         22   -1    0    0    0    0  0.00000000000E+00  0.00000000000E+00  0.21754333734E+01  0.21754333734E+01  0.00000000000E+00 0.  1.
         22   -1    0    0    0    0 -0.00000000000E+00 -0.00000000000E+00 -0.44275883280E+01  0.44275883280E+01  0.00000000000E+00 0. -1.
          4    1    1    2  501    0 -0.16555111019E+01 -0.14319108458E+01  0.12144647516E+01  0.25032000143E+01  0.00000000000E+00 0.  1.
         -4    1    1    2    0  501  0.16555111019E+01  0.14319108458E+01 -0.34666197061E+01  0.40998216871E+01  0.00000000000E+00 0. -1.
<mgrwt>
<rscale>  0 0.21888549E+01</rscale>
<asrwt>0</asrwt>
<pdfrwt beam="1">0</pdfrwt>
<pdfrwt beam="2">0</pdfrwt>
<totfact> 0.17174266E+12</totfact>
</mgrwt>
</event>
<event>
 4    2  0.1985873E+006  0.4695075E+01  0.7546771E-02  0.2161330E+00
         22   -1    0    0    0    0  0.00000000000E+00  0.00000000000E+00  0.26404031710E+02  0.26404031710E+02  0.00000000000E+00 0.  1.
         22   -1    0    0    0    0 -0.00000000000E+00 -0.00000000000E+00 -0.20709909211E+01  0.20709909211E+01  0.00000000000E+00 0. -1.
          4    1    1    2  501    0  0.44522791202E+01  0.14902804840E+01  0.23166119359E+02  0.23637106664E+02  0.00000000000E+00 0.  1.
         -4    1    1    2    0  501 -0.44522791202E+01 -0.14902804840E+01  0.11669214302E+01  0.48379159676E+01  0.00000000000E+00 0. -1.
<mgrwt>
<rscale>  0 0.46950746E+01</rscale>
<asrwt>0</asrwt>
<pdfrwt beam="1">0</pdfrwt>
<pdfrwt beam="2">0</pdfrwt>
<totfact> 0.20692401E+11</totfact>
</mgrwt>
</event>
<event>
 4    2  0.1985873E+006  0.2643573E+01  0.7546771E-02  0.2648429E+00
         22   -1    0    0    0    0  0.00000000000E+00  0.00000000000E+00  0.31815113380E+02  0.31815113380E+02  0.00000000000E+00 0. -1.
         22   -1    0    0    0    0 -0.00000000000E+00 -0.00000000000E+00 -0.78334302837E+00  0.78334302837E+00  0.00000000000E+00 0.  1.
          4    1    1    2  501    0 -0.21957831583E+01  0.14720787569E+01  0.29342277338E+02  0.29461122160E+02  0.00000000000E+00 0. -1.
         -4    1    1    2    0  501  0.21957831583E+01 -0.14720787569E+01  0.16894930142E+01  0.31373342490E+01  0.00000000000E+00 0.  1.
<mgrwt>
<rscale>  0 0.26435733E+01</rscale>
<asrwt>0</asrwt>
<pdfrwt beam="1">0</pdfrwt>
<pdfrwt beam="2">0</pdfrwt>
<totfact> 0.49799587E+11</totfact>
</mgrwt>
</event>
<event>
 4    2  0.1985873E+006  0.2067213E+01  0.7546771E-02  0.2936787E+00
         22   -1    0    0    0    0  0.00000000000E+00  0.00000000000E+00  0.10815795866E+00  0.10815795866E+00  0.00000000000E+00 0. -1.
         22   -1    0    0    0    0 -0.00000000000E+00 -0.00000000000E+00 -0.39976299916E+02  0.39976299916E+02  0.00000000000E+00 0.  1.
          4    1    1    2  501    0 -0.65281476059E+00  0.19614289106E+01 -0.17770535592E+02  0.17890369077E+02  0.00000000000E+00 0. -1.
         -4    1    1    2    0  501  0.65281476059E+00 -0.19614289106E+01 -0.22097606366E+02  0.22194088799E+02  0.00000000000E+00 0.  1.
<mgrwt>
<rscale>  0 0.20672132E+01</rscale>
<asrwt>0</asrwt>
<pdfrwt beam="1">0</pdfrwt>
<pdfrwt beam="2">0</pdfrwt>
<totfact> 0.34174530E+12</totfact>
</mgrwt>
</event>
<event>
 4    2  0.1985873E+006  0.2963146E+01  0.7546771E-02  0.2533956E+00
         22   -1    0    0    0    0  0.00000000000E+00  0.00000000000E+00  0.47143886061E+02  0.47143886061E+02  0.00000000000E+00 0. -1.
         22   -1    0    0    0    0 -0.00000000000E+00 -0.00000000000E+00 -0.34416198764E+00  0.34416198764E+00  0.00000000000E+00 0.  1.
          4    1    1    2  501    0 -0.29462917872E+01 -0.31559064044E+00  0.39483698194E+02  0.39594730152E+02  0.00000000000E+00 0. -1.
         -4    1    1    2    0  501  0.29462917872E+01  0.31559064044E+00  0.73160258794E+01  0.78933178965E+01  0.00000000000E+00 0.  1.
<mgrwt>
<rscale>  0 0.29631458E+01</rscale>
<asrwt>0</asrwt>
<pdfrwt beam="1">0</pdfrwt>
<pdfrwt beam="2">0</pdfrwt>
<totfact> 0.75791944E+11</totfact>
</mgrwt>
</event>
<event>
 4    2  0.1985873E+006  0.3164129E+01  0.7546771E-02  0.2472727E+00
         22   -1    0    0    0    0  0.00000000000E+00  0.00000000000E+00  0.36438587014E+01  0.36438587014E+01  0.00000000000E+00 0. -1.
         22   -1    0    0    0    0 -0.00000000000E+00 -0.00000000000E+00 -0.32145925460E+01  0.32145925460E+01  0.00000000000E+00 0.  1.
          4    1    1    2  501    0  0.28101401140E+01 -0.14542428945E+01  0.15217306672E+01  0.35110360408E+01  0.00000000000E+00 0. -1.
         -4    1    1    2    0  501 -0.28101401140E+01  0.14542428945E+01 -0.10924645117E+01  0.33474152066E+01  0.00000000000E+00 0.  1.
<mgrwt>
<rscale>  0 0.31641286E+01</rscale>
<asrwt>0</asrwt>
<pdfrwt beam="1">0</pdfrwt>
<pdfrwt beam="2">0</pdfrwt>
<totfact> 0.13707535E+12</totfact>
</mgrwt>
</event>
<event>
 4    2  0.1985873E+006  0.2866109E+01  0.7546771E-02  0.2566262E+00
         22   -1    0    0    0    0  0.00000000000E+00  0.00000000000E+00  0.36800436622E+00  0.36800436622E+00  0.00000000000E+00 0. -1.
         22   -1    0    0    0    0 -0.00000000000E+00 -0.00000000000E+00 -0.25508874891E+02  0.25508874891E+02  0.00000000000E+00 0.  1.
          4    1    1    2  501    0  0.14088004540E+01 -0.24959690046E+01 -0.79972241153E+01  0.84953030283E+01  0.00000000000E+00 0. -1.
         -4    1    1    2    0  501 -0.14088004540E+01  0.24959690046E+01 -0.17143646410E+02  0.17381576229E+02  0.00000000000E+00 0.  1.
<mgrwt>
<rscale>  0 0.28661089E+01</rscale>
<asrwt>0</asrwt>
<pdfrwt beam="1">0</pdfrwt>
<pdfrwt beam="2">0</pdfrwt>
<totfact> 0.15490693E+12</totfact>
</mgrwt>
</event>
<event>
 4    2  0.1985873E+006  0.4791393E+01  0.7546771E-02  0.2148759E+00
         22   -1    0    0    0    0  0.00000000000E+00  0.00000000000E+00  0.42028119817E+01  0.42028119817E+01  0.00000000000E+00 0.  1.
         22   -1    0    0    0    0 -0.00000000000E+00 -0.00000000000E+00 -0.18687752931E+02  0.18687752931E+02  0.00000000000E+00 0. -1.
          4    1    1    2  501    0 -0.47833961817E+01 -0.27671251034E+00  0.23858729979E+01  0.53525544188E+01  0.00000000000E+00 0.  1.
         -4    1    1    2    0  501  0.47833961817E+01  0.27671251034E+00 -0.16870813947E+02  0.17538010493E+02  0.00000000000E+00 0. -1.
<mgrwt>
<rscale>  0 0.47913932E+01</rscale>
<asrwt>0</asrwt>
<pdfrwt beam="1">0</pdfrwt>
<pdfrwt beam="2">0</pdfrwt>
<totfact> 0.13964827E+11</totfact>
</mgrwt>
</event>
<event>
 4    2  0.1985873E+006  0.2201690E+01  0.7546771E-02  0.2856705E+00
         22   -1    0    0    0    0  0.00000000000E+00  0.00000000000E+00  0.27707448623E+01  0.27707448623E+01  0.00000000000E+00 0.  1.
         22   -1    0    0    0    0 -0.00000000000E+00 -0.00000000000E+00 -0.54396607466E+01  0.54396607466E+01  0.00000000000E+00 0. -1.
          4    1    1    2  501    0 -0.18725397410E+01  0.11580294333E+01  0.20467427240E+01  0.30060926513E+01  0.00000000000E+00 0.  1.
         -4    1    1    2    0  501  0.18725397410E+01 -0.11580294333E+01 -0.47156586083E+01  0.52043129575E+01  0.00000000000E+00 0. -1.
<mgrwt>
<rscale>  0 0.22016896E+01</rscale>
<asrwt>0</asrwt>
<pdfrwt beam="1">0</pdfrwt>
<pdfrwt beam="2">0</pdfrwt>
<totfact> 0.10160908E+12</totfact>
</mgrwt>
</event>
<event>
 4    2  0.1985873E+006  0.2788071E+01  0.7546771E-02  0.2593714E+00
         22   -1    0    0    0    0  0.00000000000E+00  0.00000000000E+00  0.51048488127E+02  0.51048488127E+02  0.00000000000E+00 0. -1.
         22   -1    0    0    0    0 -0.00000000000E+00 -0.00000000000E+00 -0.15353974720E+00  0.15353974720E+00  0.00000000000E+00 0.  1.
          4    1    1    2  501    0  0.27576828179E+01 -0.41051622807E+00  0.23122675382E+02  0.23290157898E+02  0.00000000000E+00 0. -1.
         -4    1    1    2    0  501 -0.27576828179E+01  0.41051622807E+00  0.27772272997E+02  0.27911869976E+02  0.00000000000E+00 0.  1.
<mgrwt>
<rscale>  0 0.27880707E+01</rscale>
<asrwt>0</asrwt>
<pdfrwt beam="1">0</pdfrwt>
<pdfrwt beam="2">0</pdfrwt>
<totfact> 0.16820968E+12</totfact>
</mgrwt>
</event>
<event>
 4    2  0.1985873E+006  0.2496574E+01  0.7546771E-02  0.2710043E+00
         22   -1    0    0    0    0  0.00000000000E+00  0.00000000000E+00  0.28482971941E+01  0.28482971941E+01  0.00000000000E+00 0. -1.
         22   -1    0    0    0    0 -0.00000000000E+00 -0.00000000000E+00 -0.22077546417E+01  0.22077546417E+01  0.00000000000E+00 0.  1.
          4    1    1    2  501    0  0.63170094303E+00 -0.24153330378E+01  0.82855479953E-01  0.24979481171E+01  0.00000000000E+00 0.  1.
         -4    1    1    2    0  501 -0.63170094303E+00  0.24153330378E+01  0.55768707238E+00  0.25581037187E+01  0.00000000000E+00 0. -1.
<mgrwt>
<rscale>  0 0.24965736E+01</rscale>
<asrwt>0</asrwt>
<pdfrwt beam="1">0</pdfrwt>
<pdfrwt beam="2">0</pdfrwt>
<totfact> 0.28328883E+12</totfact>
</mgrwt>
</event>
<event>
 4    2  0.1985873E+006  0.2144010E+01  0.7546771E-02  0.2889866E+00
         22   -1    0    0    0    0  0.00000000000E+00  0.00000000000E+00  0.26817676208E+00  0.26817676208E+00  0.00000000000E+00 0. -1.
         22   -1    0    0    0    0 -0.00000000000E+00 -0.00000000000E+00 -0.19987157970E+02  0.19987157970E+02  0.00000000000E+00 0.  1.
          4    1    1    2  501    0  0.16090453481E+01 -0.14169514766E+01 -0.60376318496E+01  0.64070099712E+01  0.00000000000E+00 0. -1.
         -4    1    1    2    0  501 -0.16090453481E+01  0.14169514766E+01 -0.13681349358E+02  0.13848324761E+02  0.00000000000E+00 0.  1.
<mgrwt>
<rscale>  0 0.21440099E+01</rscale>
<asrwt>0</asrwt>
<pdfrwt beam="1">0</pdfrwt>
<pdfrwt beam="2">0</pdfrwt>
<totfact> 0.30001853E+12</totfact>
</mgrwt>
</event>
<event>
 4    2  0.1985873E+006  0.2645004E+01  0.7546771E-02  0.2647860E+00
         22   -1    0    0    0    0  0.00000000000E+00  0.00000000000E+00  0.23889034126E+02  0.23889034126E+02  0.00000000000E+00 0.  1.
         22   -1    0    0    0    0 -0.00000000000E+00 -0.00000000000E+00 -0.80971376132E+00  0.80971376132E+00  0.00000000000E+00 0. -1.
          4    1    1    2  501    0  0.24519466654E+01 -0.99196842706E+00  0.21406197392E+02  0.21568990022E+02  0.00000000000E+00 0.  1.
         -4    1    1    2    0  501 -0.24519466654E+01  0.99196842706E+00  0.16731229729E+01  0.31297578649E+01  0.00000000000E+00 0. -1.
<mgrwt>
<rscale>  0 0.26450036E+01</rscale>
<asrwt>0</asrwt>
<pdfrwt beam="1">0</pdfrwt>
<pdfrwt beam="2">0</pdfrwt>
<totfact> 0.68975319E+11</totfact>
</mgrwt>
</event>
<event>
 4    2  0.1985873E+006  0.3723096E+01  0.7546771E-02  0.2333571E+00
         22   -1    0    0    0    0  0.00000000000E+00  0.00000000000E+00  0.16917848849E+02  0.16917848849E+02  0.00000000000E+00 0. -1.
         22   -1    0    0    0    0 -0.00000000000E+00 -0.00000000000E+00 -0.98723779436E+01  0.98723779436E+01  0.00000000000E+00 0.  1.
          4    1    1    2  501    0  0.30130310407E+01 -0.21870268958E+01  0.16349960591E+02  0.16768501842E+02  0.00000000000E+00 0. -1.
         -4    1    1    2    0  501 -0.30130310407E+01  0.21870268958E+01 -0.93044896851E+01  0.10021724951E+02  0.00000000000E+00 0.  1.
<mgrwt>
<rscale>  0 0.37230958E+01</rscale>
<asrwt>0</asrwt>
<pdfrwt beam="1">0</pdfrwt>
<pdfrwt beam="2">0</pdfrwt>
<totfact> 0.57015933E+10</totfact>
</mgrwt>
</event>
<event>
 4    2  0.1985873E+006  0.2082245E+01  0.7546771E-02  0.2927339E+00
         22   -1    0    0    0    0  0.00000000000E+00  0.00000000000E+00  0.35181528459E+02  0.35181528459E+02  0.00000000000E+00 0. -1.
         22   -1    0    0    0    0 -0.00000000000E+00 -0.00000000000E+00 -0.24895932473E+00  0.24895932473E+00  0.00000000000E+00 0.  1.
          4    1    1    2  501    0  0.20440788446E+01 -0.39684282549E+00  0.30055114933E+02  0.30127158449E+02  0.00000000000E+00 0. -1.
         -4    1    1    2    0  501 -0.20440788446E+01  0.39684282549E+00  0.48774542008E+01  0.53033293347E+01  0.00000000000E+00 0.  1.
<mgrwt>
<rscale>  0 0.20822446E+01</rscale>
<asrwt>0</asrwt>
<pdfrwt beam="1">0</pdfrwt>
<pdfrwt beam="2">0</pdfrwt>
<totfact> 0.15937017E+12</totfact>
</mgrwt>
</event>
<event>
 4    2  0.1985873E+006  0.3311571E+01  0.7546771E-02  0.2432034E+00
         22   -1    0    0    0    0  0.00000000000E+00  0.00000000000E+00  0.61478751904E+01  0.61478751904E+01  0.00000000000E+00 0.  1.
         22   -1    0    0    0    0 -0.00000000000E+00 -0.00000000000E+00 -0.37789374191E+01  0.37789374191E+01  0.00000000000E+00 0. -1.
          4    1    1    2  501    0  0.14468885038E+01  0.29787609631E+01  0.47909423427E+01  0.58240562968E+01  0.00000000000E+00 0.  1.
         -4    1    1    2    0  501 -0.14468885038E+01 -0.29787609631E+01 -0.24220045713E+01  0.41027563127E+01  0.00000000000E+00 0. -1.
<mgrwt>
<rscale>  0 0.33115711E+01</rscale>
<asrwt>0</asrwt>
<pdfrwt beam="1">0</pdfrwt>
<pdfrwt beam="2">0</pdfrwt>
<totfact> 0.61097098E+11</totfact>
</mgrwt>
</event>
<event>
 4    2  0.1985873E+006  0.2048174E+01  0.7546771E-02  0.2948949E+00
         22   -1    0    0    0    0  0.00000000000E+00  0.00000000000E+00  0.11450636905E+01  0.11450636905E+01  0.00000000000E+00 0.  1.
         22   -1    0    0    0    0 -0.00000000000E+00 -0.00000000000E+00 -0.69323426632E+01  0.69323426632E+01  0.00000000000E+00 0. -1.
          4    1    1    2  501    0  0.98104807696E+00  0.17979319842E+01 -0.12035357370E+00  0.20517065414E+01  0.00000000000E+00 0.  1.
         -4    1    1    2    0  501 -0.98104807696E+00 -0.17979319842E+01 -0.56669253991E+01  0.60256998123E+01  0.00000000000E+00 0. -1.
<mgrwt>
<rscale>  0 0.20481735E+01</rscale>
<asrwt>0</asrwt>
<pdfrwt beam="1">0</pdfrwt>
<pdfrwt beam="2">0</pdfrwt>
<totfact> 0.21118692E+12</totfact>
</mgrwt>
</event>
<event>
 4    2  0.1985873E+006  0.3234367E+01  0.7546771E-02  0.2452933E+00
         22   -1    0    0    0    0  0.00000000000E+00  0.00000000000E+00  0.17396387703E+01  0.17396387703E+01  0.00000000000E+00 0. -1.
         22   -1    0    0    0    0 -0.00000000000E+00 -0.00000000000E+00 -0.13898695969E+02  0.13898695969E+02  0.00000000000E+00 0.  1.
          4    1    1    2  501    0 -0.22855427513E+01 -0.22885426394E+01 -0.18997130915E+00  0.32399416937E+01  0.00000000000E+00 0. -1.
         -4    1    1    2    0  501  0.22855427513E+01  0.22885426394E+01 -0.11969085890E+02  0.12398393046E+02  0.00000000000E+00 0.  1.
<mgrwt>
<rscale>  0 0.32343675E+01</rscale>
<asrwt>0</asrwt>
<pdfrwt beam="1">0</pdfrwt>
<pdfrwt beam="2">0</pdfrwt>
<totfact> 0.56272489E+11</totfact>
</mgrwt>
</event>
<event>
 4    2  0.1985873E+006  0.2448933E+01  0.7546771E-02  0.2731481E+00
         22   -1    0    0    0    0  0.00000000000E+00  0.00000000000E+00  0.55531423373E+02  0.55531423373E+02  0.00000000000E+00 0.  1.
         22   -1    0    0    0    0 -0.00000000000E+00 -0.00000000000E+00 -0.12208859953E+00  0.12208859953E+00  0.00000000000E+00 0. -1.
          4    1    1    2  501    0  0.22820243046E+01 -0.88861618197E+00  0.37158159402E+02  0.37238771244E+02  0.00000000000E+00 0.  1.
         -4    1    1    2    0  501 -0.22820243046E+01  0.88861618197E+00  0.18251175371E+02  0.18414740728E+02  0.00000000000E+00 0. -1.
<mgrwt>
<rscale>  0 0.24489332E+01</rscale>
<asrwt>0</asrwt>
<pdfrwt beam="1">0</pdfrwt>
<pdfrwt beam="2">0</pdfrwt>
<totfact> 0.19406904E+12</totfact>
</mgrwt>
</event>
<event>
 4    2  0.1985873E+006  0.2620679E+01  0.7546771E-02  0.2657604E+00
         22   -1    0    0    0    0  0.00000000000E+00  0.00000000000E+00  0.25390194609E+01  0.25390194609E+01  0.00000000000E+00 0. -1.
         22   -1    0    0    0    0 -0.00000000000E+00 -0.00000000000E+00 -0.65971191006E+01  0.65971191006E+01  0.00000000000E+00 0.  1.
          4    1    1    2  501    0  0.23646789505E+01 -0.11297131052E+01  0.14796849845E+01  0.30095557632E+01  0.00000000000E+00 0. -1.
         -4    1    1    2    0  501 -0.23646789505E+01  0.11297131052E+01 -0.55377846242E+01  0.61265827982E+01  0.00000000000E+00 0.  1.
<mgrwt>
<rscale>  0 0.26206790E+01</rscale>
<asrwt>0</asrwt>
<pdfrwt beam="1">0</pdfrwt>
<pdfrwt beam="2">0</pdfrwt>
<totfact> 0.89413666E+11</totfact>
</mgrwt>
</event>
<event>
 4    2  0.1985873E+006  0.2131746E+01  0.7546771E-02  0.2897139E+00
         22   -1    0    0    0    0  0.00000000000E+00  0.00000000000E+00  0.25093774950E+01  0.25093774950E+01  0.00000000000E+00 0. -1.
         22   -1    0    0    0    0 -0.00000000000E+00 -0.00000000000E+00 -0.24359994977E+01  0.24359994977E+01  0.00000000000E+00 0.  1.
          4    1    1    2  501    0  0.19642716406E+01  0.82823687289E+00  0.12892257505E+01  0.24912732551E+01  0.00000000000E+00 0. -1.
         -4    1    1    2    0  501 -0.19642716406E+01 -0.82823687289E+00 -0.12158477532E+01  0.24541037376E+01  0.00000000000E+00 0.  1.
<mgrwt>
<rscale>  0 0.21317456E+01</rscale>
<asrwt>0</asrwt>
<pdfrwt beam="1">0</pdfrwt>
<pdfrwt beam="2">0</pdfrwt>
<totfact> 0.29287983E+12</totfact>
</mgrwt>
</event>
<event>
 4    2  0.1985873E+006  0.3277898E+01  0.7546771E-02  0.2441042E+00
         22   -1    0    0    0    0  0.00000000000E+00  0.00000000000E+00  0.38924916595E+01  0.38924916595E+01  0.00000000000E+00 0.  1.
         22   -1    0    0    0    0 -0.00000000000E+00 -0.00000000000E+00 -0.39776069919E+01  0.39776069919E+01  0.00000000000E+00 0. -1.
          4    1    1    2  501    0  0.26469420336E+01 -0.19334717983E+01  0.21343072774E+01  0.39115064717E+01  0.00000000000E+00 0. -1.
         -4    1    1    2    0  501 -0.26469420336E+01  0.19334717983E+01 -0.22194226098E+01  0.39585921797E+01  0.00000000000E+00 0.  1.
<mgrwt>
<rscale>  0 0.32778980E+01</rscale>
<asrwt>0</asrwt>
<pdfrwt beam="1">0</pdfrwt>
<pdfrwt beam="2">0</pdfrwt>
<totfact> 0.98799002E+11</totfact>
</mgrwt>
</event>
<event>
 4    2  0.1985873E+006  0.2052746E+01  0.7546771E-02  0.2946008E+00
         22   -1    0    0    0    0  0.00000000000E+00  0.00000000000E+00  0.45115842916E+00  0.45115842916E+00  0.00000000000E+00 0.  1.
         22   -1    0    0    0    0 -0.00000000000E+00 -0.00000000000E+00 -0.21247489600E+02  0.21247489600E+02  0.00000000000E+00 0. -1.
          4    1    1    2  501    0 -0.68223730272E+00 -0.19360570766E+01 -0.22761990647E+01  0.30651014540E+01  0.00000000000E+00 0.  1.
         -4    1    1    2    0  501  0.68223730272E+00  0.19360570766E+01 -0.18520132106E+02  0.18633546575E+02  0.00000000000E+00 0. -1.
<mgrwt>
<rscale>  0 0.20527457E+01</rscale>
<asrwt>0</asrwt>
<pdfrwt beam="1">0</pdfrwt>
<pdfrwt beam="2">0</pdfrwt>
<totfact> 0.15494010E+12</totfact>
</mgrwt>
</event>
<event>
 4    2  0.1985873E+006  0.4417806E+01  0.7546771E-02  0.2203900E+00
         22   -1    0    0    0    0  0.00000000000E+00  0.00000000000E+00  0.23786656004E+01  0.23786656004E+01  0.00000000000E+00 0. -1.
         22   -1    0    0    0    0 -0.00000000000E+00 -0.00000000000E+00 -0.82452718670E+01  0.82452718670E+01  0.00000000000E+00 0.  1.
          4    1    1    2  501    0  0.36148979470E+01  0.25395910635E+01 -0.25621776025E+01  0.51070308403E+01  0.00000000000E+00 0. -1.
         -4    1    1    2    0  501 -0.36148979470E+01 -0.25395910635E+01 -0.33044286640E+01  0.55169066272E+01  0.00000000000E+00 0.  1.
<mgrwt>
<rscale>  0 0.44178060E+01</rscale>
<asrwt>0</asrwt>
<pdfrwt beam="1">0</pdfrwt>
<pdfrwt beam="2">0</pdfrwt>
<totfact> 0.73843052E+11</totfact>
</mgrwt>
</event>
<event>
 4    2  0.1985873E+006  0.2607201E+01  0.7546771E-02  0.2663075E+00
         22   -1    0    0    0    0  0.00000000000E+00  0.00000000000E+00  0.18379078854E+02  0.18379078854E+02  0.00000000000E+00 0.  1.
         22   -1    0    0    0    0 -0.00000000000E+00 -0.00000000000E+00 -0.66017427295E+00  0.66017427295E+00  0.00000000000E+00 0. -1.
          4    1    1    2  501    0 -0.25311938590E+01 -0.62494580810E+00  0.15172402989E+02  0.15394781976E+02  0.00000000000E+00 0.  1.
         -4    1    1    2    0  501  0.25311938590E+01  0.62494580810E+00  0.25465015921E+01  0.36444711514E+01  0.00000000000E+00 0. -1.
<mgrwt>
<rscale>  0 0.26072015E+01</rscale>
<asrwt>0</asrwt>
<pdfrwt beam="1">0</pdfrwt>
<pdfrwt beam="2">0</pdfrwt>
<totfact> 0.12071330E+12</totfact>
</mgrwt>
</event>
<event>
 4    2  0.1985873E+006  0.2027967E+01  0.7546771E-02  0.2962099E+00
         22   -1    0    0    0    0  0.00000000000E+00  0.00000000000E+00  0.18167496844E+02  0.18167496844E+02  0.00000000000E+00 0. -1.
         22   -1    0    0    0    0 -0.00000000000E+00 -0.00000000000E+00 -0.24313325917E+00  0.24313325917E+00  0.00000000000E+00 0.  1.
          4    1    1    2  501    0 -0.56576509919E+00 -0.19474492517E+01  0.11379000192E+02  0.11558299793E+02  0.00000000000E+00 0. -1.
         -4    1    1    2    0  501  0.56576509919E+00  0.19474492517E+01  0.65453633930E+01  0.68523303103E+01  0.00000000000E+00 0.  1.
<mgrwt>
<rscale>  0 0.20279667E+01</rscale>
<asrwt>0</asrwt>
<pdfrwt beam="1">0</pdfrwt>
<pdfrwt beam="2">0</pdfrwt>
<totfact> 0.37700464E+12</totfact>
</mgrwt>
</event>
<event>
 4    2  0.1985873E+006  0.2356736E+01  0.7546771E-02  0.2775270E+00
         22   -1    0    0    0    0  0.00000000000E+00  0.00000000000E+00  0.13684929283E+02  0.13684929283E+02  0.00000000000E+00 0.  1.
         22   -1    0    0    0    0 -0.00000000000E+00 -0.00000000000E+00 -0.13955893651E+01  0.13955893651E+01  0.00000000000E+00 0. -1.
          4    1    1    2  501    0  0.13832531847E+01  0.19080923864E+01  0.12494542894E+02  0.12714865633E+02  0.00000000000E+00 0.  1.
         -4    1    1    2    0  501 -0.13832531847E+01 -0.19080923864E+01 -0.20520297605E+00  0.23656530154E+01  0.00000000000E+00 0. -1.
<mgrwt>
<rscale>  0 0.23567363E+01</rscale>
<asrwt>0</asrwt>
<pdfrwt beam="1">0</pdfrwt>
<pdfrwt beam="2">0</pdfrwt>
<totfact> 0.73915089E+11</totfact>
</mgrwt>
</event>
<event>
 4    2  0.1985873E+006  0.2178085E+01  0.7546771E-02  0.2870071E+00
         22   -1    0    0    0    0  0.00000000000E+00  0.00000000000E+00  0.10942256739E+01  0.10942256739E+01  0.00000000000E+00 0. -1.
         22   -1    0    0    0    0 -0.00000000000E+00 -0.00000000000E+00 -0.54924268122E+01  0.54924268122E+01  0.00000000000E+00 0.  1.
          4    1    1    2  501    0 -0.15012655646E+01 -0.15780551277E+01 -0.68763399340E+00  0.22840527118E+01  0.00000000000E+00 0. -1.
         -4    1    1    2    0  501  0.15012655646E+01  0.15780551277E+01 -0.37105671449E+01  0.43025997743E+01  0.00000000000E+00 0.  1.
<mgrwt>
<rscale>  0 0.21780855E+01</rscale>
<asrwt>0</asrwt>
<pdfrwt beam="1">0</pdfrwt>
<pdfrwt beam="2">0</pdfrwt>
<totfact> 0.29357897E+12</totfact>
</mgrwt>
</event>
<event>
 4    2  0.1985873E+006  0.2434753E+01  0.7546771E-02  0.2738014E+00
         22   -1    0    0    0    0  0.00000000000E+00  0.00000000000E+00  0.30599126481E+01  0.30599126481E+01  0.00000000000E+00 0. -1.
         22   -1    0    0    0    0 -0.00000000000E+00 -0.00000000000E+00 -0.22417172271E+01  0.22417172271E+01  0.00000000000E+00 0.  1.
          4    1    1    2  501    0 -0.21786586305E-01  0.24346551040E+01  0.13859111692E+01  0.28015656158E+01  0.00000000000E+00 0. -1.
         -4    1    1    2    0  501  0.21786586305E-01 -0.24346551040E+01 -0.56771574815E+00  0.25000642594E+01  0.00000000000E+00 0.  1.
<mgrwt>
<rscale>  0 0.24347526E+01</rscale>
<asrwt>0</asrwt>
<pdfrwt beam="1">0</pdfrwt>
<pdfrwt beam="2">0</pdfrwt>
<totfact> 0.25597112E+12</totfact>
</mgrwt>
</event>
<event>
 4    2  0.1985873E+006  0.2469776E+01  0.7546771E-02  0.2722007E+00
         22   -1    0    0    0    0  0.00000000000E+00  0.00000000000E+00  0.35541487625E+01  0.35541487625E+01  0.00000000000E+00 0.  1.
         22   -1    0    0    0    0 -0.00000000000E+00 -0.00000000000E+00 -0.35756589892E+01  0.35756589892E+01  0.00000000000E+00 0. -1.
          4    1    1    2  501    0  0.53598913374E+00  0.24109149998E+01  0.25599818697E+01  0.35571481078E+01  0.00000000000E+00 0.  1.
         -4    1    1    2    0  501 -0.53598913374E+00 -0.24109149998E+01 -0.25814920963E+01  0.35726596439E+01  0.00000000000E+00 0. -1.
<mgrwt>
<rscale>  0 0.24697764E+01</rscale>
<asrwt>0</asrwt>
<pdfrwt beam="1">0</pdfrwt>
<pdfrwt beam="2">0</pdfrwt>
<totfact> 0.12458993E+12</totfact>
</mgrwt>
</event>
<event>
 4    2  0.1985873E+006  0.2883460E+01  0.7546771E-02  0.2560342E+00
         22   -1    0    0    0    0  0.00000000000E+00  0.00000000000E+00  0.12887137147E+01  0.12887137147E+01  0.00000000000E+00 0.  1.
         22   -1    0    0    0    0 -0.00000000000E+00 -0.00000000000E+00 -0.10859701087E+02  0.10859701087E+02  0.00000000000E+00 0. -1.
          4    1    1    2  501    0 -0.20380585019E+01 -0.20397693978E+01 -0.91555986102E+00  0.30253250259E+01  0.00000000000E+00 0.  1.
         -4    1    1    2    0  501  0.20380585019E+01  0.20397693978E+01 -0.86554275108E+01  0.91230897753E+01  0.00000000000E+00 0. -1.
<mgrwt>
<rscale>  0 0.28834600E+01</rscale>
<asrwt>0</asrwt>
<pdfrwt beam="1">0</pdfrwt>
<pdfrwt beam="2">0</pdfrwt>
<totfact> 0.10740071E+12</totfact>
</mgrwt>
</event>
<event>
 4    2  0.1985873E+006  0.2518645E+01  0.7546771E-02  0.2700367E+00
         22   -1    0    0    0    0  0.00000000000E+00  0.00000000000E+00  0.14876560840E+02  0.14876560840E+02  0.00000000000E+00 0.  1.
         22   -1    0    0    0    0 -0.00000000000E+00 -0.00000000000E+00 -0.43092931688E+00  0.43092931688E+00  0.00000000000E+00 0. -1.
          4    1    1    2  501    0  0.23217962230E+01 -0.97613167954E+00  0.80062904529E+01  0.83931077422E+01  0.00000000000E+00 0.  1.
         -4    1    1    2    0  501 -0.23217962230E+01  0.97613167954E+00  0.64393410698E+01  0.69143824142E+01  0.00000000000E+00 0. -1.
<mgrwt>
<rscale>  0 0.25186446E+01</rscale>
<asrwt>0</asrwt>
<pdfrwt beam="1">0</pdfrwt>
<pdfrwt beam="2">0</pdfrwt>
<totfact> 0.25388789E+12</totfact>
</mgrwt>
</event>
<event>
 4    2  0.1985873E+006  0.2022715E+01  0.7546771E-02  0.2965559E+00
         22   -1    0    0    0    0  0.00000000000E+00  0.00000000000E+00  0.40556534083E+01  0.40556534083E+01  0.00000000000E+00 0.  1.
         22   -1    0    0    0    0 -0.00000000000E+00 -0.00000000000E+00 -0.77169190708E+01  0.77169190708E+01  0.00000000000E+00 0. -1.
          4    1    1    2  501    0 -0.12377572854E+01  0.15997914515E+01  0.36574356933E+01  0.41794989695E+01  0.00000000000E+00 0.  1.
         -4    1    1    2    0  501  0.12377572854E+01 -0.15997914515E+01 -0.73187013558E+01  0.75930735095E+01  0.00000000000E+00 0. -1.
<mgrwt>
<rscale>  0 0.20227150E+01</rscale>
<asrwt>0</asrwt>
<pdfrwt beam="1">0</pdfrwt>
<pdfrwt beam="2">0</pdfrwt>
<totfact> 0.42839689E+11</totfact>
</mgrwt>
</event>
<event>
 4    2  0.1985873E+006  0.2152428E+01  0.7546771E-02  0.2884919E+00
         22   -1    0    0    0    0  0.00000000000E+00  0.00000000000E+00  0.40862576675E+01  0.40862576675E+01  0.00000000000E+00 0. -1.
         22   -1    0    0    0    0 -0.00000000000E+00 -0.00000000000E+00 -0.13202173910E+01  0.13202173910E+01  0.00000000000E+00 0.  1.
          4    1    1    2  501    0 -0.97051286787E+00 -0.19212113096E+01  0.23988458072E+01  0.32229504075E+01  0.00000000000E+00 0. -1.
         -4    1    1    2    0  501  0.97051286787E+00  0.19212113096E+01  0.36719446933E+00  0.21835246509E+01  0.00000000000E+00 0.  1.
<mgrwt>
<rscale>  0 0.21524284E+01</rscale>
<asrwt>0</asrwt>
<pdfrwt beam="1">0</pdfrwt>
<pdfrwt beam="2">0</pdfrwt>
<totfact> 0.33584808E+12</totfact>
</mgrwt>
</event>
<event>
 4    2  0.1985873E+006  0.2099827E+01  0.7546771E-02  0.2916454E+00
         22   -1    0    0    0    0  0.00000000000E+00  0.00000000000E+00  0.20735803284E+01  0.20735803284E+01  0.00000000000E+00 0. -1.
         22   -1    0    0    0    0 -0.00000000000E+00 -0.00000000000E+00 -0.36718943648E+01  0.36718943648E+01  0.00000000000E+00 0.  1.
          4    1    1    2  501    0  0.19640748949E+01 -0.74275497409E+00  0.10645755733E+01  0.23542719247E+01  0.00000000000E+00 0. -1.
         -4    1    1    2    0  501 -0.19640748949E+01  0.74275497409E+00 -0.26628896097E+01  0.33912027686E+01  0.00000000000E+00 0.  1.
<mgrwt>
<rscale>  0 0.20998274E+01</rscale>
<asrwt>0</asrwt>
<pdfrwt beam="1">0</pdfrwt>
<pdfrwt beam="2">0</pdfrwt>
<totfact> 0.22629150E+12</totfact>
</mgrwt>
</event>
<event>
 4    2  0.1985873E+006  0.2229895E+01  0.7546771E-02  0.2841089E+00
         22   -1    0    0    0    0  0.00000000000E+00  0.00000000000E+00  0.36404703826E+01  0.36404703826E+01  0.00000000000E+00 0.  1.
         22   -1    0    0    0    0 -0.00000000000E+00 -0.00000000000E+00 -0.55409359624E+01  0.55409359624E+01  0.00000000000E+00 0. -1.
          4    1    1    2  501    0 -0.18450545275E+01 -0.12522793192E+01  0.30346818815E+01  0.37658629588E+01  0.00000000000E+00 0.  1.
         -4    1    1    2    0  501  0.18450545275E+01  0.12522793192E+01 -0.49351474614E+01  0.54155433862E+01  0.00000000000E+00 0. -1.
<mgrwt>
<rscale>  0 0.22298945E+01</rscale>
<asrwt>0</asrwt>
<pdfrwt beam="1">0</pdfrwt>
<pdfrwt beam="2">0</pdfrwt>
<totfact> 0.72231207E+11</totfact>
</mgrwt>
</event>
<event>
 4    2  0.1985873E+006  0.2216918E+01  0.7546771E-02  0.2848226E+00
         22   -1    0    0    0    0  0.00000000000E+00  0.00000000000E+00  0.39602486900E+00  0.39602486900E+00  0.00000000000E+00 0. -1.
         22   -1    0    0    0    0 -0.00000000000E+00 -0.00000000000E+00 -0.12426194249E+02  0.12426194249E+02  0.00000000000E+00 0.  1.
          4    1    1    2  501    0 -0.18159040946E+01  0.12716988911E+01 -0.57846745142E+01  0.61949322019E+01  0.00000000000E+00 0.  1.
         -4    1    1    2    0  501  0.18159040946E+01 -0.12716988911E+01 -0.62454948659E+01  0.66272869162E+01  0.00000000000E+00 0. -1.
<mgrwt>
<rscale>  0 0.22169181E+01</rscale>
<asrwt>0</asrwt>
<pdfrwt beam="1">0</pdfrwt>
<pdfrwt beam="2">0</pdfrwt>
<totfact> 0.34811996E+12</totfact>
</mgrwt>
</event>
<event>
 4    2  0.1985873E+006  0.2253274E+01  0.7546771E-02  0.2828427E+00
         22   -1    0    0    0    0  0.00000000000E+00  0.00000000000E+00  0.35955983371E+01  0.35955983371E+01  0.00000000000E+00 0.  1.
         22   -1    0    0    0    0 -0.00000000000E+00 -0.00000000000E+00 -0.51535646150E+01  0.51535646150E+01  0.00000000000E+00 0. -1.
          4    1    1    2  501    0  0.10222688186E+00  0.22509543069E+01  0.29484088070E+01  0.37108435861E+01  0.00000000000E+00 0.  1.
         -4    1    1    2    0  501 -0.10222688186E+00 -0.22509543069E+01 -0.45063750850E+01  0.50383193660E+01  0.00000000000E+00 0. -1.
<mgrwt>
<rscale>  0 0.22532744E+01</rscale>
<asrwt>0</asrwt>
<pdfrwt beam="1">0</pdfrwt>
<pdfrwt beam="2">0</pdfrwt>
<totfact> 0.79870685E+11</totfact>
</mgrwt>
</event>
<event>
 4    2  0.1985873E+006  0.2436896E+01  0.7546771E-02  0.2737022E+00
         22   -1    0    0    0    0  0.00000000000E+00  0.00000000000E+00  0.18055302883E+01  0.18055302883E+01  0.00000000000E+00 0.  1.
         22   -1    0    0    0    0 -0.00000000000E+00 -0.00000000000E+00 -0.36903481247E+01  0.36903481247E+01  0.00000000000E+00 0. -1.
          4    1    1    2  501    0  0.22018209651E+01  0.10442433798E+01 -0.36232220834E-01  0.24371648637E+01  0.00000000000E+00 0.  1.
         -4    1    1    2    0  501 -0.22018209651E+01 -0.10442433798E+01 -0.18485856156E+01  0.30587135494E+01  0.00000000000E+00 0. -1.
<mgrwt>
<rscale>  0 0.24368955E+01</rscale>
<asrwt>0</asrwt>
<pdfrwt beam="1">0</pdfrwt>
<pdfrwt beam="2">0</pdfrwt>
<totfact> 0.26403995E+12</totfact>
</mgrwt>
</event>
<event>
 4    2  0.1985873E+006  0.2069200E+01  0.7546771E-02  0.2935531E+00
         22   -1    0    0    0    0  0.00000000000E+00  0.00000000000E+00  0.98546020137E+01  0.98546020137E+01  0.00000000000E+00 0. -1.
         22   -1    0    0    0    0 -0.00000000000E+00 -0.00000000000E+00 -0.24314177972E+01  0.24314177972E+01  0.00000000000E+00 0.  1.
          4    1    1    2  501    0  0.20427876084E+01 -0.32955361228E+00  0.92787576772E+01  0.95066782226E+01  0.00000000000E+00 0. -1.
         -4    1    1    2    0  501 -0.20427876084E+01  0.32955361228E+00 -0.18555734607E+01  0.27793415883E+01  0.00000000000E+00 0.  1.
<mgrwt>
<rscale>  0 0.20691996E+01</rscale>
<asrwt>0</asrwt>
<pdfrwt beam="1">0</pdfrwt>
<pdfrwt beam="2">0</pdfrwt>
<totfact> 0.58046159E+11</totfact>
</mgrwt>
</event>
<event>
 4    2  0.1985873E+006  0.2494196E+01  0.7546771E-02  0.2711094E+00
         22   -1    0    0    0    0  0.00000000000E+00  0.00000000000E+00  0.27083491216E+01  0.27083491216E+01  0.00000000000E+00 0. -1.
         22   -1    0    0    0    0 -0.00000000000E+00 -0.00000000000E+00 -0.52297669244E+02  0.52297669244E+02  0.00000000000E+00 0.  1.
          4    1    1    2  501    0  0.16179356953E+01 -0.18982360714E+01  0.20975846531E+01  0.32589687746E+01  0.00000000000E+00 0. -1.
         -4    1    1    2    0  501 -0.16179356953E+01  0.18982360714E+01 -0.51686904775E+02  0.51747049591E+02  0.00000000000E+00 0.  1.
<mgrwt>
<rscale>  0 0.24941965E+01</rscale>
<asrwt>0</asrwt>
<pdfrwt beam="1">0</pdfrwt>
<pdfrwt beam="2">0</pdfrwt>
<totfact> 0.62634184E+10</totfact>
</mgrwt>
</event>
<event>
 4    2  0.1985873E+006  0.2979580E+01  0.7546771E-02  0.2528672E+00
         22   -1    0    0    0    0  0.00000000000E+00  0.00000000000E+00  0.10642179816E+02  0.10642179816E+02  0.00000000000E+00 0. -1.
         22   -1    0    0    0    0 -0.00000000000E+00 -0.00000000000E+00 -0.13237343626E+01  0.13237343626E+01  0.00000000000E+00 0.  1.
          4    1    1    2  501    0 -0.17237334859E+01  0.24303582114E+01  0.82975274036E+01  0.88162837511E+01  0.00000000000E+00 0. -1.
         -4    1    1    2    0  501  0.17237334859E+01 -0.24303582114E+01  0.10209180500E+01  0.31496304277E+01  0.00000000000E+00 0.  1.
<mgrwt>
<rscale>  0 0.29795802E+01</rscale>
<asrwt>0</asrwt>
<pdfrwt beam="1">0</pdfrwt>
<pdfrwt beam="2">0</pdfrwt>
<totfact> 0.10673696E+12</totfact>
</mgrwt>
</event>
<event>
 4    2  0.1985873E+006  0.2372700E+01  0.7546771E-02  0.2767460E+00
         22   -1    0    0    0    0  0.00000000000E+00  0.00000000000E+00  0.20767777442E+01  0.20767777442E+01  0.00000000000E+00 0. -1.
         22   -1    0    0    0    0 -0.00000000000E+00 -0.00000000000E+00 -0.10001553368E+02  0.10001553368E+02  0.00000000000E+00 0.  1.
          4    1    1    2  501    0  0.50569611954E+00 -0.23181835418E+01  0.11938124658E+01  0.26561046106E+01  0.00000000000E+00 0. -1.
         -4    1    1    2    0  501 -0.50569611954E+00  0.23181835418E+01 -0.91185880896E+01  0.94222265015E+01  0.00000000000E+00 0.  1.
<mgrwt>
<rscale>  0 0.23726996E+01</rscale>
<asrwt>0</asrwt>
<pdfrwt beam="1">0</pdfrwt>
<pdfrwt beam="2">0</pdfrwt>
<totfact> 0.68465687E+11</totfact>
</mgrwt>
</event>
<event>
 4    2  0.1985873E+006  0.2654934E+01  0.7546771E-02  0.2643929E+00
         22   -1    0    0    0    0  0.00000000000E+00  0.00000000000E+00  0.35409997328E+01  0.35409997328E+01  0.00000000000E+00 0. -1.
         22   -1    0    0    0    0 -0.00000000000E+00 -0.00000000000E+00 -0.50108667829E+01  0.50108667829E+01  0.00000000000E+00 0.  1.
          4    1    1    2  501    0 -0.25896442337E+01 -0.58516621126E+00  0.25847593026E+01  0.37053552332E+01  0.00000000000E+00 0. -1.
         -4    1    1    2    0  501  0.25896442337E+01  0.58516621126E+00 -0.40546263527E+01  0.48465112825E+01  0.00000000000E+00 0.  1.
<mgrwt>
<rscale>  0 0.26549344E+01</rscale>
<asrwt>0</asrwt>
<pdfrwt beam="1">0</pdfrwt>
<pdfrwt beam="2">0</pdfrwt>
<totfact> 0.84071239E+11</totfact>
</mgrwt>
</event>
<event>
 4    2  0.1985873E+006  0.3045311E+01  0.7546771E-02  0.2508052E+00
         22   -1    0    0    0    0  0.00000000000E+00  0.00000000000E+00  0.39855908671E+00  0.39855908671E+00  0.00000000000E+00 0.  1.
         22   -1    0    0    0    0 -0.00000000000E+00 -0.00000000000E+00 -0.28951116561E+02  0.28951116561E+02  0.00000000000E+00 0. -1.
          4    1    1    2  501    0  0.81293968034E+00  0.29347997560E+01 -0.77748293616E+01  0.83499636007E+01  0.00000000000E+00 0.  1.
         -4    1    1    2    0  501 -0.81293968034E+00 -0.29347997560E+01 -0.20777728113E+02  0.20999712047E+02  0.00000000000E+00 0. -1.
<mgrwt>
<rscale>  0 0.30453112E+01</rscale>
<asrwt>0</asrwt>
<pdfrwt beam="1">0</pdfrwt>
<pdfrwt beam="2">0</pdfrwt>
<totfact> 0.12062638E+12</totfact>
</mgrwt>
</event>
<event>
 4    2  0.1985873E+006  0.3171863E+01  0.7546771E-02  0.2470510E+00
         22   -1    0    0    0    0  0.00000000000E+00  0.00000000000E+00  0.17211159511E+02  0.17211159511E+02  0.00000000000E+00 0.  1.
         22   -1    0    0    0    0 -0.00000000000E+00 -0.00000000000E+00 -0.64286460983E+00  0.64286460983E+00  0.00000000000E+00 0. -1.
          4    1    1    2  501    0  0.24815335675E+01  0.19755262123E+01  0.55953980279E+01  0.64318886614E+01  0.00000000000E+00 0. -1.
         -4    1    1    2    0  501 -0.24815335675E+01 -0.19755262123E+01  0.10972896873E+02  0.11422135459E+02  0.00000000000E+00 0.  1.
<mgrwt>
<rscale>  0 0.31718626E+01</rscale>
<asrwt>0</asrwt>
<pdfrwt beam="1">0</pdfrwt>
<pdfrwt beam="2">0</pdfrwt>
<totfact> 0.13495965E+12</totfact>
</mgrwt>
</event>
<event>
 4    2  0.1985873E+006  0.2211168E+01  0.7546771E-02  0.2851414E+00
         22   -1    0    0    0    0  0.00000000000E+00  0.00000000000E+00  0.89561519801E+01  0.89561519801E+01  0.00000000000E+00 0.  1.
         22   -1    0    0    0    0 -0.00000000000E+00 -0.00000000000E+00 -0.84688572977E+00  0.84688572977E+00  0.00000000000E+00 0. -1.
          4    1    1    2  501    0  0.21119486129E+01 -0.65493200929E+00  0.69766532750E+01  0.73186715871E+01  0.00000000000E+00 0.  1.
         -4    1    1    2    0  501 -0.21119486129E+01  0.65493200929E+00  0.11326129753E+01  0.24843661228E+01  0.00000000000E+00 0. -1.
<mgrwt>
<rscale>  0 0.22111678E+01</rscale>
<asrwt>0</asrwt>
<pdfrwt beam="1">0</pdfrwt>
<pdfrwt beam="2">0</pdfrwt>
<totfact> 0.21911174E+12</totfact>
</mgrwt>
</event>
<event>
 4    2  0.1985873E+006  0.5365608E+01  0.7546771E-02  0.2081736E+00
         22   -1    0    0    0    0  0.00000000000E+00  0.00000000000E+00  0.13804685636E+02  0.13804685636E+02  0.00000000000E+00 0. -1.
         22   -1    0    0    0    0 -0.00000000000E+00 -0.00000000000E+00 -0.15435983642E+02  0.15435983642E+02  0.00000000000E+00 0.  1.
          4    1    1    2  501    0  0.50712774257E+01  0.17526820873E+01  0.12781209144E+02  0.13861784027E+02  0.00000000000E+00 0. -1.
         -4    1    1    2    0  501 -0.50712774257E+01 -0.17526820873E+01 -0.14412507150E+02  0.15378885251E+02  0.00000000000E+00 0.  1.
<mgrwt>
<rscale>  0 0.53656080E+01</rscale>
<asrwt>0</asrwt>
<pdfrwt beam="1">0</pdfrwt>
<pdfrwt beam="2">0</pdfrwt>
<totfact> 0.42441157E+10</totfact>
</mgrwt>
</event>
<event>
 4    2  0.1985873E+006  0.2285800E+01  0.7546771E-02  0.2811224E+00
         22   -1    0    0    0    0  0.00000000000E+00  0.00000000000E+00  0.63702505540E+00  0.63702505540E+00  0.00000000000E+00 0. -1.
         22   -1    0    0    0    0 -0.00000000000E+00 -0.00000000000E+00 -0.17332575628E+02  0.17332575628E+02  0.00000000000E+00 0.  1.
          4    1    1    2  501    0 -0.63512301409E+00 -0.21957920224E+01 -0.18266011762E+01  0.29259794438E+01  0.00000000000E+00 0. -1.
         -4    1    1    2    0  501  0.63512301409E+00  0.21957920224E+01 -0.14868949396E+02  0.15043621240E+02  0.00000000000E+00 0.  1.
<mgrwt>
<rscale>  0 0.22858005E+01</rscale>
<asrwt>0</asrwt>
<pdfrwt beam="1">0</pdfrwt>
<pdfrwt beam="2">0</pdfrwt>
<totfact> 0.13517382E+12</totfact>
</mgrwt>
</event>
<event>
 4    2  0.1985873E+006  0.2034443E+01  0.7546771E-02  0.2957856E+00
         22   -1    0    0    0    0  0.00000000000E+00  0.00000000000E+00  0.34606212744E+01  0.34606212744E+01  0.00000000000E+00 0.  1.
         22   -1    0    0    0    0 -0.00000000000E+00 -0.00000000000E+00 -0.32246981328E+01  0.32246981328E+01  0.00000000000E+00 0. -1.
          4    1    1    2  501    0 -0.11689610381E+01 -0.16650797069E+01  0.27692353421E+01  0.34362224490E+01  0.00000000000E+00 0.  1.
         -4    1    1    2    0  501  0.11689610381E+01  0.16650797069E+01 -0.25333122005E+01  0.32490969582E+01  0.00000000000E+00 0. -1.
<mgrwt>
<rscale>  0 0.20344435E+01</rscale>
<asrwt>0</asrwt>
<pdfrwt beam="1">0</pdfrwt>
<pdfrwt beam="2">0</pdfrwt>
<totfact> 0.14507839E+12</totfact>
</mgrwt>
</event>
<event>
 4    2  0.1985873E+006  0.2289255E+01  0.7546771E-02  0.2809424E+00
         22   -1    0    0    0    0  0.00000000000E+00  0.00000000000E+00  0.12989188482E+01  0.12989188482E+01  0.00000000000E+00 0.  1.
         22   -1    0    0    0    0 -0.00000000000E+00 -0.00000000000E+00 -0.46696912006E+01  0.46696912006E+01  0.00000000000E+00 0. -1.
          4    1    1    2  501    0  0.44761603947E+00  0.22450679189E+01 -0.58486552015E+00  0.23627860157E+01  0.00000000000E+00 0.  1.
         -4    1    1    2    0  501 -0.44761603947E+00 -0.22450679189E+01 -0.27859068323E+01  0.36058240331E+01  0.00000000000E+00 0. -1.
<mgrwt>
<rscale>  0 0.22892554E+01</rscale>
<asrwt>0</asrwt>
<pdfrwt beam="1">0</pdfrwt>
<pdfrwt beam="2">0</pdfrwt>
<totfact> 0.29234148E+12</totfact>
</mgrwt>
</event>
<event>
 4    2  0.1985873E+006  0.2180052E+01  0.7546771E-02  0.2868947E+00
         22   -1    0    0    0    0  0.00000000000E+00  0.00000000000E+00  0.33674404883E+01  0.33674404883E+01  0.00000000000E+00 0.  1.
         22   -1    0    0    0    0 -0.00000000000E+00 -0.00000000000E+00 -0.37166173066E+01  0.37166173066E+01  0.00000000000E+00 0. -1.
          4    1    1    2  501    0 -0.21890406013E+00  0.21690339771E+01  0.26149933590E+01  0.34045289907E+01  0.00000000000E+00 0.  1.
         -4    1    1    2    0  501  0.21890406013E+00 -0.21690339771E+01 -0.29641701773E+01  0.36795288042E+01  0.00000000000E+00 0. -1.
<mgrwt>
<rscale>  0 0.21800522E+01</rscale>
<asrwt>0</asrwt>
<pdfrwt beam="1">0</pdfrwt>
<pdfrwt beam="2">0</pdfrwt>
<totfact> 0.12683150E+12</totfact>
</mgrwt>
</event>
<event>
 4    2  0.1985873E+006  0.2816419E+01  0.7546771E-02  0.2583583E+00
         22   -1    0    0    0    0  0.00000000000E+00  0.00000000000E+00  0.17108727223E+02  0.17108727223E+02  0.00000000000E+00 0.  1.
         22   -1    0    0    0    0 -0.00000000000E+00 -0.00000000000E+00 -0.69838625753E+00  0.69838625753E+00  0.00000000000E+00 0. -1.
          4    1    1    2  501    0  0.52128371265E-01  0.28159362740E+01  0.13367183868E+02  0.13660666859E+02  0.00000000000E+00 0.  1.
         -4    1    1    2    0  501 -0.52128371265E-01 -0.28159362740E+01  0.30431570973E+01  0.41464466216E+01  0.00000000000E+00 0. -1.
<mgrwt>
<rscale>  0 0.28164187E+01</rscale>
<asrwt>0</asrwt>
<pdfrwt beam="1">0</pdfrwt>
<pdfrwt beam="2">0</pdfrwt>
<totfact> 0.12376598E+12</totfact>
</mgrwt>
</event>
<event>
 4    2  0.1985873E+006  0.2331739E+01  0.7546771E-02  0.2787704E+00
         22   -1    0    0    0    0  0.00000000000E+00  0.00000000000E+00  0.10183650303E+03  0.10183650303E+03  0.00000000000E+00 0.  1.
         22   -1    0    0    0    0 -0.00000000000E+00 -0.00000000000E+00 -0.57674798684E-01  0.57674798684E-01  0.00000000000E+00 0. -1.
          4    1    1    2  501    0 -0.20513901467E+01 -0.11085146759E+01  0.64776583195E+02  0.64818536984E+02  0.00000000000E+00 0.  1.
         -4    1    1    2    0  501  0.20513901467E+01  0.11085146759E+01  0.37002245039E+02  0.37075640847E+02  0.00000000000E+00 0. -1.
<mgrwt>
<rscale>  0 0.23317389E+01</rscale>
<asrwt>0</asrwt>
<pdfrwt beam="1">0</pdfrwt>
<pdfrwt beam="2">0</pdfrwt>
<totfact> 0.19396408E+12</totfact>
</mgrwt>
</event>
<event>
 4    2  0.1985873E+006  0.2201079E+01  0.7546771E-02  0.2857047E+00
         22   -1    0    0    0    0  0.00000000000E+00  0.00000000000E+00  0.36809355187E+01  0.36809355187E+01  0.00000000000E+00 0. -1.
         22   -1    0    0    0    0 -0.00000000000E+00 -0.00000000000E+00 -0.15421364537E+01  0.15421364537E+01  0.00000000000E+00 0.  1.
          4    1    1    2  501    0 -0.14407942044E+01  0.16639889501E+01  0.20690632237E+01  0.30208889071E+01  0.00000000000E+00 0. -1.
         -4    1    1    2    0  501  0.14407942044E+01 -0.16639889501E+01  0.69735841227E-01  0.22021830653E+01  0.00000000000E+00 0.  1.
<mgrwt>
<rscale>  0 0.22010786E+01</rscale>
<asrwt>0</asrwt>
<pdfrwt beam="1">0</pdfrwt>
<pdfrwt beam="2">0</pdfrwt>
<totfact> 0.31763189E+12</totfact>
</mgrwt>
</event>
<event>
 4    2  0.1985873E+006  0.2260108E+01  0.7546771E-02  0.2824774E+00
         22   -1    0    0    0    0  0.00000000000E+00  0.00000000000E+00  0.24653222833E+02  0.24653222833E+02  0.00000000000E+00 0. -1.
         22   -1    0    0    0    0 -0.00000000000E+00 -0.00000000000E+00 -0.26457823370E+00  0.26457823370E+00  0.00000000000E+00 0.  1.
          4    1    1    2  501    0 -0.14511303136E+01  0.17327168025E+01  0.17996427831E+02  0.18137792076E+02  0.00000000000E+00 0. -1.
         -4    1    1    2    0  501  0.14511303136E+01 -0.17327168025E+01  0.63922167683E+01  0.67800089910E+01  0.00000000000E+00 0.  1.
<mgrwt>
<rscale>  0 0.22601077E+01</rscale>
<asrwt>0</asrwt>
<pdfrwt beam="1">0</pdfrwt>
<pdfrwt beam="2">0</pdfrwt>
<totfact> 0.23415288E+12</totfact>
</mgrwt>
</event>
<event>
 4    2  0.1985873E+006  0.4850944E+01  0.7546771E-02  0.2141227E+00
         22   -1    0    0    0    0  0.00000000000E+00  0.00000000000E+00  0.26029512856E+02  0.26029512856E+02  0.00000000000E+00 0.  1.
         22   -1    0    0    0    0 -0.00000000000E+00 -0.00000000000E+00 -0.90406197876E+00  0.90406197876E+00  0.00000000000E+00 0. -1.
          4    1    1    2  501    0 -0.24851274477E+01 -0.41660287764E+01  0.12492566820E+02  0.13401338737E+02  0.00000000000E+00 0. -1.
         -4    1    1    2    0  501  0.24851274477E+01  0.41660287764E+01  0.12632884057E+02  0.13532236098E+02  0.00000000000E+00 0.  1.
<mgrwt>
<rscale>  0 0.48509436E+01</rscale>
<asrwt>0</asrwt>
<pdfrwt beam="1">0</pdfrwt>
<pdfrwt beam="2">0</pdfrwt>
<totfact> 0.54599342E+11</totfact>
</mgrwt>
</event>
<event>
 4    2  0.1985873E+006  0.2273774E+01  0.7546771E-02  0.2817530E+00
         22   -1    0    0    0    0  0.00000000000E+00  0.00000000000E+00  0.16837490968E+01  0.16837490968E+01  0.00000000000E+00 0.  1.
         22   -1    0    0    0    0 -0.00000000000E+00 -0.00000000000E+00 -0.35662034543E+01  0.35662034543E+01  0.00000000000E+00 0. -1.
          4    1    1    2  501    0  0.71925398894E+00 -0.21570165672E+01  0.37380311260E-01  0.22740809263E+01  0.00000000000E+00 0.  1.
         -4    1    1    2    0  501 -0.71925398894E+00  0.21570165672E+01 -0.19198346688E+01  0.29758716248E+01  0.00000000000E+00 0. -1.
<mgrwt>
<rscale>  0 0.22737737E+01</rscale>
<asrwt>0</asrwt>
<pdfrwt beam="1">0</pdfrwt>
<pdfrwt beam="2">0</pdfrwt>
<totfact> 0.29792432E+12</totfact>
</mgrwt>
</event>
<event>
 4    2  0.1985873E+006  0.2417915E+01  0.7546771E-02  0.2745863E+00
         22   -1    0    0    0    0  0.00000000000E+00  0.00000000000E+00  0.11958594938E+01  0.11958594938E+01  0.00000000000E+00 0.  1.
         22   -1    0    0    0    0 -0.00000000000E+00 -0.00000000000E+00 -0.48944380038E+01  0.48944380038E+01  0.00000000000E+00 0. -1.
          4    1    1    2  501    0  0.16702307745E+01  0.17483258759E+01 -0.17459088054E+01  0.29823668060E+01  0.00000000000E+00 0.  1.
         -4    1    1    2    0  501 -0.16702307745E+01 -0.17483258759E+01 -0.19526697046E+01  0.31079306916E+01  0.00000000000E+00 0. -1.
<mgrwt>
<rscale>  0 0.24179153E+01</rscale>
<asrwt>0</asrwt>
<pdfrwt beam="1">0</pdfrwt>
<pdfrwt beam="2">0</pdfrwt>
<totfact> 0.30403248E+12</totfact>
</mgrwt>
</event>
<event>
 4    2  0.1985873E+006  0.2010261E+01  0.7546771E-02  0.2973835E+00
         22   -1    0    0    0    0  0.00000000000E+00  0.00000000000E+00  0.11922313535E+01  0.11922313535E+01  0.00000000000E+00 0.  1.
         22   -1    0    0    0    0 -0.00000000000E+00 -0.00000000000E+00 -0.36297412395E+01  0.36297412395E+01  0.00000000000E+00 0. -1.
          4    1    1    2  501    0 -0.17324120411E+01 -0.10197536040E+01 -0.18389374091E+01  0.27244888856E+01  0.00000000000E+00 0.  1.
         -4    1    1    2    0  501  0.17324120411E+01  0.10197536040E+01 -0.59857247685E+00  0.20974837075E+01  0.00000000000E+00 0. -1.
<mgrwt>
<rscale>  0 0.20102609E+01</rscale>
<asrwt>0</asrwt>
<pdfrwt beam="1">0</pdfrwt>
<pdfrwt beam="2">0</pdfrwt>
<totfact> 0.43389974E+12</totfact>
</mgrwt>
</event>
<event>
 4    2  0.1985873E+006  0.3247326E+01  0.7546771E-02  0.2449364E+00
         22   -1    0    0    0    0  0.00000000000E+00  0.00000000000E+00  0.17739168629E+01  0.17739168629E+01  0.00000000000E+00 0.  1.
         22   -1    0    0    0    0 -0.00000000000E+00 -0.00000000000E+00 -0.73190926382E+01  0.73190926382E+01  0.00000000000E+00 0. -1.
          4    1    1    2  501    0 -0.30872381286E+01 -0.10070193614E+01 -0.80230290913E+00  0.33449689408E+01  0.00000000000E+00 0.  1.
         -4    1    1    2    0  501  0.30872381286E+01  0.10070193614E+01 -0.47428728662E+01  0.57480405602E+01  0.00000000000E+00 0. -1.
<mgrwt>
<rscale>  0 0.32473262E+01</rscale>
<asrwt>0</asrwt>
<pdfrwt beam="1">0</pdfrwt>
<pdfrwt beam="2">0</pdfrwt>
<totfact> 0.11966450E+12</totfact>
</mgrwt>
</event>
<event>
 4    2  0.1985873E+006  0.2440278E+01  0.7546771E-02  0.2735460E+00
         22   -1    0    0    0    0  0.00000000000E+00  0.00000000000E+00  0.34671102397E+00  0.34671102397E+00  0.00000000000E+00 0. -1.
         22   -1    0    0    0    0 -0.00000000000E+00 -0.00000000000E+00 -0.17192773507E+02  0.17192773507E+02  0.00000000000E+00 0.  1.
          4    1    1    2  501    0  0.90165196322E+00  0.22675932461E+01 -0.81455264698E+01  0.85032086216E+01  0.00000000000E+00 0. -1.
         -4    1    1    2    0  501 -0.90165196322E+00 -0.22675932461E+01 -0.87005360133E+01  0.90362759094E+01  0.00000000000E+00 0.  1.
<mgrwt>
<rscale>  0 0.24402777E+01</rscale>
<asrwt>0</asrwt>
<pdfrwt beam="1">0</pdfrwt>
<pdfrwt beam="2">0</pdfrwt>
<totfact> 0.27122887E+12</totfact>
</mgrwt>
</event>
<event>
 4    2  0.1985873E+006  0.2136816E+01  0.7546771E-02  0.2894122E+00
         22   -1    0    0    0    0  0.00000000000E+00  0.00000000000E+00  0.12685147005E+01  0.12685147005E+01  0.00000000000E+00 0. -1.
         22   -1    0    0    0    0 -0.00000000000E+00 -0.00000000000E+00 -0.48968187939E+01  0.48968187939E+01  0.00000000000E+00 0.  1.
          4    1    1    2  501    0  0.64093673583E+00 -0.20384265919E+01 -0.22744175400E+00  0.21488863677E+01  0.00000000000E+00 0. -1.
         -4    1    1    2    0  501 -0.64093673583E+00  0.20384265919E+01 -0.34008623394E+01  0.40164471267E+01  0.00000000000E+00 0.  1.
<mgrwt>
<rscale>  0 0.21368161E+01</rscale>
<asrwt>0</asrwt>
<pdfrwt beam="1">0</pdfrwt>
<pdfrwt beam="2">0</pdfrwt>
<totfact> 0.28398004E+12</totfact>
</mgrwt>
</event>
<event>
 4    2  0.1985873E+006  0.5427857E+01  0.7546771E-02  0.2075149E+00
         22   -1    0    0    0    0  0.00000000000E+00  0.00000000000E+00  0.33965247357E+02  0.33965247357E+02  0.00000000000E+00 0. -1.
         22   -1    0    0    0    0 -0.00000000000E+00 -0.00000000000E+00 -0.86828059780E+00  0.86828059780E+00  0.00000000000E+00 0.  1.
          4    1    1    2  501    0  0.12266879659E+01 -0.52874253742E+01  0.15995448233E+02  0.16891299377E+02  0.00000000000E+00 0. -1.
         -4    1    1    2    0  501 -0.12266879659E+01  0.52874253742E+01  0.17101518525E+02  0.17942228577E+02  0.00000000000E+00 0.  1.
<mgrwt>
<rscale>  0 0.54278569E+01</rscale>
<asrwt>0</asrwt>
<pdfrwt beam="1">0</pdfrwt>
<pdfrwt beam="2">0</pdfrwt>
<totfact> 0.40733850E+11</totfact>
</mgrwt>
</event>
<event>
 4    2  0.1985873E+006  0.2480020E+01  0.7546771E-02  0.2717405E+00
         22   -1    0    0    0    0  0.00000000000E+00  0.00000000000E+00  0.19097118199E+00  0.19097118199E+00  0.00000000000E+00 0.  1.
         22   -1    0    0    0    0 -0.00000000000E+00 -0.00000000000E+00 -0.35814647763E+02  0.35814647763E+02  0.00000000000E+00 0. -1.
          4    1    1    2  501    0 -0.17256992545E+00 -0.24740084743E+01 -0.12097619732E+02  0.12349206512E+02  0.00000000000E+00 0.  1.
         -4    1    1    2    0  501  0.17256992545E+00  0.24740084743E+01 -0.23526056849E+02  0.23656412433E+02  0.00000000000E+00 0. -1.
<mgrwt>
<rscale>  0 0.24800198E+01</rscale>
<asrwt>0</asrwt>
<pdfrwt beam="1">0</pdfrwt>
<pdfrwt beam="2">0</pdfrwt>
<totfact> 0.20944552E+12</totfact>
</mgrwt>
</event>
<event>
 4    2  0.1985873E+006  0.2657381E+01  0.7546771E-02  0.2642965E+00
         22   -1    0    0    0    0  0.00000000000E+00  0.00000000000E+00  0.22053993667E+00  0.22053993667E+00  0.00000000000E+00 0. -1.
         22   -1    0    0    0    0 -0.00000000000E+00 -0.00000000000E+00 -0.36268223172E+02  0.36268223172E+02  0.00000000000E+00 0.  1.
          4    1    1    2  501    0 -0.83034494770E+00 -0.25243219610E+01 -0.11779695317E+02  0.12075715128E+02  0.00000000000E+00 0. -1.
         -4    1    1    2    0  501  0.83034494770E+00  0.25243219610E+01 -0.24267987919E+02  0.24413047981E+02  0.00000000000E+00 0.  1.
<mgrwt>
<rscale>  0 0.26573811E+01</rscale>
<asrwt>0</asrwt>
<pdfrwt beam="1">0</pdfrwt>
<pdfrwt beam="2">0</pdfrwt>
<totfact> 0.17549583E+12</totfact>
</mgrwt>
</event>
<event>
 4    2  0.1985873E+006  0.2513693E+01  0.7546771E-02  0.2702524E+00
         22   -1    0    0    0    0  0.00000000000E+00  0.00000000000E+00  0.76411454750E+01  0.76411454750E+01  0.00000000000E+00 0.  1.
         22   -1    0    0    0    0 -0.00000000000E+00 -0.00000000000E+00 -0.82695473892E+00  0.82695473892E+00  0.00000000000E+00 0. -1.
          4    1    1    2  501    0  0.58550285311E+00 -0.24445524913E+01  0.33814959498E+01  0.42134505257E+01  0.00000000000E+00 0.  1.
         -4    1    1    2    0  501 -0.58550285311E+00  0.24445524913E+01  0.34326947863E+01  0.42546496882E+01  0.00000000000E+00 0. -1.
<mgrwt>
<rscale>  0 0.25136926E+01</rscale>
<asrwt>0</asrwt>
<pdfrwt beam="1">0</pdfrwt>
<pdfrwt beam="2">0</pdfrwt>
<totfact> 0.27252532E+12</totfact>
</mgrwt>
</event>
<event>
 4    2  0.1985873E+006  0.2009207E+01  0.7546771E-02  0.2974540E+00
         22   -1    0    0    0    0  0.00000000000E+00  0.00000000000E+00  0.13568499898E+02  0.13568499898E+02  0.00000000000E+00 0.  1.
         22   -1    0    0    0    0 -0.00000000000E+00 -0.00000000000E+00 -0.63216464315E+00  0.63216464315E+00  0.00000000000E+00 0. -1.
          4    1    1    2  501    0  0.12281071007E+01 -0.15901781721E+01  0.11634173087E+02  0.11806392213E+02  0.00000000000E+00 0.  1.
         -4    1    1    2    0  501 -0.12281071007E+01  0.15901781721E+01  0.13021621679E+01  0.23942723281E+01  0.00000000000E+00 0. -1.
<mgrwt>
<rscale>  0 0.20092072E+01</rscale>
<asrwt>0</asrwt>
<pdfrwt beam="1">0</pdfrwt>
<pdfrwt beam="2">0</pdfrwt>
<totfact> 0.18433810E+12</totfact>
</mgrwt>
</event>
<event>
 4    2  0.1985873E+006  0.2157130E+01  0.7546771E-02  0.2882173E+00
         22   -1    0    0    0    0  0.00000000000E+00  0.00000000000E+00  0.53853962646E+01  0.53853962646E+01  0.00000000000E+00 0. -1.
         22   -1    0    0    0    0 -0.00000000000E+00 -0.00000000000E+00 -0.12062613191E+01  0.12062613191E+01  0.00000000000E+00 0.  1.
          4    1    1    2  501    0 -0.20751443034E+01 -0.58905423797E+00  0.38450486553E+01  0.44088102632E+01  0.00000000000E+00 0. -1.
         -4    1    1    2    0  501  0.20751443034E+01  0.58905423797E+00  0.33408629025E+00  0.21828473205E+01  0.00000000000E+00 0.  1.
<mgrwt>
<rscale>  0 0.21571298E+01</rscale>
<asrwt>0</asrwt>
<pdfrwt beam="1">0</pdfrwt>
<pdfrwt beam="2">0</pdfrwt>
<totfact> 0.26878288E+12</totfact>
</mgrwt>
</event>
<event>
 4    2  0.1985873E+006  0.2884605E+01  0.7546771E-02  0.2559953E+00
         22   -1    0    0    0    0  0.00000000000E+00  0.00000000000E+00  0.10375734871E+02  0.10375734871E+02  0.00000000000E+00 0. -1.
         22   -1    0    0    0    0 -0.00000000000E+00 -0.00000000000E+00 -0.10953712717E+01  0.10953712717E+01  0.00000000000E+00 0.  1.
          4    1    1    2  501    0  0.21077616531E+01  0.19693368356E+01  0.76086433431E+01  0.81371002378E+01  0.00000000000E+00 0. -1.
         -4    1    1    2    0  501 -0.21077616531E+01 -0.19693368356E+01  0.16717202563E+01  0.33340059048E+01  0.00000000000E+00 0.  1.
<mgrwt>
<rscale>  0 0.28846051E+01</rscale>
<asrwt>0</asrwt>
<pdfrwt beam="1">0</pdfrwt>
<pdfrwt beam="2">0</pdfrwt>
<totfact> 0.13674247E+12</totfact>
</mgrwt>
</event>
<event>
 4    2  0.1985873E+006  0.4532782E+01  0.7546771E-02  0.2185719E+00
         22   -1    0    0    0    0  0.00000000000E+00  0.00000000000E+00  0.33640260708E+01  0.33640260708E+01  0.00000000000E+00 0. -1.
         22   -1    0    0    0    0 -0.00000000000E+00 -0.00000000000E+00 -0.61075977060E+01  0.61075977060E+01  0.00000000000E+00 0.  1.
          4    1    1    2  501    0  0.43619985230E+01 -0.12325100196E+01 -0.13743127398E+01  0.47365438423E+01  0.00000000000E+00 0. -1.
         -4    1    1    2    0  501 -0.43619985230E+01  0.12325100196E+01 -0.13692588954E+01  0.47350799345E+01  0.00000000000E+00 0.  1.
<mgrwt>
<rscale>  0 0.45327819E+01</rscale>
<asrwt>0</asrwt>
<pdfrwt beam="1">0</pdfrwt>
<pdfrwt beam="2">0</pdfrwt>
<totfact> 0.70580154E+11</totfact>
</mgrwt>
</event>
<event>
 4    2  0.1985873E+006  0.7117769E+01  0.7546771E-02  0.1931906E+00
         22   -1    0    0    0    0  0.00000000000E+00  0.00000000000E+00  0.10313277862E+02  0.10313277862E+02  0.00000000000E+00 0.  1.
         22   -1    0    0    0    0 -0.00000000000E+00 -0.00000000000E+00 -0.58903269426E+01  0.58903269426E+01  0.00000000000E+00 0. -1.
          4    1    1    2  501    0 -0.56209988225E+01 -0.43665782118E+01 -0.10897249757E+01  0.72007036854E+01  0.00000000000E+00 0.  1.
         -4    1    1    2    0  501  0.56209988225E+01  0.43665782118E+01  0.55126758955E+01  0.90029011197E+01  0.00000000000E+00 0. -1.
<mgrwt>
<rscale>  0 0.71177688E+01</rscale>
<asrwt>0</asrwt>
<pdfrwt beam="1">0</pdfrwt>
<pdfrwt beam="2">0</pdfrwt>
<totfact> 0.19418538E+11</totfact>
</mgrwt>
</event>
<event>
 4    2  0.1985873E+006  0.4918454E+01  0.7546771E-02  0.2132865E+00
         22   -1    0    0    0    0  0.00000000000E+00  0.00000000000E+00  0.81382766778E+01  0.81382766778E+01  0.00000000000E+00 0.  1.
         22   -1    0    0    0    0 -0.00000000000E+00 -0.00000000000E+00 -0.50181033093E+01  0.50181033093E+01  0.00000000000E+00 0. -1.
          4    1    1    2  501    0 -0.23690945588E+01  0.43102882938E+01  0.57600466155E+01  0.75742544991E+01  0.00000000000E+00 0.  1.
         -4    1    1    2    0  501  0.23690945588E+01 -0.43102882938E+01 -0.26398732471E+01  0.55821254881E+01  0.00000000000E+00 0. -1.
<mgrwt>
<rscale>  0 0.49184545E+01</rscale>
<asrwt>0</asrwt>
<pdfrwt beam="1">0</pdfrwt>
<pdfrwt beam="2">0</pdfrwt>
<totfact> 0.31260260E+11</totfact>
</mgrwt>
</event>
<event>
 4    2  0.1985873E+006  0.2616433E+01  0.7546771E-02  0.2659322E+00
         22   -1    0    0    0    0  0.00000000000E+00  0.00000000000E+00  0.27064365915E+01  0.27064365915E+01  0.00000000000E+00 0. -1.
         22   -1    0    0    0    0 -0.00000000000E+00 -0.00000000000E+00 -0.34848198928E+01  0.34848198928E+01  0.00000000000E+00 0.  1.
          4    1    1    2  501    0  0.25416801619E+01  0.62095518805E+00  0.12316870219E+01  0.28918465227E+01  0.00000000000E+00 0. -1.
         -4    1    1    2    0  501 -0.25416801619E+01 -0.62095518805E+00 -0.20100703231E+01  0.32994099616E+01  0.00000000000E+00 0.  1.
<mgrwt>
<rscale>  0 0.26164333E+01</rscale>
<asrwt>0</asrwt>
<pdfrwt beam="1">0</pdfrwt>
<pdfrwt beam="2">0</pdfrwt>
<totfact> 0.17658443E+12</totfact>
</mgrwt>
</event>
<event>
 4    2  0.1985873E+006  0.2244427E+01  0.7546771E-02  0.2833189E+00
         22   -1    0    0    0    0  0.00000000000E+00  0.00000000000E+00  0.22611739007E+01  0.22611739007E+01  0.00000000000E+00 0. -1.
         22   -1    0    0    0    0 -0.00000000000E+00 -0.00000000000E+00 -0.25650926766E+01  0.25650926766E+01  0.00000000000E+00 0.  1.
          4    1    1    2  501    0  0.14898295350E+01  0.16786486626E+01  0.72308552330E+00  0.23580301206E+01  0.00000000000E+00 0. -1.
         -4    1    1    2    0  501 -0.14898295350E+01 -0.16786486626E+01 -0.10270042991E+01  0.24682364567E+01  0.00000000000E+00 0.  1.
<mgrwt>
<rscale>  0 0.22444272E+01</rscale>
<asrwt>0</asrwt>
<pdfrwt beam="1">0</pdfrwt>
<pdfrwt beam="2">0</pdfrwt>
<totfact> 0.31129342E+12</totfact>
</mgrwt>
</event>
<event>
 4    2  0.1985873E+006  0.2355572E+01  0.7546771E-02  0.2775844E+00
         22   -1    0    0    0    0  0.00000000000E+00  0.00000000000E+00  0.23040791573E+01  0.23040791573E+01  0.00000000000E+00 0. -1.
         22   -1    0    0    0    0 -0.00000000000E+00 -0.00000000000E+00 -0.25351961338E+01  0.25351961338E+01  0.00000000000E+00 0.  1.
          4    1    1    2  501    0 -0.38520649880E+00  0.23238620122E+01  0.42596041779E+00  0.23937754648E+01  0.00000000000E+00 0.  1.
         -4    1    1    2    0  501  0.38520649880E+00 -0.23238620122E+01 -0.65707739436E+00  0.24454998263E+01  0.00000000000E+00 0. -1.
<mgrwt>
<rscale>  0 0.23555718E+01</rscale>
<asrwt>0</asrwt>
<pdfrwt beam="1">0</pdfrwt>
<pdfrwt beam="2">0</pdfrwt>
<totfact> 0.30876338E+12</totfact>
</mgrwt>
</event>
<event>
 4    2  0.1985873E+006  0.3343744E+01  0.7546771E-02  0.2423576E+00
         22   -1    0    0    0    0  0.00000000000E+00  0.00000000000E+00  0.79133943140E+01  0.79133943140E+01  0.00000000000E+00 0.  1.
         22   -1    0    0    0    0 -0.00000000000E+00 -0.00000000000E+00 -0.14682114473E+01  0.14682114473E+01  0.00000000000E+00 0. -1.
          4    1    1    2  501    0  0.16025146523E+01  0.29347181016E+01  0.41332701434E+01  0.53164410676E+01  0.00000000000E+00 0.  1.
         -4    1    1    2    0  501 -0.16025146523E+01 -0.29347181016E+01  0.23119127234E+01  0.40651646937E+01  0.00000000000E+00 0. -1.
<mgrwt>
<rscale>  0 0.33437439E+01</rscale>
<asrwt>0</asrwt>
<pdfrwt beam="1">0</pdfrwt>
<pdfrwt beam="2">0</pdfrwt>
<totfact> 0.13550505E+12</totfact>
</mgrwt>
</event>
<event>
 4    2  0.1985873E+006  0.2350450E+01  0.7546771E-02  0.2778374E+00
         22   -1    0    0    0    0  0.00000000000E+00  0.00000000000E+00  0.33103685192E+00  0.33103685192E+00  0.00000000000E+00 0.  1.
         22   -1    0    0    0    0 -0.00000000000E+00 -0.00000000000E+00 -0.16702865923E+02  0.16702865923E+02  0.00000000000E+00 0. -1.
          4    1    1    2  501    0 -0.19195818679E+01 -0.13564002549E+01 -0.79389802383E+01  0.82796149321E+01  0.00000000000E+00 0.  1.
         -4    1    1    2    0  501  0.19195818679E+01  0.13564002549E+01 -0.84328488328E+01  0.87542878429E+01  0.00000000000E+00 0. -1.
<mgrwt>
<rscale>  0 0.23504502E+01</rscale>
<asrwt>0</asrwt>
<pdfrwt beam="1">0</pdfrwt>
<pdfrwt beam="2">0</pdfrwt>
<totfact> 0.29609355E+12</totfact>
</mgrwt>
</event>
<event>
 4    2  0.1985873E+006  0.3796962E+01  0.7546771E-02  0.2317871E+00
         22   -1    0    0    0    0  0.00000000000E+00  0.00000000000E+00  0.88860712868E+00  0.88860712868E+00  0.00000000000E+00 0.  1.
         22   -1    0    0    0    0 -0.00000000000E+00 -0.00000000000E+00 -0.17047427433E+02  0.17047427433E+02  0.00000000000E+00 0. -1.
          4    1    1    2  501    0  0.18063057722E+01  0.33397873413E+01 -0.61086544548E+01  0.71925363590E+01  0.00000000000E+00 0.  1.
         -4    1    1    2    0  501 -0.18063057722E+01 -0.33397873413E+01 -0.10050165850E+02  0.10743498203E+02  0.00000000000E+00 0. -1.
<mgrwt>
<rscale>  0 0.37969619E+01</rscale>
<asrwt>0</asrwt>
<pdfrwt beam="1">0</pdfrwt>
<pdfrwt beam="2">0</pdfrwt>
<totfact> 0.94527096E+11</totfact>
</mgrwt>
</event>
<event>
 4    2  0.1985873E+006  0.2508450E+01  0.7546771E-02  0.2704816E+00
         22   -1    0    0    0    0  0.00000000000E+00  0.00000000000E+00  0.11888616231E+01  0.11888616231E+01  0.00000000000E+00 0.  1.
         22   -1    0    0    0    0 -0.00000000000E+00 -0.00000000000E+00 -0.57105180553E+01  0.57105180553E+01  0.00000000000E+00 0. -1.
          4    1    1    2  501    0  0.21021203642E+01  0.13687263988E+01 -0.31939127762E+01  0.40612068161E+01  0.00000000000E+00 0. -1.
         -4    1    1    2    0  501 -0.21021203642E+01 -0.13687263988E+01 -0.13277436559E+01  0.28381728623E+01  0.00000000000E+00 0.  1.
<mgrwt>
<rscale>  0 0.25084501E+01</rscale>
<asrwt>0</asrwt>
<pdfrwt beam="1">0</pdfrwt>
<pdfrwt beam="2">0</pdfrwt>
<totfact> 0.25492884E+12</totfact>
</mgrwt>
</event>
<event>
 4    2  0.1985873E+006  0.2065070E+01  0.7546771E-02  0.2938145E+00
         22   -1    0    0    0    0  0.00000000000E+00  0.00000000000E+00  0.90686684829E+00  0.90686684829E+00  0.00000000000E+00 0.  1.
         22   -1    0    0    0    0 -0.00000000000E+00 -0.00000000000E+00 -0.54869364798E+01  0.54869364798E+01  0.00000000000E+00 0. -1.
          4    1    1    2  501    0  0.63893888791E+00  0.19637394267E+01 -0.34988255239E+01  0.40627940491E+01  0.00000000000E+00 0. -1.
         -4    1    1    2    0  501 -0.63893888791E+00 -0.19637394267E+01 -0.10812441076E+01  0.23310092790E+01  0.00000000000E+00 0.  1.
<mgrwt>
<rscale>  0 0.20650703E+01</rscale>
<asrwt>0</asrwt>
<pdfrwt beam="1">0</pdfrwt>
<pdfrwt beam="2">0</pdfrwt>
<totfact> 0.36422051E+12</totfact>
</mgrwt>
</event>
<event>
 4    2  0.1985873E+006  0.2165319E+01  0.7546771E-02  0.2877416E+00
         22   -1    0    0    0    0  0.00000000000E+00  0.00000000000E+00  0.59919835332E+00  0.59919835332E+00  0.00000000000E+00 0. -1.
         22   -1    0    0    0    0 -0.00000000000E+00 -0.00000000000E+00 -0.78630373456E+01  0.78630373456E+01  0.00000000000E+00 0.  1.
          4    1    1    2  501    0  0.19898349291E+01  0.85391152331E+00 -0.39269708218E+01  0.44843848820E+01  0.00000000000E+00 0.  1.
         -4    1    1    2    0  501 -0.19898349291E+01 -0.85391152331E+00 -0.33368681705E+01  0.39778508169E+01  0.00000000000E+00 0. -1.
<mgrwt>
<rscale>  0 0.21653194E+01</rscale>
<asrwt>0</asrwt>
<pdfrwt beam="1">0</pdfrwt>
<pdfrwt beam="2">0</pdfrwt>
<totfact> 0.37957621E+12</totfact>
</mgrwt>
</event>
<event>
 4    2  0.1985873E+006  0.2642678E+01  0.7546771E-02  0.2648785E+00
         22   -1    0    0    0    0  0.00000000000E+00  0.00000000000E+00  0.47667083982E+01  0.47667083982E+01  0.00000000000E+00 0.  1.
         22   -1    0    0    0    0 -0.00000000000E+00 -0.00000000000E+00 -0.19824154075E+01  0.19824154075E+01  0.00000000000E+00 0. -1.
          4    1    1    2  501    0 -0.26367630151E+01  0.17670770482E+00  0.31159756505E+01  0.40857127977E+01  0.00000000000E+00 0.  1.
         -4    1    1    2    0  501  0.26367630151E+01 -0.17670770482E+00 -0.33168265975E+00  0.26634110080E+01  0.00000000000E+00 0. -1.
<mgrwt>
<rscale>  0 0.26426776E+01</rscale>
<asrwt>0</asrwt>
<pdfrwt beam="1">0</pdfrwt>
<pdfrwt beam="2">0</pdfrwt>
<totfact> 0.17530102E+12</totfact>
</mgrwt>
</event>
<event>
 4    2  0.1985873E+006  0.2564822E+01  0.7546771E-02  0.2680624E+00
         22   -1    0    0    0    0  0.00000000000E+00  0.00000000000E+00  0.68052191615E+00  0.68052191615E+00  0.00000000000E+00 0. -1.
         22   -1    0    0    0    0 -0.00000000000E+00 -0.00000000000E+00 -0.11881642919E+02  0.11881642919E+02  0.00000000000E+00 0.  1.
          4    1    1    2  501    0 -0.22166359335E+01  0.12902858543E+01 -0.28885566642E+01  0.38629097905E+01  0.00000000000E+00 0. -1.
         -4    1    1    2    0  501  0.22166359335E+01 -0.12902858543E+01 -0.83125643390E+01  0.86992550450E+01  0.00000000000E+00 0.  1.
<mgrwt>
<rscale>  0 0.25648221E+01</rscale>
<asrwt>0</asrwt>
<pdfrwt beam="1">0</pdfrwt>
<pdfrwt beam="2">0</pdfrwt>
<totfact> 0.19944421E+12</totfact>
</mgrwt>
</event>
<event>
 4    2  0.1985873E+006  0.2288213E+01  0.7546771E-02  0.2809966E+00
         22   -1    0    0    0    0  0.00000000000E+00  0.00000000000E+00  0.51586994122E+00  0.51586994122E+00  0.00000000000E+00 0.  1.
         22   -1    0    0    0    0 -0.00000000000E+00 -0.00000000000E+00 -0.13290933374E+02  0.13290933374E+02  0.00000000000E+00 0. -1.
          4    1    1    2  501    0 -0.22811424043E+01 -0.17974565621E+00 -0.30314208122E+01  0.37980825834E+01  0.00000000000E+00 0.  1.
         -4    1    1    2    0  501  0.22811424043E+01  0.17974565621E+00 -0.97436426208E+01  0.10008720732E+02  0.00000000000E+00 0. -1.
<mgrwt>
<rscale>  0 0.22882131E+01</rscale>
<asrwt>0</asrwt>
<pdfrwt beam="1">0</pdfrwt>
<pdfrwt beam="2">0</pdfrwt>
<totfact> 0.23798168E+12</totfact>
</mgrwt>
</event>
<event>
 4    2  0.1985873E+006  0.2987251E+01  0.7546771E-02  0.2526224E+00
         22   -1    0    0    0    0  0.00000000000E+00  0.00000000000E+00  0.19499187092E+01  0.19499187092E+01  0.00000000000E+00 0.  1.
         22   -1    0    0    0    0 -0.00000000000E+00 -0.00000000000E+00 -0.52295104521E+01  0.52295104521E+01  0.00000000000E+00 0. -1.
          4    1    1    2  501    0  0.10500690646E+01  0.27966094989E+01 -0.37123243601E+00  0.30102297672E+01  0.00000000000E+00 0.  1.
         -4    1    1    2    0  501 -0.10500690646E+01 -0.27966094989E+01 -0.29083593069E+01  0.41691993941E+01  0.00000000000E+00 0. -1.
<mgrwt>
<rscale>  0 0.29872512E+01</rscale>
<asrwt>0</asrwt>
<pdfrwt beam="1">0</pdfrwt>
<pdfrwt beam="2">0</pdfrwt>
<totfact> 0.16012145E+12</totfact>
</mgrwt>
</event>
<event>
 4    2  0.1985873E+006  0.2003323E+01  0.7546771E-02  0.2978489E+00
         22   -1    0    0    0    0  0.00000000000E+00  0.00000000000E+00  0.13237534182E+00  0.13237534182E+00  0.00000000000E+00 0. -1.
         22   -1    0    0    0    0 -0.00000000000E+00 -0.00000000000E+00 -0.31425271099E+02  0.31425271099E+02  0.00000000000E+00 0.  1.
          4    1    1    2  501    0  0.18985788025E+01 -0.63929855952E+00 -0.12684084350E+02  0.12841312235E+02  0.00000000000E+00 0. -1.
         -4    1    1    2    0  501 -0.18985788025E+01  0.63929855952E+00 -0.18608811407E+02  0.18716334206E+02  0.00000000000E+00 0.  1.
<mgrwt>
<rscale>  0 0.20033233E+01</rscale>
<asrwt>0</asrwt>
<pdfrwt beam="1">0</pdfrwt>
<pdfrwt beam="2">0</pdfrwt>
<totfact> 0.37235762E+12</totfact>
</mgrwt>
</event>
<event>
 4    2  0.1985873E+006  0.2343857E+01  0.7546771E-02  0.2781645E+00
         22   -1    0    0    0    0  0.00000000000E+00  0.00000000000E+00  0.34261064600E+02  0.34261064600E+02  0.00000000000E+00 0.  1.
         22   -1    0    0    0    0 -0.00000000000E+00 -0.00000000000E+00 -0.18426527536E+00  0.18426527536E+00  0.00000000000E+00 0. -1.
          4    1    1    2  501    0 -0.20520516399E+01 -0.11325851355E+01  0.23243401545E+02  0.23361279511E+02  0.00000000000E+00 0. -1.
         -4    1    1    2    0  501  0.20520516399E+01  0.11325851355E+01  0.10833397780E+02  0.11084050364E+02  0.00000000000E+00 0.  1.
<mgrwt>
<rscale>  0 0.23438569E+01</rscale>
<asrwt>0</asrwt>
<pdfrwt beam="1">0</pdfrwt>
<pdfrwt beam="2">0</pdfrwt>
<totfact> 0.23075348E+12</totfact>
</mgrwt>
</event>
<event>
 4    2  0.1985873E+006  0.3669272E+01  0.7546771E-02  0.2345354E+00
         22   -1    0    0    0    0  0.00000000000E+00  0.00000000000E+00  0.10171016727E+01  0.10171016727E+01  0.00000000000E+00 0.  1.
         22   -1    0    0    0    0 -0.00000000000E+00 -0.00000000000E+00 -0.26998074435E+02  0.26998074435E+02  0.00000000000E+00 0. -1.
          4    1    1    2  501    0  0.27360602077E+01 -0.24448987028E+01 -0.29900180028E+01  0.47332613264E+01  0.00000000000E+00 0.  1.
         -4    1    1    2    0  501 -0.27360602077E+01  0.24448987028E+01 -0.22990954759E+02  0.23281914781E+02  0.00000000000E+00 0. -1.
<mgrwt>
<rscale>  0 0.36692717E+01</rscale>
<asrwt>0</asrwt>
<pdfrwt beam="1">0</pdfrwt>
<pdfrwt beam="2">0</pdfrwt>
<totfact> 0.45574479E+11</totfact>
</mgrwt>
</event>
<event>
 4    2  0.1985873E+006  0.3160920E+01  0.7546771E-02  0.2473650E+00
         22   -1    0    0    0    0  0.00000000000E+00  0.00000000000E+00  0.69824268519E+01  0.69824268519E+01  0.00000000000E+00 0. -1.
         22   -1    0    0    0    0 -0.00000000000E+00 -0.00000000000E+00 -0.10732279187E+02  0.10732279187E+02  0.00000000000E+00 0.  1.
          4    1    1    2  501    0  0.12636956149E+01  0.28973246601E+01  0.63708353766E+01  0.71118886514E+01  0.00000000000E+00 0. -1.
         -4    1    1    2    0  501 -0.12636956149E+01 -0.28973246601E+01 -0.10120687712E+02  0.10602817388E+02  0.00000000000E+00 0.  1.
<mgrwt>
<rscale>  0 0.31609202E+01</rscale>
<asrwt>0</asrwt>
<pdfrwt beam="1">0</pdfrwt>
<pdfrwt beam="2">0</pdfrwt>
<totfact> 0.15104952E+11</totfact>
</mgrwt>
</event>
<event>
 4    2  0.1985873E+006  0.2076210E+01  0.7546771E-02  0.2931116E+00
         22   -1    0    0    0    0  0.00000000000E+00  0.00000000000E+00  0.20255303505E+01  0.20255303505E+01  0.00000000000E+00 0.  1.
         22   -1    0    0    0    0 -0.00000000000E+00 -0.00000000000E+00 -0.31039402122E+01  0.31039402122E+01  0.00000000000E+00 0. -1.
          4    1    1    2  501    0  0.10095803918E+01  0.18142208276E+01  0.89880602087E+00  0.22624106705E+01  0.00000000000E+00 0.  1.
         -4    1    1    2    0  501 -0.10095803918E+01 -0.18142208276E+01 -0.19772158826E+01  0.28670598921E+01  0.00000000000E+00 0. -1.
<mgrwt>
<rscale>  0 0.20762104E+01</rscale>
<asrwt>0</asrwt>
<pdfrwt beam="1">0</pdfrwt>
<pdfrwt beam="2">0</pdfrwt>
<totfact> 0.28311163E+12</totfact>
</mgrwt>
</event>
<event>
 4    2  0.1985873E+006  0.2597239E+01  0.7546771E-02  0.2667153E+00
         22   -1    0    0    0    0  0.00000000000E+00  0.00000000000E+00  0.84379454890E+00  0.84379454890E+00  0.00000000000E+00 0. -1.
         22   -1    0    0    0    0 -0.00000000000E+00 -0.00000000000E+00 -0.13635401615E+02  0.13635401615E+02  0.00000000000E+00 0.  1.
          4    1    1    2  501    0 -0.96956587376E-01  0.25954290756E+01 -0.17393248481E+01  0.31258444609E+01  0.00000000000E+00 0. -1.
         -4    1    1    2    0  501  0.96956587376E-01 -0.25954290756E+01 -0.11052282218E+02  0.11353351703E+02  0.00000000000E+00 0.  1.
<mgrwt>
<rscale>  0 0.25972394E+01</rscale>
<asrwt>0</asrwt>
<pdfrwt beam="1">0</pdfrwt>
<pdfrwt beam="2">0</pdfrwt>
<totfact> 0.13200576E+12</totfact>
</mgrwt>
</event>
<event>
 4    2  0.1985873E+006  0.2674044E+01  0.7546771E-02  0.2636441E+00
         22   -1    0    0    0    0  0.00000000000E+00  0.00000000000E+00  0.24330001060E+02  0.24330001060E+02  0.00000000000E+00 0.  1.
         22   -1    0    0    0    0 -0.00000000000E+00 -0.00000000000E+00 -0.29677048944E+00  0.29677048944E+00  0.00000000000E+00 0. -1.
          4    1    1    2  501    0 -0.45975768472E+00 -0.26342237074E+01  0.13228273610E+02  0.13495841374E+02  0.00000000000E+00 0.  1.
         -4    1    1    2    0  501  0.45975768472E+00  0.26342237074E+01  0.10804956960E+02  0.11130930176E+02  0.00000000000E+00 0. -1.
<mgrwt>
<rscale>  0 0.26740441E+01</rscale>
<asrwt>0</asrwt>
<pdfrwt beam="1">0</pdfrwt>
<pdfrwt beam="2">0</pdfrwt>
<totfact> 0.20935212E+12</totfact>
</mgrwt>
</event>
<event>
 4    2  0.1985873E+006  0.2137029E+01  0.7546771E-02  0.2893996E+00
         22   -1    0    0    0    0  0.00000000000E+00  0.00000000000E+00  0.13872600415E+02  0.13872600415E+02  0.00000000000E+00 0. -1.
         22   -1    0    0    0    0 -0.00000000000E+00 -0.00000000000E+00 -0.33063881553E+00  0.33063881553E+00  0.00000000000E+00 0.  1.
          4    1    1    2  501    0 -0.17923612271E+01  0.11637582319E+01  0.72390772566E+01  0.75479223312E+01  0.00000000000E+00 0. -1.
         -4    1    1    2    0  501  0.17923612271E+01 -0.11637582319E+01  0.63028843427E+01  0.66553168991E+01  0.00000000000E+00 0.  1.
<mgrwt>
<rscale>  0 0.21370288E+01</rscale>
<asrwt>0</asrwt>
<pdfrwt beam="1">0</pdfrwt>
<pdfrwt beam="2">0</pdfrwt>
<totfact> 0.37264258E+12</totfact>
</mgrwt>
</event>
<event>
 4    2  0.1985873E+006  0.2597008E+01  0.7546771E-02  0.2667248E+00
         22   -1    0    0    0    0  0.00000000000E+00  0.00000000000E+00  0.52376269335E+00  0.52376269335E+00  0.00000000000E+00 0. -1.
         22   -1    0    0    0    0 -0.00000000000E+00 -0.00000000000E+00 -0.13077922257E+02  0.13077922257E+02  0.00000000000E+00 0.  1.
          4    1    1    2  501    0 -0.25898234280E+01  0.19304190798E+00 -0.71202072913E+01  0.75790370389E+01  0.00000000000E+00 0.  1.
         -4    1    1    2    0  501  0.25898234280E+01 -0.19304190798E+00 -0.54339522719E+01  0.60226479110E+01  0.00000000000E+00 0. -1.
<mgrwt>
<rscale>  0 0.25970080E+01</rscale>
<asrwt>0</asrwt>
<pdfrwt beam="1">0</pdfrwt>
<pdfrwt beam="2">0</pdfrwt>
<totfact> 0.23861325E+12</totfact>
</mgrwt>
</event>
<event>
 4    2  0.1985873E+006  0.3193754E+01  0.7546771E-02  0.2464284E+00
         22   -1    0    0    0    0  0.00000000000E+00  0.00000000000E+00  0.83653266361E+02  0.83653266361E+02  0.00000000000E+00 0.  1.
         22   -1    0    0    0    0 -0.00000000000E+00 -0.00000000000E+00 -0.53151528772E+00  0.53151528772E+00  0.00000000000E+00 0. -1.
          4    1    1    2  501    0  0.94968125844E+00 -0.30492899456E+01  0.78511049562E+02  0.78575982125E+02  0.00000000000E+00 0.  1.
         -4    1    1    2    0  501 -0.94968125844E+00  0.30492899456E+01  0.46107015113E+01  0.56087995232E+01  0.00000000000E+00 0. -1.
<mgrwt>
<rscale>  0 0.31937539E+01</rscale>
<asrwt>0</asrwt>
<pdfrwt beam="1">0</pdfrwt>
<pdfrwt beam="2">0</pdfrwt>
<totfact> 0.21480434E+11</totfact>
</mgrwt>
</event>
<event>
 4    2  0.1985873E+006  0.3094843E+01  0.7546771E-02  0.2493033E+00
         22   -1    0    0    0    0  0.00000000000E+00  0.00000000000E+00  0.12575103855E+02  0.12575103855E+02  0.00000000000E+00 0. -1.
         22   -1    0    0    0    0 -0.00000000000E+00 -0.00000000000E+00 -0.50258197532E+01  0.50258197532E+01  0.00000000000E+00 0.  1.
          4    1    1    2  501    0 -0.88333213831E+00 -0.29661046351E+01  0.11880861214E+02  0.12277333406E+02  0.00000000000E+00 0. -1.
         -4    1    1    2    0  501  0.88333213831E+00  0.29661046351E+01 -0.43315771117E+01  0.53235902028E+01  0.00000000000E+00 0.  1.
<mgrwt>
<rscale>  0 0.30948429E+01</rscale>
<asrwt>0</asrwt>
<pdfrwt beam="1">0</pdfrwt>
<pdfrwt beam="2">0</pdfrwt>
<totfact> 0.18417886E+11</totfact>
</mgrwt>
</event>
<event>
 4    2  0.1985873E+006  0.5450169E+01  0.7546771E-02  0.2072816E+00
         22   -1    0    0    0    0  0.00000000000E+00  0.00000000000E+00  0.44403767666E+01  0.44403767666E+01  0.00000000000E+00 0. -1.
         22   -1    0    0    0    0 -0.00000000000E+00 -0.00000000000E+00 -0.75829326887E+01  0.75829326887E+01  0.00000000000E+00 0.  1.
          4    1    1    2  501    0  0.32095016363E+01  0.44049335744E+01  0.49211646835E+00  0.54723412875E+01  0.00000000000E+00 0. -1.
         -4    1    1    2    0  501 -0.32095016363E+01 -0.44049335744E+01 -0.36346723905E+01  0.65509681677E+01  0.00000000000E+00 0.  1.
<mgrwt>
<rscale>  0 0.54501689E+01</rscale>
<asrwt>0</asrwt>
<pdfrwt beam="1">0</pdfrwt>
<pdfrwt beam="2">0</pdfrwt>
<totfact> 0.39322370E+11</totfact>
</mgrwt>
</event>
<event>
 4    2  0.1985873E+006  0.3192960E+01  0.7546771E-02  0.2464509E+00
         22   -1    0    0    0    0  0.00000000000E+00  0.00000000000E+00  0.93851969296E+01  0.93851969296E+01  0.00000000000E+00 0.  1.
         22   -1    0    0    0    0 -0.00000000000E+00 -0.00000000000E+00 -0.16643100175E+01  0.16643100175E+01  0.00000000000E+00 0. -1.
          4    1    1    2  501    0 -0.57141445878E+00 -0.31414136776E+01  0.71163301185E+01  0.77998172244E+01  0.00000000000E+00 0.  1.
         -4    1    1    2    0  501  0.57141445878E+00  0.31414136776E+01  0.60455679356E+00  0.32496897228E+01  0.00000000000E+00 0. -1.
<mgrwt>
<rscale>  0 0.31929601E+01</rscale>
<asrwt>0</asrwt>
<pdfrwt beam="1">0</pdfrwt>
<pdfrwt beam="2">0</pdfrwt>
<totfact> 0.95505060E+11</totfact>
</mgrwt>
</event>
<event>
 4    2  0.1985873E+006  0.2510209E+01  0.7546771E-02  0.2704046E+00
         22   -1    0    0    0    0  0.00000000000E+00  0.00000000000E+00  0.53673549424E+01  0.53673549424E+01  0.00000000000E+00 0.  1.
         22   -1    0    0    0    0 -0.00000000000E+00 -0.00000000000E+00 -0.14733653260E+01  0.14733653260E+01  0.00000000000E+00 0. -1.
          4    1    1    2  501    0 -0.31464146320E+00  0.24904112842E+01  0.34888178653E+01  0.42980225351E+01  0.00000000000E+00 0.  1.
         -4    1    1    2    0  501  0.31464146320E+00 -0.24904112842E+01  0.40517175102E+00  0.25426977333E+01  0.00000000000E+00 0. -1.
<mgrwt>
<rscale>  0 0.25102087E+01</rscale>
<asrwt>0</asrwt>
<pdfrwt beam="1">0</pdfrwt>
<pdfrwt beam="2">0</pdfrwt>
<totfact> 0.21449903E+12</totfact>
</mgrwt>
</event>
<event>
 4    2  0.1985873E+006  0.2542860E+01  0.7546771E-02  0.2689931E+00
         22   -1    0    0    0    0  0.00000000000E+00  0.00000000000E+00  0.31180748171E+02  0.31180748171E+02  0.00000000000E+00 0. -1.
         22   -1    0    0    0    0 -0.00000000000E+00 -0.00000000000E+00 -0.29649285375E+00  0.29649285375E+00  0.00000000000E+00 0.  1.
          4    1    1    2  501    0 -0.20734051780E+01 -0.14721169781E+01  0.24070712648E+02  0.24204655436E+02  0.00000000000E+00 0. -1.
         -4    1    1    2    0  501  0.20734051780E+01  0.14721169781E+01  0.68135426698E+01  0.72725855885E+01  0.00000000000E+00 0.  1.
<mgrwt>
<rscale>  0 0.25428601E+01</rscale>
<asrwt>0</asrwt>
<pdfrwt beam="1">0</pdfrwt>
<pdfrwt beam="2">0</pdfrwt>
<totfact> 0.15299744E+12</totfact>
</mgrwt>
</event>
<event>
 4    2  0.1985873E+006  0.2016876E+01  0.7546771E-02  0.2969427E+00
         22   -1    0    0    0    0  0.00000000000E+00  0.00000000000E+00  0.93202405849E+02  0.93202405849E+02  0.00000000000E+00 0.  1.
         22   -1    0    0    0    0 -0.00000000000E+00 -0.00000000000E+00 -0.14580671390E+00  0.14580671390E+00  0.00000000000E+00 0. -1.
          4    1    1    2  501    0  0.17166407752E+01 -0.10587408136E+01  0.85597277462E+02  0.85621035363E+02  0.00000000000E+00 0.  1.
         -4    1    1    2    0  501 -0.17166407752E+01  0.10587408136E+01  0.74593216728E+01  0.77271772000E+01  0.00000000000E+00 0. -1.
<mgrwt>
<rscale>  0 0.20168757E+01</rscale>
<asrwt>0</asrwt>
<pdfrwt beam="1">0</pdfrwt>
<pdfrwt beam="2">0</pdfrwt>
<totfact> 0.78731971E+11</totfact>
</mgrwt>
</event>
<event>
 4    2  0.1985873E+006  0.2213060E+01  0.7546771E-02  0.2850363E+00
         22   -1    0    0    0    0  0.00000000000E+00  0.00000000000E+00  0.10464227929E+01  0.10464227929E+01  0.00000000000E+00 0.  1.
         22   -1    0    0    0    0 -0.00000000000E+00 -0.00000000000E+00 -0.53594227306E+01  0.53594227306E+01  0.00000000000E+00 0. -1.
          4    1    1    2  501    0 -0.20715932102E+01  0.77854793995E+00 -0.10164013361E+01  0.24353042930E+01  0.00000000000E+00 0.  1.
         -4    1    1    2    0  501  0.20715932102E+01 -0.77854793995E+00 -0.32965986016E+01  0.39705412305E+01  0.00000000000E+00 0. -1.
<mgrwt>
<rscale>  0 0.22130602E+01</rscale>
<asrwt>0</asrwt>
<pdfrwt beam="1">0</pdfrwt>
<pdfrwt beam="2">0</pdfrwt>
<totfact> 0.31808531E+12</totfact>
</mgrwt>
</event>
<event>
 4    2  0.1985873E+006  0.2571188E+01  0.7546771E-02  0.2677954E+00
         22   -1    0    0    0    0  0.00000000000E+00  0.00000000000E+00  0.35793132850E+00  0.35793132850E+00  0.00000000000E+00 0.  1.
         22   -1    0    0    0    0 -0.00000000000E+00 -0.00000000000E+00 -0.21582942437E+02  0.21582942437E+02  0.00000000000E+00 0. -1.
          4    1    1    2  501    0  0.11992670608E+01  0.22743714535E+01 -0.64461996944E+01  0.69400646605E+01  0.00000000000E+00 0. -1.
         -4    1    1    2    0  501 -0.11992670608E+01 -0.22743714535E+01 -0.14778811414E+02  0.15000809105E+02  0.00000000000E+00 0.  1.
<mgrwt>
<rscale>  0 0.25711879E+01</rscale>
<asrwt>0</asrwt>
<pdfrwt beam="1">0</pdfrwt>
<pdfrwt beam="2">0</pdfrwt>
<totfact> 0.19717792E+12</totfact>
</mgrwt>
</event>
<event>
 4    2  0.1985873E+006  0.2224771E+01  0.7546771E-02  0.2843897E+00
         22   -1    0    0    0    0  0.00000000000E+00  0.00000000000E+00  0.63575097545E+01  0.63575097545E+01  0.00000000000E+00 0.  1.
         22   -1    0    0    0    0 -0.00000000000E+00 -0.00000000000E+00 -0.47604475358E+01  0.47604475358E+01  0.00000000000E+00 0. -1.
          4    1    1    2  501    0  0.17385997953E+01  0.13881198715E+01  0.58826586762E+01  0.62892987786E+01  0.00000000000E+00 0.  1.
         -4    1    1    2    0  501 -0.17385997953E+01 -0.13881198715E+01 -0.42855964575E+01  0.48286585117E+01  0.00000000000E+00 0. -1.
<mgrwt>
<rscale>  0 0.22247710E+01</rscale>
<asrwt>0</asrwt>
<pdfrwt beam="1">0</pdfrwt>
<pdfrwt beam="2">0</pdfrwt>
<totfact> 0.44714281E+11</totfact>
</mgrwt>
</event>
<event>
 4    2  0.1985873E+006  0.2578918E+01  0.7546771E-02  0.2674728E+00
         22   -1    0    0    0    0  0.00000000000E+00  0.00000000000E+00  0.76162707676E+01  0.76162707676E+01  0.00000000000E+00 0. -1.
         22   -1    0    0    0    0 -0.00000000000E+00 -0.00000000000E+00 -0.98061726828E+00  0.98061726828E+00  0.00000000000E+00 0.  1.
          4    1    1    2  501    0  0.24296748870E+01  0.86457977038E+00  0.47402256651E+01  0.53963466894E+01  0.00000000000E+00 0.  1.
         -4    1    1    2    0  501 -0.24296748870E+01 -0.86457977038E+00  0.18954278342E+01  0.32005413465E+01  0.00000000000E+00 0. -1.
<mgrwt>
<rscale>  0 0.25789180E+01</rscale>
<asrwt>0</asrwt>
<pdfrwt beam="1">0</pdfrwt>
<pdfrwt beam="2">0</pdfrwt>
<totfact> 0.22528678E+12</totfact>
</mgrwt>
</event>
<event>
 4    2  0.1985873E+006  0.2769509E+01  0.7546771E-02  0.2600451E+00
         22   -1    0    0    0    0  0.00000000000E+00  0.00000000000E+00  0.11697418648E+02  0.11697418648E+02  0.00000000000E+00 0.  1.
         22   -1    0    0    0    0 -0.00000000000E+00 -0.00000000000E+00 -0.12175587433E+02  0.12175587433E+02  0.00000000000E+00 0. -1.
          4    1    1    2  501    0 -0.20236594570E+01  0.18907620376E+01  0.11371550721E+02  0.11703945680E+02  0.00000000000E+00 0.  1.
         -4    1    1    2    0  501  0.20236594570E+01 -0.18907620376E+01 -0.11849719506E+02  0.12169060401E+02  0.00000000000E+00 0. -1.
<mgrwt>
<rscale>  0 0.27695087E+01</rscale>
<asrwt>0</asrwt>
<pdfrwt beam="1">0</pdfrwt>
<pdfrwt beam="2">0</pdfrwt>
<totfact> 0.69506525E+10</totfact>
</mgrwt>
</event>
<event>
 4    2  0.1985873E+006  0.2421108E+01  0.7546771E-02  0.2744367E+00
         22   -1    0    0    0    0  0.00000000000E+00  0.00000000000E+00  0.11353066499E+02  0.11353066499E+02  0.00000000000E+00 0.  1.
         22   -1    0    0    0    0 -0.00000000000E+00 -0.00000000000E+00 -0.52135588987E+00  0.52135588987E+00  0.00000000000E+00 0. -1.
          4    1    1    2  501    0 -0.23627010844E+01  0.52858962178E+00  0.59996369949E+01  0.64697300927E+01  0.00000000000E+00 0.  1.
         -4    1    1    2    0  501  0.23627010844E+01 -0.52858962178E+00  0.48320736143E+01  0.54046922962E+01  0.00000000000E+00 0. -1.
<mgrwt>
<rscale>  0 0.24211079E+01</rscale>
<asrwt>0</asrwt>
<pdfrwt beam="1">0</pdfrwt>
<pdfrwt beam="2">0</pdfrwt>
<totfact> 0.28503169E+12</totfact>
</mgrwt>
</event>
<event>
 4    2  0.1985873E+006  0.2789169E+01  0.7546771E-02  0.2593318E+00
         22   -1    0    0    0    0  0.00000000000E+00  0.00000000000E+00  0.85291442315E+00  0.85291442315E+00  0.00000000000E+00 0. -1.
         22   -1    0    0    0    0 -0.00000000000E+00 -0.00000000000E+00 -0.20629388387E+02  0.20629388387E+02  0.00000000000E+00 0.  1.
          4    1    1    2  501    0 -0.17145138404E+01  0.21999791304E+01 -0.18656547435E+01  0.33556122399E+01  0.00000000000E+00 0. -1.
         -4    1    1    2    0  501  0.17145138404E+01 -0.21999791304E+01 -0.17910819220E+02  0.18126690570E+02  0.00000000000E+00 0.  1.
<mgrwt>
<rscale>  0 0.27891694E+01</rscale>
<asrwt>0</asrwt>
<pdfrwt beam="1">0</pdfrwt>
<pdfrwt beam="2">0</pdfrwt>
<totfact> 0.78138593E+11</totfact>
</mgrwt>
</event>
<event>
 4    2  0.1985873E+006  0.2956024E+01  0.7546771E-02  0.2536262E+00
         22   -1    0    0    0    0  0.00000000000E+00  0.00000000000E+00  0.46947110375E+01  0.46947110375E+01  0.00000000000E+00 0.  1.
         22   -1    0    0    0    0 -0.00000000000E+00 -0.00000000000E+00 -0.19453246322E+01  0.19453246322E+01  0.00000000000E+00 0. -1.
          4    1    1    2  501    0 -0.21578617446E+01 -0.20203249047E+01  0.68453311254E+00  0.30342487722E+01  0.00000000000E+00 0.  1.
         -4    1    1    2    0  501  0.21578617446E+01  0.20203249047E+01  0.20648532928E+01  0.36057868975E+01  0.00000000000E+00 0. -1.
<mgrwt>
<rscale>  0 0.29560244E+01</rscale>
<asrwt>0</asrwt>
<pdfrwt beam="1">0</pdfrwt>
<pdfrwt beam="2">0</pdfrwt>
<totfact> 0.18242869E+12</totfact>
</mgrwt>
</event>
<event>
 4    2  0.1985873E+006  0.2105796E+01  0.7546771E-02  0.2912799E+00
         22   -1    0    0    0    0  0.00000000000E+00  0.00000000000E+00  0.10744182053E+02  0.10744182053E+02  0.00000000000E+00 0. -1.
         22   -1    0    0    0    0 -0.00000000000E+00 -0.00000000000E+00 -0.52272028566E+00  0.52272028566E+00  0.00000000000E+00 0.  1.
          4    1    1    2  501    0 -0.20658476726E+01  0.40822615143E+00  0.76949544284E+01  0.79778881199E+01  0.00000000000E+00 0. -1.
         -4    1    1    2    0  501  0.20658476726E+01 -0.40822615143E+00  0.25265073384E+01  0.32890142183E+01  0.00000000000E+00 0.  1.
<mgrwt>
<rscale>  0 0.21057956E+01</rscale>
<asrwt>0</asrwt>
<pdfrwt beam="1">0</pdfrwt>
<pdfrwt beam="2">0</pdfrwt>
<totfact> 0.30386662E+12</totfact>
</mgrwt>
</event>
<event>
 4    2  0.1985873E+006  0.3572064E+01  0.7546771E-02  0.2367410E+00
         22   -1    0    0    0    0  0.00000000000E+00  0.00000000000E+00  0.10496850069E+02  0.10496850069E+02  0.00000000000E+00 0. -1.
         22   -1    0    0    0    0 -0.00000000000E+00 -0.00000000000E+00 -0.14370072401E+01  0.14370072401E+01  0.00000000000E+00 0.  1.
          4    1    1    2  501    0 -0.25232891969E+01  0.25283691147E+01  0.68722526605E+01  0.77451594807E+01  0.00000000000E+00 0. -1.
         -4    1    1    2    0  501  0.25232891969E+01 -0.25283691147E+01  0.21875901680E+01  0.41886978281E+01  0.00000000000E+00 0.  1.
<mgrwt>
<rscale>  0 0.35720637E+01</rscale>
<asrwt>0</asrwt>
<pdfrwt beam="1">0</pdfrwt>
<pdfrwt beam="2">0</pdfrwt>
<totfact> 0.98764612E+11</totfact>
</mgrwt>
</event>
<event>
 4    2  0.1985873E+006  0.2073554E+01  0.7546771E-02  0.2932785E+00
         22   -1    0    0    0    0  0.00000000000E+00  0.00000000000E+00  0.88660761475E+01  0.88660761475E+01  0.00000000000E+00 0.  1.
         22   -1    0    0    0    0 -0.00000000000E+00 -0.00000000000E+00 -0.50643742113E+00  0.50643742113E+00  0.00000000000E+00 0. -1.
          4    1    1    2  501    0  0.36556369778E+00 -0.20410757117E+01  0.32145937616E+01  0.38253418057E+01  0.00000000000E+00 0.  1.
         -4    1    1    2    0  501 -0.36556369778E+00  0.20410757117E+01  0.51450449648E+01  0.55471717630E+01  0.00000000000E+00 0. -1.
<mgrwt>
<rscale>  0 0.20735542E+01</rscale>
<asrwt>0</asrwt>
<pdfrwt beam="1">0</pdfrwt>
<pdfrwt beam="2">0</pdfrwt>
<totfact> 0.39733638E+12</totfact>
</mgrwt>
</event>
<event>
 4    2  0.1985873E+006  0.1443907E+02  0.7546771E-02  0.1639105E+00
         22   -1    0    0    0    0  0.00000000000E+00  0.00000000000E+00  0.45068768044E+02  0.45068768044E+02  0.00000000000E+00 0.  1.
         22   -1    0    0    0    0 -0.00000000000E+00 -0.00000000000E+00 -0.47835788418E+01  0.47835788418E+01  0.00000000000E+00 0. -1.
          4    1    1    2  501    0  0.11332609707E+02 -0.89475474817E+01  0.15618068397E+02  0.21269948499E+02  0.00000000000E+00 0. -1.
         -4    1    1    2    0  501 -0.11332609707E+02  0.89475474817E+01  0.24667120806E+02  0.28582398387E+02  0.00000000000E+00 0.  1.
<mgrwt>
<rscale>  0 0.14439067E+02</rscale>
<asrwt>0</asrwt>
<pdfrwt beam="1">0</pdfrwt>
<pdfrwt beam="2">0</pdfrwt>
<totfact> 0.39075560E+10</totfact>
</mgrwt>
</event>
<event>
 4    2  0.1985873E+006  0.2935742E+01  0.7546771E-02  0.2542884E+00
         22   -1    0    0    0    0  0.00000000000E+00  0.00000000000E+00  0.32146103036E+01  0.32146103036E+01  0.00000000000E+00 0.  1.
         22   -1    0    0    0    0 -0.00000000000E+00 -0.00000000000E+00 -0.51620161167E+01  0.51620161167E+01  0.00000000000E+00 0. -1.
          4    1    1    2  501    0 -0.29356850036E+01 -0.18247360077E-01  0.19299090149E+01  0.35132788406E+01  0.00000000000E+00 0.  1.
         -4    1    1    2    0  501  0.29356850036E+01  0.18247360077E-01 -0.38773148280E+01  0.48633475797E+01  0.00000000000E+00 0. -1.
<mgrwt>
<rscale>  0 0.29357417E+01</rscale>
<asrwt>0</asrwt>
<pdfrwt beam="1">0</pdfrwt>
<pdfrwt beam="2">0</pdfrwt>
<totfact> 0.90900602E+11</totfact>
</mgrwt>
</event>
<event>
 4    2  0.1985873E+006  0.2812188E+01  0.7546771E-02  0.2585083E+00
         22   -1    0    0    0    0  0.00000000000E+00  0.00000000000E+00  0.18516590725E+01  0.18516590725E+01  0.00000000000E+00 0.  1.
         22   -1    0    0    0    0 -0.00000000000E+00 -0.00000000000E+00 -0.42715402653E+01  0.42715402653E+01  0.00000000000E+00 0. -1.
          4    1    1    2  501    0 -0.27675273050E+01  0.49919499666E+00 -0.11749477055E+01  0.30477705195E+01  0.00000000000E+00 0. -1.
         -4    1    1    2    0  501  0.27675273050E+01 -0.49919499666E+00 -0.12449334873E+01  0.30754288183E+01  0.00000000000E+00 0.  1.
<mgrwt>
<rscale>  0 0.28121883E+01</rscale>
<asrwt>0</asrwt>
<pdfrwt beam="1">0</pdfrwt>
<pdfrwt beam="2">0</pdfrwt>
<totfact> 0.21591970E+12</totfact>
</mgrwt>
</event>
<event>
 4    2  0.1985873E+006  0.2127386E+01  0.7546771E-02  0.2899744E+00
         22   -1    0    0    0    0  0.00000000000E+00  0.00000000000E+00  0.28363381692E+02  0.28363381692E+02  0.00000000000E+00 0. -1.
         22   -1    0    0    0    0 -0.00000000000E+00 -0.00000000000E+00 -0.15960136699E+00  0.15960136699E+00  0.00000000000E+00 0.  1.
          4    1    1    2  501    0  0.19060118870E+00  0.21188300976E+01  0.14320606003E+02  0.14477759705E+02  0.00000000000E+00 0.  1.
         -4    1    1    2    0  501 -0.19060118870E+00 -0.21188300976E+01  0.13883174322E+02  0.14045223354E+02  0.00000000000E+00 0. -1.
<mgrwt>
<rscale>  0 0.21273857E+01</rscale>
<asrwt>0</asrwt>
<pdfrwt beam="1">0</pdfrwt>
<pdfrwt beam="2">0</pdfrwt>
<totfact> 0.34468418E+12</totfact>
</mgrwt>
</event>
<event>
 4    2  0.1985873E+006  0.2095734E+01  0.7546771E-02  0.2918972E+00
         22   -1    0    0    0    0  0.00000000000E+00  0.00000000000E+00  0.35496581779E+02  0.35496581779E+02  0.00000000000E+00 0. -1.
         22   -1    0    0    0    0 -0.00000000000E+00 -0.00000000000E+00 -0.12457162072E+00  0.12457162072E+00  0.00000000000E+00 0.  1.
          4    1    1    2  501    0  0.13128716054E+01 -0.16335444943E+01  0.16224687687E+02  0.16359480126E+02  0.00000000000E+00 0.  1.
         -4    1    1    2    0  501 -0.13128716054E+01  0.16335444943E+01  0.19147322471E+02  0.19261673273E+02  0.00000000000E+00 0. -1.
<mgrwt>
<rscale>  0 0.20957336E+01</rscale>
<asrwt>0</asrwt>
<pdfrwt beam="1">0</pdfrwt>
<pdfrwt beam="2">0</pdfrwt>
<totfact> 0.34072062E+12</totfact>
</mgrwt>
</event>
<event>
 4    2  0.1985873E+006  0.4736441E+01  0.7546771E-02  0.2155842E+00
         22   -1    0    0    0    0  0.00000000000E+00  0.00000000000E+00  0.23848746874E+01  0.23848746874E+01  0.00000000000E+00 0. -1.
         22   -1    0    0    0    0 -0.00000000000E+00 -0.00000000000E+00 -0.10893390426E+02  0.10893390426E+02  0.00000000000E+00 0.  1.
          4    1    1    2  501    0  0.27236967409E+01  0.38749648351E+01 -0.18016086347E+01  0.50675112316E+01  0.00000000000E+00 0. -1.
         -4    1    1    2    0  501 -0.27236967409E+01 -0.38749648351E+01 -0.67069071039E+01  0.82107538819E+01  0.00000000000E+00 0.  1.
<mgrwt>
<rscale>  0 0.47364413E+01</rscale>
<asrwt>0</asrwt>
<pdfrwt beam="1">0</pdfrwt>
<pdfrwt beam="2">0</pdfrwt>
<totfact> 0.52578140E+11</totfact>
</mgrwt>
</event>
<event>
 4    2  0.1985873E+006  0.2723404E+01  0.7546771E-02  0.2617544E+00
         22   -1    0    0    0    0  0.00000000000E+00  0.00000000000E+00  0.45177704092E+00  0.45177704092E+00  0.00000000000E+00 0. -1.
         22   -1    0    0    0    0 -0.00000000000E+00 -0.00000000000E+00 -0.23471729153E+02  0.23471729153E+02  0.00000000000E+00 0.  1.
          4    1    1    2  501    0  0.14094888788E+01 -0.23302939436E+01 -0.49522192899E+01  0.56516727310E+01  0.00000000000E+00 0. -1.
         -4    1    1    2    0  501 -0.14094888788E+01  0.23302939436E+01 -0.18067732822E+02  0.18271833463E+02  0.00000000000E+00 0.  1.
<mgrwt>
<rscale>  0 0.27234039E+01</rscale>
<asrwt>0</asrwt>
<pdfrwt beam="1">0</pdfrwt>
<pdfrwt beam="2">0</pdfrwt>
<totfact> 0.13655950E+12</totfact>
</mgrwt>
</event>
<event>
 4    2  0.1985873E+006  0.3080396E+01  0.7546771E-02  0.2497369E+00
         22   -1    0    0    0    0  0.00000000000E+00  0.00000000000E+00  0.77716938399E+00  0.77716938399E+00  0.00000000000E+00 0.  1.
         22   -1    0    0    0    0 -0.00000000000E+00 -0.00000000000E+00 -0.13646915444E+02  0.13646915444E+02  0.00000000000E+00 0. -1.
          4    1    1    2  501    0  0.21332922940E+01  0.22221389060E+01 -0.40942333714E+01  0.51236299855E+01  0.00000000000E+00 0. -1.
         -4    1    1    2    0  501 -0.21332922940E+01 -0.22221389060E+01 -0.87755126886E+01  0.93004548425E+01  0.00000000000E+00 0.  1.
<mgrwt>
<rscale>  0 0.30803956E+01</rscale>
<asrwt>0</asrwt>
<pdfrwt beam="1">0</pdfrwt>
<pdfrwt beam="2">0</pdfrwt>
<totfact> 0.14480894E+12</totfact>
</mgrwt>
</event>
<event>
 4    2  0.1985873E+006  0.2575061E+01  0.7546771E-02  0.2676335E+00
         22   -1    0    0    0    0  0.00000000000E+00  0.00000000000E+00  0.22860654222E+01  0.22860654222E+01  0.00000000000E+00 0. -1.
         22   -1    0    0    0    0 -0.00000000000E+00 -0.00000000000E+00 -0.48703846380E+01  0.48703846380E+01  0.00000000000E+00 0.  1.
          4    1    1    2  501    0 -0.31407439503E+00 -0.25558354869E+01  0.98344356211E+00  0.27564649465E+01  0.00000000000E+00 0. -1.
         -4    1    1    2    0  501  0.31407439503E+00  0.25558354869E+01 -0.35677627778E+01  0.43999851137E+01  0.00000000000E+00 0.  1.
<mgrwt>
<rscale>  0 0.25750607E+01</rscale>
<asrwt>0</asrwt>
<pdfrwt beam="1">0</pdfrwt>
<pdfrwt beam="2">0</pdfrwt>
<totfact> 0.14487511E+12</totfact>
</mgrwt>
</event>
<event>
 4    2  0.1985873E+006  0.2761057E+01  0.7546771E-02  0.2603545E+00
         22   -1    0    0    0    0  0.00000000000E+00  0.00000000000E+00  0.22652352398E+03  0.22652352398E+03  0.00000000000E+00 0.  1.
         22   -1    0    0    0    0 -0.00000000000E+00 -0.00000000000E+00 -0.60853693654E-01  0.60853693654E-01  0.00000000000E+00 0. -1.
          4    1    1    2  501    0 -0.11410788046E+01 -0.25142348300E+01  0.18897354559E+03  0.18899371517E+03  0.00000000000E+00 0.  1.
         -4    1    1    2    0  501  0.11410788046E+01  0.25142348300E+01  0.37489124696E+02  0.37590662512E+02  0.00000000000E+00 0. -1.
<mgrwt>
<rscale>  0 0.27610573E+01</rscale>
<asrwt>0</asrwt>
<pdfrwt beam="1">0</pdfrwt>
<pdfrwt beam="2">0</pdfrwt>
<totfact> 0.55404658E+11</totfact>
</mgrwt>
</event>
<event>
 4    2  0.1985873E+006  0.2074220E+01  0.7546771E-02  0.2932366E+00
         22   -1    0    0    0    0  0.00000000000E+00  0.00000000000E+00  0.91451848095E+01  0.91451848095E+01  0.00000000000E+00 0. -1.
         22   -1    0    0    0    0 -0.00000000000E+00 -0.00000000000E+00 -0.89919094935E+00  0.89919094935E+00  0.00000000000E+00 0.  1.
          4    1    1    2  501    0  0.17461221219E+01  0.11195748677E+01  0.75908633600E+01  0.78691547767E+01  0.00000000000E+00 0. -1.
         -4    1    1    2    0  501 -0.17461221219E+01 -0.11195748677E+01  0.65513050014E+00  0.21752209822E+01  0.00000000000E+00 0.  1.
<mgrwt>
<rscale>  0 0.20742204E+01</rscale>
<asrwt>0</asrwt>
<pdfrwt beam="1">0</pdfrwt>
<pdfrwt beam="2">0</pdfrwt>
<totfact> 0.19955093E+12</totfact>
</mgrwt>
</event>
<event>
 4    2  0.1985873E+006  0.3626859E+01  0.7546771E-02  0.2354851E+00
         22   -1    0    0    0    0  0.00000000000E+00  0.00000000000E+00  0.42392881440E+01  0.42392881440E+01  0.00000000000E+00 0. -1.
         22   -1    0    0    0    0 -0.00000000000E+00 -0.00000000000E+00 -0.35641997714E+01  0.35641997714E+01  0.00000000000E+00 0.  1.
          4    1    1    2  501    0  0.22244366198E+01  0.28646101082E+01  0.17412202882E+01  0.40231775302E+01  0.00000000000E+00 0. -1.
         -4    1    1    2    0  501 -0.22244366198E+01 -0.28646101082E+01 -0.10661319156E+01  0.37803103853E+01  0.00000000000E+00 0.  1.
<mgrwt>
<rscale>  0 0.36268594E+01</rscale>
<asrwt>0</asrwt>
<pdfrwt beam="1">0</pdfrwt>
<pdfrwt beam="2">0</pdfrwt>
<totfact> 0.10165150E+12</totfact>
</mgrwt>
</event>
<event>
 4    2  0.1985873E+006  0.2782529E+01  0.7546771E-02  0.2595717E+00
         22   -1    0    0    0    0  0.00000000000E+00  0.00000000000E+00  0.10893598973E+01  0.10893598973E+01  0.00000000000E+00 0.  1.
         22   -1    0    0    0    0 -0.00000000000E+00 -0.00000000000E+00 -0.72012738402E+01  0.72012738402E+01  0.00000000000E+00 0. -1.
          4    1    1    2  501    0 -0.13856604133E+01  0.24129674701E+01 -0.25825540215E+01  0.37963208593E+01  0.00000000000E+00 0. -1.
         -4    1    1    2    0  501  0.13856604133E+01 -0.24129674701E+01 -0.35293599214E+01  0.44943128782E+01  0.00000000000E+00 0.  1.
<mgrwt>
<rscale>  0 0.27825288E+01</rscale>
<asrwt>0</asrwt>
<pdfrwt beam="1">0</pdfrwt>
<pdfrwt beam="2">0</pdfrwt>
<totfact> 0.21365505E+12</totfact>
</mgrwt>
</event>
<event>
 4    2  0.1985873E+006  0.2127955E+01  0.7546771E-02  0.2899403E+00
         22   -1    0    0    0    0  0.00000000000E+00  0.00000000000E+00  0.82632983311E+00  0.82632983311E+00  0.00000000000E+00 0.  1.
         22   -1    0    0    0    0 -0.00000000000E+00 -0.00000000000E+00 -0.12716885774E+02  0.12716885774E+02  0.00000000000E+00 0. -1.
          4    1    1    2  501    0 -0.13173588888E+01  0.16711551326E+01 -0.83692770395E+00  0.22866223783E+01  0.00000000000E+00 0.  1.
         -4    1    1    2    0  501  0.13173588888E+01 -0.16711551326E+01 -0.11053628237E+02  0.11256593229E+02  0.00000000000E+00 0. -1.
<mgrwt>
<rscale>  0 0.21279553E+01</rscale>
<asrwt>0</asrwt>
<pdfrwt beam="1">0</pdfrwt>
<pdfrwt beam="2">0</pdfrwt>
<totfact> 0.14722197E+12</totfact>
</mgrwt>
</event>
<event>
 4    2  0.1985873E+006  0.2163461E+01  0.7546771E-02  0.2878493E+00
         22   -1    0    0    0    0  0.00000000000E+00  0.00000000000E+00  0.14449105725E+02  0.14449105725E+02  0.00000000000E+00 0. -1.
         22   -1    0    0    0    0 -0.00000000000E+00 -0.00000000000E+00 -0.34466321560E+00  0.34466321560E+00  0.00000000000E+00 0.  1.
          4    1    1    2  501    0 -0.10656445001E-01  0.21634342982E+01  0.88662294440E+01  0.91263676277E+01  0.00000000000E+00 0.  1.
         -4    1    1    2    0  501  0.10656445001E-01 -0.21634342982E+01  0.52382130651E+01  0.56674013125E+01  0.00000000000E+00 0. -1.
<mgrwt>
<rscale>  0 0.21634605E+01</rscale>
<asrwt>0</asrwt>
<pdfrwt beam="1">0</pdfrwt>
<pdfrwt beam="2">0</pdfrwt>
<totfact> 0.33831998E+12</totfact>
</mgrwt>
</event>
<event>
 4    2  0.1985873E+006  0.6458196E+01  0.7546771E-02  0.1980879E+00
         22   -1    0    0    0    0  0.00000000000E+00  0.00000000000E+00  0.45025503706E+01  0.45025503706E+01  0.00000000000E+00 0.  1.
         22   -1    0    0    0    0 -0.00000000000E+00 -0.00000000000E+00 -0.92972025625E+01  0.92972025625E+01  0.00000000000E+00 0. -1.
          4    1    1    2  501    0  0.56546485531E+01  0.31198157985E+01 -0.28142230983E+01  0.70447251559E+01  0.00000000000E+00 0.  1.
         -4    1    1    2    0  501 -0.56546485531E+01 -0.31198157985E+01 -0.19804290937E+01  0.67550277772E+01  0.00000000000E+00 0. -1.
<mgrwt>
<rscale>  0 0.64581964E+01</rscale>
<asrwt>0</asrwt>
<pdfrwt beam="1">0</pdfrwt>
<pdfrwt beam="2">0</pdfrwt>
<totfact> 0.30268489E+11</totfact>
</mgrwt>
</event>
