<event>
 4    1  0.1699693E+006  0.2350281E+01  0.7546771E-02  0.2778458E+00
         22   -1    0    0    0    0  0.00000000000E+00  0.00000000000E+00  0.28701891565E+01  0.28701891565E+01  0.00000000000E+00 0. -1.
         22   -1    0    0    0    0 -0.00000000000E+00 -0.00000000000E+00 -0.19245498993E+01  0.19245498993E+01  0.00000000000E+00 0.  1.
          4    1    1    2  501    0 -0.19286668685E+01  0.43722142073E+00  0.47480594836E+00  0.23977612785E+01  0.12700000000E+01 0.  1.
         -4    1    1    2    0  501  0.19286668685E+01 -0.43722142073E+00  0.47083330879E+00  0.23969777773E+01  0.12700000000E+01 0.  1.
<mgrwt>
<rscale>  0 0.23502805E+01</rscale>
<asrwt>0</asrwt>
<pdfrwt beam="1">0</pdfrwt>
<pdfrwt beam="2">0</pdfrwt>
<totfact> 0.32915293E+12</totfact>
</mgrwt>
</event>
<event>
 4    1  0.1699693E+006  0.2221624E+01  0.7546771E-02  0.2845629E+00
         22   -1    0    0    0    0  0.00000000000E+00  0.00000000000E+00  0.11242973153E+02  0.11242973153E+02  0.00000000000E+00 0.  1.
         22   -1    0    0    0    0 -0.00000000000E+00 -0.00000000000E+00 -0.46980195509E+00  0.46980195509E+00  0.00000000000E+00 0. -1.
          4    1    1    2  501    0  0.13990882448E+01 -0.11684454257E+01  0.68862514804E+01  0.72357495867E+01  0.12700000000E+01 0.  1.
         -4    1    1    2    0  501 -0.13990882448E+01  0.11684454257E+01  0.38869197178E+01  0.44770255217E+01  0.12700000000E+01 0. -1.
<mgrwt>
<rscale>  0 0.22216239E+01</rscale>
<asrwt>0</asrwt>
<pdfrwt beam="1">0</pdfrwt>
<pdfrwt beam="2">0</pdfrwt>
<totfact> 0.32440302E+12</totfact>
</mgrwt>
</event>
<event>
 4    1  0.1699693E+006  0.5819593E+01  0.7546771E-02  0.2036255E+00
         22   -1    0    0    0    0  0.00000000000E+00  0.00000000000E+00  0.85320064522E+00  0.85320064522E+00  0.00000000000E+00 0. -1.
         22   -1    0    0    0    0 -0.00000000000E+00 -0.00000000000E+00 -0.40041091821E+02  0.40041091821E+02  0.00000000000E+00 0.  1.
          4    1    1    2  501    0  0.86992571641E+00 -0.56123067378E+01 -0.17692518091E+02  0.18625059840E+02  0.12700000000E+01 0. -1.
         -4    1    1    2    0  501 -0.86992571641E+00  0.56123067378E+01 -0.21495373085E+02  0.22269232625E+02  0.12700000000E+01 0.  1.
<mgrwt>
<rscale>  0 0.58195926E+01</rscale>
<asrwt>0</asrwt>
<pdfrwt beam="1">0</pdfrwt>
<pdfrwt beam="2">0</pdfrwt>
<totfact> 0.33601737E+11</totfact>
</mgrwt>
</event>
<event>
 4    1  0.1699693E+006  0.3738468E+01  0.7546771E-02  0.2330260E+00
         22   -1    0    0    0    0  0.00000000000E+00  0.00000000000E+00  0.18176138981E+01  0.18176138981E+01  0.00000000000E+00 0.  1.
         22   -1    0    0    0    0 -0.00000000000E+00 -0.00000000000E+00 -0.14688748301E+02  0.14688748301E+02  0.00000000000E+00 0. -1.
          4    1    1    2  501    0 -0.62277454590E+00  0.34605483680E+01 -0.73836688465E+00  0.38106861323E+01  0.12700000000E+01 0.  1.
         -4    1    1    2    0  501  0.62277454590E+00 -0.34605483680E+01 -0.12132767519E+02  0.12695676067E+02  0.12700000000E+01 0. -1.
<mgrwt>
<rscale>  0 0.37384680E+01</rscale>
<asrwt>0</asrwt>
<pdfrwt beam="1">0</pdfrwt>
<pdfrwt beam="2">0</pdfrwt>
<totfact> 0.49983284E+11</totfact>
</mgrwt>
</event>
<event>
 4    1  0.1699693E+006  0.2042731E+01  0.7546771E-02  0.2952465E+00
         22   -1    0    0    0    0  0.00000000000E+00  0.00000000000E+00  0.28628414175E+00  0.28628414175E+00  0.00000000000E+00 0. -1.
         22   -1    0    0    0    0 -0.00000000000E+00 -0.00000000000E+00 -0.18776042686E+02  0.18776042686E+02  0.00000000000E+00 0.  1.
          4    1    1    2  501    0  0.14215498490E+01 -0.73419866320E+00 -0.47367798080E+01  0.51584721187E+01  0.12700000000E+01 0. -1.
         -4    1    1    2    0  501 -0.14215498490E+01  0.73419866320E+00 -0.13752978737E+02  0.13903854709E+02  0.12700000000E+01 0.  1.
<mgrwt>
<rscale>  0 0.20427314E+01</rscale>
<asrwt>0</asrwt>
<pdfrwt beam="1">0</pdfrwt>
<pdfrwt beam="2">0</pdfrwt>
<totfact> 0.30140488E+12</totfact>
</mgrwt>
</event>
<event>
 4    1  0.1699693E+006  0.2188072E+01  0.7546771E-02  0.2864382E+00
         22   -1    0    0    0    0  0.00000000000E+00  0.00000000000E+00  0.21436325212E+02  0.21436325212E+02  0.00000000000E+00 0.  1.
         22   -1    0    0    0    0 -0.00000000000E+00 -0.00000000000E+00 -0.25844292782E+00  0.25844292782E+00  0.00000000000E+00 0. -1.
          4    1    1    2  501    0 -0.10869817573E+01 -0.14118171668E+01  0.14586498332E+02  0.14749697985E+02  0.12700000000E+01 0. -1.
         -4    1    1    2    0  501  0.10869817573E+01  0.14118171668E+01  0.65913839521E+01  0.69450701550E+01  0.12700000000E+01 0. -1.
<mgrwt>
<rscale>  0 0.21880715E+01</rscale>
<asrwt>0</asrwt>
<pdfrwt beam="1">0</pdfrwt>
<pdfrwt beam="2">0</pdfrwt>
<totfact> 0.28651929E+12</totfact>
</mgrwt>
</event>
<event>
 4    1  0.1699693E+006  0.3061829E+01  0.7546771E-02  0.2502996E+00
         22   -1    0    0    0    0  0.00000000000E+00  0.00000000000E+00  0.36488407700E+02  0.36488407700E+02  0.00000000000E+00 0.  1.
         22   -1    0    0    0    0 -0.00000000000E+00 -0.00000000000E+00 -0.29920077862E+00  0.29920077862E+00  0.00000000000E+00 0. -1.
          4    1    1    2  501    0  0.17494801133E+01  0.21682285001E+01  0.25008683624E+02  0.25195417284E+02  0.12700000000E+01 0.  1.
         -4    1    1    2    0  501 -0.17494801133E+01 -0.21682285001E+01  0.11180523297E+02  0.11592191195E+02  0.12700000000E+01 0. -1.
<mgrwt>
<rscale>  0 0.30618288E+01</rscale>
<asrwt>0</asrwt>
<pdfrwt beam="1">0</pdfrwt>
<pdfrwt beam="2">0</pdfrwt>
<totfact> 0.12377755E+12</totfact>
</mgrwt>
</event>
<event>
 4    1  0.1699693E+006  0.2618705E+01  0.7546771E-02  0.2658403E+00
         22   -1    0    0    0    0  0.00000000000E+00  0.00000000000E+00  0.21055166986E+00  0.21055166986E+00  0.00000000000E+00 0.  1.
         22   -1    0    0    0    0 -0.00000000000E+00 -0.00000000000E+00 -0.32614724530E+02  0.32614724530E+02  0.00000000000E+00 0.  1.
          4    1    1    2  501    0  0.21172206717E+01  0.87297892591E+00 -0.15592623453E+02  0.15810993698E+02  0.12700000000E+01 0.  1.
         -4    1    1    2    0  501 -0.21172206717E+01 -0.87297892591E+00 -0.16811549407E+02  0.17014282502E+02  0.12700000000E+01 0.  1.
<mgrwt>
<rscale>  0 0.26187049E+01</rscale>
<asrwt>0</asrwt>
<pdfrwt beam="1">0</pdfrwt>
<pdfrwt beam="2">0</pdfrwt>
<totfact> 0.21183565E+12</totfact>
</mgrwt>
</event>
<event>
 4    1  0.1699693E+006  0.2371845E+01  0.7546771E-02  0.2767875E+00
         22   -1    0    0    0    0  0.00000000000E+00  0.00000000000E+00  0.17004437803E+01  0.17004437803E+01  0.00000000000E+00 0.  1.
         22   -1    0    0    0    0 -0.00000000000E+00 -0.00000000000E+00 -0.33856317530E+01  0.33856317530E+01  0.00000000000E+00 0. -1.
          4    1    1    2  501    0 -0.13456797911E+01 -0.14838781537E+01 -0.12268279317E+01  0.26703474023E+01  0.12700000000E+01 0.  1.
         -4    1    1    2    0  501  0.13456797911E+01  0.14838781537E+01 -0.45836004101E+00  0.24157281309E+01  0.12700000000E+01 0. -1.
<mgrwt>
<rscale>  0 0.23718450E+01</rscale>
<asrwt>0</asrwt>
<pdfrwt beam="1">0</pdfrwt>
<pdfrwt beam="2">0</pdfrwt>
<totfact> 0.31305991E+12</totfact>
</mgrwt>
</event>
<event>
 4    1  0.1699693E+006  0.2375162E+01  0.7546771E-02  0.2766263E+00
         22   -1    0    0    0    0  0.00000000000E+00  0.00000000000E+00  0.23400576397E+01  0.23400576397E+01  0.00000000000E+00 0. -1.
         22   -1    0    0    0    0 -0.00000000000E+00 -0.00000000000E+00 -0.26684730152E+01  0.26684730152E+01  0.00000000000E+00 0.  1.
          4    1    1    2  501    0 -0.48837037857E+00 -0.19467897663E+01  0.61398793164E+00  0.24532381053E+01  0.12700000000E+01 0. -1.
         -4    1    1    2    0  501  0.48837037857E+00  0.19467897663E+01 -0.94240330714E+00  0.25552925497E+01  0.12700000000E+01 0.  1.
<mgrwt>
<rscale>  0 0.23751623E+01</rscale>
<asrwt>0</asrwt>
<pdfrwt beam="1">0</pdfrwt>
<pdfrwt beam="2">0</pdfrwt>
<totfact> 0.28569757E+12</totfact>
</mgrwt>
</event>
<event>
 4    1  0.1699693E+006  0.2276073E+01  0.7546771E-02  0.2816320E+00
         22   -1    0    0    0    0  0.00000000000E+00  0.00000000000E+00  0.32623641474E+00  0.32623641474E+00  0.00000000000E+00 0. -1.
         22   -1    0    0    0    0 -0.00000000000E+00 -0.00000000000E+00 -0.18910420943E+02  0.18910420943E+02  0.00000000000E+00 0. -1.
          4    1    1    2  501    0 -0.66809237112E+00 -0.17667091682E+01 -0.54414952236E+01  0.58983369664E+01  0.12700000000E+01 0. -1.
         -4    1    1    2    0  501  0.66809237112E+00  0.17667091682E+01 -0.13142689304E+02  0.13338320391E+02  0.12700000000E+01 0. -1.
<mgrwt>
<rscale>  0 0.22760731E+01</rscale>
<asrwt>0</asrwt>
<pdfrwt beam="1">0</pdfrwt>
<pdfrwt beam="2">0</pdfrwt>
<totfact> 0.25804557E+12</totfact>
</mgrwt>
</event>
<event>
 4    1  0.1699693E+006  0.2363902E+01  0.7546771E-02  0.2771752E+00
         22   -1    0    0    0    0  0.00000000000E+00  0.00000000000E+00  0.14684020513E+01  0.14684020513E+01  0.00000000000E+00 0. -1.
         22   -1    0    0    0    0 -0.00000000000E+00 -0.00000000000E+00 -0.54990181355E+01  0.54990181355E+01  0.00000000000E+00 0.  1.
          4    1    1    2  501    0 -0.17142562771E+01  0.10180662944E+01 -0.82041318335E-01  0.23653254197E+01  0.12700000000E+01 0. -1.
         -4    1    1    2    0  501  0.17142562771E+01 -0.10180662944E+01 -0.39485747659E+01  0.46020947671E+01  0.12700000000E+01 0.  1.
<mgrwt>
<rscale>  0 0.23639022E+01</rscale>
<asrwt>0</asrwt>
<pdfrwt beam="1">0</pdfrwt>
<pdfrwt beam="2">0</pdfrwt>
<totfact> 0.20922485E+12</totfact>
</mgrwt>
</event>
<event>
 4    1  0.1699693E+006  0.2026578E+01  0.7546771E-02  0.2963013E+00
         22   -1    0    0    0    0  0.00000000000E+00  0.00000000000E+00  0.31038741736E+00  0.31038741736E+00  0.00000000000E+00 0. -1.
         22   -1    0    0    0    0 -0.00000000000E+00 -0.00000000000E+00 -0.13920129150E+02  0.13920129150E+02  0.00000000000E+00 0.  1.
          4    1    1    2  501    0  0.11036438035E+01  0.11296404365E+01 -0.52227719090E+01  0.56021748968E+01  0.12700000000E+01 0.  1.
         -4    1    1    2    0  501 -0.11036438035E+01 -0.11296404365E+01 -0.83869698232E+01  0.86283416701E+01  0.12700000000E+01 0. -1.
<mgrwt>
<rscale>  0 0.20265777E+01</rscale>
<asrwt>0</asrwt>
<pdfrwt beam="1">0</pdfrwt>
<pdfrwt beam="2">0</pdfrwt>
<totfact> 0.39834520E+12</totfact>
</mgrwt>
</event>
<event>
 4    1  0.1699693E+006  0.2376858E+01  0.7546771E-02  0.2765441E+00
         22   -1    0    0    0    0  0.00000000000E+00  0.00000000000E+00  0.11067630684E+01  0.11067630684E+01  0.00000000000E+00 0.  1.
         22   -1    0    0    0    0 -0.00000000000E+00 -0.00000000000E+00 -0.52610331447E+01  0.52610331447E+01  0.00000000000E+00 0. -1.
          4    1    1    2  501    0 -0.16585607854E+01 -0.11338993957E+01 -0.15279074807E+01  0.28255889630E+01  0.12700000000E+01 0.  1.
         -4    1    1    2    0  501  0.16585607854E+01  0.11338993957E+01 -0.26263625957E+01  0.35422072501E+01  0.12700000000E+01 0. -1.
<mgrwt>
<rscale>  0 0.23768575E+01</rscale>
<asrwt>0</asrwt>
<pdfrwt beam="1">0</pdfrwt>
<pdfrwt beam="2">0</pdfrwt>
<totfact> 0.30497072E+12</totfact>
</mgrwt>
</event>
<event>
 4    1  0.1699693E+006  0.2100764E+01  0.7546771E-02  0.2915879E+00
         22   -1    0    0    0    0  0.00000000000E+00  0.00000000000E+00  0.41162257855E+01  0.41162257855E+01  0.00000000000E+00 0. -1.
         22   -1    0    0    0    0 -0.00000000000E+00 -0.00000000000E+00 -0.17082744199E+01  0.17082744199E+01  0.00000000000E+00 0.  1.
          4    1    1    2  501    0  0.60366000146E+00 -0.15607387649E+01  0.29811127808E+01  0.36469499999E+01  0.12700000000E+01 0. -1.
         -4    1    1    2    0  501 -0.60366000146E+00  0.15607387649E+01 -0.57316141521E+00  0.21775502055E+01  0.12700000000E+01 0.  1.
<mgrwt>
<rscale>  0 0.21007644E+01</rscale>
<asrwt>0</asrwt>
<pdfrwt beam="1">0</pdfrwt>
<pdfrwt beam="2">0</pdfrwt>
<totfact> 0.24752857E+12</totfact>
</mgrwt>
</event>
<event>
 4    1  0.1699693E+006  0.1572577E+02  0.7546771E-02  0.1609829E+00
         22   -1    0    0    0    0  0.00000000000E+00  0.00000000000E+00  0.20061814558E+02  0.20061814558E+02  0.00000000000E+00 0. -1.
         22   -1    0    0    0    0 -0.00000000000E+00 -0.00000000000E+00 -0.18962727803E+02  0.18962727803E+02  0.00000000000E+00 0.  1.
          4    1    1    2  501    0 -0.95362947458E+00 -0.15645366597E+02  0.12092186274E+02  0.19837358040E+02  0.12700000000E+01 0. -1.
         -4    1    1    2    0  501  0.95362947458E+00  0.15645366597E+02 -0.10993099518E+02  0.19187184321E+02  0.12700000000E+01 0.  1.
<mgrwt>
<rscale>  0 0.15725769E+02</rscale>
<asrwt>0</asrwt>
<pdfrwt beam="1">0</pdfrwt>
<pdfrwt beam="2">0</pdfrwt>
<totfact> 0.20722392E+10</totfact>
</mgrwt>
</event>
<event>
 4    1  0.1699693E+006  0.2182998E+01  0.7546771E-02  0.2867266E+00
         22   -1    0    0    0    0  0.00000000000E+00  0.00000000000E+00  0.80690379631E+02  0.80690379631E+02  0.00000000000E+00 0.  1.
         22   -1    0    0    0    0 -0.00000000000E+00 -0.00000000000E+00 -0.23257625155E+00  0.23257625155E+00  0.00000000000E+00 0.  1.
          4    1    1    2  501    0 -0.16942240176E+01  0.53121043926E+00  0.75177567387E+02  0.75209255533E+02  0.12700000000E+01 0.  1.
         -4    1    1    2    0  501  0.16942240176E+01 -0.53121043926E+00  0.52802359929E+01  0.57137003504E+01  0.12700000000E+01 0.  1.
<mgrwt>
<rscale>  0 0.21829978E+01</rscale>
<asrwt>0</asrwt>
<pdfrwt beam="1">0</pdfrwt>
<pdfrwt beam="2">0</pdfrwt>
<totfact> 0.57140535E+11</totfact>
</mgrwt>
</event>
<event>
 4    1  0.1699693E+006  0.2052928E+01  0.7546771E-02  0.2945891E+00
         22   -1    0    0    0    0  0.00000000000E+00  0.00000000000E+00  0.25604921428E+01  0.25604921428E+01  0.00000000000E+00 0.  1.
         22   -1    0    0    0    0 -0.00000000000E+00 -0.00000000000E+00 -0.24461650083E+01  0.24461650083E+01  0.00000000000E+00 0. -1.
          4    1    1    2  501    0 -0.13905953406E+01  0.81722612750E+00  0.14889251595E+01  0.25360228854E+01  0.12700000000E+01 0.  1.
         -4    1    1    2    0  501  0.13905953406E+01 -0.81722612750E+00 -0.13745980249E+01  0.24706342657E+01  0.12700000000E+01 0. -1.
<mgrwt>
<rscale>  0 0.20529281E+01</rscale>
<asrwt>0</asrwt>
<pdfrwt beam="1">0</pdfrwt>
<pdfrwt beam="2">0</pdfrwt>
<totfact> 0.28469989E+12</totfact>
</mgrwt>
</event>
<event>
 4    1  0.1699693E+006  0.2264484E+01  0.7546771E-02  0.2822445E+00
         22   -1    0    0    0    0  0.00000000000E+00  0.00000000000E+00  0.20207246742E+01  0.20207246742E+01  0.00000000000E+00 0. -1.
         22   -1    0    0    0    0 -0.00000000000E+00 -0.00000000000E+00 -0.33889911723E+01  0.33889911723E+01  0.00000000000E+00 0.  1.
          4    1    1    2  501    0 -0.79307663925E+00 -0.16988287567E+01 -0.20398262199E+01  0.30477501058E+01  0.12700000000E+01 0.  1.
         -4    1    1    2    0  501  0.79307663925E+00  0.16988287567E+01  0.67155972179E+00  0.23619657407E+01  0.12700000000E+01 0. -1.
<mgrwt>
<rscale>  0 0.22644844E+01</rscale>
<asrwt>0</asrwt>
<pdfrwt beam="1">0</pdfrwt>
<pdfrwt beam="2">0</pdfrwt>
<totfact> 0.25615922E+12</totfact>
</mgrwt>
</event>
<event>
 4    1  0.1699693E+006  0.2544987E+01  0.7546771E-02  0.2689023E+00
         22   -1    0    0    0    0  0.00000000000E+00  0.00000000000E+00  0.33759468853E+02  0.33759468853E+02  0.00000000000E+00 0. -1.
         22   -1    0    0    0    0 -0.00000000000E+00 -0.00000000000E+00 -0.25471351572E+00  0.25471351572E+00  0.00000000000E+00 0.  1.
          4    1    1    2  501    0  0.19957018893E+01 -0.93874092226E+00  0.25200929114E+02  0.25329109514E+02  0.12700000000E+01 0. -1.
         -4    1    1    2    0  501 -0.19957018893E+01  0.93874092226E+00  0.83038262234E+01  0.86850728551E+01  0.12700000000E+01 0.  1.
<mgrwt>
<rscale>  0 0.25449873E+01</rscale>
<asrwt>0</asrwt>
<pdfrwt beam="1">0</pdfrwt>
<pdfrwt beam="2">0</pdfrwt>
<totfact> 0.16382238E+12</totfact>
</mgrwt>
</event>
<event>
 4    1  0.1699693E+006  0.4152047E+01  0.7546771E-02  0.2249139E+00
         22   -1    0    0    0    0  0.00000000000E+00  0.00000000000E+00  0.39361771421E+00  0.39361771421E+00  0.00000000000E+00 0.  1.
         22   -1    0    0    0    0 -0.00000000000E+00 -0.00000000000E+00 -0.12387231313E+03  0.12387231313E+03  0.00000000000E+00 0. -1.
          4    1    1    2  501    0 -0.38120307059E+01 -0.10464314268E+01 -0.11783911832E+02  0.12494001557E+02  0.12700000000E+01 0.  1.
         -4    1    1    2    0  501  0.38120307059E+01  0.10464314268E+01 -0.11169478358E+03  0.11177192928E+03  0.12700000000E+01 0. -1.
<mgrwt>
<rscale>  0 0.41520473E+01</rscale>
<asrwt>0</asrwt>
<pdfrwt beam="1">0</pdfrwt>
<pdfrwt beam="2">0</pdfrwt>
<totfact> 0.17318348E+11</totfact>
</mgrwt>
</event>
<event>
 4    1  0.1699693E+006  0.2026696E+01  0.7546771E-02  0.2962935E+00
         22   -1    0    0    0    0  0.00000000000E+00  0.00000000000E+00  0.77307817303E+01  0.77307817303E+01  0.00000000000E+00 0.  1.
         22   -1    0    0    0    0 -0.00000000000E+00 -0.00000000000E+00 -0.53574027092E+00  0.53574027092E+00  0.00000000000E+00 0. -1.
          4    1    1    2  501    0 -0.15763125583E+01 -0.99171963799E-01  0.39730844412E+01  0.44601453269E+01  0.12700000000E+01 0.  1.
         -4    1    1    2    0  501  0.15763125583E+01  0.99171963799E-01  0.32219570181E+01  0.38063766743E+01  0.12700000000E+01 0.  1.
<mgrwt>
<rscale>  0 0.20266959E+01</rscale>
<asrwt>0</asrwt>
<pdfrwt beam="1">0</pdfrwt>
<pdfrwt beam="2">0</pdfrwt>
<totfact> 0.43967097E+12</totfact>
</mgrwt>
</event>
<event>
 4    1  0.1699693E+006  0.2619351E+01  0.7546771E-02  0.2658141E+00
         22   -1    0    0    0    0  0.00000000000E+00  0.00000000000E+00  0.52379002328E+01  0.52379002328E+01  0.00000000000E+00 0. -1.
         22   -1    0    0    0    0 -0.00000000000E+00 -0.00000000000E+00 -0.13855883526E+01  0.13855883526E+01  0.00000000000E+00 0.  1.
          4    1    1    2  501    0 -0.13574292390E+01 -0.18453957791E+01  0.27003023459E+01  0.37619984689E+01  0.12700000000E+01 0.  1.
         -4    1    1    2    0  501  0.13574292390E+01  0.18453957791E+01  0.11520095343E+01  0.28614901166E+01  0.12700000000E+01 0.  1.
<mgrwt>
<rscale>  0 0.26193510E+01</rscale>
<asrwt>0</asrwt>
<pdfrwt beam="1">0</pdfrwt>
<pdfrwt beam="2">0</pdfrwt>
<totfact> 0.23695672E+12</totfact>
</mgrwt>
</event>
<event>
 4    1  0.1699693E+006  0.4074404E+01  0.7546771E-02  0.2263294E+00
         22   -1    0    0    0    0  0.00000000000E+00  0.00000000000E+00  0.17494633445E+01  0.17494633445E+01  0.00000000000E+00 0. -1.
         22   -1    0    0    0    0 -0.00000000000E+00 -0.00000000000E+00 -0.96826488148E+01  0.96826488148E+01  0.00000000000E+00 0. -1.
          4    1    1    2  501    0  0.19462519397E+01  0.33466363222E+01 -0.31583645709E+01  0.51551952484E+01  0.12700000000E+01 0. -1.
         -4    1    1    2    0  501 -0.19462519397E+01 -0.33466363222E+01 -0.47748208994E+01  0.62769169109E+01  0.12700000000E+01 0. -1.
<mgrwt>
<rscale>  0 0.40744044E+01</rscale>
<asrwt>0</asrwt>
<pdfrwt beam="1">0</pdfrwt>
<pdfrwt beam="2">0</pdfrwt>
<totfact> 0.86825814E+11</totfact>
</mgrwt>
</event>
<event>
 4    1  0.1699693E+006  0.6575898E+01  0.7546771E-02  0.1971590E+00
         22   -1    0    0    0    0  0.00000000000E+00  0.00000000000E+00  0.19702266712E+01  0.19702266712E+01  0.00000000000E+00 0. -1.
         22   -1    0    0    0    0 -0.00000000000E+00 -0.00000000000E+00 -0.23048670930E+02  0.23048670930E+02  0.00000000000E+00 0.  1.
          4    1    1    2  501    0  0.50525505347E+01 -0.40126383083E+01 -0.78055011861E+01  0.10206286390E+02  0.12700000000E+01 0.  1.
         -4    1    1    2    0  501 -0.50525505347E+01  0.40126383083E+01 -0.13272943072E+02  0.14812611211E+02  0.12700000000E+01 0. -1.
<mgrwt>
<rscale>  0 0.65758979E+01</rscale>
<asrwt>0</asrwt>
<pdfrwt beam="1">0</pdfrwt>
<pdfrwt beam="2">0</pdfrwt>
<totfact> 0.26018851E+11</totfact>
</mgrwt>
</event>
<event>
 4    1  0.1699693E+006  0.2732771E+01  0.7546771E-02  0.2614029E+00
         22   -1    0    0    0    0  0.00000000000E+00  0.00000000000E+00  0.85171378068E+02  0.85171378068E+02  0.00000000000E+00 0.  1.
         22   -1    0    0    0    0 -0.00000000000E+00 -0.00000000000E+00 -0.10577837742E+00  0.10577837742E+00  0.00000000000E+00 0.  1.
          4    1    1    2  501    0 -0.87873971757E+00  0.22545401901E+01  0.60168581233E+02  0.60230608519E+02  0.12700000000E+01 0.  1.
         -4    1    1    2    0  501  0.87873971757E+00 -0.22545401901E+01  0.24897018458E+02  0.25046547927E+02  0.12700000000E+01 0.  1.
<mgrwt>
<rscale>  0 0.27327706E+01</rscale>
<asrwt>0</asrwt>
<pdfrwt beam="1">0</pdfrwt>
<pdfrwt beam="2">0</pdfrwt>
<totfact> 0.12742608E+12</totfact>
</mgrwt>
</event>
<event>
 4    1  0.1699693E+006  0.2763905E+01  0.7546771E-02  0.2602501E+00
         22   -1    0    0    0    0  0.00000000000E+00  0.00000000000E+00  0.38516987601E+00  0.38516987601E+00  0.00000000000E+00 0. -1.
         22   -1    0    0    0    0 -0.00000000000E+00 -0.00000000000E+00 -0.22684098503E+02  0.22684098503E+02  0.00000000000E+00 0.  1.
          4    1    1    2  501    0  0.15651141220E+01  0.18912131148E+01 -0.15238589128E+02  0.15487213044E+02  0.12700000000E+01 0.  1.
         -4    1    1    2    0  501 -0.15651141220E+01 -0.18912131148E+01 -0.70603394984E+01  0.75820553344E+01  0.12700000000E+01 0. -1.
<mgrwt>
<rscale>  0 0.27639047E+01</rscale>
<asrwt>0</asrwt>
<pdfrwt beam="1">0</pdfrwt>
<pdfrwt beam="2">0</pdfrwt>
<totfact> 0.17059301E+12</totfact>
</mgrwt>
</event>
<event>
 4    1  0.1699693E+006  0.2180685E+01  0.7546771E-02  0.2868585E+00
         22   -1    0    0    0    0  0.00000000000E+00  0.00000000000E+00  0.44608347478E+00  0.44608347478E+00  0.00000000000E+00 0. -1.
         22   -1    0    0    0    0 -0.00000000000E+00 -0.00000000000E+00 -0.10752118993E+02  0.10752118993E+02  0.00000000000E+00 0. -1.
          4    1    1    2  501    0  0.16538571248E+01 -0.63815531314E+00 -0.46356166725E+01  0.51229217764E+01  0.12700000000E+01 0. -1.
         -4    1    1    2    0  501 -0.16538571248E+01  0.63815531314E+00 -0.56704188459E+01  0.60752806915E+01  0.12700000000E+01 0. -1.
<mgrwt>
<rscale>  0 0.21806847E+01</rscale>
<asrwt>0</asrwt>
<pdfrwt beam="1">0</pdfrwt>
<pdfrwt beam="2">0</pdfrwt>
<totfact> 0.36308999E+12</totfact>
</mgrwt>
</event>
<event>
 4    1  0.1699693E+006  0.2615463E+01  0.7546771E-02  0.2659716E+00
         22   -1    0    0    0    0  0.00000000000E+00  0.00000000000E+00  0.23926201724E+01  0.23926201724E+01  0.00000000000E+00 0. -1.
         22   -1    0    0    0    0 -0.00000000000E+00 -0.00000000000E+00 -0.30111750741E+01  0.30111750741E+01  0.00000000000E+00 0. -1.
          4    1    1    2  501    0 -0.22075605624E+01  0.59533250470E+00  0.29799996873E+00  0.26323845482E+01  0.12700000000E+01 0. -1.
         -4    1    1    2    0  501  0.22075605624E+01 -0.59533250470E+00 -0.91655487042E+00  0.27714106983E+01  0.12700000000E+01 0. -1.
<mgrwt>
<rscale>  0 0.26154626E+01</rscale>
<asrwt>0</asrwt>
<pdfrwt beam="1">0</pdfrwt>
<pdfrwt beam="2">0</pdfrwt>
<totfact> 0.24181972E+12</totfact>
</mgrwt>
</event>
<event>
 4    1  0.1699693E+006  0.2111507E+01  0.7546771E-02  0.2909321E+00
         22   -1    0    0    0    0  0.00000000000E+00  0.00000000000E+00  0.14253670916E+01  0.14253670916E+01  0.00000000000E+00 0.  1.
         22   -1    0    0    0    0 -0.00000000000E+00 -0.00000000000E+00 -0.33142963751E+01  0.33142963751E+01  0.00000000000E+00 0.  1.
          4    1    1    2  501    0 -0.90143614604E+00 -0.14258239691E+01 -0.38251772251E+00  0.21458753283E+01  0.12700000000E+01 0.  1.
         -4    1    1    2    0  501  0.90143614604E+00  0.14258239691E+01 -0.15064115610E+01  0.25937881385E+01  0.12700000000E+01 0.  1.
<mgrwt>
<rscale>  0 0.21115068E+01</rscale>
<asrwt>0</asrwt>
<pdfrwt beam="1">0</pdfrwt>
<pdfrwt beam="2">0</pdfrwt>
<totfact> 0.39326549E+12</totfact>
</mgrwt>
</event>
<event>
 4    1  0.1699693E+006  0.3307974E+01  0.7546771E-02  0.2432988E+00
         22   -1    0    0    0    0  0.00000000000E+00  0.00000000000E+00  0.44034354099E+02  0.44034354099E+02  0.00000000000E+00 0.  1.
         22   -1    0    0    0    0 -0.00000000000E+00 -0.00000000000E+00 -0.37905057640E+00  0.37905057640E+00  0.00000000000E+00 0. -1.
          4    1    1    2  501    0 -0.22072363888E+01 -0.21113737126E+01  0.34859891294E+02  0.35016492007E+02  0.12700000000E+01 0.  1.
         -4    1    1    2    0  501  0.22072363888E+01  0.21113737126E+01  0.87954122279E+01  0.93969126680E+01  0.12700000000E+01 0. -1.
<mgrwt>
<rscale>  0 0.33079739E+01</rscale>
<asrwt>0</asrwt>
<pdfrwt beam="1">0</pdfrwt>
<pdfrwt beam="2">0</pdfrwt>
<totfact> 0.74353989E+11</totfact>
</mgrwt>
</event>
<event>
 4    1  0.1699693E+006  0.2308951E+01  0.7546771E-02  0.2799260E+00
         22   -1    0    0    0    0  0.00000000000E+00  0.00000000000E+00  0.79646749630E+01  0.79646749630E+01  0.00000000000E+00 0.  1.
         22   -1    0    0    0    0 -0.00000000000E+00 -0.00000000000E+00 -0.68471115071E+00  0.68471115071E+00  0.00000000000E+00 0. -1.
          4    1    1    2  501    0 -0.16556645091E+01 -0.98849867441E+00  0.29924861077E+01  0.37797126479E+01  0.12700000000E+01 0. -1.
         -4    1    1    2    0  501  0.16556645091E+01  0.98849867441E+00  0.42874777046E+01  0.48696734658E+01  0.12700000000E+01 0.  1.
<mgrwt>
<rscale>  0 0.23089510E+01</rscale>
<asrwt>0</asrwt>
<pdfrwt beam="1">0</pdfrwt>
<pdfrwt beam="2">0</pdfrwt>
<totfact> 0.32132093E+12</totfact>
</mgrwt>
</event>
<event>
 4    1  0.1699693E+006  0.3219208E+01  0.7546771E-02  0.2457140E+00
         22   -1    0    0    0    0  0.00000000000E+00  0.00000000000E+00  0.33756145238E+02  0.33756145238E+02  0.00000000000E+00 0.  1.
         22   -1    0    0    0    0 -0.00000000000E+00 -0.00000000000E+00 -0.31556740444E+00  0.31556740444E+00  0.00000000000E+00 0. -1.
          4    1    1    2  501    0  0.28063176163E+01  0.93540320095E+00  0.19526507660E+02  0.19790093458E+02  0.12700000000E+01 0.  1.
         -4    1    1    2    0  501 -0.28063176163E+01 -0.93540320095E+00  0.13914070174E+02  0.14281619184E+02  0.12700000000E+01 0. -1.
<mgrwt>
<rscale>  0 0.32192076E+01</rscale>
<asrwt>0</asrwt>
<pdfrwt beam="1">0</pdfrwt>
<pdfrwt beam="2">0</pdfrwt>
<totfact> 0.12888280E+12</totfact>
</mgrwt>
</event>
<event>
 4    1  0.1699693E+006  0.2471213E+01  0.7546771E-02  0.2721359E+00
         22   -1    0    0    0    0  0.00000000000E+00  0.00000000000E+00  0.54328163008E+00  0.54328163008E+00  0.00000000000E+00 0.  1.
         22   -1    0    0    0    0 -0.00000000000E+00 -0.00000000000E+00 -0.14394129743E+02  0.14394129743E+02  0.00000000000E+00 0. -1.
          4    1    1    2  501    0  0.47808871822E+00 -0.20652909784E+01 -0.34296734764E+01  0.42272397380E+01  0.12700000000E+01 0.  1.
         -4    1    1    2    0  501 -0.47808871822E+00  0.20652909784E+01 -0.10421174637E+02  0.10710171636E+02  0.12700000000E+01 0. -1.
<mgrwt>
<rscale>  0 0.24712134E+01</rscale>
<asrwt>0</asrwt>
<pdfrwt beam="1">0</pdfrwt>
<pdfrwt beam="2">0</pdfrwt>
<totfact> 0.20355003E+12</totfact>
</mgrwt>
</event>
<event>
 4    1  0.1699693E+006  0.2703788E+01  0.7546771E-02  0.2624978E+00
         22   -1    0    0    0    0  0.00000000000E+00  0.00000000000E+00  0.10195908656E+02  0.10195908656E+02  0.00000000000E+00 0. -1.
         22   -1    0    0    0    0 -0.00000000000E+00 -0.00000000000E+00 -0.78871494012E+00  0.78871494012E+00  0.00000000000E+00 0.  1.
          4    1    1    2  501    0  0.23666196684E+01  0.31093501959E+00  0.63597449109E+01  0.69106312716E+01  0.12700000000E+01 0.  1.
         -4    1    1    2    0  501 -0.23666196684E+01 -0.31093501959E+00  0.30474488053E+01  0.40739923248E+01  0.12700000000E+01 0. -1.
<mgrwt>
<rscale>  0 0.27037879E+01</rscale>
<asrwt>0</asrwt>
<pdfrwt beam="1">0</pdfrwt>
<pdfrwt beam="2">0</pdfrwt>
<totfact> 0.20313758E+12</totfact>
</mgrwt>
</event>
<event>
 4    1  0.1699693E+006  0.2070403E+01  0.7546771E-02  0.2934771E+00
         22   -1    0    0    0    0  0.00000000000E+00  0.00000000000E+00  0.39509478187E+01  0.39509478187E+01  0.00000000000E+00 0.  1.
         22   -1    0    0    0    0 -0.00000000000E+00 -0.00000000000E+00 -0.10852431630E+01  0.10852431630E+01  0.00000000000E+00 0. -1.
          4    1    1    2  501    0  0.16250393652E+01  0.18142463215E+00  0.13912337806E+01  0.24944136121E+01  0.12700000000E+01 0. -1.
         -4    1    1    2    0  501 -0.16250393652E+01 -0.18142463215E+00  0.14744708751E+01  0.25417773697E+01  0.12700000000E+01 0. -1.
<mgrwt>
<rscale>  0 0.20704028E+01</rscale>
<asrwt>0</asrwt>
<pdfrwt beam="1">0</pdfrwt>
<pdfrwt beam="2">0</pdfrwt>
<totfact> 0.43738531E+12</totfact>
</mgrwt>
</event>
<event>
 4    1  0.1699693E+006  0.2860015E+01  0.7546771E-02  0.2568357E+00
         22   -1    0    0    0    0  0.00000000000E+00  0.00000000000E+00  0.66058229552E+01  0.66058229552E+01  0.00000000000E+00 0. -1.
         22   -1    0    0    0    0 -0.00000000000E+00 -0.00000000000E+00 -0.22522445231E+01  0.22522445231E+01  0.00000000000E+00 0.  1.
          4    1    1    2  501    0  0.14086870879E+01 -0.21406505722E+01  0.51485801153E+01  0.58896147062E+01  0.12700000000E+01 0. -1.
         -4    1    1    2    0  501 -0.14086870879E+01  0.21406505722E+01 -0.79500168315E+00  0.29684527721E+01  0.12700000000E+01 0.  1.
<mgrwt>
<rscale>  0 0.28600147E+01</rscale>
<asrwt>0</asrwt>
<pdfrwt beam="1">0</pdfrwt>
<pdfrwt beam="2">0</pdfrwt>
<totfact> 0.10261436E+12</totfact>
</mgrwt>
</event>
<event>
 4    1  0.1699693E+006  0.2028940E+01  0.7546771E-02  0.2961460E+00
         22   -1    0    0    0    0  0.00000000000E+00  0.00000000000E+00  0.46908195355E+01  0.46908195355E+01  0.00000000000E+00 0.  1.
         22   -1    0    0    0    0 -0.00000000000E+00 -0.00000000000E+00 -0.94232374391E+00  0.94232374391E+00  0.00000000000E+00 0. -1.
          4    1    1    2  501    0 -0.58174161142E+00  0.14714872873E+01  0.26124904846E+01  0.33078247643E+01  0.12700000000E+01 0.  1.
         -4    1    1    2    0  501  0.58174161142E+00 -0.14714872873E+01  0.11360053070E+01  0.23253185151E+01  0.12700000000E+01 0. -1.
<mgrwt>
<rscale>  0 0.20289402E+01</rscale>
<asrwt>0</asrwt>
<pdfrwt beam="1">0</pdfrwt>
<pdfrwt beam="2">0</pdfrwt>
<totfact> 0.41976608E+12</totfact>
</mgrwt>
</event>
<event>
 4    1  0.1699693E+006  0.2426127E+01  0.7546771E-02  0.2742022E+00
         22   -1    0    0    0    0  0.00000000000E+00  0.00000000000E+00  0.38836370278E+00  0.38836370278E+00  0.00000000000E+00 0.  1.
         22   -1    0    0    0    0 -0.00000000000E+00 -0.00000000000E+00 -0.15229744247E+02  0.15229744247E+02  0.00000000000E+00 0. -1.
          4    1    1    2  501    0  0.20663409304E+01 -0.58526503162E-01 -0.79636122466E+01  0.83249750874E+01  0.12700000000E+01 0.  1.
         -4    1    1    2    0  501 -0.20663409304E+01  0.58526503162E-01 -0.68777682976E+01  0.72931328623E+01  0.12700000000E+01 0. -1.
<mgrwt>
<rscale>  0 0.24261266E+01</rscale>
<asrwt>0</asrwt>
<pdfrwt beam="1">0</pdfrwt>
<pdfrwt beam="2">0</pdfrwt>
<totfact> 0.27730249E+12</totfact>
</mgrwt>
</event>
<event>
 4    1  0.1699693E+006  0.2044612E+01  0.7546771E-02  0.2951248E+00
         22   -1    0    0    0    0  0.00000000000E+00  0.00000000000E+00  0.17353056951E+00  0.17353056951E+00  0.00000000000E+00 0. -1.
         22   -1    0    0    0    0 -0.00000000000E+00 -0.00000000000E+00 -0.34577597394E+02  0.34577597394E+02  0.00000000000E+00 0.  1.
          4    1    1    2  501    0  0.12722260942E+01  0.97415468958E+00 -0.76329719556E+01  0.79020691891E+01  0.12700000000E+01 0. -1.
         -4    1    1    2    0  501 -0.12722260942E+01 -0.97415468958E+00 -0.26771094869E+02  0.26849058774E+02  0.12700000000E+01 0.  1.
<mgrwt>
<rscale>  0 0.20446116E+01</rscale>
<asrwt>0</asrwt>
<pdfrwt beam="1">0</pdfrwt>
<pdfrwt beam="2">0</pdfrwt>
<totfact> 0.24379387E+12</totfact>
</mgrwt>
</event>
<event>
 4    1  0.1699693E+006  0.2076796E+01  0.7546771E-02  0.2930748E+00
         22   -1    0    0    0    0  0.00000000000E+00  0.00000000000E+00  0.45023229952E+01  0.45023229952E+01  0.00000000000E+00 0. -1.
         22   -1    0    0    0    0 -0.00000000000E+00 -0.00000000000E+00 -0.10176399444E+01  0.10176399444E+01  0.00000000000E+00 0.  1.
          4    1    1    2  501    0 -0.80319813205E+00  0.14335463761E+01  0.10740079153E+01  0.23380708830E+01  0.12700000000E+01 0.  1.
         -4    1    1    2    0  501  0.80319813205E+00 -0.14335463761E+01  0.24106751355E+01  0.31818920567E+01  0.12700000000E+01 0. -1.
<mgrwt>
<rscale>  0 0.20767962E+01</rscale>
<asrwt>0</asrwt>
<pdfrwt beam="1">0</pdfrwt>
<pdfrwt beam="2">0</pdfrwt>
<totfact> 0.40358306E+12</totfact>
</mgrwt>
</event>
<event>
 4    1  0.1699693E+006  0.3282456E+01  0.7546771E-02  0.2439813E+00
         22   -1    0    0    0    0  0.00000000000E+00  0.00000000000E+00  0.96412140575E+00  0.96412140575E+00  0.00000000000E+00 0. -1.
         22   -1    0    0    0    0 -0.00000000000E+00 -0.00000000000E+00 -0.21170937111E+02  0.21170937111E+02  0.00000000000E+00 0. -1.
          4    1    1    2  501    0  0.28517343309E+01  0.10145105157E+01 -0.24987102385E+01  0.41252967331E+01  0.12700000000E+01 0. -1.
         -4    1    1    2    0  501 -0.28517343309E+01 -0.10145105157E+01 -0.17708105467E+02  0.18009761784E+02  0.12700000000E+01 0. -1.
<mgrwt>
<rscale>  0 0.32824564E+01</rscale>
<asrwt>0</asrwt>
<pdfrwt beam="1">0</pdfrwt>
<pdfrwt beam="2">0</pdfrwt>
<totfact> 0.65785138E+11</totfact>
</mgrwt>
</event>
<event>
 4    1  0.1699693E+006  0.3093353E+01  0.7546771E-02  0.2493478E+00
         22   -1    0    0    0    0  0.00000000000E+00  0.00000000000E+00  0.31366628856E+00  0.31366628856E+00  0.00000000000E+00 0.  1.
         22   -1    0    0    0    0 -0.00000000000E+00 -0.00000000000E+00 -0.31059075029E+02  0.31059075029E+02  0.00000000000E+00 0. -1.
          4    1    1    2  501    0 -0.23369240789E+01 -0.15794677191E+01 -0.13280234680E+02  0.13635742209E+02  0.12700000000E+01 0.  1.
         -4    1    1    2    0  501  0.23369240789E+01  0.15794677191E+01 -0.17465174060E+02  0.17736999109E+02  0.12700000000E+01 0. -1.
<mgrwt>
<rscale>  0 0.30933529E+01</rscale>
<asrwt>0</asrwt>
<pdfrwt beam="1">0</pdfrwt>
<pdfrwt beam="2">0</pdfrwt>
<totfact> 0.14435714E+12</totfact>
</mgrwt>
</event>
<event>
 4    1  0.1699693E+006  0.3653579E+01  0.7546771E-02  0.2348846E+00
         22   -1    0    0    0    0  0.00000000000E+00  0.00000000000E+00  0.48255179260E+01  0.48255179260E+01  0.00000000000E+00 0.  1.
         22   -1    0    0    0    0 -0.00000000000E+00 -0.00000000000E+00 -0.27664703239E+01  0.27664703239E+01  0.00000000000E+00 0. -1.
          4    1    1    2  501    0  0.31712057611E+01 -0.12958362538E+01  0.10626163470E+01  0.38049692610E+01  0.12700000000E+01 0.  1.
         -4    1    1    2    0  501 -0.31712057611E+01  0.12958362538E+01  0.99643125508E+00  0.37870189889E+01  0.12700000000E+01 0. -1.
<mgrwt>
<rscale>  0 0.36535787E+01</rscale>
<asrwt>0</asrwt>
<pdfrwt beam="1">0</pdfrwt>
<pdfrwt beam="2">0</pdfrwt>
<totfact> 0.11732450E+12</totfact>
</mgrwt>
</event>
<event>
 4    1  0.1699693E+006  0.2662524E+01  0.7546771E-02  0.2640943E+00
         22   -1    0    0    0    0  0.00000000000E+00  0.00000000000E+00  0.73500769810E+00  0.73500769810E+00  0.00000000000E+00 0. -1.
         22   -1    0    0    0    0 -0.00000000000E+00 -0.00000000000E+00 -0.20316704641E+02  0.20316704641E+02  0.00000000000E+00 0.  1.
          4    1    1    2  501    0  0.17563664854E+01  0.15463862491E+01 -0.21621421554E+01  0.34298531109E+01  0.12700000000E+01 0. -1.
         -4    1    1    2    0  501 -0.17563664854E+01 -0.15463862491E+01 -0.17419554787E+02  0.17621859228E+02  0.12700000000E+01 0.  1.
<mgrwt>
<rscale>  0 0.26625239E+01</rscale>
<asrwt>0</asrwt>
<pdfrwt beam="1">0</pdfrwt>
<pdfrwt beam="2">0</pdfrwt>
<totfact> 0.94326959E+11</totfact>
</mgrwt>
</event>
<event>
 4    1  0.1699693E+006  0.2734849E+01  0.7546771E-02  0.2613252E+00
         22   -1    0    0    0    0  0.00000000000E+00  0.00000000000E+00  0.36957997900E+02  0.36957997900E+02  0.00000000000E+00 0. -1.
         22   -1    0    0    0    0 -0.00000000000E+00 -0.00000000000E+00 -0.32868083826E+01  0.32868083826E+01  0.00000000000E+00 0. -1.
          4    1    1    2  501    0  0.21450229511E+01 -0.11248902091E+01  0.36328667317E+02  0.36431462645E+02  0.12700000000E+01 0. -1.
         -4    1    1    2    0  501 -0.21450229511E+01  0.11248902091E+01 -0.26574777994E+01  0.38133436375E+01  0.12700000000E+01 0. -1.
<mgrwt>
<rscale>  0 0.27348494E+01</rscale>
<asrwt>0</asrwt>
<pdfrwt beam="1">0</pdfrwt>
<pdfrwt beam="2">0</pdfrwt>
<totfact> 0.78638837E+10</totfact>
</mgrwt>
</event>
<event>
 4    1  0.1699693E+006  0.2317070E+01  0.7546771E-02  0.2795118E+00
         22   -1    0    0    0    0  0.00000000000E+00  0.00000000000E+00  0.18666095564E+01  0.18666095564E+01  0.00000000000E+00 0.  1.
         22   -1    0    0    0    0 -0.00000000000E+00 -0.00000000000E+00 -0.30320366183E+01  0.30320366183E+01  0.00000000000E+00 0. -1.
          4    1    1    2  501    0  0.16949191892E+01 -0.93976753107E+00 -0.11379271478E+01  0.25814128426E+01  0.12700000000E+01 0. -1.
         -4    1    1    2    0  501 -0.16949191892E+01  0.93976753107E+00 -0.27499914162E-01  0.23172333321E+01  0.12700000000E+01 0. -1.
<mgrwt>
<rscale>  0 0.23170701E+01</rscale>
<asrwt>0</asrwt>
<pdfrwt beam="1">0</pdfrwt>
<pdfrwt beam="2">0</pdfrwt>
<totfact> 0.31983405E+12</totfact>
</mgrwt>
</event>
<event>
 4    1  0.1699693E+006  0.2304565E+01  0.7546771E-02  0.2801509E+00
         22   -1    0    0    0    0  0.00000000000E+00  0.00000000000E+00  0.16459289036E+02  0.16459289036E+02  0.00000000000E+00 0.  1.
         22   -1    0    0    0    0 -0.00000000000E+00 -0.00000000000E+00 -0.37465466180E+00  0.37465466180E+00  0.00000000000E+00 0.  1.
          4    1    1    2  501    0 -0.18532621831E+01  0.51336030054E+00  0.11177424072E+02  0.11412529448E+02  0.12700000000E+01 0.  1.
         -4    1    1    2    0  501  0.18532621831E+01 -0.51336030054E+00  0.49072103022E+01  0.54214142498E+01  0.12700000000E+01 0.  1.
<mgrwt>
<rscale>  0 0.23045649E+01</rscale>
<asrwt>0</asrwt>
<pdfrwt beam="1">0</pdfrwt>
<pdfrwt beam="2">0</pdfrwt>
<totfact> 0.26236803E+12</totfact>
</mgrwt>
</event>
<event>
 4    1  0.1699693E+006  0.2024607E+01  0.7546771E-02  0.2964310E+00
         22   -1    0    0    0    0  0.00000000000E+00  0.00000000000E+00  0.58771506057E+00  0.58771506057E+00  0.00000000000E+00 0.  1.
         22   -1    0    0    0    0 -0.00000000000E+00 -0.00000000000E+00 -0.71751321287E+01  0.71751321287E+01  0.00000000000E+00 0.  1.
          4    1    1    2  501    0  0.15722922537E+01 -0.11845764398E+00 -0.26447065466E+01  0.33306917993E+01  0.12700000000E+01 0.  1.
         -4    1    1    2    0  501 -0.15722922537E+01  0.11845764398E+00 -0.39427105216E+01  0.44321553900E+01  0.12700000000E+01 0.  1.
<mgrwt>
<rscale>  0 0.20246074E+01</rscale>
<asrwt>0</asrwt>
<pdfrwt beam="1">0</pdfrwt>
<pdfrwt beam="2">0</pdfrwt>
<totfact> 0.43297712E+12</totfact>
</mgrwt>
</event>
<event>
 4    1  0.1699693E+006  0.2388301E+01  0.7546771E-02  0.2759921E+00
         22   -1    0    0    0    0  0.00000000000E+00  0.00000000000E+00  0.51368037355E+02  0.51368037355E+02  0.00000000000E+00 0. -1.
         22   -1    0    0    0    0 -0.00000000000E+00 -0.00000000000E+00 -0.12678747141E+00  0.12678747141E+00  0.00000000000E+00 0.  1.
          4    1    1    2  501    0  0.12439008251E+01  0.15949272245E+01  0.16547003979E+02  0.16718472501E+02  0.12700000000E+01 0. -1.
         -4    1    1    2    0  501 -0.12439008251E+01 -0.15949272245E+01  0.34694245905E+02  0.34776352325E+02  0.12700000000E+01 0.  1.
<mgrwt>
<rscale>  0 0.23883011E+01</rscale>
<asrwt>0</asrwt>
<pdfrwt beam="1">0</pdfrwt>
<pdfrwt beam="2">0</pdfrwt>
<totfact> 0.20635965E+12</totfact>
</mgrwt>
</event>
<event>
 4    1  0.1699693E+006  0.2834453E+01  0.7546771E-02  0.2577233E+00
         22   -1    0    0    0    0  0.00000000000E+00  0.00000000000E+00  0.71083013423E+00  0.71083013423E+00  0.00000000000E+00 0.  1.
         22   -1    0    0    0    0 -0.00000000000E+00 -0.00000000000E+00 -0.13479898672E+02  0.13479898672E+02  0.00000000000E+00 0. -1.
          4    1    1    2  501    0  0.65047642060E+00  0.24491022206E+01 -0.35328235697E+01  0.45293447247E+01  0.12700000000E+01 0.  1.
         -4    1    1    2    0  501 -0.65047642060E+00 -0.24491022206E+01 -0.92362449684E+01  0.96613840819E+01  0.12700000000E+01 0. -1.
<mgrwt>
<rscale>  0 0.28344526E+01</rscale>
<asrwt>0</asrwt>
<pdfrwt beam="1">0</pdfrwt>
<pdfrwt beam="2">0</pdfrwt>
<totfact> 0.16269508E+12</totfact>
</mgrwt>
</event>
<event>
 4    1  0.1699693E+006  0.2045318E+01  0.7546771E-02  0.2950791E+00
         22   -1    0    0    0    0  0.00000000000E+00  0.00000000000E+00  0.54029940225E+01  0.54029940225E+01  0.00000000000E+00 0.  1.
         22   -1    0    0    0    0 -0.00000000000E+00 -0.00000000000E+00 -0.95634250049E+00  0.95634250049E+00  0.00000000000E+00 0. -1.
          4    1    1    2  501    0 -0.42308909405E+00 -0.15464224404E+01  0.36107464747E+01  0.41497972059E+01  0.12700000000E+01 0.  1.
         -4    1    1    2    0  501  0.42308909405E+00  0.15464224404E+01  0.83590504727E+00  0.22095393171E+01  0.12700000000E+01 0. -1.
<mgrwt>
<rscale>  0 0.20453183E+01</rscale>
<asrwt>0</asrwt>
<pdfrwt beam="1">0</pdfrwt>
<pdfrwt beam="2">0</pdfrwt>
<totfact> 0.34913747E+12</totfact>
</mgrwt>
</event>
<event>
 4    1  0.1699693E+006  0.2418799E+01  0.7546771E-02  0.2745448E+00
         22   -1    0    0    0    0  0.00000000000E+00  0.00000000000E+00  0.68590769959E+00  0.68590769959E+00  0.00000000000E+00 0. -1.
         22   -1    0    0    0    0 -0.00000000000E+00 -0.00000000000E+00 -0.29888586816E+02  0.29888586816E+02  0.00000000000E+00 0. -1.
          4    1    1    2  501    0  0.11468646711E+01  0.17095006167E+01 -0.16782650941E+01  0.29440048673E+01  0.12700000000E+01 0. -1.
         -4    1    1    2    0  501 -0.11468646711E+01 -0.17095006167E+01 -0.27524414022E+02  0.27630489648E+02  0.12700000000E+01 0. -1.
<mgrwt>
<rscale>  0 0.24187995E+01</rscale>
<asrwt>0</asrwt>
<pdfrwt beam="1">0</pdfrwt>
<pdfrwt beam="2">0</pdfrwt>
<totfact> 0.62715600E+11</totfact>
</mgrwt>
</event>
<event>
 4    1  0.1699693E+006  0.2764613E+01  0.7546771E-02  0.2602241E+00
         22   -1    0    0    0    0  0.00000000000E+00  0.00000000000E+00  0.13929295993E+02  0.13929295993E+02  0.00000000000E+00 0. -1.
         22   -1    0    0    0    0 -0.00000000000E+00 -0.00000000000E+00 -0.68400795729E+00  0.68400795729E+00  0.00000000000E+00 0.  1.
          4    1    1    2  501    0  0.89180755109E+00 -0.22879826564E+01  0.98723212189E+01  0.10252112543E+02  0.12700000000E+01 0. -1.
         -4    1    1    2    0  501 -0.89180755109E+00  0.22879826564E+01  0.33729668168E+01  0.43611914073E+01  0.12700000000E+01 0.  1.
<mgrwt>
<rscale>  0 0.27646131E+01</rscale>
<asrwt>0</asrwt>
<pdfrwt beam="1">0</pdfrwt>
<pdfrwt beam="2">0</pdfrwt>
<totfact> 0.16325783E+12</totfact>
</mgrwt>
</event>
<event>
 4    1  0.1699693E+006  0.2344477E+01  0.7546771E-02  0.2781337E+00
         22   -1    0    0    0    0  0.00000000000E+00  0.00000000000E+00  0.26297352428E+02  0.26297352428E+02  0.00000000000E+00 0. -1.
         22   -1    0    0    0    0 -0.00000000000E+00 -0.00000000000E+00 -0.21084990643E+00  0.21084990643E+00  0.00000000000E+00 0. -1.
          4    1    1    2  501    0 -0.14215523940E+01  0.13648662253E+01  0.11807201597E+02  0.12037714923E+02  0.12700000000E+01 0. -1.
         -4    1    1    2    0  501  0.14215523940E+01 -0.13648662253E+01  0.14279300925E+02  0.14470487411E+02  0.12700000000E+01 0. -1.
<mgrwt>
<rscale>  0 0.23444767E+01</rscale>
<asrwt>0</asrwt>
<pdfrwt beam="1">0</pdfrwt>
<pdfrwt beam="2">0</pdfrwt>
<totfact> 0.27816340E+12</totfact>
</mgrwt>
</event>
<event>
 4    1  0.1699693E+006  0.2080184E+01  0.7546771E-02  0.2928626E+00
         22   -1    0    0    0    0  0.00000000000E+00  0.00000000000E+00  0.11466595272E+02  0.11466595272E+02  0.00000000000E+00 0.  1.
         22   -1    0    0    0    0 -0.00000000000E+00 -0.00000000000E+00 -0.28593806457E+01  0.28593806457E+01  0.00000000000E+00 0. -1.
          4    1    1    2  501    0 -0.12284047631E+00  0.16429170364E+01  0.10977203493E+02  0.11172562942E+02  0.12700000000E+01 0.  1.
         -4    1    1    2    0  501  0.12284047631E+00 -0.16429170364E+01 -0.23699888662E+01  0.31534129760E+01  0.12700000000E+01 0. -1.
<mgrwt>
<rscale>  0 0.20801842E+01</rscale>
<asrwt>0</asrwt>
<pdfrwt beam="1">0</pdfrwt>
<pdfrwt beam="2">0</pdfrwt>
<totfact> 0.39986747E+11</totfact>
</mgrwt>
</event>
<event>
 4    1  0.1699693E+006  0.2014622E+01  0.7546771E-02  0.2970926E+00
         22   -1    0    0    0    0  0.00000000000E+00  0.00000000000E+00  0.12498562639E+00  0.12498562639E+00  0.00000000000E+00 0.  1.
         22   -1    0    0    0    0 -0.00000000000E+00 -0.00000000000E+00 -0.35456656722E+02  0.35456656722E+02  0.00000000000E+00 0.  1.
          4    1    1    2  501    0 -0.15527446047E+01 -0.18650552387E+00 -0.12505271803E+02  0.12666511871E+02  0.12700000000E+01 0.  1.
         -4    1    1    2    0  501  0.15527446047E+01  0.18650552387E+00 -0.22826399292E+02  0.22915130477E+02  0.12700000000E+01 0.  1.
<mgrwt>
<rscale>  0 0.20146216E+01</rscale>
<asrwt>0</asrwt>
<pdfrwt beam="1">0</pdfrwt>
<pdfrwt beam="2">0</pdfrwt>
<totfact> 0.33994936E+12</totfact>
</mgrwt>
</event>
<event>
 4    1  0.1699693E+006  0.2006877E+01  0.7546771E-02  0.2976101E+00
         22   -1    0    0    0    0  0.00000000000E+00  0.00000000000E+00  0.63481157541E-01  0.63481157541E-01  0.00000000000E+00 0. -1.
         22   -1    0    0    0    0 -0.00000000000E+00 -0.00000000000E+00 -0.73032894136E+02  0.73032894136E+02  0.00000000000E+00 0. -1.
          4    1    1    2  501    0  0.45555606108E+00  0.14856392137E+01 -0.23242186213E+02  0.23328668525E+02  0.12700000000E+01 0. -1.
         -4    1    1    2    0  501 -0.45555606108E+00 -0.14856392137E+01 -0.49727226765E+02  0.49767706768E+02  0.12700000000E+01 0. -1.
<mgrwt>
<rscale>  0 0.20068770E+01</rscale>
<asrwt>0</asrwt>
<pdfrwt beam="1">0</pdfrwt>
<pdfrwt beam="2">0</pdfrwt>
<totfact> 0.27658473E+12</totfact>
</mgrwt>
</event>
<event>
 4    1  0.1699693E+006  0.2900872E+01  0.7546771E-02  0.2554465E+00
         22   -1    0    0    0    0  0.00000000000E+00  0.00000000000E+00  0.46414255115E+02  0.46414255115E+02  0.00000000000E+00 0. -1.
         22   -1    0    0    0    0 -0.00000000000E+00 -0.00000000000E+00 -0.23078539475E+00  0.23078539475E+00  0.00000000000E+00 0.  1.
          4    1    1    2  501    0 -0.62852700319E+00  0.25312272299E+01  0.12292440735E+02  0.12630089339E+02  0.12700000000E+01 0.  1.
         -4    1    1    2    0  501  0.62852700319E+00 -0.25312272299E+01  0.33891028985E+02  0.34014951171E+02  0.12700000000E+01 0. -1.
<mgrwt>
<rscale>  0 0.29008718E+01</rscale>
<asrwt>0</asrwt>
<pdfrwt beam="1">0</pdfrwt>
<pdfrwt beam="2">0</pdfrwt>
<totfact> 0.12104684E+12</totfact>
</mgrwt>
</event>
<event>
 4    1  0.1699693E+006  0.3538285E+01  0.7546771E-02  0.2375320E+00
         22   -1    0    0    0    0  0.00000000000E+00  0.00000000000E+00  0.47517974789E+01  0.47517974789E+01  0.00000000000E+00 0. -1.
         22   -1    0    0    0    0 -0.00000000000E+00 -0.00000000000E+00 -0.30026681435E+01  0.30026681435E+01  0.00000000000E+00 0.  1.
          4    1    1    2  501    0 -0.21524290214E+01  0.25047180716E+01  0.22318946143E+01  0.41833977674E+01  0.12700000000E+01 0. -1.
         -4    1    1    2    0  501  0.21524290214E+01 -0.25047180716E+01 -0.48276527897E+00  0.35710678550E+01  0.12700000000E+01 0.  1.
<mgrwt>
<rscale>  0 0.35382854E+01</rscale>
<asrwt>0</asrwt>
<pdfrwt beam="1">0</pdfrwt>
<pdfrwt beam="2">0</pdfrwt>
<totfact> 0.10858486E+12</totfact>
</mgrwt>
</event>
<event>
 4    1  0.1699693E+006  0.5292019E+01  0.7546771E-02  0.2089680E+00
         22   -1    0    0    0    0  0.00000000000E+00  0.00000000000E+00  0.37482350625E+02  0.37482350625E+02  0.00000000000E+00 0. -1.
         22   -1    0    0    0    0 -0.00000000000E+00 -0.00000000000E+00 -0.13652971108E+01  0.13652971108E+01  0.00000000000E+00 0.  1.
          4    1    1    2  501    0 -0.32679060484E+01  0.39640069759E+01  0.31128122848E+02  0.31574760384E+02  0.12700000000E+01 0. -1.
         -4    1    1    2    0  501  0.32679060484E+01 -0.39640069759E+01  0.49889306665E+01  0.72728873524E+01  0.12700000000E+01 0.  1.
<mgrwt>
<rscale>  0 0.52920186E+01</rscale>
<asrwt>0</asrwt>
<pdfrwt beam="1">0</pdfrwt>
<pdfrwt beam="2">0</pdfrwt>
<totfact> 0.21380286E+11</totfact>
</mgrwt>
</event>
<event>
 4    1  0.1699693E+006  0.3634489E+01  0.7546771E-02  0.2353129E+00
         22   -1    0    0    0    0  0.00000000000E+00  0.00000000000E+00  0.34748587649E+02  0.34748587649E+02  0.00000000000E+00 0. -1.
         22   -1    0    0    0    0 -0.00000000000E+00 -0.00000000000E+00 -0.62615545183E+00  0.62615545183E+00  0.00000000000E+00 0.  1.
          4    1    1    2  501    0 -0.29069171304E+01  0.17738220731E+01  0.28147825288E+02  0.28381500671E+02  0.12700000000E+01 0. -1.
         -4    1    1    2    0  501  0.29069171304E+01 -0.17738220731E+01  0.59746069093E+01  0.69932424290E+01  0.12700000000E+01 0.  1.
<mgrwt>
<rscale>  0 0.36344892E+01</rscale>
<asrwt>0</asrwt>
<pdfrwt beam="1">0</pdfrwt>
<pdfrwt beam="2">0</pdfrwt>
<totfact> 0.57349605E+11</totfact>
</mgrwt>
</event>
<event>
 4    1  0.1699693E+006  0.3588726E+01  0.7546771E-02  0.2363556E+00
         22   -1    0    0    0    0  0.00000000000E+00  0.00000000000E+00  0.86936648456E+00  0.86936648456E+00  0.00000000000E+00 0. -1.
         22   -1    0    0    0    0 -0.00000000000E+00 -0.00000000000E+00 -0.20122980335E+02  0.20122980335E+02  0.00000000000E+00 0. -1.
          4    1    1    2  501    0 -0.18537007117E+01  0.27981869796E+01 -0.42356397257E+01  0.55515403797E+01  0.12700000000E+01 0. -1.
         -4    1    1    2    0  501  0.18537007117E+01 -0.27981869796E+01 -0.15017974125E+02  0.15440806440E+02  0.12700000000E+01 0. -1.
<mgrwt>
<rscale>  0 0.35887263E+01</rscale>
<asrwt>0</asrwt>
<pdfrwt beam="1">0</pdfrwt>
<pdfrwt beam="2">0</pdfrwt>
<totfact> 0.78866503E+11</totfact>
</mgrwt>
</event>
<event>
 4    1  0.1699693E+006  0.2427527E+01  0.7546771E-02  0.2741370E+00
         22   -1    0    0    0    0  0.00000000000E+00  0.00000000000E+00  0.14696278490E+02  0.14696278490E+02  0.00000000000E+00 0.  1.
         22   -1    0    0    0    0 -0.00000000000E+00 -0.00000000000E+00 -0.82601879927E+00  0.82601879927E+00  0.00000000000E+00 0. -1.
          4    1    1    2  501    0  0.81064219996E+00 -0.19033774503E+01  0.12502450953E+02  0.12735939947E+02  0.12700000000E+01 0.  1.
         -4    1    1    2    0  501 -0.81064219996E+00  0.19033774503E+01  0.13678087369E+01  0.27863573417E+01  0.12700000000E+01 0. -1.
<mgrwt>
<rscale>  0 0.24275268E+01</rscale>
<asrwt>0</asrwt>
<pdfrwt beam="1">0</pdfrwt>
<pdfrwt beam="2">0</pdfrwt>
<totfact> 0.12335839E+12</totfact>
</mgrwt>
</event>
<event>
 4    1  0.1699693E+006  0.2508075E+01  0.7546771E-02  0.2704981E+00
         22   -1    0    0    0    0  0.00000000000E+00  0.00000000000E+00  0.29990495792E+00  0.29990495792E+00  0.00000000000E+00 0. -1.
         22   -1    0    0    0    0 -0.00000000000E+00 -0.00000000000E+00 -0.23858653192E+02  0.23858653192E+02  0.00000000000E+00 0.  1.
          4    1    1    2  501    0  0.13792067365E+01 -0.16659320364E+01 -0.75797920937E+01  0.79839644886E+01  0.12700000000E+01 0. -1.
         -4    1    1    2    0  501 -0.13792067365E+01  0.16659320364E+01 -0.15978956141E+02  0.16174593662E+02  0.12700000000E+01 0.  1.
<mgrwt>
<rscale>  0 0.25080751E+01</rscale>
<asrwt>0</asrwt>
<pdfrwt beam="1">0</pdfrwt>
<pdfrwt beam="2">0</pdfrwt>
<totfact> 0.21205676E+12</totfact>
</mgrwt>
</event>
<event>
 4    1  0.1699693E+006  0.2798231E+01  0.7546771E-02  0.2590062E+00
         22   -1    0    0    0    0  0.00000000000E+00  0.00000000000E+00  0.25911037889E+00  0.25911037889E+00  0.00000000000E+00 0. -1.
         22   -1    0    0    0    0 -0.00000000000E+00 -0.00000000000E+00 -0.52410678386E+02  0.52410678386E+02  0.00000000000E+00 0.  1.
          4    1    1    2  501    0 -0.19978611336E+01  0.14918934049E+01 -0.89395528701E+01  0.93672675075E+01  0.12700000000E+01 0. -1.
         -4    1    1    2    0  501  0.19978611336E+01 -0.14918934049E+01 -0.43212015137E+02  0.43302521257E+02  0.12700000000E+01 0.  1.
<mgrwt>
<rscale>  0 0.27982307E+01</rscale>
<asrwt>0</asrwt>
<pdfrwt beam="1">0</pdfrwt>
<pdfrwt beam="2">0</pdfrwt>
<totfact> 0.90615211E+11</totfact>
</mgrwt>
</event>
<event>
 4    1  0.1699693E+006  0.2046235E+01  0.7546771E-02  0.2950199E+00
         22   -1    0    0    0    0  0.00000000000E+00  0.00000000000E+00  0.10592593659E+01  0.10592593659E+01  0.00000000000E+00 0.  1.
         22   -1    0    0    0    0 -0.00000000000E+00 -0.00000000000E+00 -0.43479586730E+01  0.43479586730E+01  0.00000000000E+00 0.  1.
          4    1    1    2  501    0  0.13812835810E+01 -0.81623023499E+00 -0.82932936880E+00  0.22079092666E+01  0.12700000000E+01 0.  1.
         -4    1    1    2    0  501 -0.13812835810E+01  0.81623023499E+00 -0.24593699382E+01  0.31993087723E+01  0.12700000000E+01 0.  1.
<mgrwt>
<rscale>  0 0.20462346E+01</rscale>
<asrwt>0</asrwt>
<pdfrwt beam="1">0</pdfrwt>
<pdfrwt beam="2">0</pdfrwt>
<totfact> 0.40171116E+12</totfact>
</mgrwt>
</event>
<event>
 4    1  0.1699693E+006  0.3669490E+01  0.7546771E-02  0.2345306E+00
         22   -1    0    0    0    0  0.00000000000E+00  0.00000000000E+00  0.40337403407E+01  0.40337403407E+01  0.00000000000E+00 0.  1.
         22   -1    0    0    0    0 -0.00000000000E+00 -0.00000000000E+00 -0.90302666016E+01  0.90302666016E+01  0.00000000000E+00 0.  1.
          4    1    1    2  501    0 -0.30657569693E+01  0.15663312593E+01  0.26877508753E+01  0.45485342888E+01  0.12700000000E+01 0.  1.
         -4    1    1    2    0  501  0.30657569693E+01 -0.15663312593E+01 -0.76842771361E+01  0.85154726536E+01  0.12700000000E+01 0.  1.
<mgrwt>
<rscale>  0 0.36694903E+01</rscale>
<asrwt>0</asrwt>
<pdfrwt beam="1">0</pdfrwt>
<pdfrwt beam="2">0</pdfrwt>
<totfact> 0.35690076E+11</totfact>
</mgrwt>
</event>
<event>
 4    1  0.1699693E+006  0.2123683E+01  0.7546771E-02  0.2901965E+00
         22   -1    0    0    0    0  0.00000000000E+00  0.00000000000E+00  0.49818911321E+00  0.49818911321E+00  0.00000000000E+00 0. -1.
         22   -1    0    0    0    0 -0.00000000000E+00 -0.00000000000E+00 -0.10109749006E+02  0.10109749006E+02  0.00000000000E+00 0.  1.
          4    1    1    2  501    0  0.16082798045E+01 -0.55728219126E+00 -0.30908390146E+01  0.37501084230E+01  0.12700000000E+01 0.  1.
         -4    1    1    2    0  501 -0.16082798045E+01  0.55728219126E+00 -0.65207208782E+01  0.68578296962E+01  0.12700000000E+01 0.  1.
<mgrwt>
<rscale>  0 0.21236825E+01</rscale>
<asrwt>0</asrwt>
<pdfrwt beam="1">0</pdfrwt>
<pdfrwt beam="2">0</pdfrwt>
<totfact> 0.34540001E+12</totfact>
</mgrwt>
</event>
<event>
 4    1  0.1699693E+006  0.2316114E+01  0.7546771E-02  0.2795604E+00
         22   -1    0    0    0    0  0.00000000000E+00  0.00000000000E+00  0.15734620843E+00  0.15734620843E+00  0.00000000000E+00 0. -1.
         22   -1    0    0    0    0 -0.00000000000E+00 -0.00000000000E+00 -0.44814548772E+02  0.44814548772E+02  0.00000000000E+00 0.  1.
          4    1    1    2  501    0  0.15464535199E+01 -0.11661759541E+01 -0.33327088213E+02  0.33407472122E+02  0.12700000000E+01 0.  1.
         -4    1    1    2    0  501 -0.15464535199E+01  0.11661759541E+01 -0.11330114351E+02  0.11564422859E+02  0.12700000000E+01 0. -1.
<mgrwt>
<rscale>  0 0.23161142E+01</rscale>
<asrwt>0</asrwt>
<pdfrwt beam="1">0</pdfrwt>
<pdfrwt beam="2">0</pdfrwt>
<totfact> 0.19424770E+12</totfact>
</mgrwt>
</event>
<event>
 4    1  0.1699693E+006  0.2978190E+01  0.7546771E-02  0.2529117E+00
         22   -1    0    0    0    0  0.00000000000E+00  0.00000000000E+00  0.10027919495E+02  0.10027919495E+02  0.00000000000E+00 0.  1.
         22   -1    0    0    0    0 -0.00000000000E+00 -0.00000000000E+00 -0.10675896528E+01  0.10675896528E+01  0.00000000000E+00 0. -1.
          4    1    1    2  501    0 -0.26500696738E+01  0.48357416899E+00  0.67776706683E+01  0.74031366961E+01  0.12700000000E+01 0.  1.
         -4    1    1    2    0  501  0.26500696738E+01 -0.48357416899E+00  0.21826591742E+01  0.36923724520E+01  0.12700000000E+01 0. -1.
<mgrwt>
<rscale>  0 0.29781896E+01</rscale>
<asrwt>0</asrwt>
<pdfrwt beam="1">0</pdfrwt>
<pdfrwt beam="2">0</pdfrwt>
<totfact> 0.14675980E+12</totfact>
</mgrwt>
</event>
<event>
 4    1  0.1699693E+006  0.2148717E+01  0.7546771E-02  0.2887095E+00
         22   -1    0    0    0    0  0.00000000000E+00  0.00000000000E+00  0.40419480445E+01  0.40419480445E+01  0.00000000000E+00 0. -1.
         22   -1    0    0    0    0 -0.00000000000E+00 -0.00000000000E+00 -0.14022509542E+01  0.14022509542E+01  0.00000000000E+00 0.  1.
          4    1    1    2  501    0 -0.84846219512E+00 -0.15113565363E+01  0.24919462499E+01  0.32904076934E+01  0.12700000000E+01 0.  1.
         -4    1    1    2    0  501  0.84846219512E+00  0.15113565363E+01  0.14775084045E+00  0.21537913054E+01  0.12700000000E+01 0. -1.
<mgrwt>
<rscale>  0 0.21487174E+01</rscale>
<asrwt>0</asrwt>
<pdfrwt beam="1">0</pdfrwt>
<pdfrwt beam="2">0</pdfrwt>
<totfact> 0.31743145E+12</totfact>
</mgrwt>
</event>
<event>
 4    1  0.1699693E+006  0.6696168E+01  0.7546771E-02  0.1962358E+00
         22   -1    0    0    0    0  0.00000000000E+00  0.00000000000E+00  0.10927296989E+02  0.10927296989E+02  0.00000000000E+00 0.  1.
         22   -1    0    0    0    0 -0.00000000000E+00 -0.00000000000E+00 -0.82174151754E+01  0.82174151754E+01  0.00000000000E+00 0. -1.
          4    1    1    2  501    0 -0.61524774607E+01 -0.23179271450E+01  0.81280197814E+01  0.10531066932E+02  0.12700000000E+01 0.  1.
         -4    1    1    2    0  501  0.61524774607E+01  0.23179271450E+01 -0.54181379680E+01  0.86136452326E+01  0.12700000000E+01 0. -1.
<mgrwt>
<rscale>  0 0.66961679E+01</rscale>
<asrwt>0</asrwt>
<pdfrwt beam="1">0</pdfrwt>
<pdfrwt beam="2">0</pdfrwt>
<totfact> 0.12156340E+11</totfact>
</mgrwt>
</event>
<event>
 4    1  0.1699693E+006  0.2794754E+01  0.7546771E-02  0.2591309E+00
         22   -1    0    0    0    0  0.00000000000E+00  0.00000000000E+00  0.26787632565E+01  0.26787632565E+01  0.00000000000E+00 0. -1.
         22   -1    0    0    0    0 -0.00000000000E+00 -0.00000000000E+00 -0.30963511974E+01  0.30963511974E+01  0.00000000000E+00 0.  1.
          4    1    1    2  501    0 -0.12317103970E+01  0.21634788231E+01  0.48854612889E+00  0.28371338425E+01  0.12700000000E+01 0.  1.
         -4    1    1    2    0  501  0.12317103970E+01 -0.21634788231E+01 -0.90613406973E+00  0.29379806114E+01  0.12700000000E+01 0. -1.
<mgrwt>
<rscale>  0 0.27947542E+01</rscale>
<asrwt>0</asrwt>
<pdfrwt beam="1">0</pdfrwt>
<pdfrwt beam="2">0</pdfrwt>
<totfact> 0.20523622E+12</totfact>
</mgrwt>
</event>
<event>
 4    1  0.1699693E+006  0.2103104E+01  0.7546771E-02  0.2914445E+00
         22   -1    0    0    0    0  0.00000000000E+00  0.00000000000E+00  0.28128711871E+00  0.28128711871E+00  0.00000000000E+00 0.  1.
         22   -1    0    0    0    0 -0.00000000000E+00 -0.00000000000E+00 -0.19051705475E+02  0.19051705475E+02  0.00000000000E+00 0.  1.
          4    1    1    2  501    0 -0.13127441029E+01  0.10425203459E+01 -0.53454600677E+01  0.57443005742E+01  0.12700000000E+01 0.  1.
         -4    1    1    2    0  501  0.13127441029E+01 -0.10425203459E+01 -0.13424958289E+02  0.13588692019E+02  0.12700000000E+01 0.  1.
<mgrwt>
<rscale>  0 0.21031038E+01</rscale>
<asrwt>0</asrwt>
<pdfrwt beam="1">0</pdfrwt>
<pdfrwt beam="2">0</pdfrwt>
<totfact> 0.30189481E+12</totfact>
</mgrwt>
</event>
<event>
 4    1  0.1699693E+006  0.2243853E+01  0.7546771E-02  0.2833500E+00
         22   -1    0    0    0    0  0.00000000000E+00  0.00000000000E+00  0.20797653729E+01  0.20797653729E+01  0.00000000000E+00 0. -1.
         22   -1    0    0    0    0 -0.00000000000E+00 -0.00000000000E+00 -0.24925886131E+01  0.24925886131E+01  0.00000000000E+00 0.  1.
          4    1    1    2  501    0  0.14518641235E+01  0.11463274360E+01  0.18133709281E+00  0.22511683999E+01  0.12700000000E+01 0. -1.
         -4    1    1    2    0  501 -0.14518641235E+01 -0.11463274360E+01 -0.59416033299E+00  0.23211855860E+01  0.12700000000E+01 0.  1.
<mgrwt>
<rscale>  0 0.22438529E+01</rscale>
<asrwt>0</asrwt>
<pdfrwt beam="1">0</pdfrwt>
<pdfrwt beam="2">0</pdfrwt>
<totfact> 0.35462591E+12</totfact>
</mgrwt>
</event>
<event>
 4    1  0.1699693E+006  0.2282942E+01  0.7546771E-02  0.2812717E+00
         22   -1    0    0    0    0  0.00000000000E+00  0.00000000000E+00  0.68125151463E+02  0.68125151463E+02  0.00000000000E+00 0. -1.
         22   -1    0    0    0    0 -0.00000000000E+00 -0.00000000000E+00 -0.33731637329E+00  0.33731637329E+00  0.00000000000E+00 0.  1.
          4    1    1    2  501    0  0.61116233925E+00 -0.17959415894E+01  0.63994035338E+02  0.64034743573E+02  0.12700000000E+01 0. -1.
         -4    1    1    2    0  501 -0.61116233925E+00  0.17959415894E+01  0.37937997518E+01  0.44277242636E+01  0.12700000000E+01 0.  1.
<mgrwt>
<rscale>  0 0.22829423E+01</rscale>
<asrwt>0</asrwt>
<pdfrwt beam="1">0</pdfrwt>
<pdfrwt beam="2">0</pdfrwt>
<totfact> 0.47463629E+11</totfact>
</mgrwt>
</event>
<event>
 4    1  0.1699693E+006  0.2141336E+01  0.7546771E-02  0.2891444E+00
         22   -1    0    0    0    0  0.00000000000E+00  0.00000000000E+00  0.57014771995E+00  0.57014771995E+00  0.00000000000E+00 0. -1.
         22   -1    0    0    0    0 -0.00000000000E+00 -0.00000000000E+00 -0.22348162952E+02  0.22348162952E+02  0.00000000000E+00 0. -1.
          4    1    1    2  501    0  0.14803373156E+01  0.88375474163E+00 -0.17207219574E+01  0.27470356870E+01  0.12700000000E+01 0. -1.
         -4    1    1    2    0  501 -0.14803373156E+01 -0.88375474163E+00 -0.20057293275E+02  0.20171274985E+02  0.12700000000E+01 0. -1.
<mgrwt>
<rscale>  0 0.21413363E+01</rscale>
<asrwt>0</asrwt>
<pdfrwt beam="1">0</pdfrwt>
<pdfrwt beam="2">0</pdfrwt>
<totfact> 0.11165682E+12</totfact>
</mgrwt>
</event>
<event>
 4    1  0.1699693E+006  0.3181074E+01  0.7546771E-02  0.2467881E+00
         22   -1    0    0    0    0  0.00000000000E+00  0.00000000000E+00  0.42736569305E+02  0.42736569305E+02  0.00000000000E+00 0. -1.
         22   -1    0    0    0    0 -0.00000000000E+00 -0.00000000000E+00 -0.27753196367E+00  0.27753196367E+00  0.00000000000E+00 0.  1.
          4    1    1    2  501    0  0.17111901015E+01 -0.23618132105E+01  0.29470712041E+02  0.29641897736E+02  0.12700000000E+01 0. -1.
         -4    1    1    2    0  501 -0.17111901015E+01  0.23618132105E+01  0.12988325301E+02  0.13372203533E+02  0.12700000000E+01 0.  1.
<mgrwt>
<rscale>  0 0.31810742E+01</rscale>
<asrwt>0</asrwt>
<pdfrwt beam="1">0</pdfrwt>
<pdfrwt beam="2">0</pdfrwt>
<totfact> 0.10970252E+12</totfact>
</mgrwt>
</event>
<event>
 4    1  0.1699693E+006  0.4083406E+01  0.7546771E-02  0.2261629E+00
         22   -1    0    0    0    0  0.00000000000E+00  0.00000000000E+00  0.96937751608E+01  0.96937751608E+01  0.00000000000E+00 0. -1.
         22   -1    0    0    0    0 -0.00000000000E+00 -0.00000000000E+00 -0.22643898919E+01  0.22643898919E+01  0.00000000000E+00 0.  1.
          4    1    1    2  501    0 -0.36616974156E+01 -0.12857995611E+01  0.66461009017E+01  0.78003118957E+01  0.12700000000E+01 0. -1.
         -4    1    1    2    0  501  0.36616974156E+01  0.12857995611E+01  0.78328436726E+00  0.41578531570E+01  0.12700000000E+01 0.  1.
<mgrwt>
<rscale>  0 0.40834065E+01</rscale>
<asrwt>0</asrwt>
<pdfrwt beam="1">0</pdfrwt>
<pdfrwt beam="2">0</pdfrwt>
<totfact> 0.64323324E+11</totfact>
</mgrwt>
</event>
<event>
 4    1  0.1699693E+006  0.2448190E+01  0.7546771E-02  0.2731821E+00
         22   -1    0    0    0    0  0.00000000000E+00  0.00000000000E+00  0.39482181961E+00  0.39482181961E+00  0.00000000000E+00 0. -1.
         22   -1    0    0    0    0 -0.00000000000E+00 -0.00000000000E+00 -0.16916276251E+02  0.16916276251E+02  0.00000000000E+00 0. -1.
          4    1    1    2  501    0  0.15896349885E+00 -0.20869753446E+01 -0.11033252593E+02  0.11301606004E+02  0.12700000000E+01 0. -1.
         -4    1    1    2    0  501 -0.15896349885E+00  0.20869753446E+01 -0.54882018381E+01  0.60094920666E+01  0.12700000000E+01 0. -1.
<mgrwt>
<rscale>  0 0.24481902E+01</rscale>
<asrwt>0</asrwt>
<pdfrwt beam="1">0</pdfrwt>
<pdfrwt beam="2">0</pdfrwt>
<totfact> 0.23910946E+12</totfact>
</mgrwt>
</event>
<event>
 4    1  0.1699693E+006  0.2397388E+01  0.7546771E-02  0.2755573E+00
         22   -1    0    0    0    0  0.00000000000E+00  0.00000000000E+00  0.18135882072E+01  0.18135882072E+01  0.00000000000E+00 0.  1.
         22   -1    0    0    0    0 -0.00000000000E+00 -0.00000000000E+00 -0.14735697332E+02  0.14735697332E+02  0.00000000000E+00 0. -1.
          4    1    1    2  501    0  0.39559189609E+00 -0.19945119178E+01  0.86999950000E+00  0.25503666145E+01  0.12700000000E+01 0.  1.
         -4    1    1    2    0  501 -0.39559189609E+00  0.19945119178E+01 -0.13792108625E+02  0.13998918925E+02  0.12700000000E+01 0. -1.
<mgrwt>
<rscale>  0 0.23973883E+01</rscale>
<asrwt>0</asrwt>
<pdfrwt beam="1">0</pdfrwt>
<pdfrwt beam="2">0</pdfrwt>
<totfact> 0.49913131E+11</totfact>
</mgrwt>
</event>
<event>
 4    1  0.1699693E+006  0.2959301E+01  0.7546771E-02  0.2535200E+00
         22   -1    0    0    0    0  0.00000000000E+00  0.00000000000E+00  0.20332083277E+00  0.20332083277E+00  0.00000000000E+00 0.  1.
         22   -1    0    0    0    0 -0.00000000000E+00 -0.00000000000E+00 -0.44235128298E+02  0.44235128298E+02  0.00000000000E+00 0.  1.
          4    1    1    2  501    0  0.19158310609E+01 -0.18639075049E+01 -0.18413136787E+02  0.18649425358E+02  0.12700000000E+01 0.  1.
         -4    1    1    2    0  501 -0.19158310609E+01  0.18639075049E+01 -0.25618670677E+02  0.25789023772E+02  0.12700000000E+01 0.  1.
<mgrwt>
<rscale>  0 0.29593006E+01</rscale>
<asrwt>0</asrwt>
<pdfrwt beam="1">0</pdfrwt>
<pdfrwt beam="2">0</pdfrwt>
<totfact> 0.14850484E+12</totfact>
</mgrwt>
</event>
<event>
 4    1  0.1699693E+006  0.2754292E+01  0.7546771E-02  0.2606035E+00
         22   -1    0    0    0    0  0.00000000000E+00  0.00000000000E+00  0.17399139995E+02  0.17399139995E+02  0.00000000000E+00 0.  1.
         22   -1    0    0    0    0 -0.00000000000E+00 -0.00000000000E+00 -0.43601804517E+00  0.43601804517E+00  0.00000000000E+00 0. -1.
          4    1    1    2  501    0 -0.20687232536E+01  0.13013862267E+01  0.85292543720E+01  0.89629404858E+01  0.12700000000E+01 0. -1.
         -4    1    1    2    0  501  0.20687232536E+01 -0.13013862267E+01  0.84338675783E+01  0.88722175548E+01  0.12700000000E+01 0.  1.
<mgrwt>
<rscale>  0 0.27542916E+01</rscale>
<asrwt>0</asrwt>
<pdfrwt beam="1">0</pdfrwt>
<pdfrwt beam="2">0</pdfrwt>
<totfact> 0.20650509E+12</totfact>
</mgrwt>
</event>
<event>
 4    1  0.1699693E+006  0.2296689E+01  0.7546771E-02  0.2805569E+00
         22   -1    0    0    0    0  0.00000000000E+00  0.00000000000E+00  0.13537489093E+00  0.13537489093E+00  0.00000000000E+00 0.  1.
         22   -1    0    0    0    0 -0.00000000000E+00 -0.00000000000E+00 -0.42981965146E+02  0.42981965146E+02  0.00000000000E+00 0. -1.
          4    1    1    2  501    0 -0.13820649365E+01 -0.13235464516E+01 -0.14832021230E+02  0.15008785176E+02  0.12700000000E+01 0.  1.
         -4    1    1    2    0  501  0.13820649365E+01  0.13235464516E+01 -0.28014569026E+02  0.28108554861E+02  0.12700000000E+01 0. -1.
<mgrwt>
<rscale>  0 0.22966886E+01</rscale>
<asrwt>0</asrwt>
<pdfrwt beam="1">0</pdfrwt>
<pdfrwt beam="2">0</pdfrwt>
<totfact> 0.24246087E+12</totfact>
</mgrwt>
</event>
<event>
 4    1  0.1699693E+006  0.2420174E+01  0.7546771E-02  0.2744804E+00
         22   -1    0    0    0    0  0.00000000000E+00  0.00000000000E+00  0.15000644634E+01  0.15000644634E+01  0.00000000000E+00 0.  1.
         22   -1    0    0    0    0 -0.00000000000E+00 -0.00000000000E+00 -0.47029578865E+01  0.47029578865E+01  0.00000000000E+00 0. -1.
          4    1    1    2  501    0  0.20297617931E+01  0.35271386878E+00 -0.32362399963E+00  0.24417150741E+01  0.12700000000E+01 0.  1.
         -4    1    1    2    0  501 -0.20297617931E+01 -0.35271386878E+00 -0.28792694235E+01  0.37613072758E+01  0.12700000000E+01 0. -1.
<mgrwt>
<rscale>  0 0.24201735E+01</rscale>
<asrwt>0</asrwt>
<pdfrwt beam="1">0</pdfrwt>
<pdfrwt beam="2">0</pdfrwt>
<totfact> 0.24570162E+12</totfact>
</mgrwt>
</event>
<event>
 4    1  0.1699693E+006  0.3531183E+01  0.7546771E-02  0.2377000E+00
         22   -1    0    0    0    0  0.00000000000E+00  0.00000000000E+00  0.46486205152E+01  0.46486205152E+01  0.00000000000E+00 0.  1.
         22   -1    0    0    0    0 -0.00000000000E+00 -0.00000000000E+00 -0.34435195974E+01  0.34435195974E+01  0.00000000000E+00 0. -1.
          4    1    1    2  501    0 -0.71523574180E+00 -0.32163320050E+01  0.25048163004E+01  0.43293600487E+01  0.12700000000E+01 0.  1.
         -4    1    1    2    0  501  0.71523574180E+00  0.32163320050E+01 -0.12997153826E+01  0.37627800638E+01  0.12700000000E+01 0. -1.
<mgrwt>
<rscale>  0 0.35311831E+01</rscale>
<asrwt>0</asrwt>
<pdfrwt beam="1">0</pdfrwt>
<pdfrwt beam="2">0</pdfrwt>
<totfact> 0.94933009E+11</totfact>
</mgrwt>
</event>
<event>
 4    1  0.1699693E+006  0.2000784E+01  0.7546771E-02  0.2980200E+00
         22   -1    0    0    0    0  0.00000000000E+00  0.00000000000E+00  0.23570083503E+02  0.23570083503E+02  0.00000000000E+00 0.  1.
         22   -1    0    0    0    0 -0.00000000000E+00 -0.00000000000E+00 -0.18079085850E+00  0.18079085850E+00  0.00000000000E+00 0. -1.
          4    1    1    2  501    0  0.44763692461E+00  0.14798170249E+01  0.14617387004E+02  0.14753682255E+02  0.12700000000E+01 0.  1.
         -4    1    1    2    0  501 -0.44763692461E+00 -0.14798170249E+01  0.87719056407E+01  0.89971921072E+01  0.12700000000E+01 0. -1.
<mgrwt>
<rscale>  0 0.20007842E+01</rscale>
<asrwt>0</asrwt>
<pdfrwt beam="1">0</pdfrwt>
<pdfrwt beam="2">0</pdfrwt>
<totfact> 0.37907219E+12</totfact>
</mgrwt>
</event>
<event>
 4    1  0.1699693E+006  0.2072305E+01  0.7546771E-02  0.2933572E+00
         22   -1    0    0    0    0  0.00000000000E+00  0.00000000000E+00  0.81564903733E+00  0.81564903733E+00  0.00000000000E+00 0. -1.
         22   -1    0    0    0    0 -0.00000000000E+00 -0.00000000000E+00 -0.20114625148E+02  0.20114625148E+02  0.00000000000E+00 0.  1.
          4    1    1    2  501    0  0.15320173750E+01  0.57833326893E+00 -0.65770707704E+00  0.21741723038E+01  0.12700000000E+01 0. -1.
         -4    1    1    2    0  501 -0.15320173750E+01 -0.57833326893E+00 -0.18641269034E+02  0.18756101882E+02  0.12700000000E+01 0.  1.
<mgrwt>
<rscale>  0 0.20723047E+01</rscale>
<asrwt>0</asrwt>
<pdfrwt beam="1">0</pdfrwt>
<pdfrwt beam="2">0</pdfrwt>
<totfact> 0.84841183E+11</totfact>
</mgrwt>
</event>
<event>
 4    1  0.1699693E+006  0.3331206E+01  0.7546771E-02  0.2426855E+00
         22   -1    0    0    0    0  0.00000000000E+00  0.00000000000E+00  0.79606589669E+01  0.79606589669E+01  0.00000000000E+00 0. -1.
         22   -1    0    0    0    0 -0.00000000000E+00 -0.00000000000E+00 -0.52918181302E+01  0.52918181302E+01  0.00000000000E+00 0.  1.
          4    1    1    2  501    0 -0.20542165015E+01  0.22943909062E+01  0.70213383601E+01  0.77714945431E+01  0.12700000000E+01 0. -1.
         -4    1    1    2    0  501  0.20542165015E+01 -0.22943909062E+01 -0.43524975235E+01  0.54809825540E+01  0.12700000000E+01 0.  1.
<mgrwt>
<rscale>  0 0.33312062E+01</rscale>
<asrwt>0</asrwt>
<pdfrwt beam="1">0</pdfrwt>
<pdfrwt beam="2">0</pdfrwt>
<totfact> 0.30142125E+11</totfact>
</mgrwt>
</event>
<event>
 4    1  0.1699693E+006  0.3433034E+01  0.7546771E-02  0.2400834E+00
         22   -1    0    0    0    0  0.00000000000E+00  0.00000000000E+00  0.81795787778E+02  0.81795787778E+02  0.00000000000E+00 0.  1.
         22   -1    0    0    0    0 -0.00000000000E+00 -0.00000000000E+00 -0.17159167516E+00  0.17159167516E+00  0.00000000000E+00 0. -1.
          4    1    1    2  501    0 -0.78877735019E+00  0.30904132612E+01  0.57220445411E+02  0.57323338152E+02  0.12700000000E+01 0. -1.
         -4    1    1    2    0  501  0.78877735019E+00 -0.30904132612E+01  0.24403750692E+02  0.24644041301E+02  0.12700000000E+01 0.  1.
<mgrwt>
<rscale>  0 0.34330342E+01</rscale>
<asrwt>0</asrwt>
<pdfrwt beam="1">0</pdfrwt>
<pdfrwt beam="2">0</pdfrwt>
<totfact> 0.78738000E+11</totfact>
</mgrwt>
</event>
<event>
 4    1  0.1699693E+006  0.3012325E+01  0.7546771E-02  0.2518299E+00
         22   -1    0    0    0    0  0.00000000000E+00  0.00000000000E+00  0.89120442477E+01  0.89120442477E+01  0.00000000000E+00 0. -1.
         22   -1    0    0    0    0 -0.00000000000E+00 -0.00000000000E+00 -0.11685899144E+01  0.11685899144E+01  0.00000000000E+00 0.  1.
          4    1    1    2  501    0  0.71699453820E+00  0.26357392680E+01  0.56799791808E+01  0.64293285926E+01  0.12700000000E+01 0. -1.
         -4    1    1    2    0  501 -0.71699453820E+00 -0.26357392680E+01  0.20634751525E+01  0.36513055695E+01  0.12700000000E+01 0.  1.
<mgrwt>
<rscale>  0 0.30123251E+01</rscale>
<asrwt>0</asrwt>
<pdfrwt beam="1">0</pdfrwt>
<pdfrwt beam="2">0</pdfrwt>
<totfact> 0.15261603E+12</totfact>
</mgrwt>
</event>
<event>
 4    1  0.1699693E+006  0.2186934E+01  0.7546771E-02  0.2865028E+00
         22   -1    0    0    0    0  0.00000000000E+00  0.00000000000E+00  0.49904830930E+01  0.49904830930E+01  0.00000000000E+00 0.  1.
         22   -1    0    0    0    0 -0.00000000000E+00 -0.00000000000E+00 -0.96669787403E+00  0.96669787403E+00  0.00000000000E+00 0.  1.
          4    1    1    2  501    0 -0.74021242436E+00 -0.16192172996E+01  0.17352656239E+01  0.27917424455E+01  0.12700000000E+01 0.  1.
         -4    1    1    2    0  501  0.74021242436E+00  0.16192172996E+01  0.22885195951E+01  0.31654385215E+01  0.12700000000E+01 0.  1.
<mgrwt>
<rscale>  0 0.21869337E+01</rscale>
<asrwt>0</asrwt>
<pdfrwt beam="1">0</pdfrwt>
<pdfrwt beam="2">0</pdfrwt>
<totfact> 0.37892949E+12</totfact>
</mgrwt>
</event>
<event>
 4    1  0.1699693E+006  0.2930601E+01  0.7546771E-02  0.2544576E+00
         22   -1    0    0    0    0  0.00000000000E+00  0.00000000000E+00  0.18503125743E+02  0.18503125743E+02  0.00000000000E+00 0. -1.
         22   -1    0    0    0    0 -0.00000000000E+00 -0.00000000000E+00 -0.60334975563E+00  0.60334975563E+00  0.00000000000E+00 0. -1.
          4    1    1    2  501    0 -0.52525795055E+00  0.25883641176E+01  0.13538364176E+02  0.13851921502E+02  0.12700000000E+01 0. -1.
         -4    1    1    2    0  501  0.52525795055E+00 -0.25883641176E+01  0.43614118106E+01  0.52545539965E+01  0.12700000000E+01 0. -1.
<mgrwt>
<rscale>  0 0.29306014E+01</rscale>
<asrwt>0</asrwt>
<pdfrwt beam="1">0</pdfrwt>
<pdfrwt beam="2">0</pdfrwt>
<totfact> 0.13256549E+12</totfact>
</mgrwt>
</event>
<event>
 4    1  0.1699693E+006  0.4935213E+01  0.7546771E-02  0.2130817E+00
         22   -1    0    0    0    0  0.00000000000E+00  0.00000000000E+00  0.34650836508E+02  0.34650836508E+02  0.00000000000E+00 0.  1.
         22   -1    0    0    0    0 -0.00000000000E+00 -0.00000000000E+00 -0.26606129355E+01  0.26606129355E+01  0.00000000000E+00 0. -1.
          4    1    1    2  501    0  0.44917036675E+01 -0.16025074718E+01  0.31997873985E+02  0.32376230040E+02  0.12700000000E+01 0.  1.
         -4    1    1    2    0  501 -0.44917036675E+01  0.16025074718E+01 -0.76504124113E-02  0.49352194036E+01  0.12700000000E+01 0. -1.
<mgrwt>
<rscale>  0 0.49352135E+01</rscale>
<asrwt>0</asrwt>
<pdfrwt beam="1">0</pdfrwt>
<pdfrwt beam="2">0</pdfrwt>
<totfact> 0.10937241E+11</totfact>
</mgrwt>
</event>
<event>
 4    1  0.1699693E+006  0.3757570E+01  0.7546771E-02  0.2326178E+00
         22   -1    0    0    0    0  0.00000000000E+00  0.00000000000E+00  0.13747991602E+02  0.13747991602E+02  0.00000000000E+00 0.  1.
         22   -1    0    0    0    0 -0.00000000000E+00 -0.00000000000E+00 -0.12304947719E+01  0.12304947719E+01  0.00000000000E+00 0. -1.
          4    1    1    2  501    0 -0.24943036339E+01  0.25069670918E+01  0.93042809664E+01  0.10034389813E+02  0.12700000000E+01 0.  1.
         -4    1    1    2    0  501  0.24943036339E+01 -0.25069670918E+01  0.32132158637E+01  0.49440965609E+01  0.12700000000E+01 0. -1.
<mgrwt>
<rscale>  0 0.37575703E+01</rscale>
<asrwt>0</asrwt>
<pdfrwt beam="1">0</pdfrwt>
<pdfrwt beam="2">0</pdfrwt>
<totfact> 0.84928822E+11</totfact>
</mgrwt>
</event>
<event>
 4    1  0.1699693E+006  0.2430064E+01  0.7546771E-02  0.2740189E+00
         22   -1    0    0    0    0  0.00000000000E+00  0.00000000000E+00  0.36083390806E+01  0.36083390806E+01  0.00000000000E+00 0.  1.
         22   -1    0    0    0    0 -0.00000000000E+00 -0.00000000000E+00 -0.21352576178E+01  0.21352576178E+01  0.00000000000E+00 0. -1.
          4    1    1    2  501    0  0.21394936928E-01 -0.20716785060E+01  0.21244272082E+01  0.32277547209E+01  0.12700000000E+01 0. -1.
         -4    1    1    2    0  501 -0.21394936928E-01  0.20716785060E+01 -0.65134574537E+00  0.25158419775E+01  0.12700000000E+01 0.  1.
<mgrwt>
<rscale>  0 0.24300637E+01</rscale>
<asrwt>0</asrwt>
<pdfrwt beam="1">0</pdfrwt>
<pdfrwt beam="2">0</pdfrwt>
<totfact> 0.22327705E+12</totfact>
</mgrwt>
</event>
<event>
 4    1  0.1699693E+006  0.2376966E+01  0.7546771E-02  0.2765389E+00
         22   -1    0    0    0    0  0.00000000000E+00  0.00000000000E+00  0.10638141321E+02  0.10638141321E+02  0.00000000000E+00 0. -1.
         22   -1    0    0    0    0 -0.00000000000E+00 -0.00000000000E+00 -0.11061016662E+01  0.11061016662E+01  0.00000000000E+00 0. -1.
          4    1    1    2  501    0 -0.11859544462E+01  0.16219060040E+01  0.89998192517E+01  0.93084216491E+01  0.12700000000E+01 0. -1.
         -4    1    1    2    0  501  0.11859544462E+01 -0.16219060040E+01  0.53222040341E+00  0.24358213383E+01  0.12700000000E+01 0. -1.
<mgrwt>
<rscale>  0 0.23769659E+01</rscale>
<asrwt>0</asrwt>
<pdfrwt beam="1">0</pdfrwt>
<pdfrwt beam="2">0</pdfrwt>
<totfact> 0.13118618E+12</totfact>
</mgrwt>
</event>
<event>
 4    1  0.1699693E+006  0.2537761E+01  0.7546771E-02  0.2692113E+00
         22   -1    0    0    0    0  0.00000000000E+00  0.00000000000E+00  0.30403289913E+00  0.30403289913E+00  0.00000000000E+00 0.  1.
         22   -1    0    0    0    0 -0.00000000000E+00 -0.00000000000E+00 -0.21241889392E+02  0.21241889392E+02  0.00000000000E+00 0.  1.
          4    1    1    2  501    0 -0.21446844719E+01 -0.47713932315E+00 -0.11037665972E+02  0.11325648040E+02  0.12700000000E+01 0.  1.
         -4    1    1    2    0  501  0.21446844719E+01  0.47713932315E+00 -0.99001905207E+01  0.10220274251E+02  0.12700000000E+01 0.  1.
<mgrwt>
<rscale>  0 0.25377615E+01</rscale>
<asrwt>0</asrwt>
<pdfrwt beam="1">0</pdfrwt>
<pdfrwt beam="2">0</pdfrwt>
<totfact> 0.24159341E+12</totfact>
</mgrwt>
</event>
<event>
 4    1  0.1699693E+006  0.2104528E+01  0.7546771E-02  0.2913574E+00
         22   -1    0    0    0    0  0.00000000000E+00  0.00000000000E+00  0.75076606613E+01  0.75076606613E+01  0.00000000000E+00 0.  1.
         22   -1    0    0    0    0 -0.00000000000E+00 -0.00000000000E+00 -0.73116659128E+00  0.73116659128E+00  0.00000000000E+00 0. -1.
          4    1    1    2  501    0  0.16508306393E+01 -0.30148848874E+00  0.51987201041E+01  0.56085406150E+01  0.12700000000E+01 0.  1.
         -4    1    1    2    0  501 -0.16508306393E+01  0.30148848874E+00  0.15777739659E+01  0.26302866376E+01  0.12700000000E+01 0. -1.
<mgrwt>
<rscale>  0 0.21045278E+01</rscale>
<asrwt>0</asrwt>
<pdfrwt beam="1">0</pdfrwt>
<pdfrwt beam="2">0</pdfrwt>
<totfact> 0.32014883E+12</totfact>
</mgrwt>
</event>
<event>
 4    1  0.1699693E+006  0.2432056E+01  0.7546771E-02  0.2739264E+00
         22   -1    0    0    0    0  0.00000000000E+00  0.00000000000E+00  0.74302489183E+01  0.74302489183E+01  0.00000000000E+00 0. -1.
         22   -1    0    0    0    0 -0.00000000000E+00 -0.00000000000E+00 -0.80187535723E+00  0.80187535723E+00  0.00000000000E+00 0.  1.
          4    1    1    2  501    0 -0.20047919997E+01 -0.53179392118E+00  0.29635492131E+01  0.38337344295E+01  0.12700000000E+01 0.  1.
         -4    1    1    2    0  501  0.20047919997E+01  0.53179392118E+00  0.36648243479E+01  0.43983898460E+01  0.12700000000E+01 0. -1.
<mgrwt>
<rscale>  0 0.24320559E+01</rscale>
<asrwt>0</asrwt>
<pdfrwt beam="1">0</pdfrwt>
<pdfrwt beam="2">0</pdfrwt>
<totfact> 0.29187560E+12</totfact>
</mgrwt>
</event>
<event>
 4    1  0.1699693E+006  0.2225769E+01  0.7546771E-02  0.2843349E+00
         22   -1    0    0    0    0  0.00000000000E+00  0.00000000000E+00  0.21601000703E+01  0.21601000703E+01  0.00000000000E+00 0.  1.
         22   -1    0    0    0    0 -0.00000000000E+00 -0.00000000000E+00 -0.23369007674E+01  0.23369007674E+01  0.00000000000E+00 0.  1.
          4    1    1    2  501    0  0.19308724511E-01 -0.18277792313E+01 -0.39505180480E+00  0.22605564965E+01  0.12700000000E+01 0.  1.
         -4    1    1    2    0  501 -0.19308724511E-01  0.18277792313E+01  0.21825110764E+00  0.22364443412E+01  0.12700000000E+01 0.  1.
<mgrwt>
<rscale>  0 0.22257695E+01</rscale>
<asrwt>0</asrwt>
<pdfrwt beam="1">0</pdfrwt>
<pdfrwt beam="2">0</pdfrwt>
<totfact> 0.36580468E+12</totfact>
</mgrwt>
</event>
<event>
 4    1  0.1699693E+006  0.2474822E+01  0.7546771E-02  0.2719735E+00
         22   -1    0    0    0    0  0.00000000000E+00  0.00000000000E+00  0.17285750363E+01  0.17285750363E+01  0.00000000000E+00 0. -1.
         22   -1    0    0    0    0 -0.00000000000E+00 -0.00000000000E+00 -0.52238684696E+01  0.52238684696E+01  0.00000000000E+00 0.  1.
          4    1    1    2  501    0  0.21022075678E+01  0.30425255491E+00  0.22408561091E+00  0.24849468075E+01  0.12700000000E+01 0. -1.
         -4    1    1    2    0  501 -0.21022075678E+01 -0.30425255491E+00 -0.37193790443E+01  0.44674966984E+01  0.12700000000E+01 0.  1.
<mgrwt>
<rscale>  0 0.24748225E+01</rscale>
<asrwt>0</asrwt>
<pdfrwt beam="1">0</pdfrwt>
<pdfrwt beam="2">0</pdfrwt>
<totfact> 0.18426952E+12</totfact>
</mgrwt>
</event>
<event>
 4    1  0.1699693E+006  0.2251754E+01  0.7546771E-02  0.2829243E+00
         22   -1    0    0    0    0  0.00000000000E+00  0.00000000000E+00  0.16633407805E+01  0.16633407805E+01  0.00000000000E+00 0. -1.
         22   -1    0    0    0    0 -0.00000000000E+00 -0.00000000000E+00 -0.17114216082E+02  0.17114216082E+02  0.00000000000E+00 0. -1.
          4    1    1    2  501    0 -0.17376685948E+01  0.66181853184E+00  0.78622256054E+00  0.23850664203E+01  0.12700000000E+01 0. -1.
         -4    1    1    2    0  501  0.17376685948E+01 -0.66181853184E+00 -0.16237097862E+02  0.16392490442E+02  0.12700000000E+01 0. -1.
<mgrwt>
<rscale>  0 0.22517540E+01</rscale>
<asrwt>0</asrwt>
<pdfrwt beam="1">0</pdfrwt>
<pdfrwt beam="2">0</pdfrwt>
<totfact> 0.45853570E+11</totfact>
</mgrwt>
</event>
<event>
 4    1  0.1699693E+006  0.2669810E+01  0.7546771E-02  0.2638092E+00
         22   -1    0    0    0    0  0.00000000000E+00  0.00000000000E+00  0.34532999340E+00  0.34532999340E+00  0.00000000000E+00 0.  1.
         22   -1    0    0    0    0 -0.00000000000E+00 -0.00000000000E+00 -0.21942948777E+02  0.21942948777E+02  0.00000000000E+00 0. -1.
          4    1    1    2  501    0  0.36500532890E+00  0.23198611649E+01 -0.80840546120E+01  0.85135083064E+01  0.12700000000E+01 0.  1.
         -4    1    1    2    0  501 -0.36500532890E+00 -0.23198611649E+01 -0.13513564172E+02  0.13774770464E+02  0.12700000000E+01 0. -1.
<mgrwt>
<rscale>  0 0.26698099E+01</rscale>
<asrwt>0</asrwt>
<pdfrwt beam="1">0</pdfrwt>
<pdfrwt beam="2">0</pdfrwt>
<totfact> 0.20107310E+12</totfact>
</mgrwt>
</event>
<event>
 4    1  0.1699693E+006  0.3961766E+01  0.7546771E-02  0.2284663E+00
         22   -1    0    0    0    0  0.00000000000E+00  0.00000000000E+00  0.89170606640E+01  0.89170606640E+01  0.00000000000E+00 0.  1.
         22   -1    0    0    0    0 -0.00000000000E+00 -0.00000000000E+00 -0.43298507934E+01  0.43298507934E+01  0.00000000000E+00 0. -1.
          4    1    1    2  501    0 -0.44025563144E+00  0.37267769908E+01  0.73961552567E+01  0.83903935749E+01  0.12700000000E+01 0.  1.
         -4    1    1    2    0  501  0.44025563144E+00 -0.37267769908E+01 -0.28089453861E+01  0.48565178824E+01  0.12700000000E+01 0. -1.
<mgrwt>
<rscale>  0 0.39617662E+01</rscale>
<asrwt>0</asrwt>
<pdfrwt beam="1">0</pdfrwt>
<pdfrwt beam="2">0</pdfrwt>
<totfact> 0.33335842E+11</totfact>
</mgrwt>
</event>
<event>
 4    1  0.1699693E+006  0.4127218E+01  0.7546771E-02  0.2253617E+00
         22   -1    0    0    0    0  0.00000000000E+00  0.00000000000E+00  0.12902572053E+02  0.12902572053E+02  0.00000000000E+00 0.  1.
         22   -1    0    0    0    0 -0.00000000000E+00 -0.00000000000E+00 -0.13631442444E+01  0.13631442444E+01  0.00000000000E+00 0. -1.
          4    1    1    2  501    0 -0.19373065209E+01 -0.34158266921E+01  0.45036267229E+01  0.61087299994E+01  0.12700000000E+01 0. -1.
         -4    1    1    2    0  501  0.19373065209E+01  0.34158266921E+01  0.70358010857E+01  0.81569862979E+01  0.12700000000E+01 0.  1.
<mgrwt>
<rscale>  0 0.41272180E+01</rscale>
<asrwt>0</asrwt>
<pdfrwt beam="1">0</pdfrwt>
<pdfrwt beam="2">0</pdfrwt>
<totfact> 0.81618911E+11</totfact>
</mgrwt>
</event>
<event>
 4    1  0.1699693E+006  0.2536052E+01  0.7546771E-02  0.2692846E+00
         22   -1    0    0    0    0  0.00000000000E+00  0.00000000000E+00  0.32864919184E+01  0.32864919184E+01  0.00000000000E+00 0.  1.
         22   -1    0    0    0    0 -0.00000000000E+00 -0.00000000000E+00 -0.53975954523E+01  0.53975954523E+01  0.00000000000E+00 0. -1.
          4    1    1    2  501    0  0.18273391860E+01  0.12163441867E+01  0.24111206623E+01  0.34992948617E+01  0.12700000000E+01 0.  1.
         -4    1    1    2    0  501 -0.18273391860E+01 -0.12163441867E+01 -0.45222241962E+01  0.51847925090E+01  0.12700000000E+01 0. -1.
<mgrwt>
<rscale>  0 0.25360524E+01</rscale>
<asrwt>0</asrwt>
<pdfrwt beam="1">0</pdfrwt>
<pdfrwt beam="2">0</pdfrwt>
<totfact> 0.84010662E+11</totfact>
</mgrwt>
</event>
<event>
 4    1  0.1699693E+006  0.2705732E+01  0.7546771E-02  0.2624237E+00
         22   -1    0    0    0    0  0.00000000000E+00  0.00000000000E+00  0.67499397176E+01  0.67499397176E+01  0.00000000000E+00 0. -1.
         22   -1    0    0    0    0 -0.00000000000E+00 -0.00000000000E+00 -0.11387834584E+01  0.11387834584E+01  0.00000000000E+00 0.  1.
          4    1    1    2  501    0  0.17523521054E+01 -0.16239907034E+01  0.36659576172E+01  0.45563394251E+01  0.12700000000E+01 0. -1.
         -4    1    1    2    0  501 -0.17523521054E+01  0.16239907034E+01  0.19451986420E+01  0.33323837508E+01  0.12700000000E+01 0. -1.
<mgrwt>
<rscale>  0 0.27057316E+01</rscale>
<asrwt>0</asrwt>
<pdfrwt beam="1">0</pdfrwt>
<pdfrwt beam="2">0</pdfrwt>
<totfact> 0.21942330E+12</totfact>
</mgrwt>
</event>
<event>
 4    1  0.1699693E+006  0.3365504E+01  0.7546771E-02  0.2417936E+00
         22   -1    0    0    0    0  0.00000000000E+00  0.00000000000E+00  0.10359453661E+01  0.10359453661E+01  0.00000000000E+00 0. -1.
         22   -1    0    0    0    0 -0.00000000000E+00 -0.00000000000E+00 -0.10936210499E+02  0.10936210499E+02  0.00000000000E+00 0.  1.
          4    1    1    2  501    0 -0.28201419850E+01  0.13268454643E+01 -0.50424900048E+01  0.60624520740E+01  0.12700000000E+01 0.  1.
         -4    1    1    2    0  501  0.28201419850E+01 -0.13268454643E+01 -0.48577751283E+01  0.59097037911E+01  0.12700000000E+01 0. -1.
<mgrwt>
<rscale>  0 0.33655044E+01</rscale>
<asrwt>0</asrwt>
<pdfrwt beam="1">0</pdfrwt>
<pdfrwt beam="2">0</pdfrwt>
<totfact> 0.13673180E+12</totfact>
</mgrwt>
</event>
<event>
 4    1  0.1699693E+006  0.2082547E+01  0.7546771E-02  0.2927150E+00
         22   -1    0    0    0    0  0.00000000000E+00  0.00000000000E+00  0.22658025160E+01  0.22658025160E+01  0.00000000000E+00 0. -1.
         22   -1    0    0    0    0 -0.00000000000E+00 -0.00000000000E+00 -0.35477662502E+01  0.35477662502E+01  0.00000000000E+00 0.  1.
          4    1    1    2  501    0  0.10964736672E+01 -0.12336319546E+01  0.13315101085E+01  0.24718255342E+01  0.12700000000E+01 0. -1.
         -4    1    1    2    0  501 -0.10964736672E+01  0.12336319546E+01 -0.26134738427E+01  0.33417432320E+01  0.12700000000E+01 0.  1.
<mgrwt>
<rscale>  0 0.20825471E+01</rscale>
<asrwt>0</asrwt>
<pdfrwt beam="1">0</pdfrwt>
<pdfrwt beam="2">0</pdfrwt>
<totfact> 0.21259475E+12</totfact>
</mgrwt>
</event>
<event>
 4    1  0.1699693E+006  0.2554587E+01  0.7546771E-02  0.2684943E+00
         22   -1    0    0    0    0  0.00000000000E+00  0.00000000000E+00  0.35864777344E+00  0.35864777344E+00  0.00000000000E+00 0.  1.
         22   -1    0    0    0    0 -0.00000000000E+00 -0.00000000000E+00 -0.18727090311E+02  0.18727090311E+02  0.00000000000E+00 0. -1.
          4    1    1    2  501    0 -0.22074281064E+01 -0.20068928447E+00 -0.10791434238E+02  0.11089678442E+02  0.12700000000E+01 0. -1.
         -4    1    1    2    0  501  0.22074281064E+01  0.20068928447E+00 -0.75770083002E+01  0.79960596431E+01  0.12700000000E+01 0.  1.
<mgrwt>
<rscale>  0 0.25545871E+01</rscale>
<asrwt>0</asrwt>
<pdfrwt beam="1">0</pdfrwt>
<pdfrwt beam="2">0</pdfrwt>
<totfact> 0.23483736E+12</totfact>
</mgrwt>
</event>
<event>
 4    1  0.1699693E+006  0.2101032E+01  0.7546771E-02  0.2915714E+00
         22   -1    0    0    0    0  0.00000000000E+00  0.00000000000E+00  0.82255610704E+01  0.82255610704E+01  0.00000000000E+00 0.  1.
         22   -1    0    0    0    0 -0.00000000000E+00 -0.00000000000E+00 -0.44402474682E+01  0.44402474682E+01  0.00000000000E+00 0. -1.
          4    1    1    2  501    0 -0.47817140021E+00  0.16039915805E+01  0.78305344387E+01  0.81075030974E+01  0.12700000000E+01 0.  1.
         -4    1    1    2    0  501  0.47817140021E+00 -0.16039915805E+01 -0.40452208366E+01  0.45583054411E+01  0.12700000000E+01 0. -1.
<mgrwt>
<rscale>  0 0.21010323E+01</rscale>
<asrwt>0</asrwt>
<pdfrwt beam="1">0</pdfrwt>
<pdfrwt beam="2">0</pdfrwt>
<totfact> 0.35660172E+11</totfact>
</mgrwt>
</event>
<event>
 4    1  0.1699693E+006  0.2820350E+01  0.7546771E-02  0.2582192E+00
         22   -1    0    0    0    0  0.00000000000E+00  0.00000000000E+00  0.36955043983E+01  0.36955043983E+01  0.00000000000E+00 0.  1.
         22   -1    0    0    0    0 -0.00000000000E+00 -0.00000000000E+00 -0.26349916910E+01  0.26349916910E+01  0.00000000000E+00 0.  1.
          4    1    1    2  501    0 -0.25103004772E+01  0.19966274490E+00  0.18847823376E+01  0.33921642291E+01  0.12700000000E+01 0.  1.
         -4    1    1    2    0  501  0.25103004772E+01 -0.19966274490E+00 -0.82426963018E+00  0.29383318602E+01  0.12700000000E+01 0.  1.
<mgrwt>
<rscale>  0 0.28203499E+01</rscale>
<asrwt>0</asrwt>
<pdfrwt beam="1">0</pdfrwt>
<pdfrwt beam="2">0</pdfrwt>
<totfact> 0.17005014E+12</totfact>
</mgrwt>
</event>
<event>
 4    1  0.1699693E+006  0.2283308E+01  0.7546771E-02  0.2812526E+00
         22   -1    0    0    0    0  0.00000000000E+00  0.00000000000E+00  0.45031521086E+01  0.45031521086E+01  0.00000000000E+00 0. -1.
         22   -1    0    0    0    0 -0.00000000000E+00 -0.00000000000E+00 -0.12937529249E+01  0.12937529249E+01  0.00000000000E+00 0.  1.
          4    1    1    2  501    0 -0.70136102980E+00 -0.17631472075E+01  0.25444768221E+01  0.34187508929E+01  0.12700000000E+01 0.  1.
         -4    1    1    2    0  501  0.70136102980E+00  0.17631472075E+01  0.66492236173E+00  0.23781541406E+01  0.12700000000E+01 0. -1.
<mgrwt>
<rscale>  0 0.22833080E+01</rscale>
<asrwt>0</asrwt>
<pdfrwt beam="1">0</pdfrwt>
<pdfrwt beam="2">0</pdfrwt>
<totfact> 0.30655184E+12</totfact>
</mgrwt>
</event>
<event>
 4    1  0.1699693E+006  0.2259960E+01  0.7546771E-02  0.2824853E+00
         22   -1    0    0    0    0  0.00000000000E+00  0.00000000000E+00  0.19561963180E+01  0.19561963180E+01  0.00000000000E+00 0.  1.
         22   -1    0    0    0    0 -0.00000000000E+00 -0.00000000000E+00 -0.26507298536E+01  0.26507298536E+01  0.00000000000E+00 0. -1.
          4    1    1    2  501    0 -0.17019102236E+00  0.18615995930E+01 -0.64879894624E-01  0.22608908487E+01  0.12700000000E+01 0.  1.
         -4    1    1    2    0  501  0.17019102236E+00 -0.18615995930E+01 -0.62965364103E+00  0.23460353229E+01  0.12700000000E+01 0. -1.
<mgrwt>
<rscale>  0 0.22599597E+01</rscale>
<asrwt>0</asrwt>
<pdfrwt beam="1">0</pdfrwt>
<pdfrwt beam="2">0</pdfrwt>
<totfact> 0.35438344E+12</totfact>
</mgrwt>
</event>
<event>
 4    1  0.1699693E+006  0.2287867E+01  0.7546771E-02  0.2810147E+00
         22   -1    0    0    0    0  0.00000000000E+00  0.00000000000E+00  0.44301288645E+01  0.44301288645E+01  0.00000000000E+00 0.  1.
         22   -1    0    0    0    0 -0.00000000000E+00 -0.00000000000E+00 -0.40331351161E+01  0.40331351161E+01  0.00000000000E+00 0.  1.
          4    1    1    2  501    0  0.91166442607E+00 -0.16704202662E+01  0.37567029736E+01  0.43985398854E+01  0.12700000000E+01 0.  1.
         -4    1    1    2    0  501 -0.91166442607E+00  0.16704202662E+01 -0.33597092253E+01  0.40647240951E+01  0.12700000000E+01 0.  1.
<mgrwt>
<rscale>  0 0.22878671E+01</rscale>
<asrwt>0</asrwt>
<pdfrwt beam="1">0</pdfrwt>
<pdfrwt beam="2">0</pdfrwt>
<totfact> 0.83456261E+11</totfact>
</mgrwt>
</event>
<event>
 4    1  0.1699693E+006  0.2577383E+01  0.7546771E-02  0.2675367E+00
         22   -1    0    0    0    0  0.00000000000E+00  0.00000000000E+00  0.96290281928E+01  0.96290281928E+01  0.00000000000E+00 0.  1.
         22   -1    0    0    0    0 -0.00000000000E+00 -0.00000000000E+00 -0.37934451453E+01  0.37934451453E+01  0.00000000000E+00 0.  1.
          4    1    1    2  501    0 -0.12507799355E+01  0.18615990482E+01  0.89881715926E+01  0.93504080147E+01  0.12700000000E+01 0.  1.
         -4    1    1    2    0  501  0.12507799355E+01 -0.18615990482E+01 -0.31525885451E+01  0.40720653234E+01  0.12700000000E+01 0.  1.
<mgrwt>
<rscale>  0 0.25773827E+01</rscale>
<asrwt>0</asrwt>
<pdfrwt beam="1">0</pdfrwt>
<pdfrwt beam="2">0</pdfrwt>
<totfact> 0.35500153E+11</totfact>
</mgrwt>
</event>
<event>
 4    1  0.1699693E+006  0.3636902E+01  0.7546771E-02  0.2352585E+00
         22   -1    0    0    0    0  0.00000000000E+00  0.00000000000E+00  0.11284759385E+01  0.11284759385E+01  0.00000000000E+00 0.  1.
         22   -1    0    0    0    0 -0.00000000000E+00 -0.00000000000E+00 -0.12064298251E+02  0.12064298251E+02  0.00000000000E+00 0. -1.
          4    1    1    2  501    0 -0.34059503022E+01  0.11686039515E+00 -0.43554474160E+01  0.56742379229E+01  0.12700000000E+01 0.  1.
         -4    1    1    2    0  501  0.34059503022E+01 -0.11686039515E+00 -0.65803748969E+01  0.75185362669E+01  0.12700000000E+01 0. -1.
<mgrwt>
<rscale>  0 0.36369017E+01</rscale>
<asrwt>0</asrwt>
<pdfrwt beam="1">0</pdfrwt>
<pdfrwt beam="2">0</pdfrwt>
<totfact> 0.11002297E+12</totfact>
</mgrwt>
</event>
<event>
 4    1  0.1699693E+006  0.2052114E+01  0.7546771E-02  0.2946413E+00
         22   -1    0    0    0    0  0.00000000000E+00  0.00000000000E+00  0.36423529478E+02  0.36423529478E+02  0.00000000000E+00 0. -1.
         22   -1    0    0    0    0 -0.00000000000E+00 -0.00000000000E+00 -0.11724769094E+00  0.11724769094E+00  0.00000000000E+00 0.  1.
          4    1    1    2  501    0  0.14787993714E+01  0.64142512057E+00  0.15998368726E+02  0.16129444370E+02  0.12700000000E+01 0.  1.
         -4    1    1    2    0  501 -0.14787993714E+01 -0.64142512057E+00  0.20307913061E+02  0.20411332800E+02  0.12700000000E+01 0. -1.
<mgrwt>
<rscale>  0 0.20521145E+01</rscale>
<asrwt>0</asrwt>
<pdfrwt beam="1">0</pdfrwt>
<pdfrwt beam="2">0</pdfrwt>
<totfact> 0.35249419E+12</totfact>
</mgrwt>
</event>
<event>
 4    1  0.1699693E+006  0.2644188E+01  0.7546771E-02  0.2648184E+00
         22   -1    0    0    0    0  0.00000000000E+00  0.00000000000E+00  0.22599267905E+00  0.22599267905E+00  0.00000000000E+00 0. -1.
         22   -1    0    0    0    0 -0.00000000000E+00 -0.00000000000E+00 -0.37563605568E+02  0.37563605568E+02  0.00000000000E+00 0.  1.
          4    1    1    2  501    0 -0.64024312580E+00  0.22291072878E+01 -0.10733276772E+02  0.11054182956E+02  0.12700000000E+01 0. -1.
         -4    1    1    2    0  501  0.64024312580E+00 -0.22291072878E+01 -0.26604336117E+02  0.26735415291E+02  0.12700000000E+01 0.  1.
<mgrwt>
<rscale>  0 0.26441881E+01</rscale>
<asrwt>0</asrwt>
<pdfrwt beam="1">0</pdfrwt>
<pdfrwt beam="2">0</pdfrwt>
<totfact> 0.16320868E+12</totfact>
</mgrwt>
</event>
<event>
 4    1  0.1699693E+006  0.3795826E+01  0.7546771E-02  0.2318108E+00
         22   -1    0    0    0    0  0.00000000000E+00  0.00000000000E+00  0.13551964000E+02  0.13551964000E+02  0.00000000000E+00 0. -1.
         22   -1    0    0    0    0 -0.00000000000E+00 -0.00000000000E+00 -0.11347386266E+01  0.11347386266E+01  0.00000000000E+00 0. -1.
          4    1    1    2  501    0 -0.35610995804E+01  0.33758982714E+00  0.80525684870E+01  0.89023680193E+01  0.12700000000E+01 0. -1.
         -4    1    1    2    0  501  0.35610995804E+01 -0.33758982714E+00  0.43646568862E+01  0.57843346071E+01  0.12700000000E+01 0. -1.
<mgrwt>
<rscale>  0 0.37958263E+01</rscale>
<asrwt>0</asrwt>
<pdfrwt beam="1">0</pdfrwt>
<pdfrwt beam="2">0</pdfrwt>
<totfact> 0.94841778E+11</totfact>
</mgrwt>
</event>
<event>
 4    1  0.1699693E+006  0.2735658E+01  0.7546771E-02  0.2612950E+00
         22   -1    0    0    0    0  0.00000000000E+00  0.00000000000E+00  0.23203047443E+02  0.23203047443E+02  0.00000000000E+00 0. -1.
         22   -1    0    0    0    0 -0.00000000000E+00 -0.00000000000E+00 -0.35652795630E+00  0.35652795630E+00  0.00000000000E+00 0.  1.
          4    1    1    2  501    0  0.73147152370E+00 -0.23099508385E+01  0.77859752267E+01  0.82525895146E+01  0.12700000000E+01 0.  1.
         -4    1    1    2    0  501 -0.73147152370E+00  0.23099508385E+01  0.15060544260E+02  0.15306985884E+02  0.12700000000E+01 0. -1.
<mgrwt>
<rscale>  0 0.27356578E+01</rscale>
<asrwt>0</asrwt>
<pdfrwt beam="1">0</pdfrwt>
<pdfrwt beam="2">0</pdfrwt>
<totfact> 0.18086742E+12</totfact>
</mgrwt>
</event>
<event>
 4    1  0.1699693E+006  0.2547228E+01  0.7546771E-02  0.2688068E+00
         22   -1    0    0    0    0  0.00000000000E+00  0.00000000000E+00  0.19008101428E+00  0.19008101428E+00  0.00000000000E+00 0.  1.
         22   -1    0    0    0    0 -0.00000000000E+00 -0.00000000000E+00 -0.34362164841E+02  0.34362164841E+02  0.00000000000E+00 0.  1.
          4    1    1    2  501    0  0.14254857690E+01  0.16862566065E+01 -0.18491441309E+02  0.18666059378E+02  0.12700000000E+01 0.  1.
         -4    1    1    2    0  501 -0.14254857690E+01 -0.16862566065E+01 -0.15680642517E+02  0.15886186476E+02  0.12700000000E+01 0.  1.
<mgrwt>
<rscale>  0 0.25472281E+01</rscale>
<asrwt>0</asrwt>
<pdfrwt beam="1">0</pdfrwt>
<pdfrwt beam="2">0</pdfrwt>
<totfact> 0.22206020E+12</totfact>
</mgrwt>
</event>
<event>
 4    1  0.1699693E+006  0.2995633E+01  0.7546771E-02  0.2523562E+00
         22   -1    0    0    0    0  0.00000000000E+00  0.00000000000E+00  0.25173501405E+01  0.25173501405E+01  0.00000000000E+00 0.  1.
         22   -1    0    0    0    0 -0.00000000000E+00 -0.00000000000E+00 -0.37978293226E+01  0.37978293226E+01  0.00000000000E+00 0. -1.
          4    1    1    2  501    0 -0.50667517688E+00  0.26653694883E+01  0.14193989200E+00  0.29989933606E+01  0.12700000000E+01 0.  1.
         -4    1    1    2    0  501  0.50667517688E+00 -0.26653694883E+01 -0.14224190741E+01  0.33161861025E+01  0.12700000000E+01 0. -1.
<mgrwt>
<rscale>  0 0.29956325E+01</rscale>
<asrwt>0</asrwt>
<pdfrwt beam="1">0</pdfrwt>
<pdfrwt beam="2">0</pdfrwt>
<totfact> 0.17367328E+12</totfact>
</mgrwt>
</event>
<event>
 4    1  0.1699693E+006  0.2091726E+01  0.7546771E-02  0.2921447E+00
         22   -1    0    0    0    0  0.00000000000E+00  0.00000000000E+00  0.99351022385E+00  0.99351022385E+00  0.00000000000E+00 0. -1.
         22   -1    0    0    0    0 -0.00000000000E+00 -0.00000000000E+00 -0.78080671678E+01  0.78080671678E+01  0.00000000000E+00 0.  1.
          4    1    1    2  501    0 -0.66008938071E+00 -0.15253528102E+01 -0.50148852573E+00  0.21510020752E+01  0.12700000000E+01 0. -1.
         -4    1    1    2    0  501  0.66008938071E+00  0.15253528102E+01 -0.63130684182E+01  0.66505753164E+01  0.12700000000E+01 0.  1.
<mgrwt>
<rscale>  0 0.20917264E+01</rscale>
<asrwt>0</asrwt>
<pdfrwt beam="1">0</pdfrwt>
<pdfrwt beam="2">0</pdfrwt>
<totfact> 0.21541045E+12</totfact>
</mgrwt>
</event>
<event>
 4    1  0.1699693E+006  0.2249255E+01  0.7546771E-02  0.2830587E+00
         22   -1    0    0    0    0  0.00000000000E+00  0.00000000000E+00  0.76736163904E+00  0.76736163904E+00  0.00000000000E+00 0.  1.
         22   -1    0    0    0    0 -0.00000000000E+00 -0.00000000000E+00 -0.14725247491E+02  0.14725247491E+02  0.00000000000E+00 0. -1.
          4    1    1    2  501    0 -0.99282906973E+00  0.15686105347E+01 -0.12222789217E+01  0.25599051415E+01  0.12700000000E+01 0.  1.
         -4    1    1    2    0  501  0.99282906973E+00 -0.15686105347E+01 -0.12735606931E+02  0.12932703989E+02  0.12700000000E+01 0. -1.
<mgrwt>
<rscale>  0 0.22492551E+01</rscale>
<asrwt>0</asrwt>
<pdfrwt beam="1">0</pdfrwt>
<pdfrwt beam="2">0</pdfrwt>
<totfact> 0.13381190E+12</totfact>
</mgrwt>
</event>
<event>
 4    1  0.1699693E+006  0.2513298E+01  0.7546771E-02  0.2702697E+00
         22   -1    0    0    0    0  0.00000000000E+00  0.00000000000E+00  0.82282180513E+01  0.82282180513E+01  0.00000000000E+00 0.  1.
         22   -1    0    0    0    0 -0.00000000000E+00 -0.00000000000E+00 -0.23626744587E+01  0.23626744587E+01  0.00000000000E+00 0. -1.
          4    1    1    2  501    0  0.21666220590E+01 -0.97537042723E-01  0.72836785657E+01  0.77051046760E+01  0.12700000000E+01 0.  1.
         -4    1    1    2    0  501 -0.21666220590E+01  0.97537042723E-01 -0.14181349730E+01  0.28857878340E+01  0.12700000000E+01 0. -1.
<mgrwt>
<rscale>  0 0.25132976E+01</rscale>
<asrwt>0</asrwt>
<pdfrwt beam="1">0</pdfrwt>
<pdfrwt beam="2">0</pdfrwt>
<totfact> 0.74607356E+11</totfact>
</mgrwt>
</event>
<event>
 4    1  0.1699693E+006  0.2382198E+01  0.7546771E-02  0.2762859E+00
         22   -1    0    0    0    0  0.00000000000E+00  0.00000000000E+00  0.28009261699E+02  0.28009261699E+02  0.00000000000E+00 0.  1.
         22   -1    0    0    0    0 -0.00000000000E+00 -0.00000000000E+00 -0.20379184439E+00  0.20379184439E+00  0.00000000000E+00 0.  1.
          4    1    1    2  501    0 -0.18301442793E+01  0.84412138468E+00  0.14978407731E+02  0.15166659723E+02  0.12700000000E+01 0.  1.
         -4    1    1    2    0  501  0.18301442793E+01 -0.84412138468E+00  0.12827062124E+02  0.13046393820E+02  0.12700000000E+01 0.  1.
<mgrwt>
<rscale>  0 0.23821984E+01</rscale>
<asrwt>0</asrwt>
<pdfrwt beam="1">0</pdfrwt>
<pdfrwt beam="2">0</pdfrwt>
<totfact> 0.26674694E+12</totfact>
</mgrwt>
</event>
<event>
 4    1  0.1699693E+006  0.2118649E+01  0.7546771E-02  0.2904996E+00
         22   -1    0    0    0    0  0.00000000000E+00  0.00000000000E+00  0.40417000476E+02  0.40417000476E+02  0.00000000000E+00 0. -1.
         22   -1    0    0    0    0 -0.00000000000E+00 -0.00000000000E+00 -0.28348430236E+00  0.28348430236E+00  0.00000000000E+00 0. -1.
          4    1    1    2  501    0 -0.53751857736E+00 -0.16083678027E+01  0.35937803286E+02  0.36000199697E+02  0.12700000000E+01 0. -1.
         -4    1    1    2    0  501  0.53751857736E+00  0.16083678027E+01  0.41957128879E+01  0.47002850815E+01  0.12700000000E+01 0. -1.
<mgrwt>
<rscale>  0 0.21186489E+01</rscale>
<asrwt>0</asrwt>
<pdfrwt beam="1">0</pdfrwt>
<pdfrwt beam="2">0</pdfrwt>
<totfact> 0.11518200E+12</totfact>
</mgrwt>
</event>
<event>
 4    1  0.1699693E+006  0.3185700E+01  0.7546771E-02  0.2466566E+00
         22   -1    0    0    0    0  0.00000000000E+00  0.00000000000E+00  0.14703797676E+01  0.14703797676E+01  0.00000000000E+00 0.  1.
         22   -1    0    0    0    0 -0.00000000000E+00 -0.00000000000E+00 -0.83254940018E+01  0.83254940018E+01  0.00000000000E+00 0.  1.
          4    1    1    2  501    0  0.22142772777E+01  0.19059799486E+01 -0.14023319592E+01  0.34806922229E+01  0.12700000000E+01 0.  1.
         -4    1    1    2    0  501 -0.22142772777E+01 -0.19059799486E+01 -0.54527822750E+01  0.63151815465E+01  0.12700000000E+01 0.  1.
<mgrwt>
<rscale>  0 0.31856998E+01</rscale>
<asrwt>0</asrwt>
<pdfrwt beam="1">0</pdfrwt>
<pdfrwt beam="2">0</pdfrwt>
<totfact> 0.12726726E+12</totfact>
</mgrwt>
</event>
<event>
 4    1  0.1699693E+006  0.2394954E+01  0.7546771E-02  0.2756735E+00
         22   -1    0    0    0    0  0.00000000000E+00  0.00000000000E+00  0.44192940452E+01  0.44192940452E+01  0.00000000000E+00 0. -1.
         22   -1    0    0    0    0 -0.00000000000E+00 -0.00000000000E+00 -0.14060278084E+01  0.14060278084E+01  0.00000000000E+00 0.  1.
          4    1    1    2  501    0 -0.15352555936E+01  0.13288693411E+01  0.23143532222E+01  0.33304705824E+01  0.12700000000E+01 0. -1.
         -4    1    1    2    0  501  0.15352555936E+01 -0.13288693411E+01  0.69891301467E+00  0.24948512712E+01  0.12700000000E+01 0.  1.
<mgrwt>
<rscale>  0 0.23949537E+01</rscale>
<asrwt>0</asrwt>
<pdfrwt beam="1">0</pdfrwt>
<pdfrwt beam="2">0</pdfrwt>
<totfact> 0.28486829E+12</totfact>
</mgrwt>
</event>
<event>
 4    1  0.1699693E+006  0.2067386E+01  0.7546771E-02  0.2936678E+00
         22   -1    0    0    0    0  0.00000000000E+00  0.00000000000E+00  0.29123357305E+01  0.29123357305E+01  0.00000000000E+00 0.  1.
         22   -1    0    0    0    0 -0.00000000000E+00 -0.00000000000E+00 -0.15064052103E+01  0.15064052103E+01  0.00000000000E+00 0. -1.
          4    1    1    2  501    0 -0.28014014274E+00 -0.16070801516E+01  0.34826980767E+00  0.20965154357E+01  0.12700000000E+01 0.  1.
         -4    1    1    2    0  501  0.28014014274E+00  0.16070801516E+01  0.10576607126E+01  0.23222255051E+01  0.12700000000E+01 0. -1.
<mgrwt>
<rscale>  0 0.20673861E+01</rscale>
<asrwt>0</asrwt>
<pdfrwt beam="1">0</pdfrwt>
<pdfrwt beam="2">0</pdfrwt>
<totfact> 0.42925068E+12</totfact>
</mgrwt>
</event>
<event>
 4    1  0.1699693E+006  0.2069772E+01  0.7546771E-02  0.2935169E+00
         22   -1    0    0    0    0  0.00000000000E+00  0.00000000000E+00  0.13552574164E+01  0.13552574164E+01  0.00000000000E+00 0. -1.
         22   -1    0    0    0    0 -0.00000000000E+00 -0.00000000000E+00 -0.64426587121E+01  0.64426587121E+01  0.00000000000E+00 0.  1.
          4    1    1    2  501    0 -0.35298608194E+00 -0.15957621868E+01  0.23897970043E+00  0.20835228408E+01  0.12700000000E+01 0. -1.
         -4    1    1    2    0  501  0.35298608194E+00  0.15957621868E+01 -0.53263809962E+01  0.57143932877E+01  0.12700000000E+01 0.  1.
<mgrwt>
<rscale>  0 0.20697720E+01</rscale>
<asrwt>0</asrwt>
<pdfrwt beam="1">0</pdfrwt>
<pdfrwt beam="2">0</pdfrwt>
<totfact> 0.18999917E+12</totfact>
</mgrwt>
</event>
<event>
 4    1  0.1699693E+006  0.4320709E+01  0.7546771E-02  0.2219884E+00
         22   -1    0    0    0    0  0.00000000000E+00  0.00000000000E+00  0.16163983029E+02  0.16163983029E+02  0.00000000000E+00 0. -1.
         22   -1    0    0    0    0 -0.00000000000E+00 -0.00000000000E+00 -0.13419797133E+01  0.13419797133E+01  0.00000000000E+00 0.  1.
          4    1    1    2  501    0 -0.40881433799E+01 -0.58541764572E+00  0.10678706279E+02  0.11519691745E+02  0.12700000000E+01 0. -1.
         -4    1    1    2    0  501  0.40881433799E+01  0.58541764572E+00  0.41432970363E+01  0.59862709967E+01  0.12700000000E+01 0.  1.
<mgrwt>
<rscale>  0 0.43207094E+01</rscale>
<asrwt>0</asrwt>
<pdfrwt beam="1">0</pdfrwt>
<pdfrwt beam="2">0</pdfrwt>
<totfact> 0.63000415E+11</totfact>
</mgrwt>
</event>
<event>
 4    1  0.1699693E+006  0.2035010E+01  0.7546771E-02  0.2957487E+00
         22   -1    0    0    0    0  0.00000000000E+00  0.00000000000E+00  0.19977948871E+01  0.19977948871E+01  0.00000000000E+00 0.  1.
         22   -1    0    0    0    0 -0.00000000000E+00 -0.00000000000E+00 -0.31402075249E+01  0.31402075249E+01  0.00000000000E+00 0. -1.
          4    1    1    2  501    0  0.10764408745E+01 -0.11703160519E+01  0.92649872960E+00  0.22359929592E+01  0.12700000000E+01 0.  1.
         -4    1    1    2    0  501 -0.10764408745E+01  0.11703160519E+01 -0.20689113674E+01  0.29020094528E+01  0.12700000000E+01 0. -1.
<mgrwt>
<rscale>  0 0.20350097E+01</rscale>
<asrwt>0</asrwt>
<pdfrwt beam="1">0</pdfrwt>
<pdfrwt beam="2">0</pdfrwt>
<totfact> 0.28378157E+12</totfact>
</mgrwt>
</event>
<event>
 4    1  0.1699693E+006  0.2963285E+01  0.7546771E-02  0.2533911E+00
         22   -1    0    0    0    0  0.00000000000E+00  0.00000000000E+00  0.53141614882E+00  0.53141614882E+00  0.00000000000E+00 0. -1.
         22   -1    0    0    0    0 -0.00000000000E+00 -0.00000000000E+00 -0.16730100931E+02  0.16730100931E+02  0.00000000000E+00 0.  1.
          4    1    1    2  501    0  0.16263632228E+00 -0.26723969247E+01 -0.71411171724E+01  0.77315335068E+01  0.12700000000E+01 0.  1.
         -4    1    1    2    0  501 -0.16263632228E+00  0.26723969247E+01 -0.90575676101E+01  0.95299835733E+01  0.12700000000E+01 0. -1.
<mgrwt>
<rscale>  0 0.29632846E+01</rscale>
<asrwt>0</asrwt>
<pdfrwt beam="1">0</pdfrwt>
<pdfrwt beam="2">0</pdfrwt>
<totfact> 0.17339145E+12</totfact>
</mgrwt>
</event>
<event>
 4    1  0.1699693E+006  0.2622815E+01  0.7546771E-02  0.2656742E+00
         22   -1    0    0    0    0  0.00000000000E+00  0.00000000000E+00  0.41369228362E+00  0.41369228362E+00  0.00000000000E+00 0. -1.
         22   -1    0    0    0    0 -0.00000000000E+00 -0.00000000000E+00 -0.20250155257E+02  0.20250155257E+02  0.00000000000E+00 0. -1.
          4    1    1    2  501    0  0.51977663061E+00 -0.22351937312E+01 -0.55489556515E+01  0.61375946090E+01  0.12700000000E+01 0. -1.
         -4    1    1    2    0  501 -0.51977663061E+00  0.22351937312E+01 -0.14287507322E+02  0.14526252932E+02  0.12700000000E+01 0. -1.
<mgrwt>
<rscale>  0 0.26228150E+01</rscale>
<asrwt>0</asrwt>
<pdfrwt beam="1">0</pdfrwt>
<pdfrwt beam="2">0</pdfrwt>
<totfact> 0.18143308E+12</totfact>
</mgrwt>
</event>
<event>
 4    1  0.1699693E+006  0.2418186E+01  0.7546771E-02  0.2745736E+00
         22   -1    0    0    0    0  0.00000000000E+00  0.00000000000E+00  0.17062415749E+02  0.17062415749E+02  0.00000000000E+00 0. -1.
         22   -1    0    0    0    0 -0.00000000000E+00 -0.00000000000E+00 -0.22822877953E+01  0.22822877953E+01  0.00000000000E+00 0.  1.
          4    1    1    2  501    0  0.59196232814E+00 -0.19708640535E+01  0.16306666442E+02  0.16484993023E+02  0.12700000000E+01 0. -1.
         -4    1    1    2    0  501 -0.59196232814E+00  0.19708640535E+01 -0.15265384876E+01  0.28597105220E+01  0.12700000000E+01 0.  1.
<mgrwt>
<rscale>  0 0.24181862E+01</rscale>
<asrwt>0</asrwt>
<pdfrwt beam="1">0</pdfrwt>
<pdfrwt beam="2">0</pdfrwt>
<totfact> 0.31921005E+11</totfact>
</mgrwt>
</event>
<event>
 4    1  0.1699693E+006  0.2229751E+01  0.7546771E-02  0.2841167E+00
         22   -1    0    0    0    0  0.00000000000E+00  0.00000000000E+00  0.14046721387E+01  0.14046721387E+01  0.00000000000E+00 0.  1.
         22   -1    0    0    0    0 -0.00000000000E+00 -0.00000000000E+00 -0.38016364465E+01  0.38016364465E+01  0.00000000000E+00 0.  1.
          4    1    1    2  501    0 -0.70908402812E+00 -0.16899967464E+01 -0.51487507224E+00  0.22884242399E+01  0.12700000000E+01 0. -1.
         -4    1    1    2    0  501  0.70908402812E+00  0.16899967464E+01 -0.18820892356E+01  0.29178843453E+01  0.12700000000E+01 0. -1.
<mgrwt>
<rscale>  0 0.22297509E+01</rscale>
<asrwt>0</asrwt>
<pdfrwt beam="1">0</pdfrwt>
<pdfrwt beam="2">0</pdfrwt>
<totfact> 0.34049027E+12</totfact>
</mgrwt>
</event>
<event>
 4    1  0.1699693E+006  0.2355604E+01  0.7546771E-02  0.2775828E+00
         22   -1    0    0    0    0  0.00000000000E+00  0.00000000000E+00  0.14625662082E+02  0.14625662082E+02  0.00000000000E+00 0. -1.
         22   -1    0    0    0    0 -0.00000000000E+00 -0.00000000000E+00 -0.40343360333E+00  0.40343360333E+00  0.00000000000E+00 0.  1.
          4    1    1    2  501    0  0.19838924183E+01 -0.11959064728E-01  0.89454994089E+01  0.92504503577E+01  0.12700000000E+01 0. -1.
         -4    1    1    2    0  501 -0.19838924183E+01  0.11959064728E-01  0.52767290702E+01  0.57786453280E+01  0.12700000000E+01 0.  1.
<mgrwt>
<rscale>  0 0.23556044E+01</rscale>
<asrwt>0</asrwt>
<pdfrwt beam="1">0</pdfrwt>
<pdfrwt beam="2">0</pdfrwt>
<totfact> 0.27923415E+12</totfact>
</mgrwt>
</event>
<event>
 4    1  0.1699693E+006  0.3150488E+01  0.7546771E-02  0.2476662E+00
         22   -1    0    0    0    0  0.00000000000E+00  0.00000000000E+00  0.54280274251E+00  0.54280274251E+00  0.00000000000E+00 0. -1.
         22   -1    0    0    0    0 -0.00000000000E+00 -0.00000000000E+00 -0.18695005547E+02  0.18695005547E+02  0.00000000000E+00 0.  1.
          4    1    1    2  501    0 -0.28190515137E+01  0.60466641161E+00 -0.76529771351E+01  0.82760879609E+01  0.12700000000E+01 0. -1.
         -4    1    1    2    0  501  0.28190515137E+01 -0.60466641161E+00 -0.10499225670E+02  0.10961720329E+02  0.12700000000E+01 0.  1.
<mgrwt>
<rscale>  0 0.31504877E+01</rscale>
<asrwt>0</asrwt>
<pdfrwt beam="1">0</pdfrwt>
<pdfrwt beam="2">0</pdfrwt>
<totfact> 0.14751389E+12</totfact>
</mgrwt>
</event>
<event>
 4    1  0.1699693E+006  0.3595459E+01  0.7546771E-02  0.2362007E+00
         22   -1    0    0    0    0  0.00000000000E+00  0.00000000000E+00  0.24398854388E+00  0.24398854388E+00  0.00000000000E+00 0.  1.
         22   -1    0    0    0    0 -0.00000000000E+00 -0.00000000000E+00 -0.54247348065E+02  0.54247348065E+02  0.00000000000E+00 0. -1.
          4    1    1    2  501    0 -0.30302761425E+01  0.14600874017E+01 -0.22842740211E+02  0.23123972606E+02  0.12700000000E+01 0.  1.
         -4    1    1    2    0  501  0.30302761425E+01 -0.14600874017E+01 -0.31160619310E+02  0.31367364003E+02  0.12700000000E+01 0. -1.
<mgrwt>
<rscale>  0 0.35954595E+01</rscale>
<asrwt>0</asrwt>
<pdfrwt beam="1">0</pdfrwt>
<pdfrwt beam="2">0</pdfrwt>
<totfact> 0.92596458E+11</totfact>
</mgrwt>
</event>
<event>
 4    1  0.1699693E+006  0.2882056E+01  0.7546771E-02  0.2560818E+00
         22   -1    0    0    0    0  0.00000000000E+00  0.00000000000E+00  0.78964791483E+01  0.78964791483E+01  0.00000000000E+00 0. -1.
         22   -1    0    0    0    0 -0.00000000000E+00 -0.00000000000E+00 -0.24316155224E+01  0.24316155224E+01  0.00000000000E+00 0. -1.
          4    1    1    2  501    0 -0.19094832954E+01 -0.17456281523E+01  0.66223348701E+01  0.72222962577E+01  0.12700000000E+01 0. -1.
         -4    1    1    2    0  501  0.19094832954E+01  0.17456281523E+01 -0.11574712442E+01  0.31057984131E+01  0.12700000000E+01 0. -1.
<mgrwt>
<rscale>  0 0.28820555E+01</rscale>
<asrwt>0</asrwt>
<pdfrwt beam="1">0</pdfrwt>
<pdfrwt beam="2">0</pdfrwt>
<totfact> 0.75814420E+11</totfact>
</mgrwt>
</event>
<event>
 4    1  0.1699693E+006  0.2442979E+01  0.7546771E-02  0.2734215E+00
         22   -1    0    0    0    0  0.00000000000E+00  0.00000000000E+00  0.26843047940E+00  0.26843047940E+00  0.00000000000E+00 0.  1.
         22   -1    0    0    0    0 -0.00000000000E+00 -0.00000000000E+00 -0.25125877250E+02  0.25125877250E+02  0.00000000000E+00 0. -1.
          4    1    1    2  501    0  0.55115058748E+00 -0.20128287720E+01 -0.81207410570E+01  0.84802465737E+01  0.12700000000E+01 0.  1.
         -4    1    1    2    0  501 -0.55115058748E+00  0.20128287720E+01 -0.16736705713E+02  0.16914061156E+02  0.12700000000E+01 0. -1.
<mgrwt>
<rscale>  0 0.24429790E+01</rscale>
<asrwt>0</asrwt>
<pdfrwt beam="1">0</pdfrwt>
<pdfrwt beam="2">0</pdfrwt>
<totfact> 0.22494794E+12</totfact>
</mgrwt>
</event>
<event>
 4    1  0.1699693E+006  0.2396897E+01  0.7546771E-02  0.2755807E+00
         22   -1    0    0    0    0  0.00000000000E+00  0.00000000000E+00  0.39834271344E+01  0.39834271344E+01  0.00000000000E+00 0.  1.
         22   -1    0    0    0    0 -0.00000000000E+00 -0.00000000000E+00 -0.21065202313E+01  0.21065202313E+01  0.00000000000E+00 0. -1.
          4    1    1    2  501    0 -0.12572661866E+01  0.15973410784E+01  0.26483567974E+01  0.35719617175E+01  0.12700000000E+01 0.  1.
         -4    1    1    2    0  501  0.12572661866E+01 -0.15973410784E+01 -0.77144989437E+00  0.25179856482E+01  0.12700000000E+01 0. -1.
<mgrwt>
<rscale>  0 0.23968973E+01</rscale>
<asrwt>0</asrwt>
<pdfrwt beam="1">0</pdfrwt>
<pdfrwt beam="2">0</pdfrwt>
<totfact> 0.20192630E+12</totfact>
</mgrwt>
</event>
<event>
 4    1  0.1699693E+006  0.9770800E+01  0.7546771E-02  0.1788389E+00
         22   -1    0    0    0    0  0.00000000000E+00  0.00000000000E+00  0.64346462178E+01  0.64346462178E+01  0.00000000000E+00 0. -1.
         22   -1    0    0    0    0 -0.00000000000E+00 -0.00000000000E+00 -0.15530563118E+02  0.15530563118E+02  0.00000000000E+00 0.  1.
          4    1    1    2  501    0  0.82767114615E+01  0.50350459486E+01 -0.22264680109E+01  0.10021262402E+02  0.12700000000E+01 0. -1.
         -4    1    1    2    0  501 -0.82767114615E+01 -0.50350459486E+01 -0.68694488893E+01  0.11943946934E+02  0.12700000000E+01 0.  1.
<mgrwt>
<rscale>  0 0.97708004E+01</rscale>
<asrwt>0</asrwt>
<pdfrwt beam="1">0</pdfrwt>
<pdfrwt beam="2">0</pdfrwt>
<totfact> 0.10597788E+11</totfact>
</mgrwt>
</event>
<event>
 4    1  0.1699693E+006  0.2393263E+01  0.7546771E-02  0.2757543E+00
         22   -1    0    0    0    0  0.00000000000E+00  0.00000000000E+00  0.60968975423E+02  0.60968975423E+02  0.00000000000E+00 0. -1.
         22   -1    0    0    0    0 -0.00000000000E+00 -0.00000000000E+00 -0.25436889504E+00  0.25436889504E+00  0.00000000000E+00 0.  1.
          4    1    1    2  501    0 -0.16206922785E+01 -0.12199041900E+01  0.54667587673E+02  0.54719949303E+02  0.12700000000E+01 0. -1.
         -4    1    1    2    0  501  0.16206922785E+01  0.12199041900E+01  0.60470188548E+01  0.65033950152E+01  0.12700000000E+01 0.  1.
<mgrwt>
<rscale>  0 0.23932634E+01</rscale>
<asrwt>0</asrwt>
<pdfrwt beam="1">0</pdfrwt>
<pdfrwt beam="2">0</pdfrwt>
<totfact> 0.75626538E+11</totfact>
</mgrwt>
</event>
<event>
 4    1  0.1699693E+006  0.2165603E+01  0.7546771E-02  0.2877252E+00
         22   -1    0    0    0    0  0.00000000000E+00  0.00000000000E+00  0.28798858447E+01  0.28798858447E+01  0.00000000000E+00 0.  1.
         22   -1    0    0    0    0 -0.00000000000E+00 -0.00000000000E+00 -0.54147759374E+01  0.54147759374E+01  0.00000000000E+00 0. -1.
          4    1    1    2  501    0 -0.17116070449E+01 -0.38384854704E+00  0.22006076002E+01  0.30874766709E+01  0.12700000000E+01 0.  1.
         -4    1    1    2    0  501  0.17116070449E+01  0.38384854704E+00 -0.47354976929E+01  0.52071851112E+01  0.12700000000E+01 0. -1.
<mgrwt>
<rscale>  0 0.21656035E+01</rscale>
<asrwt>0</asrwt>
<pdfrwt beam="1">0</pdfrwt>
<pdfrwt beam="2">0</pdfrwt>
<totfact> 0.97660684E+11</totfact>
</mgrwt>
</event>
<event>
 4    1  0.1699693E+006  0.2357870E+01  0.7546771E-02  0.2774713E+00
         22   -1    0    0    0    0  0.00000000000E+00  0.00000000000E+00  0.41212495464E+02  0.41212495464E+02  0.00000000000E+00 0.  1.
         22   -1    0    0    0    0 -0.00000000000E+00 -0.00000000000E+00 -0.24358229439E+00  0.24358229439E+00  0.00000000000E+00 0. -1.
          4    1    1    2  501    0 -0.76685167659E+00 -0.18326450514E+01  0.34330176547E+02  0.34411053038E+02  0.12700000000E+01 0.  1.
         -4    1    1    2    0  501  0.76685167659E+00  0.18326450514E+01  0.66387366224E+01  0.70450247210E+01  0.12700000000E+01 0. -1.
<mgrwt>
<rscale>  0 0.23578697E+01</rscale>
<asrwt>0</asrwt>
<pdfrwt beam="1">0</pdfrwt>
<pdfrwt beam="2">0</pdfrwt>
<totfact> 0.13309211E+12</totfact>
</mgrwt>
</event>
<event>
 4    1  0.1699693E+006  0.2054978E+01  0.7546771E-02  0.2944577E+00
         22   -1    0    0    0    0  0.00000000000E+00  0.00000000000E+00  0.12959443143E+02  0.12959443143E+02  0.00000000000E+00 0. -1.
         22   -1    0    0    0    0 -0.00000000000E+00 -0.00000000000E+00 -0.32587637184E+00  0.32587637184E+00  0.00000000000E+00 0.  1.
          4    1    1    2  501    0  0.45635053391E+00 -0.15497669937E+01  0.63671471489E+01  0.66905527694E+01  0.12700000000E+01 0. -1.
         -4    1    1    2    0  501 -0.45635053391E+00  0.15497669937E+01  0.62664196225E+01  0.65947667457E+01  0.12700000000E+01 0.  1.
<mgrwt>
<rscale>  0 0.20549777E+01</rscale>
<asrwt>0</asrwt>
<pdfrwt beam="1">0</pdfrwt>
<pdfrwt beam="2">0</pdfrwt>
<totfact> 0.41169413E+12</totfact>
</mgrwt>
</event>
<event>
 4    1  0.1699693E+006  0.2265409E+01  0.7546771E-02  0.2821954E+00
         22   -1    0    0    0    0  0.00000000000E+00  0.00000000000E+00  0.87243614759E+01  0.87243614759E+01  0.00000000000E+00 0. -1.
         22   -1    0    0    0    0 -0.00000000000E+00 -0.00000000000E+00 -0.10007148376E+01  0.10007148376E+01  0.00000000000E+00 0.  1.
          4    1    1    2  501    0  0.32420264454E-01 -0.18756675739E+01  0.69836074610E+01  0.73418562429E+01  0.12700000000E+01 0. -1.
         -4    1    1    2    0  501 -0.32420264454E-01  0.18756675739E+01  0.74003917733E+00  0.23832200707E+01  0.12700000000E+01 0.  1.
<mgrwt>
<rscale>  0 0.22654094E+01</rscale>
<asrwt>0</asrwt>
<pdfrwt beam="1">0</pdfrwt>
<pdfrwt beam="2">0</pdfrwt>
<totfact> 0.18695713E+12</totfact>
</mgrwt>
</event>
<event>
 4    1  0.1699693E+006  0.2916536E+01  0.7546771E-02  0.2549232E+00
         22   -1    0    0    0    0  0.00000000000E+00  0.00000000000E+00  0.27944058300E+02  0.27944058300E+02  0.00000000000E+00 0.  1.
         22   -1    0    0    0    0 -0.00000000000E+00 -0.00000000000E+00 -0.31151394078E+00  0.31151394078E+00  0.00000000000E+00 0. -1.
          4    1    1    2  501    0  0.21211825307E+01 -0.15472134528E+01  0.15951163630E+02  0.16215603780E+02  0.12700000000E+01 0.  1.
         -4    1    1    2    0  501 -0.21211825307E+01  0.15472134528E+01  0.11681380729E+02  0.12039968461E+02  0.12700000000E+01 0. -1.
<mgrwt>
<rscale>  0 0.29165364E+01</rscale>
<asrwt>0</asrwt>
<pdfrwt beam="1">0</pdfrwt>
<pdfrwt beam="2">0</pdfrwt>
<totfact> 0.16642708E+12</totfact>
</mgrwt>
</event>
<event>
 4    1  0.1699693E+006  0.2361076E+01  0.7546771E-02  0.2773137E+00
         22   -1    0    0    0    0  0.00000000000E+00  0.00000000000E+00  0.12060999377E+02  0.12060999377E+02  0.00000000000E+00 0.  1.
         22   -1    0    0    0    0 -0.00000000000E+00 -0.00000000000E+00 -0.57684277046E+00  0.57684277046E+00  0.00000000000E+00 0.  1.
          4    1    1    2  501    0  0.17501734246E+01  0.94798235576E+00  0.85589975870E+01  0.88786889380E+01  0.12700000000E+01 0.  1.
         -4    1    1    2    0  501 -0.17501734246E+01 -0.94798235576E+00  0.29251590196E+01  0.37591532096E+01  0.12700000000E+01 0.  1.
<mgrwt>
<rscale>  0 0.23610755E+01</rscale>
<asrwt>0</asrwt>
<pdfrwt beam="1">0</pdfrwt>
<pdfrwt beam="2">0</pdfrwt>
<totfact> 0.23616807E+12</totfact>
</mgrwt>
</event>
<event>
 4    1  0.1699693E+006  0.2410041E+01  0.7546771E-02  0.2749569E+00
         22   -1    0    0    0    0  0.00000000000E+00  0.00000000000E+00  0.52218582471E+00  0.52218582471E+00  0.00000000000E+00 0. -1.
         22   -1    0    0    0    0 -0.00000000000E+00 -0.00000000000E+00 -0.15837705173E+02  0.15837705173E+02  0.00000000000E+00 0.  1.
          4    1    1    2  501    0  0.60711622828E+00  0.19562226241E+01 -0.31947336042E+01  0.40018270667E+01  0.12700000000E+01 0. -1.
         -4    1    1    2    0  501 -0.60711622828E+00 -0.19562226241E+01 -0.12120785744E+02  0.12358063931E+02  0.12700000000E+01 0.  1.
<mgrwt>
<rscale>  0 0.24100409E+01</rscale>
<asrwt>0</asrwt>
<pdfrwt beam="1">0</pdfrwt>
<pdfrwt beam="2">0</pdfrwt>
<totfact> 0.18924134E+12</totfact>
</mgrwt>
</event>
<event>
 4    1  0.1699693E+006  0.2305401E+01  0.7546771E-02  0.2801080E+00
         22   -1    0    0    0    0  0.00000000000E+00  0.00000000000E+00  0.12215627010E+01  0.12215627010E+01  0.00000000000E+00 0.  1.
         22   -1    0    0    0    0 -0.00000000000E+00 -0.00000000000E+00 -0.45117643980E+01  0.45117643980E+01  0.00000000000E+00 0. -1.
          4    1    1    2  501    0  0.24959930039E+00 -0.19077928797E+01 -0.21864277932E+01  0.31773164743E+01  0.12700000000E+01 0. -1.
         -4    1    1    2    0  501 -0.24959930039E+00  0.19077928797E+01 -0.11037739038E+01  0.25560106247E+01  0.12700000000E+01 0.  1.
<mgrwt>
<rscale>  0 0.23054009E+01</rscale>
<asrwt>0</asrwt>
<pdfrwt beam="1">0</pdfrwt>
<pdfrwt beam="2">0</pdfrwt>
<totfact> 0.32667811E+12</totfact>
</mgrwt>
</event>
<event>
 4    1  0.1699693E+006  0.2079077E+01  0.7546771E-02  0.2929319E+00
         22   -1    0    0    0    0  0.00000000000E+00  0.00000000000E+00  0.54276574317E+00  0.54276574317E+00  0.00000000000E+00 0. -1.
         22   -1    0    0    0    0 -0.00000000000E+00 -0.00000000000E+00 -0.14903021098E+02  0.14903021098E+02  0.00000000000E+00 0.  1.
          4    1    1    2  501    0  0.14010060305E+01  0.86420105870E+00 -0.19103362178E+01  0.28234634462E+01  0.12700000000E+01 0. -1.
         -4    1    1    2    0  501 -0.14010060305E+01 -0.86420105870E+00 -0.12449919137E+02  0.12622323395E+02  0.12700000000E+01 0.  1.
<mgrwt>
<rscale>  0 0.20790770E+01</rscale>
<asrwt>0</asrwt>
<pdfrwt beam="1">0</pdfrwt>
<pdfrwt beam="2">0</pdfrwt>
<totfact> 0.19523458E+12</totfact>
</mgrwt>
</event>
<event>
 4    1  0.1699693E+006  0.2353473E+01  0.7546771E-02  0.2776879E+00
         22   -1    0    0    0    0  0.00000000000E+00  0.00000000000E+00  0.36133505075E+00  0.36133505075E+00  0.00000000000E+00 0.  1.
         22   -1    0    0    0    0 -0.00000000000E+00 -0.00000000000E+00 -0.15328859796E+02  0.15328859796E+02  0.00000000000E+00 0. -1.
          4    1    1    2  501    0  0.19784293671E+01  0.10841328574E+00 -0.74695684805E+01  0.78315572836E+01  0.12700000000E+01 0. -1.
         -4    1    1    2    0  501 -0.19784293671E+01 -0.10841328574E+00 -0.74979562648E+01  0.78586375632E+01  0.12700000000E+01 0.  1.
<mgrwt>
<rscale>  0 0.23534732E+01</rscale>
<asrwt>0</asrwt>
<pdfrwt beam="1">0</pdfrwt>
<pdfrwt beam="2">0</pdfrwt>
<totfact> 0.29834050E+12</totfact>
</mgrwt>
</event>
<event>
 4    1  0.1699693E+006  0.2317845E+01  0.7546771E-02  0.2794724E+00
         22   -1    0    0    0    0  0.00000000000E+00  0.00000000000E+00  0.87752148193E+01  0.87752148193E+01  0.00000000000E+00 0.  1.
         22   -1    0    0    0    0 -0.00000000000E+00 -0.00000000000E+00 -0.11483808791E+01  0.11483808791E+01  0.00000000000E+00 0. -1.
          4    1    1    2  501    0  0.15730579889E+01 -0.11335750756E+01  0.72037449896E+01  0.75674530566E+01  0.12700000000E+01 0.  1.
         -4    1    1    2    0  501 -0.15730579889E+01  0.11335750756E+01  0.42308895056E+00  0.23561426418E+01  0.12700000000E+01 0. -1.
<mgrwt>
<rscale>  0 0.23178447E+01</rscale>
<asrwt>0</asrwt>
<pdfrwt beam="1">0</pdfrwt>
<pdfrwt beam="2">0</pdfrwt>
<totfact> 0.15861984E+12</totfact>
</mgrwt>
</event>
<event>
 4    1  0.1699693E+006  0.2212364E+01  0.7546771E-02  0.2850750E+00
         22   -1    0    0    0    0  0.00000000000E+00  0.00000000000E+00  0.67182904707E+00  0.67182904707E+00  0.00000000000E+00 0. -1.
         22   -1    0    0    0    0 -0.00000000000E+00 -0.00000000000E+00 -0.75019139301E+01  0.75019139301E+01  0.00000000000E+00 0.  1.
          4    1    1    2  501    0  0.46599116834E+00  0.17505731408E+01 -0.41093179018E+01  0.46670170033E+01  0.12700000000E+01 0. -1.
         -4    1    1    2    0  501 -0.46599116834E+00 -0.17505731408E+01 -0.27207669812E+01  0.35067259740E+01  0.12700000000E+01 0. -1.
<mgrwt>
<rscale>  0 0.22123639E+01</rscale>
<asrwt>0</asrwt>
<pdfrwt beam="1">0</pdfrwt>
<pdfrwt beam="2">0</pdfrwt>
<totfact> 0.35276598E+12</totfact>
</mgrwt>
</event>
<event>
 4    1  0.1699693E+006  0.2395934E+01  0.7546771E-02  0.2756266E+00
         22   -1    0    0    0    0  0.00000000000E+00  0.00000000000E+00  0.33530612120E+01  0.33530612120E+01  0.00000000000E+00 0. -1.
         22   -1    0    0    0    0 -0.00000000000E+00 -0.00000000000E+00 -0.26808963886E+01  0.26808963886E+01  0.00000000000E+00 0.  1.
          4    1    1    2  501    0 -0.59827135127E+00  0.19415646111E+01  0.21497881959E+01  0.32190201981E+01  0.12700000000E+01 0. -1.
         -4    1    1    2    0  501  0.59827135127E+00 -0.19415646111E+01 -0.14776233724E+01  0.28149374024E+01  0.12700000000E+01 0.  1.
<mgrwt>
<rscale>  0 0.23959344E+01</rscale>
<asrwt>0</asrwt>
<pdfrwt beam="1">0</pdfrwt>
<pdfrwt beam="2">0</pdfrwt>
<totfact> 0.18679288E+12</totfact>
</mgrwt>
</event>
<event>
 4    1  0.1699693E+006  0.2421063E+01  0.7546771E-02  0.2744388E+00
         22   -1    0    0    0    0  0.00000000000E+00  0.00000000000E+00  0.13625797173E+01  0.13625797173E+01  0.00000000000E+00 0.  1.
         22   -1    0    0    0    0 -0.00000000000E+00 -0.00000000000E+00 -0.52076506171E+01  0.52076506171E+01  0.00000000000E+00 0. -1.
          4    1    1    2  501    0 -0.43496511247E+00  0.20148075334E+01 -0.55241668312E+00  0.24832857744E+01  0.12700000000E+01 0.  1.
         -4    1    1    2    0  501  0.43496511247E+00 -0.20148075334E+01 -0.32926542167E+01  0.40869445600E+01  0.12700000000E+01 0. -1.
<mgrwt>
<rscale>  0 0.24210626E+01</rscale>
<asrwt>0</asrwt>
<pdfrwt beam="1">0</pdfrwt>
<pdfrwt beam="2">0</pdfrwt>
<totfact> 0.24321927E+12</totfact>
</mgrwt>
</event>
<event>
 4    1  0.1699693E+006  0.2195523E+01  0.7546771E-02  0.2860170E+00
         22   -1    0    0    0    0  0.00000000000E+00  0.00000000000E+00  0.47363537843E+00  0.47363537843E+00  0.00000000000E+00 0. -1.
         22   -1    0    0    0    0 -0.00000000000E+00 -0.00000000000E+00 -0.58706545673E+02  0.58706545673E+02  0.00000000000E+00 0. -1.
          4    1    1    2  501    0  0.18086582200E+00  0.17817711761E+01 -0.22131969450E+01  0.31174607755E+01  0.12700000000E+01 0. -1.
         -4    1    1    2    0  501 -0.18086582200E+00 -0.17817711761E+01 -0.56019713350E+02  0.56062720276E+02  0.12700000000E+01 0. -1.
<mgrwt>
<rscale>  0 0.21955229E+01</rscale>
<asrwt>0</asrwt>
<pdfrwt beam="1">0</pdfrwt>
<pdfrwt beam="2">0</pdfrwt>
<totfact> 0.39565146E+11</totfact>
</mgrwt>
</event>
<event>
 4    1  0.1699693E+006  0.2490747E+01  0.7546771E-02  0.2712623E+00
         22   -1    0    0    0    0  0.00000000000E+00  0.00000000000E+00  0.12366881869E+01  0.12366881869E+01  0.00000000000E+00 0.  1.
         22   -1    0    0    0    0 -0.00000000000E+00 -0.00000000000E+00 -0.58058843827E+01  0.58058843827E+01  0.00000000000E+00 0.  1.
          4    1    1    2  501    0  0.62846682138E+00  0.20484022531E+01 -0.98617349336E+00  0.26788729898E+01  0.12700000000E+01 0.  1.
         -4    1    1    2    0  501 -0.62846682138E+00 -0.20484022531E+01 -0.35830227025E+01  0.43636995798E+01  0.12700000000E+01 0.  1.
<mgrwt>
<rscale>  0 0.24907473E+01</rscale>
<asrwt>0</asrwt>
<pdfrwt beam="1">0</pdfrwt>
<pdfrwt beam="2">0</pdfrwt>
<totfact> 0.23891191E+12</totfact>
</mgrwt>
</event>
<event>
 4    1  0.1699693E+006  0.2341472E+01  0.7546771E-02  0.2782833E+00
         22   -1    0    0    0    0  0.00000000000E+00  0.00000000000E+00  0.79314599933E+01  0.79314599933E+01  0.00000000000E+00 0.  1.
         22   -1    0    0    0    0 -0.00000000000E+00 -0.00000000000E+00 -0.83851609064E+00  0.83851609064E+00  0.00000000000E+00 0. -1.
          4    1    1    2  501    0  0.19114966642E+01  0.46451394329E+00  0.17087149904E+01  0.28986547948E+01  0.12700000000E+01 0. -1.
         -4    1    1    2    0  501 -0.19114966642E+01 -0.46451394329E+00  0.53842289122E+01  0.58713212891E+01  0.12700000000E+01 0.  1.
<mgrwt>
<rscale>  0 0.23414723E+01</rscale>
<asrwt>0</asrwt>
<pdfrwt beam="1">0</pdfrwt>
<pdfrwt beam="2">0</pdfrwt>
<totfact> 0.25650543E+12</totfact>
</mgrwt>
</event>
<event>
 4    1  0.1699693E+006  0.2523827E+01  0.7546771E-02  0.2698118E+00
         22   -1    0    0    0    0  0.00000000000E+00  0.00000000000E+00  0.13387415409E+01  0.13387415409E+01  0.00000000000E+00 0. -1.
         22   -1    0    0    0    0 -0.00000000000E+00 -0.00000000000E+00 -0.12033293548E+02  0.12033293548E+02  0.00000000000E+00 0.  1.
          4    1    1    2  501    0  0.17475566319E+01  0.13049317463E+01 -0.14849872001E+00  0.25281916292E+01  0.12700000000E+01 0. -1.
         -4    1    1    2    0  501 -0.17475566319E+01 -0.13049317463E+01 -0.10546053287E+02  0.10843843460E+02  0.12700000000E+01 0.  1.
<mgrwt>
<rscale>  0 0.25238267E+01</rscale>
<asrwt>0</asrwt>
<pdfrwt beam="1">0</pdfrwt>
<pdfrwt beam="2">0</pdfrwt>
<totfact> 0.90735610E+11</totfact>
</mgrwt>
</event>
<event>
 4    1  0.1699693E+006  0.2478201E+01  0.7546771E-02  0.2718219E+00
         22   -1    0    0    0    0  0.00000000000E+00  0.00000000000E+00  0.36350386491E+01  0.36350386491E+01  0.00000000000E+00 0. -1.
         22   -1    0    0    0    0 -0.00000000000E+00 -0.00000000000E+00 -0.17640363328E+01  0.17640363328E+01  0.00000000000E+00 0.  1.
          4    1    1    2  501    0  0.21064620783E+01  0.30231895984E+00  0.14903239951E+01  0.28918065031E+01  0.12700000000E+01 0.  1.
         -4    1    1    2    0  501 -0.21064620783E+01 -0.30231895984E+00  0.38067832125E+00  0.25072684788E+01  0.12700000000E+01 0. -1.
<mgrwt>
<rscale>  0 0.24782008E+01</rscale>
<asrwt>0</asrwt>
<pdfrwt beam="1">0</pdfrwt>
<pdfrwt beam="2">0</pdfrwt>
<totfact> 0.27607684E+12</totfact>
</mgrwt>
</event>
<event>
 4    1  0.1699693E+006  0.2157764E+01  0.7546771E-02  0.2881803E+00
         22   -1    0    0    0    0  0.00000000000E+00  0.00000000000E+00  0.43101644428E+01  0.43101644428E+01  0.00000000000E+00 0. -1.
         22   -1    0    0    0    0 -0.00000000000E+00 -0.00000000000E+00 -0.34323555293E+01  0.34323555293E+01  0.00000000000E+00 0.  1.
          4    1    1    2  501    0  0.33158869638E+00 -0.17126285080E+01  0.36436010081E+01  0.42345927521E+01  0.12700000000E+01 0. -1.
         -4    1    1    2    0  501 -0.33158869638E+00  0.17126285080E+01 -0.27657920946E+01  0.35079272200E+01  0.12700000000E+01 0.  1.
<mgrwt>
<rscale>  0 0.21577645E+01</rscale>
<asrwt>0</asrwt>
<pdfrwt beam="1">0</pdfrwt>
<pdfrwt beam="2">0</pdfrwt>
<totfact> 0.10418062E+12</totfact>
</mgrwt>
</event>
<event>
 4    1  0.1699693E+006  0.2321905E+01  0.7546771E-02  0.2792665E+00
         22   -1    0    0    0    0  0.00000000000E+00  0.00000000000E+00  0.77135618199E+00  0.77135618199E+00  0.00000000000E+00 0. -1.
         22   -1    0    0    0    0 -0.00000000000E+00 -0.00000000000E+00 -0.84278356266E+01  0.84278356266E+01  0.00000000000E+00 0.  1.
          4    1    1    2  501    0  0.19318943604E+01 -0.21477087444E+00 -0.57285366023E+01  0.61812113661E+01  0.12700000000E+01 0.  1.
         -4    1    1    2    0  501 -0.19318943604E+01  0.21477087444E+00 -0.19279428423E+01  0.30179804425E+01  0.12700000000E+01 0. -1.
<mgrwt>
<rscale>  0 0.23219049E+01</rscale>
<asrwt>0</asrwt>
<pdfrwt beam="1">0</pdfrwt>
<pdfrwt beam="2">0</pdfrwt>
<totfact> 0.26220925E+12</totfact>
</mgrwt>
</event>
<event>
 4    1  0.1699693E+006  0.2986857E+01  0.7546771E-02  0.2526350E+00
         22   -1    0    0    0    0  0.00000000000E+00  0.00000000000E+00  0.45029606652E+00  0.45029606652E+00  0.00000000000E+00 0.  1.
         22   -1    0    0    0    0 -0.00000000000E+00 -0.00000000000E+00 -0.21306808456E+02  0.21306808456E+02  0.00000000000E+00 0. -1.
          4    1    1    2  501    0  0.77437915705E+00  0.25901261053E+01 -0.75469571580E+01  0.81165188760E+01  0.12700000000E+01 0.  1.
         -4    1    1    2    0  501 -0.77437915705E+00 -0.25901261053E+01 -0.13309555232E+02  0.13640585647E+02  0.12700000000E+01 0.  1.
<mgrwt>
<rscale>  0 0.29868573E+01</rscale>
<asrwt>0</asrwt>
<pdfrwt beam="1">0</pdfrwt>
<pdfrwt beam="2">0</pdfrwt>
<totfact> 0.15475135E+12</totfact>
</mgrwt>
</event>
<event>
 4    1  0.1699693E+006  0.2030377E+01  0.7546771E-02  0.2960517E+00
         22   -1    0    0    0    0  0.00000000000E+00  0.00000000000E+00  0.17430365753E+00  0.17430365753E+00  0.00000000000E+00 0.  1.
         22   -1    0    0    0    0 -0.00000000000E+00 -0.00000000000E+00 -0.24937113566E+02  0.24937113566E+02  0.00000000000E+00 0. -1.
          4    1    1    2  501    0  0.76029914375E+00 -0.13897748277E+01 -0.95298358894E+01  0.97437262347E+01  0.12700000000E+01 0.  1.
         -4    1    1    2    0  501 -0.76029914375E+00  0.13897748277E+01 -0.15232974019E+02  0.15367690988E+02  0.12700000000E+01 0. -1.
<mgrwt>
<rscale>  0 0.20303765E+01</rscale>
<asrwt>0</asrwt>
<pdfrwt beam="1">0</pdfrwt>
<pdfrwt beam="2">0</pdfrwt>
<totfact> 0.36776621E+12</totfact>
</mgrwt>
</event>
<event>
 4    1  0.1699693E+006  0.2126014E+01  0.7546771E-02  0.2900566E+00
         22   -1    0    0    0    0  0.00000000000E+00  0.00000000000E+00  0.30616781096E+00  0.30616781096E+00  0.00000000000E+00 0. -1.
         22   -1    0    0    0    0 -0.00000000000E+00 -0.00000000000E+00 -0.18079762126E+02  0.18079762126E+02  0.00000000000E+00 0.  1.
          4    1    1    2  501    0 -0.15402490995E+01 -0.73121072257E+00 -0.49492980241E+01  0.53866025787E+01  0.12700000000E+01 0. -1.
         -4    1    1    2    0  501  0.15402490995E+01  0.73121072257E+00 -0.12824296291E+02  0.12999327358E+02  0.12700000000E+01 0.  1.
<mgrwt>
<rscale>  0 0.21260142E+01</rscale>
<asrwt>0</asrwt>
<pdfrwt beam="1">0</pdfrwt>
<pdfrwt beam="2">0</pdfrwt>
<totfact> 0.29299105E+12</totfact>
</mgrwt>
</event>
<event>
 4    1  0.1699693E+006  0.2266783E+01  0.7546771E-02  0.2821225E+00
         22   -1    0    0    0    0  0.00000000000E+00  0.00000000000E+00  0.14260673130E+00  0.14260673130E+00  0.00000000000E+00 0. -1.
         22   -1    0    0    0    0 -0.00000000000E+00 -0.00000000000E+00 -0.62752726720E+02  0.62752726720E+02  0.00000000000E+00 0.  1.
          4    1    1    2  501    0  0.18771899569E+01 -0.39539054630E-01 -0.10783896795E+02  0.11019561495E+02  0.12700000000E+01 0. -1.
         -4    1    1    2    0  501 -0.18771899569E+01  0.39539054630E-01 -0.51826223194E+02  0.51875771956E+02  0.12700000000E+01 0.  1.
<mgrwt>
<rscale>  0 0.22667831E+01</rscale>
<asrwt>0</asrwt>
<pdfrwt beam="1">0</pdfrwt>
<pdfrwt beam="2">0</pdfrwt>
<totfact> 0.13869840E+12</totfact>
</mgrwt>
</event>
<event>
 4    1  0.1699693E+006  0.4854471E+01  0.7546771E-02  0.2140786E+00
         22   -1    0    0    0    0  0.00000000000E+00  0.00000000000E+00  0.10735791377E+02  0.10735791377E+02  0.00000000000E+00 0.  1.
         22   -1    0    0    0    0 -0.00000000000E+00 -0.00000000000E+00 -0.25257373426E+01  0.25257373426E+01  0.00000000000E+00 0. -1.
          4    1    1    2  501    0 -0.82364552797E+00  0.46124396904E+01  0.65041933935E+01  0.81160596076E+01  0.12700000000E+01 0.  1.
         -4    1    1    2    0  501  0.82364552797E+00 -0.46124396904E+01  0.17058606406E+01  0.51454691116E+01  0.12700000000E+01 0. -1.
<mgrwt>
<rscale>  0 0.48544713E+01</rscale>
<asrwt>0</asrwt>
<pdfrwt beam="1">0</pdfrwt>
<pdfrwt beam="2">0</pdfrwt>
<totfact> 0.50062666E+11</totfact>
</mgrwt>
</event>
<event>
 4    1  0.1699693E+006  0.2616398E+01  0.7546771E-02  0.2659337E+00
         22   -1    0    0    0    0  0.00000000000E+00  0.00000000000E+00  0.50136723602E+02  0.50136723602E+02  0.00000000000E+00 0.  1.
         22   -1    0    0    0    0 -0.00000000000E+00 -0.00000000000E+00 -0.13685518193E+00  0.13685518193E+00  0.00000000000E+00 0. -1.
          4    1    1    2  501    0 -0.16379278961E+01 -0.15968182150E+01  0.26211275945E+02  0.26341536076E+02  0.12700000000E+01 0.  1.
         -4    1    1    2    0  501  0.16379278961E+01  0.15968182150E+01  0.23788592475E+02  0.23932042708E+02  0.12700000000E+01 0. -1.
<mgrwt>
<rscale>  0 0.26163976E+01</rscale>
<asrwt>0</asrwt>
<pdfrwt beam="1">0</pdfrwt>
<pdfrwt beam="2">0</pdfrwt>
<totfact> 0.19575140E+12</totfact>
</mgrwt>
</event>
<event>
 4    1  0.1699693E+006  0.2678061E+01  0.7546771E-02  0.2634879E+00
         22   -1    0    0    0    0  0.00000000000E+00  0.00000000000E+00  0.38512794824E+01  0.38512794824E+01  0.00000000000E+00 0.  1.
         22   -1    0    0    0    0 -0.00000000000E+00 -0.00000000000E+00 -0.19335730381E+01  0.19335730381E+01  0.00000000000E+00 0. -1.
          4    1    1    2  501    0 -0.15017728186E-01  0.23577293871E+01  0.15144018461E+01  0.30765933021E+01  0.12700000000E+01 0.  1.
         -4    1    1    2    0  501  0.15017728186E-01 -0.23577293871E+01  0.40330459816E+00  0.27082592184E+01  0.12700000000E+01 0. -1.
<mgrwt>
<rscale>  0 0.26780615E+01</rscale>
<asrwt>0</asrwt>
<pdfrwt beam="1">0</pdfrwt>
<pdfrwt beam="2">0</pdfrwt>
<totfact> 0.23200915E+12</totfact>
</mgrwt>
</event>
<event>
 4    1  0.1699693E+006  0.2043457E+01  0.7546771E-02  0.2951995E+00
         22   -1    0    0    0    0  0.00000000000E+00  0.00000000000E+00  0.48285622953E+01  0.48285622953E+01  0.00000000000E+00 0.  1.
         22   -1    0    0    0    0 -0.00000000000E+00 -0.00000000000E+00 -0.88165257345E+00  0.88165257345E+00  0.00000000000E+00 0.  1.
          4    1    1    2  501    0  0.13690679156E+00 -0.15950152943E+01  0.23682477319E+01  0.31279889032E+01  0.12700000000E+01 0.  1.
         -4    1    1    2    0  501 -0.13690679156E+00  0.15950152943E+01  0.15786619899E+01  0.25822259656E+01  0.12700000000E+01 0.  1.
<mgrwt>
<rscale>  0 0.20434572E+01</rscale>
<asrwt>0</asrwt>
<pdfrwt beam="1">0</pdfrwt>
<pdfrwt beam="2">0</pdfrwt>
<totfact> 0.43762375E+12</totfact>
</mgrwt>
</event>
<event>
 4    1  0.1699693E+006  0.2785055E+01  0.7546771E-02  0.2594803E+00
         22   -1    0    0    0    0  0.00000000000E+00  0.00000000000E+00  0.88825160784E+00  0.88825160784E+00  0.00000000000E+00 0.  1.
         22   -1    0    0    0    0 -0.00000000000E+00 -0.00000000000E+00 -0.90614165867E+01  0.90614165867E+01  0.00000000000E+00 0.  1.
          4    1    1    2  501    0  0.55180857436E+00  0.24164309482E+01 -0.50346014468E+01  0.57535852265E+01  0.12700000000E+01 0.  1.
         -4    1    1    2    0  501 -0.55180857436E+00 -0.24164309482E+01 -0.31385635320E+01  0.41960829680E+01  0.12700000000E+01 0.  1.
<mgrwt>
<rscale>  0 0.27850550E+01</rscale>
<asrwt>0</asrwt>
<pdfrwt beam="1">0</pdfrwt>
<pdfrwt beam="2">0</pdfrwt>
<totfact> 0.20463220E+12</totfact>
</mgrwt>
</event>
<event>
 4    1  0.1699693E+006  0.2446441E+01  0.7546771E-02  0.2732624E+00
         22   -1    0    0    0    0  0.00000000000E+00  0.00000000000E+00  0.28729023715E+00  0.28729023715E+00  0.00000000000E+00 0.  1.
         22   -1    0    0    0    0 -0.00000000000E+00 -0.00000000000E+00 -0.21817811635E+02  0.21817811635E+02  0.00000000000E+00 0. -1.
          4    1    1    2  501    0 -0.20829301674E+01 -0.18323168938E+00 -0.84168800465E+01  0.87652120140E+01  0.12700000000E+01 0. -1.
         -4    1    1    2    0  501  0.20829301674E+01  0.18323168938E+00 -0.13113641351E+02  0.13339889858E+02  0.12700000000E+01 0.  1.
<mgrwt>
<rscale>  0 0.24464407E+01</rscale>
<asrwt>0</asrwt>
<pdfrwt beam="1">0</pdfrwt>
<pdfrwt beam="2">0</pdfrwt>
<totfact> 0.24895317E+12</totfact>
</mgrwt>
</event>
<event>
 4    1  0.1699693E+006  0.2000211E+01  0.7546771E-02  0.2980586E+00
         22   -1    0    0    0    0  0.00000000000E+00  0.00000000000E+00  0.12342244771E+01  0.12342244771E+01  0.00000000000E+00 0.  1.
         22   -1    0    0    0    0 -0.00000000000E+00 -0.00000000000E+00 -0.10776807457E+02  0.10776807457E+02  0.00000000000E+00 0. -1.
          4    1    1    2  501    0 -0.13820347895E+01  0.69132098307E+00  0.25043751680E+00  0.20158283188E+01  0.12700000000E+01 0.  1.
         -4    1    1    2    0  501  0.13820347895E+01 -0.69132098307E+00 -0.97930204969E+01  0.99952036154E+01  0.12700000000E+01 0. -1.
<mgrwt>
<rscale>  0 0.20002112E+01</rscale>
<asrwt>0</asrwt>
<pdfrwt beam="1">0</pdfrwt>
<pdfrwt beam="2">0</pdfrwt>
<totfact> 0.11389671E+12</totfact>
</mgrwt>
</event>
<event>
 4    1  0.1699693E+006  0.2076278E+01  0.7546771E-02  0.2931073E+00
         22   -1    0    0    0    0  0.00000000000E+00  0.00000000000E+00  0.12118581271E+01  0.12118581271E+01  0.00000000000E+00 0. -1.
         22   -1    0    0    0    0 -0.00000000000E+00 -0.00000000000E+00 -0.35799893322E+01  0.35799893322E+01  0.00000000000E+00 0.  1.
          4    1    1    2  501    0  0.13344306748E+01 -0.95777083209E+00 -0.13748502544E+01  0.24902095122E+01  0.12700000000E+01 0. -1.
         -4    1    1    2    0  501 -0.13344306748E+01  0.95777083209E+00 -0.99328095072E+00  0.23016379471E+01  0.12700000000E+01 0. -1.
<mgrwt>
<rscale>  0 0.20762780E+01</rscale>
<asrwt>0</asrwt>
<pdfrwt beam="1">0</pdfrwt>
<pdfrwt beam="2">0</pdfrwt>
<totfact> 0.43282086E+12</totfact>
</mgrwt>
</event>
<event>
 4    1  0.1699693E+006  0.2008058E+01  0.7546771E-02  0.2975309E+00
         22   -1    0    0    0    0  0.00000000000E+00  0.00000000000E+00  0.56286081899E-01  0.56286081899E-01  0.00000000000E+00 0. -1.
         22   -1    0    0    0    0 -0.00000000000E+00 -0.00000000000E+00 -0.82502770343E+02  0.82502770343E+02  0.00000000000E+00 0. -1.
          4    1    1    2  501    0  0.13743390266E+01  0.72841671840E+00 -0.26244214381E+02  0.26320924892E+02  0.12700000000E+01 0. -1.
         -4    1    1    2    0  501 -0.13743390266E+01 -0.72841671840E+00 -0.56202269880E+02  0.56238131533E+02  0.12700000000E+01 0. -1.
<mgrwt>
<rscale>  0 0.20080584E+01</rscale>
<asrwt>0</asrwt>
<pdfrwt beam="1">0</pdfrwt>
<pdfrwt beam="2">0</pdfrwt>
<totfact> 0.26718306E+12</totfact>
</mgrwt>
</event>
<event>
 4    1  0.1699693E+006  0.2182272E+01  0.7546771E-02  0.2867680E+00
         22   -1    0    0    0    0  0.00000000000E+00  0.00000000000E+00  0.11747783802E+02  0.11747783802E+02  0.00000000000E+00 0.  1.
         22   -1    0    0    0    0 -0.00000000000E+00 -0.00000000000E+00 -0.65227459167E+00  0.65227459167E+00  0.00000000000E+00 0. -1.
          4    1    1    2  501    0  0.96848603871E+00 -0.14870929923E+01  0.93622292123E+01  0.96132016830E+01  0.12700000000E+01 0.  1.
         -4    1    1    2    0  501 -0.96848603871E+00  0.14870929923E+01  0.17332799984E+01  0.27868567110E+01  0.12700000000E+01 0. -1.
<mgrwt>
<rscale>  0 0.21822719E+01</rscale>
<asrwt>0</asrwt>
<pdfrwt beam="1">0</pdfrwt>
<pdfrwt beam="2">0</pdfrwt>
<totfact> 0.21216747E+12</totfact>
</mgrwt>
</event>
<event>
 4    1  0.1699693E+006  0.2332916E+01  0.7546771E-02  0.2787113E+00
         22   -1    0    0    0    0  0.00000000000E+00  0.00000000000E+00  0.33865286082E+00  0.33865286082E+00  0.00000000000E+00 0.  1.
         22   -1    0    0    0    0 -0.00000000000E+00 -0.00000000000E+00 -0.20390612968E+02  0.20390612968E+02  0.00000000000E+00 0.  1.
          4    1    1    2  501    0  0.14084038034E+01 -0.13586734617E+01 -0.52555173848E+01  0.57500398112E+01  0.12700000000E+01 0.  1.
         -4    1    1    2    0  501 -0.14084038034E+01  0.13586734617E+01 -0.14796442722E+02  0.14979226017E+02  0.12700000000E+01 0.  1.
<mgrwt>
<rscale>  0 0.23329155E+01</rscale>
<asrwt>0</asrwt>
<pdfrwt beam="1">0</pdfrwt>
<pdfrwt beam="2">0</pdfrwt>
<totfact> 0.22527345E+12</totfact>
</mgrwt>
</event>
<event>
 4    1  0.1699693E+006  0.2875749E+01  0.7546771E-02  0.2562965E+00
         22   -1    0    0    0    0  0.00000000000E+00  0.00000000000E+00  0.28519542855E+01  0.28519542855E+01  0.00000000000E+00 0. -1.
         22   -1    0    0    0    0 -0.00000000000E+00 -0.00000000000E+00 -0.43362759979E+01  0.43362759979E+01  0.00000000000E+00 0. -1.
          4    1    1    2  501    0 -0.65105710022E+00  0.24966291451E+01  0.13265102051E+01  0.31669483356E+01  0.12700000000E+01 0. -1.
         -4    1    1    2    0  501  0.65105710022E+00 -0.24966291451E+01 -0.28108319175E+01  0.40212819479E+01  0.12700000000E+01 0. -1.
<mgrwt>
<rscale>  0 0.28757490E+01</rscale>
<asrwt>0</asrwt>
<pdfrwt beam="1">0</pdfrwt>
<pdfrwt beam="2">0</pdfrwt>
<totfact> 0.12847003E+12</totfact>
</mgrwt>
</event>
<event>
 4    1  0.1699693E+006  0.3114277E+01  0.7546771E-02  0.2487256E+00
         22   -1    0    0    0    0  0.00000000000E+00  0.00000000000E+00  0.21399195311E+01  0.21399195311E+01  0.00000000000E+00 0. -1.
         22   -1    0    0    0    0 -0.00000000000E+00 -0.00000000000E+00 -0.11931749533E+02  0.11931749533E+02  0.00000000000E+00 0.  1.
          4    1    1    2  501    0 -0.13734617708E+01 -0.24898638729E+01  0.64477407509E+00  0.31803227744E+01  0.12700000000E+01 0. -1.
         -4    1    1    2    0  501  0.13734617708E+01  0.24898638729E+01 -0.10436604077E+02  0.10891346290E+02  0.12700000000E+01 0.  1.
<mgrwt>
<rscale>  0 0.31142767E+01</rscale>
<asrwt>0</asrwt>
<pdfrwt beam="1">0</pdfrwt>
<pdfrwt beam="2">0</pdfrwt>
<totfact> 0.53371466E+11</totfact>
</mgrwt>
</event>
<event>
 4    1  0.1699693E+006  0.2124539E+01  0.7546771E-02  0.2901451E+00
         22   -1    0    0    0    0  0.00000000000E+00  0.00000000000E+00  0.20882683877E+01  0.20882683877E+01  0.00000000000E+00 0. -1.
         22   -1    0    0    0    0 -0.00000000000E+00 -0.00000000000E+00 -0.50508763323E+01  0.50508763323E+01  0.00000000000E+00 0. -1.
          4    1    1    2  501    0  0.23630625733E+00 -0.16866901547E+01  0.12185450400E+01  0.24491868732E+01  0.12700000000E+01 0. -1.
         -4    1    1    2    0  501 -0.23630625733E+00  0.16866901547E+01 -0.41811529845E+01  0.46899578469E+01  0.12700000000E+01 0. -1.
<mgrwt>
<rscale>  0 0.21245386E+01</rscale>
<asrwt>0</asrwt>
<pdfrwt beam="1">0</pdfrwt>
<pdfrwt beam="2">0</pdfrwt>
<totfact> 0.15411233E+12</totfact>
</mgrwt>
</event>
<event>
 4    1  0.1699693E+006  0.2798393E+01  0.7546771E-02  0.2590004E+00
         22   -1    0    0    0    0  0.00000000000E+00  0.00000000000E+00  0.21779643593E+01  0.21779643593E+01  0.00000000000E+00 0.  1.
         22   -1    0    0    0    0 -0.00000000000E+00 -0.00000000000E+00 -0.37949771642E+01  0.37949771642E+01  0.00000000000E+00 0. -1.
          4    1    1    2  501    0  0.20993066047E+01  0.13457387571E+01 -0.14931037408E+01  0.31718070250E+01  0.12700000000E+01 0.  1.
         -4    1    1    2    0  501 -0.20993066047E+01 -0.13457387571E+01 -0.12390906416E+00  0.28011344986E+01  0.12700000000E+01 0. -1.
<mgrwt>
<rscale>  0 0.27983926E+01</rscale>
<asrwt>0</asrwt>
<pdfrwt beam="1">0</pdfrwt>
<pdfrwt beam="2">0</pdfrwt>
<totfact> 0.20566587E+12</totfact>
</mgrwt>
</event>
<event>
 4    1  0.1699693E+006  0.2568796E+01  0.7546771E-02  0.2678956E+00
         22   -1    0    0    0    0  0.00000000000E+00  0.00000000000E+00  0.15122406514E+02  0.15122406514E+02  0.00000000000E+00 0. -1.
         22   -1    0    0    0    0 -0.00000000000E+00 -0.00000000000E+00 -0.80609384803E+00  0.80609384803E+00  0.00000000000E+00 0.  1.
          4    1    1    2  501    0  0.87628264470E+00 -0.20537625108E+01  0.12552028395E+02  0.12812186720E+02  0.12700000000E+01 0. -1.
         -4    1    1    2    0  501 -0.87628264470E+00  0.20537625108E+01  0.17642842705E+01  0.31163136414E+01  0.12700000000E+01 0.  1.
<mgrwt>
<rscale>  0 0.25687958E+01</rscale>
<asrwt>0</asrwt>
<pdfrwt beam="1">0</pdfrwt>
<pdfrwt beam="2">0</pdfrwt>
<totfact> 0.12245298E+12</totfact>
</mgrwt>
</event>
<event>
 4    1  0.1699693E+006  0.7521653E+01  0.7546771E-02  0.1905210E+00
         22   -1    0    0    0    0  0.00000000000E+00  0.00000000000E+00  0.57417033312E+02  0.57417033312E+02  0.00000000000E+00 0.  1.
         22   -1    0    0    0    0 -0.00000000000E+00 -0.00000000000E+00 -0.13104248366E+01  0.13104248366E+01  0.00000000000E+00 0. -1.
          4    1    1    2  501    0 -0.72455757688E+01 -0.15697132391E+01  0.42678573682E+02  0.43336311789E+02  0.12700000000E+01 0.  1.
         -4    1    1    2    0  501  0.72455757688E+01  0.15697132391E+01  0.13428034792E+02  0.15391146360E+02  0.12700000000E+01 0. -1.
<mgrwt>
<rscale>  0 0.75216533E+01</rscale>
<asrwt>0</asrwt>
<pdfrwt beam="1">0</pdfrwt>
<pdfrwt beam="2">0</pdfrwt>
<totfact> 0.12807834E+11</totfact>
</mgrwt>
</event>
<event>
 4    1  0.1699693E+006  0.2193105E+01  0.7546771E-02  0.2861534E+00
         22   -1    0    0    0    0  0.00000000000E+00  0.00000000000E+00  0.18403956513E+01  0.18403956513E+01  0.00000000000E+00 0.  1.
         22   -1    0    0    0    0 -0.00000000000E+00 -0.00000000000E+00 -0.26485472805E+01  0.26485472805E+01  0.00000000000E+00 0.  1.
          4    1    1    2  501    0  0.17051052718E+01 -0.53798212966E+00 -0.14555644696E+00  0.21979298076E+01  0.12700000000E+01 0.  1.
         -4    1    1    2    0  501 -0.17051052718E+01  0.53798212966E+00 -0.66259518229E+00  0.22910131242E+01  0.12700000000E+01 0.  1.
<mgrwt>
<rscale>  0 0.21931048E+01</rscale>
<asrwt>0</asrwt>
<pdfrwt beam="1">0</pdfrwt>
<pdfrwt beam="2">0</pdfrwt>
<totfact> 0.38064895E+12</totfact>
</mgrwt>
</event>
<event>
 4    1  0.1699693E+006  0.2588307E+01  0.7546771E-02  0.2670834E+00
         22   -1    0    0    0    0  0.00000000000E+00  0.00000000000E+00  0.91233797761E+00  0.91233797761E+00  0.00000000000E+00 0. -1.
         22   -1    0    0    0    0 -0.00000000000E+00 -0.00000000000E+00 -0.77461936582E+01  0.77461936582E+01  0.00000000000E+00 0. -1.
          4    1    1    2  501    0 -0.16350434906E+00 -0.22493774041E+01 -0.44045856278E+01  0.51087872270E+01  0.12700000000E+01 0. -1.
         -4    1    1    2    0  501  0.16350434906E+00  0.22493774041E+01 -0.24292700527E+01  0.35497444088E+01  0.12700000000E+01 0. -1.
<mgrwt>
<rscale>  0 0.25883069E+01</rscale>
<asrwt>0</asrwt>
<pdfrwt beam="1">0</pdfrwt>
<pdfrwt beam="2">0</pdfrwt>
<totfact> 0.23970707E+12</totfact>
</mgrwt>
</event>
<event>
 4    1  0.1699693E+006  0.2912364E+01  0.7546771E-02  0.2550620E+00
         22   -1    0    0    0    0  0.00000000000E+00  0.00000000000E+00  0.54135850709E+01  0.54135850709E+01  0.00000000000E+00 0. -1.
         22   -1    0    0    0    0 -0.00000000000E+00 -0.00000000000E+00 -0.15752111935E+01  0.15752111935E+01  0.00000000000E+00 0. -1.
          4    1    1    2  501    0 -0.49312560569E+00 -0.25740614815E+01  0.16634478806E+01  0.33539415953E+01  0.12700000000E+01 0. -1.
         -4    1    1    2    0  501  0.49312560569E+00  0.25740614815E+01  0.21749259969E+01  0.36348546691E+01  0.12700000000E+01 0. -1.
<mgrwt>
<rscale>  0 0.29123642E+01</rscale>
<asrwt>0</asrwt>
<pdfrwt beam="1">0</pdfrwt>
<pdfrwt beam="2">0</pdfrwt>
<totfact> 0.19660858E+12</totfact>
</mgrwt>
</event>
<event>
 4    1  0.1699693E+006  0.2096719E+01  0.7546771E-02  0.2918366E+00
         22   -1    0    0    0    0  0.00000000000E+00  0.00000000000E+00  0.26108912177E+01  0.26108912177E+01  0.00000000000E+00 0. -1.
         22   -1    0    0    0    0 -0.00000000000E+00 -0.00000000000E+00 -0.23525559096E+01  0.23525559096E+01  0.00000000000E+00 0.  1.
          4    1    1    2  501    0  0.16672977628E+01  0.58708171222E-01  0.14523387926E+01  0.25505913918E+01  0.12700000000E+01 0. -1.
         -4    1    1    2    0  501 -0.16672977628E+01 -0.58708171222E-01 -0.11940034845E+01  0.24128557355E+01  0.12700000000E+01 0.  1.
<mgrwt>
<rscale>  0 0.20967185E+01</rscale>
<asrwt>0</asrwt>
<pdfrwt beam="1">0</pdfrwt>
<pdfrwt beam="2">0</pdfrwt>
<totfact> 0.29122681E+12</totfact>
</mgrwt>
</event>
<event>
 4    1  0.1699693E+006  0.2748579E+01  0.7546771E-02  0.2608146E+00
         22   -1    0    0    0    0  0.00000000000E+00  0.00000000000E+00  0.25385985383E+02  0.25385985383E+02  0.00000000000E+00 0. -1.
         22   -1    0    0    0    0 -0.00000000000E+00 -0.00000000000E+00 -0.33675163131E+00  0.33675163131E+00  0.00000000000E+00 0.  1.
          4    1    1    2  501    0  0.13821316436E+01 -0.20078586856E+01  0.81388287729E+01  0.85904143193E+01  0.12700000000E+01 0. -1.
         -4    1    1    2    0  501 -0.13821316436E+01  0.20078586856E+01  0.16910404979E+02  0.17132322695E+02  0.12700000000E+01 0. -1.
<mgrwt>
<rscale>  0 0.27485786E+01</rscale>
<asrwt>0</asrwt>
<pdfrwt beam="1">0</pdfrwt>
<pdfrwt beam="2">0</pdfrwt>
<totfact> 0.17219701E+12</totfact>
</mgrwt>
</event>
<event>
 4    1  0.1699693E+006  0.2429672E+01  0.7546771E-02  0.2740371E+00
         22   -1    0    0    0    0  0.00000000000E+00  0.00000000000E+00  0.45386121773E+01  0.45386121773E+01  0.00000000000E+00 0. -1.
         22   -1    0    0    0    0 -0.00000000000E+00 -0.00000000000E+00 -0.15562676639E+01  0.15562676639E+01  0.00000000000E+00 0. -1.
          4    1    1    2  501    0 -0.20667174736E+01  0.13815400034E+00  0.27261472553E+01  0.36517374633E+01  0.12700000000E+01 0. -1.
         -4    1    1    2    0  501  0.20667174736E+01 -0.13815400034E+00  0.25619725807E+00  0.24431423778E+01  0.12700000000E+01 0. -1.
<mgrwt>
<rscale>  0 0.24296723E+01</rscale>
<asrwt>0</asrwt>
<pdfrwt beam="1">0</pdfrwt>
<pdfrwt beam="2">0</pdfrwt>
<totfact> 0.24562404E+12</totfact>
</mgrwt>
</event>
<event>
 4    1  0.1699693E+006  0.2412141E+01  0.7546771E-02  0.2748579E+00
         22   -1    0    0    0    0  0.00000000000E+00  0.00000000000E+00  0.35685638659E+01  0.35685638659E+01  0.00000000000E+00 0. -1.
         22   -1    0    0    0    0 -0.00000000000E+00 -0.00000000000E+00 -0.16633687811E+01  0.16633687811E+01  0.00000000000E+00 0.  1.
          4    1    1    2  501    0  0.15846569637E+01  0.13016865568E+01  0.13205126714E+01  0.27499416903E+01  0.12700000000E+01 0.  1.
         -4    1    1    2    0  501 -0.15846569637E+01 -0.13016865568E+01  0.58468241345E+00  0.24819909568E+01  0.12700000000E+01 0.  1.
<mgrwt>
<rscale>  0 0.24121413E+01</rscale>
<asrwt>0</asrwt>
<pdfrwt beam="1">0</pdfrwt>
<pdfrwt beam="2">0</pdfrwt>
<totfact> 0.30190841E+12</totfact>
</mgrwt>
</event>
<event>
 4    1  0.1699693E+006  0.4332921E+01  0.7546771E-02  0.2217841E+00
         22   -1    0    0    0    0  0.00000000000E+00  0.00000000000E+00  0.10552535230E+03  0.10552535230E+03  0.00000000000E+00 0.  1.
         22   -1    0    0    0    0 -0.00000000000E+00 -0.00000000000E+00 -0.17796334666E+00  0.17796334666E+00  0.00000000000E+00 0. -1.
          4    1    1    2  501    0  0.74523279954E+00  0.40750379956E+01  0.53573078136E+02  0.53748013057E+02  0.12700000000E+01 0.  1.
         -4    1    1    2    0  501 -0.74523279954E+00 -0.40750379956E+01  0.51774310815E+02  0.51955302587E+02  0.12700000000E+01 0. -1.
<mgrwt>
<rscale>  0 0.43329213E+01</rscale>
<asrwt>0</asrwt>
<pdfrwt beam="1">0</pdfrwt>
<pdfrwt beam="2">0</pdfrwt>
<totfact> 0.52974326E+11</totfact>
</mgrwt>
</event>
<event>
 4    1  0.1699693E+006  0.2479109E+01  0.7546771E-02  0.2717812E+00
         22   -1    0    0    0    0  0.00000000000E+00  0.00000000000E+00  0.41848830942E+01  0.41848830942E+01  0.00000000000E+00 0.  1.
         22   -1    0    0    0    0 -0.00000000000E+00 -0.00000000000E+00 -0.16426973994E+01  0.16426973994E+01  0.00000000000E+00 0.  1.
          4    1    1    2  501    0 -0.21187487700E+01 -0.20973154331E+00  0.22196346167E+01  0.33275759198E+01  0.12700000000E+01 0.  1.
         -4    1    1    2    0  501  0.21187487700E+01  0.20973154331E+00  0.32255107804E+00  0.25000045737E+01  0.12700000000E+01 0.  1.
<mgrwt>
<rscale>  0 0.24791095E+01</rscale>
<asrwt>0</asrwt>
<pdfrwt beam="1">0</pdfrwt>
<pdfrwt beam="2">0</pdfrwt>
<totfact> 0.25397650E+12</totfact>
</mgrwt>
</event>
<event>
 4    1  0.1699693E+006  0.2080725E+01  0.7546771E-02  0.2928288E+00
         22   -1    0    0    0    0  0.00000000000E+00  0.00000000000E+00  0.18525881513E+00  0.18525881513E+00  0.00000000000E+00 0.  1.
         22   -1    0    0    0    0 -0.00000000000E+00 -0.00000000000E+00 -0.27323622519E+02  0.27323622519E+02  0.00000000000E+00 0. -1.
          4    1    1    2  501    0 -0.15823748842E+01 -0.46109265630E+00 -0.83368455993E+01  0.85925788479E+01  0.12700000000E+01 0.  1.
         -4    1    1    2    0  501  0.15823748842E+01  0.46109265630E+00 -0.18801518105E+02  0.18916302486E+02  0.12700000000E+01 0. -1.
<mgrwt>
<rscale>  0 0.20807250E+01</rscale>
<asrwt>0</asrwt>
<pdfrwt beam="1">0</pdfrwt>
<pdfrwt beam="2">0</pdfrwt>
<totfact> 0.30612614E+12</totfact>
</mgrwt>
</event>
<event>
 4    1  0.1699693E+006  0.2164073E+01  0.7546771E-02  0.2878138E+00
         22   -1    0    0    0    0  0.00000000000E+00  0.00000000000E+00  0.16394286123E+02  0.16394286123E+02  0.00000000000E+00 0.  1.
         22   -1    0    0    0    0 -0.00000000000E+00 -0.00000000000E+00 -0.58197711061E+00  0.58197711061E+00  0.00000000000E+00 0. -1.
          4    1    1    2  501    0 -0.16441279090E+01 -0.60593429541E+00  0.13962861603E+02  0.14129568892E+02  0.12700000000E+01 0.  1.
         -4    1    1    2    0  501  0.16441279090E+01  0.60593429541E+00  0.18494474102E+01  0.28466943416E+01  0.12700000000E+01 0. -1.
<mgrwt>
<rscale>  0 0.21640732E+01</rscale>
<asrwt>0</asrwt>
<pdfrwt beam="1">0</pdfrwt>
<pdfrwt beam="2">0</pdfrwt>
<totfact> 0.16041190E+12</totfact>
</mgrwt>
</event>
<event>
 4    1  0.1699693E+006  0.2388861E+01  0.7546771E-02  0.2759652E+00
         22   -1    0    0    0    0  0.00000000000E+00  0.00000000000E+00  0.92437308860E+00  0.92437308860E+00  0.00000000000E+00 0.  1.
         22   -1    0    0    0    0 -0.00000000000E+00 -0.00000000000E+00 -0.67199541519E+01  0.67199541519E+01  0.00000000000E+00 0. -1.
          4    1    1    2  501    0 -0.10468491913E+00 -0.20205938859E+01 -0.39876869372E+01  0.46484734798E+01  0.12700000000E+01 0. -1.
         -4    1    1    2    0  501  0.10468491913E+00  0.20205938859E+01 -0.18078941261E+01  0.29958537607E+01  0.12700000000E+01 0.  1.
<mgrwt>
<rscale>  0 0.23888614E+01</rscale>
<asrwt>0</asrwt>
<pdfrwt beam="1">0</pdfrwt>
<pdfrwt beam="2">0</pdfrwt>
<totfact> 0.27995314E+12</totfact>
</mgrwt>
</event>
<event>
 4    1  0.1699693E+006  0.2142664E+01  0.7546771E-02  0.2890660E+00
         22   -1    0    0    0    0  0.00000000000E+00  0.00000000000E+00  0.17799537953E+01  0.17799537953E+01  0.00000000000E+00 0.  1.
         22   -1    0    0    0    0 -0.00000000000E+00 -0.00000000000E+00 -0.55837140539E+01  0.55837140539E+01  0.00000000000E+00 0. -1.
          4    1    1    2  501    0  0.15647029704E+01  0.72788218914E+00  0.79886497335E+00  0.22867429047E+01  0.12700000000E+01 0.  1.
         -4    1    1    2    0  501 -0.15647029704E+01 -0.72788218914E+00 -0.46026252319E+01  0.50769249445E+01  0.12700000000E+01 0. -1.
<mgrwt>
<rscale>  0 0.21426637E+01</rscale>
<asrwt>0</asrwt>
<pdfrwt beam="1">0</pdfrwt>
<pdfrwt beam="2">0</pdfrwt>
<totfact> 0.16459535E+12</totfact>
</mgrwt>
</event>
<event>
 4    1  0.1699693E+006  0.2137352E+01  0.7546771E-02  0.2893804E+00
         22   -1    0    0    0    0  0.00000000000E+00  0.00000000000E+00  0.48947357583E+01  0.48947357583E+01  0.00000000000E+00 0. -1.
         22   -1    0    0    0    0 -0.00000000000E+00 -0.00000000000E+00 -0.11200448721E+01  0.11200448721E+01  0.00000000000E+00 0.  1.
          4    1    1    2  501    0  0.14637709621E+01 -0.90152556921E+00  0.31153286111E+01  0.37780346924E+01  0.12700000000E+01 0. -1.
         -4    1    1    2    0  501 -0.14637709621E+01  0.90152556921E+00  0.65936227509E+00  0.22367459380E+01  0.12700000000E+01 0.  1.
<mgrwt>
<rscale>  0 0.21373520E+01</rscale>
<asrwt>0</asrwt>
<pdfrwt beam="1">0</pdfrwt>
<pdfrwt beam="2">0</pdfrwt>
<totfact> 0.32767063E+12</totfact>
</mgrwt>
</event>
<event>
 4    1  0.1699693E+006  0.2001835E+01  0.7546771E-02  0.2979491E+00
         22   -1    0    0    0    0  0.00000000000E+00  0.00000000000E+00  0.77671932305E+02  0.77671932305E+02  0.00000000000E+00 0.  1.
         22   -1    0    0    0    0 -0.00000000000E+00 -0.00000000000E+00 -0.24338578405E+00  0.24338578405E+00  0.00000000000E+00 0.  1.
          4    1    1    2  501    0  0.64088490959E+00 -0.14084428756E+01  0.73297151473E+02  0.73324482670E+02  0.12700000000E+01 0.  1.
         -4    1    1    2    0  501 -0.64088490959E+00  0.14084428756E+01  0.41313950487E+01  0.45908354195E+01  0.12700000000E+01 0.  1.
<mgrwt>
<rscale>  0 0.20018354E+01</rscale>
<asrwt>0</asrwt>
<pdfrwt beam="1">0</pdfrwt>
<pdfrwt beam="2">0</pdfrwt>
<totfact> 0.57225136E+11</totfact>
</mgrwt>
</event>
<event>
 4    1  0.1699693E+006  0.3035667E+01  0.7546771E-02  0.2511028E+00
         22   -1    0    0    0    0  0.00000000000E+00  0.00000000000E+00  0.45704445750E+01  0.45704445750E+01  0.00000000000E+00 0.  1.
         22   -1    0    0    0    0 -0.00000000000E+00 -0.00000000000E+00 -0.34163730371E+01  0.34163730371E+01  0.00000000000E+00 0. -1.
          4    1    1    2  501    0  0.56848652076E-01 -0.27566543637E+01  0.31335033329E+01  0.43628108128E+01  0.12700000000E+01 0.  1.
         -4    1    1    2    0  501 -0.56848652076E-01  0.27566543637E+01 -0.19794317951E+01  0.36240067994E+01  0.12700000000E+01 0. -1.
<mgrwt>
<rscale>  0 0.30356672E+01</rscale>
<asrwt>0</asrwt>
<pdfrwt beam="1">0</pdfrwt>
<pdfrwt beam="2">0</pdfrwt>
<totfact> 0.97756277E+11</totfact>
</mgrwt>
</event>
<event>
 4    1  0.1699693E+006  0.3043425E+01  0.7546771E-02  0.2508633E+00
         22   -1    0    0    0    0  0.00000000000E+00  0.00000000000E+00  0.18923417232E+01  0.18923417232E+01  0.00000000000E+00 0.  1.
         22   -1    0    0    0    0 -0.00000000000E+00 -0.00000000000E+00 -0.47865751028E+02  0.47865751028E+02  0.00000000000E+00 0. -1.
          4    1    1    2  501    0  0.22978690326E+01 -0.15392648290E+01  0.58599360052E+00  0.30993268309E+01  0.12700000000E+01 0.  1.
         -4    1    1    2    0  501 -0.22978690326E+01  0.15392648290E+01 -0.46559402906E+02  0.46658765921E+02  0.12700000000E+01 0. -1.
<mgrwt>
<rscale>  0 0.30434254E+01</rscale>
<asrwt>0</asrwt>
<pdfrwt beam="1">0</pdfrwt>
<pdfrwt beam="2">0</pdfrwt>
<totfact> 0.10672494E+11</totfact>
</mgrwt>
</event>
<event>
 4    1  0.1699693E+006  0.2077472E+01  0.7546771E-02  0.2930325E+00
         22   -1    0    0    0    0  0.00000000000E+00  0.00000000000E+00  0.88773477094E+01  0.88773477094E+01  0.00000000000E+00 0.  1.
         22   -1    0    0    0    0 -0.00000000000E+00 -0.00000000000E+00 -0.48675188592E+00  0.48675188592E+00  0.00000000000E+00 0. -1.
          4    1    1    2  501    0  0.19941561445E-01  0.16439558270E+01  0.43573642378E+01  0.48272675012E+01  0.12700000000E+01 0. -1.
         -4    1    1    2    0  501 -0.19941561445E-01 -0.16439558270E+01  0.40332315856E+01  0.45368320941E+01  0.12700000000E+01 0. -1.
<mgrwt>
<rscale>  0 0.20774716E+01</rscale>
<asrwt>0</asrwt>
<pdfrwt beam="1">0</pdfrwt>
<pdfrwt beam="2">0</pdfrwt>
<totfact> 0.41489200E+12</totfact>
</mgrwt>
</event>
<event>
 4    1  0.1699693E+006  0.2069600E+01  0.7546771E-02  0.2935278E+00
         22   -1    0    0    0    0  0.00000000000E+00  0.00000000000E+00  0.10922507173E+03  0.10922507173E+03  0.00000000000E+00 0. -1.
         22   -1    0    0    0    0 -0.00000000000E+00 -0.00000000000E+00 -0.40191455921E-01  0.40191455921E-01  0.00000000000E+00 0. -1.
          4    1    1    2  501    0 -0.44013525854E-01  0.16335261829E+01  0.46076265307E+02  0.46122721837E+02  0.12700000000E+01 0. -1.
         -4    1    1    2    0  501  0.44013525854E-01 -0.16335261829E+01  0.63108614965E+02  0.63142541347E+02  0.12700000000E+01 0. -1.
<mgrwt>
<rscale>  0 0.20696002E+01</rscale>
<asrwt>0</asrwt>
<pdfrwt beam="1">0</pdfrwt>
<pdfrwt beam="2">0</pdfrwt>
<totfact> 0.26122455E+12</totfact>
</mgrwt>
</event>
<event>
 4    1  0.1699693E+006  0.2009776E+01  0.7546771E-02  0.2974159E+00
         22   -1    0    0    0    0  0.00000000000E+00  0.00000000000E+00  0.37433054230E+00  0.37433054230E+00  0.00000000000E+00 0.  1.
         22   -1    0    0    0    0 -0.00000000000E+00 -0.00000000000E+00 -0.14039753876E+02  0.14039753876E+02  0.00000000000E+00 0.  1.
          4    1    1    2  501    0  0.84194585132E+00  0.13105061664E+01 -0.33655688782E+01  0.39199812630E+01  0.12700000000E+01 0.  1.
         -4    1    1    2    0  501 -0.84194585132E+00 -0.13105061664E+01 -0.10299854455E+02  0.10494103155E+02  0.12700000000E+01 0.  1.
<mgrwt>
<rscale>  0 0.20097759E+01</rscale>
<asrwt>0</asrwt>
<pdfrwt beam="1">0</pdfrwt>
<pdfrwt beam="2">0</pdfrwt>
<totfact> 0.31939443E+12</totfact>
</mgrwt>
</event>
<event>
 4    1  0.1699693E+006  0.2025801E+01  0.7546771E-02  0.2963524E+00
         22   -1    0    0    0    0  0.00000000000E+00  0.00000000000E+00  0.19225535833E+00  0.19225535833E+00  0.00000000000E+00 0.  1.
         22   -1    0    0    0    0 -0.00000000000E+00 -0.00000000000E+00 -0.22897017089E+02  0.22897017089E+02  0.00000000000E+00 0.  1.
          4    1    1    2  501    0  0.40016510186E+00  0.15267079272E+01 -0.83476259914E+01  0.85899201915E+01  0.12700000000E+01 0.  1.
         -4    1    1    2    0  501 -0.40016510186E+00 -0.15267079272E+01 -0.14357135739E+02  0.14499352256E+02  0.12700000000E+01 0.  1.
<mgrwt>
<rscale>  0 0.20258009E+01</rscale>
<asrwt>0</asrwt>
<pdfrwt beam="1">0</pdfrwt>
<pdfrwt beam="2">0</pdfrwt>
<totfact> 0.36709010E+12</totfact>
</mgrwt>
</event>
<event>
 4    1  0.1699693E+006  0.3343939E+01  0.7546771E-02  0.2423525E+00
         22   -1    0    0    0    0  0.00000000000E+00  0.00000000000E+00  0.11037684890E+03  0.11037684890E+03  0.00000000000E+00 0. -1.
         22   -1    0    0    0    0 -0.00000000000E+00 -0.00000000000E+00 -0.30039379940E+00  0.30039379940E+00  0.00000000000E+00 0.  1.
          4    1    1    2  501    0  0.30082014619E+01 -0.72093934794E+00  0.10008920958E+03  0.10014505382E+03  0.12700000000E+01 0. -1.
         -4    1    1    2    0  501 -0.30082014619E+01  0.72093934794E+00  0.99872455249E+01  0.10532188887E+02  0.12700000000E+01 0.  1.
<mgrwt>
<rscale>  0 0.33439392E+01</rscale>
<asrwt>0</asrwt>
<pdfrwt beam="1">0</pdfrwt>
<pdfrwt beam="2">0</pdfrwt>
<totfact> 0.27684858E+11</totfact>
</mgrwt>
</event>
<event>
 4    1  0.1699693E+006  0.3532134E+01  0.7546771E-02  0.2376775E+00
         22   -1    0    0    0    0  0.00000000000E+00  0.00000000000E+00  0.67879016759E+01  0.67879016759E+01  0.00000000000E+00 0.  1.
         22   -1    0    0    0    0 -0.00000000000E+00 -0.00000000000E+00 -0.18380212808E+01  0.18380212808E+01  0.00000000000E+00 0. -1.
          4    1    1    2  501    0 -0.24849383673E+01  0.21652148365E+01  0.24526329488E+01  0.43001607365E+01  0.12700000000E+01 0.  1.
         -4    1    1    2    0  501  0.24849383673E+01 -0.21652148365E+01  0.24972474463E+01  0.43257622202E+01  0.12700000000E+01 0. -1.
<mgrwt>
<rscale>  0 0.35321345E+01</rscale>
<asrwt>0</asrwt>
<pdfrwt beam="1">0</pdfrwt>
<pdfrwt beam="2">0</pdfrwt>
<totfact> 0.12569228E+12</totfact>
</mgrwt>
</event>
<event>
 4    1  0.1699693E+006  0.2176704E+01  0.7546771E-02  0.2870862E+00
         22   -1    0    0    0    0  0.00000000000E+00  0.00000000000E+00  0.34881207060E+01  0.34881207060E+01  0.00000000000E+00 0. -1.
         22   -1    0    0    0    0 -0.00000000000E+00 -0.00000000000E+00 -0.10994260765E+02  0.10994260765E+02  0.00000000000E+00 0.  1.
          4    1    1    2  501    0 -0.15662473728E+01 -0.81976097990E+00  0.30260555221E+01  0.37276065940E+01  0.12700000000E+01 0. -1.
         -4    1    1    2    0  501  0.15662473728E+01  0.81976097990E+00 -0.10532195582E+02  0.10754774877E+02  0.12700000000E+01 0.  1.
<mgrwt>
<rscale>  0 0.21767037E+01</rscale>
<asrwt>0</asrwt>
<pdfrwt beam="1">0</pdfrwt>
<pdfrwt beam="2">0</pdfrwt>
<totfact> 0.33356493E+11</totfact>
</mgrwt>
</event>
<event>
 4    1  0.1699693E+006  0.3332643E+01  0.7546771E-02  0.2426478E+00
         22   -1    0    0    0    0  0.00000000000E+00  0.00000000000E+00  0.94090500724E+01  0.94090500724E+01  0.00000000000E+00 0.  1.
         22   -1    0    0    0    0 -0.00000000000E+00 -0.00000000000E+00 -0.11816292519E+01  0.11816292519E+01  0.00000000000E+00 0. -1.
          4    1    1    2  501    0 -0.15159248903E+01 -0.26824574854E+01  0.42840336376E+01  0.54276560910E+01  0.12700000000E+01 0.  1.
         -4    1    1    2    0  501  0.15159248903E+01  0.26824574854E+01  0.39433871828E+01  0.51630232333E+01  0.12700000000E+01 0. -1.
<mgrwt>
<rscale>  0 0.33326426E+01</rscale>
<asrwt>0</asrwt>
<pdfrwt beam="1">0</pdfrwt>
<pdfrwt beam="2">0</pdfrwt>
<totfact> 0.14113489E+12</totfact>
</mgrwt>
</event>
<event>
 4    1  0.1699693E+006  0.4665790E+01  0.7546771E-02  0.2165626E+00
         22   -1    0    0    0    0  0.00000000000E+00  0.00000000000E+00  0.58659223395E+00  0.58659223395E+00  0.00000000000E+00 0.  1.
         22   -1    0    0    0    0 -0.00000000000E+00 -0.00000000000E+00 -0.63108587044E+02  0.63108587044E+02  0.00000000000E+00 0. -1.
          4    1    1    2  501    0 -0.41154568149E+01  0.17943549323E+01 -0.10820533694E+02  0.11783613361E+02  0.12700000000E+01 0.  1.
         -4    1    1    2    0  501  0.41154568149E+01 -0.17943549323E+01 -0.51701461115E+02  0.51911565916E+02  0.12700000000E+01 0. -1.
<mgrwt>
<rscale>  0 0.46657898E+01</rscale>
<asrwt>0</asrwt>
<pdfrwt beam="1">0</pdfrwt>
<pdfrwt beam="2">0</pdfrwt>
<totfact> 0.28202840E+11</totfact>
</mgrwt>
</event>
<event>
 4    1  0.1699693E+006  0.2178799E+01  0.7546771E-02  0.2869663E+00
         22   -1    0    0    0    0  0.00000000000E+00  0.00000000000E+00  0.24622501446E+02  0.24622501446E+02  0.00000000000E+00 0.  1.
         22   -1    0    0    0    0 -0.00000000000E+00 -0.00000000000E+00 -0.25834287257E+00  0.25834287257E+00  0.00000000000E+00 0.  1.
          4    1    1    2  501    0  0.45717413631E+00  0.17103384733E+01  0.18448314049E+02  0.18576529739E+02  0.12700000000E+01 0.  1.
         -4    1    1    2    0  501 -0.45717413631E+00 -0.17103384733E+01  0.59158445245E+01  0.63043145799E+01  0.12700000000E+01 0.  1.
<mgrwt>
<rscale>  0 0.21787992E+01</rscale>
<asrwt>0</asrwt>
<pdfrwt beam="1">0</pdfrwt>
<pdfrwt beam="2">0</pdfrwt>
<totfact> 0.24086137E+12</totfact>
</mgrwt>
</event>
<event>
 4    1  0.1699693E+006  0.4240461E+01  0.7546771E-02  0.2233558E+00
         22   -1    0    0    0    0  0.00000000000E+00  0.00000000000E+00  0.51348530916E+01  0.51348530916E+01  0.00000000000E+00 0. -1.
         22   -1    0    0    0    0 -0.00000000000E+00 -0.00000000000E+00 -0.65877720431E+01  0.65877720431E+01  0.00000000000E+00 0. -1.
          4    1    1    2  501    0 -0.65327471541E+00  0.39927236229E+01  0.32851416091E+01  0.53641089824E+01  0.12700000000E+01 0. -1.
         -4    1    1    2    0  501  0.65327471541E+00 -0.39927236229E+01 -0.47380605607E+01  0.63585161523E+01  0.12700000000E+01 0. -1.
<mgrwt>
<rscale>  0 0.42404610E+01</rscale>
<asrwt>0</asrwt>
<pdfrwt beam="1">0</pdfrwt>
<pdfrwt beam="2">0</pdfrwt>
<totfact> 0.39185232E+11</totfact>
</mgrwt>
</event>
<event>
 4    1  0.1699693E+006  0.2454891E+01  0.7546771E-02  0.2728757E+00
         22   -1    0    0    0    0  0.00000000000E+00  0.00000000000E+00  0.74625434914E+00  0.74625434914E+00  0.00000000000E+00 0.  1.
         22   -1    0    0    0    0 -0.00000000000E+00 -0.00000000000E+00 -0.13499237798E+02  0.13499237798E+02  0.00000000000E+00 0. -1.
          4    1    1    2  501    0  0.16959228940E+01 -0.12399342463E+01 -0.18617174323E+01  0.30809873735E+01  0.12700000000E+01 0.  1.
         -4    1    1    2    0  501 -0.16959228940E+01  0.12399342463E+01 -0.10891266017E+02  0.11164504774E+02  0.12700000000E+01 0. -1.
<mgrwt>
<rscale>  0 0.24548913E+01</rscale>
<asrwt>0</asrwt>
<pdfrwt beam="1">0</pdfrwt>
<pdfrwt beam="2">0</pdfrwt>
<totfact> 0.15367805E+12</totfact>
</mgrwt>
</event>
<event>
 4    1  0.1699693E+006  0.1349310E+02  0.7546771E-02  0.1663138E+00
         22   -1    0    0    0    0  0.00000000000E+00  0.00000000000E+00  0.36094750780E+02  0.36094750780E+02  0.00000000000E+00 0.  1.
         22   -1    0    0    0    0 -0.00000000000E+00 -0.00000000000E+00 -0.23855490368E+02  0.23855490368E+02  0.00000000000E+00 0. -1.
          4    1    1    2  501    0 -0.84284261307E+01  0.10460037777E+02  0.32737776779E+02  0.35409401093E+02  0.12700000000E+01 0.  1.
         -4    1    1    2    0  501  0.84284261307E+01 -0.10460037777E+02 -0.20498516367E+02  0.24540840054E+02  0.12700000000E+01 0. -1.
<mgrwt>
<rscale>  0 0.13493097E+02</rscale>
<asrwt>0</asrwt>
<pdfrwt beam="1">0</pdfrwt>
<pdfrwt beam="2">0</pdfrwt>
<totfact> 0.73886331E+09</totfact>
</mgrwt>
</event>
<event>
 4    1  0.1699693E+006  0.2039680E+01  0.7546771E-02  0.2954445E+00
         22   -1    0    0    0    0  0.00000000000E+00  0.00000000000E+00  0.21881551650E+01  0.21881551650E+01  0.00000000000E+00 0. -1.
         22   -1    0    0    0    0 -0.00000000000E+00 -0.00000000000E+00 -0.27375535495E+01  0.27375535495E+01  0.00000000000E+00 0.  1.
          4    1    1    2  501    0 -0.11234371355E+00  0.15920972592E+01  0.10865314004E+01  0.23110268880E+01  0.12700000000E+01 0. -1.
         -4    1    1    2    0  501  0.11234371355E+00 -0.15920972592E+01 -0.16359297849E+01  0.26146818265E+01  0.12700000000E+01 0.  1.
<mgrwt>
<rscale>  0 0.20396801E+01</rscale>
<asrwt>0</asrwt>
<pdfrwt beam="1">0</pdfrwt>
<pdfrwt beam="2">0</pdfrwt>
<totfact> 0.29975840E+12</totfact>
</mgrwt>
</event>
<event>
 4    1  0.1699693E+006  0.2227891E+01  0.7546771E-02  0.2842186E+00
         22   -1    0    0    0    0  0.00000000000E+00  0.00000000000E+00  0.51802229665E+02  0.51802229665E+02  0.00000000000E+00 0.  1.
         22   -1    0    0    0    0 -0.00000000000E+00 -0.00000000000E+00 -0.13599932886E+00  0.13599932886E+00  0.00000000000E+00 0. -1.
          4    1    1    2  501    0 -0.67506529947E+00  0.17014362672E+01  0.39949062707E+02  0.40011137321E+02  0.12700000000E+01 0. -1.
         -4    1    1    2    0  501  0.67506529947E+00 -0.17014362672E+01  0.11717167629E+02  0.11927091673E+02  0.12700000000E+01 0. -1.
<mgrwt>
<rscale>  0 0.22278910E+01</rscale>
<asrwt>0</asrwt>
<pdfrwt beam="1">0</pdfrwt>
<pdfrwt beam="2">0</pdfrwt>
<totfact> 0.18878247E+12</totfact>
</mgrwt>
</event>
<event>
 4    1  0.1699693E+006  0.2197249E+01  0.7546771E-02  0.2859198E+00
         22   -1    0    0    0    0  0.00000000000E+00  0.00000000000E+00  0.14947244750E+02  0.14947244750E+02  0.00000000000E+00 0. -1.
         22   -1    0    0    0    0 -0.00000000000E+00 -0.00000000000E+00 -0.86257895889E+00  0.86257895889E+00  0.00000000000E+00 0.  1.
          4    1    1    2  501    0 -0.88950985230E+00 -0.15568481371E+01  0.13294442982E+02  0.13474795661E+02  0.12700000000E+01 0. -1.
         -4    1    1    2    0  501  0.88950985230E+00  0.15568481371E+01  0.79022280975E+00  0.23350280487E+01  0.12700000000E+01 0.  1.
<mgrwt>
<rscale>  0 0.21972492E+01</rscale>
<asrwt>0</asrwt>
<pdfrwt beam="1">0</pdfrwt>
<pdfrwt beam="2">0</pdfrwt>
<totfact> 0.11499832E+12</totfact>
</mgrwt>
</event>
<event>
 4    1  0.1699693E+006  0.2022034E+01  0.7546771E-02  0.2966009E+00
         22   -1    0    0    0    0  0.00000000000E+00  0.00000000000E+00  0.10126192124E+00  0.10126192124E+00  0.00000000000E+00 0. -1.
         22   -1    0    0    0    0 -0.00000000000E+00 -0.00000000000E+00 -0.43827739844E+02  0.43827739844E+02  0.00000000000E+00 0.  1.
          4    1    1    2  501    0  0.98182396107E+00 -0.12295301123E+01 -0.15699821892E+02  0.15829498730E+02  0.12700000000E+01 0. -1.
         -4    1    1    2    0  501 -0.98182396107E+00  0.12295301123E+01 -0.28026656031E+02  0.28099503036E+02  0.12700000000E+01 0.  1.
<mgrwt>
<rscale>  0 0.20220343E+01</rscale>
<asrwt>0</asrwt>
<pdfrwt beam="1">0</pdfrwt>
<pdfrwt beam="2">0</pdfrwt>
<totfact> 0.32611818E+12</totfact>
</mgrwt>
</event>
<event>
 4    1  0.1699693E+006  0.5720700E+01  0.7546771E-02  0.2045680E+00
         22   -1    0    0    0    0  0.00000000000E+00  0.00000000000E+00  0.13898236494E+02  0.13898236494E+02  0.00000000000E+00 0.  1.
         22   -1    0    0    0    0 -0.00000000000E+00 -0.00000000000E+00 -0.23758581617E+01  0.23758581617E+01  0.00000000000E+00 0.  1.
          4    1    1    2  501    0 -0.43252189209E+01 -0.35222145074E+01  0.65287644907E+01  0.86805057182E+01  0.12700000000E+01 0.  1.
         -4    1    1    2    0  501  0.43252189209E+01  0.35222145074E+01  0.49936138412E+01  0.75935889370E+01  0.12700000000E+01 0.  1.
<mgrwt>
<rscale>  0 0.57207005E+01</rscale>
<asrwt>0</asrwt>
<pdfrwt beam="1">0</pdfrwt>
<pdfrwt beam="2">0</pdfrwt>
<totfact> 0.39226757E+11</totfact>
</mgrwt>
</event>
<event>
 4    1  0.1699693E+006  0.2098552E+01  0.7546771E-02  0.2917238E+00
         22   -1    0    0    0    0  0.00000000000E+00  0.00000000000E+00  0.12552223179E+01  0.12552223179E+01  0.00000000000E+00 0.  1.
         22   -1    0    0    0    0 -0.00000000000E+00 -0.00000000000E+00 -0.49996661233E+01  0.49996661233E+01  0.00000000000E+00 0.  1.
          4    1    1    2  501    0  0.62837906824E+00 -0.15479536024E+01 -0.16423236777E+00  0.21049686172E+01  0.12700000000E+01 0.  1.
         -4    1    1    2    0  501 -0.62837906824E+00  0.15479536024E+01 -0.35802114375E+01  0.41499198240E+01  0.12700000000E+01 0.  1.
<mgrwt>
<rscale>  0 0.20985520E+01</rscale>
<asrwt>0</asrwt>
<pdfrwt beam="1">0</pdfrwt>
<pdfrwt beam="2">0</pdfrwt>
<totfact> 0.28044331E+12</totfact>
</mgrwt>
</event>
<event>
 4    1  0.1699693E+006  0.2006152E+01  0.7546771E-02  0.2976587E+00
         22   -1    0    0    0    0  0.00000000000E+00  0.00000000000E+00  0.45005072083E+00  0.45005072083E+00  0.00000000000E+00 0.  1.
         22   -1    0    0    0    0 -0.00000000000E+00 -0.00000000000E+00 -0.13190035976E+02  0.13190035976E+02  0.00000000000E+00 0.  1.
          4    1    1    2  501    0 -0.12989001649E+01  0.85123795329E+00 -0.24998691088E+01  0.32053070450E+01  0.12700000000E+01 0.  1.
         -4    1    1    2    0  501  0.12989001649E+01 -0.85123795329E+00 -0.10240116147E+02  0.10434779652E+02  0.12700000000E+01 0.  1.
<mgrwt>
<rscale>  0 0.20061525E+01</rscale>
<asrwt>0</asrwt>
<pdfrwt beam="1">0</pdfrwt>
<pdfrwt beam="2">0</pdfrwt>
<totfact> 0.28019877E+12</totfact>
</mgrwt>
</event>
<event>
 4    1  0.1699693E+006  0.2189381E+01  0.7546771E-02  0.2863640E+00
         22   -1    0    0    0    0  0.00000000000E+00  0.00000000000E+00  0.61225685238E+00  0.61225685238E+00  0.00000000000E+00 0. -1.
         22   -1    0    0    0    0 -0.00000000000E+00 -0.00000000000E+00 -0.97337156351E+01  0.97337156351E+01  0.00000000000E+00 0.  1.
          4    1    1    2  501    0  0.60613420534E+00 -0.16772271171E+01 -0.22724377432E+01  0.31555289214E+01  0.12700000000E+01 0. -1.
         -4    1    1    2    0  501 -0.60613420534E+00  0.16772271171E+01 -0.68490210395E+01  0.71904435661E+01  0.12700000000E+01 0.  1.
<mgrwt>
<rscale>  0 0.21893811E+01</rscale>
<asrwt>0</asrwt>
<pdfrwt beam="1">0</pdfrwt>
<pdfrwt beam="2">0</pdfrwt>
<totfact> 0.28641365E+12</totfact>
</mgrwt>
</event>
<event>
 4    1  0.1699693E+006  0.2527079E+01  0.7546771E-02  0.2696711E+00
         22   -1    0    0    0    0  0.00000000000E+00  0.00000000000E+00  0.31833250545E+00  0.31833250545E+00  0.00000000000E+00 0.  1.
         22   -1    0    0    0    0 -0.00000000000E+00 -0.00000000000E+00 -0.20077215532E+02  0.20077215532E+02  0.00000000000E+00 0. -1.
          4    1    1    2  501    0 -0.21484903116E+01  0.39650717670E+00 -0.95913215974E+01  0.99186480200E+01  0.12700000000E+01 0.  1.
         -4    1    1    2    0  501  0.21484903116E+01 -0.39650717670E+00 -0.10167561429E+02  0.10476900018E+02  0.12700000000E+01 0. -1.
<mgrwt>
<rscale>  0 0.25270791E+01</rscale>
<asrwt>0</asrwt>
<pdfrwt beam="1">0</pdfrwt>
<pdfrwt beam="2">0</pdfrwt>
<totfact> 0.24619550E+12</totfact>
</mgrwt>
</event>
<event>
 4    1  0.1699693E+006  0.2623600E+01  0.7546771E-02  0.2656426E+00
         22   -1    0    0    0    0  0.00000000000E+00  0.00000000000E+00  0.21111175537E+01  0.21111175537E+01  0.00000000000E+00 0.  1.
         22   -1    0    0    0    0 -0.00000000000E+00 -0.00000000000E+00 -0.37853809722E+01  0.37853809722E+01  0.00000000000E+00 0.  1.
          4    1    1    2  501    0 -0.19398910406E+01 -0.12276801176E+01  0.26072165096E+00  0.26365226151E+01  0.12700000000E+01 0.  1.
         -4    1    1    2    0  501  0.19398910406E+01  0.12276801176E+01 -0.19349850694E+01  0.32599759109E+01  0.12700000000E+01 0.  1.
<mgrwt>
<rscale>  0 0.26235998E+01</rscale>
<asrwt>0</asrwt>
<pdfrwt beam="1">0</pdfrwt>
<pdfrwt beam="2">0</pdfrwt>
<totfact> 0.21386746E+12</totfact>
</mgrwt>
</event>
<event>
 4    1  0.1699693E+006  0.2004439E+01  0.7546771E-02  0.2977738E+00
         22   -1    0    0    0    0  0.00000000000E+00  0.00000000000E+00  0.53384669388E+02  0.53384669388E+02  0.00000000000E+00 0. -1.
         22   -1    0    0    0    0 -0.00000000000E+00 -0.00000000000E+00 -0.97249864279E-01  0.97249864279E-01  0.00000000000E+00 0.  1.
          4    1    1    2  501    0  0.10488739063E+01 -0.11422517230E+01  0.39359266794E+02  0.39410273509E+02  0.12700000000E+01 0.  1.
         -4    1    1    2    0  501 -0.10488739063E+01  0.11422517230E+01  0.13928152729E+02  0.14071645743E+02  0.12700000000E+01 0.  1.
<mgrwt>
<rscale>  0 0.20044389E+01</rscale>
<asrwt>0</asrwt>
<pdfrwt beam="1">0</pdfrwt>
<pdfrwt beam="2">0</pdfrwt>
<totfact> 0.26308303E+12</totfact>
</mgrwt>
</event>
<event>
 4    1  0.1699693E+006  0.2278099E+01  0.7546771E-02  0.2815255E+00
         22   -1    0    0    0    0  0.00000000000E+00  0.00000000000E+00  0.24992029951E+01  0.24992029951E+01  0.00000000000E+00 0.  1.
         22   -1    0    0    0    0 -0.00000000000E+00 -0.00000000000E+00 -0.21624162527E+01  0.21624162527E+01  0.00000000000E+00 0.  1.
          4    1    1    2  501    0  0.15689448259E+01  0.10560529170E+01  0.63283653216E+00  0.23643641231E+01  0.12700000000E+01 0.  1.
         -4    1    1    2    0  501 -0.15689448259E+01 -0.10560529170E+01 -0.29604978967E+00  0.22972551247E+01  0.12700000000E+01 0.  1.
<mgrwt>
<rscale>  0 0.22780991E+01</rscale>
<asrwt>0</asrwt>
<pdfrwt beam="1">0</pdfrwt>
<pdfrwt beam="2">0</pdfrwt>
<totfact> 0.33792433E+12</totfact>
</mgrwt>
</event>
<event>
 4    1  0.1699693E+006  0.3764054E+01  0.7546771E-02  0.2324800E+00
         22   -1    0    0    0    0  0.00000000000E+00  0.00000000000E+00  0.11660552496E+01  0.11660552496E+01  0.00000000000E+00 0.  1.
         22   -1    0    0    0    0 -0.00000000000E+00 -0.00000000000E+00 -0.32319748557E+02  0.32319748557E+02  0.00000000000E+00 0. -1.
          4    1    1    2  501    0  0.22849214076E+01 -0.27081985514E+01 -0.23504343054E+01  0.44376397620E+01  0.12700000000E+01 0.  1.
         -4    1    1    2    0  501 -0.22849214076E+01  0.27081985514E+01 -0.28803259002E+02  0.29048164045E+02  0.12700000000E+01 0. -1.
<mgrwt>
<rscale>  0 0.37640544E+01</rscale>
<asrwt>0</asrwt>
<pdfrwt beam="1">0</pdfrwt>
<pdfrwt beam="2">0</pdfrwt>
<totfact> 0.30999037E+11</totfact>
</mgrwt>
</event>
<event>
 4    1  0.1699693E+006  0.2965094E+01  0.7546771E-02  0.2533327E+00
         22   -1    0    0    0    0  0.00000000000E+00  0.00000000000E+00  0.40488024746E+00  0.40488024746E+00  0.00000000000E+00 0. -1.
         22   -1    0    0    0    0 -0.00000000000E+00 -0.00000000000E+00 -0.41856301375E+02  0.41856301375E+02  0.00000000000E+00 0.  1.
          4    1    1    2  501    0  0.11283126452E+01 -0.24301840430E+01 -0.35383890763E+02  0.35507907703E+02  0.12700000000E+01 0.  1.
         -4    1    1    2    0  501 -0.11283126452E+01  0.24301840430E+01 -0.60675303645E+01  0.67532739196E+01  0.12700000000E+01 0. -1.
<mgrwt>
<rscale>  0 0.29650942E+01</rscale>
<asrwt>0</asrwt>
<pdfrwt beam="1">0</pdfrwt>
<pdfrwt beam="2">0</pdfrwt>
<totfact> 0.73759452E+11</totfact>
</mgrwt>
</event>
<event>
 4    1  0.1699693E+006  0.2298835E+01  0.7546771E-02  0.2804460E+00
         22   -1    0    0    0    0  0.00000000000E+00  0.00000000000E+00  0.17416692708E+01  0.17416692708E+01  0.00000000000E+00 0. -1.
         22   -1    0    0    0    0 -0.00000000000E+00 -0.00000000000E+00 -0.30404912741E+01  0.30404912741E+01  0.00000000000E+00 0. -1.
          4    1    1    2  501    0  0.18629359561E+01 -0.44856723813E+00 -0.54099358267E+00  0.23616343917E+01  0.12700000000E+01 0. -1.
         -4    1    1    2    0  501 -0.18629359561E+01  0.44856723813E+00 -0.75782842056E+00  0.24205261532E+01  0.12700000000E+01 0. -1.
<mgrwt>
<rscale>  0 0.22988351E+01</rscale>
<asrwt>0</asrwt>
<pdfrwt beam="1">0</pdfrwt>
<pdfrwt beam="2">0</pdfrwt>
<totfact> 0.34535017E+12</totfact>
</mgrwt>
</event>
<event>
 4    1  0.1699693E+006  0.2605253E+01  0.7546771E-02  0.2663871E+00
         22   -1    0    0    0    0  0.00000000000E+00  0.00000000000E+00  0.65153924575E+01  0.65153924575E+01  0.00000000000E+00 0. -1.
         22   -1    0    0    0    0 -0.00000000000E+00 -0.00000000000E+00 -0.14244466490E+01  0.14244466490E+01  0.00000000000E+00 0.  1.
          4    1    1    2  501    0 -0.22303300128E+01  0.44729151770E+00  0.46032195431E+01  0.52893262170E+01  0.12700000000E+01 0. -1.
         -4    1    1    2    0  501  0.22303300128E+01 -0.44729151770E+00  0.48772626534E+00  0.26505128895E+01  0.12700000000E+01 0.  1.
<mgrwt>
<rscale>  0 0.26052527E+01</rscale>
<asrwt>0</asrwt>
<pdfrwt beam="1">0</pdfrwt>
<pdfrwt beam="2">0</pdfrwt>
<totfact> 0.17706179E+12</totfact>
</mgrwt>
</event>
<event>
 4    1  0.1699693E+006  0.4352560E+01  0.7546771E-02  0.2214575E+00
         22   -1    0    0    0    0  0.00000000000E+00  0.00000000000E+00  0.11806780702E+02  0.11806780702E+02  0.00000000000E+00 0.  1.
         22   -1    0    0    0    0 -0.00000000000E+00 -0.00000000000E+00 -0.17600047205E+01  0.17600047205E+01  0.00000000000E+00 0. -1.
          4    1    1    2  501    0 -0.41617567287E+01 -0.10799544151E+00  0.70392783383E+01  0.82762444144E+01  0.12700000000E+01 0.  1.
         -4    1    1    2    0  501  0.41617567287E+01  0.10799544151E+00  0.30074976433E+01  0.52905410081E+01  0.12700000000E+01 0. -1.
<mgrwt>
<rscale>  0 0.43525604E+01</rscale>
<asrwt>0</asrwt>
<pdfrwt beam="1">0</pdfrwt>
<pdfrwt beam="2">0</pdfrwt>
<totfact> 0.67775321E+11</totfact>
</mgrwt>
</event>
<event>
 4    1  0.1699693E+006  0.2055605E+01  0.7546771E-02  0.2944176E+00
         22   -1    0    0    0    0  0.00000000000E+00  0.00000000000E+00  0.84561640277E+01  0.84561640277E+01  0.00000000000E+00 0.  1.
         22   -1    0    0    0    0 -0.00000000000E+00 -0.00000000000E+00 -0.50832725910E+00  0.50832725910E+00  0.00000000000E+00 0.  1.
          4    1    1    2  501    0  0.14122672155E+01 -0.78620097322E+00  0.45579859090E+01  0.50000746199E+01  0.12700000000E+01 0.  1.
         -4    1    1    2    0  501 -0.14122672155E+01  0.78620097322E+00  0.33898508596E+01  0.39644166669E+01  0.12700000000E+01 0.  1.
<mgrwt>
<rscale>  0 0.20556047E+01</rscale>
<asrwt>0</asrwt>
<pdfrwt beam="1">0</pdfrwt>
<pdfrwt beam="2">0</pdfrwt>
<totfact> 0.41888510E+12</totfact>
</mgrwt>
</event>
<event>
 4    1  0.1699693E+006  0.2677951E+01  0.7546771E-02  0.2634922E+00
         22   -1    0    0    0    0  0.00000000000E+00  0.00000000000E+00  0.33262137669E+01  0.33262137669E+01  0.00000000000E+00 0. -1.
         22   -1    0    0    0    0 -0.00000000000E+00 -0.00000000000E+00 -0.31313571930E+01  0.31313571930E+01  0.00000000000E+00 0.  1.
          4    1    1    2  501    0 -0.23284403894E+01 -0.36997937703E+00  0.18993995918E+01  0.32831597883E+01  0.12700000000E+01 0.  1.
         -4    1    1    2    0  501  0.23284403894E+01  0.36997937703E+00 -0.17045430179E+01  0.31744111716E+01  0.12700000000E+01 0.  1.
<mgrwt>
<rscale>  0 0.26779506E+01</rscale>
<asrwt>0</asrwt>
<pdfrwt beam="1">0</pdfrwt>
<pdfrwt beam="2">0</pdfrwt>
<totfact> 0.15729919E+12</totfact>
</mgrwt>
</event>
<event>
 4    1  0.1699693E+006  0.2244536E+01  0.7546771E-02  0.2833130E+00
         22   -1    0    0    0    0  0.00000000000E+00  0.00000000000E+00  0.21026491628E+01  0.21026491628E+01  0.00000000000E+00 0. -1.
         22   -1    0    0    0    0 -0.00000000000E+00 -0.00000000000E+00 -0.30055365788E+01  0.30055365788E+01  0.00000000000E+00 0. -1.
          4    1    1    2  501    0 -0.61513038278E+00  0.17454676204E+01 -0.16016516829E+01  0.27573956399E+01  0.12700000000E+01 0. -1.
         -4    1    1    2    0  501  0.61513038278E+00 -0.17454676204E+01  0.69876426680E+00  0.23507901017E+01  0.12700000000E+01 0. -1.
<mgrwt>
<rscale>  0 0.22445362E+01</rscale>
<asrwt>0</asrwt>
<pdfrwt beam="1">0</pdfrwt>
<pdfrwt beam="2">0</pdfrwt>
<totfact> 0.28153364E+12</totfact>
</mgrwt>
</event>
<event>
 4    1  0.1699693E+006  0.2116090E+01  0.7546771E-02  0.2906542E+00
         22   -1    0    0    0    0  0.00000000000E+00  0.00000000000E+00  0.63234880359E+01  0.63234880359E+01  0.00000000000E+00 0.  1.
         22   -1    0    0    0    0 -0.00000000000E+00 -0.00000000000E+00 -0.77088986324E+00  0.77088986324E+00  0.00000000000E+00 0. -1.
          4    1    1    2  501    0  0.14197984593E+01  0.92147098064E+00  0.37884317456E+01  0.43393607276E+01  0.12700000000E+01 0.  1.
         -4    1    1    2    0  501 -0.14197984593E+01 -0.92147098064E+00  0.17641664270E+01  0.27550171715E+01  0.12700000000E+01 0. -1.
<mgrwt>
<rscale>  0 0.21160899E+01</rscale>
<asrwt>0</asrwt>
<pdfrwt beam="1">0</pdfrwt>
<pdfrwt beam="2">0</pdfrwt>
<totfact> 0.37014334E+12</totfact>
</mgrwt>
</event>
<event>
 4    1  0.1699693E+006  0.2108165E+01  0.7546771E-02  0.2911354E+00
         22   -1    0    0    0    0  0.00000000000E+00  0.00000000000E+00  0.14725044860E+01  0.14725044860E+01  0.00000000000E+00 0. -1.
         22   -1    0    0    0    0 -0.00000000000E+00 -0.00000000000E+00 -0.32549709219E+01  0.32549709219E+01  0.00000000000E+00 0. -1.
          4    1    1    2  501    0  0.13908916487E+01 -0.94703779611E+00 -0.25376203812E+00  0.21233829937E+01  0.12700000000E+01 0. -1.
         -4    1    1    2    0  501 -0.13908916487E+01  0.94703779611E+00 -0.15287043978E+01  0.26040924142E+01  0.12700000000E+01 0. -1.
<mgrwt>
<rscale>  0 0.21081651E+01</rscale>
<asrwt>0</asrwt>
<pdfrwt beam="1">0</pdfrwt>
<pdfrwt beam="2">0</pdfrwt>
<totfact> 0.38692093E+12</totfact>
</mgrwt>
</event>
<event>
 4    1  0.1699693E+006  0.2283048E+01  0.7546771E-02  0.2812662E+00
         22   -1    0    0    0    0  0.00000000000E+00  0.00000000000E+00  0.76358647120E+01  0.76358647120E+01  0.00000000000E+00 0. -1.
         22   -1    0    0    0    0 -0.00000000000E+00 -0.00000000000E+00 -0.68263134670E+00  0.68263134670E+00  0.00000000000E+00 0.  1.
          4    1    1    2  501    0  0.35410803095E+00 -0.18638708003E+01  0.35006304216E+01  0.41793205436E+01  0.12700000000E+01 0. -1.
         -4    1    1    2    0  501 -0.35410803095E+00  0.18638708003E+01  0.34526029437E+01  0.41391755151E+01  0.12700000000E+01 0.  1.
<mgrwt>
<rscale>  0 0.22830477E+01</rscale>
<asrwt>0</asrwt>
<pdfrwt beam="1">0</pdfrwt>
<pdfrwt beam="2">0</pdfrwt>
<totfact> 0.33916849E+12</totfact>
</mgrwt>
</event>
<event>
 4    1  0.1699693E+006  0.2271112E+01  0.7546771E-02  0.2818934E+00
         22   -1    0    0    0    0  0.00000000000E+00  0.00000000000E+00  0.96537369382E+01  0.96537369382E+01  0.00000000000E+00 0.  1.
         22   -1    0    0    0    0 -0.00000000000E+00 -0.00000000000E+00 -0.80930710023E+00  0.80930710023E+00  0.00000000000E+00 0. -1.
          4    1    1    2  501    0 -0.18606732072E+01  0.28800555259E+00  0.74718409067E+01  0.78093763206E+01  0.12700000000E+01 0.  1.
         -4    1    1    2    0  501  0.18606732072E+01 -0.28800555259E+00  0.13725889313E+01  0.26536677178E+01  0.12700000000E+01 0. -1.
<mgrwt>
<rscale>  0 0.22711125E+01</rscale>
<asrwt>0</asrwt>
<pdfrwt beam="1">0</pdfrwt>
<pdfrwt beam="2">0</pdfrwt>
<totfact> 0.21074961E+12</totfact>
</mgrwt>
</event>
<event>
 4    1  0.1699693E+006  0.2044379E+01  0.7546771E-02  0.2951398E+00
         22   -1    0    0    0    0  0.00000000000E+00  0.00000000000E+00  0.33231274526E+02  0.33231274526E+02  0.00000000000E+00 0.  1.
         22   -1    0    0    0    0 -0.00000000000E+00 -0.00000000000E+00 -0.14112812737E+00  0.14112812737E+00  0.00000000000E+00 0. -1.
          4    1    1    2  501    0  0.86807203443E+00  0.13464909528E+01  0.22049654244E+02  0.22144225866E+02  0.12700000000E+01 0.  1.
         -4    1    1    2    0  501 -0.86807203443E+00 -0.13464909528E+01  0.11040492155E+02  0.11228176788E+02  0.12700000000E+01 0. -1.
<mgrwt>
<rscale>  0 0.20443794E+01</rscale>
<asrwt>0</asrwt>
<pdfrwt beam="1">0</pdfrwt>
<pdfrwt beam="2">0</pdfrwt>
<totfact> 0.32286272E+12</totfact>
</mgrwt>
</event>
<event>
 4    1  0.1699693E+006  0.1580061E+02  0.7546771E-02  0.1608232E+00
         22   -1    0    0    0    0  0.00000000000E+00  0.00000000000E+00  0.41174532906E+02  0.41174532906E+02  0.00000000000E+00 0. -1.
         22   -1    0    0    0    0 -0.00000000000E+00 -0.00000000000E+00 -0.10267997801E+02  0.10267997801E+02  0.00000000000E+00 0.  1.
          4    1    1    2  501    0  0.10044892513E+02  0.12130398479E+02  0.31912500090E+02  0.35609928318E+02  0.12700000000E+01 0. -1.
         -4    1    1    2    0  501 -0.10044892513E+02 -0.12130398479E+02 -0.10059649845E+01  0.15832602389E+02  0.12700000000E+01 0.  1.
<mgrwt>
<rscale>  0 0.15800612E+02</rscale>
<asrwt>0</asrwt>
<pdfrwt beam="1">0</pdfrwt>
<pdfrwt beam="2">0</pdfrwt>
<totfact> 0.17626546E+10</totfact>
</mgrwt>
</event>
<event>
 4    1  0.1699693E+006  0.2126354E+01  0.7546771E-02  0.2900362E+00
         22   -1    0    0    0    0  0.00000000000E+00  0.00000000000E+00  0.59765979739E+00  0.59765979739E+00  0.00000000000E+00 0.  1.
         22   -1    0    0    0    0 -0.00000000000E+00 -0.00000000000E+00 -0.11026234316E+02  0.11026234316E+02  0.00000000000E+00 0.  1.
          4    1    1    2  501    0  0.16231902759E+01  0.52319741500E+00 -0.19580613290E+01  0.28905685211E+01  0.12700000000E+01 0.  1.
         -4    1    1    2    0  501 -0.16231902759E+01 -0.52319741500E+00 -0.84705131894E+01  0.87333255922E+01  0.12700000000E+01 0.  1.
<mgrwt>
<rscale>  0 0.21263542E+01</rscale>
<asrwt>0</asrwt>
<pdfrwt beam="1">0</pdfrwt>
<pdfrwt beam="2">0</pdfrwt>
<totfact> 0.25304638E+12</totfact>
</mgrwt>
</event>
<event>
 4    1  0.1699693E+006  0.2429673E+01  0.7546771E-02  0.2740371E+00
         22   -1    0    0    0    0  0.00000000000E+00  0.00000000000E+00  0.23480613538E+01  0.23480613538E+01  0.00000000000E+00 0.  1.
         22   -1    0    0    0    0 -0.00000000000E+00 -0.00000000000E+00 -0.26582312825E+01  0.26582312825E+01  0.00000000000E+00 0. -1.
          4    1    1    2  501    0  0.81565131003E+00 -0.19039755863E+01  0.42773914635E+00  0.24670368603E+01  0.12700000000E+01 0. -1.
         -4    1    1    2    0  501 -0.81565131003E+00  0.19039755863E+01 -0.73790907509E+00  0.25392557760E+01  0.12700000000E+01 0.  1.
<mgrwt>
<rscale>  0 0.24296728E+01</rscale>
<asrwt>0</asrwt>
<pdfrwt beam="1">0</pdfrwt>
<pdfrwt beam="2">0</pdfrwt>
<totfact> 0.28584596E+12</totfact>
</mgrwt>
</event>
<event>
 4    1  0.1699693E+006  0.2260681E+01  0.7546771E-02  0.2824468E+00
         22   -1    0    0    0    0  0.00000000000E+00  0.00000000000E+00  0.26451563252E+00  0.26451563252E+00  0.00000000000E+00 0.  1.
         22   -1    0    0    0    0 -0.00000000000E+00 -0.00000000000E+00 -0.19499350015E+02  0.19499350015E+02  0.00000000000E+00 0.  1.
          4    1    1    2  501    0  0.79375689946E+00  0.16934375248E+01 -0.86720784640E+01  0.89618985462E+01  0.12700000000E+01 0.  1.
         -4    1    1    2    0  501 -0.79375689946E+00 -0.16934375248E+01 -0.10562755919E+02  0.10801967102E+02  0.12700000000E+01 0.  1.
<mgrwt>
<rscale>  0 0.22606815E+01</rscale>
<asrwt>0</asrwt>
<pdfrwt beam="1">0</pdfrwt>
<pdfrwt beam="2">0</pdfrwt>
<totfact> 0.31420671E+12</totfact>
</mgrwt>
</event>
<event>
 4    1  0.1699693E+006  0.2192187E+01  0.7546771E-02  0.2862053E+00
         22   -1    0    0    0    0  0.00000000000E+00  0.00000000000E+00  0.38926738248E+01  0.38926738248E+01  0.00000000000E+00 0.  1.
         22   -1    0    0    0    0 -0.00000000000E+00 -0.00000000000E+00 -0.16658201315E+01  0.16658201315E+01  0.00000000000E+00 0.  1.
          4    1    1    2  501    0  0.15287930891E+01  0.92497255501E+00  0.25275593330E+01  0.33457792394E+01  0.12700000000E+01 0.  1.
         -4    1    1    2    0  501 -0.15287930891E+01 -0.92497255501E+00 -0.30070563971E+00  0.22127147170E+01  0.12700000000E+01 0.  1.
<mgrwt>
<rscale>  0 0.21921867E+01</rscale>
<asrwt>0</asrwt>
<pdfrwt beam="1">0</pdfrwt>
<pdfrwt beam="2">0</pdfrwt>
<totfact> 0.27213133E+12</totfact>
</mgrwt>
</event>
<event>
 4    1  0.1699693E+006  0.2122021E+01  0.7546771E-02  0.2902965E+00
         22   -1    0    0    0    0  0.00000000000E+00  0.00000000000E+00  0.33508067068E+01  0.33508067068E+01  0.00000000000E+00 0.  1.
         22   -1    0    0    0    0 -0.00000000000E+00 -0.00000000000E+00 -0.14073660878E+01  0.14073660878E+01  0.00000000000E+00 0. -1.
          4    1    1    2  501    0  0.13662848968E+01  0.10116010632E+01  0.14771482167E+01  0.25855247019E+01  0.12700000000E+01 0.  1.
         -4    1    1    2    0  501 -0.13662848968E+01 -0.10116010632E+01  0.46629240237E+00  0.21726480927E+01  0.12700000000E+01 0. -1.
<mgrwt>
<rscale>  0 0.21220205E+01</rscale>
<asrwt>0</asrwt>
<pdfrwt beam="1">0</pdfrwt>
<pdfrwt beam="2">0</pdfrwt>
<totfact> 0.39396555E+12</totfact>
</mgrwt>
</event>
<event>
 4    1  0.1699693E+006  0.5350337E+01  0.7546771E-02  0.2083370E+00
         22   -1    0    0    0    0  0.00000000000E+00  0.00000000000E+00  0.66228988653E+01  0.66228988653E+01  0.00000000000E+00 0.  1.
         22   -1    0    0    0    0 -0.00000000000E+00 -0.00000000000E+00 -0.56069098584E+01  0.56069098584E+01  0.00000000000E+00 0. -1.
          4    1    1    2  501    0  0.49357458442E+01 -0.16283798880E+01  0.34349405963E+01  0.63580598454E+01  0.12700000000E+01 0.  1.
         -4    1    1    2    0  501 -0.49357458442E+01  0.16283798880E+01 -0.24189515894E+01  0.58717488783E+01  0.12700000000E+01 0. -1.
<mgrwt>
<rscale>  0 0.53503372E+01</rscale>
<asrwt>0</asrwt>
<pdfrwt beam="1">0</pdfrwt>
<pdfrwt beam="2">0</pdfrwt>
<totfact> 0.35079153E+11</totfact>
</mgrwt>
</event>
<event>
 4    1  0.1699693E+006  0.2653738E+01  0.7546771E-02  0.2644402E+00
         22   -1    0    0    0    0  0.00000000000E+00  0.00000000000E+00  0.39139886767E+00  0.39139886767E+00  0.00000000000E+00 0.  1.
         22   -1    0    0    0    0 -0.00000000000E+00 -0.00000000000E+00 -0.24172013313E+02  0.24172013313E+02  0.00000000000E+00 0.  1.
          4    1    1    2  501    0 -0.72158070615E+00 -0.22155691770E+01 -0.18100028661E+02  0.18293533367E+02  0.12700000000E+01 0.  1.
         -4    1    1    2    0  501  0.72158070615E+00  0.22155691770E+01 -0.56805857836E+01  0.62698788137E+01  0.12700000000E+01 0.  1.
<mgrwt>
<rscale>  0 0.26537380E+01</rscale>
<asrwt>0</asrwt>
<pdfrwt beam="1">0</pdfrwt>
<pdfrwt beam="2">0</pdfrwt>
<totfact> 0.15468137E+12</totfact>
</mgrwt>
</event>
<event>
 4    1  0.1699693E+006  0.2306761E+01  0.7546771E-02  0.2800382E+00
         22   -1    0    0    0    0  0.00000000000E+00  0.00000000000E+00  0.32898878769E+00  0.32898878769E+00  0.00000000000E+00 0. -1.
         22   -1    0    0    0    0 -0.00000000000E+00 -0.00000000000E+00 -0.16551992215E+02  0.16551992215E+02  0.00000000000E+00 0. -1.
          4    1    1    2  501    0 -0.16548412669E+00 -0.19185570913E+01 -0.68364102402E+01  0.72150988407E+01  0.12700000000E+01 0. -1.
         -4    1    1    2    0  501  0.16548412669E+00  0.19185570913E+01 -0.93865931868E+01  0.96658821616E+01  0.12700000000E+01 0. -1.
<mgrwt>
<rscale>  0 0.23067610E+01</rscale>
<asrwt>0</asrwt>
<pdfrwt beam="1">0</pdfrwt>
<pdfrwt beam="2">0</pdfrwt>
<totfact> 0.30152523E+12</totfact>
</mgrwt>
</event>
<event>
 4    1  0.1699693E+006  0.3173397E+01  0.7546771E-02  0.2470071E+00
         22   -1    0    0    0    0  0.00000000000E+00  0.00000000000E+00  0.26236070538E+02  0.26236070538E+02  0.00000000000E+00 0. -1.
         22   -1    0    0    0    0 -0.00000000000E+00 -0.00000000000E+00 -0.49678061967E+00  0.49678061967E+00  0.00000000000E+00 0.  1.
          4    1    1    2  501    0  0.25290972115E+01  0.14356924190E+01  0.19242860748E+02  0.19502772500E+02  0.12700000000E+01 0. -1.
         -4    1    1    2    0  501 -0.25290972115E+01 -0.14356924190E+01  0.64964291699E+01  0.72300786570E+01  0.12700000000E+01 0.  1.
<mgrwt>
<rscale>  0 0.31733965E+01</rscale>
<asrwt>0</asrwt>
<pdfrwt beam="1">0</pdfrwt>
<pdfrwt beam="2">0</pdfrwt>
<totfact> 0.10661684E+12</totfact>
</mgrwt>
</event>
<event>
 4    1  0.1699693E+006  0.7387249E+01  0.7546771E-02  0.1913847E+00
         22   -1    0    0    0    0  0.00000000000E+00  0.00000000000E+00  0.13737491378E+02  0.13737491378E+02  0.00000000000E+00 0. -1.
         22   -1    0    0    0    0 -0.00000000000E+00 -0.00000000000E+00 -0.47526090680E+01  0.47526090680E+01  0.00000000000E+00 0.  1.
          4    1    1    2  501    0 -0.60374425533E+01  0.40629836744E+01  0.74671696429E+00  0.74248929385E+01  0.12700000000E+01 0. -1.
         -4    1    1    2    0  501  0.60374425533E+01 -0.40629836744E+01  0.82381653460E+01  0.11065207508E+02  0.12700000000E+01 0.  1.
<mgrwt>
<rscale>  0 0.73872491E+01</rscale>
<asrwt>0</asrwt>
<pdfrwt beam="1">0</pdfrwt>
<pdfrwt beam="2">0</pdfrwt>
<totfact> 0.17659446E+11</totfact>
</mgrwt>
</event>
<event>
 4    1  0.1699693E+006  0.3005745E+01  0.7546771E-02  0.2520368E+00
         22   -1    0    0    0    0  0.00000000000E+00  0.00000000000E+00  0.80181446839E+01  0.80181446839E+01  0.00000000000E+00 0.  1.
         22   -1    0    0    0    0 -0.00000000000E+00 -0.00000000000E+00 -0.12028216327E+01  0.12028216327E+01  0.00000000000E+00 0.  1.
          4    1    1    2  501    0 -0.24567210593E+01 -0.11773390549E+01  0.45670672589E+01  0.54674133702E+01  0.12700000000E+01 0.  1.
         -4    1    1    2    0  501  0.24567210593E+01  0.11773390549E+01  0.22482557924E+01  0.37535529464E+01  0.12700000000E+01 0.  1.
<mgrwt>
<rscale>  0 0.30057454E+01</rscale>
<asrwt>0</asrwt>
<pdfrwt beam="1">0</pdfrwt>
<pdfrwt beam="2">0</pdfrwt>
<totfact> 0.16768348E+12</totfact>
</mgrwt>
</event>
<event>
 4    1  0.1699693E+006  0.2313464E+01  0.7546771E-02  0.2796955E+00
         22   -1    0    0    0    0  0.00000000000E+00  0.00000000000E+00  0.28546498623E+01  0.28546498623E+01  0.00000000000E+00 0. -1.
         22   -1    0    0    0    0 -0.00000000000E+00 -0.00000000000E+00 -0.26542770749E+01  0.26542770749E+01  0.00000000000E+00 0. -1.
          4    1    1    2  501    0  0.12024391405E+01 -0.15143824137E+01  0.15927898437E+01  0.28087530094E+01  0.12700000000E+01 0. -1.
         -4    1    1    2    0  501 -0.12024391405E+01  0.15143824137E+01 -0.13924170563E+01  0.27001739278E+01  0.12700000000E+01 0. -1.
<mgrwt>
<rscale>  0 0.23134636E+01</rscale>
<asrwt>0</asrwt>
<pdfrwt beam="1">0</pdfrwt>
<pdfrwt beam="2">0</pdfrwt>
<totfact> 0.22809187E+12</totfact>
</mgrwt>
</event>
<event>
 4    1  0.1699693E+006  0.2340667E+01  0.7546771E-02  0.2783234E+00
         22   -1    0    0    0    0  0.00000000000E+00  0.00000000000E+00  0.44121754122E+01  0.44121754122E+01  0.00000000000E+00 0.  1.
         22   -1    0    0    0    0 -0.00000000000E+00 -0.00000000000E+00 -0.15777604783E+01  0.15777604783E+01  0.00000000000E+00 0. -1.
          4    1    1    2  501    0  0.58508433591E+00 -0.18770986610E+01  0.27993794237E+01  0.36490064704E+01  0.12700000000E+01 0.  1.
         -4    1    1    2    0  501 -0.58508433591E+00  0.18770986610E+01  0.35035510298E-01  0.23409294202E+01  0.12700000000E+01 0. -1.
<mgrwt>
<rscale>  0 0.23406672E+01</rscale>
<asrwt>0</asrwt>
<pdfrwt beam="1">0</pdfrwt>
<pdfrwt beam="2">0</pdfrwt>
<totfact> 0.24997092E+12</totfact>
</mgrwt>
</event>
<event>
 4    1  0.1699693E+006  0.3007953E+01  0.7546771E-02  0.2519673E+00
         22   -1    0    0    0    0  0.00000000000E+00  0.00000000000E+00  0.25167600782E+01  0.25167600782E+01  0.00000000000E+00 0.  1.
         22   -1    0    0    0    0 -0.00000000000E+00 -0.00000000000E+00 -0.50363823132E+01  0.50363823132E+01  0.00000000000E+00 0.  1.
          4    1    1    2  501    0 -0.41497057458E+00  0.26949357757E+01  0.76053749416E+00  0.31026112700E+01  0.12700000000E+01 0.  1.
         -4    1    1    2    0  501  0.41497057458E+00 -0.26949357757E+01 -0.32801597292E+01  0.44505311213E+01  0.12700000000E+01 0.  1.
<mgrwt>
<rscale>  0 0.30079527E+01</rscale>
<asrwt>0</asrwt>
<pdfrwt beam="1">0</pdfrwt>
<pdfrwt beam="2">0</pdfrwt>
<totfact> 0.12452331E+12</totfact>
</mgrwt>
</event>
<event>
 4    1  0.1699693E+006  0.5118514E+01  0.7546771E-02  0.2109118E+00
         22   -1    0    0    0    0  0.00000000000E+00  0.00000000000E+00  0.39375492333E+01  0.39375492333E+01  0.00000000000E+00 0.  1.
         22   -1    0    0    0    0 -0.00000000000E+00 -0.00000000000E+00 -0.39087173516E+02  0.39087173516E+02  0.00000000000E+00 0. -1.
          4    1    1    2  501    0  0.25599555246E+00 -0.49518435311E+01  0.20212056135E+01  0.55031318548E+01  0.12700000000E+01 0.  1.
         -4    1    1    2    0  501 -0.25599555246E+00  0.49518435311E+01 -0.37170829897E+02  0.37521590895E+02  0.12700000000E+01 0. -1.
<mgrwt>
<rscale>  0 0.51185142E+01</rscale>
<asrwt>0</asrwt>
<pdfrwt beam="1">0</pdfrwt>
<pdfrwt beam="2">0</pdfrwt>
<totfact> 0.59172536E+10</totfact>
</mgrwt>
</event>
<event>
 4    1  0.1699693E+006  0.2271854E+01  0.7546771E-02  0.2818543E+00
         22   -1    0    0    0    0  0.00000000000E+00  0.00000000000E+00  0.38572322176E+00  0.38572322176E+00  0.00000000000E+00 0. -1.
         22   -1    0    0    0    0 -0.00000000000E+00 -0.00000000000E+00 -0.15821234720E+02  0.15821234720E+02  0.00000000000E+00 0. -1.
          4    1    1    2  501    0 -0.18781509490E+01 -0.14480355362E+00 -0.45351918675E+01  0.50724041964E+01  0.12700000000E+01 0. -1.
         -4    1    1    2    0  501  0.18781509490E+01  0.14480355362E+00 -0.10900319630E+02  0.11134553745E+02  0.12700000000E+01 0. -1.
<mgrwt>
<rscale>  0 0.22718537E+01</rscale>
<asrwt>0</asrwt>
<pdfrwt beam="1">0</pdfrwt>
<pdfrwt beam="2">0</pdfrwt>
<totfact> 0.26661460E+12</totfact>
</mgrwt>
</event>
<event>
 4    1  0.1699693E+006  0.3058200E+01  0.7546771E-02  0.2504102E+00
         22   -1    0    0    0    0  0.00000000000E+00  0.00000000000E+00  0.38558133360E+01  0.38558133360E+01  0.00000000000E+00 0.  1.
         22   -1    0    0    0    0 -0.00000000000E+00 -0.00000000000E+00 -0.25789145457E+01  0.25789145457E+01  0.00000000000E+00 0. -1.
          4    1    1    2  501    0  0.10138359021E+01 -0.25907190942E+01  0.14229619562E+01  0.33730415637E+01  0.12700000000E+01 0.  1.
         -4    1    1    2    0  501 -0.10138359021E+01  0.25907190942E+01 -0.14606316595E+00  0.30616863180E+01  0.12700000000E+01 0. -1.
<mgrwt>
<rscale>  0 0.30582002E+01</rscale>
<asrwt>0</asrwt>
<pdfrwt beam="1">0</pdfrwt>
<pdfrwt beam="2">0</pdfrwt>
<totfact> 0.16587766E+12</totfact>
</mgrwt>
</event>
<event>
 4    1  0.1699693E+006  0.4219926E+01  0.7546771E-02  0.2237128E+00
         22   -1    0    0    0    0  0.00000000000E+00  0.00000000000E+00  0.11078409478E+01  0.11078409478E+01  0.00000000000E+00 0.  1.
         22   -1    0    0    0    0 -0.00000000000E+00 -0.00000000000E+00 -0.22110348845E+02  0.22110348845E+02  0.00000000000E+00 0. -1.
          4    1    1    2  501    0 -0.54882025928E+00 -0.39866869385E+01 -0.44356136142E+01  0.61222907932E+01  0.12700000000E+01 0.  1.
         -4    1    1    2    0  501  0.54882025928E+00  0.39866869385E+01 -0.16566894283E+02  0.17095899000E+02  0.12700000000E+01 0. -1.
<mgrwt>
<rscale>  0 0.42199261E+01</rscale>
<asrwt>0</asrwt>
<pdfrwt beam="1">0</pdfrwt>
<pdfrwt beam="2">0</pdfrwt>
<totfact> 0.53158457E+11</totfact>
</mgrwt>
</event>
<event>
 4    1  0.1699693E+006  0.2494335E+01  0.7546771E-02  0.2711033E+00
         22   -1    0    0    0    0  0.00000000000E+00  0.00000000000E+00  0.29590300019E+00  0.29590300019E+00  0.00000000000E+00 0. -1.
         22   -1    0    0    0    0 -0.00000000000E+00 -0.00000000000E+00 -0.27415424675E+02  0.27415424675E+02  0.00000000000E+00 0.  1.
          4    1    1    2  501    0  0.14790332310E+01  0.15560430599E+01 -0.68708615059E+01  0.73096133369E+01  0.12700000000E+01 0. -1.
         -4    1    1    2    0  501 -0.14790332310E+01 -0.15560430599E+01 -0.20248660168E+02  0.20401714338E+02  0.12700000000E+01 0.  1.
<mgrwt>
<rscale>  0 0.24943354E+01</rscale>
<asrwt>0</asrwt>
<pdfrwt beam="1">0</pdfrwt>
<pdfrwt beam="2">0</pdfrwt>
<totfact> 0.18062364E+12</totfact>
</mgrwt>
</event>
<event>
 4    1  0.1699693E+006  0.2268173E+01  0.7546771E-02  0.2820489E+00
         22   -1    0    0    0    0  0.00000000000E+00  0.00000000000E+00  0.99825088013E+01  0.99825088013E+01  0.00000000000E+00 0.  1.
         22   -1    0    0    0    0 -0.00000000000E+00 -0.00000000000E+00 -0.13984121156E+01  0.13984121156E+01  0.00000000000E+00 0.  1.
          4    1    1    2  501    0  0.47001170097E+00 -0.18195603825E+01  0.88139630524E+01  0.91011293625E+01  0.12700000000E+01 0.  1.
         -4    1    1    2    0  501 -0.47001170097E+00  0.18195603825E+01 -0.22986636663E+00  0.22797915543E+01  0.12700000000E+01 0.  1.
<mgrwt>
<rscale>  0 0.22681735E+01</rscale>
<asrwt>0</asrwt>
<pdfrwt beam="1">0</pdfrwt>
<pdfrwt beam="2">0</pdfrwt>
<totfact> 0.10829541E+12</totfact>
</mgrwt>
</event>
<event>
 4    1  0.1699693E+006  0.2201186E+01  0.7546771E-02  0.2856987E+00
         22   -1    0    0    0    0  0.00000000000E+00  0.00000000000E+00  0.14076338270E+00  0.14076338270E+00  0.00000000000E+00 0. -1.
         22   -1    0    0    0    0 -0.00000000000E+00 -0.00000000000E+00 -0.10197358023E+03  0.10197358023E+03  0.00000000000E+00 0.  1.
          4    1    1    2  501    0 -0.83157657513E+00  0.15939885674E+01 -0.93603997054E+01  0.96157319949E+01  0.12700000000E+01 0. -1.
         -4    1    1    2    0  501  0.83157657513E+00 -0.15939885674E+01 -0.92472417139E+02  0.92498611615E+02  0.12700000000E+01 0.  1.
<mgrwt>
<rscale>  0 0.22011859E+01</rscale>
<asrwt>0</asrwt>
<pdfrwt beam="1">0</pdfrwt>
<pdfrwt beam="2">0</pdfrwt>
<totfact> 0.72167180E+11</totfact>
</mgrwt>
</event>
<event>
 4    1  0.1699693E+006  0.2085139E+01  0.7546771E-02  0.2925535E+00
         22   -1    0    0    0    0  0.00000000000E+00  0.00000000000E+00  0.46317913509E+00  0.46317913509E+00  0.00000000000E+00 0.  1.
         22   -1    0    0    0    0 -0.00000000000E+00 -0.00000000000E+00 -0.11491217228E+02  0.11491217228E+02  0.00000000000E+00 0. -1.
          4    1    1    2  501    0  0.16522022650E+01 -0.71652610982E-01 -0.29561846247E+01  0.36175729373E+01  0.12700000000E+01 0.  1.
         -4    1    1    2    0  501 -0.16522022650E+01  0.71652610982E-01 -0.80718534685E+01  0.83368234262E+01  0.12700000000E+01 0. -1.
<mgrwt>
<rscale>  0 0.20851394E+01</rscale>
<asrwt>0</asrwt>
<pdfrwt beam="1">0</pdfrwt>
<pdfrwt beam="2">0</pdfrwt>
<totfact> 0.32098525E+12</totfact>
</mgrwt>
</event>
<event>
 4    1  0.1699693E+006  0.2313083E+01  0.7546771E-02  0.2797149E+00
         22   -1    0    0    0    0  0.00000000000E+00  0.00000000000E+00  0.24373536208E+01  0.24373536208E+01  0.00000000000E+00 0.  1.
         22   -1    0    0    0    0 -0.00000000000E+00 -0.00000000000E+00 -0.22902649194E+01  0.22902649194E+01  0.00000000000E+00 0.  1.
          4    1    1    2  501    0 -0.19309354522E+01 -0.94552092033E-01  0.55526865661E+00  0.23787969858E+01  0.12700000000E+01 0.  1.
         -4    1    1    2    0  501  0.19309354522E+01  0.94552092033E-01 -0.40817995521E+00  0.23488215544E+01  0.12700000000E+01 0.  1.
<mgrwt>
<rscale>  0 0.23130828E+01</rscale>
<asrwt>0</asrwt>
<pdfrwt beam="1">0</pdfrwt>
<pdfrwt beam="2">0</pdfrwt>
<totfact> 0.32548826E+12</totfact>
</mgrwt>
</event>
<event>
 4    1  0.1699693E+006  0.2617973E+01  0.7546771E-02  0.2658699E+00
         22   -1    0    0    0    0  0.00000000000E+00  0.00000000000E+00  0.68056715459E+01  0.68056715459E+01  0.00000000000E+00 0.  1.
         22   -1    0    0    0    0 -0.00000000000E+00 -0.00000000000E+00 -0.12342504343E+01  0.12342504343E+01  0.00000000000E+00 0. -1.
          4    1    1    2  501    0  0.99310006302E+00 -0.20626764606E+01  0.45103823525E+01  0.52151060279E+01  0.12700000000E+01 0.  1.
         -4    1    1    2    0  501 -0.99310006302E+00  0.20626764606E+01  0.10610387591E+01  0.28248159524E+01  0.12700000000E+01 0. -1.
<mgrwt>
<rscale>  0 0.26179729E+01</rscale>
<asrwt>0</asrwt>
<pdfrwt beam="1">0</pdfrwt>
<pdfrwt beam="2">0</pdfrwt>
<totfact> 0.19813695E+12</totfact>
</mgrwt>
</event>
<event>
 4    1  0.1699693E+006  0.2369201E+01  0.7546771E-02  0.2769163E+00
         22   -1    0    0    0    0  0.00000000000E+00  0.00000000000E+00  0.85682404986E+00  0.85682404986E+00  0.00000000000E+00 0. -1.
         22   -1    0    0    0    0 -0.00000000000E+00 -0.00000000000E+00 -0.98131842469E+01  0.98131842469E+01  0.00000000000E+00 0.  1.
          4    1    1    2  501    0 -0.81193661812E+00 -0.18278329465E+01 -0.14022294262E+01  0.27530640596E+01  0.12700000000E+01 0. -1.
         -4    1    1    2    0  501  0.81193661812E+00  0.18278329465E+01 -0.75541307708E+01  0.79169442372E+01  0.12700000000E+01 0.  1.
<mgrwt>
<rscale>  0 0.23692012E+01</rscale>
<asrwt>0</asrwt>
<pdfrwt beam="1">0</pdfrwt>
<pdfrwt beam="2">0</pdfrwt>
<totfact> 0.19362423E+12</totfact>
</mgrwt>
</event>
<event>
 4    1  0.1699693E+006  0.9163755E+01  0.7546771E-02  0.1815640E+00
         22   -1    0    0    0    0  0.00000000000E+00  0.00000000000E+00  0.64126696546E+01  0.64126696546E+01  0.00000000000E+00 0. -1.
         22   -1    0    0    0    0 -0.00000000000E+00 -0.00000000000E+00 -0.56146030587E+02  0.56146030587E+02  0.00000000000E+00 0.  1.
          4    1    1    2  501    0  0.76751854477E+01  0.48428340809E+01  0.25231643551E+01  0.95047762707E+01  0.12700000000E+01 0. -1.
         -4    1    1    2    0  501 -0.76751854477E+01 -0.48428340809E+01 -0.52256525288E+02  0.53053923971E+02  0.12700000000E+01 0.  1.
<mgrwt>
<rscale>  0 0.91637554E+01</rscale>
<asrwt>0</asrwt>
<pdfrwt beam="1">0</pdfrwt>
<pdfrwt beam="2">0</pdfrwt>
<totfact> 0.20643975E+10</totfact>
</mgrwt>
</event>
<event>
 4    1  0.1699693E+006  0.2364801E+01  0.7546771E-02  0.2771312E+00
         22   -1    0    0    0    0  0.00000000000E+00  0.00000000000E+00  0.14894054720E+02  0.14894054720E+02  0.00000000000E+00 0.  1.
         22   -1    0    0    0    0 -0.00000000000E+00 -0.00000000000E+00 -0.68928214717E+00  0.68928214717E+00  0.00000000000E+00 0. -1.
          4    1    1    2  501    0  0.58742837985E+00  0.19063870798E+01  0.12359728123E+02  0.12583924788E+02  0.12700000000E+01 0.  1.
         -4    1    1    2    0  501 -0.58742837985E+00 -0.19063870798E+01  0.18450444505E+01  0.29994120796E+01  0.12700000000E+01 0. -1.
<mgrwt>
<rscale>  0 0.23648010E+01</rscale>
<asrwt>0</asrwt>
<pdfrwt beam="1">0</pdfrwt>
<pdfrwt beam="2">0</pdfrwt>
<totfact> 0.14905509E+12</totfact>
</mgrwt>
</event>
<event>
 4    1  0.1699693E+006  0.2623187E+01  0.7546771E-02  0.2656592E+00
         22   -1    0    0    0    0  0.00000000000E+00  0.00000000000E+00  0.12239210655E+02  0.12239210655E+02  0.00000000000E+00 0.  1.
         22   -1    0    0    0    0 -0.00000000000E+00 -0.00000000000E+00 -0.32079355576E+02  0.32079355576E+02  0.00000000000E+00 0. -1.
          4    1    1    2  501    0  0.21148231163E+01  0.89203895777E+00  0.12044172014E+02  0.12326523834E+02  0.12700000000E+01 0.  1.
         -4    1    1    2    0  501 -0.21148231163E+01 -0.89203895777E+00 -0.31884316935E+02  0.31992042397E+02  0.12700000000E+01 0. -1.
<mgrwt>
<rscale>  0 0.26231871E+01</rscale>
<asrwt>0</asrwt>
<pdfrwt beam="1">0</pdfrwt>
<pdfrwt beam="2">0</pdfrwt>
<totfact> 0.19643199E+10</totfact>
</mgrwt>
</event>
<event>
 4    1  0.1699693E+006  0.3175675E+01  0.7546771E-02  0.2469420E+00
         22   -1    0    0    0    0  0.00000000000E+00  0.00000000000E+00  0.74239574544E+01  0.74239574544E+01  0.00000000000E+00 0. -1.
         22   -1    0    0    0    0 -0.00000000000E+00 -0.00000000000E+00 -0.13683997038E+01  0.13683997038E+01  0.00000000000E+00 0.  1.
          4    1    1    2  501    0  0.23400759534E+01 -0.17309115527E+01  0.26524969497E+01  0.41377107607E+01  0.12700000000E+01 0.  1.
         -4    1    1    2    0  501 -0.23400759534E+01  0.17309115527E+01  0.34030608010E+01  0.46546463975E+01  0.12700000000E+01 0. -1.
<mgrwt>
<rscale>  0 0.31756748E+01</rscale>
<asrwt>0</asrwt>
<pdfrwt beam="1">0</pdfrwt>
<pdfrwt beam="2">0</pdfrwt>
<totfact> 0.15862128E+12</totfact>
</mgrwt>
</event>
<event>
 4    1  0.1699693E+006  0.2959872E+01  0.7546771E-02  0.2535015E+00
         22   -1    0    0    0    0  0.00000000000E+00  0.00000000000E+00  0.21763708690E+01  0.21763708690E+01  0.00000000000E+00 0. -1.
         22   -1    0    0    0    0 -0.00000000000E+00 -0.00000000000E+00 -0.62397982582E+01  0.62397982582E+01  0.00000000000E+00 0. -1.
          4    1    1    2  501    0  0.20627094315E+01  0.17009329409E+01  0.47510806375E+00  0.29977609545E+01  0.12700000000E+01 0. -1.
         -4    1    1    2    0  501 -0.20627094315E+01 -0.17009329409E+01 -0.45385354530E+01  0.54184081727E+01  0.12700000000E+01 0. -1.
<mgrwt>
<rscale>  0 0.29598721E+01</rscale>
<asrwt>0</asrwt>
<pdfrwt beam="1">0</pdfrwt>
<pdfrwt beam="2">0</pdfrwt>
<totfact> 0.11428903E+12</totfact>
</mgrwt>
</event>
<event>
 4    1  0.1699693E+006  0.3023226E+01  0.7546771E-02  0.2514891E+00
         22   -1    0    0    0    0  0.00000000000E+00  0.00000000000E+00  0.17955956842E+02  0.17955956842E+02  0.00000000000E+00 0.  1.
         22   -1    0    0    0    0 -0.00000000000E+00 -0.00000000000E+00 -0.58413386812E+00  0.58413386812E+00  0.00000000000E+00 0. -1.
          4    1    1    2  501    0 -0.16902290794E+01  0.21610468064E+01  0.12010154268E+02  0.12384817446E+02  0.12700000000E+01 0.  1.
         -4    1    1    2    0  501  0.16902290794E+01 -0.21610468064E+01  0.53616687066E+01  0.61552732644E+01  0.12700000000E+01 0. -1.
<mgrwt>
<rscale>  0 0.30232264E+01</rscale>
<asrwt>0</asrwt>
<pdfrwt beam="1">0</pdfrwt>
<pdfrwt beam="2">0</pdfrwt>
<totfact> 0.14273494E+12</totfact>
</mgrwt>
</event>
<event>
 4    1  0.1699693E+006  0.2661063E+01  0.7546771E-02  0.2641517E+00
         22   -1    0    0    0    0  0.00000000000E+00  0.00000000000E+00  0.51031634117E+01  0.51031634117E+01  0.00000000000E+00 0.  1.
         22   -1    0    0    0    0 -0.00000000000E+00 -0.00000000000E+00 -0.61374154478E+01  0.61374154478E+01  0.00000000000E+00 0.  1.
          4    1    1    2  501    0  0.98454958238E+00 -0.21210886237E+01  0.44271572538E+01  0.51653631217E+01  0.12700000000E+01 0.  1.
         -4    1    1    2    0  501 -0.98454958238E+00  0.21210886237E+01 -0.54614092899E+01  0.60752157378E+01  0.12700000000E+01 0.  1.
<mgrwt>
<rscale>  0 0.26610627E+01</rscale>
<asrwt>0</asrwt>
<pdfrwt beam="1">0</pdfrwt>
<pdfrwt beam="2">0</pdfrwt>
<totfact> 0.42950929E+11</totfact>
</mgrwt>
</event>
<event>
 4    1  0.1699693E+006  0.4941458E+01  0.7546771E-02  0.2130057E+00
         22   -1    0    0    0    0  0.00000000000E+00  0.00000000000E+00  0.85771868477E+01  0.85771868477E+01  0.00000000000E+00 0.  1.
         22   -1    0    0    0    0 -0.00000000000E+00 -0.00000000000E+00 -0.28558321060E+01  0.28558321060E+01  0.00000000000E+00 0. -1.
          4    1    1    2  501    0 -0.36284216828E+01  0.31047801237E+01  0.25401660966E+01  0.55561180084E+01  0.12700000000E+01 0. -1.
         -4    1    1    2    0  501  0.36284216828E+01 -0.31047801237E+01  0.31811886452E+01  0.58769009453E+01  0.12700000000E+01 0.  1.
<mgrwt>
<rscale>  0 0.49414576E+01</rscale>
<asrwt>0</asrwt>
<pdfrwt beam="1">0</pdfrwt>
<pdfrwt beam="2">0</pdfrwt>
<totfact> 0.56916321E+11</totfact>
</mgrwt>
</event>
<event>
 4    1  0.1699693E+006  0.2098463E+01  0.7546771E-02  0.2917292E+00
         22   -1    0    0    0    0  0.00000000000E+00  0.00000000000E+00  0.14432042541E+01  0.14432042541E+01  0.00000000000E+00 0. -1.
         22   -1    0    0    0    0 -0.00000000000E+00 -0.00000000000E+00 -0.79734655025E+01  0.79734655025E+01  0.00000000000E+00 0. -1.
          4    1    1    2  501    0 -0.11246103130E+01  0.12352733614E+01  0.43421546223E+00  0.21429166342E+01  0.12700000000E+01 0. -1.
         -4    1    1    2    0  501  0.11246103130E+01 -0.12352733614E+01 -0.69644767106E+01  0.72737531224E+01  0.12700000000E+01 0. -1.
<mgrwt>
<rscale>  0 0.20984634E+01</rscale>
<asrwt>0</asrwt>
<pdfrwt beam="1">0</pdfrwt>
<pdfrwt beam="2">0</pdfrwt>
<totfact> 0.13694615E+12</totfact>
</mgrwt>
</event>
<event>
 4    1  0.1699693E+006  0.2079565E+01  0.7546771E-02  0.2929014E+00
         22   -1    0    0    0    0  0.00000000000E+00  0.00000000000E+00  0.40817405589E+01  0.40817405589E+01  0.00000000000E+00 0. -1.
         22   -1    0    0    0    0 -0.00000000000E+00 -0.00000000000E+00 -0.13020919806E+01  0.13020919806E+01  0.00000000000E+00 0. -1.
          4    1    1    2  501    0  0.13311611791E+01  0.96938129807E+00  0.25517597112E+01  0.32918183136E+01  0.12700000000E+01 0. -1.
         -4    1    1    2    0  501 -0.13311611791E+01 -0.96938129807E+00  0.22788886717E+00  0.20920142259E+01  0.12700000000E+01 0. -1.
<mgrwt>
<rscale>  0 0.20795649E+01</rscale>
<asrwt>0</asrwt>
<pdfrwt beam="1">0</pdfrwt>
<pdfrwt beam="2">0</pdfrwt>
<totfact> 0.34165700E+12</totfact>
</mgrwt>
</event>
<event>
 4    1  0.1699693E+006  0.2557974E+01  0.7546771E-02  0.2683510E+00
         22   -1    0    0    0    0  0.00000000000E+00  0.00000000000E+00  0.76161061886E+00  0.76161061886E+00  0.00000000000E+00 0. -1.
         22   -1    0    0    0    0 -0.00000000000E+00 -0.00000000000E+00 -0.16076843969E+02  0.16076843969E+02  0.00000000000E+00 0.  1.
          4    1    1    2  501    0 -0.37271499101E-01 -0.22201221121E+01 -0.19127058942E+01  0.31940061357E+01  0.12700000000E+01 0. -1.
         -4    1    1    2    0  501  0.37271499101E-01  0.22201221121E+01 -0.13402527456E+02  0.13644448452E+02  0.12700000000E+01 0.  1.
<mgrwt>
<rscale>  0 0.25579741E+01</rscale>
<asrwt>0</asrwt>
<pdfrwt beam="1">0</pdfrwt>
<pdfrwt beam="2">0</pdfrwt>
<totfact> 0.12112655E+12</totfact>
</mgrwt>
</event>
<event>
 4    1  0.1699693E+006  0.2899476E+01  0.7546771E-02  0.2554934E+00
         22   -1    0    0    0    0  0.00000000000E+00  0.00000000000E+00  0.70023440960E+01  0.70023440960E+01  0.00000000000E+00 0. -1.
         22   -1    0    0    0    0 -0.00000000000E+00 -0.00000000000E+00 -0.14216020941E+01  0.14216020941E+01  0.00000000000E+00 0.  1.
          4    1    1    2  501    0 -0.77095752491E+00  0.24899166621E+01  0.44511135364E+01  0.53121909042E+01  0.12700000000E+01 0. -1.
         -4    1    1    2    0  501  0.77095752491E+00 -0.24899166621E+01  0.11296284655E+01  0.31117552859E+01  0.12700000000E+01 0. -1.
<mgrwt>
<rscale>  0 0.28994759E+01</rscale>
<asrwt>0</asrwt>
<pdfrwt beam="1">0</pdfrwt>
<pdfrwt beam="2">0</pdfrwt>
<totfact> 0.16282746E+12</totfact>
</mgrwt>
</event>
<event>
 4    1  0.1699693E+006  0.2469887E+01  0.7546771E-02  0.2721957E+00
         22   -1    0    0    0    0  0.00000000000E+00  0.00000000000E+00  0.79204544008E+01  0.79204544008E+01  0.00000000000E+00 0. -1.
         22   -1    0    0    0    0 -0.00000000000E+00 -0.00000000000E+00 -0.94572444990E+00  0.94572444990E+00  0.00000000000E+00 0.  1.
          4    1    1    2  501    0 -0.19365161342E+01  0.85868930400E+00  0.53971818747E+01  0.59354792770E+01  0.12700000000E+01 0. -1.
         -4    1    1    2    0  501  0.19365161342E+01 -0.85868930400E+00  0.15775480762E+01  0.29306995737E+01  0.12700000000E+01 0.  1.
<mgrwt>
<rscale>  0 0.24698871E+01</rscale>
<asrwt>0</asrwt>
<pdfrwt beam="1">0</pdfrwt>
<pdfrwt beam="2">0</pdfrwt>
<totfact> 0.22401431E+12</totfact>
</mgrwt>
</event>
<event>
 4    1  0.1699693E+006  0.2785926E+01  0.7546771E-02  0.2594488E+00
         22   -1    0    0    0    0  0.00000000000E+00  0.00000000000E+00  0.13727518946E+02  0.13727518946E+02  0.00000000000E+00 0.  1.
         22   -1    0    0    0    0 -0.00000000000E+00 -0.00000000000E+00 -0.59834432536E+00  0.59834432536E+00  0.00000000000E+00 0. -1.
          4    1    1    2  501    0  0.23905610929E+01 -0.65856051982E+00  0.82456344723E+01  0.87035551442E+01  0.12700000000E+01 0.  1.
         -4    1    1    2    0  501 -0.23905610929E+01  0.65856051982E+00  0.48835401486E+01  0.56223081275E+01  0.12700000000E+01 0. -1.
<mgrwt>
<rscale>  0 0.27859261E+01</rscale>
<asrwt>0</asrwt>
<pdfrwt beam="1">0</pdfrwt>
<pdfrwt beam="2">0</pdfrwt>
<totfact> 0.19342536E+12</totfact>
</mgrwt>
</event>
<event>
 4    1  0.1699693E+006  0.2014250E+01  0.7546771E-02  0.2971173E+00
         22   -1    0    0    0    0  0.00000000000E+00  0.00000000000E+00  0.21928272605E+02  0.21928272605E+02  0.00000000000E+00 0. -1.
         22   -1    0    0    0    0 -0.00000000000E+00 -0.00000000000E+00 -0.28138658127E+00  0.28138658127E+00  0.00000000000E+00 0. -1.
          4    1    1    2  501    0  0.19934444735E+00 -0.15506662845E+01  0.17322043254E+02  0.17438761040E+02  0.12700000000E+01 0. -1.
         -4    1    1    2    0  501 -0.19934444735E+00  0.15506662845E+01  0.43248427700E+01  0.47708981461E+01  0.12700000000E+01 0. -1.
<mgrwt>
<rscale>  0 0.20142503E+01</rscale>
<asrwt>0</asrwt>
<pdfrwt beam="1">0</pdfrwt>
<pdfrwt beam="2">0</pdfrwt>
<totfact> 0.25318164E+12</totfact>
</mgrwt>
</event>
<event>
 4    1  0.1699693E+006  0.2388329E+01  0.7546771E-02  0.2759907E+00
         22   -1    0    0    0    0  0.00000000000E+00  0.00000000000E+00  0.12312028186E+02  0.12312028186E+02  0.00000000000E+00 0. -1.
         22   -1    0    0    0    0 -0.00000000000E+00 -0.00000000000E+00 -0.47181259384E+00  0.47181259384E+00  0.00000000000E+00 0. -1.
          4    1    1    2  501    0  0.13528644000E+01  0.15036541057E+01  0.67788653387E+01  0.71872896863E+01  0.12700000000E+01 0. -1.
         -4    1    1    2    0  501 -0.13528644000E+01 -0.15036541057E+01  0.50613502535E+01  0.55965510936E+01  0.12700000000E+01 0. -1.
<mgrwt>
<rscale>  0 0.23883295E+01</rscale>
<asrwt>0</asrwt>
<pdfrwt beam="1">0</pdfrwt>
<pdfrwt beam="2">0</pdfrwt>
<totfact> 0.28902774E+12</totfact>
</mgrwt>
</event>
<event>
 4    1  0.1699693E+006  0.4500075E+01  0.7546771E-02  0.2190812E+00
         22   -1    0    0    0    0  0.00000000000E+00  0.00000000000E+00  0.24251144786E+01  0.24251144786E+01  0.00000000000E+00 0.  1.
         22   -1    0    0    0    0 -0.00000000000E+00 -0.00000000000E+00 -0.17665467997E+02  0.17665467997E+02  0.00000000000E+00 0. -1.
          4    1    1    2  501    0  0.13861421436E+01 -0.40885670663E+01 -0.32571882707E+00  0.45118470111E+01  0.12700000000E+01 0.  1.
         -4    1    1    2    0  501 -0.13861421436E+01  0.40885670663E+01 -0.14914634691E+02  0.15578735464E+02  0.12700000000E+01 0. -1.
<mgrwt>
<rscale>  0 0.45000745E+01</rscale>
<asrwt>0</asrwt>
<pdfrwt beam="1">0</pdfrwt>
<pdfrwt beam="2">0</pdfrwt>
<totfact> 0.28496326E+11</totfact>
</mgrwt>
</event>
<event>
 4    1  0.1699693E+006  0.2532204E+01  0.7546771E-02  0.2694500E+00
         22   -1    0    0    0    0  0.00000000000E+00  0.00000000000E+00  0.18526870716E+02  0.18526870716E+02  0.00000000000E+00 0.  1.
         22   -1    0    0    0    0 -0.00000000000E+00 -0.00000000000E+00 -0.34897349281E+00  0.34897349281E+00  0.00000000000E+00 0. -1.
          4    1    1    2  501    0  0.24484491439E+00  0.21769727446E+01  0.99460938682E+01  0.10263373841E+02  0.12700000000E+01 0. -1.
         -4    1    1    2    0  501 -0.24484491439E+00 -0.21769727446E+01  0.82318033545E+01  0.86124703675E+01  0.12700000000E+01 0.  1.
<mgrwt>
<rscale>  0 0.25322044E+01</rscale>
<asrwt>0</asrwt>
<pdfrwt beam="1">0</pdfrwt>
<pdfrwt beam="2">0</pdfrwt>
<totfact> 0.24542155E+12</totfact>
</mgrwt>
</event>
<event>
 4    1  0.1699693E+006  0.3142924E+01  0.7546771E-02  0.2478857E+00
         22   -1    0    0    0    0  0.00000000000E+00  0.00000000000E+00  0.22915617603E+01  0.22915617603E+01  0.00000000000E+00 0.  1.
         22   -1    0    0    0    0 -0.00000000000E+00 -0.00000000000E+00 -0.50891289800E+01  0.50891289800E+01  0.00000000000E+00 0. -1.
          4    1    1    2  501    0 -0.17025247024E+01  0.23165672803E+01  0.44615873968E-01  0.31432411461E+01  0.12700000000E+01 0.  1.
         -4    1    1    2    0  501  0.17025247024E+01 -0.23165672803E+01 -0.28421830937E+01  0.42374495943E+01  0.12700000000E+01 0. -1.
<mgrwt>
<rscale>  0 0.31429245E+01</rscale>
<asrwt>0</asrwt>
<pdfrwt beam="1">0</pdfrwt>
<pdfrwt beam="2">0</pdfrwt>
<totfact> 0.13715220E+12</totfact>
</mgrwt>
</event>
<event>
 4    1  0.1699693E+006  0.2536637E+01  0.7546771E-02  0.2692595E+00
         22   -1    0    0    0    0  0.00000000000E+00  0.00000000000E+00  0.12331583214E+02  0.12331583214E+02  0.00000000000E+00 0. -1.
         22   -1    0    0    0    0 -0.00000000000E+00 -0.00000000000E+00 -0.54495413275E+00  0.54495413275E+00  0.00000000000E+00 0.  1.
          4    1    1    2  501    0  0.47021935801E+00 -0.21448822134E+01  0.72206325393E+01  0.76532385447E+01  0.12700000000E+01 0. -1.
         -4    1    1    2    0  501 -0.47021935801E+00  0.21448822134E+01  0.45659965415E+01  0.52232988016E+01  0.12700000000E+01 0.  1.
<mgrwt>
<rscale>  0 0.25366367E+01</rscale>
<asrwt>0</asrwt>
<pdfrwt beam="1">0</pdfrwt>
<pdfrwt beam="2">0</pdfrwt>
<totfact> 0.24513741E+12</totfact>
</mgrwt>
</event>
<event>
 4    1  0.1699693E+006  0.2068395E+01  0.7546771E-02  0.2936040E+00
         22   -1    0    0    0    0  0.00000000000E+00  0.00000000000E+00  0.17251577848E+01  0.17251577848E+01  0.00000000000E+00 0. -1.
         22   -1    0    0    0    0 -0.00000000000E+00 -0.00000000000E+00 -0.24844345190E+01  0.24844345190E+01  0.00000000000E+00 0. -1.
          4    1    1    2  501    0  0.52922057490E+00 -0.15444361040E+01 -0.28993879323E+00  0.20886171981E+01  0.12700000000E+01 0. -1.
         -4    1    1    2    0  501 -0.52922057490E+00  0.15444361040E+01 -0.46933794102E+00  0.21209751057E+01  0.12700000000E+01 0. -1.
<mgrwt>
<rscale>  0 0.20683949E+01</rscale>
<asrwt>0</asrwt>
<pdfrwt beam="1">0</pdfrwt>
<pdfrwt beam="2">0</pdfrwt>
<totfact> 0.44184438E+12</totfact>
</mgrwt>
</event>
<event>
 4    1  0.1699693E+006  0.3749737E+01  0.7546771E-02  0.2327847E+00
         22   -1    0    0    0    0  0.00000000000E+00  0.00000000000E+00  0.48176027993E+01  0.48176027993E+01  0.00000000000E+00 0.  1.
         22   -1    0    0    0    0 -0.00000000000E+00 -0.00000000000E+00 -0.78492501861E+01  0.78492501861E+01  0.00000000000E+00 0. -1.
          4    1    1    2  501    0 -0.86792280907E+00 -0.34196988064E+01  0.35038778090E+01  0.51320258796E+01  0.12700000000E+01 0.  1.
         -4    1    1    2    0  501  0.86792280907E+00  0.34196988064E+01 -0.65355251957E+01  0.75348271057E+01  0.12700000000E+01 0. -1.
<mgrwt>
<rscale>  0 0.37497373E+01</rscale>
<asrwt>0</asrwt>
<pdfrwt beam="1">0</pdfrwt>
<pdfrwt beam="2">0</pdfrwt>
<totfact> 0.34262233E+11</totfact>
</mgrwt>
</event>
<event>
 4    1  0.1699693E+006  0.3415642E+01  0.7546771E-02  0.2405182E+00
         22   -1    0    0    0    0  0.00000000000E+00  0.00000000000E+00  0.22714542187E+00  0.22714542187E+00  0.00000000000E+00 0. -1.
         22   -1    0    0    0    0 -0.00000000000E+00 -0.00000000000E+00 -0.55842658272E+02  0.55842658272E+02  0.00000000000E+00 0.  1.
          4    1    1    2  501    0  0.25232779998E+01  0.19200993570E+01 -0.19866426171E+02  0.20157914133E+02  0.12700000000E+01 0. -1.
         -4    1    1    2    0  501 -0.25232779998E+01 -0.19200993570E+01 -0.35749086680E+02  0.35911889561E+02  0.12700000000E+01 0.  1.
<mgrwt>
<rscale>  0 0.34156425E+01</rscale>
<asrwt>0</asrwt>
<pdfrwt beam="1">0</pdfrwt>
<pdfrwt beam="2">0</pdfrwt>
<totfact> 0.96514036E+11</totfact>
</mgrwt>
</event>
<event>
 4    1  0.1699693E+006  0.3030886E+01  0.7546771E-02  0.2512509E+00
         22   -1    0    0    0    0  0.00000000000E+00  0.00000000000E+00  0.91895425091E+00  0.91895425091E+00  0.00000000000E+00 0.  1.
         22   -1    0    0    0    0 -0.00000000000E+00 -0.00000000000E+00 -0.12256555302E+02  0.12256555302E+02  0.00000000000E+00 0. -1.
          4    1    1    2  501    0 -0.15213999132E+01 -0.22931878130E+01 -0.28398925476E+01  0.41534633408E+01  0.12700000000E+01 0.  1.
         -4    1    1    2    0  501  0.15213999132E+01  0.22931878130E+01 -0.84977085034E+01  0.90220462120E+01  0.12700000000E+01 0. -1.
<mgrwt>
<rscale>  0 0.30308857E+01</rscale>
<asrwt>0</asrwt>
<pdfrwt beam="1">0</pdfrwt>
<pdfrwt beam="2">0</pdfrwt>
<totfact> 0.13645785E+12</totfact>
</mgrwt>
</event>
<event>
 4    1  0.1699693E+006  0.2449141E+01  0.7546771E-02  0.2731386E+00
         22   -1    0    0    0    0  0.00000000000E+00  0.00000000000E+00  0.33580532342E+01  0.33580532342E+01  0.00000000000E+00 0.  1.
         22   -1    0    0    0    0 -0.00000000000E+00 -0.00000000000E+00 -0.18085631258E+01  0.18085631258E+01  0.00000000000E+00 0. -1.
          4    1    1    2  501    0 -0.16402430194E+01  0.13019194431E+01  0.10617437764E+01  0.26693803112E+01  0.12700000000E+01 0. -1.
         -4    1    1    2    0  501  0.16402430194E+01 -0.13019194431E+01  0.48774633204E+00  0.24972360488E+01  0.12700000000E+01 0.  1.
<mgrwt>
<rscale>  0 0.24491410E+01</rscale>
<asrwt>0</asrwt>
<pdfrwt beam="1">0</pdfrwt>
<pdfrwt beam="2">0</pdfrwt>
<totfact> 0.29436840E+12</totfact>
</mgrwt>
</event>
<event>
 4    1  0.1699693E+006  0.8192144E+01  0.7546771E-02  0.1865379E+00
         22   -1    0    0    0    0  0.00000000000E+00  0.00000000000E+00  0.55849922720E+00  0.55849922720E+00  0.00000000000E+00 0. -1.
         22   -1    0    0    0    0 -0.00000000000E+00 -0.00000000000E+00 -0.14757280605E+03  0.14757280605E+03  0.00000000000E+00 0.  1.
          4    1    1    2  501    0  0.73424270598E+01 -0.34039802999E+01 -0.41587161279E+02  0.42386356298E+02  0.12700000000E+01 0. -1.
         -4    1    1    2    0  501 -0.73424270598E+01  0.34039802999E+01 -0.10542714554E+03  0.10574494898E+03  0.12700000000E+01 0.  1.
<mgrwt>
<rscale>  0 0.81921436E+01</rscale>
<asrwt>0</asrwt>
<pdfrwt beam="1">0</pdfrwt>
<pdfrwt beam="2">0</pdfrwt>
<totfact> 0.90329074E+10</totfact>
</mgrwt>
</event>
<event>
 4    1  0.1699693E+006  0.2146516E+01  0.7546771E-02  0.2888389E+00
         22   -1    0    0    0    0  0.00000000000E+00  0.00000000000E+00  0.15734676990E+02  0.15734676990E+02  0.00000000000E+00 0.  1.
         22   -1    0    0    0    0 -0.00000000000E+00 -0.00000000000E+00 -0.34796221192E+00  0.34796221192E+00  0.00000000000E+00 0. -1.
          4    1    1    2  501    0 -0.12478048960E+01 -0.11990047237E+01  0.10894301025E+02  0.11103752709E+02  0.12700000000E+01 0.  1.
         -4    1    1    2    0  501  0.12478048960E+01  0.11990047237E+01  0.44924137526E+01  0.49788864930E+01  0.12700000000E+01 0. -1.
<mgrwt>
<rscale>  0 0.21465156E+01</rscale>
<asrwt>0</asrwt>
<pdfrwt beam="1">0</pdfrwt>
<pdfrwt beam="2">0</pdfrwt>
<totfact> 0.30137973E+12</totfact>
</mgrwt>
</event>
<event>
 4    1  0.1699693E+006  0.3223368E+01  0.7546771E-02  0.2455982E+00
         22   -1    0    0    0    0  0.00000000000E+00  0.00000000000E+00  0.51173909703E+00  0.51173909703E+00  0.00000000000E+00 0.  1.
         22   -1    0    0    0    0 -0.00000000000E+00 -0.00000000000E+00 -0.60421329650E+02  0.60421329650E+02  0.00000000000E+00 0. -1.
          4    1    1    2  501    0 -0.29186511396E+01  0.50860587591E+00 -0.51293796081E+01  0.60581052794E+01  0.12700000000E+01 0.  1.
         -4    1    1    2    0  501  0.29186511396E+01 -0.50860587591E+00 -0.54780210944E+02  0.54874963467E+02  0.12700000000E+01 0.  1.
<mgrwt>
<rscale>  0 0.32233685E+01</rscale>
<asrwt>0</asrwt>
<pdfrwt beam="1">0</pdfrwt>
<pdfrwt beam="2">0</pdfrwt>
<totfact> 0.34888935E+11</totfact>
</mgrwt>
</event>
<event>
 4    1  0.1699693E+006  0.2881281E+01  0.7546771E-02  0.2561082E+00
         22   -1    0    0    0    0  0.00000000000E+00  0.00000000000E+00  0.37900886554E+01  0.37900886554E+01  0.00000000000E+00 0.  1.
         22   -1    0    0    0    0 -0.00000000000E+00 -0.00000000000E+00 -0.28793657884E+01  0.28793657884E+01  0.00000000000E+00 0. -1.
          4    1    1    2  501    0 -0.25560901915E+01  0.39405671783E+00  0.20865847465E+01  0.35574729329E+01  0.12700000000E+01 0.  1.
         -4    1    1    2    0  501  0.25560901915E+01 -0.39405671783E+00 -0.11758618795E+01  0.31119815108E+01  0.12700000000E+01 0. -1.
<mgrwt>
<rscale>  0 0.28812806E+01</rscale>
<asrwt>0</asrwt>
<pdfrwt beam="1">0</pdfrwt>
<pdfrwt beam="2">0</pdfrwt>
<totfact> 0.14886087E+12</totfact>
</mgrwt>
</event>
<event>
 4    1  0.1699693E+006  0.2211578E+01  0.7546771E-02  0.2851187E+00
         22   -1    0    0    0    0  0.00000000000E+00  0.00000000000E+00  0.32453992918E+01  0.32453992918E+01  0.00000000000E+00 0. -1.
         22   -1    0    0    0    0 -0.00000000000E+00 -0.00000000000E+00 -0.29450885052E+01  0.29450885052E+01  0.00000000000E+00 0.  1.
          4    1    1    2  501    0  0.12817647851E+01  0.12787708689E+01  0.23130056372E+01  0.32001673358E+01  0.12700000000E+01 0. -1.
         -4    1    1    2    0  501 -0.12817647851E+01 -0.12787708689E+01 -0.20126948506E+01  0.29903204612E+01  0.12700000000E+01 0.  1.
<mgrwt>
<rscale>  0 0.22115777E+01</rscale>
<asrwt>0</asrwt>
<pdfrwt beam="1">0</pdfrwt>
<pdfrwt beam="2">0</pdfrwt>
<totfact> 0.17391430E+12</totfact>
</mgrwt>
</event>
<event>
 4    1  0.1699693E+006  0.2427175E+01  0.7546771E-02  0.2741533E+00
         22   -1    0    0    0    0  0.00000000000E+00  0.00000000000E+00  0.29802393495E+01  0.29802393495E+01  0.00000000000E+00 0. -1.
         22   -1    0    0    0    0 -0.00000000000E+00 -0.00000000000E+00 -0.21169808594E+01  0.21169808594E+01  0.00000000000E+00 0.  1.
          4    1    1    2  501    0 -0.19163514195E+01  0.77838116735E+00  0.10875795776E+01  0.26597009874E+01  0.12700000000E+01 0. -1.
         -4    1    1    2    0  501  0.19163514195E+01 -0.77838116735E+00 -0.22432108751E+00  0.24375192215E+01  0.12700000000E+01 0.  1.
<mgrwt>
<rscale>  0 0.24271753E+01</rscale>
<asrwt>0</asrwt>
<pdfrwt beam="1">0</pdfrwt>
<pdfrwt beam="2">0</pdfrwt>
<totfact> 0.28210452E+12</totfact>
</mgrwt>
</event>
<event>
 4    1  0.1699693E+006  0.2119702E+01  0.7546771E-02  0.2904361E+00
         22   -1    0    0    0    0  0.00000000000E+00  0.00000000000E+00  0.21351269824E+02  0.21351269824E+02  0.00000000000E+00 0. -1.
         22   -1    0    0    0    0 -0.00000000000E+00 -0.00000000000E+00 -0.23826666997E+00  0.23826666997E+00  0.00000000000E+00 0.  1.
          4    1    1    2  501    0 -0.19901678073E+00  0.16854162219E+01  0.14245612276E+02  0.14402451342E+02  0.12700000000E+01 0. -1.
         -4    1    1    2    0  501  0.19901678073E+00 -0.16854162219E+01  0.68673908777E+01  0.71870851524E+01  0.12700000000E+01 0. -1.
<mgrwt>
<rscale>  0 0.21197018E+01</rscale>
<asrwt>0</asrwt>
<pdfrwt beam="1">0</pdfrwt>
<pdfrwt beam="2">0</pdfrwt>
<totfact> 0.31534897E+12</totfact>
</mgrwt>
</event>
<event>
 4    1  0.1699693E+006  0.2047612E+01  0.7546771E-02  0.2949311E+00
         22   -1    0    0    0    0  0.00000000000E+00  0.00000000000E+00  0.29451212666E+02  0.29451212666E+02  0.00000000000E+00 0. -1.
         22   -1    0    0    0    0 -0.00000000000E+00 -0.00000000000E+00 -0.14825507856E+00  0.14825507856E+00  0.00000000000E+00 0.  1.
          4    1    1    2  501    0  0.87321699241E+00  0.13480753624E+01  0.17602302748E+02  0.17720998198E+02  0.12700000000E+01 0. -1.
         -4    1    1    2    0  501 -0.87321699241E+00 -0.13480753624E+01  0.11700654840E+02  0.11878469547E+02  0.12700000000E+01 0.  1.
<mgrwt>
<rscale>  0 0.20476120E+01</rscale>
<asrwt>0</asrwt>
<pdfrwt beam="1">0</pdfrwt>
<pdfrwt beam="2">0</pdfrwt>
<totfact> 0.35665082E+12</totfact>
</mgrwt>
</event>
<event>
 4    1  0.1699693E+006  0.3612935E+01  0.7546771E-02  0.2358011E+00
         22   -1    0    0    0    0  0.00000000000E+00  0.00000000000E+00  0.12694658781E+01  0.12694658781E+01  0.00000000000E+00 0.  1.
         22   -1    0    0    0    0 -0.00000000000E+00 -0.00000000000E+00 -0.23303121622E+02  0.23303121622E+02  0.00000000000E+00 0. -1.
          4    1    1    2  501    0  0.66024617290E+00  0.33172987489E+01 -0.18328774472E+01  0.40512634739E+01  0.12700000000E+01 0.  1.
         -4    1    1    2    0  501 -0.66024617290E+00 -0.33172987489E+01 -0.20200778297E+02  0.20521324027E+02  0.12700000000E+01 0. -1.
<mgrwt>
<rscale>  0 0.36129345E+01</rscale>
<asrwt>0</asrwt>
<pdfrwt beam="1">0</pdfrwt>
<pdfrwt beam="2">0</pdfrwt>
<totfact> 0.42578246E+11</totfact>
</mgrwt>
</event>
<event>
 4    1  0.1699693E+006  0.3641990E+01  0.7546771E-02  0.2351441E+00
         22   -1    0    0    0    0  0.00000000000E+00  0.00000000000E+00  0.53291795545E+02  0.53291795545E+02  0.00000000000E+00 0. -1.
         22   -1    0    0    0    0 -0.00000000000E+00 -0.00000000000E+00 -0.36540982392E+00  0.36540982392E+00  0.00000000000E+00 0. -1.
          4    1    1    2  501    0  0.19606619123E+01  0.27941003653E+01  0.41612663862E+02  0.41771735488E+02  0.12700000000E+01 0. -1.
         -4    1    1    2    0  501 -0.19606619123E+01 -0.27941003653E+01  0.11313721859E+02  0.11885469881E+02  0.12700000000E+01 0. -1.
<mgrwt>
<rscale>  0 0.36419901E+01</rscale>
<asrwt>0</asrwt>
<pdfrwt beam="1">0</pdfrwt>
<pdfrwt beam="2">0</pdfrwt>
<totfact> 0.60278628E+11</totfact>
</mgrwt>
</event>
<event>
 4    1  0.1699693E+006  0.3388202E+01  0.7546771E-02  0.2412121E+00
         22   -1    0    0    0    0  0.00000000000E+00  0.00000000000E+00  0.53107508391E+02  0.53107508391E+02  0.00000000000E+00 0.  1.
         22   -1    0    0    0    0 -0.00000000000E+00 -0.00000000000E+00 -0.22983345380E+00  0.22983345380E+00  0.00000000000E+00 0. -1.
          4    1    1    2  501    0  0.27933708883E+01 -0.14366942627E+01  0.19934900113E+02  0.20220785194E+02  0.12700000000E+01 0. -1.
         -4    1    1    2    0  501 -0.27933708883E+01  0.14366942627E+01  0.32942774824E+02  0.33116556651E+02  0.12700000000E+01 0.  1.
<mgrwt>
<rscale>  0 0.33882018E+01</rscale>
<asrwt>0</asrwt>
<pdfrwt beam="1">0</pdfrwt>
<pdfrwt beam="2">0</pdfrwt>
<totfact> 0.10182181E+12</totfact>
</mgrwt>
</event>
<event>
 4    1  0.1699693E+006  0.2677335E+01  0.7546771E-02  0.2635161E+00
         22   -1    0    0    0    0  0.00000000000E+00  0.00000000000E+00  0.27045710351E+01  0.27045710351E+01  0.00000000000E+00 0. -1.
         22   -1    0    0    0    0 -0.00000000000E+00 -0.00000000000E+00 -0.50688318472E+01  0.50688318472E+01  0.00000000000E+00 0.  1.
          4    1    1    2  501    0  0.12639200920E+01 -0.19894041436E+01  0.15025745447E+01  0.30701552254E+01  0.12700000000E+01 0. -1.
         -4    1    1    2    0  501 -0.12639200920E+01  0.19894041436E+01 -0.38668353568E+01  0.47032476569E+01  0.12700000000E+01 0.  1.
<mgrwt>
<rscale>  0 0.26773350E+01</rscale>
<asrwt>0</asrwt>
<pdfrwt beam="1">0</pdfrwt>
<pdfrwt beam="2">0</pdfrwt>
<totfact> 0.11364484E+12</totfact>
</mgrwt>
</event>
<event>
 4    1  0.1699693E+006  0.4777902E+01  0.7546771E-02  0.2150486E+00
         22   -1    0    0    0    0  0.00000000000E+00  0.00000000000E+00  0.22647054881E+01  0.22647054881E+01  0.00000000000E+00 0.  1.
         22   -1    0    0    0    0 -0.00000000000E+00 -0.00000000000E+00 -0.17600452486E+02  0.17600452486E+02  0.00000000000E+00 0. -1.
          4    1    1    2  501    0  0.45843450926E+01 -0.44635329763E+00 -0.11752447817E+01  0.49203202630E+01  0.12700000000E+01 0.  1.
         -4    1    1    2    0  501 -0.45843450926E+01  0.44635329763E+00 -0.14160502217E+02  0.14944837711E+02  0.12700000000E+01 0. -1.
<mgrwt>
<rscale>  0 0.47779024E+01</rscale>
<asrwt>0</asrwt>
<pdfrwt beam="1">0</pdfrwt>
<pdfrwt beam="2">0</pdfrwt>
<totfact> 0.30995147E+11</totfact>
</mgrwt>
</event>
<event>
 4    1  0.1699693E+006  0.2865294E+01  0.7546771E-02  0.2566542E+00
         22   -1    0    0    0    0  0.00000000000E+00  0.00000000000E+00  0.22190375014E+00  0.22190375014E+00  0.00000000000E+00 0.  1.
         22   -1    0    0    0    0 -0.00000000000E+00 -0.00000000000E+00 -0.39447236418E+02  0.39447236418E+02  0.00000000000E+00 0. -1.
          4    1    1    2  501    0 -0.19600816866E+01  0.16598459930E+01 -0.14669966744E+02  0.14947168066E+02  0.12700000000E+01 0.  1.
         -4    1    1    2    0  501  0.19600816866E+01 -0.16598459930E+01 -0.24555365924E+02  0.24721972101E+02  0.12700000000E+01 0. -1.
<mgrwt>
<rscale>  0 0.28652939E+01</rscale>
<asrwt>0</asrwt>
<pdfrwt beam="1">0</pdfrwt>
<pdfrwt beam="2">0</pdfrwt>
<totfact> 0.15635039E+12</totfact>
</mgrwt>
</event>
<event>
 4    1  0.1699693E+006  0.2301157E+01  0.7546771E-02  0.2803263E+00
         22   -1    0    0    0    0  0.00000000000E+00  0.00000000000E+00  0.96405653294E+00  0.96405653294E+00  0.00000000000E+00 0.  1.
         22   -1    0    0    0    0 -0.00000000000E+00 -0.00000000000E+00 -0.57286368582E+01  0.57286368582E+01  0.00000000000E+00 0. -1.
          4    1    1    2  501    0 -0.10066765966E+01  0.16337152934E+01 -0.17032501941E+01  0.28629328762E+01  0.12700000000E+01 0.  1.
         -4    1    1    2    0  501  0.10066765966E+01 -0.16337152934E+01 -0.30613301311E+01  0.38297605149E+01  0.12700000000E+01 0. -1.
<mgrwt>
<rscale>  0 0.23011570E+01</rscale>
<asrwt>0</asrwt>
<pdfrwt beam="1">0</pdfrwt>
<pdfrwt beam="2">0</pdfrwt>
<totfact> 0.32273982E+12</totfact>
</mgrwt>
</event>
<event>
 4    1  0.1699693E+006  0.2272792E+01  0.7546771E-02  0.2818048E+00
         22   -1    0    0    0    0  0.00000000000E+00  0.00000000000E+00  0.75374910201E+01  0.75374910201E+01  0.00000000000E+00 0. -1.
         22   -1    0    0    0    0 -0.00000000000E+00 -0.00000000000E+00 -0.70367577099E+00  0.70367577099E+00  0.00000000000E+00 0.  1.
          4    1    1    2  501    0  0.44402223645E+00  0.18318095086E+01  0.27513635666E+01  0.35686949012E+01  0.12700000000E+01 0.  1.
         -4    1    1    2    0  501 -0.44402223645E+00 -0.18318095086E+01  0.40824516825E+01  0.46724718899E+01  0.12700000000E+01 0. -1.
<mgrwt>
<rscale>  0 0.22727916E+01</rscale>
<asrwt>0</asrwt>
<pdfrwt beam="1">0</pdfrwt>
<pdfrwt beam="2">0</pdfrwt>
<totfact> 0.33281494E+12</totfact>
</mgrwt>
</event>
<event>
 4    1  0.1699693E+006  0.3424811E+01  0.7546771E-02  0.2402885E+00
         22   -1    0    0    0    0  0.00000000000E+00  0.00000000000E+00  0.59646563909E+01  0.59646563909E+01  0.00000000000E+00 0.  1.
         22   -1    0    0    0    0 -0.00000000000E+00 -0.00000000000E+00 -0.68847806667E+01  0.68847806667E+01  0.00000000000E+00 0.  1.
          4    1    1    2  501    0  0.25940793365E+01 -0.18404294033E+01  0.49701519841E+01  0.60358710007E+01  0.12700000000E+01 0.  1.
         -4    1    1    2    0  501 -0.25940793365E+01  0.18404294033E+01 -0.58902762599E+01  0.68135660568E+01  0.12700000000E+01 0.  1.
<mgrwt>
<rscale>  0 0.34248107E+01</rscale>
<asrwt>0</asrwt>
<pdfrwt beam="1">0</pdfrwt>
<pdfrwt beam="2">0</pdfrwt>
<totfact> 0.31116084E+11</totfact>
</mgrwt>
</event>
<event>
 4    1  0.1699693E+006  0.5988168E+01  0.7546771E-02  0.2020751E+00
         22   -1    0    0    0    0  0.00000000000E+00  0.00000000000E+00  0.14687724034E+02  0.14687724034E+02  0.00000000000E+00 0. -1.
         22   -1    0    0    0    0 -0.00000000000E+00 -0.00000000000E+00 -0.54871876425E+01  0.54871876425E+01  0.00000000000E+00 0.  1.
          4    1    1    2  501    0 -0.54833721261E+01 -0.20439887638E+01  0.12115782966E+02  0.13514819896E+02  0.12700000000E+01 0. -1.
         -4    1    1    2    0  501  0.54833721261E+01  0.20439887638E+01 -0.29152465743E+01  0.66600917808E+01  0.12700000000E+01 0.  1.
<mgrwt>
<rscale>  0 0.59881683E+01</rscale>
<asrwt>0</asrwt>
<pdfrwt beam="1">0</pdfrwt>
<pdfrwt beam="2">0</pdfrwt>
<totfact> 0.13720392E+11</totfact>
</mgrwt>
</event>
<event>
 4    1  0.1699693E+006  0.4540934E+01  0.7546771E-02  0.2184460E+00
         22   -1    0    0    0    0  0.00000000000E+00  0.00000000000E+00  0.82643038630E+00  0.82643038630E+00  0.00000000000E+00 0.  1.
         22   -1    0    0    0    0 -0.00000000000E+00 -0.00000000000E+00 -0.26382498605E+02  0.26382498605E+02  0.00000000000E+00 0. -1.
          4    1    1    2  501    0 -0.43595524904E+01  0.38482429559E-01 -0.15947258918E+02  0.16581168410E+02  0.12700000000E+01 0. -1.
         -4    1    1    2    0  501  0.43595524904E+01 -0.38482429559E-01 -0.96088093002E+01  0.10627760582E+02  0.12700000000E+01 0.  1.
<mgrwt>
<rscale>  0 0.45409337E+01</rscale>
<asrwt>0</asrwt>
<pdfrwt beam="1">0</pdfrwt>
<pdfrwt beam="2">0</pdfrwt>
<totfact> 0.59457198E+11</totfact>
</mgrwt>
</event>
<event>
 4    1  0.1699693E+006  0.2082425E+01  0.7546771E-02  0.2927226E+00
         22   -1    0    0    0    0  0.00000000000E+00  0.00000000000E+00  0.19806343328E+02  0.19806343328E+02  0.00000000000E+00 0. -1.
         22   -1    0    0    0    0 -0.00000000000E+00 -0.00000000000E+00 -0.33494185755E+00  0.33494185755E+00  0.00000000000E+00 0.  1.
          4    1    1    2  501    0  0.14895996784E+01  0.71041377926E+00  0.15662170130E+02  0.15800002156E+02  0.12700000000E+01 0. -1.
         -4    1    1    2    0  501 -0.14895996784E+01 -0.71041377926E+00  0.38092313402E+01  0.43412830296E+01  0.12700000000E+01 0. -1.
<mgrwt>
<rscale>  0 0.20824253E+01</rscale>
<asrwt>0</asrwt>
<pdfrwt beam="1">0</pdfrwt>
<pdfrwt beam="2">0</pdfrwt>
<totfact> 0.23648709E+12</totfact>
</mgrwt>
</event>
<event>
 4    1  0.1699693E+006  0.2340580E+01  0.7546771E-02  0.2783278E+00
         22   -1    0    0    0    0  0.00000000000E+00  0.00000000000E+00  0.39338469022E+01  0.39338469022E+01  0.00000000000E+00 0.  1.
         22   -1    0    0    0    0 -0.00000000000E+00 -0.00000000000E+00 -0.16451929211E+01  0.16451929211E+01  0.00000000000E+00 0. -1.
          4    1    1    2  501    0 -0.13626810968E+01  0.14172211230E+01  0.22373337130E+01  0.32378970995E+01  0.12700000000E+01 0.  1.
         -4    1    1    2    0  501  0.13626810968E+01 -0.14172211230E+01  0.51320268076E-01  0.23411427238E+01  0.12700000000E+01 0. -1.
<mgrwt>
<rscale>  0 0.23405802E+01</rscale>
<asrwt>0</asrwt>
<pdfrwt beam="1">0</pdfrwt>
<pdfrwt beam="2">0</pdfrwt>
<totfact> 0.27268027E+12</totfact>
</mgrwt>
</event>
<event>
 4    1  0.1699693E+006  0.2467270E+01  0.7546771E-02  0.2723138E+00
         22   -1    0    0    0    0  0.00000000000E+00  0.00000000000E+00  0.36703349732E+01  0.36703349732E+01  0.00000000000E+00 0.  1.
         22   -1    0    0    0    0 -0.00000000000E+00 -0.00000000000E+00 -0.16721563699E+01  0.16721563699E+01  0.00000000000E+00 0. -1.
          4    1    1    2  501    0  0.21151212664E+01 -0.27997121618E-01  0.12400797465E+01  0.27613800152E+01  0.12700000000E+01 0. -1.
         -4    1    1    2    0  501 -0.21151212664E+01  0.27997121618E-01  0.75809885680E+00  0.25811113279E+01  0.12700000000E+01 0.  1.
<mgrwt>
<rscale>  0 0.24672701E+01</rscale>
<asrwt>0</asrwt>
<pdfrwt beam="1">0</pdfrwt>
<pdfrwt beam="2">0</pdfrwt>
<totfact> 0.29033916E+12</totfact>
</mgrwt>
</event>
<event>
 4    1  0.1699693E+006  0.2144792E+01  0.7546771E-02  0.2889404E+00
         22   -1    0    0    0    0  0.00000000000E+00  0.00000000000E+00  0.15681221954E+00  0.15681221954E+00  0.00000000000E+00 0. -1.
         22   -1    0    0    0    0 -0.00000000000E+00 -0.00000000000E+00 -0.30536415087E+02  0.30536415087E+02  0.00000000000E+00 0. -1.
          4    1    1    2  501    0 -0.15541529986E+01 -0.75620154966E+00 -0.18233468906E+02  0.18359180827E+02  0.12700000000E+01 0. -1.
         -4    1    1    2    0  501  0.15541529986E+01  0.75620154966E+00 -0.12146133962E+02  0.12334046479E+02  0.12700000000E+01 0. -1.
<mgrwt>
<rscale>  0 0.21447919E+01</rscale>
<asrwt>0</asrwt>
<pdfrwt beam="1">0</pdfrwt>
<pdfrwt beam="2">0</pdfrwt>
<totfact> 0.31998451E+12</totfact>
</mgrwt>
</event>
<event>
 4    1  0.1699693E+006  0.4183802E+01  0.7546771E-02  0.2243479E+00
         22   -1    0    0    0    0  0.00000000000E+00  0.00000000000E+00  0.47390432995E+01  0.47390432995E+01  0.00000000000E+00 0.  1.
         22   -1    0    0    0    0 -0.00000000000E+00 -0.00000000000E+00 -0.36936151404E+01  0.36936151404E+01  0.00000000000E+00 0. -1.
          4    1    1    2  501    0 -0.26962147936E+01 -0.29362778498E+01  0.52322549889E+00  0.42163926225E+01  0.12700000000E+01 0.  1.
         -4    1    1    2    0  501  0.26962147936E+01  0.29362778498E+01  0.52220266029E+00  0.42162658174E+01  0.12700000000E+01 0. -1.
<mgrwt>
<rscale>  0 0.41838023E+01</rscale>
<asrwt>0</asrwt>
<pdfrwt beam="1">0</pdfrwt>
<pdfrwt beam="2">0</pdfrwt>
<totfact> 0.85468474E+11</totfact>
</mgrwt>
</event>
<event>
 4    1  0.1699693E+006  0.2447171E+01  0.7546771E-02  0.2732289E+00
         22   -1    0    0    0    0  0.00000000000E+00  0.00000000000E+00  0.78109458809E+01  0.78109458809E+01  0.00000000000E+00 0. -1.
         22   -1    0    0    0    0 -0.00000000000E+00 -0.00000000000E+00 -0.19034578015E+01  0.19034578015E+01  0.00000000000E+00 0.  1.
          4    1    1    2  501    0  0.17546668685E+01 -0.11388103685E+01  0.67073499597E+01  0.71398311155E+01  0.12700000000E+01 0. -1.
         -4    1    1    2    0  501 -0.17546668685E+01  0.11388103685E+01 -0.79986188034E+00  0.25745725670E+01  0.12700000000E+01 0.  1.
<mgrwt>
<rscale>  0 0.24471708E+01</rscale>
<asrwt>0</asrwt>
<pdfrwt beam="1">0</pdfrwt>
<pdfrwt beam="2">0</pdfrwt>
<totfact> 0.10202676E+12</totfact>
</mgrwt>
</event>
<event>
 4    1  0.1699693E+006  0.3495653E+01  0.7546771E-02  0.2385493E+00
         22   -1    0    0    0    0  0.00000000000E+00  0.00000000000E+00  0.25567960789E+00  0.25567960789E+00  0.00000000000E+00 0. -1.
         22   -1    0    0    0    0 -0.00000000000E+00 -0.00000000000E+00 -0.49062118099E+02  0.49062118099E+02  0.00000000000E+00 0.  1.
          4    1    1    2  501    0  0.10667178414E+01 -0.30771417716E+01 -0.28369862899E+02  0.28584413748E+02  0.12700000000E+01 0. -1.
         -4    1    1    2    0  501 -0.10667178414E+01  0.30771417716E+01 -0.20436575593E+02  0.20733383959E+02  0.12700000000E+01 0.  1.
<mgrwt>
<rscale>  0 0.34956528E+01</rscale>
<asrwt>0</asrwt>
<pdfrwt beam="1">0</pdfrwt>
<pdfrwt beam="2">0</pdfrwt>
<totfact> 0.10035601E+12</totfact>
</mgrwt>
</event>
<event>
 4    1  0.1699693E+006  0.2445221E+01  0.7546771E-02  0.2733184E+00
         22   -1    0    0    0    0  0.00000000000E+00  0.00000000000E+00  0.26217356850E+01  0.26217356850E+01  0.00000000000E+00 0. -1.
         22   -1    0    0    0    0 -0.00000000000E+00 -0.00000000000E+00 -0.34790102734E+01  0.34790102734E+01  0.00000000000E+00 0. -1.
          4    1    1    2  501    0  0.21670815518E+00  0.20782790197E+01  0.13616780357E+01  0.27987985246E+01  0.12700000000E+01 0. -1.
         -4    1    1    2    0  501 -0.21670815518E+00 -0.20782790197E+01 -0.22189526241E+01  0.33019474339E+01  0.12700000000E+01 0. -1.
<mgrwt>
<rscale>  0 0.24452211E+01</rscale>
<asrwt>0</asrwt>
<pdfrwt beam="1">0</pdfrwt>
<pdfrwt beam="2">0</pdfrwt>
<totfact> 0.18360419E+12</totfact>
</mgrwt>
</event>
<event>
 4    1  0.1699693E+006  0.2324660E+01  0.7546771E-02  0.2791271E+00
         22   -1    0    0    0    0  0.00000000000E+00  0.00000000000E+00  0.24044918347E+02  0.24044918347E+02  0.00000000000E+00 0. -1.
         22   -1    0    0    0    0 -0.00000000000E+00 -0.00000000000E+00 -0.26137421661E+00  0.26137421661E+00  0.00000000000E+00 0.  1.
          4    1    1    2  501    0 -0.71761606026E+00 -0.18100194250E+01  0.16441175108E+02  0.16604706623E+02  0.12700000000E+01 0. -1.
         -4    1    1    2    0  501  0.71761606026E+00  0.18100194250E+01  0.73423690230E+01  0.77015859405E+01  0.12700000000E+01 0.  1.
<mgrwt>
<rscale>  0 0.23246598E+01</rscale>
<asrwt>0</asrwt>
<pdfrwt beam="1">0</pdfrwt>
<pdfrwt beam="2">0</pdfrwt>
<totfact> 0.24495933E+12</totfact>
</mgrwt>
</event>
<event>
 4    1  0.1699693E+006  0.2083673E+01  0.7546771E-02  0.2926448E+00
         22   -1    0    0    0    0  0.00000000000E+00  0.00000000000E+00  0.48898271847E+01  0.48898271847E+01  0.00000000000E+00 0. -1.
         22   -1    0    0    0    0 -0.00000000000E+00 -0.00000000000E+00 -0.90123195689E+00  0.90123195689E+00  0.00000000000E+00 0.  1.
          4    1    1    2  501    0  0.16433592056E+01  0.16781997809E+00  0.23464293273E+01  0.31380604856E+01  0.12700000000E+01 0. -1.
         -4    1    1    2    0  501 -0.16433592056E+01 -0.16781997809E+00  0.16421659005E+01  0.26529986559E+01  0.12700000000E+01 0.  1.
<mgrwt>
<rscale>  0 0.20836730E+01</rscale>
<asrwt>0</asrwt>
<pdfrwt beam="1">0</pdfrwt>
<pdfrwt beam="2">0</pdfrwt>
<totfact> 0.42049109E+12</totfact>
</mgrwt>
</event>
<event>
 4    1  0.1699693E+006  0.2234985E+01  0.7546771E-02  0.2838311E+00
         22   -1    0    0    0    0  0.00000000000E+00  0.00000000000E+00  0.44001441557E+01  0.44001441557E+01  0.00000000000E+00 0.  1.
         22   -1    0    0    0    0 -0.00000000000E+00 -0.00000000000E+00 -0.12627812115E+01  0.12627812115E+01  0.00000000000E+00 0.  1.
          4    1    1    2  501    0  0.14875442091E+01 -0.10814206337E+01  0.66877832711E+00  0.23329000861E+01  0.12700000000E+01 0.  1.
         -4    1    1    2    0  501 -0.14875442091E+01  0.10814206337E+01  0.24685846171E+01  0.33300252811E+01  0.12700000000E+01 0.  1.
<mgrwt>
<rscale>  0 0.22349851E+01</rscale>
<asrwt>0</asrwt>
<pdfrwt beam="1">0</pdfrwt>
<pdfrwt beam="2">0</pdfrwt>
<totfact> 0.32391550E+12</totfact>
</mgrwt>
</event>
<event>
 4    1  0.1699693E+006  0.2055062E+01  0.7546771E-02  0.2944523E+00
         22   -1    0    0    0    0  0.00000000000E+00  0.00000000000E+00  0.82566737950E+00  0.82566737950E+00  0.00000000000E+00 0.  1.
         22   -1    0    0    0    0 -0.00000000000E+00 -0.00000000000E+00 -0.59533574482E+01  0.59533574482E+01  0.00000000000E+00 0.  1.
          4    1    1    2  501    0  0.88858214539E+00  0.13493712138E+01 -0.12918855081E+01  0.24273955318E+01  0.12700000000E+01 0.  1.
         -4    1    1    2    0  501 -0.88858214539E+00 -0.13493712138E+01 -0.38358045606E+01  0.43516292959E+01  0.12700000000E+01 0.  1.
<mgrwt>
<rscale>  0 0.20550623E+01</rscale>
<asrwt>0</asrwt>
<pdfrwt beam="1">0</pdfrwt>
<pdfrwt beam="2">0</pdfrwt>
<totfact> 0.36783411E+12</totfact>
</mgrwt>
</event>
<event>
 4    1  0.1699693E+006  0.4038264E+01  0.7546771E-02  0.2270039E+00
         22   -1    0    0    0    0  0.00000000000E+00  0.00000000000E+00  0.64181077034E-01  0.64181077034E-01  0.00000000000E+00 0.  1.
         22   -1    0    0    0    0 -0.00000000000E+00 -0.00000000000E+00 -0.32777067907E+03  0.32777067907E+03  0.00000000000E+00 0. -1.
          4    1    1    2  501    0  0.28455715674E+01 -0.25685406986E+01 -0.86134524174E+02  0.86229135641E+02  0.12700000000E+01 0.  1.
         -4    1    1    2    0  501 -0.28455715674E+01  0.25685406986E+01 -0.24157197382E+03  0.24160572451E+03  0.12700000000E+01 0. -1.
<mgrwt>
<rscale>  0 0.40382643E+01</rscale>
<asrwt>0</asrwt>
<pdfrwt beam="1">0</pdfrwt>
<pdfrwt beam="2">0</pdfrwt>
<totfact> 0.28230365E+11</totfact>
</mgrwt>
</event>
<event>
 4    1  0.1699693E+006  0.2057823E+01  0.7546771E-02  0.2942757E+00
         22   -1    0    0    0    0  0.00000000000E+00  0.00000000000E+00  0.83939977218E-01  0.83939977218E-01  0.00000000000E+00 0.  1.
         22   -1    0    0    0    0 -0.00000000000E+00 -0.00000000000E+00 -0.50620784383E+02  0.50620784383E+02  0.00000000000E+00 0. -1.
          4    1    1    2  501    0 -0.13968175885E+01 -0.81892492848E+00 -0.23788956356E+02  0.23877794746E+02  0.12700000000E+01 0. -1.
         -4    1    1    2    0  501  0.13968175885E+01  0.81892492848E+00 -0.26747888050E+02  0.26826929614E+02  0.12700000000E+01 0. -1.
<mgrwt>
<rscale>  0 0.20578235E+01</rscale>
<asrwt>0</asrwt>
<pdfrwt beam="1">0</pdfrwt>
<pdfrwt beam="2">0</pdfrwt>
<totfact> 0.33214715E+12</totfact>
</mgrwt>
</event>
<event>
 4    1  0.1699693E+006  0.2420119E+01  0.7546771E-02  0.2744830E+00
         22   -1    0    0    0    0  0.00000000000E+00  0.00000000000E+00  0.87729154319E+00  0.87729154319E+00  0.00000000000E+00 0. -1.
         22   -1    0    0    0    0 -0.00000000000E+00 -0.00000000000E+00 -0.28456942385E+02  0.28456942385E+02  0.00000000000E+00 0. -1.
          4    1    1    2  501    0  0.82297385742E+00 -0.18885949469E+01 -0.95804431078E+00  0.26028495432E+01  0.12700000000E+01 0. -1.
         -4    1    1    2    0  501 -0.82297385742E+00  0.18885949469E+01 -0.26621606531E+02  0.26731384385E+02  0.12700000000E+01 0. -1.
<mgrwt>
<rscale>  0 0.24201192E+01</rscale>
<asrwt>0</asrwt>
<pdfrwt beam="1">0</pdfrwt>
<pdfrwt beam="2">0</pdfrwt>
<totfact> 0.50463067E+11</totfact>
</mgrwt>
</event>
<event>
 4    1  0.1699693E+006  0.2174322E+01  0.7546771E-02  0.2872228E+00
         22   -1    0    0    0    0  0.00000000000E+00  0.00000000000E+00  0.93617297125E-01  0.93617297125E-01  0.00000000000E+00 0. -1.
         22   -1    0    0    0    0 -0.00000000000E+00 -0.00000000000E+00 -0.56601556725E+02  0.56601556725E+02  0.00000000000E+00 0.  1.
          4    1    1    2  501    0  0.13224983888E+01  0.11686633558E+01 -0.18946721918E+02  0.19071076201E+02  0.12700000000E+01 0. -1.
         -4    1    1    2    0  501 -0.13224983888E+01 -0.11686633558E+01 -0.37561217510E+02  0.37624097821E+02  0.12700000000E+01 0.  1.
<mgrwt>
<rscale>  0 0.21743220E+01</rscale>
<asrwt>0</asrwt>
<pdfrwt beam="1">0</pdfrwt>
<pdfrwt beam="2">0</pdfrwt>
<totfact> 0.25389011E+12</totfact>
</mgrwt>
</event>
<event>
 4    1  0.1699693E+006  0.2728498E+01  0.7546771E-02  0.2615630E+00
         22   -1    0    0    0    0  0.00000000000E+00  0.00000000000E+00  0.19312535181E+01  0.19312535181E+01  0.00000000000E+00 0. -1.
         22   -1    0    0    0    0 -0.00000000000E+00 -0.00000000000E+00 -0.88163125413E+01  0.88163125413E+01  0.00000000000E+00 0.  1.
          4    1    1    2  501    0  0.58891003270E+00  0.23420044981E+01  0.58873530086E+00  0.27912916992E+01  0.12700000000E+01 0. -1.
         -4    1    1    2    0  501 -0.58891003270E+00 -0.23420044981E+01 -0.74737943241E+01  0.79562743602E+01  0.12700000000E+01 0.  1.
<mgrwt>
<rscale>  0 0.27284978E+01</rscale>
<asrwt>0</asrwt>
<pdfrwt beam="1">0</pdfrwt>
<pdfrwt beam="2">0</pdfrwt>
<totfact> 0.86733627E+11</totfact>
</mgrwt>
</event>
<event>
 4    1  0.1699693E+006  0.2427579E+01  0.7546771E-02  0.2741345E+00
         22   -1    0    0    0    0  0.00000000000E+00  0.00000000000E+00  0.38829250541E-01  0.38829250541E-01  0.00000000000E+00 0.  1.
         22   -1    0    0    0    0 -0.00000000000E+00 -0.00000000000E+00 -0.16235406785E+03  0.16235406785E+03  0.00000000000E+00 0. -1.
          4    1    1    2  501    0  0.19077722727E+01 -0.80040240600E+00 -0.60426668024E+02  0.60475411099E+02  0.12700000000E+01 0.  1.
         -4    1    1    2    0  501 -0.19077722727E+01  0.80040240600E+00 -0.10188857058E+03  0.10191748600E+03  0.12700000000E+01 0. -1.
<mgrwt>
<rscale>  0 0.24275788E+01</rscale>
<asrwt>0</asrwt>
<pdfrwt beam="1">0</pdfrwt>
<pdfrwt beam="2">0</pdfrwt>
<totfact> 0.15204679E+12</totfact>
</mgrwt>
</event>
<event>
 4    1  0.1699693E+006  0.2541100E+01  0.7546771E-02  0.2690683E+00
         22   -1    0    0    0    0  0.00000000000E+00  0.00000000000E+00  0.20424595711E+00  0.20424595711E+00  0.00000000000E+00 0.  1.
         22   -1    0    0    0    0 -0.00000000000E+00 -0.00000000000E+00 -0.35939961996E+02  0.35939961996E+02  0.00000000000E+00 0.  1.
          4    1    1    2  501    0  0.14687602310E+01 -0.16392176139E+01 -0.11598513985E+02  0.11873614347E+02  0.12700000000E+01 0.  1.
         -4    1    1    2    0  501 -0.14687602310E+01  0.16392176139E+01 -0.24137202054E+02  0.24270593606E+02  0.12700000000E+01 0.  1.
<mgrwt>
<rscale>  0 0.25411004E+01</rscale>
<asrwt>0</asrwt>
<pdfrwt beam="1">0</pdfrwt>
<pdfrwt beam="2">0</pdfrwt>
<totfact> 0.19344860E+12</totfact>
</mgrwt>
</event>
<event>
 4    1  0.1699693E+006  0.4804559E+01  0.7546771E-02  0.2147081E+00
         22   -1    0    0    0    0  0.00000000000E+00  0.00000000000E+00  0.68547618787E+01  0.68547618787E+01  0.00000000000E+00 0.  1.
         22   -1    0    0    0    0 -0.00000000000E+00 -0.00000000000E+00 -0.34393383010E+01  0.34393383010E+01  0.00000000000E+00 0. -1.
          4    1    1    2  501    0  0.45344691324E+01 -0.95366268094E+00  0.24513039200E+01  0.53937624836E+01  0.12700000000E+01 0.  1.
         -4    1    1    2    0  501 -0.45344691324E+01  0.95366268094E+00  0.96411965765E+00  0.49003376961E+01  0.12700000000E+01 0. -1.
<mgrwt>
<rscale>  0 0.48045585E+01</rscale>
<asrwt>0</asrwt>
<pdfrwt beam="1">0</pdfrwt>
<pdfrwt beam="2">0</pdfrwt>
<totfact> 0.59925410E+11</totfact>
</mgrwt>
</event>
<event>
 4    1  0.1699693E+006  0.2229313E+01  0.7546771E-02  0.2841407E+00
         22   -1    0    0    0    0  0.00000000000E+00  0.00000000000E+00  0.31490374700E+02  0.31490374700E+02  0.00000000000E+00 0.  1.
         22   -1    0    0    0    0 -0.00000000000E+00 -0.00000000000E+00 -0.94839528359E+00  0.94839528359E+00  0.00000000000E+00 0.  1.
          4    1    1    2  501    0 -0.42017144068E+00 -0.17833656055E+01  0.30079490038E+02  0.30161988626E+02  0.12700000000E+01 0.  1.
         -4    1    1    2    0  501  0.42017144068E+00  0.17833656055E+01  0.46248937752E+00  0.22767813568E+01  0.12700000000E+01 0.  1.
<mgrwt>
<rscale>  0 0.22293131E+01</rscale>
<asrwt>0</asrwt>
<pdfrwt beam="1">0</pdfrwt>
<pdfrwt beam="2">0</pdfrwt>
<totfact> 0.40580438E+11</totfact>
</mgrwt>
</event>
<event>
 4    1  0.1699693E+006  0.4246480E+01  0.7546771E-02  0.2232517E+00
         22   -1    0    0    0    0  0.00000000000E+00  0.00000000000E+00  0.28896584132E+02  0.28896584132E+02  0.00000000000E+00 0.  1.
         22   -1    0    0    0    0 -0.00000000000E+00 -0.00000000000E+00 -0.80473718496E+00  0.80473718496E+00  0.00000000000E+00 0. -1.
          4    1    1    2  501    0 -0.40465929190E+01  0.21161610966E+00  0.21083054348E+02  0.21506458943E+02  0.12700000000E+01 0. -1.
         -4    1    1    2    0  501  0.40465929190E+01 -0.21161610966E+00  0.70087925990E+01  0.81948623738E+01  0.12700000000E+01 0.  1.
<mgrwt>
<rscale>  0 0.42464804E+01</rscale>
<asrwt>0</asrwt>
<pdfrwt beam="1">0</pdfrwt>
<pdfrwt beam="2">0</pdfrwt>
<totfact> 0.54602541E+11</totfact>
</mgrwt>
</event>
<event>
 4    1  0.1699693E+006  0.2742581E+01  0.7546771E-02  0.2610370E+00
         22   -1    0    0    0    0  0.00000000000E+00  0.00000000000E+00  0.45736535150E+01  0.45736535150E+01  0.00000000000E+00 0. -1.
         22   -1    0    0    0    0 -0.00000000000E+00 -0.00000000000E+00 -0.16458646702E+02  0.16458646702E+02  0.00000000000E+00 0.  1.
          4    1    1    2  501    0 -0.18432624582E+01 -0.15846874951E+01  0.40344311089E+01  0.48783588757E+01  0.12700000000E+01 0. -1.
         -4    1    1    2    0  501  0.18432624582E+01  0.15846874951E+01 -0.15919424296E+02  0.16153941342E+02  0.12700000000E+01 0.  1.
<mgrwt>
<rscale>  0 0.27425811E+01</rscale>
<asrwt>0</asrwt>
<pdfrwt beam="1">0</pdfrwt>
<pdfrwt beam="2">0</pdfrwt>
<totfact> 0.14793361E+11</totfact>
</mgrwt>
</event>
<event>
 4    1  0.1699693E+006  0.2090179E+01  0.7546771E-02  0.2922405E+00
         22   -1    0    0    0    0  0.00000000000E+00  0.00000000000E+00  0.21020766797E+01  0.21020766797E+01  0.00000000000E+00 0. -1.
         22   -1    0    0    0    0 -0.00000000000E+00 -0.00000000000E+00 -0.21117076997E+01  0.21117076997E+01  0.00000000000E+00 0.  1.
          4    1    1    2  501    0  0.16122120734E+01  0.39587746694E+00 -0.26962702343E+00  0.21074974425E+01  0.12700000000E+01 0. -1.
         -4    1    1    2    0  501 -0.16122120734E+01 -0.39587746694E+00  0.25999600342E+00  0.21062869369E+01  0.12700000000E+01 0.  1.
<mgrwt>
<rscale>  0 0.20901786E+01</rscale>
<asrwt>0</asrwt>
<pdfrwt beam="1">0</pdfrwt>
<pdfrwt beam="2">0</pdfrwt>
<totfact> 0.42461401E+12</totfact>
</mgrwt>
</event>
<event>
 4    1  0.1699693E+006  0.2106108E+01  0.7546771E-02  0.2912609E+00
         22   -1    0    0    0    0  0.00000000000E+00  0.00000000000E+00  0.66768898764E+01  0.66768898764E+01  0.00000000000E+00 0. -1.
         22   -1    0    0    0    0 -0.00000000000E+00 -0.00000000000E+00 -0.10772670894E+01  0.10772670894E+01  0.00000000000E+00 0. -1.
          4    1    1    2  501    0  0.16782781090E+01 -0.78562607575E-01  0.52002045603E+01  0.56105095101E+01  0.12700000000E+01 0. -1.
         -4    1    1    2    0  501 -0.16782781090E+01  0.78562607575E-01  0.39941822675E+00  0.21436474557E+01  0.12700000000E+01 0. -1.
<mgrwt>
<rscale>  0 0.21061077E+01</rscale>
<asrwt>0</asrwt>
<pdfrwt beam="1">0</pdfrwt>
<pdfrwt beam="2">0</pdfrwt>
<totfact> 0.23685768E+12</totfact>
</mgrwt>
</event>
<event>
 4    1  0.1699693E+006  0.2772155E+01  0.7546771E-02  0.2599485E+00
         22   -1    0    0    0    0  0.00000000000E+00  0.00000000000E+00  0.31756394091E+02  0.31756394091E+02  0.00000000000E+00 0. -1.
         22   -1    0    0    0    0 -0.00000000000E+00 -0.00000000000E+00 -0.25383668560E+00  0.25383668560E+00  0.00000000000E+00 0.  1.
          4    1    1    2  501    0 -0.12016239409E+01 -0.21512885140E+01  0.19208403583E+02  0.19407411228E+02  0.12700000000E+01 0. -1.
         -4    1    1    2    0  501  0.12016239409E+01  0.21512885140E+01  0.12294153822E+02  0.12602819549E+02  0.12700000000E+01 0.  1.
<mgrwt>
<rscale>  0 0.27721548E+01</rscale>
<asrwt>0</asrwt>
<pdfrwt beam="1">0</pdfrwt>
<pdfrwt beam="2">0</pdfrwt>
<totfact> 0.17786377E+12</totfact>
</mgrwt>
</event>
<event>
 4    1  0.1699693E+006  0.4701890E+01  0.7546771E-02  0.2160363E+00
         22   -1    0    0    0    0  0.00000000000E+00  0.00000000000E+00  0.64040354628E+01  0.64040354628E+01  0.00000000000E+00 0.  1.
         22   -1    0    0    0    0 -0.00000000000E+00 -0.00000000000E+00 -0.36626339299E+01  0.36626339299E+01  0.00000000000E+00 0.  1.
          4    1    1    2  501    0 -0.29729026711E+01  0.34141934132E+01  0.25772812391E+01  0.53619162190E+01  0.12700000000E+01 0.  1.
         -4    1    1    2    0  501  0.29729026711E+01 -0.34141934132E+01  0.16412029373E+00  0.47047531737E+01  0.12700000000E+01 0.  1.
<mgrwt>
<rscale>  0 0.47018897E+01</rscale>
<asrwt>0</asrwt>
<pdfrwt beam="1">0</pdfrwt>
<pdfrwt beam="2">0</pdfrwt>
<totfact> 0.60371868E+11</totfact>
</mgrwt>
</event>
<event>
 4    1  0.1699693E+006  0.2234047E+01  0.7546771E-02  0.2838822E+00
         22   -1    0    0    0    0  0.00000000000E+00  0.00000000000E+00  0.16440067473E+01  0.16440067473E+01  0.00000000000E+00 0. -1.
         22   -1    0    0    0    0 -0.00000000000E+00 -0.00000000000E+00 -0.31364467736E+01  0.31364467736E+01  0.00000000000E+00 0. -1.
          4    1    1    2  501    0  0.18314654972E+01 -0.15427217005E+00 -0.11742772213E+01  0.25238646482E+01  0.12700000000E+01 0. -1.
         -4    1    1    2    0  501 -0.18314654972E+01  0.15427217005E+00 -0.31816280503E+00  0.22565888727E+01  0.12700000000E+01 0. -1.
<mgrwt>
<rscale>  0 0.22340469E+01</rscale>
<asrwt>0</asrwt>
<pdfrwt beam="1">0</pdfrwt>
<pdfrwt beam="2">0</pdfrwt>
<totfact> 0.35594869E+12</totfact>
</mgrwt>
</event>
<event>
 4    1  0.1699693E+006  0.2863449E+01  0.7546771E-02  0.2567176E+00
         22   -1    0    0    0    0  0.00000000000E+00  0.00000000000E+00  0.12558888542E+02  0.12558888542E+02  0.00000000000E+00 0. -1.
         22   -1    0    0    0    0 -0.00000000000E+00 -0.00000000000E+00 -0.77391885847E+00  0.77391885847E+00  0.00000000000E+00 0.  1.
          4    1    1    2  501    0 -0.16503774148E+01 -0.19653737649E+01  0.85289477218E+01  0.89967932558E+01  0.12700000000E+01 0. -1.
         -4    1    1    2    0  501  0.16503774148E+01  0.19653737649E+01  0.32560219617E+01  0.43360141446E+01  0.12700000000E+01 0.  1.
<mgrwt>
<rscale>  0 0.28634489E+01</rscale>
<asrwt>0</asrwt>
<pdfrwt beam="1">0</pdfrwt>
<pdfrwt beam="2">0</pdfrwt>
<totfact> 0.16106994E+12</totfact>
</mgrwt>
</event>
<event>
 4    1  0.1699693E+006  0.2964415E+01  0.7546771E-02  0.2533546E+00
         22   -1    0    0    0    0  0.00000000000E+00  0.00000000000E+00  0.54302399945E+02  0.54302399945E+02  0.00000000000E+00 0. -1.
         22   -1    0    0    0    0 -0.00000000000E+00 -0.00000000000E+00 -0.26628478910E+00  0.26628478910E+00  0.00000000000E+00 0.  1.
          4    1    1    2  501    0 -0.26551995926E+01 -0.35323059481E+00  0.44106580064E+02  0.44206087382E+02  0.12700000000E+01 0. -1.
         -4    1    1    2    0  501  0.26551995926E+01  0.35323059481E+00  0.99295350923E+01  0.10362597352E+02  0.12700000000E+01 0.  1.
<mgrwt>
<rscale>  0 0.29644151E+01</rscale>
<asrwt>0</asrwt>
<pdfrwt beam="1">0</pdfrwt>
<pdfrwt beam="2">0</pdfrwt>
<totfact> 0.83852213E+11</totfact>
</mgrwt>
</event>
<event>
 4    1  0.1699693E+006  0.4559232E+01  0.7546771E-02  0.2181646E+00
         22   -1    0    0    0    0  0.00000000000E+00  0.00000000000E+00  0.13361344526E+01  0.13361344526E+01  0.00000000000E+00 0.  1.
         22   -1    0    0    0    0 -0.00000000000E+00 -0.00000000000E+00 -0.21378552487E+02  0.21378552487E+02  0.00000000000E+00 0.  1.
          4    1    1    2  501    0 -0.43432388952E+01  0.55675414413E+00 -0.40947253334E+01  0.61280808443E+01  0.12700000000E+01 0.  1.
         -4    1    1    2    0  501  0.43432388952E+01 -0.55675414413E+00 -0.15947692701E+02  0.16586606096E+02  0.12700000000E+01 0.  1.
<mgrwt>
<rscale>  0 0.45592323E+01</rscale>
<asrwt>0</asrwt>
<pdfrwt beam="1">0</pdfrwt>
<pdfrwt beam="2">0</pdfrwt>
<totfact> 0.44732190E+11</totfact>
</mgrwt>
</event>
<event>
 4    1  0.1699693E+006  0.2216962E+01  0.7546771E-02  0.2848202E+00
         22   -1    0    0    0    0  0.00000000000E+00  0.00000000000E+00  0.42713075030E+02  0.42713075030E+02  0.00000000000E+00 0.  1.
         22   -1    0    0    0    0 -0.00000000000E+00 -0.00000000000E+00 -0.12998233136E+00  0.12998233136E+00  0.00000000000E+00 0. -1.
          4    1    1    2  501    0  0.12162880654E+01 -0.13500604098E+01  0.28547695834E+02  0.28633649037E+02  0.12700000000E+01 0.  1.
         -4    1    1    2    0  501 -0.12162880654E+01  0.13500604098E+01  0.14035396865E+02  0.14209408324E+02  0.12700000000E+01 0. -1.
<mgrwt>
<rscale>  0 0.22169618E+01</rscale>
<asrwt>0</asrwt>
<pdfrwt beam="1">0</pdfrwt>
<pdfrwt beam="2">0</pdfrwt>
<totfact> 0.25573536E+12</totfact>
</mgrwt>
</event>
<event>
 4    1  0.1699693E+006  0.4298761E+01  0.7546771E-02  0.2223581E+00
         22   -1    0    0    0    0  0.00000000000E+00  0.00000000000E+00  0.45180555893E+01  0.45180555893E+01  0.00000000000E+00 0. -1.
         22   -1    0    0    0    0 -0.00000000000E+00 -0.00000000000E+00 -0.46767006299E+01  0.46767006299E+01  0.00000000000E+00 0.  1.
          4    1    1    2  501    0 -0.39738444327E+01 -0.10368258130E+01  0.15488774921E+01  0.45692853738E+01  0.12700000000E+01 0. -1.
         -4    1    1    2    0  501  0.39738444327E+01  0.10368258130E+01 -0.17075225327E+01  0.46254708454E+01  0.12700000000E+01 0.  1.
<mgrwt>
<rscale>  0 0.42987611E+01</rscale>
<asrwt>0</asrwt>
<pdfrwt beam="1">0</pdfrwt>
<pdfrwt beam="2">0</pdfrwt>
<totfact> 0.68482487E+11</totfact>
</mgrwt>
</event>
<event>
 4    1  0.1699693E+006  0.7001010E+01  0.7546771E-02  0.1940058E+00
         22   -1    0    0    0    0  0.00000000000E+00  0.00000000000E+00  0.16050248397E+01  0.16050248397E+01  0.00000000000E+00 0. -1.
         22   -1    0    0    0    0 -0.00000000000E+00 -0.00000000000E+00 -0.34856734280E+02  0.34856734280E+02  0.00000000000E+00 0.  1.
          4    1    1    2  501    0 -0.42660098848E+01  0.54039240264E+01 -0.10208647457E+02  0.12378635552E+02  0.12700000000E+01 0. -1.
         -4    1    1    2    0  501  0.42660098848E+01 -0.54039240264E+01 -0.23043061984E+02  0.24083123568E+02  0.12700000000E+01 0.  1.
<mgrwt>
<rscale>  0 0.70010096E+01</rscale>
<asrwt>0</asrwt>
<pdfrwt beam="1">0</pdfrwt>
<pdfrwt beam="2">0</pdfrwt>
<totfact> 0.19492031E+11</totfact>
</mgrwt>
</event>
<event>
 4    1  0.1699693E+006  0.2413270E+01  0.7546771E-02  0.2748047E+00
         22   -1    0    0    0    0  0.00000000000E+00  0.00000000000E+00  0.21338741275E+02  0.21338741275E+02  0.00000000000E+00 0.  1.
         22   -1    0    0    0    0 -0.00000000000E+00 -0.00000000000E+00 -0.29714425386E+00  0.29714425386E+00  0.00000000000E+00 0. -1.
          4    1    1    2  501    0  0.30538192177E+00  0.20292154407E+01  0.13609261902E+02  0.13821573099E+02  0.12700000000E+01 0. -1.
         -4    1    1    2    0  501 -0.30538192177E+00 -0.20292154407E+01  0.74323351187E+01  0.78143124291E+01  0.12700000000E+01 0.  1.
<mgrwt>
<rscale>  0 0.24132703E+01</rscale>
<asrwt>0</asrwt>
<pdfrwt beam="1">0</pdfrwt>
<pdfrwt beam="2">0</pdfrwt>
<totfact> 0.24647285E+12</totfact>
</mgrwt>
</event>
<event>
 4    1  0.1699693E+006  0.2199847E+01  0.7546771E-02  0.2857738E+00
         22   -1    0    0    0    0  0.00000000000E+00  0.00000000000E+00  0.48557413376E+00  0.48557413376E+00  0.00000000000E+00 0. -1.
         22   -1    0    0    0    0 -0.00000000000E+00 -0.00000000000E+00 -0.99787465579E+01  0.99787465579E+01  0.00000000000E+00 0.  1.
          4    1    1    2  501    0  0.78017638516E+00 -0.16179474049E+01 -0.45610609599E+01  0.50638528886E+01  0.12700000000E+01 0.  1.
         -4    1    1    2    0  501 -0.78017638516E+00  0.16179474049E+01 -0.49321114642E+01  0.54004678031E+01  0.12700000000E+01 0. -1.
<mgrwt>
<rscale>  0 0.21998475E+01</rscale>
<asrwt>0</asrwt>
<pdfrwt beam="1">0</pdfrwt>
<pdfrwt beam="2">0</pdfrwt>
<totfact> 0.36121477E+12</totfact>
</mgrwt>
</event>
<event>
 4    1  0.1699693E+006  0.2071724E+01  0.7546771E-02  0.2933938E+00
         22   -1    0    0    0    0  0.00000000000E+00  0.00000000000E+00  0.10454127451E+01  0.10454127451E+01  0.00000000000E+00 0. -1.
         22   -1    0    0    0    0 -0.00000000000E+00 -0.00000000000E+00 -0.45492432236E+01  0.45492432236E+01  0.00000000000E+00 0. -1.
          4    1    1    2  501    0 -0.15489093813E+01  0.52917060331E+00 -0.87835477652E+00  0.22502330796E+01  0.12700000000E+01 0. -1.
         -4    1    1    2    0  501  0.15489093813E+01 -0.52917060331E+00 -0.26254757021E+01  0.33444228891E+01  0.12700000000E+01 0. -1.
<mgrwt>
<rscale>  0 0.20717244E+01</rscale>
<asrwt>0</asrwt>
<pdfrwt beam="1">0</pdfrwt>
<pdfrwt beam="2">0</pdfrwt>
<totfact> 0.38659403E+12</totfact>
</mgrwt>
</event>
<event>
 4    1  0.1699693E+006  0.2270700E+01  0.7546771E-02  0.2819152E+00
         22   -1    0    0    0    0  0.00000000000E+00  0.00000000000E+00  0.34718239096E+01  0.34718239096E+01  0.00000000000E+00 0.  1.
         22   -1    0    0    0    0 -0.00000000000E+00 -0.00000000000E+00 -0.35577877765E+01  0.35577877765E+01  0.00000000000E+00 0. -1.
          4    1    1    2  501    0 -0.64135331537E+00  0.17697024122E+01  0.26397420991E+01  0.34819992896E+01  0.12700000000E+01 0.  1.
         -4    1    1    2    0  501  0.64135331537E+00 -0.17697024122E+01 -0.27257059660E+01  0.35476123965E+01  0.12700000000E+01 0. -1.
<mgrwt>
<rscale>  0 0.22707005E+01</rscale>
<asrwt>0</asrwt>
<pdfrwt beam="1">0</pdfrwt>
<pdfrwt beam="2">0</pdfrwt>
<totfact> 0.12881361E+12</totfact>
</mgrwt>
</event>
<event>
 4    1  0.1699693E+006  0.3826391E+01  0.7546771E-02  0.2311761E+00
         22   -1    0    0    0    0  0.00000000000E+00  0.00000000000E+00  0.76693122048E+01  0.76693122048E+01  0.00000000000E+00 0.  1.
         22   -1    0    0    0    0 -0.00000000000E+00 -0.00000000000E+00 -0.45959867386E+01  0.45959867386E+01  0.00000000000E+00 0. -1.
          4    1    1    2  501    0  0.35888561052E+01 -0.38533330576E+00  0.62257216974E+01  0.73075906121E+01  0.12700000000E+01 0.  1.
         -4    1    1    2    0  501 -0.35888561052E+01  0.38533330576E+00 -0.31523962311E+01  0.49577083313E+01  0.12700000000E+01 0. -1.
<mgrwt>
<rscale>  0 0.38263912E+01</rscale>
<asrwt>0</asrwt>
<pdfrwt beam="1">0</pdfrwt>
<pdfrwt beam="2">0</pdfrwt>
<totfact> 0.37245823E+11</totfact>
</mgrwt>
</event>
<event>
 4    1  0.1699693E+006  0.2097932E+01  0.7546771E-02  0.2917619E+00
         22   -1    0    0    0    0  0.00000000000E+00  0.00000000000E+00  0.46195398327E+02  0.46195398327E+02  0.00000000000E+00 0. -1.
         22   -1    0    0    0    0 -0.00000000000E+00 -0.00000000000E+00 -0.18766379609E+00  0.18766379609E+00  0.00000000000E+00 0.  1.
          4    1    1    2  501    0 -0.82335241634E+00  0.14527588101E+01  0.39276066099E+02  0.39332056717E+02  0.12700000000E+01 0. -1.
         -4    1    1    2    0  501  0.82335241634E+00 -0.14527588101E+01  0.67316684314E+01  0.70510054057E+01  0.12700000000E+01 0.  1.
<mgrwt>
<rscale>  0 0.20979317E+01</rscale>
<asrwt>0</asrwt>
<pdfrwt beam="1">0</pdfrwt>
<pdfrwt beam="2">0</pdfrwt>
<totfact> 0.15341088E+12</totfact>
</mgrwt>
</event>
<event>
 4    1  0.1699693E+006  0.2280554E+01  0.7546771E-02  0.2813967E+00
         22   -1    0    0    0    0  0.00000000000E+00  0.00000000000E+00  0.62226407542E+00  0.62226407542E+00  0.00000000000E+00 0.  1.
         22   -1    0    0    0    0 -0.00000000000E+00 -0.00000000000E+00 -0.89676876858E+01  0.89676876858E+01  0.00000000000E+00 0. -1.
          4    1    1    2  501    0 -0.15420832984E+01  0.11000024050E+01 -0.54228996176E+01  0.58829215915E+01  0.12700000000E+01 0. -1.
         -4    1    1    2    0  501  0.15420832984E+01 -0.11000024050E+01 -0.29225239929E+01  0.37070301697E+01  0.12700000000E+01 0.  1.
<mgrwt>
<rscale>  0 0.22805539E+01</rscale>
<asrwt>0</asrwt>
<pdfrwt beam="1">0</pdfrwt>
<pdfrwt beam="2">0</pdfrwt>
<totfact> 0.31047348E+12</totfact>
</mgrwt>
</event>
<event>
 4    1  0.1699693E+006  0.2885634E+01  0.7546771E-02  0.2559604E+00
         22   -1    0    0    0    0  0.00000000000E+00  0.00000000000E+00  0.92143051636E+01  0.92143051636E+01  0.00000000000E+00 0.  1.
         22   -1    0    0    0    0 -0.00000000000E+00 -0.00000000000E+00 -0.23424405900E+01  0.23424405900E+01  0.00000000000E+00 0. -1.
          4    1    1    2  501    0 -0.25883307111E+01 -0.12052956635E+00  0.79645316405E+01  0.84711656517E+01  0.12700000000E+01 0.  1.
         -4    1    1    2    0  501  0.25883307111E+01  0.12052956635E+00 -0.10926670669E+01  0.30855801019E+01  0.12700000000E+01 0. -1.
<mgrwt>
<rscale>  0 0.28856339E+01</rscale>
<asrwt>0</asrwt>
<pdfrwt beam="1">0</pdfrwt>
<pdfrwt beam="2">0</pdfrwt>
<totfact> 0.65750394E+11</totfact>
</mgrwt>
</event>
<event>
 4    1  0.1699693E+006  0.2048709E+01  0.7546771E-02  0.2948604E+00
         22   -1    0    0    0    0  0.00000000000E+00  0.00000000000E+00  0.43139674271E+00  0.43139674271E+00  0.00000000000E+00 0. -1.
         22   -1    0    0    0    0 -0.00000000000E+00 -0.00000000000E+00 -0.12360806591E+02  0.12360806591E+02  0.00000000000E+00 0.  1.
          4    1    1    2  501    0  0.37535736098E-01  0.16071399487E+01 -0.30135604599E+01  0.36440025235E+01  0.12700000000E+01 0. -1.
         -4    1    1    2    0  501 -0.37535736098E-01 -0.16071399487E+01 -0.89158493883E+01  0.91482008100E+01  0.12700000000E+01 0.  1.
<mgrwt>
<rscale>  0 0.20487088E+01</rscale>
<asrwt>0</asrwt>
<pdfrwt beam="1">0</pdfrwt>
<pdfrwt beam="2">0</pdfrwt>
<totfact> 0.31817477E+12</totfact>
</mgrwt>
</event>
<event>
 4    1  0.1699693E+006  0.3840867E+01  0.7546771E-02  0.2308786E+00
         22   -1    0    0    0    0  0.00000000000E+00  0.00000000000E+00  0.12067665208E+01  0.12067665208E+01  0.00000000000E+00 0.  1.
         22   -1    0    0    0    0 -0.00000000000E+00 -0.00000000000E+00 -0.12667176525E+02  0.12667176525E+02  0.00000000000E+00 0. -1.
          4    1    1    2  501    0 -0.36179443253E+01  0.22323669471E+00 -0.44335723026E+01  0.58659030954E+01  0.12700000000E+01 0. -1.
         -4    1    1    2    0  501  0.36179443253E+01 -0.22323669471E+00 -0.70268377016E+01  0.80080399504E+01  0.12700000000E+01 0.  1.
<mgrwt>
<rscale>  0 0.38408665E+01</rscale>
<asrwt>0</asrwt>
<pdfrwt beam="1">0</pdfrwt>
<pdfrwt beam="2">0</pdfrwt>
<totfact> 0.96000077E+11</totfact>
</mgrwt>
</event>
<event>
 4    1  0.1699693E+006  0.2033862E+01  0.7546771E-02  0.2958236E+00
         22   -1    0    0    0    0  0.00000000000E+00  0.00000000000E+00  0.14677620853E+01  0.14677620853E+01  0.00000000000E+00 0. -1.
         22   -1    0    0    0    0 -0.00000000000E+00 -0.00000000000E+00 -0.52446243420E+01  0.52446243420E+01  0.00000000000E+00 0. -1.
          4    1    1    2  501    0  0.83431053627E+00 -0.13518957330E+01  0.39434883328E+00  0.20717401252E+01  0.12700000000E+01 0. -1.
         -4    1    1    2    0  501 -0.83431053627E+00  0.13518957330E+01 -0.41712110900E+01  0.46406463021E+01  0.12700000000E+01 0. -1.
<mgrwt>
<rscale>  0 0.20338624E+01</rscale>
<asrwt>0</asrwt>
<pdfrwt beam="1">0</pdfrwt>
<pdfrwt beam="2">0</pdfrwt>
<totfact> 0.22141465E+12</totfact>
</mgrwt>
</event>
<event>
 4    1  0.1699693E+006  0.3036378E+01  0.7546771E-02  0.2510808E+00
         22   -1    0    0    0    0  0.00000000000E+00  0.00000000000E+00  0.42399448848E+01  0.42399448848E+01  0.00000000000E+00 0. -1.
         22   -1    0    0    0    0 -0.00000000000E+00 -0.00000000000E+00 -0.27818495293E+01  0.27818495293E+01  0.00000000000E+00 0.  1.
          4    1    1    2  501    0  0.20973328176E+01 -0.17910574844E+01  0.23695801723E+01  0.38515583928E+01  0.12700000000E+01 0. -1.
         -4    1    1    2    0  501 -0.20973328176E+01  0.17910574844E+01 -0.91148481677E+00  0.31702360214E+01  0.12700000000E+01 0.  1.
<mgrwt>
<rscale>  0 0.30363781E+01</rscale>
<asrwt>0</asrwt>
<pdfrwt beam="1">0</pdfrwt>
<pdfrwt beam="2">0</pdfrwt>
<totfact> 0.13580437E+12</totfact>
</mgrwt>
</event>
<event>
 4    1  0.1699693E+006  0.2458103E+01  0.7546771E-02  0.2727294E+00
         22   -1    0    0    0    0  0.00000000000E+00  0.00000000000E+00  0.90631991069E+01  0.90631991069E+01  0.00000000000E+00 0. -1.
         22   -1    0    0    0    0 -0.00000000000E+00 -0.00000000000E+00 -0.14819572694E+01  0.14819572694E+01  0.00000000000E+00 0. -1.
          4    1    1    2  501    0 -0.27442357963E+00  0.20866392149E+01  0.77013463715E+01  0.80841206973E+01  0.12700000000E+01 0. -1.
         -4    1    1    2    0  501  0.27442357963E+00 -0.20866392149E+01 -0.12010453397E+00  0.24610356790E+01  0.12700000000E+01 0. -1.
<mgrwt>
<rscale>  0 0.24581032E+01</rscale>
<asrwt>0</asrwt>
<pdfrwt beam="1">0</pdfrwt>
<pdfrwt beam="2">0</pdfrwt>
<totfact> 0.11385779E+12</totfact>
</mgrwt>
</event>
<event>
 4    1  0.1699693E+006  0.2896742E+01  0.7546771E-02  0.2555853E+00
         22   -1    0    0    0    0  0.00000000000E+00  0.00000000000E+00  0.25156655699E+01  0.25156655699E+01  0.00000000000E+00 0. -1.
         22   -1    0    0    0    0 -0.00000000000E+00 -0.00000000000E+00 -0.33715804756E+01  0.33715804756E+01  0.00000000000E+00 0.  1.
          4    1    1    2  501    0  0.38646546521E+00  0.25746567930E+01 -0.12363312138E+00  0.28993789518E+01  0.12700000000E+01 0. -1.
         -4    1    1    2    0  501 -0.38646546521E+00 -0.25746567930E+01 -0.73228178440E+00  0.29878670937E+01  0.12700000000E+01 0.  1.
<mgrwt>
<rscale>  0 0.28967418E+01</rscale>
<asrwt>0</asrwt>
<pdfrwt beam="1">0</pdfrwt>
<pdfrwt beam="2">0</pdfrwt>
<totfact> 0.19986372E+12</totfact>
</mgrwt>
</event>
<event>
 4    1  0.1699693E+006  0.2340284E+01  0.7546771E-02  0.2783426E+00
         22   -1    0    0    0    0  0.00000000000E+00  0.00000000000E+00  0.28428715753E+01  0.28428715753E+01  0.00000000000E+00 0.  1.
         22   -1    0    0    0    0 -0.00000000000E+00 -0.00000000000E+00 -0.57167568633E+01  0.57167568633E+01  0.00000000000E+00 0. -1.
          4    1    1    2  501    0 -0.17850902312E+01  0.82309222450E+00  0.20478877025E+01  0.31097864855E+01  0.12700000000E+01 0.  1.
         -4    1    1    2    0  501  0.17850902312E+01 -0.82309222450E+00 -0.49217729905E+01  0.54498419530E+01  0.12700000000E+01 0. -1.
<mgrwt>
<rscale>  0 0.23402837E+01</rscale>
<asrwt>0</asrwt>
<pdfrwt beam="1">0</pdfrwt>
<pdfrwt beam="2">0</pdfrwt>
<totfact> 0.92959995E+11</totfact>
</mgrwt>
</event>
<event>
 4    1  0.1699693E+006  0.2686042E+01  0.7546771E-02  0.2631789E+00
         22   -1    0    0    0    0  0.00000000000E+00  0.00000000000E+00  0.10452555168E+01  0.10452555168E+01  0.00000000000E+00 0. -1.
         22   -1    0    0    0    0 -0.00000000000E+00 -0.00000000000E+00 -0.91730340350E+01  0.91730340350E+01  0.00000000000E+00 0.  1.
          4    1    1    2  501    0 -0.22164312874E+01 -0.83027207159E+00 -0.15219748933E+01  0.30872685242E+01  0.12700000000E+01 0. -1.
         -4    1    1    2    0  501  0.22164312874E+01  0.83027207159E+00 -0.66058036249E+01  0.71310210276E+01  0.12700000000E+01 0.  1.
<mgrwt>
<rscale>  0 0.26860416E+01</rscale>
<asrwt>0</asrwt>
<pdfrwt beam="1">0</pdfrwt>
<pdfrwt beam="2">0</pdfrwt>
<totfact> 0.16745056E+12</totfact>
</mgrwt>
</event>
<event>
 4    1  0.1699693E+006  0.2022348E+01  0.7546771E-02  0.2965802E+00
         22   -1    0    0    0    0  0.00000000000E+00  0.00000000000E+00  0.63679191126E+00  0.63679191126E+00  0.00000000000E+00 0. -1.
         22   -1    0    0    0    0 -0.00000000000E+00 -0.00000000000E+00 -0.70427212994E+01  0.70427212994E+01  0.00000000000E+00 0.  1.
          4    1    1    2  501    0 -0.12707738446E+01  0.92850704971E+00 -0.20636222020E+01  0.28893646530E+01  0.12700000000E+01 0. -1.
         -4    1    1    2    0  501  0.12707738446E+01 -0.92850704971E+00 -0.43423071862E+01  0.47901485577E+01  0.12700000000E+01 0.  1.
<mgrwt>
<rscale>  0 0.20223480E+01</rscale>
<asrwt>0</asrwt>
<pdfrwt beam="1">0</pdfrwt>
<pdfrwt beam="2">0</pdfrwt>
<totfact> 0.40428961E+12</totfact>
</mgrwt>
</event>
<event>
 4    1  0.1699693E+006  0.2010782E+01  0.7546771E-02  0.2973486E+00
         22   -1    0    0    0    0  0.00000000000E+00  0.00000000000E+00  0.18296723307E+02  0.18296723307E+02  0.00000000000E+00 0. -1.
         22   -1    0    0    0    0 -0.00000000000E+00 -0.00000000000E+00 -0.22616877616E+00  0.22616877616E+00  0.00000000000E+00 0.  1.
          4    1    1    2  501    0 -0.13887191942E+01 -0.70838186714E+00  0.10437808990E+02  0.10629727296E+02  0.12700000000E+01 0. -1.
         -4    1    1    2    0  501  0.13887191942E+01  0.70838186714E+00  0.76327455407E+01  0.78931647873E+01  0.12700000000E+01 0. -1.
<mgrwt>
<rscale>  0 0.20107824E+01</rscale>
<asrwt>0</asrwt>
<pdfrwt beam="1">0</pdfrwt>
<pdfrwt beam="2">0</pdfrwt>
<totfact> 0.40516489E+12</totfact>
</mgrwt>
</event>
<event>
 4    1  0.1699693E+006  0.3373824E+01  0.7546771E-02  0.2415797E+00
         22   -1    0    0    0    0  0.00000000000E+00  0.00000000000E+00  0.22367409540E+01  0.22367409540E+01  0.00000000000E+00 0. -1.
         22   -1    0    0    0    0 -0.00000000000E+00 -0.00000000000E+00 -0.14967384573E+02  0.14967384573E+02  0.00000000000E+00 0.  1.
          4    1    1    2  501    0 -0.30928596876E+01  0.45167481373E+00  0.62300865739E+00  0.34308644642E+01  0.12700000000E+01 0. -1.
         -4    1    1    2    0  501  0.30928596876E+01 -0.45167481373E+00 -0.13353652277E+02  0.13773261063E+02  0.12700000000E+01 0.  1.
<mgrwt>
<rscale>  0 0.33738244E+01</rscale>
<asrwt>0</asrwt>
<pdfrwt beam="1">0</pdfrwt>
<pdfrwt beam="2">0</pdfrwt>
<totfact> 0.38411715E+11</totfact>
</mgrwt>
</event>
<event>
 4    1  0.1699693E+006  0.2129803E+01  0.7546771E-02  0.2898299E+00
         22   -1    0    0    0    0  0.00000000000E+00  0.00000000000E+00  0.14231100814E+02  0.14231100814E+02  0.00000000000E+00 0. -1.
         22   -1    0    0    0    0 -0.00000000000E+00 -0.00000000000E+00 -0.36044651564E+00  0.36044651564E+00  0.00000000000E+00 0.  1.
          4    1    1    2  501    0 -0.15528759533E+01 -0.71535879797E+00  0.44536919506E+01  0.49367432511E+01  0.12700000000E+01 0.  1.
         -4    1    1    2    0  501  0.15528759533E+01  0.71535879797E+00  0.94169623474E+01  0.96548040782E+01  0.12700000000E+01 0. -1.
<mgrwt>
<rscale>  0 0.21298033E+01</rscale>
<asrwt>0</asrwt>
<pdfrwt beam="1">0</pdfrwt>
<pdfrwt beam="2">0</pdfrwt>
<totfact> 0.32778034E+12</totfact>
</mgrwt>
</event>
<event>
 4    1  0.1699693E+006  0.2267231E+01  0.7546771E-02  0.2820988E+00
         22   -1    0    0    0    0  0.00000000000E+00  0.00000000000E+00  0.34390958744E+01  0.34390958744E+01  0.00000000000E+00 0. -1.
         22   -1    0    0    0    0 -0.00000000000E+00 -0.00000000000E+00 -0.20057118138E+01  0.20057118138E+01  0.00000000000E+00 0.  1.
          4    1    1    2  501    0 -0.18295633932E+01 -0.42442219892E+00  0.20908721506E+01  0.30841664616E+01  0.12700000000E+01 0. -1.
         -4    1    1    2    0  501  0.18295633932E+01  0.42442219892E+00 -0.65748808999E+00  0.23606412267E+01  0.12700000000E+01 0.  1.
<mgrwt>
<rscale>  0 0.22672310E+01</rscale>
<asrwt>0</asrwt>
<pdfrwt beam="1">0</pdfrwt>
<pdfrwt beam="2">0</pdfrwt>
<totfact> 0.25397416E+12</totfact>
</mgrwt>
</event>
<event>
 4    1  0.1699693E+006  0.2921173E+01  0.7546771E-02  0.2547692E+00
         22   -1    0    0    0    0  0.00000000000E+00  0.00000000000E+00  0.53626119572E+00  0.53626119572E+00  0.00000000000E+00 0.  1.
         22   -1    0    0    0    0 -0.00000000000E+00 -0.00000000000E+00 -0.34198292036E+02  0.34198292036E+02  0.00000000000E+00 0. -1.
          4    1    1    2  501    0  0.25909828091E+01  0.45514764620E+00 -0.41315186602E+01  0.50599108428E+01  0.12700000000E+01 0. -1.
         -4    1    1    2    0  501 -0.25909828091E+01 -0.45514764620E+00 -0.29530512180E+02  0.29674642389E+02  0.12700000000E+01 0. -1.
<mgrwt>
<rscale>  0 0.29211729E+01</rscale>
<asrwt>0</asrwt>
<pdfrwt beam="1">0</pdfrwt>
<pdfrwt beam="2">0</pdfrwt>
<totfact> 0.69760599E+11</totfact>
</mgrwt>
</event>
<event>
 4    1  0.1699693E+006  0.2169196E+01  0.7546771E-02  0.2875177E+00
         22   -1    0    0    0    0  0.00000000000E+00  0.00000000000E+00  0.19617160663E+01  0.19617160663E+01  0.00000000000E+00 0.  1.
         22   -1    0    0    0    0 -0.00000000000E+00 -0.00000000000E+00 -0.63691176334E+01  0.63691176334E+01  0.00000000000E+00 0. -1.
          4    1    1    2  501    0  0.10322073465E+01 -0.14237477998E+01  0.10851286419E+01  0.24254719073E+01  0.12700000000E+01 0.  1.
         -4    1    1    2    0  501 -0.10322073465E+01  0.14237477998E+01 -0.54925302089E+01  0.59053617924E+01  0.12700000000E+01 0. -1.
<mgrwt>
<rscale>  0 0.21691957E+01</rscale>
<asrwt>0</asrwt>
<pdfrwt beam="1">0</pdfrwt>
<pdfrwt beam="2">0</pdfrwt>
<totfact> 0.12577317E+12</totfact>
</mgrwt>
</event>
<event>
 4    1  0.1699693E+006  0.3273860E+01  0.7546771E-02  0.2442134E+00
         22   -1    0    0    0    0  0.00000000000E+00  0.00000000000E+00  0.13688804504E+02  0.13688804504E+02  0.00000000000E+00 0. -1.
         22   -1    0    0    0    0 -0.00000000000E+00 -0.00000000000E+00 -0.78355383649E+00  0.78355383649E+00  0.00000000000E+00 0.  1.
          4    1    1    2  501    0  0.28963804723E+01  0.84630852022E+00  0.66472278159E+01  0.74097095481E+01  0.12700000000E+01 0. -1.
         -4    1    1    2    0  501 -0.28963804723E+01 -0.84630852022E+00  0.62580228516E+01  0.70626487923E+01  0.12700000000E+01 0.  1.
<mgrwt>
<rscale>  0 0.32738598E+01</rscale>
<asrwt>0</asrwt>
<pdfrwt beam="1">0</pdfrwt>
<pdfrwt beam="2">0</pdfrwt>
<totfact> 0.14293039E+12</totfact>
</mgrwt>
</event>
<event>
 4    1  0.1699693E+006  0.2823224E+01  0.7546771E-02  0.2581178E+00
         22   -1    0    0    0    0  0.00000000000E+00  0.00000000000E+00  0.86581858779E+00  0.86581858779E+00  0.00000000000E+00 0. -1.
         22   -1    0    0    0    0 -0.00000000000E+00 -0.00000000000E+00 -0.28754520521E+02  0.28754520521E+02  0.00000000000E+00 0.  1.
          4    1    1    2  501    0  0.23802409314E+01  0.83195477236E+00 -0.17329473985E+01  0.33126578937E+01  0.12700000000E+01 0. -1.
         -4    1    1    2    0  501 -0.23802409314E+01 -0.83195477236E+00 -0.26155754535E+02  0.26307681215E+02  0.12700000000E+01 0.  1.
<mgrwt>
<rscale>  0 0.28232243E+01</rscale>
<asrwt>0</asrwt>
<pdfrwt beam="1">0</pdfrwt>
<pdfrwt beam="2">0</pdfrwt>
<totfact> 0.50554227E+11</totfact>
</mgrwt>
</event>
<event>
 4    1  0.1699693E+006  0.2025263E+01  0.7546771E-02  0.2963879E+00
         22   -1    0    0    0    0  0.00000000000E+00  0.00000000000E+00  0.37345219870E+01  0.37345219870E+01  0.00000000000E+00 0. -1.
         22   -1    0    0    0    0 -0.00000000000E+00 -0.00000000000E+00 -0.13604102388E+01  0.13604102388E+01  0.00000000000E+00 0.  1.
          4    1    1    2  501    0 -0.15774011684E+01 -0.24379423375E-01  0.23052093522E+01  0.30684978344E+01  0.12700000000E+01 0. -1.
         -4    1    1    2    0  501  0.15774011684E+01  0.24379423375E-01  0.68902395958E-01  0.20264343914E+01  0.12700000000E+01 0.  1.
<mgrwt>
<rscale>  0 0.20252627E+01</rscale>
<asrwt>0</asrwt>
<pdfrwt beam="1">0</pdfrwt>
<pdfrwt beam="2">0</pdfrwt>
<totfact> 0.36069878E+12</totfact>
</mgrwt>
</event>
<event>
 4    1  0.1699693E+006  0.2757271E+01  0.7546771E-02  0.2604937E+00
         22   -1    0    0    0    0  0.00000000000E+00  0.00000000000E+00  0.60389710587E+00  0.60389710587E+00  0.00000000000E+00 0.  1.
         22   -1    0    0    0    0 -0.00000000000E+00 -0.00000000000E+00 -0.19405113516E+02  0.19405113516E+02  0.00000000000E+00 0.  1.
          4    1    1    2  501    0  0.16674823180E+01  0.17914094191E+01 -0.34713346956E+01  0.44331376650E+01  0.12700000000E+01 0.  1.
         -4    1    1    2    0  501 -0.16674823180E+01 -0.17914094191E+01 -0.15329881715E+02  0.15575872957E+02  0.12700000000E+01 0.  1.
<mgrwt>
<rscale>  0 0.27572713E+01</rscale>
<asrwt>0</asrwt>
<pdfrwt beam="1">0</pdfrwt>
<pdfrwt beam="2">0</pdfrwt>
<totfact> 0.12481668E+12</totfact>
</mgrwt>
</event>
<event>
 4    1  0.1699693E+006  0.3635968E+01  0.7546771E-02  0.2352795E+00
         22   -1    0    0    0    0  0.00000000000E+00  0.00000000000E+00  0.11028057844E+01  0.11028057844E+01  0.00000000000E+00 0.  1.
         22   -1    0    0    0    0 -0.00000000000E+00 -0.00000000000E+00 -0.17187381663E+02  0.17187381663E+02  0.00000000000E+00 0. -1.
          4    1    1    2  501    0 -0.10983234581E+01  0.32250662000E+01 -0.30123160048E+01  0.47216855174E+01  0.12700000000E+01 0.  1.
         -4    1    1    2    0  501  0.10983234581E+01 -0.32250662000E+01 -0.13072259874E+02  0.13568501930E+02  0.12700000000E+01 0. -1.
<mgrwt>
<rscale>  0 0.36359684E+01</rscale>
<asrwt>0</asrwt>
<pdfrwt beam="1">0</pdfrwt>
<pdfrwt beam="2">0</pdfrwt>
<totfact> 0.73126604E+11</totfact>
</mgrwt>
</event>
<event>
 4    1  0.1699693E+006  0.9899707E+01  0.7546771E-02  0.1782924E+00
         22   -1    0    0    0    0  0.00000000000E+00  0.00000000000E+00  0.50965195148E+02  0.50965195148E+02  0.00000000000E+00 0.  1.
         22   -1    0    0    0    0 -0.00000000000E+00 -0.00000000000E+00 -0.19232821063E+01  0.19232821063E+01  0.00000000000E+00 0. -1.
          4    1    1    2  501    0  0.45454327056E+01  0.87023186285E+01  0.24180576480E+02  0.26128614332E+02  0.12700000000E+01 0. -1.
         -4    1    1    2    0  501 -0.45454327056E+01 -0.87023186285E+01  0.24861336562E+02  0.26759862922E+02  0.12700000000E+01 0.  1.
<mgrwt>
<rscale>  0 0.98997075E+01</rscale>
<asrwt>0</asrwt>
<pdfrwt beam="1">0</pdfrwt>
<pdfrwt beam="2">0</pdfrwt>
<totfact> 0.96431989E+10</totfact>
</mgrwt>
</event>
<event>
 4    1  0.1699693E+006  0.2745218E+01  0.7546771E-02  0.2609391E+00
         22   -1    0    0    0    0  0.00000000000E+00  0.00000000000E+00  0.37435505898E+01  0.37435505898E+01  0.00000000000E+00 0.  1.
         22   -1    0    0    0    0 -0.00000000000E+00 -0.00000000000E+00 -0.57953744130E+01  0.57953744130E+01  0.00000000000E+00 0.  1.
          4    1    1    2  501    0  0.23675838923E+01  0.56380019438E+00  0.28271318529E+01  0.39406723614E+01  0.12700000000E+01 0.  1.
         -4    1    1    2    0  501 -0.23675838923E+01 -0.56380019438E+00 -0.48789556762E+01  0.55982526413E+01  0.12700000000E+01 0.  1.
<mgrwt>
<rscale>  0 0.27452184E+01</rscale>
<asrwt>0</asrwt>
<pdfrwt beam="1">0</pdfrwt>
<pdfrwt beam="2">0</pdfrwt>
<totfact> 0.66273014E+11</totfact>
</mgrwt>
</event>
<event>
 4    1  0.1699693E+006  0.2423354E+01  0.7546771E-02  0.2743317E+00
         22   -1    0    0    0    0  0.00000000000E+00  0.00000000000E+00  0.15128037537E+02  0.15128037537E+02  0.00000000000E+00 0. -1.
         22   -1    0    0    0    0 -0.00000000000E+00 -0.00000000000E+00 -0.55295274636E+00  0.55295274636E+00  0.00000000000E+00 0.  1.
          4    1    1    2  501    0 -0.15875535463E+01 -0.13188693215E+01  0.11567319790E+02  0.11818440239E+02  0.12700000000E+01 0. -1.
         -4    1    1    2    0  501  0.15875535463E+01  0.13188693215E+01  0.30077650009E+01  0.38625500450E+01  0.12700000000E+01 0.  1.
<mgrwt>
<rscale>  0 0.24233536E+01</rscale>
<asrwt>0</asrwt>
<pdfrwt beam="1">0</pdfrwt>
<pdfrwt beam="2">0</pdfrwt>
<totfact> 0.18769159E+12</totfact>
</mgrwt>
</event>
<event>
 4    1  0.1699693E+006  0.2305131E+01  0.7546771E-02  0.2801219E+00
         22   -1    0    0    0    0  0.00000000000E+00  0.00000000000E+00  0.38717968201E+00  0.38717968201E+00  0.00000000000E+00 0. -1.
         22   -1    0    0    0    0 -0.00000000000E+00 -0.00000000000E+00 -0.14364804651E+02  0.14364804651E+02  0.00000000000E+00 0. -1.
          4    1    1    2  501    0  0.64630454565E+00 -0.18119106792E+01 -0.54308589992E+01  0.58998185857E+01  0.12700000000E+01 0. -1.
         -4    1    1    2    0  501 -0.64630454565E+00  0.18119106792E+01 -0.85467659695E+01  0.88521657470E+01  0.12700000000E+01 0. -1.
<mgrwt>
<rscale>  0 0.23051312E+01</rscale>
<asrwt>0</asrwt>
<pdfrwt beam="1">0</pdfrwt>
<pdfrwt beam="2">0</pdfrwt>
<totfact> 0.29899859E+12</totfact>
</mgrwt>
</event>
<event>
 4    1  0.1699693E+006  0.2455736E+01  0.7546771E-02  0.2728372E+00
         22   -1    0    0    0    0  0.00000000000E+00  0.00000000000E+00  0.10963581888E+01  0.10963581888E+01  0.00000000000E+00 0.  1.
         22   -1    0    0    0    0 -0.00000000000E+00 -0.00000000000E+00 -0.64959215508E+01  0.64959215508E+01  0.00000000000E+00 0.  1.
          4    1    1    2  501    0 -0.19915457165E+01  0.67192691808E+00 -0.12138423368E+01  0.27393527233E+01  0.12700000000E+01 0.  1.
         -4    1    1    2    0  501  0.19915457165E+01 -0.67192691808E+00 -0.41857210253E+01  0.48529270163E+01  0.12700000000E+01 0.  1.
<mgrwt>
<rscale>  0 0.24557362E+01</rscale>
<asrwt>0</asrwt>
<pdfrwt beam="1">0</pdfrwt>
<pdfrwt beam="2">0</pdfrwt>
<totfact> 0.23990219E+12</totfact>
</mgrwt>
</event>
<event>
 4    1  0.1699693E+006  0.2048679E+01  0.7546771E-02  0.2948623E+00
         22   -1    0    0    0    0  0.00000000000E+00  0.00000000000E+00  0.12599297639E+02  0.12599297639E+02  0.00000000000E+00 0.  1.
         22   -1    0    0    0    0 -0.00000000000E+00 -0.00000000000E+00 -0.41945351865E+00  0.41945351865E+00  0.00000000000E+00 0. -1.
          4    1    1    2  501    0  0.34987957859E+00  0.15690031029E+01  0.90430716597E+01  0.92722290469E+01  0.12700000000E+01 0.  1.
         -4    1    1    2    0  501 -0.34987957859E+00 -0.15690031029E+01  0.31367724608E+01  0.37465221108E+01  0.12700000000E+01 0. -1.
<mgrwt>
<rscale>  0 0.20486792E+01</rscale>
<asrwt>0</asrwt>
<pdfrwt beam="1">0</pdfrwt>
<pdfrwt beam="2">0</pdfrwt>
<totfact> 0.32082389E+12</totfact>
</mgrwt>
</event>
<event>
 4    1  0.1699693E+006  0.2095925E+01  0.7546771E-02  0.2918855E+00
         22   -1    0    0    0    0  0.00000000000E+00  0.00000000000E+00  0.41675321565E+01  0.41675321565E+01  0.00000000000E+00 0.  1.
         22   -1    0    0    0    0 -0.00000000000E+00 -0.00000000000E+00 -0.17451895920E+01  0.17451895920E+01  0.00000000000E+00 0. -1.
          4    1    1    2  501    0  0.15536651576E+01  0.60508249741E+00  0.30715891731E+01  0.37185427655E+01  0.12700000000E+01 0.  1.
         -4    1    1    2    0  501 -0.15536651576E+01 -0.60508249741E+00 -0.64924660862E+00  0.21941789830E+01  0.12700000000E+01 0. -1.
<mgrwt>
<rscale>  0 0.20959247E+01</rscale>
<asrwt>0</asrwt>
<pdfrwt beam="1">0</pdfrwt>
<pdfrwt beam="2">0</pdfrwt>
<totfact> 0.23799854E+12</totfact>
</mgrwt>
</event>
<event>
 4    1  0.1699693E+006  0.3077369E+01  0.7546771E-02  0.2498282E+00
         22   -1    0    0    0    0  0.00000000000E+00  0.00000000000E+00  0.13511096012E+01  0.13511096012E+01  0.00000000000E+00 0.  1.
         22   -1    0    0    0    0 -0.00000000000E+00 -0.00000000000E+00 -0.79509312420E+01  0.79509312420E+01  0.00000000000E+00 0. -1.
          4    1    1    2  501    0  0.27341637066E+01  0.61777835044E+00 -0.49005818323E+01  0.57867005764E+01  0.12700000000E+01 0.  1.
         -4    1    1    2    0  501 -0.27341637066E+01 -0.61777835044E+00 -0.16992398084E+01  0.35153402668E+01  0.12700000000E+01 0. -1.
<mgrwt>
<rscale>  0 0.30773692E+01</rscale>
<asrwt>0</asrwt>
<pdfrwt beam="1">0</pdfrwt>
<pdfrwt beam="2">0</pdfrwt>
<totfact> 0.14824158E+12</totfact>
</mgrwt>
</event>
<event>
 4    1  0.1699693E+006  0.2508147E+01  0.7546771E-02  0.2704949E+00
         22   -1    0    0    0    0  0.00000000000E+00  0.00000000000E+00  0.22429242078E+02  0.22429242078E+02  0.00000000000E+00 0.  1.
         22   -1    0    0    0    0 -0.00000000000E+00 -0.00000000000E+00 -0.10323535777E+01  0.10323535777E+01  0.00000000000E+00 0. -1.
          4    1    1    2  501    0  0.21620517084E+01  0.58583293740E-01  0.20709680586E+02  0.20861008355E+02  0.12700000000E+01 0.  1.
         -4    1    1    2    0  501 -0.21620517084E+01 -0.58583293740E-01  0.68720791375E+00  0.26005873007E+01  0.12700000000E+01 0. -1.
<mgrwt>
<rscale>  0 0.25081466E+01</rscale>
<asrwt>0</asrwt>
<pdfrwt beam="1">0</pdfrwt>
<pdfrwt beam="2">0</pdfrwt>
<totfact> 0.56598282E+11</totfact>
</mgrwt>
</event>
<event>
 4    1  0.1699693E+006  0.2463736E+01  0.7546771E-02  0.2724737E+00
         22   -1    0    0    0    0  0.00000000000E+00  0.00000000000E+00  0.10754033728E+01  0.10754033728E+01  0.00000000000E+00 0. -1.
         22   -1    0    0    0    0 -0.00000000000E+00 -0.00000000000E+00 -0.73349379982E+01  0.73349379982E+01  0.00000000000E+00 0.  1.
          4    1    1    2  501    0 -0.10054696107E+01 -0.18563741307E+01 -0.11109389591E+01  0.27026245433E+01  0.12700000000E+01 0. -1.
         -4    1    1    2    0  501  0.10054696107E+01  0.18563741307E+01 -0.51485956663E+01  0.57077168278E+01  0.12700000000E+01 0.  1.
<mgrwt>
<rscale>  0 0.24637358E+01</rscale>
<asrwt>0</asrwt>
<pdfrwt beam="1">0</pdfrwt>
<pdfrwt beam="2">0</pdfrwt>
<totfact> 0.21210153E+12</totfact>
</mgrwt>
</event>
<event>
 4    1  0.1699693E+006  0.2010023E+01  0.7546771E-02  0.2973994E+00
         22   -1    0    0    0    0  0.00000000000E+00  0.00000000000E+00  0.43529739867E+02  0.43529739867E+02  0.00000000000E+00 0. -1.
         22   -1    0    0    0    0 -0.00000000000E+00 -0.00000000000E+00 -0.12007676518E+00  0.12007676518E+00  0.00000000000E+00 0.  1.
          4    1    1    2  501    0  0.34731471411E+00  0.15187705487E+01  0.32104124795E+02  0.32166986497E+02  0.12700000000E+01 0. -1.
         -4    1    1    2    0  501 -0.34731471411E+00 -0.15187705487E+01  0.11305538307E+02  0.11482830135E+02  0.12700000000E+01 0.  1.
<mgrwt>
<rscale>  0 0.20100228E+01</rscale>
<asrwt>0</asrwt>
<pdfrwt beam="1">0</pdfrwt>
<pdfrwt beam="2">0</pdfrwt>
<totfact> 0.27241274E+12</totfact>
</mgrwt>
</event>
<event>
 4    1  0.1699693E+006  0.4191502E+01  0.7546771E-02  0.2242118E+00
         22   -1    0    0    0    0  0.00000000000E+00  0.00000000000E+00  0.80050296620E+01  0.80050296620E+01  0.00000000000E+00 0.  1.
         22   -1    0    0    0    0 -0.00000000000E+00 -0.00000000000E+00 -0.21953902250E+01  0.21953902250E+01  0.00000000000E+00 0. -1.
          4    1    1    2  501    0  0.18722608916E+01  0.35285164270E+01  0.29948392643E+01  0.51514804901E+01  0.12700000000E+01 0.  1.
         -4    1    1    2    0  501 -0.18722608916E+01 -0.35285164270E+01  0.28148001727E+01  0.50489393969E+01  0.12700000000E+01 0. -1.
<mgrwt>
<rscale>  0 0.41915020E+01</rscale>
<asrwt>0</asrwt>
<pdfrwt beam="1">0</pdfrwt>
<pdfrwt beam="2">0</pdfrwt>
<totfact> 0.83978523E+11</totfact>
</mgrwt>
</event>
<event>
 4    1  0.1699693E+006  0.5471615E+01  0.7546771E-02  0.2070589E+00
         22   -1    0    0    0    0  0.00000000000E+00  0.00000000000E+00  0.14394904073E+01  0.14394904073E+01  0.00000000000E+00 0. -1.
         22   -1    0    0    0    0 -0.00000000000E+00 -0.00000000000E+00 -0.54513259078E+02  0.54513259078E+02  0.00000000000E+00 0. -1.
          4    1    1    2  501    0  0.49348372089E+01  0.19932514807E+01 -0.45353282503E+01  0.71068820225E+01  0.12700000000E+01 0. -1.
         -4    1    1    2    0  501 -0.49348372089E+01 -0.19932514807E+01 -0.48538440420E+02  0.48845867462E+02  0.12700000000E+01 0. -1.
<mgrwt>
<rscale>  0 0.54716149E+01</rscale>
<asrwt>0</asrwt>
<pdfrwt beam="1">0</pdfrwt>
<pdfrwt beam="2">0</pdfrwt>
<totfact> 0.12319847E+11</totfact>
</mgrwt>
</event>
<event>
 4    1  0.1699693E+006  0.3698229E+01  0.7546771E-02  0.2338978E+00
         22   -1    0    0    0    0  0.00000000000E+00  0.00000000000E+00  0.70593874069E+01  0.70593874069E+01  0.00000000000E+00 0.  1.
         22   -1    0    0    0    0 -0.00000000000E+00 -0.00000000000E+00 -0.20575713658E+02  0.20575713658E+02  0.00000000000E+00 0. -1.
          4    1    1    2  501    0 -0.34228194173E+01  0.59017393346E+00  0.63927784504E+01  0.73854258070E+01  0.12700000000E+01 0.  1.
         -4    1    1    2    0  501  0.34228194173E+01 -0.59017393346E+00 -0.19909104701E+02  0.20249675258E+02  0.12700000000E+01 0. -1.
<mgrwt>
<rscale>  0 0.36982290E+01</rscale>
<asrwt>0</asrwt>
<pdfrwt beam="1">0</pdfrwt>
<pdfrwt beam="2">0</pdfrwt>
<totfact> 0.66926563E+10</totfact>
</mgrwt>
</event>
<event>
 4    1  0.1699693E+006  0.3171181E+01  0.7546771E-02  0.2470705E+00
         22   -1    0    0    0    0  0.00000000000E+00  0.00000000000E+00  0.80642666042E+01  0.80642666042E+01  0.00000000000E+00 0.  1.
         22   -1    0    0    0    0 -0.00000000000E+00 -0.00000000000E+00 -0.38400608636E+01  0.38400608636E+01  0.00000000000E+00 0.  1.
          4    1    1    2  501    0  0.26026098054E+01 -0.12922491905E+01  0.70032375707E+01  0.76877644502E+01  0.12700000000E+01 0.  1.
         -4    1    1    2    0  501 -0.26026098054E+01  0.12922491905E+01 -0.27790318301E+01  0.42165630177E+01  0.12700000000E+01 0.  1.
<mgrwt>
<rscale>  0 0.31711805E+01</rscale>
<asrwt>0</asrwt>
<pdfrwt beam="1">0</pdfrwt>
<pdfrwt beam="2">0</pdfrwt>
<totfact> 0.43335627E+11</totfact>
</mgrwt>
</event>
<event>
 4    1  0.1699693E+006  0.2095184E+01  0.7546771E-02  0.2919311E+00
         22   -1    0    0    0    0  0.00000000000E+00  0.00000000000E+00  0.11723481107E+01  0.11723481107E+01  0.00000000000E+00 0. -1.
         22   -1    0    0    0    0 -0.00000000000E+00 -0.00000000000E+00 -0.40894773563E+01  0.40894773563E+01  0.00000000000E+00 0. -1.
          4    1    1    2  501    0  0.74784756585E+00  0.14891679572E+01 -0.69437662047E+00  0.22072507963E+01  0.12700000000E+01 0. -1.
         -4    1    1    2    0  501 -0.74784756585E+00 -0.14891679572E+01 -0.22227526252E+01  0.30545746708E+01  0.12700000000E+01 0. -1.
<mgrwt>
<rscale>  0 0.20951843E+01</rscale>
<asrwt>0</asrwt>
<pdfrwt beam="1">0</pdfrwt>
<pdfrwt beam="2">0</pdfrwt>
<totfact> 0.38448629E+12</totfact>
</mgrwt>
</event>
<event>
 4    1  0.1699693E+006  0.6079031E+01  0.7546771E-02  0.2012672E+00
         22   -1    0    0    0    0  0.00000000000E+00  0.00000000000E+00  0.17590860921E+02  0.17590860921E+02  0.00000000000E+00 0. -1.
         22   -1    0    0    0    0 -0.00000000000E+00 -0.00000000000E+00 -0.56343128812E+01  0.56343128812E+01  0.00000000000E+00 0.  1.
          4    1    1    2  501    0 -0.33923031535E+01 -0.48820078040E+01  0.15174565833E+02  0.16346928430E+02  0.12700000000E+01 0. -1.
         -4    1    1    2    0  501  0.33923031535E+01  0.48820078040E+01 -0.32180177929E+01  0.68782453721E+01  0.12700000000E+01 0.  1.
<mgrwt>
<rscale>  0 0.60790312E+01</rscale>
<asrwt>0</asrwt>
<pdfrwt beam="1">0</pdfrwt>
<pdfrwt beam="2">0</pdfrwt>
<totfact> 0.10642093E+11</totfact>
</mgrwt>
</event>
<event>
 4    1  0.1699693E+006  0.2745567E+01  0.7546771E-02  0.2609262E+00
         22   -1    0    0    0    0  0.00000000000E+00  0.00000000000E+00  0.18482782414E+01  0.18482782414E+01  0.00000000000E+00 0. -1.
         22   -1    0    0    0    0 -0.00000000000E+00 -0.00000000000E+00 -0.56096714454E+01  0.56096714454E+01  0.00000000000E+00 0.  1.
          4    1    1    2  501    0  0.16772654646E+01  0.17640922041E+01  0.67520778569E-01  0.27463976039E+01  0.12700000000E+01 0. -1.
         -4    1    1    2    0  501 -0.16772654646E+01 -0.17640922041E+01 -0.38289139826E+01  0.47115520829E+01  0.12700000000E+01 0.  1.
<mgrwt>
<rscale>  0 0.27455675E+01</rscale>
<asrwt>0</asrwt>
<pdfrwt beam="1">0</pdfrwt>
<pdfrwt beam="2">0</pdfrwt>
<totfact> 0.15673236E+12</totfact>
</mgrwt>
</event>
<event>
 4    1  0.1699693E+006  0.2514024E+01  0.7546771E-02  0.2702379E+00
         22   -1    0    0    0    0  0.00000000000E+00  0.00000000000E+00  0.33846966867E+02  0.33846966867E+02  0.00000000000E+00 0.  1.
         22   -1    0    0    0    0 -0.00000000000E+00 -0.00000000000E+00 -0.33813770885E+00  0.33813770885E+00  0.00000000000E+00 0.  1.
          4    1    1    2  501    0 -0.16885705231E+01  0.13624047115E+01  0.28191912278E+02  0.28303784815E+02  0.12700000000E+01 0.  1.
         -4    1    1    2    0  501  0.16885705231E+01 -0.13624047115E+01  0.53169168802E+01  0.58813197601E+01  0.12700000000E+01 0.  1.
<mgrwt>
<rscale>  0 0.25140241E+01</rscale>
<asrwt>0</asrwt>
<pdfrwt beam="1">0</pdfrwt>
<pdfrwt beam="2">0</pdfrwt>
<totfact> 0.11885252E+12</totfact>
</mgrwt>
</event>
<event>
 4    1  0.1699693E+006  0.7797238E+01  0.7546771E-02  0.1888212E+00
         22   -1    0    0    0    0  0.00000000000E+00  0.00000000000E+00  0.51105467060E+01  0.51105467060E+01  0.00000000000E+00 0. -1.
         22   -1    0    0    0    0 -0.00000000000E+00 -0.00000000000E+00 -0.16798338146E+02  0.16798338146E+02  0.00000000000E+00 0.  1.
          4    1    1    2  501    0  0.60899707592E+01  0.47006671760E+01 -0.11761456073E+02  0.14111299186E+02  0.12700000000E+01 0.  1.
         -4    1    1    2    0  501 -0.60899707592E+01 -0.47006671760E+01  0.73664633118E-01  0.77975856664E+01  0.12700000000E+01 0. -1.
<mgrwt>
<rscale>  0 0.77972377E+01</rscale>
<asrwt>0</asrwt>
<pdfrwt beam="1">0</pdfrwt>
<pdfrwt beam="2">0</pdfrwt>
<totfact> 0.12649918E+11</totfact>
</mgrwt>
</event>
<event>
 4    1  0.1699693E+006  0.3929182E+01  0.7546771E-02  0.2291039E+00
         22   -1    0    0    0    0  0.00000000000E+00  0.00000000000E+00  0.10125452987E+02  0.10125452987E+02  0.00000000000E+00 0. -1.
         22   -1    0    0    0    0 -0.00000000000E+00 -0.00000000000E+00 -0.15269621000E+01  0.15269621000E+01  0.00000000000E+00 0.  1.
          4    1    1    2  501    0  0.32472132231E+01 -0.18114011205E+01  0.45225631059E+01  0.59909969773E+01  0.12700000000E+01 0.  1.
         -4    1    1    2    0  501 -0.32472132231E+01  0.18114011205E+01  0.40759277815E+01  0.56614181100E+01  0.12700000000E+01 0. -1.
<mgrwt>
<rscale>  0 0.39291816E+01</rscale>
<asrwt>0</asrwt>
<pdfrwt beam="1">0</pdfrwt>
<pdfrwt beam="2">0</pdfrwt>
<totfact> 0.96212911E+11</totfact>
</mgrwt>
</event>
<event>
 4    1  0.1699693E+006  0.2323261E+01  0.7546771E-02  0.2791978E+00
         22   -1    0    0    0    0  0.00000000000E+00  0.00000000000E+00  0.15225251035E+00  0.15225251035E+00  0.00000000000E+00 0. -1.
         22   -1    0    0    0    0 -0.00000000000E+00 -0.00000000000E+00 -0.46309249612E+02  0.46309249612E+02  0.00000000000E+00 0. -1.
          4    1    1    2  501    0 -0.19429799102E+01 -0.97309274861E-01 -0.11829741839E+02  0.12055717814E+02  0.12700000000E+01 0. -1.
         -4    1    1    2    0  501  0.19429799102E+01  0.97309274861E-01 -0.34327255262E+02  0.34405784308E+02  0.12700000000E+01 0. -1.
<mgrwt>
<rscale>  0 0.23232606E+01</rscale>
<asrwt>0</asrwt>
<pdfrwt beam="1">0</pdfrwt>
<pdfrwt beam="2">0</pdfrwt>
<totfact> 0.19301435E+12</totfact>
</mgrwt>
</event>
<event>
 4    1  0.1699693E+006  0.3006451E+01  0.7546771E-02  0.2520145E+00
         22   -1    0    0    0    0  0.00000000000E+00  0.00000000000E+00  0.27728936643E+01  0.27728936643E+01  0.00000000000E+00 0. -1.
         22   -1    0    0    0    0 -0.00000000000E+00 -0.00000000000E+00 -0.79979846389E+01  0.79979846389E+01  0.00000000000E+00 0.  1.
          4    1    1    2  501    0 -0.20356241035E+01  0.18116513729E+01  0.15326243310E+01  0.33745641982E+01  0.12700000000E+01 0. -1.
         -4    1    1    2    0  501  0.20356241035E+01 -0.18116513729E+01 -0.67577153057E+01  0.73963141050E+01  0.12700000000E+01 0.  1.
<mgrwt>
<rscale>  0 0.30064508E+01</rscale>
<asrwt>0</asrwt>
<pdfrwt beam="1">0</pdfrwt>
<pdfrwt beam="2">0</pdfrwt>
<totfact> 0.64074583E+11</totfact>
</mgrwt>
</event>
<event>
 4    1  0.1699693E+006  0.2248529E+01  0.7546771E-02  0.2830978E+00
         22   -1    0    0    0    0  0.00000000000E+00  0.00000000000E+00  0.73062019339E+00  0.73062019339E+00  0.00000000000E+00 0.  1.
         22   -1    0    0    0    0 -0.00000000000E+00 -0.00000000000E+00 -0.70335629097E+01  0.70335629097E+01  0.00000000000E+00 0.  1.
          4    1    1    2  501    0  0.99279345607E+00  0.15675911130E+01 -0.26581554597E+01  0.34816190475E+01  0.12700000000E+01 0.  1.
         -4    1    1    2    0  501 -0.99279345607E+00 -0.15675911130E+01 -0.36447872566E+01  0.42825640555E+01  0.12700000000E+01 0.  1.
<mgrwt>
<rscale>  0 0.22485286E+01</rscale>
<asrwt>0</asrwt>
<pdfrwt beam="1">0</pdfrwt>
<pdfrwt beam="2">0</pdfrwt>
<totfact> 0.34646690E+12</totfact>
</mgrwt>
</event>
<event>
 4    1  0.1699693E+006  0.2061949E+01  0.7546771E-02  0.2940128E+00
         22   -1    0    0    0    0  0.00000000000E+00  0.00000000000E+00  0.95300736097E+01  0.95300736097E+01  0.00000000000E+00 0. -1.
         22   -1    0    0    0    0 -0.00000000000E+00 -0.00000000000E+00 -0.50180426684E+00  0.50180426684E+00  0.00000000000E+00 0.  1.
          4    1    1    2  501    0 -0.13409785743E+01  0.91679397074E+00  0.61849147336E+01  0.65195709202E+01  0.12700000000E+01 0. -1.
         -4    1    1    2    0  501  0.13409785743E+01 -0.91679397074E+00  0.28433546093E+01  0.35123069564E+01  0.12700000000E+01 0.  1.
<mgrwt>
<rscale>  0 0.20619493E+01</rscale>
<asrwt>0</asrwt>
<pdfrwt beam="1">0</pdfrwt>
<pdfrwt beam="2">0</pdfrwt>
<totfact> 0.36795952E+12</totfact>
</mgrwt>
</event>
<event>
 4    1  0.1699693E+006  0.3490894E+01  0.7546771E-02  0.2386642E+00
         22   -1    0    0    0    0  0.00000000000E+00  0.00000000000E+00  0.20434669982E+01  0.20434669982E+01  0.00000000000E+00 0. -1.
         22   -1    0    0    0    0 -0.00000000000E+00 -0.00000000000E+00 -0.60206632622E+01  0.60206632622E+01  0.00000000000E+00 0.  1.
          4    1    1    2  501    0 -0.15838437268E+01 -0.28398734240E+01 -0.23812687931E+01  0.42257287041E+01  0.12700000000E+01 0. -1.
         -4    1    1    2    0  501  0.15838437268E+01  0.28398734240E+01 -0.15959274708E+01  0.38384015563E+01  0.12700000000E+01 0.  1.
<mgrwt>
<rscale>  0 0.34908942E+01</rscale>
<asrwt>0</asrwt>
<pdfrwt beam="1">0</pdfrwt>
<pdfrwt beam="2">0</pdfrwt>
<totfact> 0.12829562E+12</totfact>
</mgrwt>
</event>
<event>
 4    1  0.1699693E+006  0.2133593E+01  0.7546771E-02  0.2896039E+00
         22   -1    0    0    0    0  0.00000000000E+00  0.00000000000E+00  0.62163990103E+01  0.62163990103E+01  0.00000000000E+00 0. -1.
         22   -1    0    0    0    0 -0.00000000000E+00 -0.00000000000E+00 -0.84647049421E+00  0.84647049421E+00  0.00000000000E+00 0.  1.
          4    1    1    2  501    0  0.40938374839E+00 -0.16648490332E+01  0.39819583968E+01  0.45175446905E+01  0.12700000000E+01 0. -1.
         -4    1    1    2    0  501 -0.40938374839E+00  0.16648490332E+01  0.13879701194E+01  0.25453248141E+01  0.12700000000E+01 0.  1.
<mgrwt>
<rscale>  0 0.21335926E+01</rscale>
<asrwt>0</asrwt>
<pdfrwt beam="1">0</pdfrwt>
<pdfrwt beam="2">0</pdfrwt>
<totfact> 0.33962336E+12</totfact>
</mgrwt>
</event>
<event>
 4    1  0.1699693E+006  0.2417665E+01  0.7546771E-02  0.2745981E+00
         22   -1    0    0    0    0  0.00000000000E+00  0.00000000000E+00  0.73633097086E+00  0.73633097086E+00  0.00000000000E+00 0. -1.
         22   -1    0    0    0    0 -0.00000000000E+00 -0.00000000000E+00 -0.97290308236E+01  0.97290308236E+01  0.00000000000E+00 0.  1.
          4    1    1    2  501    0 -0.11332805945E+01  0.17169385214E+01 -0.22513140646E+01  0.33035613828E+01  0.12700000000E+01 0. -1.
         -4    1    1    2    0  501  0.11332805945E+01 -0.17169385214E+01 -0.67413857881E+01  0.71618004117E+01  0.12700000000E+01 0.  1.
<mgrwt>
<rscale>  0 0.24176647E+01</rscale>
<asrwt>0</asrwt>
<pdfrwt beam="1">0</pdfrwt>
<pdfrwt beam="2">0</pdfrwt>
<totfact> 0.23246315E+12</totfact>
</mgrwt>
</event>
<event>
 4    1  0.1699693E+006  0.2436928E+01  0.7546771E-02  0.2737007E+00
         22   -1    0    0    0    0  0.00000000000E+00  0.00000000000E+00  0.34052313328E+01  0.34052313328E+01  0.00000000000E+00 0. -1.
         22   -1    0    0    0    0 -0.00000000000E+00 -0.00000000000E+00 -0.40120341531E+01  0.40120341531E+01  0.00000000000E+00 0.  1.
          4    1    1    2  501    0 -0.20283478674E+01 -0.45991575343E+00  0.24850256546E+01  0.34805129041E+01  0.12700000000E+01 0. -1.
         -4    1    1    2    0  501  0.20283478674E+01  0.45991575343E+00 -0.30918284750E+01  0.39367525818E+01  0.12700000000E+01 0.  1.
<mgrwt>
<rscale>  0 0.24369279E+01</rscale>
<asrwt>0</asrwt>
<pdfrwt beam="1">0</pdfrwt>
<pdfrwt beam="2">0</pdfrwt>
<totfact> 0.11442314E+12</totfact>
</mgrwt>
</event>
<event>
 4    1  0.1699693E+006  0.2033339E+01  0.7546771E-02  0.2958578E+00
         22   -1    0    0    0    0  0.00000000000E+00  0.00000000000E+00  0.22405271226E+01  0.22405271226E+01  0.00000000000E+00 0. -1.
         22   -1    0    0    0    0 -0.00000000000E+00 -0.00000000000E+00 -0.33784010051E+01  0.33784010051E+01  0.00000000000E+00 0.  1.
          4    1    1    2  501    0 -0.13537493490E+01  0.83001783868E+00  0.13236326704E+01  0.24262049292E+01  0.12700000000E+01 0. -1.
         -4    1    1    2    0  501  0.13537493490E+01 -0.83001783868E+00 -0.24615065529E+01  0.31927231985E+01  0.12700000000E+01 0.  1.
<mgrwt>
<rscale>  0 0.20333389E+01</rscale>
<asrwt>0</asrwt>
<pdfrwt beam="1">0</pdfrwt>
<pdfrwt beam="2">0</pdfrwt>
<totfact> 0.22808902E+12</totfact>
</mgrwt>
</event>
<event>
 4    1  0.1699693E+006  0.2173007E+01  0.7546771E-02  0.2872983E+00
         22   -1    0    0    0    0  0.00000000000E+00  0.00000000000E+00  0.39419003867E+01  0.39419003867E+01  0.00000000000E+00 0.  1.
         22   -1    0    0    0    0 -0.00000000000E+00 -0.00000000000E+00 -0.12185954440E+01  0.12185954440E+01  0.00000000000E+00 0. -1.
          4    1    1    2  501    0 -0.14353190900E+01 -0.10241675075E+01  0.10253096749E+01  0.24027525680E+01  0.12700000000E+01 0.  1.
         -4    1    1    2    0  501  0.14353190900E+01  0.10241675075E+01  0.16979952679E+01  0.27577432627E+01  0.12700000000E+01 0. -1.
<mgrwt>
<rscale>  0 0.21730071E+01</rscale>
<asrwt>0</asrwt>
<pdfrwt beam="1">0</pdfrwt>
<pdfrwt beam="2">0</pdfrwt>
<totfact> 0.38408218E+12</totfact>
</mgrwt>
</event>
<event>
 4    1  0.1699693E+006  0.2218248E+01  0.7546771E-02  0.2847491E+00
         22   -1    0    0    0    0  0.00000000000E+00  0.00000000000E+00  0.12501276302E+02  0.12501276302E+02  0.00000000000E+00 0.  1.
         22   -1    0    0    0    0 -0.00000000000E+00 -0.00000000000E+00 -0.47331195793E+00  0.47331195793E+00  0.00000000000E+00 0. -1.
          4    1    1    2  501    0  0.38872004715E+00  0.17766884095E+01  0.86760852386E+01  0.89551705761E+01  0.12700000000E+01 0.  1.
         -4    1    1    2    0  501 -0.38872004715E+00 -0.17766884095E+01  0.33518791055E+01  0.40194176839E+01  0.12700000000E+01 0. -1.
<mgrwt>
<rscale>  0 0.22182482E+01</rscale>
<asrwt>0</asrwt>
<pdfrwt beam="1">0</pdfrwt>
<pdfrwt beam="2">0</pdfrwt>
<totfact> 0.28267343E+12</totfact>
</mgrwt>
</event>
<event>
 4    1  0.1699693E+006  0.3094627E+01  0.7546771E-02  0.2493097E+00
         22   -1    0    0    0    0  0.00000000000E+00  0.00000000000E+00  0.22866948490E+01  0.22866948490E+01  0.00000000000E+00 0. -1.
         22   -1    0    0    0    0 -0.00000000000E+00 -0.00000000000E+00 -0.45645197314E+01  0.45645197314E+01  0.00000000000E+00 0. -1.
          4    1    1    2  501    0  0.25686766594E+01 -0.11686392461E+01 -0.21227512560E+01  0.37527044065E+01  0.12700000000E+01 0. -1.
         -4    1    1    2    0  501 -0.25686766594E+01  0.11686392461E+01 -0.15507362644E+00  0.30985101738E+01  0.12700000000E+01 0. -1.
<mgrwt>
<rscale>  0 0.30946272E+01</rscale>
<asrwt>0</asrwt>
<pdfrwt beam="1">0</pdfrwt>
<pdfrwt beam="2">0</pdfrwt>
<totfact> 0.15637175E+12</totfact>
</mgrwt>
</event>
<event>
 4    1  0.1699693E+006  0.2368393E+01  0.7546771E-02  0.2769557E+00
         22   -1    0    0    0    0  0.00000000000E+00  0.00000000000E+00  0.22094601810E+02  0.22094601810E+02  0.00000000000E+00 0. -1.
         22   -1    0    0    0    0 -0.00000000000E+00 -0.00000000000E+00 -0.18832399964E+01  0.18832399964E+01  0.00000000000E+00 0.  1.
          4    1    1    2  501    0  0.19508593233E+01  0.43650052622E+00  0.21257259364E+02  0.21388790534E+02  0.12700000000E+01 0. -1.
         -4    1    1    2    0  501 -0.19508593233E+01 -0.43650052622E+00 -0.10458975504E+01  0.25890512731E+01  0.12700000000E+01 0.  1.
<mgrwt>
<rscale>  0 0.23683929E+01</rscale>
<asrwt>0</asrwt>
<pdfrwt beam="1">0</pdfrwt>
<pdfrwt beam="2">0</pdfrwt>
<totfact> 0.28905443E+11</totfact>
</mgrwt>
</event>
<event>
 4    1  0.1699693E+006  0.2743341E+01  0.7546771E-02  0.2610088E+00
         22   -1    0    0    0    0  0.00000000000E+00  0.00000000000E+00  0.44365776641E+01  0.44365776641E+01  0.00000000000E+00 0. -1.
         22   -1    0    0    0    0 -0.00000000000E+00 -0.00000000000E+00 -0.17313652235E+01  0.17313652235E+01  0.00000000000E+00 0.  1.
          4    1    1    2  501    0  0.76564579441E+00  0.23079874236E+01  0.17912793253E+01  0.32763701029E+01  0.12700000000E+01 0. -1.
         -4    1    1    2    0  501 -0.76564579441E+00 -0.23079874236E+01  0.91393311538E+00  0.28915727847E+01  0.12700000000E+01 0. -1.
<mgrwt>
<rscale>  0 0.27433409E+01</rscale>
<asrwt>0</asrwt>
<pdfrwt beam="1">0</pdfrwt>
<pdfrwt beam="2">0</pdfrwt>
<totfact> 0.22313134E+12</totfact>
</mgrwt>
</event>
<event>
 4    1  0.1699693E+006  0.2465391E+01  0.7546771E-02  0.2723987E+00
         22   -1    0    0    0    0  0.00000000000E+00  0.00000000000E+00  0.19713282476E+00  0.19713282476E+00  0.00000000000E+00 0. -1.
         22   -1    0    0    0    0 -0.00000000000E+00 -0.00000000000E+00 -0.38797120835E+02  0.38797120835E+02  0.00000000000E+00 0. -1.
          4    1    1    2  501    0 -0.19705603523E+01  0.76298466070E+00 -0.10466232030E+02  0.10752681833E+02  0.12700000000E+01 0. -1.
         -4    1    1    2    0  501  0.19705603523E+01 -0.76298466070E+00 -0.28133755980E+02  0.28241571827E+02  0.12700000000E+01 0. -1.
<mgrwt>
<rscale>  0 0.24653912E+01</rscale>
<asrwt>0</asrwt>
<pdfrwt beam="1">0</pdfrwt>
<pdfrwt beam="2">0</pdfrwt>
<totfact> 0.18231293E+12</totfact>
</mgrwt>
</event>
<event>
 4    1  0.1699693E+006  0.2407919E+01  0.7546771E-02  0.2750572E+00
         22   -1    0    0    0    0  0.00000000000E+00  0.00000000000E+00  0.61686114990E+01  0.61686114990E+01  0.00000000000E+00 0.  1.
         22   -1    0    0    0    0 -0.00000000000E+00 -0.00000000000E+00 -0.31884887349E+01  0.31884887349E+01  0.00000000000E+00 0. -1.
          4    1    1    2  501    0 -0.78943907826E+00  0.18873160746E+01  0.54189594082E+01  0.59298564141E+01  0.12700000000E+01 0.  1.
         -4    1    1    2    0  501  0.78943907826E+00 -0.18873160746E+01 -0.24388366441E+01  0.34272438198E+01  0.12700000000E+01 0. -1.
<mgrwt>
<rscale>  0 0.24079194E+01</rscale>
<asrwt>0</asrwt>
<pdfrwt beam="1">0</pdfrwt>
<pdfrwt beam="2">0</pdfrwt>
<totfact> 0.74262685E+11</totfact>
</mgrwt>
</event>
<event>
 4    1  0.1699693E+006  0.2040479E+01  0.7546771E-02  0.2953926E+00
         22   -1    0    0    0    0  0.00000000000E+00  0.00000000000E+00  0.19985315779E+01  0.19985315779E+01  0.00000000000E+00 0. -1.
         22   -1    0    0    0    0 -0.00000000000E+00 -0.00000000000E+00 -0.21024333855E+01  0.21024333855E+01  0.00000000000E+00 0. -1.
          4    1    1    2  501    0  0.15517619825E+01  0.37774351935E+00  0.14362170932E+00  0.20455274655E+01  0.12700000000E+01 0. -1.
         -4    1    1    2    0  501 -0.15517619825E+01 -0.37774351935E+00 -0.24752351697E+00  0.20554374980E+01  0.12700000000E+01 0. -1.
<mgrwt>
<rscale>  0 0.20404792E+01</rscale>
<asrwt>0</asrwt>
<pdfrwt beam="1">0</pdfrwt>
<pdfrwt beam="2">0</pdfrwt>
<totfact> 0.45248897E+12</totfact>
</mgrwt>
</event>
<event>
 4    1  0.1699693E+006  0.2164317E+01  0.7546771E-02  0.2877997E+00
         22   -1    0    0    0    0  0.00000000000E+00  0.00000000000E+00  0.65635866489E+00  0.65635866489E+00  0.00000000000E+00 0. -1.
         22   -1    0    0    0    0 -0.00000000000E+00 -0.00000000000E+00 -0.21434260177E+02  0.21434260177E+02  0.00000000000E+00 0. -1.
          4    1    1    2  501    0 -0.17455990521E+01  0.15572563615E+00 -0.13679675979E+01  0.25603909610E+01  0.12700000000E+01 0. -1.
         -4    1    1    2    0  501  0.17455990521E+01 -0.15572563615E+00 -0.19409933914E+02  0.19530227880E+02  0.12700000000E+01 0. -1.
<mgrwt>
<rscale>  0 0.21643166E+01</rscale>
<asrwt>0</asrwt>
<pdfrwt beam="1">0</pdfrwt>
<pdfrwt beam="2">0</pdfrwt>
<totfact> 0.10030731E+12</totfact>
</mgrwt>
</event>
<event>
 4    1  0.1699693E+006  0.3732917E+01  0.7546771E-02  0.2331453E+00
         22   -1    0    0    0    0  0.00000000000E+00  0.00000000000E+00  0.75562731194E+00  0.75562731194E+00  0.00000000000E+00 0. -1.
         22   -1    0    0    0    0 -0.00000000000E+00 -0.00000000000E+00 -0.18910595809E+02  0.18910595809E+02  0.00000000000E+00 0.  1.
          4    1    1    2  501    0 -0.46750098939E+00  0.34789676243E+01 -0.10626689175E+02  0.11263267542E+02  0.12700000000E+01 0.  1.
         -4    1    1    2    0  501  0.46750098939E+00 -0.34789676243E+01 -0.75282793218E+01  0.84029555785E+01  0.12700000000E+01 0. -1.
<mgrwt>
<rscale>  0 0.37329175E+01</rscale>
<asrwt>0</asrwt>
<pdfrwt beam="1">0</pdfrwt>
<pdfrwt beam="2">0</pdfrwt>
<totfact> 0.99952612E+11</totfact>
</mgrwt>
</event>
<event>
 4    1  0.1699693E+006  0.2044429E+01  0.7546771E-02  0.2951366E+00
         22   -1    0    0    0    0  0.00000000000E+00  0.00000000000E+00  0.31502412773E+00  0.31502412773E+00  0.00000000000E+00 0. -1.
         22   -1    0    0    0    0 -0.00000000000E+00 -0.00000000000E+00 -0.14476190116E+02  0.14476190116E+02  0.00000000000E+00 0.  1.
          4    1    1    2  501    0  0.15890619607E+01  0.20413582395E+00 -0.49438842245E+01  0.53499234177E+01  0.12700000000E+01 0. -1.
         -4    1    1    2    0  501 -0.15890619607E+01 -0.20413582395E+00 -0.92172817638E+01  0.94412908261E+01  0.12700000000E+01 0.  1.
<mgrwt>
<rscale>  0 0.20444289E+01</rscale>
<asrwt>0</asrwt>
<pdfrwt beam="1">0</pdfrwt>
<pdfrwt beam="2">0</pdfrwt>
<totfact> 0.37338176E+12</totfact>
</mgrwt>
</event>
<event>
 4    1  0.1699693E+006  0.2404062E+01  0.7546771E-02  0.2752399E+00
         22   -1    0    0    0    0  0.00000000000E+00  0.00000000000E+00  0.48249554289E+01  0.48249554289E+01  0.00000000000E+00 0. -1.
         22   -1    0    0    0    0 -0.00000000000E+00 -0.00000000000E+00 -0.12178951331E+01  0.12178951331E+01  0.00000000000E+00 0.  1.
          4    1    1    2  501    0 -0.20284848584E+01  0.22773031738E+00  0.21912768981E+01  0.32528766289E+01  0.12700000000E+01 0.  1.
         -4    1    1    2    0  501  0.20284848584E+01 -0.22773031738E+00  0.14157833977E+01  0.27899739332E+01  0.12700000000E+01 0. -1.
<mgrwt>
<rscale>  0 0.24040615E+01</rscale>
<asrwt>0</asrwt>
<pdfrwt beam="1">0</pdfrwt>
<pdfrwt beam="2">0</pdfrwt>
<totfact> 0.30281627E+12</totfact>
</mgrwt>
</event>
<event>
 4    1  0.1699693E+006  0.2361261E+01  0.7546771E-02  0.2773046E+00
         22   -1    0    0    0    0  0.00000000000E+00  0.00000000000E+00  0.21063332711E+00  0.21063332711E+00  0.00000000000E+00 0. -1.
         22   -1    0    0    0    0 -0.00000000000E+00 -0.00000000000E+00 -0.44713469961E+02  0.44713469961E+02  0.00000000000E+00 0. -1.
          4    1    1    2  501    0  0.15719707770E+01  0.12212945124E+01 -0.79038278866E+01  0.82490028288E+01  0.12700000000E+01 0. -1.
         -4    1    1    2    0  501 -0.15719707770E+01 -0.12212945124E+01 -0.36599008748E+02  0.36675100460E+02  0.12700000000E+01 0. -1.
<mgrwt>
<rscale>  0 0.23612608E+01</rscale>
<asrwt>0</asrwt>
<pdfrwt beam="1">0</pdfrwt>
<pdfrwt beam="2">0</pdfrwt>
<totfact> 0.14076329E+12</totfact>
</mgrwt>
</event>
<event>
 4    1  0.1699693E+006  0.3040174E+01  0.7546771E-02  0.2509635E+00
         22   -1    0    0    0    0  0.00000000000E+00  0.00000000000E+00  0.27449026830E+02  0.27449026830E+02  0.00000000000E+00 0. -1.
         22   -1    0    0    0    0 -0.00000000000E+00 -0.00000000000E+00 -0.33926157372E+00  0.33926157372E+00  0.00000000000E+00 0.  1.
          4    1    1    2  501    0  0.20884349742E+01  0.18078154978E+01  0.14757284987E+02  0.15067186788E+02  0.12700000000E+01 0. -1.
         -4    1    1    2    0  501 -0.20884349742E+01 -0.18078154978E+01  0.12352480269E+02  0.12721101616E+02  0.12700000000E+01 0.  1.
<mgrwt>
<rscale>  0 0.30401739E+01</rscale>
<asrwt>0</asrwt>
<pdfrwt beam="1">0</pdfrwt>
<pdfrwt beam="2">0</pdfrwt>
<totfact> 0.15469568E+12</totfact>
</mgrwt>
</event>
<event>
 4    1  0.1699693E+006  0.2315714E+01  0.7546771E-02  0.2795808E+00
         22   -1    0    0    0    0  0.00000000000E+00  0.00000000000E+00  0.39646087623E+00  0.39646087623E+00  0.00000000000E+00 0.  1.
         22   -1    0    0    0    0 -0.00000000000E+00 -0.00000000000E+00 -0.19286058640E+02  0.19286058640E+02  0.00000000000E+00 0.  1.
          4    1    1    2  501    0 -0.17290730628E+01 -0.87174513377E+00 -0.40665353262E+01  0.46796626796E+01  0.12700000000E+01 0.  1.
         -4    1    1    2    0  501  0.17290730628E+01  0.87174513377E+00 -0.14823062438E+02  0.15002856837E+02  0.12700000000E+01 0.  1.
<mgrwt>
<rscale>  0 0.23157144E+01</rscale>
<asrwt>0</asrwt>
<pdfrwt beam="1">0</pdfrwt>
<pdfrwt beam="2">0</pdfrwt>
<totfact> 0.20225851E+12</totfact>
</mgrwt>
</event>
<event>
 4    1  0.1699693E+006  0.2541514E+01  0.7546771E-02  0.2690506E+00
         22   -1    0    0    0    0  0.00000000000E+00  0.00000000000E+00  0.25624054290E+01  0.25624054290E+01  0.00000000000E+00 0. -1.
         22   -1    0    0    0    0 -0.00000000000E+00 -0.00000000000E+00 -0.25368119434E+01  0.25368119434E+01  0.00000000000E+00 0.  1.
          4    1    1    2  501    0  0.13618213883E+01  0.17296923545E+01 -0.18980778713E+00  0.25485917937E+01  0.12700000000E+01 0. -1.
         -4    1    1    2    0  501 -0.13618213883E+01 -0.17296923545E+01  0.21540127272E+00  0.25506255788E+01  0.12700000000E+01 0.  1.
<mgrwt>
<rscale>  0 0.25415139E+01</rscale>
<asrwt>0</asrwt>
<pdfrwt beam="1">0</pdfrwt>
<pdfrwt beam="2">0</pdfrwt>
<totfact> 0.27268684E+12</totfact>
</mgrwt>
</event>
<event>
 4    1  0.1699693E+006  0.8447744E+01  0.7546771E-02  0.1851466E+00
         22   -1    0    0    0    0  0.00000000000E+00  0.00000000000E+00  0.20538483246E+02  0.20538483246E+02  0.00000000000E+00 0.  1.
         22   -1    0    0    0    0 -0.00000000000E+00 -0.00000000000E+00 -0.11379085015E+02  0.11379085015E+02  0.00000000000E+00 0. -1.
          4    1    1    2  501    0 -0.26956707514E+01  0.79047346539E+01  0.17880601449E+02  0.19775749769E+02  0.12700000000E+01 0.  1.
         -4    1    1    2    0  501  0.26956707514E+01 -0.79047346539E+01 -0.87212032177E+01  0.12141818493E+02  0.12700000000E+01 0. -1.
<mgrwt>
<rscale>  0 0.84477435E+01</rscale>
<asrwt>0</asrwt>
<pdfrwt beam="1">0</pdfrwt>
<pdfrwt beam="2">0</pdfrwt>
<totfact> 0.37710898E+10</totfact>
</mgrwt>
</event>
<event>
 4    1  0.1699693E+006  0.2024596E+01  0.7546771E-02  0.2964318E+00
         22   -1    0    0    0    0  0.00000000000E+00  0.00000000000E+00  0.30368121653E+00  0.30368121653E+00  0.00000000000E+00 0. -1.
         22   -1    0    0    0    0 -0.00000000000E+00 -0.00000000000E+00 -0.14476840918E+02  0.14476840918E+02  0.00000000000E+00 0. -1.
          4    1    1    2  501    0 -0.13817742717E+01  0.75946534238E+00 -0.90085778761E+01  0.92332801915E+01  0.12700000000E+01 0. -1.
         -4    1    1    2    0  501  0.13817742717E+01 -0.75946534238E+00 -0.51645818256E+01  0.55472419433E+01  0.12700000000E+01 0. -1.
<mgrwt>
<rscale>  0 0.20245957E+01</rscale>
<asrwt>0</asrwt>
<pdfrwt beam="1">0</pdfrwt>
<pdfrwt beam="2">0</pdfrwt>
<totfact> 0.38903602E+12</totfact>
</mgrwt>
</event>
<event>
 4    1  0.1699693E+006  0.2046733E+01  0.7546771E-02  0.2949878E+00
         22   -1    0    0    0    0  0.00000000000E+00  0.00000000000E+00  0.99388687758E-01  0.99388687758E-01  0.00000000000E+00 0. -1.
         22   -1    0    0    0    0 -0.00000000000E+00 -0.00000000000E+00 -0.47761606383E+02  0.47761606383E+02  0.00000000000E+00 0.  1.
          4    1    1    2  501    0 -0.14420393461E+00 -0.15985683478E+01 -0.15627561905E+02  0.15761021751E+02  0.12700000000E+01 0. -1.
         -4    1    1    2    0  501  0.14420393461E+00  0.15985683478E+01 -0.32034655790E+02  0.32099973319E+02  0.12700000000E+01 0.  1.
<mgrwt>
<rscale>  0 0.20467329E+01</rscale>
<asrwt>0</asrwt>
<pdfrwt beam="1">0</pdfrwt>
<pdfrwt beam="2">0</pdfrwt>
<totfact> 0.29747228E+12</totfact>
</mgrwt>
</event>
<event>
 4    1  0.1699693E+006  0.2827355E+01  0.7546771E-02  0.2579723E+00
         22   -1    0    0    0    0  0.00000000000E+00  0.00000000000E+00  0.71540281291E+00  0.71540281291E+00  0.00000000000E+00 0.  1.
         22   -1    0    0    0    0 -0.00000000000E+00 -0.00000000000E+00 -0.14541132637E+02  0.14541132637E+02  0.00000000000E+00 0. -1.
          4    1    1    2  501    0  0.35444268104E+00  0.25010808892E+01 -0.32421154843E+01  0.43017726627E+01  0.12700000000E+01 0.  1.
         -4    1    1    2    0  501 -0.35444268104E+00 -0.25010808892E+01 -0.10583614339E+02  0.10954762787E+02  0.12700000000E+01 0. -1.
<mgrwt>
<rscale>  0 0.28273548E+01</rscale>
<asrwt>0</asrwt>
<pdfrwt beam="1">0</pdfrwt>
<pdfrwt beam="2">0</pdfrwt>
<totfact> 0.14717348E+12</totfact>
</mgrwt>
</event>
<event>
 4    1  0.1699693E+006  0.4804256E+01  0.7546771E-02  0.2147120E+00
         22   -1    0    0    0    0  0.00000000000E+00  0.00000000000E+00  0.10583845763E+02  0.10583845763E+02  0.00000000000E+00 0.  1.
         22   -1    0    0    0    0 -0.00000000000E+00 -0.00000000000E+00 -0.33315029701E+01  0.33315029701E+01  0.00000000000E+00 0. -1.
          4    1    1    2  501    0  0.28052071607E+01 -0.36876529889E+01  0.77153150903E+01  0.90888370391E+01  0.12700000000E+01 0.  1.
         -4    1    1    2    0  501 -0.28052071607E+01  0.36876529889E+01 -0.46297229764E+00  0.48265116937E+01  0.12700000000E+01 0. -1.
<mgrwt>
<rscale>  0 0.48042556E+01</rscale>
<asrwt>0</asrwt>
<pdfrwt beam="1">0</pdfrwt>
<pdfrwt beam="2">0</pdfrwt>
<totfact> 0.36868969E+11</totfact>
</mgrwt>
</event>
<event>
 4    1  0.1699693E+006  0.2848070E+01  0.7546771E-02  0.2572487E+00
         22   -1    0    0    0    0  0.00000000000E+00  0.00000000000E+00  0.63674714491E+01  0.63674714491E+01  0.00000000000E+00 0. -1.
         22   -1    0    0    0    0 -0.00000000000E+00 -0.00000000000E+00 -0.33141872949E+01  0.33141872949E+01  0.00000000000E+00 0.  1.
          4    1    1    2  501    0  0.12750046339E+01  0.22074791793E+01  0.53248370984E+01  0.60386580685E+01  0.12700000000E+01 0. -1.
         -4    1    1    2    0  501 -0.12750046339E+01 -0.22074791793E+01 -0.22715529442E+01  0.36430006755E+01  0.12700000000E+01 0.  1.
<mgrwt>
<rscale>  0 0.28480697E+01</rscale>
<asrwt>0</asrwt>
<pdfrwt beam="1">0</pdfrwt>
<pdfrwt beam="2">0</pdfrwt>
<totfact> 0.68344324E+11</totfact>
</mgrwt>
</event>
<event>
 4    1  0.1699693E+006  0.2077794E+01  0.7546771E-02  0.2930122E+00
         22   -1    0    0    0    0  0.00000000000E+00  0.00000000000E+00  0.64266040006E+01  0.64266040006E+01  0.00000000000E+00 0.  1.
         22   -1    0    0    0    0 -0.00000000000E+00 -0.00000000000E+00 -0.81606388693E+00  0.81606388693E+00  0.00000000000E+00 0. -1.
          4    1    1    2  501    0  0.10366651385E+01  0.12765792300E+01  0.43280024417E+01  0.48009201488E+01  0.12700000000E+01 0.  1.
         -4    1    1    2    0  501 -0.10366651385E+01 -0.12765792300E+01  0.12825376720E+01  0.24417477388E+01  0.12700000000E+01 0. -1.
<mgrwt>
<rscale>  0 0.20777943E+01</rscale>
<asrwt>0</asrwt>
<pdfrwt beam="1">0</pdfrwt>
<pdfrwt beam="2">0</pdfrwt>
<totfact> 0.34029554E+12</totfact>
</mgrwt>
</event>
<event>
 4    1  0.1699693E+006  0.2012763E+01  0.7546771E-02  0.2972164E+00
         22   -1    0    0    0    0  0.00000000000E+00  0.00000000000E+00  0.22953102204E+02  0.22953102204E+02  0.00000000000E+00 0. -1.
         22   -1    0    0    0    0 -0.00000000000E+00 -0.00000000000E+00 -0.22222664498E+00  0.22222664498E+00  0.00000000000E+00 0.  1.
          4    1    1    2  501    0 -0.41429693230E-01 -0.15609609863E+01  0.16621783782E+02  0.16743204942E+02  0.12700000000E+01 0.  1.
         -4    1    1    2    0  501  0.41429693230E-01  0.15609609863E+01  0.61090917770E+01  0.64321239074E+01  0.12700000000E+01 0.  1.
<mgrwt>
<rscale>  0 0.20127632E+01</rscale>
<asrwt>0</asrwt>
<pdfrwt beam="1">0</pdfrwt>
<pdfrwt beam="2">0</pdfrwt>
<totfact> 0.31132935E+12</totfact>
</mgrwt>
</event>
<event>
 4    1  0.1699693E+006  0.2488357E+01  0.7546771E-02  0.2713685E+00
         22   -1    0    0    0    0  0.00000000000E+00  0.00000000000E+00  0.34722051621E+02  0.34722051621E+02  0.00000000000E+00 0.  1.
         22   -1    0    0    0    0 -0.00000000000E+00 -0.00000000000E+00 -0.18765445985E+00  0.18765445985E+00  0.00000000000E+00 0. -1.
          4    1    1    2  501    0 -0.16264623663E+01  0.13905544925E+01  0.21158456924E+02  0.21304277059E+02  0.12700000000E+01 0.  1.
         -4    1    1    2    0  501  0.16264623663E+01 -0.13905544925E+01  0.13375940238E+02  0.13605429022E+02  0.12700000000E+01 0. -1.
<mgrwt>
<rscale>  0 0.24883572E+01</rscale>
<asrwt>0</asrwt>
<pdfrwt beam="1">0</pdfrwt>
<pdfrwt beam="2">0</pdfrwt>
<totfact> 0.22226596E+12</totfact>
</mgrwt>
</event>
<event>
 4    1  0.1699693E+006  0.4302259E+01  0.7546771E-02  0.2222990E+00
         22   -1    0    0    0    0  0.00000000000E+00  0.00000000000E+00  0.12146631508E+02  0.12146631508E+02  0.00000000000E+00 0.  1.
         22   -1    0    0    0    0 -0.00000000000E+00 -0.00000000000E+00 -0.19022319375E+01  0.19022319375E+01  0.00000000000E+00 0. -1.
          4    1    1    2  501    0 -0.70122000413E+00  0.40502865875E+01  0.82551590324E+01  0.93089785468E+01  0.12700000000E+01 0.  1.
         -4    1    1    2    0  501  0.70122000413E+00 -0.40502865875E+01  0.19892405382E+01  0.47398848988E+01  0.12700000000E+01 0. -1.
<mgrwt>
<rscale>  0 0.43022588E+01</rscale>
<asrwt>0</asrwt>
<pdfrwt beam="1">0</pdfrwt>
<pdfrwt beam="2">0</pdfrwt>
<totfact> 0.59848762E+11</totfact>
</mgrwt>
</event>
<event>
 4    1  0.1699693E+006  0.2972149E+01  0.7546771E-02  0.2531055E+00
         22   -1    0    0    0    0  0.00000000000E+00  0.00000000000E+00  0.10047200224E+02  0.10047200224E+02  0.00000000000E+00 0. -1.
         22   -1    0    0    0    0 -0.00000000000E+00 -0.00000000000E+00 -0.92733530174E+00  0.92733530174E+00  0.00000000000E+00 0.  1.
          4    1    1    2  501    0 -0.24873796526E+01 -0.10167173609E+01  0.33099849260E+01  0.44485584112E+01  0.12700000000E+01 0.  1.
         -4    1    1    2    0  501  0.24873796526E+01  0.10167173609E+01  0.58098799968E+01  0.65259771150E+01  0.12700000000E+01 0. -1.
<mgrwt>
<rscale>  0 0.29721493E+01</rscale>
<asrwt>0</asrwt>
<pdfrwt beam="1">0</pdfrwt>
<pdfrwt beam="2">0</pdfrwt>
<totfact> 0.17196562E+12</totfact>
</mgrwt>
</event>
<event>
 4    1  0.1699693E+006  0.2047989E+01  0.7546771E-02  0.2949068E+00
         22   -1    0    0    0    0  0.00000000000E+00  0.00000000000E+00  0.12818320989E+00  0.12818320989E+00  0.00000000000E+00 0. -1.
         22   -1    0    0    0    0 -0.00000000000E+00 -0.00000000000E+00 -0.45398641170E+02  0.45398641170E+02  0.00000000000E+00 0.  1.
          4    1    1    2  501    0 -0.15788027045E+01  0.29789395704E+00 -0.10605983908E+02  0.10801905084E+02  0.12700000000E+01 0. -1.
         -4    1    1    2    0  501  0.15788027045E+01 -0.29789395704E+00 -0.34664474052E+02  0.34724919295E+02  0.12700000000E+01 0. -1.
<mgrwt>
<rscale>  0 0.20479890E+01</rscale>
<asrwt>0</asrwt>
<pdfrwt beam="1">0</pdfrwt>
<pdfrwt beam="2">0</pdfrwt>
<totfact> 0.23981929E+12</totfact>
</mgrwt>
</event>
<event>
 4    1  0.1699693E+006  0.2252711E+01  0.7546771E-02  0.2828729E+00
         22   -1    0    0    0    0  0.00000000000E+00  0.00000000000E+00  0.40328795858E+01  0.40328795858E+01  0.00000000000E+00 0. -1.
         22   -1    0    0    0    0 -0.00000000000E+00 -0.00000000000E+00 -0.10585691815E+02  0.10585691815E+02  0.00000000000E+00 0. -1.
          4    1    1    2  501    0 -0.13967693219E+01  0.12291639091E+01  0.35847079485E+01  0.42337736749E+01  0.12700000000E+01 0. -1.
         -4    1    1    2    0  501  0.13967693219E+01 -0.12291639091E+01 -0.10137520177E+02  0.10384797726E+02  0.12700000000E+01 0. -1.
<mgrwt>
<rscale>  0 0.22527114E+01</rscale>
<asrwt>0</asrwt>
<pdfrwt beam="1">0</pdfrwt>
<pdfrwt beam="2">0</pdfrwt>
<totfact> 0.29452448E+11</totfact>
</mgrwt>
</event>
<event>
 4    1  0.1699693E+006  0.2396565E+01  0.7546771E-02  0.2755965E+00
         22   -1    0    0    0    0  0.00000000000E+00  0.00000000000E+00  0.37494470190E+00  0.37494470190E+00  0.00000000000E+00 0. -1.
         22   -1    0    0    0    0 -0.00000000000E+00 -0.00000000000E+00 -0.28288942926E+02  0.28288942926E+02  0.00000000000E+00 0.  1.
          4    1    1    2  501    0  0.19475054368E+01 -0.58124538484E+00 -0.42524106537E+01  0.48812416445E+01  0.12700000000E+01 0. -1.
         -4    1    1    2    0  501 -0.19475054368E+01  0.58124538484E+00 -0.23661587570E+02  0.23782645983E+02  0.12700000000E+01 0.  1.
<mgrwt>
<rscale>  0 0.23965650E+01</rscale>
<asrwt>0</asrwt>
<pdfrwt beam="1">0</pdfrwt>
<pdfrwt beam="2">0</pdfrwt>
<totfact> 0.13305789E+12</totfact>
</mgrwt>
</event>
<event>
 4    1  0.1699693E+006  0.4483105E+01  0.7546771E-02  0.2193479E+00
         22   -1    0    0    0    0  0.00000000000E+00  0.00000000000E+00  0.70448720497E+01  0.70448720497E+01  0.00000000000E+00 0.  1.
         22   -1    0    0    0    0 -0.00000000000E+00 -0.00000000000E+00 -0.37235290744E+01  0.37235290744E+01  0.00000000000E+00 0.  1.
          4    1    1    2  501    0  0.40079841286E+01 -0.15560835205E+01  0.42642061732E+01  0.61872196490E+01  0.12700000000E+01 0.  1.
         -4    1    1    2    0  501 -0.40079841286E+01  0.15560835205E+01 -0.94286319790E+00  0.45811814751E+01  0.12700000000E+01 0.  1.
<mgrwt>
<rscale>  0 0.44831053E+01</rscale>
<asrwt>0</asrwt>
<pdfrwt beam="1">0</pdfrwt>
<pdfrwt beam="2">0</pdfrwt>
<totfact> 0.52838056E+11</totfact>
</mgrwt>
</event>
<event>
 4    1  0.1699693E+006  0.2239722E+01  0.7546771E-02  0.2835736E+00
         22   -1    0    0    0    0  0.00000000000E+00  0.00000000000E+00  0.75494252116E+01  0.75494252116E+01  0.00000000000E+00 0.  1.
         22   -1    0    0    0    0 -0.00000000000E+00 -0.00000000000E+00 -0.66488961490E+00  0.66488961490E+00  0.00000000000E+00 0. -1.
          4    1    1    2  501    0 -0.54509998927E+00 -0.17624757367E+01  0.33388958364E+01  0.40205198827E+01  0.12700000000E+01 0. -1.
         -4    1    1    2    0  501  0.54509998927E+00  0.17624757367E+01  0.35456397603E+01  0.41937949438E+01  0.12700000000E+01 0.  1.
<mgrwt>
<rscale>  0 0.22397220E+01</rscale>
<asrwt>0</asrwt>
<pdfrwt beam="1">0</pdfrwt>
<pdfrwt beam="2">0</pdfrwt>
<totfact> 0.35425523E+12</totfact>
</mgrwt>
</event>
<event>
 4    1  0.1699693E+006  0.2298174E+01  0.7546771E-02  0.2804801E+00
         22   -1    0    0    0    0  0.00000000000E+00  0.00000000000E+00  0.11967511603E+01  0.11967511603E+01  0.00000000000E+00 0. -1.
         22   -1    0    0    0    0 -0.00000000000E+00 -0.00000000000E+00 -0.61868052520E+01  0.61868052520E+01  0.00000000000E+00 0. -1.
          4    1    1    2  501    0  0.67150880192E-01  0.19142080993E+01 -0.51841851527E+00  0.23559201271E+01  0.12700000000E+01 0. -1.
         -4    1    1    2    0  501 -0.67150880192E-01 -0.19142080993E+01 -0.44716355764E+01  0.50276362852E+01  0.12700000000E+01 0. -1.
<mgrwt>
<rscale>  0 0.22981736E+01</rscale>
<asrwt>0</asrwt>
<pdfrwt beam="1">0</pdfrwt>
<pdfrwt beam="2">0</pdfrwt>
<totfact> 0.22999332E+12</totfact>
</mgrwt>
</event>
<event>
 4    1  0.1699693E+006  0.2009385E+01  0.7546771E-02  0.2974420E+00
         22   -1    0    0    0    0  0.00000000000E+00  0.00000000000E+00  0.11101681504E+02  0.11101681504E+02  0.00000000000E+00 0. -1.
         22   -1    0    0    0    0 -0.00000000000E+00 -0.00000000000E+00 -0.56516170313E+00  0.56516170313E+00  0.00000000000E+00 0.  1.
          4    1    1    2  501    0  0.63881109977E+00  0.14200879395E+01  0.87511383673E+01  0.89788669720E+01  0.12700000000E+01 0. -1.
         -4    1    1    2    0  501 -0.63881109977E+00 -0.14200879395E+01  0.17853814335E+01  0.26879762350E+01  0.12700000000E+01 0.  1.
<mgrwt>
<rscale>  0 0.20093853E+01</rscale>
<asrwt>0</asrwt>
<pdfrwt beam="1">0</pdfrwt>
<pdfrwt beam="2">0</pdfrwt>
<totfact> 0.26734084E+12</totfact>
</mgrwt>
</event>
<event>
 4    1  0.1699693E+006  0.2473080E+01  0.7546771E-02  0.2720519E+00
         22   -1    0    0    0    0  0.00000000000E+00  0.00000000000E+00  0.11532026567E+01  0.11532026567E+01  0.00000000000E+00 0.  1.
         22   -1    0    0    0    0 -0.00000000000E+00 -0.00000000000E+00 -0.56930325888E+01  0.56930325888E+01  0.00000000000E+00 0.  1.
          4    1    1    2  501    0  0.14741669146E+01 -0.15264520546E+01 -0.13746183815E+01  0.28294345127E+01  0.12700000000E+01 0.  1.
         -4    1    1    2    0  501 -0.14741669146E+01  0.15264520546E+01 -0.31652115506E+01  0.40168007328E+01  0.12700000000E+01 0.  1.
<mgrwt>
<rscale>  0 0.24730799E+01</rscale>
<asrwt>0</asrwt>
<pdfrwt beam="1">0</pdfrwt>
<pdfrwt beam="2">0</pdfrwt>
<totfact> 0.26493961E+12</totfact>
</mgrwt>
</event>
<event>
 4    1  0.1699693E+006  0.2331007E+01  0.7546771E-02  0.2788072E+00
         22   -1    0    0    0    0  0.00000000000E+00  0.00000000000E+00  0.72696632503E+00  0.72696632503E+00  0.00000000000E+00 0.  1.
         22   -1    0    0    0    0 -0.00000000000E+00 -0.00000000000E+00 -0.81399021713E+01  0.81399021713E+01  0.00000000000E+00 0. -1.
          4    1    1    2  501    0  0.19275761646E+01  0.32425760548E+00 -0.24387422925E+01  0.33735821962E+01  0.12700000000E+01 0.  1.
         -4    1    1    2    0  501 -0.19275761646E+01 -0.32425760548E+00 -0.49741935538E+01  0.54932863002E+01  0.12700000000E+01 0. -1.
<mgrwt>
<rscale>  0 0.23310068E+01</rscale>
<asrwt>0</asrwt>
<pdfrwt beam="1">0</pdfrwt>
<pdfrwt beam="2">0</pdfrwt>
<totfact> 0.29245456E+12</totfact>
</mgrwt>
</event>
<event>
 4    1  0.1699693E+006  0.2497794E+01  0.7546771E-02  0.2709503E+00
         22   -1    0    0    0    0  0.00000000000E+00  0.00000000000E+00  0.24053179652E+01  0.24053179652E+01  0.00000000000E+00 0. -1.
         22   -1    0    0    0    0 -0.00000000000E+00 -0.00000000000E+00 -0.28874338097E+01  0.28874338097E+01  0.00000000000E+00 0. -1.
          4    1    1    2  501    0 -0.40362098237E+00 -0.21126207988E+01  0.60281923963E+00  0.25695072626E+01  0.12700000000E+01 0. -1.
         -4    1    1    2    0  501  0.40362098237E+00  0.21126207988E+01 -0.10849350841E+01  0.27232445123E+01  0.12700000000E+01 0. -1.
<mgrwt>
<rscale>  0 0.24977943E+01</rscale>
<asrwt>0</asrwt>
<pdfrwt beam="1">0</pdfrwt>
<pdfrwt beam="2">0</pdfrwt>
<totfact> 0.25240458E+12</totfact>
</mgrwt>
</event>
<event>
 4    1  0.1699693E+006  0.3084137E+01  0.7546771E-02  0.2496243E+00
         22   -1    0    0    0    0  0.00000000000E+00  0.00000000000E+00  0.36820904480E+02  0.36820904480E+02  0.00000000000E+00 0. -1.
         22   -1    0    0    0    0 -0.00000000000E+00 -0.00000000000E+00 -0.65793483192E+00  0.65793483192E+00  0.00000000000E+00 0.  1.
          4    1    1    2  501    0  0.26388056762E+00  0.27981006196E+01  0.32685783815E+02  0.32830966535E+02  0.12700000000E+01 0. -1.
         -4    1    1    2    0  501 -0.26388056762E+00 -0.27981006196E+01  0.34771858332E+01  0.46478727769E+01  0.12700000000E+01 0.  1.
<mgrwt>
<rscale>  0 0.30841368E+01</rscale>
<asrwt>0</asrwt>
<pdfrwt beam="1">0</pdfrwt>
<pdfrwt beam="2">0</pdfrwt>
<totfact> 0.50320642E+11</totfact>
</mgrwt>
</event>
<event>
 4    1  0.1699693E+006  0.2006266E+01  0.7546771E-02  0.2976511E+00
         22   -1    0    0    0    0  0.00000000000E+00  0.00000000000E+00  0.39985371816E+01  0.39985371816E+01  0.00000000000E+00 0. -1.
         22   -1    0    0    0    0 -0.00000000000E+00 -0.00000000000E+00 -0.16493471354E+01  0.16493471354E+01  0.00000000000E+00 0. -1.
          4    1    1    2  501    0 -0.45993711360E+00 -0.14834620840E+01  0.29374033887E+01  0.35571674927E+01  0.12700000000E+01 0. -1.
         -4    1    1    2    0  501  0.45993711360E+00  0.14834620840E+01 -0.58821334245E+00  0.20907168243E+01  0.12700000000E+01 0. -1.
<mgrwt>
<rscale>  0 0.20062657E+01</rscale>
<asrwt>0</asrwt>
<pdfrwt beam="1">0</pdfrwt>
<pdfrwt beam="2">0</pdfrwt>
<totfact> 0.26670045E+12</totfact>
</mgrwt>
</event>
<event>
 4    1  0.1699693E+006  0.2271625E+01  0.7546771E-02  0.2818664E+00
         22   -1    0    0    0    0  0.00000000000E+00  0.00000000000E+00  0.80754444465E+00  0.80754444465E+00  0.00000000000E+00 0. -1.
         22   -1    0    0    0    0 -0.00000000000E+00 -0.00000000000E+00 -0.13298742386E+02  0.13298742386E+02  0.00000000000E+00 0. -1.
          4    1    1    2  501    0 -0.14033202698E+01  0.12562133917E+01 -0.11619662145E+01  0.25515574359E+01  0.12700000000E+01 0. -1.
         -4    1    1    2    0  501  0.14033202698E+01 -0.12562133917E+01 -0.11329231727E+02  0.11554729395E+02  0.12700000000E+01 0. -1.
<mgrwt>
<rscale>  0 0.22716249E+01</rscale>
<asrwt>0</asrwt>
<pdfrwt beam="1">0</pdfrwt>
<pdfrwt beam="2">0</pdfrwt>
<totfact> 0.14308157E+12</totfact>
</mgrwt>
</event>
<event>
 4    1  0.1699693E+006  0.3525410E+01  0.7546771E-02  0.2378370E+00
         22   -1    0    0    0    0  0.00000000000E+00  0.00000000000E+00  0.35211732460E+02  0.35211732460E+02  0.00000000000E+00 0. -1.
         22   -1    0    0    0    0 -0.00000000000E+00 -0.00000000000E+00 -0.37331069837E+00  0.37331069837E+00  0.00000000000E+00 0.  1.
          4    1    1    2  501    0 -0.18784249456E+01 -0.26994697185E+01  0.13265500685E+02  0.13725961731E+02  0.12700000000E+01 0.  1.
         -4    1    1    2    0  501  0.18784249456E+01  0.26994697185E+01  0.21572921077E+02  0.21859081427E+02  0.12700000000E+01 0. -1.
<mgrwt>
<rscale>  0 0.35254102E+01</rscale>
<asrwt>0</asrwt>
<pdfrwt beam="1">0</pdfrwt>
<pdfrwt beam="2">0</pdfrwt>
<totfact> 0.10107845E+12</totfact>
</mgrwt>
</event>
<event>
 4    1  0.1699693E+006  0.7544001E+01  0.7546771E-02  0.1903796E+00
         22   -1    0    0    0    0  0.00000000000E+00  0.00000000000E+00  0.11529253070E+01  0.11529253070E+01  0.00000000000E+00 0. -1.
         22   -1    0    0    0    0 -0.00000000000E+00 -0.00000000000E+00 -0.49377604870E+02  0.49377604870E+02  0.00000000000E+00 0.  1.
          4    1    1    2  501    0 -0.72328492878E+01  0.17276986289E+01 -0.23679106836E+02  0.24851801784E+02  0.12700000000E+01 0.  1.
         -4    1    1    2    0  501  0.72328492878E+01 -0.17276986289E+01 -0.24545572727E+02  0.25678728393E+02  0.12700000000E+01 0. -1.
<mgrwt>
<rscale>  0 0.75440010E+01</rscale>
<asrwt>0</asrwt>
<pdfrwt beam="1">0</pdfrwt>
<pdfrwt beam="2">0</pdfrwt>
<totfact> 0.18115463E+11</totfact>
</mgrwt>
</event>
<event>
 4    1  0.1699693E+006  0.2323110E+01  0.7546771E-02  0.2792055E+00
         22   -1    0    0    0    0  0.00000000000E+00  0.00000000000E+00  0.14322357025E+02  0.14322357025E+02  0.00000000000E+00 0. -1.
         22   -1    0    0    0    0 -0.00000000000E+00 -0.00000000000E+00 -0.39364562721E+00  0.39364562721E+00  0.00000000000E+00 0. -1.
          4    1    1    2  501    0  0.19450769189E+01 -0.24814016048E-01  0.84859274315E+01  0.87981705103E+01  0.12700000000E+01 0. -1.
         -4    1    1    2    0  501 -0.19450769189E+01  0.24814016048E-01  0.54427839661E+01  0.59178321417E+01  0.12700000000E+01 0. -1.
<mgrwt>
<rscale>  0 0.23231100E+01</rscale>
<asrwt>0</asrwt>
<pdfrwt beam="1">0</pdfrwt>
<pdfrwt beam="2">0</pdfrwt>
<totfact> 0.29454744E+12</totfact>
</mgrwt>
</event>
<event>
 4    1  0.1699693E+006  0.2812646E+01  0.7546771E-02  0.2584920E+00
         22   -1    0    0    0    0  0.00000000000E+00  0.00000000000E+00  0.23325027857E+02  0.23325027857E+02  0.00000000000E+00 0.  1.
         22   -1    0    0    0    0 -0.00000000000E+00 -0.00000000000E+00 -0.34729460639E+00  0.34729460639E+00  0.00000000000E+00 0.  1.
          4    1    1    2  501    0 -0.17209479370E+01 -0.18265860934E+01  0.96776973964E+01  0.10078135019E+02  0.12700000000E+01 0.  1.
         -4    1    1    2    0  501  0.17209479370E+01  0.18265860934E+01  0.13300035855E+02  0.13594187445E+02  0.12700000000E+01 0.  1.
<mgrwt>
<rscale>  0 0.28126462E+01</rscale>
<asrwt>0</asrwt>
<pdfrwt beam="1">0</pdfrwt>
<pdfrwt beam="2">0</pdfrwt>
<totfact> 0.18505666E+12</totfact>
</mgrwt>
</event>
<event>
 4    1  0.1699693E+006  0.4922776E+01  0.7546771E-02  0.2132336E+00
         22   -1    0    0    0    0  0.00000000000E+00  0.00000000000E+00  0.23568899259E+01  0.23568899259E+01  0.00000000000E+00 0. -1.
         22   -1    0    0    0    0 -0.00000000000E+00 -0.00000000000E+00 -0.34757489279E+02  0.34757489279E+02  0.00000000000E+00 0.  1.
          4    1    1    2  501    0 -0.43248984459E+01 -0.19789079880E+01 -0.62799058009E+00  0.49626702047E+01  0.12700000000E+01 0. -1.
         -4    1    1    2    0  501  0.43248984459E+01  0.19789079880E+01 -0.31772608773E+02  0.32151709000E+02  0.12700000000E+01 0.  1.
<mgrwt>
<rscale>  0 0.49227760E+01</rscale>
<asrwt>0</asrwt>
<pdfrwt beam="1">0</pdfrwt>
<pdfrwt beam="2">0</pdfrwt>
<totfact> 0.12543742E+11</totfact>
</mgrwt>
</event>
<event>
 4    1  0.1699693E+006  0.2397755E+01  0.7546771E-02  0.2755398E+00
         22   -1    0    0    0    0  0.00000000000E+00  0.00000000000E+00  0.72100596129E+00  0.72100596129E+00  0.00000000000E+00 0. -1.
         22   -1    0    0    0    0 -0.00000000000E+00 -0.00000000000E+00 -0.10504229043E+02  0.10504229043E+02  0.00000000000E+00 0. -1.
          4    1    1    2  501    0  0.53226777377E-01  0.20330998217E+01 -0.21369260047E+01  0.32118033446E+01  0.12700000000E+01 0. -1.
         -4    1    1    2    0  501 -0.53226777377E-01 -0.20330998217E+01 -0.76462970771E+01  0.80134316598E+01  0.12700000000E+01 0. -1.
<mgrwt>
<rscale>  0 0.23977548E+01</rscale>
<asrwt>0</asrwt>
<pdfrwt beam="1">0</pdfrwt>
<pdfrwt beam="2">0</pdfrwt>
<totfact> 0.21696797E+12</totfact>
</mgrwt>
</event>
<event>
 4    1  0.1699693E+006  0.2740008E+01  0.7546771E-02  0.2611328E+00
         22   -1    0    0    0    0  0.00000000000E+00  0.00000000000E+00  0.12645698035E+02  0.12645698035E+02  0.00000000000E+00 0. -1.
         22   -1    0    0    0    0 -0.00000000000E+00 -0.00000000000E+00 -0.78906740290E+00  0.78906740290E+00  0.00000000000E+00 0.  1.
          4    1    1    2  501    0 -0.18158307974E+01 -0.16116762952E+01  0.92708711438E+01  0.96673002297E+01  0.12700000000E+01 0. -1.
         -4    1    1    2    0  501  0.18158307974E+01  0.16116762952E+01  0.25857594888E+01  0.37674652087E+01  0.12700000000E+01 0.  1.
<mgrwt>
<rscale>  0 0.27400077E+01</rscale>
<asrwt>0</asrwt>
<pdfrwt beam="1">0</pdfrwt>
<pdfrwt beam="2">0</pdfrwt>
<totfact> 0.15623718E+12</totfact>
</mgrwt>
</event>
<event>
 4    1  0.1699693E+006  0.3047071E+01  0.7546771E-02  0.2507511E+00
         22   -1    0    0    0    0  0.00000000000E+00  0.00000000000E+00  0.15322835120E+01  0.15322835120E+01  0.00000000000E+00 0.  1.
         22   -1    0    0    0    0 -0.00000000000E+00 -0.00000000000E+00 -0.70454657685E+01  0.70454657685E+01  0.00000000000E+00 0.  1.
          4    1    1    2  501    0 -0.22071377625E+01 -0.16734058777E+01 -0.11520452904E+01  0.32575838723E+01  0.12700000000E+01 0.  1.
         -4    1    1    2    0  501  0.22071377625E+01  0.16734058777E+01 -0.43611369661E+01  0.53201654082E+01  0.12700000000E+01 0.  1.
<mgrwt>
<rscale>  0 0.30470714E+01</rscale>
<asrwt>0</asrwt>
<pdfrwt beam="1">0</pdfrwt>
<pdfrwt beam="2">0</pdfrwt>
<totfact> 0.14828104E+12</totfact>
</mgrwt>
</event>
<event>
 4    1  0.1699693E+006  0.2843291E+01  0.7546771E-02  0.2574148E+00
         22   -1    0    0    0    0  0.00000000000E+00  0.00000000000E+00  0.10620932791E+01  0.10620932791E+01  0.00000000000E+00 0.  1.
         22   -1    0    0    0    0 -0.00000000000E+00 -0.00000000000E+00 -0.77838173793E+01  0.77838173793E+01  0.00000000000E+00 0.  1.
          4    1    1    2  501    0  0.17691871903E+01  0.18279442511E+01 -0.27031035005E+01  0.39231456809E+01  0.12700000000E+01 0.  1.
         -4    1    1    2    0  501 -0.17691871903E+01 -0.18279442511E+01 -0.40186205996E+01  0.49227649775E+01  0.12700000000E+01 0.  1.
<mgrwt>
<rscale>  0 0.28432910E+01</rscale>
<asrwt>0</asrwt>
<pdfrwt beam="1">0</pdfrwt>
<pdfrwt beam="2">0</pdfrwt>
<totfact> 0.20035652E+12</totfact>
</mgrwt>
</event>
<event>
 4    1  0.1699693E+006  0.2599076E+01  0.7546771E-02  0.2666399E+00
         22   -1    0    0    0    0  0.00000000000E+00  0.00000000000E+00  0.10364403781E+01  0.10364403781E+01  0.00000000000E+00 0. -1.
         22   -1    0    0    0    0 -0.00000000000E+00 -0.00000000000E+00 -0.91730145082E+01  0.91730145082E+01  0.00000000000E+00 0.  1.
          4    1    1    2  501    0  0.83448764799E+00  0.21085367008E+01 -0.13218139330E+01  0.29158855819E+01  0.12700000000E+01 0. -1.
         -4    1    1    2    0  501 -0.83448764799E+00 -0.21085367008E+01 -0.68147601971E+01  0.72935693044E+01  0.12700000000E+01 0.  1.
<mgrwt>
<rscale>  0 0.25990761E+01</rscale>
<asrwt>0</asrwt>
<pdfrwt beam="1">0</pdfrwt>
<pdfrwt beam="2">0</pdfrwt>
<totfact> 0.16907873E+12</totfact>
</mgrwt>
</event>
<event>
 4    1  0.1699693E+006  0.2058743E+01  0.7546771E-02  0.2942170E+00
         22   -1    0    0    0    0  0.00000000000E+00  0.00000000000E+00  0.70247844299E+01  0.70247844299E+01  0.00000000000E+00 0.  1.
         22   -1    0    0    0    0 -0.00000000000E+00 -0.00000000000E+00 -0.10117800125E+01  0.10117800125E+01  0.00000000000E+00 0. -1.
          4    1    1    2  501    0 -0.14894404901E+01  0.63803731352E+00  0.55595246360E+01  0.59284685008E+01  0.12700000000E+01 0.  1.
         -4    1    1    2    0  501  0.14894404901E+01 -0.63803731352E+00  0.45347978140E+00  0.21080959416E+01  0.12700000000E+01 0. -1.
<mgrwt>
<rscale>  0 0.20587434E+01</rscale>
<asrwt>0</asrwt>
<pdfrwt beam="1">0</pdfrwt>
<pdfrwt beam="2">0</pdfrwt>
<totfact> 0.23946483E+12</totfact>
</mgrwt>
</event>
<event>
 4    1  0.1699693E+006  0.2487940E+01  0.7546771E-02  0.2713871E+00
         22   -1    0    0    0    0  0.00000000000E+00  0.00000000000E+00  0.44417982349E+00  0.44417982349E+00  0.00000000000E+00 0.  1.
         22   -1    0    0    0    0 -0.00000000000E+00 -0.00000000000E+00 -0.14912209903E+02  0.14912209903E+02  0.00000000000E+00 0. -1.
          4    1    1    2  501    0 -0.11741846620E+00  0.21361548587E+01 -0.52689245214E+01  0.58267838718E+01  0.12700000000E+01 0.  1.
         -4    1    1    2    0  501  0.11741846620E+00 -0.21361548587E+01 -0.91991055580E+01  0.95296058546E+01  0.12700000000E+01 0. -1.
<mgrwt>
<rscale>  0 0.24879398E+01</rscale>
<asrwt>0</asrwt>
<pdfrwt beam="1">0</pdfrwt>
<pdfrwt beam="2">0</pdfrwt>
<totfact> 0.24464605E+12</totfact>
</mgrwt>
</event>
<event>
 4    1  0.1699693E+006  0.3501135E+01  0.7546771E-02  0.2384173E+00
         22   -1    0    0    0    0  0.00000000000E+00  0.00000000000E+00  0.54841308002E+01  0.54841308002E+01  0.00000000000E+00 0.  1.
         22   -1    0    0    0    0 -0.00000000000E+00 -0.00000000000E+00 -0.22395545937E+01  0.22395545937E+01  0.00000000000E+00 0. -1.
          4    1    1    2  501    0 -0.29512639726E+01 -0.13910736742E+01  0.14513433796E+01  0.37900320063E+01  0.12700000000E+01 0. -1.
         -4    1    1    2    0  501  0.29512639726E+01  0.13910736742E+01  0.17932328269E+01  0.39336533877E+01  0.12700000000E+01 0.  1.
<mgrwt>
<rscale>  0 0.35011348E+01</rscale>
<asrwt>0</asrwt>
<pdfrwt beam="1">0</pdfrwt>
<pdfrwt beam="2">0</pdfrwt>
<totfact> 0.12890694E+12</totfact>
</mgrwt>
</event>
<event>
 4    1  0.1699693E+006  0.2753111E+01  0.7546771E-02  0.2606470E+00
         22   -1    0    0    0    0  0.00000000000E+00  0.00000000000E+00  0.29504632859E+00  0.29504632859E+00  0.00000000000E+00 0. -1.
         22   -1    0    0    0    0 -0.00000000000E+00 -0.00000000000E+00 -0.25719451877E+02  0.25719451877E+02  0.00000000000E+00 0. -1.
          4    1    1    2  501    0 -0.22461537260E+01  0.95995607315E+00 -0.12269064827E+02  0.12574162953E+02  0.12700000000E+01 0. -1.
         -4    1    1    2    0  501  0.22461537260E+01 -0.95995607315E+00 -0.13155340721E+02  0.13440335253E+02  0.12700000000E+01 0. -1.
<mgrwt>
<rscale>  0 0.27531114E+01</rscale>
<asrwt>0</asrwt>
<pdfrwt beam="1">0</pdfrwt>
<pdfrwt beam="2">0</pdfrwt>
<totfact> 0.19646763E+12</totfact>
</mgrwt>
</event>
<event>
 4    1  0.1699693E+006  0.2633994E+01  0.7546771E-02  0.2652250E+00
         22   -1    0    0    0    0  0.00000000000E+00  0.00000000000E+00  0.91449093531E+00  0.91449093531E+00  0.00000000000E+00 0.  1.
         22   -1    0    0    0    0 -0.00000000000E+00 -0.00000000000E+00 -0.15501281150E+02  0.15501281150E+02  0.00000000000E+00 0. -1.
          4    1    1    2  501    0  0.76528378500E+00 -0.21770081506E+01 -0.14284651704E+01  0.29964039284E+01  0.12700000000E+01 0.  1.
         -4    1    1    2    0  501 -0.76528378500E+00  0.21770081506E+01 -0.13158325044E+02  0.13419368157E+02  0.12700000000E+01 0. -1.
<mgrwt>
<rscale>  0 0.26339939E+01</rscale>
<asrwt>0</asrwt>
<pdfrwt beam="1">0</pdfrwt>
<pdfrwt beam="2">0</pdfrwt>
<totfact> 0.10287901E+12</totfact>
</mgrwt>
</event>
<event>
 4    1  0.1699693E+006  0.2345670E+01  0.7546771E-02  0.2780744E+00
         22   -1    0    0    0    0  0.00000000000E+00  0.00000000000E+00  0.58588432312E+00  0.58588432312E+00  0.00000000000E+00 0.  1.
         22   -1    0    0    0    0 -0.00000000000E+00 -0.00000000000E+00 -0.98684220184E+01  0.98684220184E+01  0.00000000000E+00 0. -1.
          4    1    1    2  501    0 -0.83705828322E+00  0.17856648530E+01 -0.57907314966E+01  0.62477785494E+01  0.12700000000E+01 0. -1.
         -4    1    1    2    0  501  0.83705828322E+00 -0.17856648530E+01 -0.34918061986E+01  0.42065277920E+01  0.12700000000E+01 0.  1.
<mgrwt>
<rscale>  0 0.23456695E+01</rscale>
<asrwt>0</asrwt>
<pdfrwt beam="1">0</pdfrwt>
<pdfrwt beam="2">0</pdfrwt>
<totfact> 0.29609746E+12</totfact>
</mgrwt>
</event>
<event>
 4    1  0.1699693E+006  0.3415919E+01  0.7546771E-02  0.2405112E+00
         22   -1    0    0    0    0  0.00000000000E+00  0.00000000000E+00  0.32266602739E+02  0.32266602739E+02  0.00000000000E+00 0. -1.
         22   -1    0    0    0    0 -0.00000000000E+00 -0.00000000000E+00 -0.94700007181E+00  0.94700007181E+00  0.00000000000E+00 0.  1.
          4    1    1    2  501    0 -0.29605012271E+01 -0.11362372541E+01  0.28716309236E+02  0.28918764129E+02  0.12700000000E+01 0. -1.
         -4    1    1    2    0  501  0.29605012271E+01  0.11362372541E+01  0.26032934312E+01  0.42948386817E+01  0.12700000000E+01 0.  1.
<mgrwt>
<rscale>  0 0.34159190E+01</rscale>
<asrwt>0</asrwt>
<pdfrwt beam="1">0</pdfrwt>
<pdfrwt beam="2">0</pdfrwt>
<totfact> 0.39405045E+11</totfact>
</mgrwt>
</event>
<event>
 4    1  0.1699693E+006  0.3856555E+01  0.7546771E-02  0.2305582E+00
         22   -1    0    0    0    0  0.00000000000E+00  0.00000000000E+00  0.38259146498E+01  0.38259146498E+01  0.00000000000E+00 0. -1.
         22   -1    0    0    0    0 -0.00000000000E+00 -0.00000000000E+00 -0.10447354346E+03  0.10447354346E+03  0.00000000000E+00 0.  1.
          4    1    1    2  501    0 -0.35821572751E+01 -0.65441955119E+00  0.28089138438E+01  0.47710599110E+01  0.12700000000E+01 0. -1.
         -4    1    1    2    0  501  0.35821572751E+01  0.65441955119E+00 -0.10345654266E+03  0.10352839820E+03  0.12700000000E+01 0.  1.
<mgrwt>
<rscale>  0 0.38565549E+01</rscale>
<asrwt>0</asrwt>
<pdfrwt beam="1">0</pdfrwt>
<pdfrwt beam="2">0</pdfrwt>
<totfact> 0.16250303E+10</totfact>
</mgrwt>
</event>
<event>
 4    1  0.1699693E+006  0.2143739E+01  0.7546771E-02  0.2890025E+00
         22   -1    0    0    0    0  0.00000000000E+00  0.00000000000E+00  0.28664254798E+01  0.28664254798E+01  0.00000000000E+00 0. -1.
         22   -1    0    0    0    0 -0.00000000000E+00 -0.00000000000E+00 -0.16085180282E+01  0.16085180282E+01  0.00000000000E+00 0.  1.
          4    1    1    2  501    0 -0.16879193008E+01 -0.36557732153E+00  0.50099896294E+00  0.22015036464E+01  0.12700000000E+01 0. -1.
         -4    1    1    2    0  501  0.16879193008E+01  0.36557732153E+00  0.75690848868E+00  0.22734398616E+01  0.12700000000E+01 0.  1.
<mgrwt>
<rscale>  0 0.21437393E+01</rscale>
<asrwt>0</asrwt>
<pdfrwt beam="1">0</pdfrwt>
<pdfrwt beam="2">0</pdfrwt>
<totfact> 0.40548529E+12</totfact>
</mgrwt>
</event>
<event>
 4    1  0.1699693E+006  0.2426336E+01  0.7546771E-02  0.2741925E+00
         22   -1    0    0    0    0  0.00000000000E+00  0.00000000000E+00  0.66962663397E+01  0.66962663397E+01  0.00000000000E+00 0.  1.
         22   -1    0    0    0    0 -0.00000000000E+00 -0.00000000000E+00 -0.13031760998E+01  0.13031760998E+01  0.00000000000E+00 0.  1.
          4    1    1    2  501    0  0.23579797057E+00  0.20539245130E+01  0.49780323205E+01  0.55378617147E+01  0.12700000000E+01 0.  1.
         -4    1    1    2    0  501 -0.23579797057E+00 -0.20539245130E+01  0.41505791940E+00  0.24615807247E+01  0.12700000000E+01 0.  1.
<mgrwt>
<rscale>  0 0.24263360E+01</rscale>
<asrwt>0</asrwt>
<pdfrwt beam="1">0</pdfrwt>
<pdfrwt beam="2">0</pdfrwt>
<totfact> 0.18980218E+12</totfact>
</mgrwt>
</event>
<event>
 4    1  0.1699693E+006  0.2096518E+01  0.7546771E-02  0.2918489E+00
         22   -1    0    0    0    0  0.00000000000E+00  0.00000000000E+00  0.47172450364E+01  0.47172450364E+01  0.00000000000E+00 0. -1.
         22   -1    0    0    0    0 -0.00000000000E+00 -0.00000000000E+00 -0.12142403979E+01  0.12142403979E+01  0.00000000000E+00 0.  1.
          4    1    1    2  501    0  0.16083403114E+01  0.44241233668E+00  0.31819356891E+01  0.38105251557E+01  0.12700000000E+01 0. -1.
         -4    1    1    2    0  501 -0.16083403114E+01 -0.44241233668E+00  0.32106894935E+00  0.21209602786E+01  0.12700000000E+01 0.  1.
<mgrwt>
<rscale>  0 0.20965179E+01</rscale>
<asrwt>0</asrwt>
<pdfrwt beam="1">0</pdfrwt>
<pdfrwt beam="2">0</pdfrwt>
<totfact> 0.31206492E+12</totfact>
</mgrwt>
</event>
<event>
 4    1  0.1699693E+006  0.2119108E+01  0.7546771E-02  0.2904719E+00
         22   -1    0    0    0    0  0.00000000000E+00  0.00000000000E+00  0.35860140343E+01  0.35860140343E+01  0.00000000000E+00 0. -1.
         22   -1    0    0    0    0 -0.00000000000E+00 -0.00000000000E+00 -0.15233303222E+01  0.15233303222E+01  0.00000000000E+00 0.  1.
          4    1    1    2  501    0  0.14413900815E+00  0.16902492379E+01  0.21089971811E+01  0.29897303641E+01  0.12700000000E+01 0. -1.
         -4    1    1    2    0  501 -0.14413900815E+00 -0.16902492379E+01 -0.46313468995E-01  0.21196139925E+01  0.12700000000E+01 0.  1.
<mgrwt>
<rscale>  0 0.21191080E+01</rscale>
<asrwt>0</asrwt>
<pdfrwt beam="1">0</pdfrwt>
<pdfrwt beam="2">0</pdfrwt>
<totfact> 0.33217595E+12</totfact>
</mgrwt>
</event>
<event>
 4    1  0.1699693E+006  0.2327201E+01  0.7546771E-02  0.2789988E+00
         22   -1    0    0    0    0  0.00000000000E+00  0.00000000000E+00  0.14032304838E+00  0.14032304838E+00  0.00000000000E+00 0.  1.
         22   -1    0    0    0    0 -0.00000000000E+00 -0.00000000000E+00 -0.40207094930E+02  0.40207094930E+02  0.00000000000E+00 0. -1.
          4    1    1    2  501    0 -0.18819562305E+01 -0.51108186912E+00 -0.24072049306E+02  0.24184280467E+02  0.12700000000E+01 0. -1.
         -4    1    1    2    0  501  0.18819562305E+01  0.51108186912E+00 -0.15994722575E+02  0.16163137511E+02  0.12700000000E+01 0.  1.
<mgrwt>
<rscale>  0 0.23272009E+01</rscale>
<asrwt>0</asrwt>
<pdfrwt beam="1">0</pdfrwt>
<pdfrwt beam="2">0</pdfrwt>
<totfact> 0.25412171E+12</totfact>
</mgrwt>
</event>
<event>
 4    1  0.1699693E+006  0.5703664E+01  0.7546771E-02  0.2047329E+00
         22   -1    0    0    0    0  0.00000000000E+00  0.00000000000E+00  0.11466962402E+02  0.11466962402E+02  0.00000000000E+00 0. -1.
         22   -1    0    0    0    0 -0.00000000000E+00 -0.00000000000E+00 -0.39162066990E+01  0.39162066990E+01  0.00000000000E+00 0.  1.
          4    1    1    2  501    0  0.40790314480E+01  0.37789389753E+01  0.78130889717E+01  0.96734759323E+01  0.12700000000E+01 0. -1.
         -4    1    1    2    0  501 -0.40790314480E+01 -0.37789389753E+01 -0.26233326907E+00  0.57096931684E+01  0.12700000000E+01 0.  1.
<mgrwt>
<rscale>  0 0.57036635E+01</rscale>
<asrwt>0</asrwt>
<pdfrwt beam="1">0</pdfrwt>
<pdfrwt beam="2">0</pdfrwt>
<totfact> 0.27665901E+11</totfact>
</mgrwt>
</event>
<event>
 4    1  0.1699693E+006  0.2241754E+01  0.7546771E-02  0.2834635E+00
         22   -1    0    0    0    0  0.00000000000E+00  0.00000000000E+00  0.17570488411E+01  0.17570488411E+01  0.00000000000E+00 0. -1.
         22   -1    0    0    0    0 -0.00000000000E+00 -0.00000000000E+00 -0.93621127592E+01  0.93621127592E+01  0.00000000000E+00 0.  1.
          4    1    1    2  501    0  0.16949892349E+01  0.73455564112E+00  0.83062105503E+00  0.23906885689E+01  0.12700000000E+01 0. -1.
         -4    1    1    2    0  501 -0.16949892349E+01 -0.73455564112E+00 -0.84356849731E+01  0.87284730315E+01  0.12700000000E+01 0.  1.
<mgrwt>
<rscale>  0 0.22417539E+01</rscale>
<asrwt>0</asrwt>
<pdfrwt beam="1">0</pdfrwt>
<pdfrwt beam="2">0</pdfrwt>
<totfact> 0.89975541E+11</totfact>
</mgrwt>
</event>
<event>
 4    1  0.1699693E+006  0.2280891E+01  0.7546771E-02  0.2813791E+00
         22   -1    0    0    0    0  0.00000000000E+00  0.00000000000E+00  0.12920043630E+01  0.12920043630E+01  0.00000000000E+00 0.  1.
         22   -1    0    0    0    0 -0.00000000000E+00 -0.00000000000E+00 -0.42943416199E+01  0.42943416199E+01  0.00000000000E+00 0.  1.
          4    1    1    2  501    0 -0.18462832988E+01  0.42520691071E+00 -0.80380642090E+00  0.24183812145E+01  0.12700000000E+01 0.  1.
         -4    1    1    2    0  501  0.18462832988E+01 -0.42520691071E+00 -0.21985308360E+01  0.31679647683E+01  0.12700000000E+01 0.  1.
<mgrwt>
<rscale>  0 0.22808908E+01</rscale>
<asrwt>0</asrwt>
<pdfrwt beam="1">0</pdfrwt>
<pdfrwt beam="2">0</pdfrwt>
<totfact> 0.32471646E+12</totfact>
</mgrwt>
</event>
<event>
 4    1  0.1699693E+006  0.2283526E+01  0.7546771E-02  0.2812412E+00
         22   -1    0    0    0    0  0.00000000000E+00  0.00000000000E+00  0.12862460965E+02  0.12862460965E+02  0.00000000000E+00 0. -1.
         22   -1    0    0    0    0 -0.00000000000E+00 -0.00000000000E+00 -0.90573367867E+00  0.90573367867E+00  0.00000000000E+00 0.  1.
          4    1    1    2  501    0  0.14415453286E+01  0.12343162825E+01  0.11094887387E+02  0.11327445244E+02  0.12700000000E+01 0. -1.
         -4    1    1    2    0  501 -0.14415453286E+01 -0.12343162825E+01  0.86183989874E+00  0.24407493994E+01  0.12700000000E+01 0.  1.
<mgrwt>
<rscale>  0 0.22835257E+01</rscale>
<asrwt>0</asrwt>
<pdfrwt beam="1">0</pdfrwt>
<pdfrwt beam="2">0</pdfrwt>
<totfact> 0.13078399E+12</totfact>
</mgrwt>
</event>
<event>
 4    1  0.1699693E+006  0.2055620E+01  0.7546771E-02  0.2944166E+00
         22   -1    0    0    0    0  0.00000000000E+00  0.00000000000E+00  0.10447886716E+02  0.10447886716E+02  0.00000000000E+00 0. -1.
         22   -1    0    0    0    0 -0.00000000000E+00 -0.00000000000E+00 -0.73283576229E+00  0.73283576229E+00  0.00000000000E+00 0.  1.
          4    1    1    2  501    0 -0.15556074151E+01  0.43904368890E+00  0.85997805630E+01  0.88420472473E+01  0.12700000000E+01 0. -1.
         -4    1    1    2    0  501  0.15556074151E+01 -0.43904368890E+00  0.11152703902E+01  0.23386752305E+01  0.12700000000E+01 0.  1.
<mgrwt>
<rscale>  0 0.20556201E+01</rscale>
<asrwt>0</asrwt>
<pdfrwt beam="1">0</pdfrwt>
<pdfrwt beam="2">0</pdfrwt>
<totfact> 0.21437329E+12</totfact>
</mgrwt>
</event>
<event>
 4    1  0.1699693E+006  0.2575597E+01  0.7546771E-02  0.2676112E+00
         22   -1    0    0    0    0  0.00000000000E+00  0.00000000000E+00  0.11695465333E+01  0.11695465333E+01  0.00000000000E+00 0.  1.
         22   -1    0    0    0    0 -0.00000000000E+00 -0.00000000000E+00 -0.14959559725E+02  0.14959559725E+02  0.00000000000E+00 0.  1.
          4    1    1    2  501    0  0.26011721601E+00 -0.22255648064E+01 -0.54065740852E+00  0.26317313896E+01  0.12700000000E+01 0.  1.
         -4    1    1    2    0  501 -0.26011721601E+00  0.22255648064E+01 -0.13249355783E+02  0.13497374869E+02  0.12700000000E+01 0.  1.
<mgrwt>
<rscale>  0 0.25755970E+01</rscale>
<asrwt>0</asrwt>
<pdfrwt beam="1">0</pdfrwt>
<pdfrwt beam="2">0</pdfrwt>
<totfact> 0.81146553E+11</totfact>
</mgrwt>
</event>
<event>
 4    1  0.1699693E+006  0.2483681E+01  0.7546771E-02  0.2715769E+00
         22   -1    0    0    0    0  0.00000000000E+00  0.00000000000E+00  0.12696915946E+01  0.12696915946E+01  0.00000000000E+00 0. -1.
         22   -1    0    0    0    0 -0.00000000000E+00 -0.00000000000E+00 -0.69742807929E+01  0.69742807929E+01  0.00000000000E+00 0.  1.
          4    1    1    2  501    0  0.14249970208E+01  0.15890735483E+01 -0.58189507721E+00  0.25509357366E+01  0.12700000000E+01 0. -1.
         -4    1    1    2    0  501 -0.14249970208E+01 -0.15890735483E+01 -0.51226941211E+01  0.56930366510E+01  0.12700000000E+01 0.  1.
<mgrwt>
<rscale>  0 0.24836810E+01</rscale>
<asrwt>0</asrwt>
<pdfrwt beam="1">0</pdfrwt>
<pdfrwt beam="2">0</pdfrwt>
<totfact> 0.18627601E+12</totfact>
</mgrwt>
</event>
<event>
 4    1  0.1699693E+006  0.2111583E+01  0.7546771E-02  0.2909274E+00
         22   -1    0    0    0    0  0.00000000000E+00  0.00000000000E+00  0.53051305412E+01  0.53051305412E+01  0.00000000000E+00 0.  1.
         22   -1    0    0    0    0 -0.00000000000E+00 -0.00000000000E+00 -0.15067733838E+01  0.15067733838E+01  0.00000000000E+00 0.  1.
          4    1    1    2  501    0 -0.22955396673E+00  0.16712836627E+01  0.41640926114E+01  0.46688811702E+01  0.12700000000E+01 0.  1.
         -4    1    1    2    0  501  0.22955396673E+00 -0.16712836627E+01 -0.36573545402E+00  0.21430227547E+01  0.12700000000E+01 0.  1.
<mgrwt>
<rscale>  0 0.21115833E+01</rscale>
<asrwt>0</asrwt>
<pdfrwt beam="1">0</pdfrwt>
<pdfrwt beam="2">0</pdfrwt>
<totfact> 0.21193534E+12</totfact>
</mgrwt>
</event>
<event>
 4    1  0.1699693E+006  0.2312311E+01  0.7546771E-02  0.2797543E+00
         22   -1    0    0    0    0  0.00000000000E+00  0.00000000000E+00  0.15168737979E+02  0.15168737979E+02  0.00000000000E+00 0.  1.
         22   -1    0    0    0    0 -0.00000000000E+00 -0.00000000000E+00 -0.35472166471E+00  0.35472166471E+00  0.00000000000E+00 0. -1.
          4    1    1    2  501    0 -0.52572683073E+00 -0.18594331614E+01  0.80230883697E+01  0.83496543264E+01  0.12700000000E+01 0.  1.
         -4    1    1    2    0  501  0.52572683073E+00  0.18594331614E+01  0.67909279446E+01  0.71738053174E+01  0.12700000000E+01 0. -1.
<mgrwt>
<rscale>  0 0.23123106E+01</rscale>
<asrwt>0</asrwt>
<pdfrwt beam="1">0</pdfrwt>
<pdfrwt beam="2">0</pdfrwt>
<totfact> 0.30856180E+12</totfact>
</mgrwt>
</event>
<event>
 4    1  0.1699693E+006  0.2487657E+01  0.7546771E-02  0.2713997E+00
         22   -1    0    0    0    0  0.00000000000E+00  0.00000000000E+00  0.66105010394E+00  0.66105010394E+00  0.00000000000E+00 0.  1.
         22   -1    0    0    0    0 -0.00000000000E+00 -0.00000000000E+00 -0.95427199344E+01  0.95427199344E+01  0.00000000000E+00 0.  1.
          4    1    1    2  501    0  0.65670517997E+00  0.20357495024E+01 -0.51438528668E+01  0.57138130916E+01  0.12700000000E+01 0.  1.
         -4    1    1    2    0  501 -0.65670517997E+00 -0.20357495024E+01 -0.37378169636E+01  0.44899569467E+01  0.12700000000E+01 0.  1.
<mgrwt>
<rscale>  0 0.24876571E+01</rscale>
<asrwt>0</asrwt>
<pdfrwt beam="1">0</pdfrwt>
<pdfrwt beam="2">0</pdfrwt>
<totfact> 0.26895292E+12</totfact>
</mgrwt>
</event>
<event>
 4    1  0.1699693E+006  0.2730057E+01  0.7546771E-02  0.2615045E+00
         22   -1    0    0    0    0  0.00000000000E+00  0.00000000000E+00  0.65798366242E+01  0.65798366242E+01  0.00000000000E+00 0.  1.
         22   -1    0    0    0    0 -0.00000000000E+00 -0.00000000000E+00 -0.55884388790E+01  0.55884388790E+01  0.00000000000E+00 0. -1.
          4    1    1    2  501    0 -0.44420563308E+00 -0.23754988820E+01  0.59283514013E+01  0.65267575350E+01  0.12700000000E+01 0.  1.
         -4    1    1    2    0  501  0.44420563308E+00  0.23754988820E+01 -0.49369536562E+01  0.56415179682E+01  0.12700000000E+01 0. -1.
<mgrwt>
<rscale>  0 0.27300574E+01</rscale>
<asrwt>0</asrwt>
<pdfrwt beam="1">0</pdfrwt>
<pdfrwt beam="2">0</pdfrwt>
<totfact> 0.35491649E+11</totfact>
</mgrwt>
</event>
<event>
 4    1  0.1699693E+006  0.2170947E+01  0.7546771E-02  0.2874168E+00
         22   -1    0    0    0    0  0.00000000000E+00  0.00000000000E+00  0.30521588351E+01  0.30521588351E+01  0.00000000000E+00 0. -1.
         22   -1    0    0    0    0 -0.00000000000E+00 -0.00000000000E+00 -0.47021088970E+01  0.47021088970E+01  0.00000000000E+00 0.  1.
          4    1    1    2  501    0 -0.71849144455E+00  0.16074451384E+01  0.23523911490E+01  0.32010551302E+01  0.12700000000E+01 0. -1.
         -4    1    1    2    0  501  0.71849144455E+00 -0.16074451384E+01 -0.40023412110E+01  0.45532126019E+01  0.12700000000E+01 0.  1.
<mgrwt>
<rscale>  0 0.21709468E+01</rscale>
<asrwt>0</asrwt>
<pdfrwt beam="1">0</pdfrwt>
<pdfrwt beam="2">0</pdfrwt>
<totfact> 0.10785436E+12</totfact>
</mgrwt>
</event>
<event>
 4    1  0.1699693E+006  0.2154856E+01  0.7546771E-02  0.2883500E+00
         22   -1    0    0    0    0  0.00000000000E+00  0.00000000000E+00  0.23670823313E+01  0.23670823313E+01  0.00000000000E+00 0. -1.
         22   -1    0    0    0    0 -0.00000000000E+00 -0.00000000000E+00 -0.53496701942E+01  0.53496701942E+01  0.00000000000E+00 0. -1.
          4    1    1    2  501    0  0.22741131026E-01  0.17406858467E+01  0.15792378640E+01  0.26715906511E+01  0.12700000000E+01 0. -1.
         -4    1    1    2    0  501 -0.22741131026E-01 -0.17406858467E+01 -0.45618257269E+01  0.50451618744E+01  0.12700000000E+01 0. -1.
<mgrwt>
<rscale>  0 0.21548560E+01</rscale>
<asrwt>0</asrwt>
<pdfrwt beam="1">0</pdfrwt>
<pdfrwt beam="2">0</pdfrwt>
<totfact> 0.12448356E+12</totfact>
</mgrwt>
</event>
<event>
 4    1  0.1699693E+006  0.3773707E+01  0.7546771E-02  0.2322757E+00
         22   -1    0    0    0    0  0.00000000000E+00  0.00000000000E+00  0.13970676660E+02  0.13970676660E+02  0.00000000000E+00 0. -1.
         22   -1    0    0    0    0 -0.00000000000E+00 -0.00000000000E+00 -0.10302659849E+01  0.10302659849E+01  0.00000000000E+00 0.  1.
          4    1    1    2  501    0  0.27507633234E+01  0.22497251025E+01  0.56977825957E+01  0.68341486965E+01  0.12700000000E+01 0. -1.
         -4    1    1    2    0  501 -0.27507633234E+01 -0.22497251025E+01  0.72426280791E+01  0.81667939481E+01  0.12700000000E+01 0.  1.
<mgrwt>
<rscale>  0 0.37737067E+01</rscale>
<asrwt>0</asrwt>
<pdfrwt beam="1">0</pdfrwt>
<pdfrwt beam="2">0</pdfrwt>
<totfact> 0.10203856E+12</totfact>
</mgrwt>
</event>
<event>
 4    1  0.1699693E+006  0.6175759E+01  0.7546771E-02  0.2004275E+00
         22   -1    0    0    0    0  0.00000000000E+00  0.00000000000E+00  0.10536445827E+02  0.10536445827E+02  0.00000000000E+00 0. -1.
         22   -1    0    0    0    0 -0.00000000000E+00 -0.00000000000E+00 -0.64509553902E+01  0.64509553902E+01  0.00000000000E+00 0.  1.
          4    1    1    2  501    0  0.52929178006E+00 -0.60205439363E+01  0.76695976695E+01  0.98469653949E+01  0.12700000000E+01 0. -1.
         -4    1    1    2    0  501 -0.52929178006E+00  0.60205439363E+01 -0.35841072326E+01  0.71404358223E+01  0.12700000000E+01 0.  1.
<mgrwt>
<rscale>  0 0.61757590E+01</rscale>
<asrwt>0</asrwt>
<pdfrwt beam="1">0</pdfrwt>
<pdfrwt beam="2">0</pdfrwt>
<totfact> 0.16978526E+11</totfact>
</mgrwt>
</event>
<event>
 4    1  0.1699693E+006  0.2700367E+01  0.7546771E-02  0.2626285E+00
         22   -1    0    0    0    0  0.00000000000E+00  0.00000000000E+00  0.10169977633E+02  0.10169977633E+02  0.00000000000E+00 0.  1.
         22   -1    0    0    0    0 -0.00000000000E+00 -0.00000000000E+00 -0.81045971419E+00  0.81045971419E+00  0.00000000000E+00 0. -1.
          4    1    1    2  501    0  0.15767502134E+01  0.17868805289E+01  0.65440391258E+01  0.70792959636E+01  0.12700000000E+01 0.  1.
         -4    1    1    2    0  501 -0.15767502134E+01 -0.17868805289E+01  0.28154787927E+01  0.39011413833E+01  0.12700000000E+01 0. -1.
<mgrwt>
<rscale>  0 0.27003672E+01</rscale>
<asrwt>0</asrwt>
<pdfrwt beam="1">0</pdfrwt>
<pdfrwt beam="2">0</pdfrwt>
<totfact> 0.19755763E+12</totfact>
</mgrwt>
</event>
<event>
 4    1  0.1699693E+006  0.6245975E+01  0.7546771E-02  0.1998306E+00
         22   -1    0    0    0    0  0.00000000000E+00  0.00000000000E+00  0.36746247074E+01  0.36746247074E+01  0.00000000000E+00 0. -1.
         22   -1    0    0    0    0 -0.00000000000E+00 -0.00000000000E+00 -0.20206628332E+02  0.20206628332E+02  0.00000000000E+00 0.  1.
          4    1    1    2  501    0 -0.27627836722E+00  0.61092528528E+01 -0.39995715628E-01  0.62461027699E+01  0.12700000000E+01 0. -1.
         -4    1    1    2    0  501  0.27627836722E+00 -0.61092528528E+01 -0.16492007909E+02  0.17635150269E+02  0.12700000000E+01 0.  1.
<mgrwt>
<rscale>  0 0.62459747E+01</rscale>
<asrwt>0</asrwt>
<pdfrwt beam="1">0</pdfrwt>
<pdfrwt beam="2">0</pdfrwt>
<totfact> 0.14838169E+11</totfact>
</mgrwt>
</event>
<event>
 4    1  0.1699693E+006  0.3564898E+01  0.7546771E-02  0.2369078E+00
         22   -1    0    0    0    0  0.00000000000E+00  0.00000000000E+00  0.13061500045E+02  0.13061500045E+02  0.00000000000E+00 0. -1.
         22   -1    0    0    0    0 -0.00000000000E+00 -0.00000000000E+00 -0.97311603145E+00  0.97311603145E+00  0.00000000000E+00 0.  1.
          4    1    1    2  501    0 -0.31912612681E+01  0.95469697755E+00  0.59592970557E+01  0.69441857837E+01  0.12700000000E+01 0.  1.
         -4    1    1    2    0  501  0.31912612681E+01 -0.95469697755E+00  0.61290869579E+01  0.70904302929E+01  0.12700000000E+01 0. -1.
<mgrwt>
<rscale>  0 0.35648976E+01</rscale>
<asrwt>0</asrwt>
<pdfrwt beam="1">0</pdfrwt>
<pdfrwt beam="2">0</pdfrwt>
<totfact> 0.11826948E+12</totfact>
</mgrwt>
</event>
<event>
 4    1  0.1699693E+006  0.2307084E+01  0.7546771E-02  0.2800217E+00
         22   -1    0    0    0    0  0.00000000000E+00  0.00000000000E+00  0.33906224161E+01  0.33906224161E+01  0.00000000000E+00 0. -1.
         22   -1    0    0    0    0 -0.00000000000E+00 -0.00000000000E+00 -0.30793027068E+01  0.30793027068E+01  0.00000000000E+00 0.  1.
          4    1    1    2  501    0  0.12380629589E+01  0.14754446018E+01  0.24206088163E+01  0.33439473239E+01  0.12700000000E+01 0. -1.
         -4    1    1    2    0  501 -0.12380629589E+01 -0.14754446018E+01 -0.21092891070E+01  0.31259777990E+01  0.12700000000E+01 0.  1.
<mgrwt>
<rscale>  0 0.23070840E+01</rscale>
<asrwt>0</asrwt>
<pdfrwt beam="1">0</pdfrwt>
<pdfrwt beam="2">0</pdfrwt>
<totfact> 0.15684371E+12</totfact>
</mgrwt>
</event>
<event>
 4    1  0.1699693E+006  0.2218657E+01  0.7546771E-02  0.2847265E+00
         22   -1    0    0    0    0  0.00000000000E+00  0.00000000000E+00  0.14623822422E+01  0.14623822422E+01  0.00000000000E+00 0. -1.
         22   -1    0    0    0    0 -0.00000000000E+00 -0.00000000000E+00 -0.12966275053E+02  0.12966275053E+02  0.00000000000E+00 0.  1.
          4    1    1    2  501    0  0.91429619016E+00  0.15727693737E+01  0.45573158105E+00  0.22649795364E+01  0.12700000000E+01 0. -1.
         -4    1    1    2    0  501 -0.91429619016E+00 -0.15727693737E+01 -0.11959624392E+02  0.12163677759E+02  0.12700000000E+01 0.  1.
<mgrwt>
<rscale>  0 0.22186575E+01</rscale>
<asrwt>0</asrwt>
<pdfrwt beam="1">0</pdfrwt>
<pdfrwt beam="2">0</pdfrwt>
<totfact> 0.74828958E+11</totfact>
</mgrwt>
</event>
<event>
 4    1  0.1699693E+006  0.2286572E+01  0.7546771E-02  0.2810822E+00
         22   -1    0    0    0    0  0.00000000000E+00  0.00000000000E+00  0.21410408444E+00  0.21410408444E+00  0.00000000000E+00 0. -1.
         22   -1    0    0    0    0 -0.00000000000E+00 -0.00000000000E+00 -0.53216889791E+02  0.53216889791E+02  0.00000000000E+00 0. -1.
          4    1    1    2  501    0 -0.83146302245E+00 -0.17100232165E+01 -0.68491685422E+01  0.72207700336E+01  0.12700000000E+01 0. -1.
         -4    1    1    2    0  501  0.83146302245E+00  0.17100232165E+01 -0.46153617165E+02  0.46210223842E+02  0.12700000000E+01 0. -1.
<mgrwt>
<rscale>  0 0.22865717E+01</rscale>
<asrwt>0</asrwt>
<pdfrwt beam="1">0</pdfrwt>
<pdfrwt beam="2">0</pdfrwt>
<totfact> 0.10990490E+12</totfact>
</mgrwt>
</event>
<event>
 4    1  0.1699693E+006  0.2508962E+01  0.7546771E-02  0.2704592E+00
         22   -1    0    0    0    0  0.00000000000E+00  0.00000000000E+00  0.77488330871E+01  0.77488330871E+01  0.00000000000E+00 0. -1.
         22   -1    0    0    0    0 -0.00000000000E+00 -0.00000000000E+00 -0.16639247739E+01  0.16639247739E+01  0.00000000000E+00 0.  1.
          4    1    1    2  501    0 -0.10372736617E+01  0.18989615946E+01  0.64093311832E+01  0.68829076707E+01  0.12700000000E+01 0. -1.
         -4    1    1    2    0  501  0.10372736617E+01 -0.18989615946E+01 -0.32442287002E+00  0.25298501903E+01  0.12700000000E+01 0.  1.
<mgrwt>
<rscale>  0 0.25089623E+01</rscale>
<asrwt>0</asrwt>
<pdfrwt beam="1">0</pdfrwt>
<pdfrwt beam="2">0</pdfrwt>
<totfact> 0.12031478E+12</totfact>
</mgrwt>
</event>
<event>
 4    1  0.1699693E+006  0.2873254E+01  0.7546771E-02  0.2563816E+00
         22   -1    0    0    0    0  0.00000000000E+00  0.00000000000E+00  0.15453876673E+01  0.15453876673E+01  0.00000000000E+00 0. -1.
         22   -1    0    0    0    0 -0.00000000000E+00 -0.00000000000E+00 -0.74589509610E+01  0.74589509610E+01  0.00000000000E+00 0.  1.
          4    1    1    2  501    0 -0.23052078916E+01  0.11526945466E+01 -0.55833588464E+00  0.29269996757E+01  0.12700000000E+01 0. -1.
         -4    1    1    2    0  501  0.23052078916E+01 -0.11526945466E+01 -0.53552274090E+01  0.60773389525E+01  0.12700000000E+01 0.  1.
<mgrwt>
<rscale>  0 0.28732539E+01</rscale>
<asrwt>0</asrwt>
<pdfrwt beam="1">0</pdfrwt>
<pdfrwt beam="2">0</pdfrwt>
<totfact> 0.13714080E+12</totfact>
</mgrwt>
</event>
<event>
 4    1  0.1699693E+006  0.4229290E+01  0.7546771E-02  0.2235496E+00
         22   -1    0    0    0    0  0.00000000000E+00  0.00000000000E+00  0.11611663413E+02  0.11611663413E+02  0.00000000000E+00 0. -1.
         22   -1    0    0    0    0 -0.00000000000E+00 -0.00000000000E+00 -0.33341411690E+01  0.33341411690E+01  0.00000000000E+00 0.  1.
          4    1    1    2  501    0  0.21399935607E+01 -0.34197110928E+01  0.96199425246E+01  0.10508577001E+02  0.12700000000E+01 0. -1.
         -4    1    1    2    0  501 -0.21399935607E+01  0.34197110928E+01 -0.13424202808E+01  0.44372275813E+01  0.12700000000E+01 0.  1.
<mgrwt>
<rscale>  0 0.42292903E+01</rscale>
<asrwt>0</asrwt>
<pdfrwt beam="1">0</pdfrwt>
<pdfrwt beam="2">0</pdfrwt>
<totfact> 0.32910132E+11</totfact>
</mgrwt>
</event>
<event>
 4    1  0.1699693E+006  0.2554749E+01  0.7546771E-02  0.2684874E+00
         22   -1    0    0    0    0  0.00000000000E+00  0.00000000000E+00  0.19926494846E+02  0.19926494846E+02  0.00000000000E+00 0.  1.
         22   -1    0    0    0    0 -0.00000000000E+00 -0.00000000000E+00 -0.13236533580E+02  0.13236533580E+02  0.00000000000E+00 0.  1.
          4    1    1    2  501    0  0.12455114865E+01 -0.18337242132E+01  0.19720053108E+02  0.19884849457E+02  0.12700000000E+01 0.  1.
         -4    1    1    2    0  501 -0.12455114865E+01  0.18337242132E+01 -0.13030091842E+02  0.13278178970E+02  0.12700000000E+01 0.  1.
<mgrwt>
<rscale>  0 0.25547492E+01</rscale>
<asrwt>0</asrwt>
<pdfrwt beam="1">0</pdfrwt>
<pdfrwt beam="2">0</pdfrwt>
<totfact> 0.32561255E+10</totfact>
</mgrwt>
</event>
<event>
 4    1  0.1699693E+006  0.2379571E+01  0.7546771E-02  0.2764128E+00
         22   -1    0    0    0    0  0.00000000000E+00  0.00000000000E+00  0.65948407425E+00  0.65948407425E+00  0.00000000000E+00 0. -1.
         22   -1    0    0    0    0 -0.00000000000E+00 -0.00000000000E+00 -0.12214199257E+02  0.12214199257E+02  0.00000000000E+00 0.  1.
          4    1    1    2  501    0 -0.18803766250E+01 -0.71668648243E+00 -0.22691637927E+01  0.32880784790E+01  0.12700000000E+01 0. -1.
         -4    1    1    2    0  501  0.18803766250E+01  0.71668648243E+00 -0.92855513905E+01  0.95856048527E+01  0.12700000000E+01 0.  1.
<mgrwt>
<rscale>  0 0.23795705E+01</rscale>
<asrwt>0</asrwt>
<pdfrwt beam="1">0</pdfrwt>
<pdfrwt beam="2">0</pdfrwt>
<totfact> 0.19983130E+12</totfact>
</mgrwt>
</event>
<event>
 4    1  0.1699693E+006  0.2455801E+01  0.7546771E-02  0.2728343E+00
         22   -1    0    0    0    0  0.00000000000E+00  0.00000000000E+00  0.14719106839E+01  0.14719106839E+01  0.00000000000E+00 0. -1.
         22   -1    0    0    0    0 -0.00000000000E+00 -0.00000000000E+00 -0.41000422242E+01  0.41000422242E+01  0.00000000000E+00 0. -1.
          4    1    1    2  501    0  0.21005639181E+01 -0.75420622047E-01 -0.13852412762E+01  0.28195479137E+01  0.12700000000E+01 0. -1.
         -4    1    1    2    0  501 -0.21005639181E+01  0.75420622047E-01 -0.12428902640E+01  0.27524049943E+01  0.12700000000E+01 0. -1.
<mgrwt>
<rscale>  0 0.24558007E+01</rscale>
<asrwt>0</asrwt>
<pdfrwt beam="1">0</pdfrwt>
<pdfrwt beam="2">0</pdfrwt>
<totfact> 0.29523405E+12</totfact>
</mgrwt>
</event>
<event>
 4    1  0.1699693E+006  0.2776809E+01  0.7546771E-02  0.2597792E+00
         22   -1    0    0    0    0  0.00000000000E+00  0.00000000000E+00  0.87586877255E+00  0.87586877255E+00  0.00000000000E+00 0. -1.
         22   -1    0    0    0    0 -0.00000000000E+00 -0.00000000000E+00 -0.18227858103E+02  0.18227858103E+02  0.00000000000E+00 0.  1.
          4    1    1    2  501    0  0.21683683911E+00 -0.24598271702E+01 -0.15544263748E+02  0.15790338926E+02  0.12700000000E+01 0.  1.
         -4    1    1    2    0  501 -0.21683683911E+00  0.24598271702E+01 -0.18077255816E+01  0.33133879490E+01  0.12700000000E+01 0. -1.
<mgrwt>
<rscale>  0 0.27768089E+01</rscale>
<asrwt>0</asrwt>
<pdfrwt beam="1">0</pdfrwt>
<pdfrwt beam="2">0</pdfrwt>
<totfact> 0.88441132E+11</totfact>
</mgrwt>
</event>
<event>
 4    1  0.1699693E+006  0.2691279E+01  0.7546771E-02  0.2629771E+00
         22   -1    0    0    0    0  0.00000000000E+00  0.00000000000E+00  0.39355990689E+01  0.39355990689E+01  0.00000000000E+00 0. -1.
         22   -1    0    0    0    0 -0.00000000000E+00 -0.00000000000E+00 -0.19733862649E+01  0.19733862649E+01  0.00000000000E+00 0. -1.
          4    1    1    2  501    0  0.19284120546E+01  0.13825004515E+01  0.17481500470E+01  0.32092069328E+01  0.12700000000E+01 0. -1.
         -4    1    1    2    0  501 -0.19284120546E+01 -0.13825004515E+01  0.21406275694E+00  0.26997784010E+01  0.12700000000E+01 0. -1.
<mgrwt>
<rscale>  0 0.26912786E+01</rscale>
<asrwt>0</asrwt>
<pdfrwt beam="1">0</pdfrwt>
<pdfrwt beam="2">0</pdfrwt>
<totfact> 0.22090473E+12</totfact>
</mgrwt>
</event>
<event>
 4    1  0.1699693E+006  0.3352111E+01  0.7546771E-02  0.2421400E+00
         22   -1    0    0    0    0  0.00000000000E+00  0.00000000000E+00  0.12038031893E+01  0.12038031893E+01  0.00000000000E+00 0. -1.
         22   -1    0    0    0    0 -0.00000000000E+00 -0.00000000000E+00 -0.98160008797E+01  0.98160008797E+01  0.00000000000E+00 0. -1.
          4    1    1    2  501    0  0.30668578767E+01  0.46704584095E+00 -0.55266878208E+01  0.64638167767E+01  0.12700000000E+01 0. -1.
         -4    1    1    2    0  501 -0.30668578767E+01 -0.46704584095E+00 -0.30855098695E+01  0.45559872924E+01  0.12700000000E+01 0. -1.
<mgrwt>
<rscale>  0 0.33521111E+01</rscale>
<asrwt>0</asrwt>
<pdfrwt beam="1">0</pdfrwt>
<pdfrwt beam="2">0</pdfrwt>
<totfact> 0.13126528E+12</totfact>
</mgrwt>
</event>
<event>
 4    1  0.1699693E+006  0.2952404E+01  0.7546771E-02  0.2537438E+00
         22   -1    0    0    0    0  0.00000000000E+00  0.00000000000E+00  0.15429513222E+01  0.15429513222E+01  0.00000000000E+00 0. -1.
         22   -1    0    0    0    0 -0.00000000000E+00 -0.00000000000E+00 -0.66579003732E+01  0.66579003732E+01  0.00000000000E+00 0.  1.
          4    1    1    2  501    0 -0.22375481429E+01  0.14481607356E+01 -0.96157171121E+00  0.31050461130E+01  0.12700000000E+01 0. -1.
         -4    1    1    2    0  501  0.22375481429E+01 -0.14481607356E+01 -0.41533773398E+01  0.50958055825E+01  0.12700000000E+01 0.  1.
<mgrwt>
<rscale>  0 0.29524043E+01</rscale>
<asrwt>0</asrwt>
<pdfrwt beam="1">0</pdfrwt>
<pdfrwt beam="2">0</pdfrwt>
<totfact> 0.15739387E+12</totfact>
</mgrwt>
</event>
<event>
 4    1  0.1699693E+006  0.2097660E+01  0.7546771E-02  0.2917786E+00
         22   -1    0    0    0    0  0.00000000000E+00  0.00000000000E+00  0.23389827819E+01  0.23389827819E+01  0.00000000000E+00 0. -1.
         22   -1    0    0    0    0 -0.00000000000E+00 -0.00000000000E+00 -0.83492835130E+01  0.83492835130E+01  0.00000000000E+00 0. -1.
          4    1    1    2  501    0 -0.51008702482E+00  0.15896814523E+01  0.16985462839E+01  0.26991175171E+01  0.12700000000E+01 0. -1.
         -4    1    1    2    0  501  0.51008702482E+00 -0.15896814523E+01 -0.77088470151E+01  0.79891487778E+01  0.12700000000E+01 0. -1.
<mgrwt>
<rscale>  0 0.20976596E+01</rscale>
<asrwt>0</asrwt>
<pdfrwt beam="1">0</pdfrwt>
<pdfrwt beam="2">0</pdfrwt>
<totfact> 0.74165970E+11</totfact>
</mgrwt>
</event>
<event>
 4    1  0.1699693E+006  0.2194766E+01  0.7546771E-02  0.2860596E+00
         22   -1    0    0    0    0  0.00000000000E+00  0.00000000000E+00  0.61851572808E+00  0.61851572808E+00  0.00000000000E+00 0.  1.
         22   -1    0    0    0    0 -0.00000000000E+00 -0.00000000000E+00 -0.93004284640E+01  0.93004284640E+01  0.00000000000E+00 0.  1.
          4    1    1    2  501    0  0.11515069023E+01 -0.13704490058E+01 -0.23409939847E+01  0.32089330719E+01  0.12700000000E+01 0.  1.
         -4    1    1    2    0  501 -0.11515069023E+01  0.13704490058E+01 -0.63409187512E+01  0.67100111202E+01  0.12700000000E+01 0.  1.
<mgrwt>
<rscale>  0 0.21947662E+01</rscale>
<asrwt>0</asrwt>
<pdfrwt beam="1">0</pdfrwt>
<pdfrwt beam="2">0</pdfrwt>
<totfact> 0.29915322E+12</totfact>
</mgrwt>
</event>
<event>
 4    1  0.1699693E+006  0.2060750E+01  0.7546771E-02  0.2940891E+00
         22   -1    0    0    0    0  0.00000000000E+00  0.00000000000E+00  0.15556385293E+02  0.15556385293E+02  0.00000000000E+00 0.  1.
         22   -1    0    0    0    0 -0.00000000000E+00 -0.00000000000E+00 -0.37289777122E+00  0.37289777122E+00  0.00000000000E+00 0. -1.
          4    1    1    2  501    0 -0.16181404253E+01  0.12414036254E+00  0.11714405774E+02  0.11894284001E+02  0.12700000000E+01 0.  1.
         -4    1    1    2    0  501  0.16181404253E+01 -0.12414036254E+00  0.34690817483E+01  0.40349990634E+01  0.12700000000E+01 0. -1.
<mgrwt>
<rscale>  0 0.20607497E+01</rscale>
<asrwt>0</asrwt>
<pdfrwt beam="1">0</pdfrwt>
<pdfrwt beam="2">0</pdfrwt>
<totfact> 0.28276130E+12</totfact>
</mgrwt>
</event>
<event>
 4    1  0.1699693E+006  0.2960525E+01  0.7546771E-02  0.2534803E+00
         22   -1    0    0    0    0  0.00000000000E+00  0.00000000000E+00  0.77911414322E+00  0.77911414322E+00  0.00000000000E+00 0. -1.
         22   -1    0    0    0    0 -0.00000000000E+00 -0.00000000000E+00 -0.15451164005E+02  0.15451164005E+02  0.00000000000E+00 0.  1.
          4    1    1    2  501    0  0.10257771130E+01  0.24697353025E+01 -0.31042592872E+01  0.42896546332E+01  0.12700000000E+01 0. -1.
         -4    1    1    2    0  501 -0.10257771130E+01 -0.24697353025E+01 -0.11567790575E+02  0.11940623515E+02  0.12700000000E+01 0.  1.
<mgrwt>
<rscale>  0 0.29605255E+01</rscale>
<asrwt>0</asrwt>
<pdfrwt beam="1">0</pdfrwt>
<pdfrwt beam="2">0</pdfrwt>
<totfact> 0.12396213E+12</totfact>
</mgrwt>
</event>
<event>
 4    1  0.1699693E+006  0.2030279E+01  0.7546771E-02  0.2960581E+00
         22   -1    0    0    0    0  0.00000000000E+00  0.00000000000E+00  0.18626331858E+01  0.18626331858E+01  0.00000000000E+00 0.  1.
         22   -1    0    0    0    0 -0.00000000000E+00 -0.00000000000E+00 -0.40905928291E+01  0.40905928291E+01  0.00000000000E+00 0.  1.
          4    1    1    2  501    0 -0.56501157709E+00 -0.14798293452E+01  0.90266009910E+00  0.22218974386E+01  0.12700000000E+01 0.  1.
         -4    1    1    2    0  501  0.56501157709E+00  0.14798293452E+01 -0.31306197423E+01  0.37313285763E+01  0.12700000000E+01 0.  1.
<mgrwt>
<rscale>  0 0.20302790E+01</rscale>
<asrwt>0</asrwt>
<pdfrwt beam="1">0</pdfrwt>
<pdfrwt beam="2">0</pdfrwt>
<totfact> 0.22564693E+12</totfact>
</mgrwt>
</event>
<event>
 4    1  0.1699693E+006  0.3576324E+01  0.7546771E-02  0.2366422E+00
         22   -1    0    0    0    0  0.00000000000E+00  0.00000000000E+00  0.11969590262E+01  0.11969590262E+01  0.00000000000E+00 0.  1.
         22   -1    0    0    0    0 -0.00000000000E+00 -0.00000000000E+00 -0.15758963056E+02  0.15758963056E+02  0.00000000000E+00 0. -1.
          4    1    1    2  501    0 -0.25943259001E+00 -0.33331503287E+01 -0.24706131981E+01  0.43467258893E+01  0.12700000000E+01 0.  1.
         -4    1    1    2    0  501  0.25943259001E+00  0.33331503287E+01 -0.12091390832E+02  0.12609196193E+02  0.12700000000E+01 0. -1.
<mgrwt>
<rscale>  0 0.35763244E+01</rscale>
<asrwt>0</asrwt>
<pdfrwt beam="1">0</pdfrwt>
<pdfrwt beam="2">0</pdfrwt>
<totfact> 0.74114718E+11</totfact>
</mgrwt>
</event>
<event>
 4    1  0.1699693E+006  0.2820497E+01  0.7546771E-02  0.2582140E+00
         22   -1    0    0    0    0  0.00000000000E+00  0.00000000000E+00  0.43434918099E+01  0.43434918099E+01  0.00000000000E+00 0.  1.
         22   -1    0    0    0    0 -0.00000000000E+00 -0.00000000000E+00 -0.22329366314E+01  0.22329366314E+01  0.00000000000E+00 0. -1.
          4    1    1    2  501    0 -0.22524196668E+01 -0.11264598068E+01  0.24494543841E+01  0.37356435633E+01  0.12700000000E+01 0. -1.
         -4    1    1    2    0  501  0.22524196668E+01  0.11264598068E+01 -0.33889920562E+00  0.28407848781E+01  0.12700000000E+01 0.  1.
<mgrwt>
<rscale>  0 0.28204975E+01</rscale>
<asrwt>0</asrwt>
<pdfrwt beam="1">0</pdfrwt>
<pdfrwt beam="2">0</pdfrwt>
<totfact> 0.17044556E+12</totfact>
</mgrwt>
</event>
<event>
 4    1  0.1699693E+006  0.2246408E+01  0.7546771E-02  0.2832120E+00
         22   -1    0    0    0    0  0.00000000000E+00  0.00000000000E+00  0.68954261566E+01  0.68954261566E+01  0.00000000000E+00 0.  1.
         22   -1    0    0    0    0 -0.00000000000E+00 -0.00000000000E+00 -0.30221392446E+01  0.30221392446E+01  0.00000000000E+00 0. -1.
          4    1    1    2  501    0  0.10879229253E+01  0.14999581348E+01 -0.23801764371E+01  0.32728566374E+01  0.12700000000E+01 0. -1.
         -4    1    1    2    0  501 -0.10879229253E+01 -0.14999581348E+01  0.62534633491E+01  0.66447087638E+01  0.12700000000E+01 0.  1.
<mgrwt>
<rscale>  0 0.22464084E+01</rscale>
<asrwt>0</asrwt>
<pdfrwt beam="1">0</pdfrwt>
<pdfrwt beam="2">0</pdfrwt>
<totfact> 0.69220498E+11</totfact>
</mgrwt>
</event>
<event>
 4    1  0.1699693E+006  0.2756763E+01  0.7546771E-02  0.2605124E+00
         22   -1    0    0    0    0  0.00000000000E+00  0.00000000000E+00  0.16385424800E+01  0.16385424800E+01  0.00000000000E+00 0. -1.
         22   -1    0    0    0    0 -0.00000000000E+00 -0.00000000000E+00 -0.21676346904E+02  0.21676346904E+02  0.00000000000E+00 0.  1.
          4    1    1    2  501    0  0.20835190691E+01 -0.12828829135E+01  0.31638722349E+00  0.27748587633E+01  0.12700000000E+01 0. -1.
         -4    1    1    2    0  501 -0.20835190691E+01  0.12828829135E+01 -0.20354191648E+02  0.20540030621E+02  0.12700000000E+01 0.  1.
<mgrwt>
<rscale>  0 0.27567626E+01</rscale>
<asrwt>0</asrwt>
<pdfrwt beam="1">0</pdfrwt>
<pdfrwt beam="2">0</pdfrwt>
<totfact> 0.34766890E+11</totfact>
</mgrwt>
</event>
<event>
 4    1  0.1699693E+006  0.2450708E+01  0.7546771E-02  0.2730668E+00
         22   -1    0    0    0    0  0.00000000000E+00  0.00000000000E+00  0.13572974431E+02  0.13572974431E+02  0.00000000000E+00 0. -1.
         22   -1    0    0    0    0 -0.00000000000E+00 -0.00000000000E+00 -0.13680921815E+01  0.13680921815E+01  0.00000000000E+00 0.  1.
          4    1    1    2  501    0 -0.11495983200E+01 -0.17525683543E+01  0.12247201593E+02  0.12489992753E+02  0.12700000000E+01 0. -1.
         -4    1    1    2    0  501  0.11495983200E+01  0.17525683543E+01 -0.42319343338E-01  0.24510738586E+01  0.12700000000E+01 0.  1.
<mgrwt>
<rscale>  0 0.24507085E+01</rscale>
<asrwt>0</asrwt>
<pdfrwt beam="1">0</pdfrwt>
<pdfrwt beam="2">0</pdfrwt>
<totfact> 0.76390362E+11</totfact>
</mgrwt>
</event>
<event>
 4    1  0.1699693E+006  0.2029803E+01  0.7546771E-02  0.2960893E+00
         22   -1    0    0    0    0  0.00000000000E+00  0.00000000000E+00  0.92559733573E+00  0.92559733573E+00  0.00000000000E+00 0. -1.
         22   -1    0    0    0    0 -0.00000000000E+00 -0.00000000000E+00 -0.53523318044E+01  0.53523318044E+01  0.00000000000E+00 0.  1.
          4    1    1    2  501    0 -0.10666531827E+01  0.11702362568E+01 -0.35012829315E+01  0.40471081127E+01  0.12700000000E+01 0.  1.
         -4    1    1    2    0  501  0.10666531827E+01 -0.11702362568E+01 -0.92545153713E+00  0.22308210274E+01  0.12700000000E+01 0. -1.
<mgrwt>
<rscale>  0 0.20298034E+01</rscale>
<asrwt>0</asrwt>
<pdfrwt beam="1">0</pdfrwt>
<pdfrwt beam="2">0</pdfrwt>
<totfact> 0.36646914E+12</totfact>
</mgrwt>
</event>
<event>
 4    1  0.1699693E+006  0.3845315E+01  0.7546771E-02  0.2307875E+00
         22   -1    0    0    0    0  0.00000000000E+00  0.00000000000E+00  0.35563527397E+02  0.35563527397E+02  0.00000000000E+00 0.  1.
         22   -1    0    0    0    0 -0.00000000000E+00 -0.00000000000E+00 -0.88863388351E+00  0.88863388351E+00  0.00000000000E+00 0. -1.
          4    1    1    2  501    0  0.33743860110E+01  0.13368110447E+01  0.30632723523E+02  0.30873130634E+02  0.12700000000E+01 0. -1.
         -4    1    1    2    0  501 -0.33743860110E+01 -0.13368110447E+01  0.40421699905E+01  0.55790306463E+01  0.12700000000E+01 0. -1.
<mgrwt>
<rscale>  0 0.38453146E+01</rscale>
<asrwt>0</asrwt>
<pdfrwt beam="1">0</pdfrwt>
<pdfrwt beam="2">0</pdfrwt>
<totfact> 0.37394663E+11</totfact>
</mgrwt>
</event>
<event>
 4    1  0.1699693E+006  0.2819307E+01  0.7546771E-02  0.2582560E+00
         22   -1    0    0    0    0  0.00000000000E+00  0.00000000000E+00  0.61481324517E+01  0.61481324517E+01  0.00000000000E+00 0.  1.
         22   -1    0    0    0    0 -0.00000000000E+00 -0.00000000000E+00 -0.13223673396E+01  0.13223673396E+01  0.00000000000E+00 0. -1.
          4    1    1    2  501    0  0.15375129123E+01 -0.19928995928E+01  0.29711261080E+01  0.40958619474E+01  0.12700000000E+01 0.  1.
         -4    1    1    2    0  501 -0.15375129123E+01  0.19928995928E+01  0.18546390042E+01  0.33746378440E+01  0.12700000000E+01 0. -1.
<mgrwt>
<rscale>  0 0.28193075E+01</rscale>
<asrwt>0</asrwt>
<pdfrwt beam="1">0</pdfrwt>
<pdfrwt beam="2">0</pdfrwt>
<totfact> 0.20666508E+12</totfact>
</mgrwt>
</event>
<event>
 4    1  0.1699693E+006  0.2414005E+01  0.7546771E-02  0.2747701E+00
         22   -1    0    0    0    0  0.00000000000E+00  0.00000000000E+00  0.66229877286E+01  0.66229877286E+01  0.00000000000E+00 0.  1.
         22   -1    0    0    0    0 -0.00000000000E+00 -0.00000000000E+00 -0.10170479980E+01  0.10170479980E+01  0.00000000000E+00 0. -1.
          4    1    1    2  501    0  0.19884232419E+01  0.51058179562E+00  0.42058621923E+01  0.48494017713E+01  0.12700000000E+01 0.  1.
         -4    1    1    2    0  501 -0.19884232419E+01 -0.51058179562E+00  0.14000775383E+01  0.27906339553E+01  0.12700000000E+01 0. -1.
<mgrwt>
<rscale>  0 0.24140051E+01</rscale>
<asrwt>0</asrwt>
<pdfrwt beam="1">0</pdfrwt>
<pdfrwt beam="2">0</pdfrwt>
<totfact> 0.25542677E+12</totfact>
</mgrwt>
</event>
<event>
 4    1  0.1699693E+006  0.2665899E+01  0.7546771E-02  0.2639621E+00
         22   -1    0    0    0    0  0.00000000000E+00  0.00000000000E+00  0.32555197411E+01  0.32555197411E+01  0.00000000000E+00 0.  1.
         22   -1    0    0    0    0 -0.00000000000E+00 -0.00000000000E+00 -0.44963767692E+01  0.44963767692E+01  0.00000000000E+00 0. -1.
          4    1    1    2  501    0 -0.20286904762E+01 -0.11741093343E+01  0.21596913254E+01  0.34309305440E+01  0.12700000000E+01 0.  1.
         -4    1    1    2    0  501  0.20286904762E+01  0.11741093343E+01 -0.34005483534E+01  0.43209659662E+01  0.12700000000E+01 0. -1.
<mgrwt>
<rscale>  0 0.26658991E+01</rscale>
<asrwt>0</asrwt>
<pdfrwt beam="1">0</pdfrwt>
<pdfrwt beam="2">0</pdfrwt>
<totfact> 0.10545069E+12</totfact>
</mgrwt>
</event>
<event>
 4    1  0.1699693E+006  0.2228512E+01  0.7546771E-02  0.2841845E+00
         22   -1    0    0    0    0  0.00000000000E+00  0.00000000000E+00  0.89076741098E+00  0.89076741098E+00  0.00000000000E+00 0. -1.
         22   -1    0    0    0    0 -0.00000000000E+00 -0.00000000000E+00 -0.10580607642E+02  0.10580607642E+02  0.00000000000E+00 0.  1.
          4    1    1    2  501    0  0.12596501653E+01 -0.13291526653E+01 -0.89991984594E+00  0.24033562108E+01  0.12700000000E+01 0. -1.
         -4    1    1    2    0  501 -0.12596501653E+01  0.13291526653E+01 -0.87899203850E+01  0.90680188421E+01  0.12700000000E+01 0.  1.
<mgrwt>
<rscale>  0 0.22285119E+01</rscale>
<asrwt>0</asrwt>
<pdfrwt beam="1">0</pdfrwt>
<pdfrwt beam="2">0</pdfrwt>
<totfact> 0.16908399E+12</totfact>
</mgrwt>
</event>
<event>
 4    1  0.1699693E+006  0.3679045E+01  0.7546771E-02  0.2343192E+00
         22   -1    0    0    0    0  0.00000000000E+00  0.00000000000E+00  0.17385206503E+01  0.17385206503E+01  0.00000000000E+00 0. -1.
         22   -1    0    0    0    0 -0.00000000000E+00 -0.00000000000E+00 -0.85858591315E+01  0.85858591315E+01  0.00000000000E+00 0.  1.
          4    1    1    2  501    0 -0.33452113537E+01 -0.85559114617E+00 -0.18476358973E+01  0.41169325497E+01  0.12700000000E+01 0.  1.
         -4    1    1    2    0  501  0.33452113537E+01  0.85559114617E+00 -0.49997025840E+01  0.62074472320E+01  0.12700000000E+01 0.  1.
<mgrwt>
<rscale>  0 0.36790454E+01</rscale>
<asrwt>0</asrwt>
<pdfrwt beam="1">0</pdfrwt>
<pdfrwt beam="2">0</pdfrwt>
<totfact> 0.10111252E+12</totfact>
</mgrwt>
</event>
<event>
 4    1  0.1699693E+006  0.2464440E+01  0.7546771E-02  0.2724418E+00
         22   -1    0    0    0    0  0.00000000000E+00  0.00000000000E+00  0.68647826775E+01  0.68647826775E+01  0.00000000000E+00 0.  1.
         22   -1    0    0    0    0 -0.00000000000E+00 -0.00000000000E+00 -0.96658374350E+00  0.96658374350E+00  0.00000000000E+00 0. -1.
          4    1    1    2  501    0  0.20180922273E+01  0.62278889833E+00  0.40885976067E+01  0.47738970076E+01  0.12700000000E+01 0.  1.
         -4    1    1    2    0  501 -0.20180922273E+01 -0.62278889833E+00  0.18096013273E+01  0.30574694133E+01  0.12700000000E+01 0. -1.
<mgrwt>
<rscale>  0 0.24644395E+01</rscale>
<asrwt>0</asrwt>
<pdfrwt beam="1">0</pdfrwt>
<pdfrwt beam="2">0</pdfrwt>
<totfact> 0.25935768E+12</totfact>
</mgrwt>
</event>
<event>
 4    1  0.1699693E+006  0.5543366E+01  0.7546771E-02  0.2063234E+00
         22   -1    0    0    0    0  0.00000000000E+00  0.00000000000E+00  0.43234592905E+01  0.43234592905E+01  0.00000000000E+00 0.  1.
         22   -1    0    0    0    0 -0.00000000000E+00 -0.00000000000E+00 -0.71190607560E+01  0.71190607560E+01  0.00000000000E+00 0. -1.
          4    1    1    2  501    0 -0.14411482478E+01 -0.51999134496E+01 -0.16285367128E+01  0.57776327315E+01  0.12700000000E+01 0.  1.
         -4    1    1    2    0  501  0.14411482478E+01  0.51999134496E+01 -0.11670647526E+01  0.56648873150E+01  0.12700000000E+01 0. -1.
<mgrwt>
<rscale>  0 0.55433661E+01</rscale>
<asrwt>0</asrwt>
<pdfrwt beam="1">0</pdfrwt>
<pdfrwt beam="2">0</pdfrwt>
<totfact> 0.43767637E+11</totfact>
</mgrwt>
</event>
<event>
 4    1  0.1699693E+006  0.2392105E+01  0.7546771E-02  0.2758097E+00
         22   -1    0    0    0    0  0.00000000000E+00  0.00000000000E+00  0.79952462304E+01  0.79952462304E+01  0.00000000000E+00 0.  1.
         22   -1    0    0    0    0 -0.00000000000E+00 -0.00000000000E+00 -0.81509451501E+00  0.81509451501E+00  0.00000000000E+00 0.  1.
          4    1    1    2  501    0 -0.77197741932E+00 -0.18743849655E+01  0.51284005805E+01  0.56588568323E+01  0.12700000000E+01 0.  1.
         -4    1    1    2    0  501  0.77197741932E+00  0.18743849655E+01  0.20517511349E+01  0.31514839131E+01  0.12700000000E+01 0.  1.
<mgrwt>
<rscale>  0 0.23921054E+01</rscale>
<asrwt>0</asrwt>
<pdfrwt beam="1">0</pdfrwt>
<pdfrwt beam="2">0</pdfrwt>
<totfact> 0.26237627E+12</totfact>
</mgrwt>
</event>
<event>
 4    1  0.1699693E+006  0.2115123E+01  0.7546771E-02  0.2907128E+00
         22   -1    0    0    0    0  0.00000000000E+00  0.00000000000E+00  0.44409714164E+00  0.44409714164E+00  0.00000000000E+00 0.  1.
         22   -1    0    0    0    0 -0.00000000000E+00 -0.00000000000E+00 -0.13518201828E+02  0.13518201828E+02  0.00000000000E+00 0. -1.
          4    1    1    2  501    0  0.12188953993E+01 -0.11726637420E+01 -0.30131463482E+01  0.36814123869E+01  0.12700000000E+01 0. -1.
         -4    1    1    2    0  501 -0.12188953993E+01  0.11726637420E+01 -0.10060958338E+02  0.10280886583E+02  0.12700000000E+01 0.  1.
<mgrwt>
<rscale>  0 0.21151232E+01</rscale>
<asrwt>0</asrwt>
<pdfrwt beam="1">0</pdfrwt>
<pdfrwt beam="2">0</pdfrwt>
<totfact> 0.27601504E+12</totfact>
</mgrwt>
</event>
<event>
 4    1  0.1699693E+006  0.2659604E+01  0.7546771E-02  0.2642090E+00
         22   -1    0    0    0    0  0.00000000000E+00  0.00000000000E+00  0.13660828352E+02  0.13660828352E+02  0.00000000000E+00 0. -1.
         22   -1    0    0    0    0 -0.00000000000E+00 -0.00000000000E+00 -0.84233339939E+00  0.84233339939E+00  0.00000000000E+00 0.  1.
          4    1    1    2  501    0  0.99415555312E-01  0.23346758039E+01  0.10910407133E+02  0.11229892180E+02  0.12700000000E+01 0. -1.
         -4    1    1    2    0  501 -0.99415555312E-01 -0.23346758039E+01  0.19080878200E+01  0.32732695720E+01  0.12700000000E+01 0.  1.
<mgrwt>
<rscale>  0 0.26596042E+01</rscale>
<asrwt>0</asrwt>
<pdfrwt beam="1">0</pdfrwt>
<pdfrwt beam="2">0</pdfrwt>
<totfact> 0.13196531E+12</totfact>
</mgrwt>
</event>
<event>
 4    1  0.1699693E+006  0.2348131E+01  0.7546771E-02  0.2779523E+00
         22   -1    0    0    0    0  0.00000000000E+00  0.00000000000E+00  0.25646713671E+01  0.25646713671E+01  0.00000000000E+00 0.  1.
         22   -1    0    0    0    0 -0.00000000000E+00 -0.00000000000E+00 -0.29519854723E+01  0.29519854723E+01  0.00000000000E+00 0.  1.
          4    1    1    2  501    0 -0.15990647569E+01 -0.11592280165E+01  0.12441695166E+01  0.26573813194E+01  0.12700000000E+01 0.  1.
         -4    1    1    2    0  501  0.15990647569E+01  0.11592280165E+01 -0.16314836218E+01  0.28592755200E+01  0.12700000000E+01 0.  1.
<mgrwt>
<rscale>  0 0.23481307E+01</rscale>
<asrwt>0</asrwt>
<pdfrwt beam="1">0</pdfrwt>
<pdfrwt beam="2">0</pdfrwt>
<totfact> 0.22828652E+12</totfact>
</mgrwt>
</event>
<event>
 4    1  0.1699693E+006  0.2284092E+01  0.7546771E-02  0.2812116E+00
         22   -1    0    0    0    0  0.00000000000E+00  0.00000000000E+00  0.19142148333E+02  0.19142148333E+02  0.00000000000E+00 0. -1.
         22   -1    0    0    0    0 -0.00000000000E+00 -0.00000000000E+00 -0.13516112455E+01  0.13516112455E+01  0.00000000000E+00 0. -1.
          4    1    1    2  501    0  0.14832875657E+01  0.11849188819E+01  0.18050936389E+02  0.18194872335E+02  0.12700000000E+01 0. -1.
         -4    1    1    2    0  501 -0.14832875657E+01 -0.11849188819E+01 -0.26039930221E+00  0.22988872430E+01  0.12700000000E+01 0. -1.
<mgrwt>
<rscale>  0 0.22840917E+01</rscale>
<asrwt>0</asrwt>
<pdfrwt beam="1">0</pdfrwt>
<pdfrwt beam="2">0</pdfrwt>
<totfact> 0.50666906E+11</totfact>
</mgrwt>
</event>
<event>
 4    1  0.1699693E+006  0.2727635E+01  0.7546771E-02  0.2615953E+00
         22   -1    0    0    0    0  0.00000000000E+00  0.00000000000E+00  0.16785871054E+01  0.16785871054E+01  0.00000000000E+00 0.  1.
         22   -1    0    0    0    0 -0.00000000000E+00 -0.00000000000E+00 -0.71848175313E+01  0.71848175313E+01  0.00000000000E+00 0. -1.
          4    1    1    2  501    0  0.24225514896E+00 -0.24017509573E+01 -0.10101003887E-01  0.27276541658E+01  0.12700000000E+01 0.  1.
         -4    1    1    2    0  501 -0.24225514896E+00  0.24017509573E+01 -0.54961294219E+01  0.61357504709E+01  0.12700000000E+01 0. -1.
<mgrwt>
<rscale>  0 0.27276355E+01</rscale>
<asrwt>0</asrwt>
<pdfrwt beam="1">0</pdfrwt>
<pdfrwt beam="2">0</pdfrwt>
<totfact> 0.13039797E+12</totfact>
</mgrwt>
</event>
<event>
 4    1  0.1699693E+006  0.2909387E+01  0.7546771E-02  0.2551614E+00
         22   -1    0    0    0    0  0.00000000000E+00  0.00000000000E+00  0.30776316063E+02  0.30776316063E+02  0.00000000000E+00 0.  1.
         22   -1    0    0    0    0 -0.00000000000E+00 -0.00000000000E+00 -0.29561250896E+00  0.29561250896E+00  0.00000000000E+00 0. -1.
          4    1    1    2  501    0 -0.12810251655E+01 -0.22826748979E+01  0.19339417125E+02  0.19557034154E+02  0.12700000000E+01 0. -1.
         -4    1    1    2    0  501  0.12810251655E+01  0.22826748979E+01  0.11141286429E+02  0.11514894418E+02  0.12700000000E+01 0.  1.
<mgrwt>
<rscale>  0 0.29093866E+01</rscale>
<asrwt>0</asrwt>
<pdfrwt beam="1">0</pdfrwt>
<pdfrwt beam="2">0</pdfrwt>
<totfact> 0.15609157E+12</totfact>
</mgrwt>
</event>
<event>
 4    1  0.1699693E+006  0.3057538E+01  0.7546771E-02  0.2504304E+00
         22   -1    0    0    0    0  0.00000000000E+00  0.00000000000E+00  0.38304624482E+01  0.38304624482E+01  0.00000000000E+00 0.  1.
         22   -1    0    0    0    0 -0.00000000000E+00 -0.00000000000E+00 -0.24525898318E+01  0.24525898318E+01  0.00000000000E+00 0.  1.
          4    1    1    2  501    0  0.12114040463E+01 -0.25036250318E+01  0.46907276956E+00  0.30933100922E+01  0.12700000000E+01 0.  1.
         -4    1    1    2    0  501 -0.12114040463E+01  0.25036250318E+01  0.90879984686E+00  0.31897421878E+01  0.12700000000E+01 0.  1.
<mgrwt>
<rscale>  0 0.30575379E+01</rscale>
<asrwt>0</asrwt>
<pdfrwt beam="1">0</pdfrwt>
<pdfrwt beam="2">0</pdfrwt>
<totfact> 0.17722720E+12</totfact>
</mgrwt>
</event>
<event>
 4    1  0.1699693E+006  0.2738375E+01  0.7546771E-02  0.2611936E+00
         22   -1    0    0    0    0  0.00000000000E+00  0.00000000000E+00  0.22269151921E+02  0.22269151921E+02  0.00000000000E+00 0.  1.
         22   -1    0    0    0    0 -0.00000000000E+00 -0.00000000000E+00 -0.36316228729E+00  0.36316228729E+00  0.00000000000E+00 0. -1.
          4    1    1    2  501    0 -0.10910418427E+01  0.21668936353E+01  0.14005895825E+02  0.14271083287E+02  0.12700000000E+01 0.  1.
         -4    1    1    2    0  501  0.10910418427E+01 -0.21668936353E+01  0.79000938086E+01  0.83612309209E+01  0.12700000000E+01 0. -1.
<mgrwt>
<rscale>  0 0.27383755E+01</rscale>
<asrwt>0</asrwt>
<pdfrwt beam="1">0</pdfrwt>
<pdfrwt beam="2">0</pdfrwt>
<totfact> 0.18653146E+12</totfact>
</mgrwt>
</event>
<event>
 4    1  0.1699693E+006  0.2327708E+01  0.7546771E-02  0.2789732E+00
         22   -1    0    0    0    0  0.00000000000E+00  0.00000000000E+00  0.81475174377E+01  0.81475174377E+01  0.00000000000E+00 0. -1.
         22   -1    0    0    0    0 -0.00000000000E+00 -0.00000000000E+00 -0.92160242482E+00  0.92160242482E+00  0.00000000000E+00 0. -1.
          4    1    1    2  501    0  0.42087811214E+00  0.19047803828E+01  0.60056146277E+01  0.64409342295E+01  0.12700000000E+01 0. -1.
         -4    1    1    2    0  501 -0.42087811214E+00 -0.19047803828E+01  0.12203003852E+01  0.26281856331E+01  0.12700000000E+01 0. -1.
<mgrwt>
<rscale>  0 0.23277085E+01</rscale>
<asrwt>0</asrwt>
<pdfrwt beam="1">0</pdfrwt>
<pdfrwt beam="2">0</pdfrwt>
<totfact> 0.22300661E+12</totfact>
</mgrwt>
</event>
<event>
 4    1  0.1699693E+006  0.2274727E+01  0.7546771E-02  0.2817028E+00
         22   -1    0    0    0    0  0.00000000000E+00  0.00000000000E+00  0.17942032619E+01  0.17942032619E+01  0.00000000000E+00 0. -1.
         22   -1    0    0    0    0 -0.00000000000E+00 -0.00000000000E+00 -0.29852085777E+01  0.29852085777E+01  0.00000000000E+00 0.  1.
          4    1    1    2  501    0  0.32793474757E+00  0.18584787804E+01 -0.10356342048E+01  0.24993844806E+01  0.12700000000E+01 0.  1.
         -4    1    1    2    0  501 -0.32793474757E+00 -0.18584787804E+01 -0.15537111097E+00  0.22800273590E+01  0.12700000000E+01 0. -1.
<mgrwt>
<rscale>  0 0.22747274E+01</rscale>
<asrwt>0</asrwt>
<pdfrwt beam="1">0</pdfrwt>
<pdfrwt beam="2">0</pdfrwt>
<totfact> 0.34093313E+12</totfact>
</mgrwt>
</event>
<event>
 4    1  0.1699693E+006  0.2549108E+01  0.7546771E-02  0.2687268E+00
         22   -1    0    0    0    0  0.00000000000E+00  0.00000000000E+00  0.11539066022E+02  0.11539066022E+02  0.00000000000E+00 0. -1.
         22   -1    0    0    0    0 -0.00000000000E+00 -0.00000000000E+00 -0.23830441266E+01  0.23830441266E+01  0.00000000000E+00 0.  1.
          4    1    1    2  501    0  0.15924222115E+01 -0.15327242483E+01  0.10661250395E+02  0.10961761359E+02  0.12700000000E+01 0. -1.
         -4    1    1    2    0  501 -0.15924222115E+01  0.15327242483E+01 -0.15052284991E+01  0.29603487895E+01  0.12700000000E+01 0.  1.
<mgrwt>
<rscale>  0 0.25491081E+01</rscale>
<asrwt>0</asrwt>
<pdfrwt beam="1">0</pdfrwt>
<pdfrwt beam="2">0</pdfrwt>
<totfact> 0.49064637E+11</totfact>
</mgrwt>
</event>
<event>
 4    1  0.1699693E+006  0.2453016E+01  0.7546771E-02  0.2729613E+00
         22   -1    0    0    0    0  0.00000000000E+00  0.00000000000E+00  0.20042241005E+00  0.20042241005E+00  0.00000000000E+00 0.  1.
         22   -1    0    0    0    0 -0.00000000000E+00 -0.00000000000E+00 -0.36173291335E+02  0.36173291335E+02  0.00000000000E+00 0. -1.
          4    1    1    2  501    0 -0.20405539960E+01 -0.49043312533E+00 -0.10487304006E+02  0.10770368173E+02  0.12700000000E+01 0.  1.
         -4    1    1    2    0  501  0.20405539960E+01  0.49043312533E+00 -0.25485564918E+02  0.25603345572E+02  0.12700000000E+01 0. -1.
<mgrwt>
<rscale>  0 0.24530155E+01</rscale>
<asrwt>0</asrwt>
<pdfrwt beam="1">0</pdfrwt>
<pdfrwt beam="2">0</pdfrwt>
<totfact> 0.19592791E+12</totfact>
</mgrwt>
</event>
<event>
 4    1  0.1699693E+006  0.3459488E+01  0.7546771E-02  0.2394294E+00
         22   -1    0    0    0    0  0.00000000000E+00  0.00000000000E+00  0.21881528953E+00  0.21881528953E+00  0.00000000000E+00 0.  1.
         22   -1    0    0    0    0 -0.00000000000E+00 -0.00000000000E+00 -0.60252616919E+02  0.60252616919E+02  0.00000000000E+00 0.  1.
          4    1    1    2  501    0 -0.17316659157E+00 -0.32132808757E+01 -0.39199889199E+02  0.39352247380E+02  0.12700000000E+01 0.  1.
         -4    1    1    2    0  501  0.17316659157E+00  0.32132808757E+01 -0.20833912430E+02  0.21119184828E+02  0.12700000000E+01 0.  1.
<mgrwt>
<rscale>  0 0.34594885E+01</rscale>
<asrwt>0</asrwt>
<pdfrwt beam="1">0</pdfrwt>
<pdfrwt beam="2">0</pdfrwt>
<totfact> 0.90920108E+11</totfact>
</mgrwt>
</event>
<event>
 4    1  0.1699693E+006  0.2673028E+01  0.7546771E-02  0.2636837E+00
         22   -1    0    0    0    0  0.00000000000E+00  0.00000000000E+00  0.58172545271E+01  0.58172545271E+01  0.00000000000E+00 0. -1.
         22   -1    0    0    0    0 -0.00000000000E+00 -0.00000000000E+00 -0.35896988289E+01  0.35896988289E+01  0.00000000000E+00 0.  1.
          4    1    1    2  501    0  0.21502079810E+01 -0.95330155470E+00  0.49286386798E+01  0.56068313200E+01  0.12700000000E+01 0. -1.
         -4    1    1    2    0  501 -0.21502079810E+01  0.95330155470E+00 -0.27010829816E+01  0.38001220361E+01  0.12700000000E+01 0.  1.
<mgrwt>
<rscale>  0 0.26730279E+01</rscale>
<asrwt>0</asrwt>
<pdfrwt beam="1">0</pdfrwt>
<pdfrwt beam="2">0</pdfrwt>
<totfact> 0.69308598E+11</totfact>
</mgrwt>
</event>
<event>
 4    1  0.1699693E+006  0.2046869E+01  0.7546771E-02  0.2949790E+00
         22   -1    0    0    0    0  0.00000000000E+00  0.00000000000E+00  0.22052586022E+00  0.22052586022E+00  0.00000000000E+00 0. -1.
         22   -1    0    0    0    0 -0.00000000000E+00 -0.00000000000E+00 -0.26612964349E+02  0.26612964349E+02  0.00000000000E+00 0.  1.
          4    1    1    2  501    0 -0.13875370467E+01  0.80716449157E+00 -0.60196225882E+01  0.63581073974E+01  0.12700000000E+01 0. -1.
         -4    1    1    2    0  501  0.13875370467E+01 -0.80716449157E+00 -0.20372815901E+02  0.20475382812E+02  0.12700000000E+01 0.  1.
<mgrwt>
<rscale>  0 0.20468692E+01</rscale>
<asrwt>0</asrwt>
<pdfrwt beam="1">0</pdfrwt>
<pdfrwt beam="2">0</pdfrwt>
<totfact> 0.26058810E+12</totfact>
</mgrwt>
</event>
<event>
 4    1  0.1699693E+006  0.9918857E+01  0.7546771E-02  0.1782121E+00
         22   -1    0    0    0    0  0.00000000000E+00  0.00000000000E+00  0.16401044309E+02  0.16401044309E+02  0.00000000000E+00 0.  1.
         22   -1    0    0    0    0 -0.00000000000E+00 -0.00000000000E+00 -0.31987563302E+02  0.31987563302E+02  0.00000000000E+00 0. -1.
          4    1    1    2  501    0  0.20629367055E+01  0.96184779865E+01  0.14014789458E+02  0.17169684044E+02  0.12700000000E+01 0.  1.
         -4    1    1    2    0  501 -0.20629367055E+01 -0.96184779865E+01 -0.29601308452E+02  0.31218923567E+02  0.12700000000E+01 0. -1.
<mgrwt>
<rscale>  0 0.99188571E+01</rscale>
<asrwt>0</asrwt>
<pdfrwt beam="1">0</pdfrwt>
<pdfrwt beam="2">0</pdfrwt>
<totfact> 0.13764334E+10</totfact>
</mgrwt>
</event>
<event>
 4    1  0.1699693E+006  0.2587271E+01  0.7546771E-02  0.2671262E+00
         22   -1    0    0    0    0  0.00000000000E+00  0.00000000000E+00  0.35632940152E+02  0.35632940152E+02  0.00000000000E+00 0. -1.
         22   -1    0    0    0    0 -0.00000000000E+00 -0.00000000000E+00 -0.90519500977E+00  0.90519500977E+00  0.00000000000E+00 0.  1.
          4    1    1    2  501    0  0.21679781187E+01 -0.61720590786E+00  0.33627094605E+02  0.33726480158E+02  0.12700000000E+01 0. -1.
         -4    1    1    2    0  501 -0.21679781187E+01  0.61720590786E+00  0.11006505369E+01  0.28116550038E+01  0.12700000000E+01 0.  1.
<mgrwt>
<rscale>  0 0.25872712E+01</rscale>
<asrwt>0</asrwt>
<pdfrwt beam="1">0</pdfrwt>
<pdfrwt beam="2">0</pdfrwt>
<totfact> 0.36523034E+11</totfact>
</mgrwt>
</event>
<event>
 4    1  0.1699693E+006  0.2440175E+01  0.7546771E-02  0.2735507E+00
         22   -1    0    0    0    0  0.00000000000E+00  0.00000000000E+00  0.40272539312E+01  0.40272539312E+01  0.00000000000E+00 0. -1.
         22   -1    0    0    0    0 -0.00000000000E+00 -0.00000000000E+00 -0.14822614126E+01  0.14822614126E+01  0.00000000000E+00 0.  1.
          4    1    1    2  501    0 -0.17551396537E+01  0.11229604274E+01  0.11344625751E+01  0.26909962207E+01  0.12700000000E+01 0. -1.
         -4    1    1    2    0  501  0.17551396537E+01 -0.11229604274E+01  0.14105299435E+01  0.28185191231E+01  0.12700000000E+01 0.  1.
<mgrwt>
<rscale>  0 0.24401753E+01</rscale>
<asrwt>0</asrwt>
<pdfrwt beam="1">0</pdfrwt>
<pdfrwt beam="2">0</pdfrwt>
<totfact> 0.29910470E+12</totfact>
</mgrwt>
</event>
<event>
 4    1  0.1699693E+006  0.2007680E+01  0.7546771E-02  0.2975562E+00
         22   -1    0    0    0    0  0.00000000000E+00  0.00000000000E+00  0.70448057873E+00  0.70448057873E+00  0.00000000000E+00 0. -1.
         22   -1    0    0    0    0 -0.00000000000E+00 -0.00000000000E+00 -0.28923931585E+02  0.28923931585E+02  0.00000000000E+00 0. -1.
          4    1    1    2  501    0  0.15480965678E+01 -0.14586898740E+00 -0.84142784273E+00  0.21768742635E+01  0.12700000000E+01 0. -1.
         -4    1    1    2    0  501 -0.15480965678E+01  0.14586898740E+00 -0.27378023164E+02  0.27451537901E+02  0.12700000000E+01 0. -1.
<mgrwt>
<rscale>  0 0.20076804E+01</rscale>
<asrwt>0</asrwt>
<pdfrwt beam="1">0</pdfrwt>
<pdfrwt beam="2">0</pdfrwt>
<totfact> 0.63430261E+11</totfact>
</mgrwt>
</event>
<event>
 4    1  0.1699693E+006  0.2225554E+01  0.7546771E-02  0.2843467E+00
         22   -1    0    0    0    0  0.00000000000E+00  0.00000000000E+00  0.15350021693E+01  0.15350021693E+01  0.00000000000E+00 0. -1.
         22   -1    0    0    0    0 -0.00000000000E+00 -0.00000000000E+00 -0.33980603954E+01  0.33980603954E+01  0.00000000000E+00 0.  1.
          4    1    1    2  501    0  0.13145640307E+01  0.12696897503E+01 -0.37773996724E+00  0.22573830281E+01  0.12700000000E+01 0. -1.
         -4    1    1    2    0  501 -0.13145640307E+01 -0.12696897503E+01 -0.14853182589E+01  0.26756795367E+01  0.12700000000E+01 0. -1.
<mgrwt>
<rscale>  0 0.22255540E+01</rscale>
<asrwt>0</asrwt>
<pdfrwt beam="1">0</pdfrwt>
<pdfrwt beam="2">0</pdfrwt>
<totfact> 0.35073478E+12</totfact>
</mgrwt>
</event>
<event>
 4    1  0.1699693E+006  0.2855428E+01  0.7546771E-02  0.2569939E+00
         22   -1    0    0    0    0  0.00000000000E+00  0.00000000000E+00  0.47993431920E+01  0.47993431920E+01  0.00000000000E+00 0.  1.
         22   -1    0    0    0    0 -0.00000000000E+00 -0.00000000000E+00 -0.30539833055E+01  0.30539833055E+01  0.00000000000E+00 0. -1.
          4    1    1    2  501    0  0.11346469217E+01 -0.22919735339E+01  0.34883196879E+01  0.45079752175E+01  0.12700000000E+01 0. -1.
         -4    1    1    2    0  501 -0.11346469217E+01  0.22919735339E+01 -0.17429598013E+01  0.33453512799E+01  0.12700000000E+01 0. -1.
<mgrwt>
<rscale>  0 0.28554275E+01</rscale>
<asrwt>0</asrwt>
<pdfrwt beam="1">0</pdfrwt>
<pdfrwt beam="2">0</pdfrwt>
<totfact> 0.10520912E+12</totfact>
</mgrwt>
</event>
<event>
 4    1  0.1699693E+006  0.2247393E+01  0.7546771E-02  0.2831589E+00
         22   -1    0    0    0    0  0.00000000000E+00  0.00000000000E+00  0.39266671160E+00  0.39266671160E+00  0.00000000000E+00 0. -1.
         22   -1    0    0    0    0 -0.00000000000E+00 -0.00000000000E+00 -0.18588827129E+02  0.18588827129E+02  0.00000000000E+00 0. -1.
          4    1    1    2  501    0  0.10856604864E+01 -0.15030691005E+01 -0.38306009515E+01  0.44412024342E+01  0.12700000000E+01 0. -1.
         -4    1    1    2    0  501 -0.10856604864E+01  0.15030691005E+01 -0.14365559466E+02  0.14540291407E+02  0.12700000000E+01 0. -1.
<mgrwt>
<rscale>  0 0.22473930E+01</rscale>
<asrwt>0</asrwt>
<pdfrwt beam="1">0</pdfrwt>
<pdfrwt beam="2">0</pdfrwt>
<totfact> 0.21403767E+12</totfact>
</mgrwt>
</event>
<event>
 4    1  0.1699693E+006  0.2513453E+01  0.7546771E-02  0.2702629E+00
         22   -1    0    0    0    0  0.00000000000E+00  0.00000000000E+00  0.23479036679E+02  0.23479036679E+02  0.00000000000E+00 0.  1.
         22   -1    0    0    0    0 -0.00000000000E+00 -0.00000000000E+00 -0.50770159716E+00  0.50770159716E+00  0.00000000000E+00 0.  1.
          4    1    1    2  501    0  0.21076621903E+01 -0.51215937097E+00  0.19708153292E+02  0.19867781792E+02  0.12700000000E+01 0.  1.
         -4    1    1    2    0  501 -0.21076621903E+01  0.51215937097E+00  0.32631817897E+01  0.41189564846E+01  0.12700000000E+01 0.  1.
<mgrwt>
<rscale>  0 0.25134532E+01</rscale>
<asrwt>0</asrwt>
<pdfrwt beam="1">0</pdfrwt>
<pdfrwt beam="2">0</pdfrwt>
<totfact> 0.11965957E+12</totfact>
</mgrwt>
</event>
<event>
 4    1  0.1699693E+006  0.8593763E+01  0.7546771E-02  0.1843798E+00
         22   -1    0    0    0    0  0.00000000000E+00  0.00000000000E+00  0.26500620233E+02  0.26500620233E+02  0.00000000000E+00 0. -1.
         22   -1    0    0    0    0 -0.00000000000E+00 -0.00000000000E+00 -0.48497062694E+01  0.48497062694E+01  0.00000000000E+00 0.  1.
          4    1    1    2  501    0  0.81781654184E+01  0.23146231103E+01  0.21048748877E+02  0.22735492056E+02  0.12700000000E+01 0. -1.
         -4    1    1    2    0  501 -0.81781654184E+01 -0.23146231103E+01  0.60216508731E+00  0.86148344468E+01  0.12700000000E+01 0.  1.
<mgrwt>
<rscale>  0 0.85937634E+01</rscale>
<asrwt>0</asrwt>
<pdfrwt beam="1">0</pdfrwt>
<pdfrwt beam="2">0</pdfrwt>
<totfact> 0.76107413E+10</totfact>
</mgrwt>
</event>
<event>
 4    1  0.1699693E+006  0.2425950E+01  0.7546771E-02  0.2742105E+00
         22   -1    0    0    0    0  0.00000000000E+00  0.00000000000E+00  0.52548954946E+01  0.52548954946E+01  0.00000000000E+00 0. -1.
         22   -1    0    0    0    0 -0.00000000000E+00 -0.00000000000E+00 -0.12313358947E+01  0.12313358947E+01  0.00000000000E+00 0.  1.
          4    1    1    2  501    0 -0.20232176752E+01 -0.42299405161E+00  0.10363764227E+01  0.26380503821E+01  0.12700000000E+01 0. -1.
         -4    1    1    2    0  501  0.20232176752E+01  0.42299405161E+00  0.29871831772E+01  0.38481810071E+01  0.12700000000E+01 0.  1.
<mgrwt>
<rscale>  0 0.24259501E+01</rscale>
<asrwt>0</asrwt>
<pdfrwt beam="1">0</pdfrwt>
<pdfrwt beam="2">0</pdfrwt>
<totfact> 0.27028126E+12</totfact>
</mgrwt>
</event>
<event>
 4    1  0.1699693E+006  0.4423528E+01  0.7546771E-02  0.2202977E+00
         22   -1    0    0    0    0  0.00000000000E+00  0.00000000000E+00  0.59171446147E+01  0.59171446147E+01  0.00000000000E+00 0. -1.
         22   -1    0    0    0    0 -0.00000000000E+00 -0.00000000000E+00 -0.80471123114E+01  0.80471123114E+01  0.00000000000E+00 0.  1.
          4    1    1    2  501    0 -0.79283632467E+00 -0.41624646703E+01  0.42937869603E+01  0.61647553098E+01  0.12700000000E+01 0. -1.
         -4    1    1    2    0  501  0.79283632467E+00  0.41624646703E+01 -0.64237546569E+01  0.77995016163E+01  0.12700000000E+01 0.  1.
<mgrwt>
<rscale>  0 0.44235282E+01</rscale>
<asrwt>0</asrwt>
<pdfrwt beam="1">0</pdfrwt>
<pdfrwt beam="2">0</pdfrwt>
<totfact> 0.26056607E+11</totfact>
</mgrwt>
</event>
<event>
 4    1  0.1699693E+006  0.2305453E+01  0.7546771E-02  0.2801053E+00
         22   -1    0    0    0    0  0.00000000000E+00  0.00000000000E+00  0.70245456605E+01  0.70245456605E+01  0.00000000000E+00 0. -1.
         22   -1    0    0    0    0 -0.00000000000E+00 -0.00000000000E+00 -0.80956488187E+00  0.80956488187E+00  0.00000000000E+00 0.  1.
          4    1    1    2  501    0 -0.12117503869E+01  0.14946149430E+01  0.21060423516E+01  0.31225834200E+01  0.12700000000E+01 0.  1.
         -4    1    1    2    0  501  0.12117503869E+01 -0.14946149430E+01  0.41089384270E+01  0.47115271224E+01  0.12700000000E+01 0. -1.
<mgrwt>
<rscale>  0 0.23054528E+01</rscale>
<asrwt>0</asrwt>
<pdfrwt beam="1">0</pdfrwt>
<pdfrwt beam="2">0</pdfrwt>
<totfact> 0.30879740E+12</totfact>
</mgrwt>
</event>
<event>
 4    1  0.1699693E+006  0.2557536E+01  0.7546771E-02  0.2683695E+00
         22   -1    0    0    0    0  0.00000000000E+00  0.00000000000E+00  0.41771776215E+00  0.41771776215E+00  0.00000000000E+00 0. -1.
         22   -1    0    0    0    0 -0.00000000000E+00 -0.00000000000E+00 -0.18714093797E+02  0.18714093797E+02  0.00000000000E+00 0. -1.
          4    1    1    2  501    0 -0.16284281189E+01 -0.15087452461E+01 -0.52830693344E+01  0.58695665895E+01  0.12700000000E+01 0. -1.
         -4    1    1    2    0  501  0.16284281189E+01  0.15087452461E+01 -0.13013306700E+02  0.13262244970E+02  0.12700000000E+01 0. -1.
<mgrwt>
<rscale>  0 0.25575360E+01</rscale>
<asrwt>0</asrwt>
<pdfrwt beam="1">0</pdfrwt>
<pdfrwt beam="2">0</pdfrwt>
<totfact> 0.19799009E+12</totfact>
</mgrwt>
</event>
<event>
 4    1  0.1699693E+006  0.2615309E+01  0.7546771E-02  0.2659778E+00
         22   -1    0    0    0    0  0.00000000000E+00  0.00000000000E+00  0.73209375317E+01  0.73209375317E+01  0.00000000000E+00 0. -1.
         22   -1    0    0    0    0 -0.00000000000E+00 -0.00000000000E+00 -0.11310424484E+01  0.11310424484E+01  0.00000000000E+00 0.  1.
          4    1    1    2  501    0  0.14728533075E+01 -0.17486127811E+01  0.48575500807E+01  0.55168502164E+01  0.12700000000E+01 0. -1.
         -4    1    1    2    0  501 -0.14728533075E+01  0.17486127811E+01  0.13323450027E+01  0.29351297637E+01  0.12700000000E+01 0.  1.
<mgrwt>
<rscale>  0 0.26153095E+01</rscale>
<asrwt>0</asrwt>
<pdfrwt beam="1">0</pdfrwt>
<pdfrwt beam="2">0</pdfrwt>
<totfact> 0.20066941E+12</totfact>
</mgrwt>
</event>
<event>
 4    1  0.1699693E+006  0.2407566E+01  0.7546771E-02  0.2750739E+00
         22   -1    0    0    0    0  0.00000000000E+00  0.00000000000E+00  0.36802318158E+01  0.36802318158E+01  0.00000000000E+00 0. -1.
         22   -1    0    0    0    0 -0.00000000000E+00 -0.00000000000E+00 -0.25849571885E+01  0.25849571885E+01  0.00000000000E+00 0.  1.
          4    1    1    2  501    0 -0.60656726651E+00 -0.19533430174E+01  0.25057087741E+01  0.34749027689E+01  0.12700000000E+01 0. -1.
         -4    1    1    2    0  501  0.60656726651E+00  0.19533430174E+01 -0.14104341469E+01  0.27902862354E+01  0.12700000000E+01 0. -1.
<mgrwt>
<rscale>  0 0.24075657E+01</rscale>
<asrwt>0</asrwt>
<pdfrwt beam="1">0</pdfrwt>
<pdfrwt beam="2">0</pdfrwt>
<totfact> 0.17473193E+12</totfact>
</mgrwt>
</event>
<event>
 4    1  0.1699693E+006  0.2339348E+01  0.7546771E-02  0.2783892E+00
         22   -1    0    0    0    0  0.00000000000E+00  0.00000000000E+00  0.20787445518E+02  0.20787445518E+02  0.00000000000E+00 0. -1.
         22   -1    0    0    0    0 -0.00000000000E+00 -0.00000000000E+00 -0.29353338684E+00  0.29353338684E+00  0.00000000000E+00 0. -1.
          4    1    1    2  501    0  0.12188237298E+01  0.15408179513E+01  0.13631856129E+02  0.13831126229E+02  0.12700000000E+01 0. -1.
         -4    1    1    2    0  501 -0.12188237298E+01 -0.15408179513E+01  0.68620560023E+01  0.72498526759E+01  0.12700000000E+01 0. -1.
<mgrwt>
<rscale>  0 0.23393485E+01</rscale>
<asrwt>0</asrwt>
<pdfrwt beam="1">0</pdfrwt>
<pdfrwt beam="2">0</pdfrwt>
<totfact> 0.25818376E+12</totfact>
</mgrwt>
</event>
<event>
 4    1  0.1699693E+006  0.2150509E+01  0.7546771E-02  0.2886043E+00
         22   -1    0    0    0    0  0.00000000000E+00  0.00000000000E+00  0.18539125753E+00  0.18539125753E+00  0.00000000000E+00 0.  1.
         22   -1    0    0    0    0 -0.00000000000E+00 -0.00000000000E+00 -0.26450576616E+02  0.26450576616E+02  0.00000000000E+00 0. -1.
          4    1    1    2  501    0  0.12560439137E+01  0.11975577204E+01 -0.99557921082E+01  0.10185405604E+02  0.12700000000E+01 0.  1.
         -4    1    1    2    0  501 -0.12560439137E+01 -0.11975577204E+01 -0.16309393251E+02  0.16450562270E+02  0.12700000000E+01 0. -1.
<mgrwt>
<rscale>  0 0.21505094E+01</rscale>
<asrwt>0</asrwt>
<pdfrwt beam="1">0</pdfrwt>
<pdfrwt beam="2">0</pdfrwt>
<totfact> 0.31873107E+12</totfact>
</mgrwt>
</event>
<event>
 4    1  0.1699693E+006  0.2006255E+01  0.7546771E-02  0.2976518E+00
         22   -1    0    0    0    0  0.00000000000E+00  0.00000000000E+00  0.12125438425E+01  0.12125438425E+01  0.00000000000E+00 0. -1.
         22   -1    0    0    0    0 -0.00000000000E+00 -0.00000000000E+00 -0.59990410313E+01  0.59990410313E+01  0.00000000000E+00 0. -1.
          4    1    1    2  501    0 -0.17670408930E+00 -0.15430276690E+01  0.16594209360E-01  0.20063235258E+01  0.12700000000E+01 0. -1.
         -4    1    1    2    0  501  0.17670408930E+00  0.15430276690E+01 -0.48030913982E+01  0.52052613481E+01  0.12700000000E+01 0. -1.
<mgrwt>
<rscale>  0 0.20062549E+01</rscale>
<asrwt>0</asrwt>
<pdfrwt beam="1">0</pdfrwt>
<pdfrwt beam="2">0</pdfrwt>
<totfact> 0.23501742E+12</totfact>
</mgrwt>
</event>
<event>
 4    1  0.1699693E+006  0.2430886E+01  0.7546771E-02  0.2739807E+00
         22   -1    0    0    0    0  0.00000000000E+00  0.00000000000E+00  0.13279061022E+01  0.13279061022E+01  0.00000000000E+00 0. -1.
         22   -1    0    0    0    0 -0.00000000000E+00 -0.00000000000E+00 -0.46467791386E+01  0.46467791386E+01  0.00000000000E+00 0.  1.
          4    1    1    2  501    0  0.19134851082E+01 -0.79679380774E+00 -0.10447141210E+01  0.26458709768E+01  0.12700000000E+01 0.  1.
         -4    1    1    2    0  501 -0.19134851082E+01  0.79679380774E+00 -0.22741589154E+01  0.33288142640E+01  0.12700000000E+01 0. -1.
<mgrwt>
<rscale>  0 0.24308858E+01</rscale>
<asrwt>0</asrwt>
<pdfrwt beam="1">0</pdfrwt>
<pdfrwt beam="2">0</pdfrwt>
<totfact> 0.28669565E+12</totfact>
</mgrwt>
</event>
<event>
 4    1  0.1699693E+006  0.2608446E+01  0.7546771E-02  0.2662568E+00
         22   -1    0    0    0    0  0.00000000000E+00  0.00000000000E+00  0.28756316368E+02  0.28756316368E+02  0.00000000000E+00 0.  1.
         22   -1    0    0    0    0 -0.00000000000E+00 -0.00000000000E+00 -0.31314105130E+00  0.31314105130E+00  0.00000000000E+00 0. -1.
          4    1    1    2  501    0 -0.14470124694E+01 -0.17598999865E+01  0.21407130976E+02  0.21565464282E+02  0.12700000000E+01 0. -1.
         -4    1    1    2    0  501  0.14470124694E+01  0.17598999865E+01  0.70360443405E+01  0.75039931377E+01  0.12700000000E+01 0. -1.
<mgrwt>
<rscale>  0 0.26084465E+01</rscale>
<asrwt>0</asrwt>
<pdfrwt beam="1">0</pdfrwt>
<pdfrwt beam="2">0</pdfrwt>
<totfact> 0.15954150E+12</totfact>
</mgrwt>
</event>
<event>
 4    1  0.1699693E+006  0.2746637E+01  0.7546771E-02  0.2608865E+00
         22   -1    0    0    0    0  0.00000000000E+00  0.00000000000E+00  0.52830779238E+02  0.52830779238E+02  0.00000000000E+00 0. -1.
         22   -1    0    0    0    0 -0.00000000000E+00 -0.00000000000E+00 -0.18541123454E+00  0.18541123454E+00  0.00000000000E+00 0.  1.
          4    1    1    2  501    0 -0.23606740471E+01  0.59860740338E+00  0.13614192043E+02  0.13888492998E+02  0.12700000000E+01 0.  1.
         -4    1    1    2    0  501  0.23606740471E+01 -0.59860740338E+00  0.39031175961E+02  0.39127697475E+02  0.12700000000E+01 0. -1.
<mgrwt>
<rscale>  0 0.27466366E+01</rscale>
<asrwt>0</asrwt>
<pdfrwt beam="1">0</pdfrwt>
<pdfrwt beam="2">0</pdfrwt>
<totfact> 0.13029756E+12</totfact>
</mgrwt>
</event>
<event>
 4    1  0.1699693E+006  0.2912786E+01  0.7546771E-02  0.2550480E+00
         22   -1    0    0    0    0  0.00000000000E+00  0.00000000000E+00  0.21389059706E+00  0.21389059706E+00  0.00000000000E+00 0. -1.
         22   -1    0    0    0    0 -0.00000000000E+00 -0.00000000000E+00 -0.44728879922E+02  0.44728879922E+02  0.00000000000E+00 0.  1.
          4    1    1    2  501    0 -0.23281776925E+01 -0.12045796318E+01 -0.14697756280E+02  0.14983603142E+02  0.12700000000E+01 0. -1.
         -4    1    1    2    0  501  0.23281776925E+01  0.12045796318E+01 -0.29817233045E+02  0.29959167377E+02  0.12700000000E+01 0.  1.
<mgrwt>
<rscale>  0 0.29127862E+01</rscale>
<asrwt>0</asrwt>
<pdfrwt beam="1">0</pdfrwt>
<pdfrwt beam="2">0</pdfrwt>
<totfact> 0.13831567E+12</totfact>
</mgrwt>
</event>
<event>
 4    1  0.1699693E+006  0.2894523E+01  0.7546771E-02  0.2556600E+00
         22   -1    0    0    0    0  0.00000000000E+00  0.00000000000E+00  0.79444537784E+02  0.79444537784E+02  0.00000000000E+00 0.  1.
         22   -1    0    0    0    0 -0.00000000000E+00 -0.00000000000E+00 -0.10790717413E+00  0.10790717413E+00  0.00000000000E+00 0.  1.
          4    1    1    2  501    0 -0.24051039906E+01 -0.99037133199E+00  0.45657759855E+02  0.45749418527E+02  0.12700000000E+01 0.  1.
         -4    1    1    2    0  501  0.24051039906E+01  0.99037133199E+00  0.33678870755E+02  0.33803026431E+02  0.12700000000E+01 0.  1.
<mgrwt>
<rscale>  0 0.28945225E+01</rscale>
<asrwt>0</asrwt>
<pdfrwt beam="1">0</pdfrwt>
<pdfrwt beam="2">0</pdfrwt>
<totfact> 0.13719569E+12</totfact>
</mgrwt>
</event>
<event>
 4    1  0.1699693E+006  0.2011852E+01  0.7546771E-02  0.2972772E+00
         22   -1    0    0    0    0  0.00000000000E+00  0.00000000000E+00  0.87404347839E+01  0.87404347839E+01  0.00000000000E+00 0.  1.
         22   -1    0    0    0    0 -0.00000000000E+00 -0.00000000000E+00 -0.54082344567E+00  0.54082344567E+00  0.00000000000E+00 0.  1.
          4    1    1    2  501    0  0.14113517528E+01  0.66538460130E+00  0.58592334417E+01  0.61950114578E+01  0.12700000000E+01 0.  1.
         -4    1    1    2    0  501 -0.14113517528E+01 -0.66538460130E+00  0.23403778965E+01  0.30862467718E+01  0.12700000000E+01 0.  1.
<mgrwt>
<rscale>  0 0.20118525E+01</rscale>
<asrwt>0</asrwt>
<pdfrwt beam="1">0</pdfrwt>
<pdfrwt beam="2">0</pdfrwt>
<totfact> 0.37530258E+12</totfact>
</mgrwt>
</event>
<event>
 4    1  0.1699693E+006  0.3160559E+01  0.7546771E-02  0.2473754E+00
         22   -1    0    0    0    0  0.00000000000E+00  0.00000000000E+00  0.17761403506E+02  0.17761403506E+02  0.00000000000E+00 0. -1.
         22   -1    0    0    0    0 -0.00000000000E+00 -0.00000000000E+00 -0.97589383638E+00  0.97589383638E+00  0.00000000000E+00 0.  1.
          4    1    1    2  501    0 -0.28605009581E+01  0.44018955970E+00  0.14491024989E+02  0.14831686951E+02  0.12700000000E+01 0.  1.
         -4    1    1    2    0  501  0.28605009581E+01 -0.44018955970E+00  0.22944846805E+01  0.39056103913E+01  0.12700000000E+01 0. -1.
<mgrwt>
<rscale>  0 0.31605589E+01</rscale>
<asrwt>0</asrwt>
<pdfrwt beam="1">0</pdfrwt>
<pdfrwt beam="2">0</pdfrwt>
<totfact> 0.80736446E+11</totfact>
</mgrwt>
</event>
<event>
 4    1  0.1699693E+006  0.2071314E+01  0.7546771E-02  0.2934196E+00
         22   -1    0    0    0    0  0.00000000000E+00  0.00000000000E+00  0.10284151058E+02  0.10284151058E+02  0.00000000000E+00 0.  1.
         22   -1    0    0    0    0 -0.00000000000E+00 -0.00000000000E+00 -0.79345325817E+00  0.79345325817E+00  0.00000000000E+00 0.  1.
          4    1    1    2  501    0 -0.12840975440E+01  0.10141672079E+01  0.85595789591E+01  0.88066300925E+01  0.12700000000E+01 0.  1.
         -4    1    1    2    0  501  0.12840975440E+01 -0.10141672079E+01  0.93111884033E+00  0.22709742233E+01  0.12700000000E+01 0.  1.
<mgrwt>
<rscale>  0 0.20713140E+01</rscale>
<asrwt>0</asrwt>
<pdfrwt beam="1">0</pdfrwt>
<pdfrwt beam="2">0</pdfrwt>
<totfact> 0.19964474E+12</totfact>
</mgrwt>
</event>
<event>
 4    1  0.1699693E+006  0.2996591E+01  0.7546771E-02  0.2523259E+00
         22   -1    0    0    0    0  0.00000000000E+00  0.00000000000E+00  0.15792736043E+01  0.15792736043E+01  0.00000000000E+00 0. -1.
         22   -1    0    0    0    0 -0.00000000000E+00 -0.00000000000E+00 -0.63458886766E+01  0.63458886766E+01  0.00000000000E+00 0.  1.
          4    1    1    2  501    0 -0.26698169390E+01 -0.48860279199E+00 -0.11053753369E+01  0.31939645915E+01  0.12700000000E+01 0. -1.
         -4    1    1    2    0  501  0.26698169390E+01  0.48860279199E+00 -0.36612397354E+01  0.47311976894E+01  0.12700000000E+01 0.  1.
<mgrwt>
<rscale>  0 0.29965906E+01</rscale>
<asrwt>0</asrwt>
<pdfrwt beam="1">0</pdfrwt>
<pdfrwt beam="2">0</pdfrwt>
<totfact> 0.16226565E+12</totfact>
</mgrwt>
</event>
<event>
 4    1  0.1699693E+006  0.2131260E+01  0.7546771E-02  0.2897429E+00
         22   -1    0    0    0    0  0.00000000000E+00  0.00000000000E+00  0.88975458963E+01  0.88975458963E+01  0.00000000000E+00 0. -1.
         22   -1    0    0    0    0 -0.00000000000E+00 -0.00000000000E+00 -0.76653267174E+00  0.76653267174E+00  0.00000000000E+00 0.  1.
          4    1    1    2  501    0 -0.13559254289E+01 -0.10444315138E+01  0.68580876376E+01  0.71816179932E+01  0.12700000000E+01 0. -1.
         -4    1    1    2    0  501  0.13559254289E+01  0.10444315138E+01  0.12729255870E+01  0.24824605748E+01  0.12700000000E+01 0.  1.
<mgrwt>
<rscale>  0 0.21312604E+01</rscale>
<asrwt>0</asrwt>
<pdfrwt beam="1">0</pdfrwt>
<pdfrwt beam="2">0</pdfrwt>
<totfact> 0.24737374E+12</totfact>
</mgrwt>
</event>
<event>
 4    1  0.1699693E+006  0.2049609E+01  0.7546771E-02  0.2948024E+00
         22   -1    0    0    0    0  0.00000000000E+00  0.00000000000E+00  0.83875267056E+00  0.83875267056E+00  0.00000000000E+00 0.  1.
         22   -1    0    0    0    0 -0.00000000000E+00 -0.00000000000E+00 -0.67624854309E+01  0.67624854309E+01  0.00000000000E+00 0.  1.
          4    1    1    2  501    0 -0.22133591893E+00  0.15934264123E+01 -0.10262758619E+01  0.22921909748E+01  0.12700000000E+01 0.  1.
         -4    1    1    2    0  501  0.22133591893E+00 -0.15934264123E+01 -0.48974568984E+01  0.53090471266E+01  0.12700000000E+01 0.  1.
<mgrwt>
<rscale>  0 0.20496091E+01</rscale>
<asrwt>0</asrwt>
<pdfrwt beam="1">0</pdfrwt>
<pdfrwt beam="2">0</pdfrwt>
<totfact> 0.31037156E+12</totfact>
</mgrwt>
</event>
<event>
 4    1  0.1699693E+006  0.2172996E+01  0.7546771E-02  0.2872990E+00
         22   -1    0    0    0    0  0.00000000000E+00  0.00000000000E+00  0.14607563504E+02  0.14607563504E+02  0.00000000000E+00 0. -1.
         22   -1    0    0    0    0 -0.00000000000E+00 -0.00000000000E+00 -0.34333278620E+00  0.34333278620E+00  0.00000000000E+00 0.  1.
          4    1    1    2  501    0  0.16758246890E+01  0.54828929102E+00  0.89400417551E+01  0.92003400001E+01  0.12700000000E+01 0. -1.
         -4    1    1    2    0  501 -0.16758246890E+01 -0.54828929102E+00  0.53241889628E+01  0.57505562902E+01  0.12700000000E+01 0.  1.
<mgrwt>
<rscale>  0 0.21729955E+01</rscale>
<asrwt>0</asrwt>
<pdfrwt beam="1">0</pdfrwt>
<pdfrwt beam="2">0</pdfrwt>
<totfact> 0.33526957E+12</totfact>
</mgrwt>
</event>
<event>
 4    1  0.1699693E+006  0.2508138E+01  0.7546771E-02  0.2704953E+00
         22   -1    0    0    0    0  0.00000000000E+00  0.00000000000E+00  0.63871244201E+01  0.63871244201E+01  0.00000000000E+00 0. -1.
         22   -1    0    0    0    0 -0.00000000000E+00 -0.00000000000E+00 -0.98618635375E+00  0.98618635375E+00  0.00000000000E+00 0.  1.
          4    1    1    2  501    0 -0.13755204577E+01  0.16690709433E+01  0.25679346511E+01  0.35895741691E+01  0.12700000000E+01 0.  1.
         -4    1    1    2    0  501  0.13755204577E+01 -0.16690709433E+01  0.28330034152E+01  0.37837366047E+01  0.12700000000E+01 0. -1.
<mgrwt>
<rscale>  0 0.25081376E+01</rscale>
<asrwt>0</asrwt>
<pdfrwt beam="1">0</pdfrwt>
<pdfrwt beam="2">0</pdfrwt>
<totfact> 0.27627804E+12</totfact>
</mgrwt>
</event>
<event>
 4    1  0.1699693E+006  0.2056330E+01  0.7546771E-02  0.2943712E+00
         22   -1    0    0    0    0  0.00000000000E+00  0.00000000000E+00  0.18235355203E+00  0.18235355203E+00  0.00000000000E+00 0.  1.
         22   -1    0    0    0    0 -0.00000000000E+00 -0.00000000000E+00 -0.27438350591E+02  0.27438350591E+02  0.00000000000E+00 0.  1.
          4    1    1    2  501    0  0.14361324206E+01  0.74371857302E+00 -0.81927944073E+01  0.84469150491E+01  0.12700000000E+01 0.  1.
         -4    1    1    2    0  501 -0.14361324206E+01 -0.74371857302E+00 -0.19063202632E+02  0.19173789094E+02  0.12700000000E+01 0.  1.
<mgrwt>
<rscale>  0 0.20563301E+01</rscale>
<asrwt>0</asrwt>
<pdfrwt beam="1">0</pdfrwt>
<pdfrwt beam="2">0</pdfrwt>
<totfact> 0.30991309E+12</totfact>
</mgrwt>
</event>
<event>
 4    1  0.1699693E+006  0.3208627E+01  0.7546771E-02  0.2460098E+00
         22   -1    0    0    0    0  0.00000000000E+00  0.00000000000E+00  0.29704653959E+01  0.29704653959E+01  0.00000000000E+00 0.  1.
         22   -1    0    0    0    0 -0.00000000000E+00 -0.00000000000E+00 -0.65924925485E+01  0.65924925485E+01  0.00000000000E+00 0. -1.
          4    1    1    2  501    0 -0.29244252449E+01 -0.36072555465E+00  0.14818538159E+01  0.35342858784E+01  0.12700000000E+01 0.  1.
         -4    1    1    2    0  501  0.29244252449E+01  0.36072555465E+00 -0.51038809684E+01  0.60286720659E+01  0.12700000000E+01 0. -1.
<mgrwt>
<rscale>  0 0.32086268E+01</rscale>
<asrwt>0</asrwt>
<pdfrwt beam="1">0</pdfrwt>
<pdfrwt beam="2">0</pdfrwt>
<totfact> 0.74528125E+11</totfact>
</mgrwt>
</event>
<event>
 4    1  0.1699693E+006  0.2210361E+01  0.7546771E-02  0.2851863E+00
         22   -1    0    0    0    0  0.00000000000E+00  0.00000000000E+00  0.43877151202E+01  0.43877151202E+01  0.00000000000E+00 0. -1.
         22   -1    0    0    0    0 -0.00000000000E+00 -0.00000000000E+00 -0.12397207297E+01  0.12397207297E+01  0.00000000000E+00 0. -1.
          4    1    1    2  501    0 -0.94701913075E+00 -0.15414121953E+01  0.24718256752E+01  0.33159642577E+01  0.12700000000E+01 0. -1.
         -4    1    1    2    0  501  0.94701913075E+00  0.15414121953E+01  0.67616871523E+00  0.23114715922E+01  0.12700000000E+01 0. -1.
<mgrwt>
<rscale>  0 0.22103612E+01</rscale>
<asrwt>0</asrwt>
<pdfrwt beam="1">0</pdfrwt>
<pdfrwt beam="2">0</pdfrwt>
<totfact> 0.33193796E+12</totfact>
</mgrwt>
</event>
<event>
 4    1  0.1699693E+006  0.2217618E+01  0.7546771E-02  0.2847839E+00
         22   -1    0    0    0    0  0.00000000000E+00  0.00000000000E+00  0.25364937855E+02  0.25364937855E+02  0.00000000000E+00 0.  1.
         22   -1    0    0    0    0 -0.00000000000E+00 -0.00000000000E+00 -0.11213321186E+01  0.11213321186E+01  0.00000000000E+00 0. -1.
          4    1    1    2  501    0 -0.11129646013E+01 -0.14374417289E+01  0.24165747032E+02  0.24267285768E+02  0.12700000000E+01 0.  1.
         -4    1    1    2    0  501  0.11129646013E+01  0.14374417289E+01  0.77858704475E-01  0.22189842058E+01  0.12700000000E+01 0. -1.
<mgrwt>
<rscale>  0 0.22176178E+01</rscale>
<asrwt>0</asrwt>
<pdfrwt beam="1">0</pdfrwt>
<pdfrwt beam="2">0</pdfrwt>
<totfact> 0.44107722E+11</totfact>
</mgrwt>
</event>
<event>
 4    1  0.1699693E+006  0.3645505E+01  0.7546771E-02  0.2350653E+00
         22   -1    0    0    0    0  0.00000000000E+00  0.00000000000E+00  0.33931163512E+01  0.33931163512E+01  0.00000000000E+00 0.  1.
         22   -1    0    0    0    0 -0.00000000000E+00 -0.00000000000E+00 -0.39169131483E+01  0.39169131483E+01  0.00000000000E+00 0. -1.
          4    1    1    2  501    0 -0.46300670044E-01 -0.34168203477E+01 -0.23289273448E+00  0.36529363622E+01  0.12700000000E+01 0. -1.
         -4    1    1    2    0  501  0.46300670044E-01  0.34168203477E+01 -0.29090406257E+00  0.36570931372E+01  0.12700000000E+01 0.  1.
<mgrwt>
<rscale>  0 0.36455048E+01</rscale>
<asrwt>0</asrwt>
<pdfrwt beam="1">0</pdfrwt>
<pdfrwt beam="2">0</pdfrwt>
<totfact> 0.11819571E+12</totfact>
</mgrwt>
</event>
<event>
 4    1  0.1699693E+006  0.2274753E+01  0.7546771E-02  0.2817015E+00
         22   -1    0    0    0    0  0.00000000000E+00  0.00000000000E+00  0.62962634296E+01  0.62962634296E+01  0.00000000000E+00 0. -1.
         22   -1    0    0    0    0 -0.00000000000E+00 -0.00000000000E+00 -0.82213243939E+00  0.82213243939E+00  0.00000000000E+00 0. -1.
          4    1    1    2  501    0  0.10776920255E+01 -0.15492516158E+01  0.26695661577E+01  0.35072901421E+01  0.12700000000E+01 0. -1.
         -4    1    1    2    0  501 -0.10776920255E+01  0.15492516158E+01  0.28045648326E+01  0.36111057269E+01  0.12700000000E+01 0. -1.
<mgrwt>
<rscale>  0 0.22747529E+01</rscale>
<asrwt>0</asrwt>
<pdfrwt beam="1">0</pdfrwt>
<pdfrwt beam="2">0</pdfrwt>
<totfact> 0.34580029E+12</totfact>
</mgrwt>
</event>
<event>
 4    1  0.1699693E+006  0.2310875E+01  0.7546771E-02  0.2798276E+00
         22   -1    0    0    0    0  0.00000000000E+00  0.00000000000E+00  0.19893058155E+02  0.19893058155E+02  0.00000000000E+00 0. -1.
         22   -1    0    0    0    0 -0.00000000000E+00 -0.00000000000E+00 -0.37348293844E+00  0.37348293844E+00  0.00000000000E+00 0. -1.
          4    1    1    2  501    0 -0.18969396216E+01 -0.35897294993E+00  0.15133724920E+02  0.15309140129E+02  0.12700000000E+01 0. -1.
         -4    1    1    2    0  501  0.18969396216E+01  0.35897294993E+00  0.43858502960E+01  0.49574009648E+01  0.12700000000E+01 0. -1.
<mgrwt>
<rscale>  0 0.23108746E+01</rscale>
<asrwt>0</asrwt>
<pdfrwt beam="1">0</pdfrwt>
<pdfrwt beam="2">0</pdfrwt>
<totfact> 0.20811942E+12</totfact>
</mgrwt>
</event>
<event>
 4    1  0.1699693E+006  0.2179730E+01  0.7546771E-02  0.2869131E+00
         22   -1    0    0    0    0  0.00000000000E+00  0.00000000000E+00  0.70617682713E+01  0.70617682713E+01  0.00000000000E+00 0.  1.
         22   -1    0    0    0    0 -0.00000000000E+00 -0.00000000000E+00 -0.71405734022E+00  0.71405734022E+00  0.00000000000E+00 0. -1.
          4    1    1    2  501    0 -0.10809132791E+01 -0.14035482702E+01  0.22394116366E+01  0.31250897174E+01  0.12700000000E+01 0.  1.
         -4    1    1    2    0  501  0.10809132791E+01  0.14035482702E+01  0.41082992945E+01  0.46507358941E+01  0.12700000000E+01 0. -1.
<mgrwt>
<rscale>  0 0.21797296E+01</rscale>
<asrwt>0</asrwt>
<pdfrwt beam="1">0</pdfrwt>
<pdfrwt beam="2">0</pdfrwt>
<totfact> 0.35390478E+12</totfact>
</mgrwt>
</event>
<event>
 4    1  0.1699693E+006  0.2106081E+01  0.7546771E-02  0.2912625E+00
         22   -1    0    0    0    0  0.00000000000E+00  0.00000000000E+00  0.17259050170E+01  0.17259050170E+01  0.00000000000E+00 0. -1.
         22   -1    0    0    0    0 -0.00000000000E+00 -0.00000000000E+00 -0.29988635742E+01  0.29988635742E+01  0.00000000000E+00 0.  1.
          4    1    1    2  501    0  0.10376567257E+01  0.13213424868E+01  0.25689062347E+00  0.21216904204E+01  0.12700000000E+01 0. -1.
         -4    1    1    2    0  501 -0.10376567257E+01 -0.13213424868E+01 -0.15298491807E+01  0.26030781708E+01  0.12700000000E+01 0.  1.
<mgrwt>
<rscale>  0 0.21060811E+01</rscale>
<asrwt>0</asrwt>
<pdfrwt beam="1">0</pdfrwt>
<pdfrwt beam="2">0</pdfrwt>
<totfact> 0.35464607E+12</totfact>
</mgrwt>
</event>
<event>
 4    1  0.1699693E+006  0.2924850E+01  0.7546771E-02  0.2546475E+00
         22   -1    0    0    0    0  0.00000000000E+00  0.00000000000E+00  0.20655758823E+01  0.20655758823E+01  0.00000000000E+00 0. -1.
         22   -1    0    0    0    0 -0.00000000000E+00 -0.00000000000E+00 -0.64517381892E+01  0.64517381892E+01  0.00000000000E+00 0.  1.
          4    1    1    2  501    0 -0.24178327209E+00  0.26236217835E+01  0.35524515369E+00  0.29463451144E+01  0.12700000000E+01 0. -1.
         -4    1    1    2    0  501  0.24178327209E+00 -0.26236217835E+01 -0.47414074606E+01  0.55709689571E+01  0.12700000000E+01 0.  1.
<mgrwt>
<rscale>  0 0.29248505E+01</rscale>
<asrwt>0</asrwt>
<pdfrwt beam="1">0</pdfrwt>
<pdfrwt beam="2">0</pdfrwt>
<totfact> 0.11668211E+12</totfact>
</mgrwt>
</event>
<event>
 4    1  0.1699693E+006  0.2231960E+01  0.7546771E-02  0.2839960E+00
         22   -1    0    0    0    0  0.00000000000E+00  0.00000000000E+00  0.80457373446E-01  0.80457373446E-01  0.00000000000E+00 0. -1.
         22   -1    0    0    0    0 -0.00000000000E+00 -0.00000000000E+00 -0.64224714884E+02  0.64224714884E+02  0.00000000000E+00 0.  1.
          4    1    1    2  501    0  0.11907976570E+01  0.13966916288E+01 -0.25976843344E+02  0.26072553321E+02  0.12700000000E+01 0.  1.
         -4    1    1    2    0  501 -0.11907976570E+01 -0.13966916288E+01 -0.38167414167E+02  0.38232618936E+02  0.12700000000E+01 0. -1.
<mgrwt>
<rscale>  0 0.22319603E+01</rscale>
<asrwt>0</asrwt>
<pdfrwt beam="1">0</pdfrwt>
<pdfrwt beam="2">0</pdfrwt>
<totfact> 0.25345384E+12</totfact>
</mgrwt>
</event>
<event>
 4    1  0.1699693E+006  0.2010021E+01  0.7546771E-02  0.2973995E+00
         22   -1    0    0    0    0  0.00000000000E+00  0.00000000000E+00  0.25905664485E+02  0.25905664485E+02  0.00000000000E+00 0. -1.
         22   -1    0    0    0    0 -0.00000000000E+00 -0.00000000000E+00 -0.34708176673E+00  0.34708176673E+00  0.00000000000E+00 0.  1.
          4    1    1    2  501    0  0.11866146100E+01  0.10095687345E+01  0.22519914377E+02  0.22609438887E+02  0.12700000000E+01 0. -1.
         -4    1    1    2    0  501 -0.11866146100E+01 -0.10095687345E+01  0.30386683418E+01  0.36433073647E+01  0.12700000000E+01 0.  1.
<mgrwt>
<rscale>  0 0.20100207E+01</rscale>
<asrwt>0</asrwt>
<pdfrwt beam="1">0</pdfrwt>
<pdfrwt beam="2">0</pdfrwt>
<totfact> 0.16222472E+12</totfact>
</mgrwt>
</event>
<event>
 4    1  0.1699693E+006  0.2578965E+01  0.7546771E-02  0.2674708E+00
         22   -1    0    0    0    0  0.00000000000E+00  0.00000000000E+00  0.45026294796E+01  0.45026294796E+01  0.00000000000E+00 0. -1.
         22   -1    0    0    0    0 -0.00000000000E+00 -0.00000000000E+00 -0.16674271946E+01  0.16674271946E+01  0.00000000000E+00 0.  1.
          4    1    1    2  501    0  0.45985905568E-01 -0.22441140241E+01  0.24597463735E+01  0.35639044149E+01  0.12700000000E+01 0. -1.
         -4    1    1    2    0  501 -0.45985905568E-01  0.22441140241E+01  0.37545591151E+00  0.26061522592E+01  0.12700000000E+01 0.  1.
<mgrwt>
<rscale>  0 0.25789654E+01</rscale>
<asrwt>0</asrwt>
<pdfrwt beam="1">0</pdfrwt>
<pdfrwt beam="2">0</pdfrwt>
<totfact> 0.22899836E+12</totfact>
</mgrwt>
</event>
<event>
 4    1  0.1699693E+006  0.2312847E+01  0.7546771E-02  0.2797269E+00
         22   -1    0    0    0    0  0.00000000000E+00  0.00000000000E+00  0.53136609323E+00  0.53136609323E+00  0.00000000000E+00 0.  1.
         22   -1    0    0    0    0 -0.00000000000E+00 -0.00000000000E+00 -0.12264661729E+02  0.12264661729E+02  0.00000000000E+00 0. -1.
          4    1    1    2  501    0  0.27373710508E+00 -0.19134861544E+01 -0.31583399113E+01  0.39146356485E+01  0.12700000000E+01 0.  1.
         -4    1    1    2    0  501 -0.27373710508E+00  0.19134861544E+01 -0.85749557247E+01  0.88813921739E+01  0.12700000000E+01 0. -1.
<mgrwt>
<rscale>  0 0.23128470E+01</rscale>
<asrwt>0</asrwt>
<pdfrwt beam="1">0</pdfrwt>
<pdfrwt beam="2">0</pdfrwt>
<totfact> 0.25391050E+12</totfact>
</mgrwt>
</event>
<event>
 4    1  0.1699693E+006  0.2403888E+01  0.7546771E-02  0.2752481E+00
         22   -1    0    0    0    0  0.00000000000E+00  0.00000000000E+00  0.24185601117E+01  0.24185601117E+01  0.00000000000E+00 0. -1.
         22   -1    0    0    0    0 -0.00000000000E+00 -0.00000000000E+00 -0.23968361402E+01  0.23968361402E+01  0.00000000000E+00 0.  1.
          4    1    1    2  501    0  0.19154278114E+01 -0.70492186431E+00  0.14582167657E+00  0.24083069773E+01  0.12700000000E+01 0. -1.
         -4    1    1    2    0  501 -0.19154278114E+01  0.70492186431E+00 -0.12409770500E+00  0.24070892746E+01  0.12700000000E+01 0.  1.
<mgrwt>
<rscale>  0 0.24038882E+01</rscale>
<asrwt>0</asrwt>
<pdfrwt beam="1">0</pdfrwt>
<pdfrwt beam="2">0</pdfrwt>
<totfact> 0.31153393E+12</totfact>
</mgrwt>
</event>
<event>
 4    1  0.1699693E+006  0.2023332E+01  0.7546771E-02  0.2965151E+00
         22   -1    0    0    0    0  0.00000000000E+00  0.00000000000E+00  0.63491148892E+01  0.63491148892E+01  0.00000000000E+00 0. -1.
         22   -1    0    0    0    0 -0.00000000000E+00 -0.00000000000E+00 -0.18884442375E+01  0.18884442375E+01  0.00000000000E+00 0. -1.
          4    1    1    2  501    0 -0.13033465830E+01  0.88445562411E+00  0.55727899167E+01  0.59287318646E+01  0.12700000000E+01 0. -1.
         -4    1    1    2    0  501  0.13033465830E+01 -0.88445562411E+00 -0.11121192650E+01  0.23088272621E+01  0.12700000000E+01 0. -1.
<mgrwt>
<rscale>  0 0.20233324E+01</rscale>
<asrwt>0</asrwt>
<pdfrwt beam="1">0</pdfrwt>
<pdfrwt beam="2">0</pdfrwt>
<totfact> 0.13192202E+12</totfact>
</mgrwt>
</event>
<event>
 4    1  0.1699693E+006  0.3992255E+01  0.7546771E-02  0.2278777E+00
         22   -1    0    0    0    0  0.00000000000E+00  0.00000000000E+00  0.26371943435E+02  0.26371943435E+02  0.00000000000E+00 0. -1.
         22   -1    0    0    0    0 -0.00000000000E+00 -0.00000000000E+00 -0.16306007129E+01  0.16306007129E+01  0.00000000000E+00 0. -1.
          4    1    1    2  501    0 -0.37118461337E+01 -0.73986292608E+00  0.23478232005E+02  0.23815236235E+02  0.12700000000E+01 0. -1.
         -4    1    1    2    0  501  0.37118461337E+01  0.73986292608E+00  0.12631107170E+01  0.41873079124E+01  0.12700000000E+01 0. -1.
<mgrwt>
<rscale>  0 0.39922549E+01</rscale>
<asrwt>0</asrwt>
<pdfrwt beam="1">0</pdfrwt>
<pdfrwt beam="2">0</pdfrwt>
<totfact> 0.27317704E+11</totfact>
</mgrwt>
</event>
<event>
 4    1  0.1699693E+006  0.2857607E+01  0.7546771E-02  0.2569187E+00
         22   -1    0    0    0    0  0.00000000000E+00  0.00000000000E+00  0.13276054405E+02  0.13276054405E+02  0.00000000000E+00 0.  1.
         22   -1    0    0    0    0 -0.00000000000E+00 -0.00000000000E+00 -0.64786590052E+00  0.64786590052E+00  0.00000000000E+00 0.  1.
          4    1    1    2  501    0  0.46719432473E+00 -0.25168926466E+01  0.78800908928E+01  0.83822283201E+01  0.12700000000E+01 0.  1.
         -4    1    1    2    0  501 -0.46719432473E+00  0.25168926466E+01  0.47480976120E+01  0.55416919857E+01  0.12700000000E+01 0.  1.
<mgrwt>
<rscale>  0 0.28576072E+01</rscale>
<asrwt>0</asrwt>
<pdfrwt beam="1">0</pdfrwt>
<pdfrwt beam="2">0</pdfrwt>
<totfact> 0.18415344E+12</totfact>
</mgrwt>
</event>
<event>
 4    1  0.1699693E+006  0.2244724E+01  0.7546771E-02  0.2833029E+00
         22   -1    0    0    0    0  0.00000000000E+00  0.00000000000E+00  0.12239390856E+01  0.12239390856E+01  0.00000000000E+00 0.  1.
         22   -1    0    0    0    0 -0.00000000000E+00 -0.00000000000E+00 -0.41456322303E+01  0.41456322303E+01  0.00000000000E+00 0. -1.
          4    1    1    2  501    0  0.16250868161E+01 -0.88599107460E+00 -0.16845084000E+01  0.28064846149E+01  0.12700000000E+01 0. -1.
         -4    1    1    2    0  501 -0.16250868161E+01  0.88599107460E+00 -0.12371847447E+01  0.25630867010E+01  0.12700000000E+01 0.  1.
<mgrwt>
<rscale>  0 0.22447243E+01</rscale>
<asrwt>0</asrwt>
<pdfrwt beam="1">0</pdfrwt>
<pdfrwt beam="2">0</pdfrwt>
<totfact> 0.36015685E+12</totfact>
</mgrwt>
</event>
<event>
 4    1  0.1699693E+006  0.2334824E+01  0.7546771E-02  0.2786156E+00
         22   -1    0    0    0    0  0.00000000000E+00  0.00000000000E+00  0.41590874650E+01  0.41590874650E+01  0.00000000000E+00 0.  1.
         22   -1    0    0    0    0 -0.00000000000E+00 -0.00000000000E+00 -0.15420391488E+01  0.15420391488E+01  0.00000000000E+00 0. -1.
          4    1    1    2  501    0 -0.19591489619E+01 -0.15367725692E-01  0.24125732881E+01  0.33573666306E+01  0.12700000000E+01 0.  1.
         -4    1    1    2    0  501  0.19591489619E+01  0.15367725692E-01  0.20447502819E+00  0.23437599832E+01  0.12700000000E+01 0. -1.
<mgrwt>
<rscale>  0 0.23348235E+01</rscale>
<asrwt>0</asrwt>
<pdfrwt beam="1">0</pdfrwt>
<pdfrwt beam="2">0</pdfrwt>
<totfact> 0.27516080E+12</totfact>
</mgrwt>
</event>
<event>
 4    1  0.1699693E+006  0.2401287E+01  0.7546771E-02  0.2753716E+00
         22   -1    0    0    0    0  0.00000000000E+00  0.00000000000E+00  0.32854035838E+01  0.32854035838E+01  0.00000000000E+00 0.  1.
         22   -1    0    0    0    0 -0.00000000000E+00 -0.00000000000E+00 -0.42283784669E+01  0.42283784669E+01  0.00000000000E+00 0. -1.
          4    1    1    2  501    0  0.65291344633E+00 -0.19305402063E+01  0.24017994496E+01  0.33962953424E+01  0.12700000000E+01 0.  1.
         -4    1    1    2    0  501 -0.65291344633E+00  0.19305402063E+01 -0.33447743327E+01  0.41174867083E+01  0.12700000000E+01 0. -1.
<mgrwt>
<rscale>  0 0.24012875E+01</rscale>
<asrwt>0</asrwt>
<pdfrwt beam="1">0</pdfrwt>
<pdfrwt beam="2">0</pdfrwt>
<totfact> 0.11216930E+12</totfact>
</mgrwt>
</event>
<event>
 4    1  0.1699693E+006  0.2063317E+01  0.7546771E-02  0.2939258E+00
         22   -1    0    0    0    0  0.00000000000E+00  0.00000000000E+00  0.49525370305E+01  0.49525370305E+01  0.00000000000E+00 0.  1.
         22   -1    0    0    0    0 -0.00000000000E+00 -0.00000000000E+00 -0.85967432005E+00  0.85967432005E+00  0.00000000000E+00 0. -1.
          4    1    1    2  501    0 -0.13285681325E+01 -0.93770196864E+00  0.20704422275E+01  0.29230137328E+01  0.12700000000E+01 0.  1.
         -4    1    1    2    0  501  0.13285681325E+01  0.93770196864E+00  0.20224204830E+01  0.28891976178E+01  0.12700000000E+01 0. -1.
<mgrwt>
<rscale>  0 0.20633173E+01</rscale>
<asrwt>0</asrwt>
<pdfrwt beam="1">0</pdfrwt>
<pdfrwt beam="2">0</pdfrwt>
<totfact> 0.43708510E+12</totfact>
</mgrwt>
</event>
<event>
 4    1  0.1699693E+006  0.3570826E+01  0.7546771E-02  0.2367698E+00
         22   -1    0    0    0    0  0.00000000000E+00  0.00000000000E+00  0.39964337739E+00  0.39964337739E+00  0.00000000000E+00 0.  1.
         22   -1    0    0    0    0 -0.00000000000E+00 -0.00000000000E+00 -0.33139770028E+02  0.33139770028E+02  0.00000000000E+00 0. -1.
          4    1    1    2  501    0 -0.19068009662E+01 -0.27389796301E+01 -0.19606489398E+02  0.19929004637E+02  0.12700000000E+01 0. -1.
         -4    1    1    2    0  501  0.19068009662E+01  0.27389796301E+01 -0.13133637253E+02  0.13610408768E+02  0.12700000000E+01 0. -1.
<mgrwt>
<rscale>  0 0.35708261E+01</rscale>
<asrwt>0</asrwt>
<pdfrwt beam="1">0</pdfrwt>
<pdfrwt beam="2">0</pdfrwt>
<totfact> 0.10120116E+12</totfact>
</mgrwt>
</event>
<event>
 4    1  0.1699693E+006  0.2264727E+01  0.7546771E-02  0.2822316E+00
         22   -1    0    0    0    0  0.00000000000E+00  0.00000000000E+00  0.47416206559E+02  0.47416206559E+02  0.00000000000E+00 0.  1.
         22   -1    0    0    0    0 -0.00000000000E+00 -0.00000000000E+00 -0.11155037399E+00  0.11155037399E+00  0.00000000000E+00 0. -1.
          4    1    1    2  501    0  0.68128227997E+00 -0.17469810227E+01  0.27789419369E+02  0.27881549762E+02  0.12700000000E+01 0. -1.
         -4    1    1    2    0  501 -0.68128227997E+00  0.17469810227E+01  0.19515236816E+02  0.19646207171E+02  0.12700000000E+01 0.  1.
<mgrwt>
<rscale>  0 0.22647270E+01</rscale>
<asrwt>0</asrwt>
<pdfrwt beam="1">0</pdfrwt>
<pdfrwt beam="2">0</pdfrwt>
<totfact> 0.26429612E+12</totfact>
</mgrwt>
</event>
<event>
 4    1  0.1699693E+006  0.2441748E+01  0.7546771E-02  0.2734782E+00
         22   -1    0    0    0    0  0.00000000000E+00  0.00000000000E+00  0.55185159344E+00  0.55185159344E+00  0.00000000000E+00 0. -1.
         22   -1    0    0    0    0 -0.00000000000E+00 -0.00000000000E+00 -0.14552716484E+02  0.14552716484E+02  0.00000000000E+00 0.  1.
          4    1    1    2  501    0 -0.18107494206E+01 -0.10346100844E+01 -0.31672873889E+01  0.39992300377E+01  0.12700000000E+01 0.  1.
         -4    1    1    2    0  501  0.18107494206E+01  0.10346100844E+01 -0.10833577502E+02  0.11105338040E+02  0.12700000000E+01 0.  1.
<mgrwt>
<rscale>  0 0.24417476E+01</rscale>
<asrwt>0</asrwt>
<pdfrwt beam="1">0</pdfrwt>
<pdfrwt beam="2">0</pdfrwt>
<totfact> 0.19730435E+12</totfact>
</mgrwt>
</event>
<event>
 4    1  0.1699693E+006  0.3031968E+01  0.7546771E-02  0.2512173E+00
         22   -1    0    0    0    0  0.00000000000E+00  0.00000000000E+00  0.15397966335E+02  0.15397966335E+02  0.00000000000E+00 0.  1.
         22   -1    0    0    0    0 -0.00000000000E+00 -0.00000000000E+00 -0.42732584118E+01  0.42732584118E+01  0.00000000000E+00 0. -1.
          4    1    1    2  501    0  0.24822611885E+01  0.11909280862E+01  0.14685064701E+02  0.14994797617E+02  0.12700000000E+01 0.  1.
         -4    1    1    2    0  501 -0.24822611885E+01 -0.11909280862E+01 -0.35603567776E+01  0.46764271296E+01  0.12700000000E+01 0. -1.
<mgrwt>
<rscale>  0 0.30319681E+01</rscale>
<asrwt>0</asrwt>
<pdfrwt beam="1">0</pdfrwt>
<pdfrwt beam="2">0</pdfrwt>
<totfact> 0.17401189E+11</totfact>
</mgrwt>
</event>
<event>
 4    1  0.1699693E+006  0.2065575E+01  0.7546771E-02  0.2937825E+00
         22   -1    0    0    0    0  0.00000000000E+00  0.00000000000E+00  0.77272088619E+00  0.77272088619E+00  0.00000000000E+00 0. -1.
         22   -1    0    0    0    0 -0.00000000000E+00 -0.00000000000E+00 -0.68741195240E+01  0.68741195240E+01  0.00000000000E+00 0. -1.
          4    1    1    2  501    0  0.64520335432E+00 -0.14957985917E+01 -0.13546961525E+01  0.24701826777E+01  0.12700000000E+01 0. -1.
         -4    1    1    2    0  501 -0.64520335432E+00  0.14957985917E+01 -0.47467024853E+01  0.51766577325E+01  0.12700000000E+01 0. -1.
<mgrwt>
<rscale>  0 0.20655752E+01</rscale>
<asrwt>0</asrwt>
<pdfrwt beam="1">0</pdfrwt>
<pdfrwt beam="2">0</pdfrwt>
<totfact> 0.33411936E+12</totfact>
</mgrwt>
</event>
<event>
 4    1  0.1699693E+006  0.2412990E+01  0.7546771E-02  0.2748179E+00
         22   -1    0    0    0    0  0.00000000000E+00  0.00000000000E+00  0.19826502071E+01  0.19826502071E+01  0.00000000000E+00 0.  1.
         22   -1    0    0    0    0 -0.00000000000E+00 -0.00000000000E+00 -0.37683357441E+01  0.37683357441E+01  0.00000000000E+00 0. -1.
          4    1    1    2  501    0 -0.16335252645E+01 -0.12414578415E+01  0.45796767616E+00  0.24560652993E+01  0.12700000000E+01 0.  1.
         -4    1    1    2    0  501  0.16335252645E+01  0.12414578415E+01 -0.22436532131E+01  0.32949206519E+01  0.12700000000E+01 0. -1.
<mgrwt>
<rscale>  0 0.24129903E+01</rscale>
<asrwt>0</asrwt>
<pdfrwt beam="1">0</pdfrwt>
<pdfrwt beam="2">0</pdfrwt>
<totfact> 0.23121483E+12</totfact>
</mgrwt>
</event>
<event>
 4    1  0.1699693E+006  0.2206840E+01  0.7546771E-02  0.2853825E+00
         22   -1    0    0    0    0  0.00000000000E+00  0.00000000000E+00  0.27614612305E+00  0.27614612305E+00  0.00000000000E+00 0. -1.
         22   -1    0    0    0    0 -0.00000000000E+00 -0.00000000000E+00 -0.20245684772E+02  0.20245684772E+02  0.00000000000E+00 0. -1.
          4    1    1    2  501    0 -0.14124197573E+01 -0.11235264931E+01 -0.13668648385E+02  0.13845652387E+02  0.12700000000E+01 0. -1.
         -4    1    1    2    0  501  0.14124197573E+01  0.11235264931E+01 -0.63008902642E+01  0.66761785082E+01  0.12700000000E+01 0. -1.
<mgrwt>
<rscale>  0 0.22068397E+01</rscale>
<asrwt>0</asrwt>
<pdfrwt beam="1">0</pdfrwt>
<pdfrwt beam="2">0</pdfrwt>
<totfact> 0.28572685E+12</totfact>
</mgrwt>
</event>
<event>
 4    1  0.1699693E+006  0.2591085E+01  0.7546771E-02  0.2669686E+00
         22   -1    0    0    0    0  0.00000000000E+00  0.00000000000E+00  0.42873936202E+00  0.42873936202E+00  0.00000000000E+00 0. -1.
         22   -1    0    0    0    0 -0.00000000000E+00 -0.00000000000E+00 -0.27762402904E+02  0.27762402904E+02  0.00000000000E+00 0.  1.
          4    1    1    2  501    0  0.80465257084E+00  0.21102978255E+01 -0.43599541192E+01  0.50717770647E+01  0.12700000000E+01 0. -1.
         -4    1    1    2    0  501 -0.80465257084E+00 -0.21102978255E+01 -0.22973709423E+02  0.23119365202E+02  0.12700000000E+01 0.  1.
<mgrwt>
<rscale>  0 0.25910852E+01</rscale>
<asrwt>0</asrwt>
<pdfrwt beam="1">0</pdfrwt>
<pdfrwt beam="2">0</pdfrwt>
<totfact> 0.11718278E+12</totfact>
</mgrwt>
</event>
<event>
 4    1  0.1699693E+006  0.2181110E+01  0.7546771E-02  0.2868343E+00
         22   -1    0    0    0    0  0.00000000000E+00  0.00000000000E+00  0.19604454531E+00  0.19604454531E+00  0.00000000000E+00 0.  1.
         22   -1    0    0    0    0 -0.00000000000E+00 -0.00000000000E+00 -0.31298197804E+02  0.31298197804E+02  0.00000000000E+00 0. -1.
          4    1    1    2  501    0 -0.17155750144E+01 -0.44848834128E+00 -0.80868726138E+01  0.83758431274E+01  0.12700000000E+01 0.  1.
         -4    1    1    2    0  501  0.17155750144E+01  0.44848834128E+00 -0.23015280645E+02  0.23118399222E+02  0.12700000000E+01 0. -1.
<mgrwt>
<rscale>  0 0.21811097E+01</rscale>
<asrwt>0</asrwt>
<pdfrwt beam="1">0</pdfrwt>
<pdfrwt beam="2">0</pdfrwt>
<totfact> 0.24180047E+12</totfact>
</mgrwt>
</event>
<event>
 4    1  0.1699693E+006  0.3694680E+01  0.7546771E-02  0.2339755E+00
         22   -1    0    0    0    0  0.00000000000E+00  0.00000000000E+00  0.24580940268E+01  0.24580940268E+01  0.00000000000E+00 0.  1.
         22   -1    0    0    0    0 -0.00000000000E+00 -0.00000000000E+00 -0.10076296818E+02  0.10076296818E+02  0.00000000000E+00 0. -1.
          4    1    1    2  501    0  0.28981023247E+01  0.19075535387E+01  0.38977876423E+00  0.37151830470E+01  0.12700000000E+01 0.  1.
         -4    1    1    2    0  501 -0.28981023247E+01 -0.19075535387E+01 -0.80079815550E+01  0.88192077973E+01  0.12700000000E+01 0. -1.
<mgrwt>
<rscale>  0 0.36946796E+01</rscale>
<asrwt>0</asrwt>
<pdfrwt beam="1">0</pdfrwt>
<pdfrwt beam="2">0</pdfrwt>
<totfact> 0.55797415E+11</totfact>
</mgrwt>
</event>
<event>
 4    1  0.1699693E+006  0.3191048E+01  0.7546771E-02  0.2465050E+00
         22   -1    0    0    0    0  0.00000000000E+00  0.00000000000E+00  0.30972453420E+01  0.30972453420E+01  0.00000000000E+00 0.  1.
         22   -1    0    0    0    0 -0.00000000000E+00 -0.00000000000E+00 -0.11986809290E+02  0.11986809290E+02  0.00000000000E+00 0. -1.
          4    1    1    2  501    0  0.24470073108E+01 -0.16068734641E+01  0.19802295277E+01  0.37555420503E+01  0.12700000000E+01 0.  1.
         -4    1    1    2    0  501 -0.24470073108E+01  0.16068734641E+01 -0.10869793475E+02  0.11328512581E+02  0.12700000000E+01 0. -1.
<mgrwt>
<rscale>  0 0.31910480E+01</rscale>
<asrwt>0</asrwt>
<pdfrwt beam="1">0</pdfrwt>
<pdfrwt beam="2">0</pdfrwt>
<totfact> 0.34510848E+11</totfact>
</mgrwt>
</event>
<event>
 4    1  0.1699693E+006  0.3004342E+01  0.7546771E-02  0.2520810E+00
         22   -1    0    0    0    0  0.00000000000E+00  0.00000000000E+00  0.46155514185E+01  0.46155514185E+01  0.00000000000E+00 0. -1.
         22   -1    0    0    0    0 -0.00000000000E+00 -0.00000000000E+00 -0.19798957026E+01  0.19798957026E+01  0.00000000000E+00 0.  1.
          4    1    1    2  501    0  0.24860761866E+01 -0.11102220981E+01  0.16833047901E+01  0.34437745177E+01  0.12700000000E+01 0. -1.
         -4    1    1    2    0  501 -0.24860761866E+01  0.11102220981E+01  0.95235092589E+00  0.31516726034E+01  0.12700000000E+01 0.  1.
<mgrwt>
<rscale>  0 0.30043415E+01</rscale>
<asrwt>0</asrwt>
<pdfrwt beam="1">0</pdfrwt>
<pdfrwt beam="2">0</pdfrwt>
<totfact> 0.18237651E+12</totfact>
</mgrwt>
</event>
<event>
 4    1  0.1699693E+006  0.4540837E+01  0.7546771E-02  0.2184475E+00
         22   -1    0    0    0    0  0.00000000000E+00  0.00000000000E+00  0.16710207170E+02  0.16710207170E+02  0.00000000000E+00 0. -1.
         22   -1    0    0    0    0 -0.00000000000E+00 -0.00000000000E+00 -0.44799132185E+01  0.44799132185E+01  0.00000000000E+00 0.  1.
          4    1    1    2  501    0  0.40599532501E+01  0.15884215625E+01  0.15133803620E+02  0.15800354916E+02  0.12700000000E+01 0. -1.
         -4    1    1    2    0  501 -0.40599532501E+01 -0.15884215625E+01 -0.29035096687E+01  0.53897654726E+01  0.12700000000E+01 0.  1.
<mgrwt>
<rscale>  0 0.45408373E+01</rscale>
<asrwt>0</asrwt>
<pdfrwt beam="1">0</pdfrwt>
<pdfrwt beam="2">0</pdfrwt>
<totfact> 0.14878209E+11</totfact>
</mgrwt>
</event>
<event>
 4    1  0.1699693E+006  0.3922118E+01  0.7546771E-02  0.2292434E+00
         22   -1    0    0    0    0  0.00000000000E+00  0.00000000000E+00  0.10081721927E+02  0.10081721927E+02  0.00000000000E+00 0. -1.
         22   -1    0    0    0    0 -0.00000000000E+00 -0.00000000000E+00 -0.19384482783E+01  0.19384482783E+01  0.00000000000E+00 0.  1.
          4    1    1    2  501    0 -0.24211220371E+00  0.37029030114E+01  0.68444904690E+01  0.78886030963E+01  0.12700000000E+01 0.  1.
         -4    1    1    2    0  501  0.24211220371E+00 -0.37029030114E+01  0.12987831801E+01  0.41315671095E+01  0.12700000000E+01 0. -1.
<mgrwt>
<rscale>  0 0.39221179E+01</rscale>
<asrwt>0</asrwt>
<pdfrwt beam="1">0</pdfrwt>
<pdfrwt beam="2">0</pdfrwt>
<totfact> 0.73442001E+11</totfact>
</mgrwt>
</event>
<event>
 4    1  0.1699693E+006  0.2852565E+01  0.7546771E-02  0.2570929E+00
         22   -1    0    0    0    0  0.00000000000E+00  0.00000000000E+00  0.20883091532E+01  0.20883091532E+01  0.00000000000E+00 0. -1.
         22   -1    0    0    0    0 -0.00000000000E+00 -0.00000000000E+00 -0.40384784849E+01  0.40384784849E+01  0.00000000000E+00 0. -1.
          4    1    1    2  501    0  0.24160243465E+01 -0.82888783001E+00 -0.40072791437E+00  0.28805748626E+01  0.12700000000E+01 0. -1.
         -4    1    1    2    0  501 -0.24160243465E+01  0.82888783001E+00 -0.15494414174E+01  0.32462127755E+01  0.12700000000E+01 0. -1.
<mgrwt>
<rscale>  0 0.28525653E+01</rscale>
<asrwt>0</asrwt>
<pdfrwt beam="1">0</pdfrwt>
<pdfrwt beam="2">0</pdfrwt>
<totfact> 0.20070519E+12</totfact>
</mgrwt>
</event>
<event>
 4    1  0.1699693E+006  0.2414821E+01  0.7546771E-02  0.2747317E+00
         22   -1    0    0    0    0  0.00000000000E+00  0.00000000000E+00  0.30706671647E+01  0.30706671647E+01  0.00000000000E+00 0.  1.
         22   -1    0    0    0    0 -0.00000000000E+00 -0.00000000000E+00 -0.21776983896E+01  0.21776983896E+01  0.00000000000E+00 0.  1.
          4    1    1    2  501    0  0.68851248970E+00 -0.19350481004E+01  0.13851716316E+01  0.27838931460E+01  0.12700000000E+01 0.  1.
         -4    1    1    2    0  501 -0.68851248970E+00  0.19350481004E+01 -0.49220285651E+00  0.24644724083E+01  0.12700000000E+01 0.  1.
<mgrwt>
<rscale>  0 0.24148210E+01</rscale>
<asrwt>0</asrwt>
<pdfrwt beam="1">0</pdfrwt>
<pdfrwt beam="2">0</pdfrwt>
<totfact> 0.26363625E+12</totfact>
</mgrwt>
</event>
<event>
 4    1  0.1699693E+006  0.2363520E+01  0.7546771E-02  0.2771939E+00
         22   -1    0    0    0    0  0.00000000000E+00  0.00000000000E+00  0.44207886619E+00  0.44207886619E+00  0.00000000000E+00 0. -1.
         22   -1    0    0    0    0 -0.00000000000E+00 -0.00000000000E+00 -0.14326304915E+02  0.14326304915E+02  0.00000000000E+00 0.  1.
          4    1    1    2  501    0  0.18735321248E+01 -0.68059257899E+00 -0.44059133854E+01  0.49998301612E+01  0.12700000000E+01 0. -1.
         -4    1    1    2    0  501 -0.18735321248E+01  0.68059257899E+00 -0.94783126638E+01  0.97685536204E+01  0.12700000000E+01 0.  1.
<mgrwt>
<rscale>  0 0.23635204E+01</rscale>
<asrwt>0</asrwt>
<pdfrwt beam="1">0</pdfrwt>
<pdfrwt beam="2">0</pdfrwt>
<totfact> 0.25837594E+12</totfact>
</mgrwt>
</event>
<event>
 4    1  0.1699693E+006  0.4101528E+01  0.7546771E-02  0.2258297E+00
         22   -1    0    0    0    0  0.00000000000E+00  0.00000000000E+00  0.42726778939E+02  0.42726778939E+02  0.00000000000E+00 0.  1.
         22   -1    0    0    0    0 -0.00000000000E+00 -0.00000000000E+00 -0.42806405157E+00  0.42806405157E+00  0.00000000000E+00 0. -1.
          4    1    1    2  501    0  0.18274492489E+01  0.34452955133E+01  0.15037833158E+02  0.15587140791E+02  0.12700000000E+01 0. -1.
         -4    1    1    2    0  501 -0.18274492489E+01 -0.34452955133E+01  0.27260881729E+02  0.27567702199E+02  0.12700000000E+01 0.  1.
<mgrwt>
<rscale>  0 0.41015280E+01</rscale>
<asrwt>0</asrwt>
<pdfrwt beam="1">0</pdfrwt>
<pdfrwt beam="2">0</pdfrwt>
<totfact> 0.67443605E+11</totfact>
</mgrwt>
</event>
<event>
 4    1  0.1699693E+006  0.2350754E+01  0.7546771E-02  0.2778223E+00
         22   -1    0    0    0    0  0.00000000000E+00  0.00000000000E+00  0.44785175217E+01  0.44785175217E+01  0.00000000000E+00 0. -1.
         22   -1    0    0    0    0 -0.00000000000E+00 -0.00000000000E+00 -0.12661798485E+01  0.12661798485E+01  0.00000000000E+00 0.  1.
          4    1    1    2  501    0 -0.16910964819E+01 -0.10263232005E+01  0.11475526095E+01  0.26158982423E+01  0.12700000000E+01 0.  1.
         -4    1    1    2    0  501  0.16910964819E+01  0.10263232005E+01  0.20647850637E+01  0.31287991278E+01  0.12700000000E+01 0. -1.
<mgrwt>
<rscale>  0 0.23507545E+01</rscale>
<asrwt>0</asrwt>
<pdfrwt beam="1">0</pdfrwt>
<pdfrwt beam="2">0</pdfrwt>
<totfact> 0.31626596E+12</totfact>
</mgrwt>
</event>
<event>
 4    1  0.1699693E+006  0.2316414E+01  0.7546771E-02  0.2795452E+00
         22   -1    0    0    0    0  0.00000000000E+00  0.00000000000E+00  0.26068760277E+02  0.26068760277E+02  0.00000000000E+00 0.  1.
         22   -1    0    0    0    0 -0.00000000000E+00 -0.00000000000E+00 -0.12785382765E+01  0.12785382765E+01  0.00000000000E+00 0. -1.
          4    1    1    2  501    0  0.20215524619E+00  0.19266572124E+01  0.24919831990E+02  0.25027261160E+02  0.12700000000E+01 0.  1.
         -4    1    1    2    0  501 -0.20215524619E+00 -0.19266572124E+01 -0.12960998953E+00  0.23200373935E+01  0.12700000000E+01 0. -1.
<mgrwt>
<rscale>  0 0.23164142E+01</rscale>
<asrwt>0</asrwt>
<pdfrwt beam="1">0</pdfrwt>
<pdfrwt beam="2">0</pdfrwt>
<totfact> 0.36662833E+11</totfact>
</mgrwt>
</event>
<event>
 4    1  0.1699693E+006  0.2031830E+01  0.7546771E-02  0.2959565E+00
         22   -1    0    0    0    0  0.00000000000E+00  0.00000000000E+00  0.68914186242E+01  0.68914186242E+01  0.00000000000E+00 0. -1.
         22   -1    0    0    0    0 -0.00000000000E+00 -0.00000000000E+00 -0.61641294794E+00  0.61641294794E+00  0.00000000000E+00 0.  1.
          4    1    1    2  501    0  0.15840521874E+01 -0.78820645051E-01  0.37674534123E+01  0.42804251238E+01  0.12700000000E+01 0. -1.
         -4    1    1    2    0  501 -0.15840521874E+01  0.78820645051E-01  0.25075522640E+01  0.32274064484E+01  0.12700000000E+01 0. -1.
<mgrwt>
<rscale>  0 0.20318302E+01</rscale>
<asrwt>0</asrwt>
<pdfrwt beam="1">0</pdfrwt>
<pdfrwt beam="2">0</pdfrwt>
<totfact> 0.43050741E+12</totfact>
</mgrwt>
</event>
<event>
 4    1  0.1699693E+006  0.2202775E+01  0.7546771E-02  0.2856096E+00
         22   -1    0    0    0    0  0.00000000000E+00  0.00000000000E+00  0.76216529394E+00  0.76216529394E+00  0.00000000000E+00 0. -1.
         22   -1    0    0    0    0 -0.00000000000E+00 -0.00000000000E+00 -0.67519644574E+01  0.67519644574E+01  0.00000000000E+00 0.  1.
          4    1    1    2  501    0  0.14738937272E+01 -0.10329358294E+01 -0.38927505794E+01  0.44727761201E+01  0.12700000000E+01 0.  1.
         -4    1    1    2    0  501 -0.14738937272E+01  0.10329358294E+01 -0.20970485841E+01  0.30413536313E+01  0.12700000000E+01 0. -1.
<mgrwt>
<rscale>  0 0.22027753E+01</rscale>
<asrwt>0</asrwt>
<pdfrwt beam="1">0</pdfrwt>
<pdfrwt beam="2">0</pdfrwt>
<totfact> 0.34674787E+12</totfact>
</mgrwt>
</event>
<event>
 4    1  0.1699693E+006  0.5356576E+01  0.7546771E-02  0.2082702E+00
         22   -1    0    0    0    0  0.00000000000E+00  0.00000000000E+00  0.22359968231E+02  0.22359968231E+02  0.00000000000E+00 0. -1.
         22   -1    0    0    0    0 -0.00000000000E+00 -0.00000000000E+00 -0.20000446151E+01  0.20000446151E+01  0.00000000000E+00 0.  1.
          4    1    1    2  501    0 -0.25865880588E+01  0.45154804174E+01  0.17471718965E+02  0.18274404636E+02  0.12700000000E+01 0. -1.
         -4    1    1    2    0  501  0.25865880588E+01 -0.45154804174E+01  0.28882046506E+01  0.60856082103E+01  0.12700000000E+01 0.  1.
<mgrwt>
<rscale>  0 0.53565755E+01</rscale>
<asrwt>0</asrwt>
<pdfrwt beam="1">0</pdfrwt>
<pdfrwt beam="2">0</pdfrwt>
<totfact> 0.26562699E+11</totfact>
</mgrwt>
</event>
<event>
 4    1  0.1699693E+006  0.3459847E+01  0.7546771E-02  0.2394206E+00
         22   -1    0    0    0    0  0.00000000000E+00  0.00000000000E+00  0.17422527650E+01  0.17422527650E+01  0.00000000000E+00 0.  1.
         22   -1    0    0    0    0 -0.00000000000E+00 -0.00000000000E+00 -0.11784340086E+02  0.11784340086E+02  0.00000000000E+00 0. -1.
          4    1    1    2  501    0 -0.31304330982E+01 -0.74701372484E+00 -0.65381106282E+00  0.35210807707E+01  0.12700000000E+01 0.  1.
         -4    1    1    2    0  501  0.31304330982E+01  0.74701372484E+00 -0.93882762580E+01  0.10005512080E+02  0.12700000000E+01 0. -1.
<mgrwt>
<rscale>  0 0.34598469E+01</rscale>
<asrwt>0</asrwt>
<pdfrwt beam="1">0</pdfrwt>
<pdfrwt beam="2">0</pdfrwt>
<totfact> 0.68731984E+11</totfact>
</mgrwt>
</event>
<event>
 4    1  0.1699693E+006  0.2224162E+01  0.7546771E-02  0.2844232E+00
         22   -1    0    0    0    0  0.00000000000E+00  0.00000000000E+00  0.25564696400E+01  0.25564696400E+01  0.00000000000E+00 0.  1.
         22   -1    0    0    0    0 -0.00000000000E+00 -0.00000000000E+00 -0.46798137133E+01  0.46798137133E+01  0.00000000000E+00 0. -1.
          4    1    1    2  501    0  0.52287636869E+00 -0.17494566161E+01  0.17092462510E+01  0.28050705687E+01  0.12700000000E+01 0.  1.
         -4    1    1    2    0  501 -0.52287636869E+00  0.17494566161E+01 -0.38325903243E+01  0.44312127847E+01  0.12700000000E+01 0. -1.
<mgrwt>
<rscale>  0 0.22241623E+01</rscale>
<asrwt>0</asrwt>
<pdfrwt beam="1">0</pdfrwt>
<pdfrwt beam="2">0</pdfrwt>
<totfact> 0.13336485E+12</totfact>
</mgrwt>
</event>
<event>
 4    1  0.1699693E+006  0.2427345E+01  0.7546771E-02  0.2741454E+00
         22   -1    0    0    0    0  0.00000000000E+00  0.00000000000E+00  0.34404180468E+00  0.34404180468E+00  0.00000000000E+00 0. -1.
         22   -1    0    0    0    0 -0.00000000000E+00 -0.00000000000E+00 -0.20980387048E+02  0.20980387048E+02  0.00000000000E+00 0.  1.
          4    1    1    2  501    0 -0.17526950558E+01  0.10987101167E+01 -0.57480536386E+01  0.62395612435E+01  0.12700000000E+01 0.  1.
         -4    1    1    2    0  501  0.17526950558E+01 -0.10987101167E+01 -0.14888291605E+02  0.15084867609E+02  0.12700000000E+01 0.  1.
<mgrwt>
<rscale>  0 0.24273450E+01</rscale>
<asrwt>0</asrwt>
<pdfrwt beam="1">0</pdfrwt>
<pdfrwt beam="2">0</pdfrwt>
<totfact> 0.21357333E+12</totfact>
</mgrwt>
</event>
<event>
 4    1  0.1699693E+006  0.3538761E+01  0.7546771E-02  0.2375208E+00
         22   -1    0    0    0    0  0.00000000000E+00  0.00000000000E+00  0.35504104527E+02  0.35504104527E+02  0.00000000000E+00 0.  1.
         22   -1    0    0    0    0 -0.00000000000E+00 -0.00000000000E+00 -0.33349263477E+01  0.33349263477E+01  0.00000000000E+00 0.  1.
          4    1    1    2  501    0  0.32673658516E+01  0.48399724426E+00  0.34448470065E+02  0.34629754875E+02  0.12700000000E+01 0.  1.
         -4    1    1    2    0  501 -0.32673658516E+01 -0.48399724426E+00 -0.22792918852E+01  0.42092759994E+01  0.12700000000E+01 0.  1.
<mgrwt>
<rscale>  0 0.35387615E+01</rscale>
<asrwt>0</asrwt>
<pdfrwt beam="1">0</pdfrwt>
<pdfrwt beam="2">0</pdfrwt>
<totfact> 0.81419085E+10</totfact>
</mgrwt>
</event>
<event>
 4    1  0.1699693E+006  0.2163070E+01  0.7546771E-02  0.2878719E+00
         22   -1    0    0    0    0  0.00000000000E+00  0.00000000000E+00  0.52957269190E-01  0.52957269190E-01  0.00000000000E+00 0.  1.
         22   -1    0    0    0    0 -0.00000000000E+00 -0.00000000000E+00 -0.88872086147E+02  0.88872086147E+02  0.00000000000E+00 0.  1.
          4    1    1    2  501    0  0.20175786158E+00  0.17393288323E+01 -0.41007637957E+02  0.41064647105E+02  0.12700000000E+01 0.  1.
         -4    1    1    2    0  501 -0.20175786158E+00 -0.17393288323E+01 -0.47811490921E+02  0.47860396311E+02  0.12700000000E+01 0.  1.
<mgrwt>
<rscale>  0 0.21630698E+01</rscale>
<asrwt>0</asrwt>
<pdfrwt beam="1">0</pdfrwt>
<pdfrwt beam="2">0</pdfrwt>
<totfact> 0.25779434E+12</totfact>
</mgrwt>
</event>
<event>
 4    1  0.1699693E+006  0.2311065E+01  0.7546771E-02  0.2798179E+00
         22   -1    0    0    0    0  0.00000000000E+00  0.00000000000E+00  0.13130927701E+02  0.13130927701E+02  0.00000000000E+00 0.  1.
         22   -1    0    0    0    0 -0.00000000000E+00 -0.00000000000E+00 -0.62286929026E+00  0.62286929026E+00  0.00000000000E+00 0. -1.
          4    1    1    2  501    0 -0.16748708082E+01 -0.96069270365E+00  0.10304817579E+02  0.10560790124E+02  0.12700000000E+01 0.  1.
         -4    1    1    2    0  501  0.16748708082E+01  0.96069270365E+00  0.22032408315E+01  0.31930068676E+01  0.12700000000E+01 0. -1.
<mgrwt>
<rscale>  0 0.23110653E+01</rscale>
<asrwt>0</asrwt>
<pdfrwt beam="1">0</pdfrwt>
<pdfrwt beam="2">0</pdfrwt>
<totfact> 0.19515187E+12</totfact>
</mgrwt>
</event>
<event>
 4    1  0.1699693E+006  0.3500698E+01  0.7546771E-02  0.2384278E+00
         22   -1    0    0    0    0  0.00000000000E+00  0.00000000000E+00  0.10620741351E+02  0.10620741351E+02  0.00000000000E+00 0.  1.
         22   -1    0    0    0    0 -0.00000000000E+00 -0.00000000000E+00 -0.11967255606E+01  0.11967255606E+01  0.00000000000E+00 0.  1.
          4    1    1    2  501    0  0.21446114311E+01 -0.24581761381E+01  0.35937743197E+01  0.50169813610E+01  0.12700000000E+01 0.  1.
         -4    1    1    2    0  501 -0.21446114311E+01  0.24581761381E+01  0.58302414711E+01  0.68004855509E+01  0.12700000000E+01 0.  1.
<mgrwt>
<rscale>  0 0.35006982E+01</rscale>
<asrwt>0</asrwt>
<pdfrwt beam="1">0</pdfrwt>
<pdfrwt beam="2">0</pdfrwt>
<totfact> 0.12012000E+12</totfact>
</mgrwt>
</event>
<event>
 4    1  0.1699693E+006  0.2134863E+01  0.7546771E-02  0.2895282E+00
         22   -1    0    0    0    0  0.00000000000E+00  0.00000000000E+00  0.80723864183E+01  0.80723864183E+01  0.00000000000E+00 0. -1.
         22   -1    0    0    0    0 -0.00000000000E+00 -0.00000000000E+00 -0.21106564247E+01  0.21106564247E+01  0.00000000000E+00 0.  1.
          4    1    1    2  501    0  0.18533683454E+00 -0.17059869580E+01  0.73385111558E+01  0.76427342768E+01  0.12700000000E+01 0. -1.
         -4    1    1    2    0  501 -0.18533683454E+00  0.17059869580E+01 -0.13767811621E+01  0.25403085662E+01  0.12700000000E+01 0.  1.
<mgrwt>
<rscale>  0 0.21348633E+01</rscale>
<asrwt>0</asrwt>
<pdfrwt beam="1">0</pdfrwt>
<pdfrwt beam="2">0</pdfrwt>
<totfact> 0.87011079E+11</totfact>
</mgrwt>
</event>
<event>
 4    1  0.1699693E+006  0.2927068E+01  0.7546771E-02  0.2545742E+00
         22   -1    0    0    0    0  0.00000000000E+00  0.00000000000E+00  0.11743196089E+01  0.11743196089E+01  0.00000000000E+00 0.  1.
         22   -1    0    0    0    0 -0.00000000000E+00 -0.00000000000E+00 -0.11401008810E+02  0.11401008810E+02  0.00000000000E+00 0. -1.
          4    1    1    2  501    0  0.43441422029E+00 -0.26011752020E+01 -0.13404072074E+01  0.32193818705E+01  0.12700000000E+01 0.  1.
         -4    1    1    2    0  501 -0.43441422029E+00  0.26011752020E+01 -0.88862819934E+01  0.93559465481E+01  0.12700000000E+01 0. -1.
<mgrwt>
<rscale>  0 0.29270682E+01</rscale>
<asrwt>0</asrwt>
<pdfrwt beam="1">0</pdfrwt>
<pdfrwt beam="2">0</pdfrwt>
<totfact> 0.11261572E+12</totfact>
</mgrwt>
</event>
<event>
 4    1  0.1699693E+006  0.2144808E+01  0.7546771E-02  0.2889395E+00
         22   -1    0    0    0    0  0.00000000000E+00  0.00000000000E+00  0.69219681594E+01  0.69219681594E+01  0.00000000000E+00 0.  1.
         22   -1    0    0    0    0 -0.00000000000E+00 -0.00000000000E+00 -0.12398066638E+01  0.12398066638E+01  0.00000000000E+00 0. -1.
          4    1    1    2  501    0  0.17135404095E+01  0.22600577181E+00  0.56207764617E+01  0.60160890433E+01  0.12700000000E+01 0.  1.
         -4    1    1    2    0  501 -0.17135404095E+01 -0.22600577181E+00  0.61385033963E-01  0.21456857799E+01  0.12700000000E+01 0. -1.
<mgrwt>
<rscale>  0 0.21448075E+01</rscale>
<asrwt>0</asrwt>
<pdfrwt beam="1">0</pdfrwt>
<pdfrwt beam="2">0</pdfrwt>
<totfact> 0.19315528E+12</totfact>
</mgrwt>
</event>
<event>
 4    1  0.1699693E+006  0.2324883E+01  0.7546771E-02  0.2791158E+00
         22   -1    0    0    0    0  0.00000000000E+00  0.00000000000E+00  0.50713367859E+01  0.50713367859E+01  0.00000000000E+00 0. -1.
         22   -1    0    0    0    0 -0.00000000000E+00 -0.00000000000E+00 -0.21587258383E+01  0.21587258383E+01  0.00000000000E+00 0.  1.
          4    1    1    2  501    0 -0.31391106652E+00  0.19218849532E+01  0.40285168809E+01  0.46512396402E+01  0.12700000000E+01 0. -1.
         -4    1    1    2    0  501  0.31391106652E+00 -0.19218849532E+01 -0.11159059332E+01  0.25788229840E+01  0.12700000000E+01 0.  1.
<mgrwt>
<rscale>  0 0.23248832E+01</rscale>
<asrwt>0</asrwt>
<pdfrwt beam="1">0</pdfrwt>
<pdfrwt beam="2">0</pdfrwt>
<totfact> 0.14759548E+12</totfact>
</mgrwt>
</event>
<event>
 4    1  0.1699693E+006  0.2093711E+01  0.7546771E-02  0.2920220E+00
         22   -1    0    0    0    0  0.00000000000E+00  0.00000000000E+00  0.76325670772E+01  0.76325670772E+01  0.00000000000E+00 0. -1.
         22   -1    0    0    0    0 -0.00000000000E+00 -0.00000000000E+00 -0.85468833311E+00  0.85468833311E+00  0.00000000000E+00 0. -1.
          4    1    1    2  501    0  0.37136529342E+00  0.16225950610E+01  0.58194002500E+01  0.61845813264E+01  0.12700000000E+01 0. -1.
         -4    1    1    2    0  501 -0.37136529342E+00 -0.16225950610E+01  0.95847849407E+00  0.23026740839E+01  0.12700000000E+01 0. -1.
<mgrwt>
<rscale>  0 0.20937113E+01</rscale>
<asrwt>0</asrwt>
<pdfrwt beam="1">0</pdfrwt>
<pdfrwt beam="2">0</pdfrwt>
<totfact> 0.26281624E+12</totfact>
</mgrwt>
</event>
<event>
 4    1  0.1699693E+006  0.2859540E+01  0.7546771E-02  0.2568521E+00
         22   -1    0    0    0    0  0.00000000000E+00  0.00000000000E+00  0.52166633788E+00  0.52166633788E+00  0.00000000000E+00 0.  1.
         22   -1    0    0    0    0 -0.00000000000E+00 -0.00000000000E+00 -0.16152583548E+02  0.16152583548E+02  0.00000000000E+00 0. -1.
          4    1    1    2  501    0 -0.18734866622E+01  0.17476029642E+01 -0.92494678639E+01  0.96814061044E+01  0.12700000000E+01 0. -1.
         -4    1    1    2    0  501  0.18734866622E+01 -0.17476029642E+01 -0.63814493465E+01  0.69928437818E+01  0.12700000000E+01 0.  1.
<mgrwt>
<rscale>  0 0.28595399E+01</rscale>
<asrwt>0</asrwt>
<pdfrwt beam="1">0</pdfrwt>
<pdfrwt beam="2">0</pdfrwt>
<totfact> 0.18491216E+12</totfact>
</mgrwt>
</event>
<event>
 4    1  0.1699693E+006  0.3086228E+01  0.7546771E-02  0.2495614E+00
         22   -1    0    0    0    0  0.00000000000E+00  0.00000000000E+00  0.59480765664E+00  0.59480765664E+00  0.00000000000E+00 0. -1.
         22   -1    0    0    0    0 -0.00000000000E+00 -0.00000000000E+00 -0.16733828330E+02  0.16733828330E+02  0.00000000000E+00 0. -1.
          4    1    1    2  501    0 -0.27083573356E+01  0.75940839043E+00 -0.98674657655E+01  0.10338843320E+02  0.12700000000E+01 0. -1.
         -4    1    1    2    0  501  0.27083573356E+01 -0.75940839043E+00 -0.62715549076E+01  0.69897926664E+01  0.12700000000E+01 0. -1.
<mgrwt>
<rscale>  0 0.30862276E+01</rscale>
<asrwt>0</asrwt>
<pdfrwt beam="1">0</pdfrwt>
<pdfrwt beam="2">0</pdfrwt>
<totfact> 0.15259650E+12</totfact>
</mgrwt>
</event>
<event>
 4    1  0.1699693E+006  0.2577827E+01  0.7546771E-02  0.2675182E+00
         22   -1    0    0    0    0  0.00000000000E+00  0.00000000000E+00  0.12114328210E+01  0.12114328210E+01  0.00000000000E+00 0.  1.
         22   -1    0    0    0    0 -0.00000000000E+00 -0.00000000000E+00 -0.20000254781E+02  0.20000254781E+02  0.00000000000E+00 0. -1.
          4    1    1    2  501    0  0.21950248044E+01 -0.46277228223E+00 -0.35929297834E+00  0.26027453816E+01  0.12700000000E+01 0.  1.
         -4    1    1    2    0  501 -0.21950248044E+01  0.46277228223E+00 -0.18429528982E+02  0.18608942221E+02  0.12700000000E+01 0. -1.
<mgrwt>
<rscale>  0 0.25778270E+01</rscale>
<asrwt>0</asrwt>
<pdfrwt beam="1">0</pdfrwt>
<pdfrwt beam="2">0</pdfrwt>
<totfact> 0.54395633E+11</totfact>
</mgrwt>
</event>
<event>
 4    1  0.1699693E+006  0.2805513E+01  0.7546771E-02  0.2587458E+00
         22   -1    0    0    0    0  0.00000000000E+00  0.00000000000E+00  0.17580611784E+02  0.17580611784E+02  0.00000000000E+00 0.  1.
         22   -1    0    0    0    0 -0.00000000000E+00 -0.00000000000E+00 -0.75976730621E+00  0.75976730621E+00  0.00000000000E+00 0.  1.
          4    1    1    2  501    0  0.23555973703E+01 -0.84212035183E+00  0.14287474397E+02  0.14560316971E+02  0.12700000000E+01 0.  1.
         -4    1    1    2    0  501 -0.23555973703E+01  0.84212035183E+00  0.25333700811E+01  0.37800621193E+01  0.12700000000E+01 0.  1.
<mgrwt>
<rscale>  0 0.28055134E+01</rscale>
<asrwt>0</asrwt>
<pdfrwt beam="1">0</pdfrwt>
<pdfrwt beam="2">0</pdfrwt>
<totfact> 0.10874535E+12</totfact>
</mgrwt>
</event>
<event>
 4    1  0.1699693E+006  0.2348105E+01  0.7546771E-02  0.2779535E+00
         22   -1    0    0    0    0  0.00000000000E+00  0.00000000000E+00  0.36846217293E+00  0.36846217293E+00  0.00000000000E+00 0. -1.
         22   -1    0    0    0    0 -0.00000000000E+00 -0.00000000000E+00 -0.15185949752E+02  0.15185949752E+02  0.00000000000E+00 0. -1.
          4    1    1    2  501    0  0.15746054384E+01  0.11921888140E+01 -0.64681118454E+01  0.68811385177E+01  0.12700000000E+01 0. -1.
         -4    1    1    2    0  501 -0.15746054384E+01 -0.11921888140E+01 -0.83493757334E+01  0.86732734070E+01  0.12700000000E+01 0. -1.
<mgrwt>
<rscale>  0 0.23481049E+01</rscale>
<asrwt>0</asrwt>
<pdfrwt beam="1">0</pdfrwt>
<pdfrwt beam="2">0</pdfrwt>
<totfact> 0.29524690E+12</totfact>
</mgrwt>
</event>
<event>
 4    1  0.1699693E+006  0.2750003E+01  0.7546771E-02  0.2607619E+00
         22   -1    0    0    0    0  0.00000000000E+00  0.00000000000E+00  0.53297881808E+01  0.53297881808E+01  0.00000000000E+00 0.  1.
         22   -1    0    0    0    0 -0.00000000000E+00 -0.00000000000E+00 -0.24374943356E+01  0.24374943356E+01  0.00000000000E+00 0.  1.
          4    1    1    2  501    0  0.16421311695E+01  0.18036130488E+01  0.39566733234E+01  0.48184830181E+01  0.12700000000E+01 0.  1.
         -4    1    1    2    0  501 -0.16421311695E+01 -0.18036130488E+01 -0.10643794782E+01  0.29487994983E+01  0.12700000000E+01 0.  1.
<mgrwt>
<rscale>  0 0.27500027E+01</rscale>
<asrwt>0</asrwt>
<pdfrwt beam="1">0</pdfrwt>
<pdfrwt beam="2">0</pdfrwt>
<totfact> 0.12085493E+12</totfact>
</mgrwt>
</event>
<event>
 4    1  0.1699693E+006  0.2914561E+01  0.7546771E-02  0.2549889E+00
         22   -1    0    0    0    0  0.00000000000E+00  0.00000000000E+00  0.68327694399E+00  0.68327694399E+00  0.00000000000E+00 0. -1.
         22   -1    0    0    0    0 -0.00000000000E+00 -0.00000000000E+00 -0.35815973513E+02  0.35815973513E+02  0.00000000000E+00 0.  1.
          4    1    1    2  501    0  0.13321239620E+01 -0.22599146215E+01 -0.28204096103E+01  0.40557833666E+01  0.12700000000E+01 0. -1.
         -4    1    1    2    0  501 -0.13321239620E+01  0.22599146215E+01 -0.32312286959E+02  0.32443467091E+02  0.12700000000E+01 0.  1.
<mgrwt>
<rscale>  0 0.29145614E+01</rscale>
<asrwt>0</asrwt>
<pdfrwt beam="1">0</pdfrwt>
<pdfrwt beam="2">0</pdfrwt>
<totfact> 0.49960024E+11</totfact>
</mgrwt>
</event>
<event>
 4    1  0.1699693E+006  0.2118524E+01  0.7546771E-02  0.2905072E+00
         22   -1    0    0    0    0  0.00000000000E+00  0.00000000000E+00  0.10203704729E+02  0.10203704729E+02  0.00000000000E+00 0. -1.
         22   -1    0    0    0    0 -0.00000000000E+00 -0.00000000000E+00 -0.56567932182E+00  0.56567932182E+00  0.00000000000E+00 0.  1.
          4    1    1    2  501    0 -0.16938880699E+01 -0.77383685086E-01  0.73585754600E+01  0.76574654965E+01  0.12700000000E+01 0. -1.
         -4    1    1    2    0  501  0.16938880699E+01  0.77383685086E-01  0.22794499475E+01  0.31119185547E+01  0.12700000000E+01 0.  1.
<mgrwt>
<rscale>  0 0.21185243E+01</rscale>
<asrwt>0</asrwt>
<pdfrwt beam="1">0</pdfrwt>
<pdfrwt beam="2">0</pdfrwt>
<totfact> 0.29586331E+12</totfact>
</mgrwt>
</event>
<event>
 4    1  0.1699693E+006  0.3950772E+01  0.7546771E-02  0.2286804E+00
         22   -1    0    0    0    0  0.00000000000E+00  0.00000000000E+00  0.21791277055E+01  0.21791277055E+01  0.00000000000E+00 0.  1.
         22   -1    0    0    0    0 -0.00000000000E+00 -0.00000000000E+00 -0.12752921368E+02  0.12752921368E+02  0.00000000000E+00 0. -1.
          4    1    1    2  501    0  0.20585006324E+01  0.31238238433E+01 -0.34383340798E+00  0.39657056963E+01  0.12700000000E+01 0.  1.
         -4    1    1    2    0  501 -0.20585006324E+01 -0.31238238433E+01 -0.10229960254E+02  0.10966343377E+02  0.12700000000E+01 0. -1.
<mgrwt>
<rscale>  0 0.39507721E+01</rscale>
<asrwt>0</asrwt>
<pdfrwt beam="1">0</pdfrwt>
<pdfrwt beam="2">0</pdfrwt>
<totfact> 0.48182096E+11</totfact>
</mgrwt>
</event>
<event>
 4    1  0.1699693E+006  0.2032832E+01  0.7546771E-02  0.2958909E+00
         22   -1    0    0    0    0  0.00000000000E+00  0.00000000000E+00  0.13381559291E+01  0.13381559291E+01  0.00000000000E+00 0. -1.
         22   -1    0    0    0    0 -0.00000000000E+00 -0.00000000000E+00 -0.38506240772E+01  0.38506240772E+01  0.00000000000E+00 0.  1.
          4    1    1    2  501    0  0.13430622846E+01  0.84598467488E+00 -0.10175392484E+00  0.20353771719E+01  0.12700000000E+01 0. -1.
         -4    1    1    2    0  501 -0.13430622846E+01 -0.84598467488E+00 -0.24107142232E+01  0.31534028344E+01  0.12700000000E+01 0.  1.
<mgrwt>
<rscale>  0 0.20328321E+01</rscale>
<asrwt>0</asrwt>
<pdfrwt beam="1">0</pdfrwt>
<pdfrwt beam="2">0</pdfrwt>
<totfact> 0.35460661E+12</totfact>
</mgrwt>
</event>
<event>
 4    1  0.1699693E+006  0.3043728E+01  0.7546771E-02  0.2508540E+00
         22   -1    0    0    0    0  0.00000000000E+00  0.00000000000E+00  0.44375707230E+01  0.44375707230E+01  0.00000000000E+00 0.  1.
         22   -1    0    0    0    0 -0.00000000000E+00 -0.00000000000E+00 -0.67525201175E+01  0.67525201175E+01  0.00000000000E+00 0. -1.
          4    1    1    2  501    0 -0.26933287914E+01 -0.63036280520E+00  0.34929062913E+01  0.46329981226E+01  0.12700000000E+01 0.  1.
         -4    1    1    2    0  501  0.26933287914E+01  0.63036280520E+00 -0.58078556858E+01  0.65570927179E+01  0.12700000000E+01 0. -1.
<mgrwt>
<rscale>  0 0.30437275E+01</rscale>
<asrwt>0</asrwt>
<pdfrwt beam="1">0</pdfrwt>
<pdfrwt beam="2">0</pdfrwt>
<totfact> 0.45212102E+11</totfact>
</mgrwt>
</event>
<event>
 4    1  0.1699693E+006  0.2388972E+01  0.7546771E-02  0.2759599E+00
         22   -1    0    0    0    0  0.00000000000E+00  0.00000000000E+00  0.14975909271E+01  0.14975909271E+01  0.00000000000E+00 0.  1.
         22   -1    0    0    0    0 -0.00000000000E+00 -0.00000000000E+00 -0.44462654546E+01  0.44462654546E+01  0.00000000000E+00 0. -1.
          4    1    1    2  501    0  0.23148112573E+00 -0.20101502438E+01 -0.25977730447E+01  0.35292509554E+01  0.12700000000E+01 0. -1.
         -4    1    1    2    0  501 -0.23148112573E+00  0.20101502438E+01 -0.35090148287E+00  0.24146054264E+01  0.12700000000E+01 0.  1.
<mgrwt>
<rscale>  0 0.23889721E+01</rscale>
<asrwt>0</asrwt>
<pdfrwt beam="1">0</pdfrwt>
<pdfrwt beam="2">0</pdfrwt>
<totfact> 0.26303872E+12</totfact>
</mgrwt>
</event>
<event>
 4    1  0.1699693E+006  0.3318913E+01  0.7546771E-02  0.2430091E+00
         22   -1    0    0    0    0  0.00000000000E+00  0.00000000000E+00  0.85128447294E+01  0.85128447294E+01  0.00000000000E+00 0. -1.
         22   -1    0    0    0    0 -0.00000000000E+00 -0.00000000000E+00 -0.12942030388E+01  0.12942030388E+01  0.00000000000E+00 0.  1.
          4    1    1    2  501    0  0.95542044949E-01  0.30648255021E+01  0.35405686373E+01  0.48529176705E+01  0.12700000000E+01 0. -1.
         -4    1    1    2    0  501 -0.95542044949E-01 -0.30648255021E+01  0.36780730533E+01  0.49541300978E+01  0.12700000000E+01 0.  1.
<mgrwt>
<rscale>  0 0.33189130E+01</rscale>
<asrwt>0</asrwt>
<pdfrwt beam="1">0</pdfrwt>
<pdfrwt beam="2">0</pdfrwt>
<totfact> 0.14346895E+12</totfact>
</mgrwt>
</event>
<event>
 4    1  0.1699693E+006  0.2245311E+01  0.7546771E-02  0.2832712E+00
         22   -1    0    0    0    0  0.00000000000E+00  0.00000000000E+00  0.32842462941E+01  0.32842462941E+01  0.00000000000E+00 0. -1.
         22   -1    0    0    0    0 -0.00000000000E+00 -0.00000000000E+00 -0.36216425607E+01  0.36216425607E+01  0.00000000000E+00 0.  1.
          4    1    1    2  501    0  0.14880673701E+01  0.11018966970E+01  0.24522448330E+01  0.33248948178E+01  0.12700000000E+01 0. -1.
         -4    1    1    2    0  501 -0.14880673701E+01 -0.11018966970E+01 -0.27896410995E+01  0.35809940370E+01  0.12700000000E+01 0.  1.
<mgrwt>
<rscale>  0 0.22453109E+01</rscale>
<asrwt>0</asrwt>
<pdfrwt beam="1">0</pdfrwt>
<pdfrwt beam="2">0</pdfrwt>
<totfact> 0.13463439E+12</totfact>
</mgrwt>
</event>
<event>
 4    1  0.1699693E+006  0.2028936E+01  0.7546771E-02  0.2961463E+00
         22   -1    0    0    0    0  0.00000000000E+00  0.00000000000E+00  0.71777509961E+00  0.71777509961E+00  0.00000000000E+00 0.  1.
         22   -1    0    0    0    0 -0.00000000000E+00 -0.00000000000E+00 -0.75168366383E+01  0.75168366383E+01  0.00000000000E+00 0.  1.
          4    1    1    2  501    0 -0.13866835614E+01 -0.76209565216E+00 -0.13950329133E+01  0.24622546399E+01  0.12700000000E+01 0.  1.
         -4    1    1    2    0  501  0.13866835614E+01  0.76209565216E+00 -0.54040286254E+01  0.57723570980E+01  0.12700000000E+01 0.  1.
<mgrwt>
<rscale>  0 0.20289359E+01</rscale>
<asrwt>0</asrwt>
<pdfrwt beam="1">0</pdfrwt>
<pdfrwt beam="2">0</pdfrwt>
<totfact> 0.32645488E+12</totfact>
</mgrwt>
</event>
<event>
 4    1  0.1699693E+006  0.2368163E+01  0.7546771E-02  0.2769669E+00
         22   -1    0    0    0    0  0.00000000000E+00  0.00000000000E+00  0.19924266777E+02  0.19924266777E+02  0.00000000000E+00 0.  1.
         22   -1    0    0    0    0 -0.00000000000E+00 -0.00000000000E+00 -0.30340092494E+00  0.30340092494E+00  0.00000000000E+00 0. -1.
          4    1    1    2  501    0  0.12694767596E+01 -0.15439322332E+01  0.12529243019E+02  0.12751083429E+02  0.12700000000E+01 0.  1.
         -4    1    1    2    0  501 -0.12694767596E+01  0.15439322332E+01  0.70916228325E+01  0.74765842724E+01  0.12700000000E+01 0. -1.
<mgrwt>
<rscale>  0 0.23681634E+01</rscale>
<asrwt>0</asrwt>
<pdfrwt beam="1">0</pdfrwt>
<pdfrwt beam="2">0</pdfrwt>
<totfact> 0.26231252E+12</totfact>
</mgrwt>
</event>
<event>
 4    1  0.1699693E+006  0.3794772E+01  0.7546771E-02  0.2318329E+00
         22   -1    0    0    0    0  0.00000000000E+00  0.00000000000E+00  0.29015000704E+01  0.29015000704E+01  0.00000000000E+00 0.  1.
         22   -1    0    0    0    0 -0.00000000000E+00 -0.00000000000E+00 -0.49786285362E+01  0.49786285362E+01  0.00000000000E+00 0. -1.
          4    1    1    2  501    0 -0.18706418551E+01  0.30476368576E+01 -0.12589608098E+01  0.39981587871E+01  0.12700000000E+01 0.  1.
         -4    1    1    2    0  501  0.18706418551E+01 -0.30476368576E+01 -0.81816765603E+00  0.38819698195E+01  0.12700000000E+01 0. -1.
<mgrwt>
<rscale>  0 0.37947716E+01</rscale>
<asrwt>0</asrwt>
<pdfrwt beam="1">0</pdfrwt>
<pdfrwt beam="2">0</pdfrwt>
<totfact> 0.10695271E+12</totfact>
</mgrwt>
</event>
<event>
 4    1  0.1699693E+006  0.2236730E+01  0.7546771E-02  0.2837361E+00
         22   -1    0    0    0    0  0.00000000000E+00  0.00000000000E+00  0.43999707878E+01  0.43999707878E+01  0.00000000000E+00 0. -1.
         22   -1    0    0    0    0 -0.00000000000E+00 -0.00000000000E+00 -0.11686520889E+01  0.11686520889E+01  0.00000000000E+00 0.  1.
          4    1    1    2  501    0 -0.16563496611E+01  0.80409359591E+00  0.20735626790E+01  0.30500201466E+01  0.12700000000E+01 0.  1.
         -4    1    1    2    0  501  0.16563496611E+01 -0.80409359591E+00  0.11577560199E+01  0.25186027302E+01  0.12700000000E+01 0. -1.
<mgrwt>
<rscale>  0 0.22367299E+01</rscale>
<asrwt>0</asrwt>
<pdfrwt beam="1">0</pdfrwt>
<pdfrwt beam="2">0</pdfrwt>
<totfact> 0.35400273E+12</totfact>
</mgrwt>
</event>
<event>
 4    1  0.1699693E+006  0.2372599E+01  0.7546771E-02  0.2767508E+00
         22   -1    0    0    0    0  0.00000000000E+00  0.00000000000E+00  0.19516150485E+02  0.19516150485E+02  0.00000000000E+00 0.  1.
         22   -1    0    0    0    0 -0.00000000000E+00 -0.00000000000E+00 -0.29786293341E+00  0.29786293341E+00  0.00000000000E+00 0. -1.
          4    1    1    2  501    0 -0.30354305694E+00 -0.19809565611E+01  0.11371284006E+02  0.11616166633E+02  0.12700000000E+01 0. -1.
         -4    1    1    2    0  501  0.30354305694E+00  0.19809565611E+01  0.78470035455E+01  0.81978467860E+01  0.12700000000E+01 0.  1.
<mgrwt>
<rscale>  0 0.23725993E+01</rscale>
<asrwt>0</asrwt>
<pdfrwt beam="1">0</pdfrwt>
<pdfrwt beam="2">0</pdfrwt>
<totfact> 0.27478328E+12</totfact>
</mgrwt>
</event>
<event>
 4    1  0.1699693E+006  0.2090070E+01  0.7546771E-02  0.2922473E+00
         22   -1    0    0    0    0  0.00000000000E+00  0.00000000000E+00  0.10819144610E+01  0.10819144610E+01  0.00000000000E+00 0. -1.
         22   -1    0    0    0    0 -0.00000000000E+00 -0.00000000000E+00 -0.40461769940E+01  0.40461769940E+01  0.00000000000E+00 0.  1.
          4    1    1    2  501    0  0.10548404284E-01 -0.16599340961E+01 -0.13644280331E+01  0.24960080789E+01  0.12700000000E+01 0. -1.
         -4    1    1    2    0  501 -0.10548404284E-01  0.16599340961E+01 -0.15998344998E+01  0.26320833761E+01  0.12700000000E+01 0.  1.
<mgrwt>
<rscale>  0 0.20900700E+01</rscale>
<asrwt>0</asrwt>
<pdfrwt beam="1">0</pdfrwt>
<pdfrwt beam="2">0</pdfrwt>
<totfact> 0.42679637E+12</totfact>
</mgrwt>
</event>
<event>
 4    1  0.1699693E+006  0.2589889E+01  0.7546771E-02  0.2670180E+00
         22   -1    0    0    0    0  0.00000000000E+00  0.00000000000E+00  0.11017779903E+02  0.11017779903E+02  0.00000000000E+00 0. -1.
         22   -1    0    0    0    0 -0.00000000000E+00 -0.00000000000E+00 -0.66058679002E+00  0.66058679002E+00  0.00000000000E+00 0. -1.
          4    1    1    2  501    0 -0.22250983714E+01  0.37889735467E+00  0.68136581796E+01  0.72892704543E+01  0.12700000000E+01 0. -1.
         -4    1    1    2    0  501  0.22250983714E+01 -0.37889735467E+00  0.35435349331E+01  0.43890962384E+01  0.12700000000E+01 0. -1.
<mgrwt>
<rscale>  0 0.25898892E+01</rscale>
<asrwt>0</asrwt>
<pdfrwt beam="1">0</pdfrwt>
<pdfrwt beam="2">0</pdfrwt>
<totfact> 0.22613474E+12</totfact>
</mgrwt>
</event>
<event>
 4    1  0.1699693E+006  0.2804658E+01  0.7546771E-02  0.2587763E+00
         22   -1    0    0    0    0  0.00000000000E+00  0.00000000000E+00  0.12410240180E+00  0.12410240180E+00  0.00000000000E+00 0. -1.
         22   -1    0    0    0    0 -0.00000000000E+00 -0.00000000000E+00 -0.88445747908E+02  0.88445747908E+02  0.00000000000E+00 0. -1.
          4    1    1    2  501    0  0.88304429311E+00 -0.23395385879E+01 -0.20587379789E+02  0.20777543517E+02  0.12700000000E+01 0. -1.
         -4    1    1    2    0  501 -0.88304429311E+00  0.23395385879E+01 -0.67734265718E+02  0.67792306793E+02  0.12700000000E+01 0. -1.
<mgrwt>
<rscale>  0 0.28046583E+01</rscale>
<asrwt>0</asrwt>
<pdfrwt beam="1">0</pdfrwt>
<pdfrwt beam="2">0</pdfrwt>
<totfact> 0.10130571E+12</totfact>
</mgrwt>
</event>
<event>
 4    1  0.1699693E+006  0.2592330E+01  0.7546771E-02  0.2669173E+00
         22   -1    0    0    0    0  0.00000000000E+00  0.00000000000E+00  0.37586745883E+02  0.37586745883E+02  0.00000000000E+00 0.  1.
         22   -1    0    0    0    0 -0.00000000000E+00 -0.00000000000E+00 -0.11796629720E+01  0.11796629720E+01  0.00000000000E+00 0. -1.
          4    1    1    2  501    0 -0.52782983332E+00  0.21974240495E+01  0.36057554090E+02  0.36150620794E+02  0.12700000000E+01 0.  1.
         -4    1    1    2    0  501  0.52782983332E+00 -0.21974240495E+01  0.34952882091E+00  0.26157880616E+01  0.12700000000E+01 0. -1.
<mgrwt>
<rscale>  0 0.25923304E+01</rscale>
<asrwt>0</asrwt>
<pdfrwt beam="1">0</pdfrwt>
<pdfrwt beam="2">0</pdfrwt>
<totfact> 0.25190390E+11</totfact>
</mgrwt>
</event>
<event>
 4    1  0.1699693E+006  0.2524787E+01  0.7546771E-02  0.2697702E+00
         22   -1    0    0    0    0  0.00000000000E+00  0.00000000000E+00  0.25505559137E+01  0.25505559137E+01  0.00000000000E+00 0. -1.
         22   -1    0    0    0    0 -0.00000000000E+00 -0.00000000000E+00 -0.35978240820E+01  0.35978240820E+01  0.00000000000E+00 0.  1.
          4    1    1    2  501    0  0.21531493037E+01  0.35439491774E+00  0.11750785988E+01  0.27848442318E+01  0.12700000000E+01 0. -1.
         -4    1    1    2    0  501 -0.21531493037E+01 -0.35439491774E+00 -0.22223467672E+01  0.33635357640E+01  0.12700000000E+01 0.  1.
<mgrwt>
<rscale>  0 0.25247867E+01</rscale>
<asrwt>0</asrwt>
<pdfrwt beam="1">0</pdfrwt>
<pdfrwt beam="2">0</pdfrwt>
<totfact> 0.18226107E+12</totfact>
</mgrwt>
</event>
<event>
 4    1  0.1699693E+006  0.5584610E+01  0.7546771E-02  0.2059074E+00
         22   -1    0    0    0    0  0.00000000000E+00  0.00000000000E+00  0.14636983467E+02  0.14636983467E+02  0.00000000000E+00 0. -1.
         22   -1    0    0    0    0 -0.00000000000E+00 -0.00000000000E+00 -0.29184397396E+01  0.29184397396E+01  0.00000000000E+00 0.  1.
          4    1    1    2  501    0  0.11746687171E+01  0.53099082179E+01  0.10419444548E+02  0.11821704470E+02  0.12700000000E+01 0. -1.
         -4    1    1    2    0  501 -0.11746687171E+01 -0.53099082179E+01  0.12990991794E+01  0.57337187370E+01  0.12700000000E+01 0.  1.
<mgrwt>
<rscale>  0 0.55846103E+01</rscale>
<asrwt>0</asrwt>
<pdfrwt beam="1">0</pdfrwt>
<pdfrwt beam="2">0</pdfrwt>
<totfact> 0.28968749E+11</totfact>
</mgrwt>
</event>
<event>
 4    1  0.1699693E+006  0.2504563E+01  0.7546771E-02  0.2706522E+00
         22   -1    0    0    0    0  0.00000000000E+00  0.00000000000E+00  0.26450761723E+02  0.26450761723E+02  0.00000000000E+00 0.  1.
         22   -1    0    0    0    0 -0.00000000000E+00 -0.00000000000E+00 -0.23718179804E+00  0.23718179804E+00  0.00000000000E+00 0. -1.
          4    1    1    2  501    0  0.17799328030E+01  0.12213833436E+01  0.12955994723E+02  0.13195856823E+02  0.12700000000E+01 0.  1.
         -4    1    1    2    0  501 -0.17799328030E+01 -0.12213833436E+01  0.13257585202E+02  0.13492086697E+02  0.12700000000E+01 0. -1.
<mgrwt>
<rscale>  0 0.25045634E+01</rscale>
<asrwt>0</asrwt>
<pdfrwt beam="1">0</pdfrwt>
<pdfrwt beam="2">0</pdfrwt>
<totfact> 0.24211464E+12</totfact>
</mgrwt>
</event>
<event>
 4    1  0.1699693E+006  0.2614260E+01  0.7546771E-02  0.2660203E+00
         22   -1    0    0    0    0  0.00000000000E+00  0.00000000000E+00  0.25667360597E+01  0.25667360597E+01  0.00000000000E+00 0. -1.
         22   -1    0    0    0    0 -0.00000000000E+00 -0.00000000000E+00 -0.34154238342E+02  0.34154238342E+02  0.00000000000E+00 0.  1.
          4    1    1    2  501    0  0.15830876391E+01 -0.16478138020E+01  0.18365236797E+01  0.31948671373E+01  0.12700000000E+01 0. -1.
         -4    1    1    2    0  501 -0.15830876391E+01  0.16478138020E+01 -0.33424025962E+02  0.33526107265E+02  0.12700000000E+01 0.  1.
<mgrwt>
<rscale>  0 0.26142603E+01</rscale>
<asrwt>0</asrwt>
<pdfrwt beam="1">0</pdfrwt>
<pdfrwt beam="2">0</pdfrwt>
<totfact> 0.11617610E+11</totfact>
</mgrwt>
</event>
<event>
 4    1  0.1699693E+006  0.4123396E+01  0.7546771E-02  0.2254310E+00
         22   -1    0    0    0    0  0.00000000000E+00  0.00000000000E+00  0.16794624940E+01  0.16794624940E+01  0.00000000000E+00 0. -1.
         22   -1    0    0    0    0 -0.00000000000E+00 -0.00000000000E+00 -0.12138784438E+02  0.12138784438E+02  0.00000000000E+00 0.  1.
          4    1    1    2  501    0  0.18333176891E+01  0.34682042315E+01 -0.24146460435E+01  0.47783794173E+01  0.12700000000E+01 0. -1.
         -4    1    1    2    0  501 -0.18333176891E+01 -0.34682042315E+01 -0.80446759006E+01  0.90398675149E+01  0.12700000000E+01 0.  1.
<mgrwt>
<rscale>  0 0.41233960E+01</rscale>
<asrwt>0</asrwt>
<pdfrwt beam="1">0</pdfrwt>
<pdfrwt beam="2">0</pdfrwt>
<totfact> 0.69160759E+11</totfact>
</mgrwt>
</event>
<event>
 4    1  0.1699693E+006  0.2071361E+01  0.7546771E-02  0.2934167E+00
         22   -1    0    0    0    0  0.00000000000E+00  0.00000000000E+00  0.67927632846E+00  0.67927632846E+00  0.00000000000E+00 0.  1.
         22   -1    0    0    0    0 -0.00000000000E+00 -0.00000000000E+00 -0.70827231421E+01  0.70827231421E+01  0.00000000000E+00 0.  1.
          4    1    1    2  501    0  0.14727371312E+01 -0.71321848393E+00 -0.19250831665E+01  0.28278048839E+01  0.12700000000E+01 0.  1.
         -4    1    1    2    0  501 -0.14727371312E+01  0.71321848393E+00 -0.44783636471E+01  0.49341945867E+01  0.12700000000E+01 0.  1.
<mgrwt>
<rscale>  0 0.20713607E+01</rscale>
<asrwt>0</asrwt>
<pdfrwt beam="1">0</pdfrwt>
<pdfrwt beam="2">0</pdfrwt>
<totfact> 0.37320664E+12</totfact>
</mgrwt>
</event>
<event>
 4    1  0.1699693E+006  0.4412639E+01  0.7546771E-02  0.2204736E+00
         22   -1    0    0    0    0  0.00000000000E+00  0.00000000000E+00  0.26227729929E+01  0.26227729929E+01  0.00000000000E+00 0. -1.
         22   -1    0    0    0    0 -0.00000000000E+00 -0.00000000000E+00 -0.13747878043E+02  0.13747878043E+02  0.00000000000E+00 0.  1.
          4    1    1    2  501    0 -0.41668050435E+01 -0.70442542182E+00 -0.11114060975E+02  0.11957998611E+02  0.12700000000E+01 0.  1.
         -4    1    1    2    0  501  0.41668050435E+01  0.70442542182E+00 -0.11044075401E-01  0.44126524242E+01  0.12700000000E+01 0. -1.
<mgrwt>
<rscale>  0 0.44126386E+01</rscale>
<asrwt>0</asrwt>
<pdfrwt beam="1">0</pdfrwt>
<pdfrwt beam="2">0</pdfrwt>
<totfact> 0.35434774E+11</totfact>
</mgrwt>
</event>
<event>
 4    1  0.1699693E+006  0.2394203E+01  0.7546771E-02  0.2757093E+00
         22   -1    0    0    0    0  0.00000000000E+00  0.00000000000E+00  0.80659735315E+01  0.80659735315E+01  0.00000000000E+00 0. -1.
         22   -1    0    0    0    0 -0.00000000000E+00 -0.00000000000E+00 -0.79258139935E+00  0.79258139935E+00  0.00000000000E+00 0. -1.
          4    1    1    2  501    0  0.73062204227E+00  0.18935415108E+01  0.50606482607E+01  0.55984255680E+01  0.12700000000E+01 0. -1.
         -4    1    1    2    0  501 -0.73062204227E+00 -0.18935415108E+01  0.22127438715E+01  0.32601293629E+01  0.12700000000E+01 0. -1.
<mgrwt>
<rscale>  0 0.23942030E+01</rscale>
<asrwt>0</asrwt>
<pdfrwt beam="1">0</pdfrwt>
<pdfrwt beam="2">0</pdfrwt>
<totfact> 0.26802027E+12</totfact>
</mgrwt>
</event>
<event>
 4    1  0.1699693E+006  0.2007832E+01  0.7546771E-02  0.2975460E+00
         22   -1    0    0    0    0  0.00000000000E+00  0.00000000000E+00  0.26806357941E+01  0.26806357941E+01  0.00000000000E+00 0.  1.
         22   -1    0    0    0    0 -0.00000000000E+00 -0.00000000000E+00 -0.21329160290E+01  0.21329160290E+01  0.00000000000E+00 0. -1.
          4    1    1    2  501    0  0.18120488557E+00 -0.15445565963E+01  0.15808789886E+01  0.25554977336E+01  0.12700000000E+01 0.  1.
         -4    1    1    2    0  501 -0.18120488557E+00  0.15445565963E+01 -0.10331592235E+01  0.22580540895E+01  0.12700000000E+01 0. -1.
<mgrwt>
<rscale>  0 0.20078322E+01</rscale>
<asrwt>0</asrwt>
<pdfrwt beam="1">0</pdfrwt>
<pdfrwt beam="2">0</pdfrwt>
<totfact> 0.31642765E+12</totfact>
</mgrwt>
</event>
<event>
 4    1  0.1699693E+006  0.2988681E+01  0.7546771E-02  0.2525769E+00
         22   -1    0    0    0    0  0.00000000000E+00  0.00000000000E+00  0.87038754540E+00  0.87038754540E+00  0.00000000000E+00 0.  1.
         22   -1    0    0    0    0 -0.00000000000E+00 -0.00000000000E+00 -0.12957075534E+02  0.12957075534E+02  0.00000000000E+00 0. -1.
          4    1    1    2  501    0 -0.24642815644E+01  0.11165253790E+01 -0.28903936896E+01  0.41577143037E+01  0.12700000000E+01 0.  1.
         -4    1    1    2    0  501  0.24642815644E+01 -0.11165253790E+01 -0.91962942991E+01  0.96697487758E+01  0.12700000000E+01 0. -1.
<mgrwt>
<rscale>  0 0.29886807E+01</rscale>
<asrwt>0</asrwt>
<pdfrwt beam="1">0</pdfrwt>
<pdfrwt beam="2">0</pdfrwt>
<totfact> 0.13563894E+12</totfact>
</mgrwt>
</event>
<event>
 4    1  0.1699693E+006  0.2217500E+01  0.7546771E-02  0.2847904E+00
         22   -1    0    0    0    0  0.00000000000E+00  0.00000000000E+00  0.51545907401E+01  0.51545907401E+01  0.00000000000E+00 0. -1.
         22   -1    0    0    0    0 -0.00000000000E+00 -0.00000000000E+00 -0.16429175774E+01  0.16429175774E+01  0.00000000000E+00 0.  1.
          4    1    1    2  501    0  0.17733887163E+01 -0.39937567055E+00  0.39567652086E+01  0.45357799088E+01  0.12700000000E+01 0. -1.
         -4    1    1    2    0  501 -0.17733887163E+01  0.39937567055E+00 -0.44509204595E+00  0.22617284087E+01  0.12700000000E+01 0.  1.
<mgrwt>
<rscale>  0 0.22175005E+01</rscale>
<asrwt>0</asrwt>
<pdfrwt beam="1">0</pdfrwt>
<pdfrwt beam="2">0</pdfrwt>
<totfact> 0.19850326E+12</totfact>
</mgrwt>
</event>
<event>
 4    1  0.1699693E+006  0.4477078E+01  0.7546771E-02  0.2194430E+00
         22   -1    0    0    0    0  0.00000000000E+00  0.00000000000E+00  0.98913439273E+00  0.98913439273E+00  0.00000000000E+00 0. -1.
         22   -1    0    0    0    0 -0.00000000000E+00 -0.00000000000E+00 -0.25325245197E+02  0.25325245197E+02  0.00000000000E+00 0.  1.
          4    1    1    2  501    0 -0.26880905470E+01 -0.33474618587E+01 -0.62864333671E+01  0.77177377620E+01  0.12700000000E+01 0. -1.
         -4    1    1    2    0  501  0.26880905470E+01  0.33474618587E+01 -0.18049677437E+02  0.18596641828E+02  0.12700000000E+01 0.  1.
<mgrwt>
<rscale>  0 0.44770785E+01</rscale>
<asrwt>0</asrwt>
<pdfrwt beam="1">0</pdfrwt>
<pdfrwt beam="2">0</pdfrwt>
<totfact> 0.51012533E+11</totfact>
</mgrwt>
</event>
<event>
 4    1  0.1699693E+006  0.2672952E+01  0.7546771E-02  0.2636866E+00
         22   -1    0    0    0    0  0.00000000000E+00  0.00000000000E+00  0.25558032964E+02  0.25558032964E+02  0.00000000000E+00 0.  1.
         22   -1    0    0    0    0 -0.00000000000E+00 -0.00000000000E+00 -0.62489203442E+00  0.62489203442E+00  0.00000000000E+00 0.  1.
          4    1    1    2  501    0 -0.28904311435E+00 -0.23341436557E+01  0.22198797974E+02  0.22359143634E+02  0.12700000000E+01 0.  1.
         -4    1    1    2    0  501  0.28904311435E+00  0.23341436557E+01  0.27343429550E+01  0.38237813644E+01  0.12700000000E+01 0.  1.
<mgrwt>
<rscale>  0 0.26729520E+01</rscale>
<asrwt>0</asrwt>
<pdfrwt beam="1">0</pdfrwt>
<pdfrwt beam="2">0</pdfrwt>
<totfact> 0.85013638E+11</totfact>
</mgrwt>
</event>
<event>
 4    1  0.1699693E+006  0.2698971E+01  0.7546771E-02  0.2626819E+00
         22   -1    0    0    0    0  0.00000000000E+00  0.00000000000E+00  0.11817216674E+02  0.11817216674E+02  0.00000000000E+00 0. -1.
         22   -1    0    0    0    0 -0.00000000000E+00 -0.00000000000E+00 -0.83853264227E+00  0.83853264227E+00  0.00000000000E+00 0.  1.
          4    1    1    2  501    0 -0.23677690447E+01 -0.25536818215E+00  0.87460465652E+01  0.91530199212E+01  0.12700000000E+01 0. -1.
         -4    1    1    2    0  501  0.23677690447E+01  0.25536818215E+00  0.22326374663E+01  0.35027293948E+01  0.12700000000E+01 0.  1.
<mgrwt>
<rscale>  0 0.26989708E+01</rscale>
<asrwt>0</asrwt>
<pdfrwt beam="1">0</pdfrwt>
<pdfrwt beam="2">0</pdfrwt>
<totfact> 0.15835957E+12</totfact>
</mgrwt>
</event>
<event>
 4    1  0.1699693E+006  0.2490166E+01  0.7546771E-02  0.2712882E+00
         22   -1    0    0    0    0  0.00000000000E+00  0.00000000000E+00  0.92272272860E+01  0.92272272860E+01  0.00000000000E+00 0.  1.
         22   -1    0    0    0    0 -0.00000000000E+00 -0.00000000000E+00 -0.16432534699E+01  0.16432534699E+01  0.00000000000E+00 0. -1.
          4    1    1    2  501    0  0.17936064384E+01  0.11708972013E+01  0.79705527943E+01  0.83504871809E+01  0.12700000000E+01 0.  1.
         -4    1    1    2    0  501 -0.17936064384E+01 -0.11708972013E+01 -0.38657897814E+00  0.25199935750E+01  0.12700000000E+01 0. -1.
<mgrwt>
<rscale>  0 0.24901655E+01</rscale>
<asrwt>0</asrwt>
<pdfrwt beam="1">0</pdfrwt>
<pdfrwt beam="2">0</pdfrwt>
<totfact> 0.98922198E+11</totfact>
</mgrwt>
</event>
<event>
 4    1  0.1699693E+006  0.2839558E+01  0.7546771E-02  0.2575449E+00
         22   -1    0    0    0    0  0.00000000000E+00  0.00000000000E+00  0.12988110196E+01  0.12988110196E+01  0.00000000000E+00 0. -1.
         22   -1    0    0    0    0 -0.00000000000E+00 -0.00000000000E+00 -0.10163153083E+02  0.10163153083E+02  0.00000000000E+00 0.  1.
          4    1    1    2  501    0 -0.22358488115E+01 -0.12046444741E+01 -0.85702711079E+00  0.29660720971E+01  0.12700000000E+01 0. -1.
         -4    1    1    2    0  501  0.22358488115E+01  0.12046444741E+01 -0.80073149522E+01  0.84958920049E+01  0.12700000000E+01 0.  1.
<mgrwt>
<rscale>  0 0.28395578E+01</rscale>
<asrwt>0</asrwt>
<pdfrwt beam="1">0</pdfrwt>
<pdfrwt beam="2">0</pdfrwt>
<totfact> 0.11535662E+12</totfact>
</mgrwt>
</event>
<event>
 4    1  0.1699693E+006  0.2005462E+01  0.7546771E-02  0.2977051E+00
         22   -1    0    0    0    0  0.00000000000E+00  0.00000000000E+00  0.13786250129E+02  0.13786250129E+02  0.00000000000E+00 0. -1.
         22   -1    0    0    0    0 -0.00000000000E+00 -0.00000000000E+00 -0.28354139569E+01  0.28354139569E+01  0.00000000000E+00 0.  1.
          4    1    1    2  501    0 -0.23778627470E+00  0.15337649066E+01  0.13347103975E+02  0.13496927859E+02  0.12700000000E+01 0. -1.
         -4    1    1    2    0  501  0.23778627470E+00 -0.15337649066E+01 -0.23962678034E+01  0.31247362267E+01  0.12700000000E+01 0.  1.
<mgrwt>
<rscale>  0 0.20054618E+01</rscale>
<asrwt>0</asrwt>
<pdfrwt beam="1">0</pdfrwt>
<pdfrwt beam="2">0</pdfrwt>
<totfact> 0.32242048E+11</totfact>
</mgrwt>
</event>
<event>
 4    1  0.1699693E+006  0.2012743E+01  0.7546771E-02  0.2972178E+00
         22   -1    0    0    0    0  0.00000000000E+00  0.00000000000E+00  0.61146240701E+00  0.61146240701E+00  0.00000000000E+00 0.  1.
         22   -1    0    0    0    0 -0.00000000000E+00 -0.00000000000E+00 -0.67241900774E+01  0.67241900774E+01  0.00000000000E+00 0. -1.
          4    1    1    2  501    0 -0.10680022017E+01  0.11391242913E+01 -0.26116038289E+01  0.32972120668E+01  0.12700000000E+01 0. -1.
         -4    1    1    2    0  501  0.10680022017E+01 -0.11391242913E+01 -0.35011238415E+01  0.40384404177E+01  0.12700000000E+01 0. -1.
<mgrwt>
<rscale>  0 0.20127426E+01</rscale>
<asrwt>0</asrwt>
<pdfrwt beam="1">0</pdfrwt>
<pdfrwt beam="2">0</pdfrwt>
<totfact> 0.44739849E+12</totfact>
</mgrwt>
</event>
<event>
 4    1  0.1699693E+006  0.2361896E+01  0.7546771E-02  0.2772735E+00
         22   -1    0    0    0    0  0.00000000000E+00  0.00000000000E+00  0.36326528901E+01  0.36326528901E+01  0.00000000000E+00 0.  1.
         22   -1    0    0    0    0 -0.00000000000E+00 -0.00000000000E+00 -0.19025836995E+01  0.19025836995E+01  0.00000000000E+00 0. -1.
          4    1    1    2  501    0 -0.19182349837E+01  0.53481357157E+00  0.20804286122E+01  0.31474965004E+01  0.12700000000E+01 0.  1.
         -4    1    1    2    0  501  0.19182349837E+01 -0.53481357157E+00 -0.35035942162E+00  0.23877400892E+01  0.12700000000E+01 0. -1.
<mgrwt>
<rscale>  0 0.23618956E+01</rscale>
<asrwt>0</asrwt>
<pdfrwt beam="1">0</pdfrwt>
<pdfrwt beam="2">0</pdfrwt>
<totfact> 0.25317663E+12</totfact>
</mgrwt>
</event>
<event>
 4    1  0.1699693E+006  0.2142377E+01  0.7546771E-02  0.2890829E+00
         22   -1    0    0    0    0  0.00000000000E+00  0.00000000000E+00  0.55680568889E+01  0.55680568889E+01  0.00000000000E+00 0.  1.
         22   -1    0    0    0    0 -0.00000000000E+00 -0.00000000000E+00 -0.91883886767E+00  0.91883886767E+00  0.00000000000E+00 0. -1.
          4    1    1    2  501    0  0.16654904022E+01  0.45057935748E+00  0.12842583198E+01  0.24978189424E+01  0.12700000000E+01 0.  1.
         -4    1    1    2    0  501 -0.16654904022E+01 -0.45057935748E+00  0.33649597015E+01  0.39890768142E+01  0.12700000000E+01 0. -1.
<mgrwt>
<rscale>  0 0.21423772E+01</rscale>
<asrwt>0</asrwt>
<pdfrwt beam="1">0</pdfrwt>
<pdfrwt beam="2">0</pdfrwt>
<totfact> 0.35262328E+12</totfact>
</mgrwt>
</event>
<event>
 4    1  0.1699693E+006  0.2085461E+01  0.7546771E-02  0.2925334E+00
         22   -1    0    0    0    0  0.00000000000E+00  0.00000000000E+00  0.46563973274E+00  0.46563973274E+00  0.00000000000E+00 0. -1.
         22   -1    0    0    0    0 -0.00000000000E+00 -0.00000000000E+00 -0.93407238379E+01  0.93407238379E+01  0.00000000000E+00 0. -1.
          4    1    1    2  501    0  0.15586618067E+01  0.55391556639E+00 -0.43994093395E+01  0.48686704159E+01  0.12700000000E+01 0. -1.
         -4    1    1    2    0  501 -0.15586618067E+01 -0.55391556639E+00 -0.44756747658E+01  0.49376931548E+01  0.12700000000E+01 0. -1.
<mgrwt>
<rscale>  0 0.20854614E+01</rscale>
<asrwt>0</asrwt>
<pdfrwt beam="1">0</pdfrwt>
<pdfrwt beam="2">0</pdfrwt>
<totfact> 0.41020353E+12</totfact>
</mgrwt>
</event>
<event>
 4    1  0.1699693E+006  0.2105891E+01  0.7546771E-02  0.2912741E+00
         22   -1    0    0    0    0  0.00000000000E+00  0.00000000000E+00  0.23277685152E+01  0.23277685152E+01  0.00000000000E+00 0.  1.
         22   -1    0    0    0    0 -0.00000000000E+00 -0.00000000000E+00 -0.19055155792E+01  0.19055155792E+01  0.00000000000E+00 0.  1.
          4    1    1    2  501    0  0.15962218460E+01  0.52340554180E+00  0.18231875534E+00  0.21137685946E+01  0.12700000000E+01 0.  1.
         -4    1    1    2    0  501 -0.15962218460E+01 -0.52340554180E+00  0.23993418059E+00  0.21195154998E+01  0.12700000000E+01 0.  1.
<mgrwt>
<rscale>  0 0.21058912E+01</rscale>
<asrwt>0</asrwt>
<pdfrwt beam="1">0</pdfrwt>
<pdfrwt beam="2">0</pdfrwt>
<totfact> 0.42488270E+12</totfact>
</mgrwt>
</event>
<event>
 4    1  0.1699693E+006  0.2300963E+01  0.7546771E-02  0.2803362E+00
         22   -1    0    0    0    0  0.00000000000E+00  0.00000000000E+00  0.10719034661E+03  0.10719034661E+03  0.00000000000E+00 0. -1.
         22   -1    0    0    0    0 -0.00000000000E+00 -0.00000000000E+00 -0.41169667740E+00  0.41169667740E+00  0.00000000000E+00 0. -1.
          4    1    1    2  501    0 -0.14378993499E+01 -0.12704243667E+01  0.10385990845E+03  0.10388539366E+03  0.12700000000E+01 0. -1.
         -4    1    1    2    0  501  0.14378993499E+01  0.12704243667E+01  0.29187414824E+01  0.37166496274E+01  0.12700000000E+01 0. -1.
<mgrwt>
<rscale>  0 0.23009634E+01</rscale>
<asrwt>0</asrwt>
<pdfrwt beam="1">0</pdfrwt>
<pdfrwt beam="2">0</pdfrwt>
<totfact> 0.20252958E+11</totfact>
</mgrwt>
</event>
<event>
 4    1  0.1699693E+006  0.2829270E+01  0.7546771E-02  0.2579050E+00
         22   -1    0    0    0    0  0.00000000000E+00  0.00000000000E+00  0.20995364738E+01  0.20995364738E+01  0.00000000000E+00 0.  1.
         22   -1    0    0    0    0 -0.00000000000E+00 -0.00000000000E+00 -0.51987554072E+01  0.51987554072E+01  0.00000000000E+00 0. -1.
          4    1    1    2  501    0 -0.37632813090E+00  0.25000495121E+01  0.33465434227E+00  0.28489934984E+01  0.12700000000E+01 0.  1.
         -4    1    1    2    0  501  0.37632813090E+00 -0.25000495121E+01 -0.34338732756E+01  0.44492983826E+01  0.12700000000E+01 0. -1.
<mgrwt>
<rscale>  0 0.28292703E+01</rscale>
<asrwt>0</asrwt>
<pdfrwt beam="1">0</pdfrwt>
<pdfrwt beam="2">0</pdfrwt>
<totfact> 0.14801746E+12</totfact>
</mgrwt>
</event>
<event>
 4    1  0.1699693E+006  0.2131645E+01  0.7546771E-02  0.2897199E+00
         22   -1    0    0    0    0  0.00000000000E+00  0.00000000000E+00  0.86054397329E+00  0.86054397329E+00  0.00000000000E+00 0. -1.
         22   -1    0    0    0    0 -0.00000000000E+00 -0.00000000000E+00 -0.97733099473E+01  0.97733099473E+01  0.00000000000E+00 0.  1.
          4    1    1    2  501    0  0.16208706766E+01  0.55116987297E+00 -0.85134627260E+00  0.22953649938E+01  0.12700000000E+01 0. -1.
         -4    1    1    2    0  501 -0.16208706766E+01 -0.55116987297E+00 -0.80614197014E+01  0.83384889267E+01  0.12700000000E+01 0.  1.
<mgrwt>
<rscale>  0 0.21316449E+01</rscale>
<asrwt>0</asrwt>
<pdfrwt beam="1">0</pdfrwt>
<pdfrwt beam="2">0</pdfrwt>
<totfact> 0.19361429E+12</totfact>
</mgrwt>
</event>
<event>
 4    1  0.1699693E+006  0.2906475E+01  0.7546771E-02  0.2552587E+00
         22   -1    0    0    0    0  0.00000000000E+00  0.00000000000E+00  0.69405387066E+00  0.69405387066E+00  0.00000000000E+00 0. -1.
         22   -1    0    0    0    0 -0.00000000000E+00 -0.00000000000E+00 -0.12590444433E+02  0.12590444433E+02  0.00000000000E+00 0.  1.
          4    1    1    2  501    0 -0.17228107264E+01 -0.19663725993E+01 -0.47363934612E+01  0.55570694631E+01  0.12700000000E+01 0. -1.
         -4    1    1    2    0  501  0.17228107264E+01  0.19663725993E+01 -0.71599971015E+01  0.77274288409E+01  0.12700000000E+01 0.  1.
<mgrwt>
<rscale>  0 0.29064752E+01</rscale>
<asrwt>0</asrwt>
<pdfrwt beam="1">0</pdfrwt>
<pdfrwt beam="2">0</pdfrwt>
<totfact> 0.18172605E+12</totfact>
</mgrwt>
</event>
<event>
 4    1  0.1699693E+006  0.2229986E+01  0.7546771E-02  0.2841039E+00
         22   -1    0    0    0    0  0.00000000000E+00  0.00000000000E+00  0.11598452193E+01  0.11598452193E+01  0.00000000000E+00 0.  1.
         22   -1    0    0    0    0 -0.00000000000E+00 -0.00000000000E+00 -0.74017997751E+01  0.74017997751E+01  0.00000000000E+00 0. -1.
          4    1    1    2  501    0  0.13374859185E+01 -0.12534226610E+01 -0.34421483442E+00  0.22563955330E+01  0.12700000000E+01 0. -1.
         -4    1    1    2    0  501 -0.13374859185E+01  0.12534226610E+01 -0.58977397214E+01  0.63052494614E+01  0.12700000000E+01 0.  1.
<mgrwt>
<rscale>  0 0.22299859E+01</rscale>
<asrwt>0</asrwt>
<pdfrwt beam="1">0</pdfrwt>
<pdfrwt beam="2">0</pdfrwt>
<totfact> 0.19241784E+12</totfact>
</mgrwt>
</event>
<event>
 4    1  0.1699693E+006  0.2029058E+01  0.7546771E-02  0.2961382E+00
         22   -1    0    0    0    0  0.00000000000E+00  0.00000000000E+00  0.87150706253E+00  0.87150706253E+00  0.00000000000E+00 0.  1.
         22   -1    0    0    0    0 -0.00000000000E+00 -0.00000000000E+00 -0.82208850746E+01  0.82208850746E+01  0.00000000000E+00 0. -1.
          4    1    1    2  501    0  0.15375569869E+01 -0.37429347688E+00 -0.70969366924E+00  0.21495911702E+01  0.12700000000E+01 0.  1.
         -4    1    1    2    0  501 -0.15375569869E+01  0.37429347688E+00 -0.66396843428E+01  0.69428009670E+01  0.12700000000E+01 0. -1.
<mgrwt>
<rscale>  0 0.20290582E+01</rscale>
<asrwt>0</asrwt>
<pdfrwt beam="1">0</pdfrwt>
<pdfrwt beam="2">0</pdfrwt>
<totfact> 0.23511052E+12</totfact>
</mgrwt>
</event>
<event>
 4    1  0.1699693E+006  0.2193444E+01  0.7546771E-02  0.2861342E+00
         22   -1    0    0    0    0  0.00000000000E+00  0.00000000000E+00  0.20629320457E+00  0.20629320457E+00  0.00000000000E+00 0.  1.
         22   -1    0    0    0    0 -0.00000000000E+00 -0.00000000000E+00 -0.24322857143E+02  0.24322857143E+02  0.00000000000E+00 0. -1.
          4    1    1    2  501    0 -0.18567733945E+00 -0.17787130193E+01 -0.95705478946E+01  0.98186854050E+01  0.12700000000E+01 0. -1.
         -4    1    1    2    0  501  0.18567733945E+00  0.17787130193E+01 -0.14546016044E+02  0.14710464943E+02  0.12700000000E+01 0. -1.
<mgrwt>
<rscale>  0 0.21934439E+01</rscale>
<asrwt>0</asrwt>
<pdfrwt beam="1">0</pdfrwt>
<pdfrwt beam="2">0</pdfrwt>
<totfact> 0.31453008E+12</totfact>
</mgrwt>
</event>
<event>
 4    1  0.1699693E+006  0.4558793E+01  0.7546771E-02  0.2181713E+00
         22   -1    0    0    0    0  0.00000000000E+00  0.00000000000E+00  0.10974204182E+02  0.10974204182E+02  0.00000000000E+00 0. -1.
         22   -1    0    0    0    0 -0.00000000000E+00 -0.00000000000E+00 -0.55329513297E+01  0.55329513297E+01  0.00000000000E+00 0.  1.
          4    1    1    2  501    0 -0.26637164222E+01  0.34748110317E+01  0.94143194010E+01  0.10460019439E+02  0.12700000000E+01 0. -1.
         -4    1    1    2    0  501  0.26637164222E+01 -0.34748110317E+01 -0.39730665485E+01  0.60471360728E+01  0.12700000000E+01 0.  1.
<mgrwt>
<rscale>  0 0.45587934E+01</rscale>
<asrwt>0</asrwt>
<pdfrwt beam="1">0</pdfrwt>
<pdfrwt beam="2">0</pdfrwt>
<totfact> 0.19399242E+11</totfact>
</mgrwt>
</event>
<event>
 4    1  0.1699693E+006  0.2354006E+01  0.7546771E-02  0.2776616E+00
         22   -1    0    0    0    0  0.00000000000E+00  0.00000000000E+00  0.51360354867E+01  0.51360354867E+01  0.00000000000E+00 0.  1.
         22   -1    0    0    0    0 -0.00000000000E+00 -0.00000000000E+00 -0.15748952844E+01  0.15748952844E+01  0.00000000000E+00 0. -1.
          4    1    1    2  501    0  0.68527473737E+00 -0.18597968742E+01  0.36636082366E+01  0.43546953039E+01  0.12700000000E+01 0.  1.
         -4    1    1    2    0  501 -0.68527473737E+00  0.18597968742E+01 -0.10246803429E+00  0.23562354672E+01  0.12700000000E+01 0. -1.
<mgrwt>
<rscale>  0 0.23540063E+01</rscale>
<asrwt>0</asrwt>
<pdfrwt beam="1">0</pdfrwt>
<pdfrwt beam="2">0</pdfrwt>
<totfact> 0.20931121E+12</totfact>
</mgrwt>
</event>
<event>
 4    1  0.1699693E+006  0.2618607E+01  0.7546771E-02  0.2658442E+00
         22   -1    0    0    0    0  0.00000000000E+00  0.00000000000E+00  0.99964490988E+01  0.99964490988E+01  0.00000000000E+00 0.  1.
         22   -1    0    0    0    0 -0.00000000000E+00 -0.00000000000E+00 -0.95397893964E+00  0.95397893964E+00  0.00000000000E+00 0.  1.
          4    1    1    2  501    0 -0.81696485952E+00  0.21393389432E+01  0.74233822713E+01  0.78717029315E+01  0.12700000000E+01 0.  1.
         -4    1    1    2    0  501  0.81696485952E+00 -0.21393389432E+01  0.16190878879E+01  0.30787251070E+01  0.12700000000E+01 0.  1.
<mgrwt>
<rscale>  0 0.26186070E+01</rscale>
<asrwt>0</asrwt>
<pdfrwt beam="1">0</pdfrwt>
<pdfrwt beam="2">0</pdfrwt>
<totfact> 0.16751978E+12</totfact>
</mgrwt>
</event>
<event>
 4    1  0.1699693E+006  0.2018235E+01  0.7546771E-02  0.2968525E+00
         22   -1    0    0    0    0  0.00000000000E+00  0.00000000000E+00  0.10321792615E+00  0.10321792615E+00  0.00000000000E+00 0. -1.
         22   -1    0    0    0    0 -0.00000000000E+00 -0.00000000000E+00 -0.39695164963E+02  0.39695164963E+02  0.00000000000E+00 0. -1.
          4    1    1    2  501    0  0.12179542509E+01  0.98841245809E+00 -0.18273599212E+02  0.18384713757E+02  0.12700000000E+01 0. -1.
         -4    1    1    2    0  501 -0.12179542509E+01 -0.98841245809E+00 -0.21318347825E+02  0.21413669133E+02  0.12700000000E+01 0. -1.
<mgrwt>
<rscale>  0 0.20182348E+01</rscale>
<asrwt>0</asrwt>
<pdfrwt beam="1">0</pdfrwt>
<pdfrwt beam="2">0</pdfrwt>
<totfact> 0.36321090E+12</totfact>
</mgrwt>
</event>
<event>
 4    1  0.1699693E+006  0.2413766E+01  0.7546771E-02  0.2747813E+00
         22   -1    0    0    0    0  0.00000000000E+00  0.00000000000E+00  0.52886751798E+01  0.52886751798E+01  0.00000000000E+00 0. -1.
         22   -1    0    0    0    0 -0.00000000000E+00 -0.00000000000E+00 -0.15461414791E+01  0.15461414791E+01  0.00000000000E+00 0.  1.
          4    1    1    2  501    0  0.56837011603E+00 -0.19723899128E+01  0.38934687889E-01  0.24140800456E+01  0.12700000000E+01 0. -1.
         -4    1    1    2    0  501 -0.56837011603E+00  0.19723899128E+01  0.37035990128E+01  0.44207366133E+01  0.12700000000E+01 0.  1.
<mgrwt>
<rscale>  0 0.24137661E+01</rscale>
<asrwt>0</asrwt>
<pdfrwt beam="1">0</pdfrwt>
<pdfrwt beam="2">0</pdfrwt>
<totfact> 0.20650630E+12</totfact>
</mgrwt>
</event>
<event>
 4    1  0.1699693E+006  0.2519057E+01  0.7546771E-02  0.2700188E+00
         22   -1    0    0    0    0  0.00000000000E+00  0.00000000000E+00  0.35200292290E+00  0.35200292290E+00  0.00000000000E+00 0.  1.
         22   -1    0    0    0    0 -0.00000000000E+00 -0.00000000000E+00 -0.20342699463E+02  0.20342699463E+02  0.00000000000E+00 0. -1.
          4    1    1    2  501    0 -0.23701937327E+00 -0.21625382353E+01 -0.65044178747E+01  0.69751775384E+01  0.12700000000E+01 0.  1.
         -4    1    1    2    0  501  0.23701937327E+00  0.21625382353E+01 -0.13486278665E+02  0.13719524847E+02  0.12700000000E+01 0. -1.
<mgrwt>
<rscale>  0 0.25190573E+01</rscale>
<asrwt>0</asrwt>
<pdfrwt beam="1">0</pdfrwt>
<pdfrwt beam="2">0</pdfrwt>
<totfact> 0.21633739E+12</totfact>
</mgrwt>
</event>
<event>
 4    1  0.1699693E+006  0.3002707E+01  0.7546771E-02  0.2521325E+00
         22   -1    0    0    0    0  0.00000000000E+00  0.00000000000E+00  0.49057775988E+00  0.49057775988E+00  0.00000000000E+00 0.  1.
         22   -1    0    0    0    0 -0.00000000000E+00 -0.00000000000E+00 -0.24200945585E+02  0.24200945585E+02  0.00000000000E+00 0.  1.
          4    1    1    2  501    0  0.20554119102E+01 -0.17828717248E+01 -0.57997984476E+01  0.65309962288E+01  0.12700000000E+01 0.  1.
         -4    1    1    2    0  501 -0.20554119102E+01  0.17828717248E+01 -0.17910569377E+02  0.18160527116E+02  0.12700000000E+01 0.  1.
<mgrwt>
<rscale>  0 0.30027071E+01</rscale>
<asrwt>0</asrwt>
<pdfrwt beam="1">0</pdfrwt>
<pdfrwt beam="2">0</pdfrwt>
<totfact> 0.11973907E+12</totfact>
</mgrwt>
</event>
<event>
 4    1  0.1699693E+006  0.2463490E+01  0.7546771E-02  0.2724848E+00
         22   -1    0    0    0    0  0.00000000000E+00  0.00000000000E+00  0.18719196393E+02  0.18719196393E+02  0.00000000000E+00 0.  1.
         22   -1    0    0    0    0 -0.00000000000E+00 -0.00000000000E+00 -0.55453891650E+00  0.55453891650E+00  0.00000000000E+00 0.  1.
          4    1    1    2  501    0  0.19412759209E+01  0.82905434837E+00  0.15293200188E+02  0.15490343937E+02  0.12700000000E+01 0.  1.
         -4    1    1    2    0  501 -0.19412759209E+01 -0.82905434837E+00  0.28714572886E+01  0.37833913720E+01  0.12700000000E+01 0.  1.
<mgrwt>
<rscale>  0 0.24634901E+01</rscale>
<asrwt>0</asrwt>
<pdfrwt beam="1">0</pdfrwt>
<pdfrwt beam="2">0</pdfrwt>
<totfact> 0.14375305E+12</totfact>
</mgrwt>
</event>
<event>
 4    1  0.1699693E+006  0.2053523E+01  0.7546771E-02  0.2945510E+00
         22   -1    0    0    0    0  0.00000000000E+00  0.00000000000E+00  0.11522094252E+01  0.11522094252E+01  0.00000000000E+00 0.  1.
         22   -1    0    0    0    0 -0.00000000000E+00 -0.00000000000E+00 -0.94758901446E+01  0.94758901446E+01  0.00000000000E+00 0.  1.
          4    1    1    2  501    0  0.10856300468E+01 -0.11939273140E+01  0.13662805101E-02  0.20535230450E+01  0.12700000000E+01 0.  1.
         -4    1    1    2    0  501 -0.10856300468E+01  0.11939273140E+01 -0.83250469999E+01  0.85745765248E+01  0.12700000000E+01 0.  1.
<mgrwt>
<rscale>  0 0.20535226E+01</rscale>
<asrwt>0</asrwt>
<pdfrwt beam="1">0</pdfrwt>
<pdfrwt beam="2">0</pdfrwt>
<totfact> 0.14401629E+12</totfact>
</mgrwt>
</event>
<event>
 4    1  0.1699693E+006  0.2640939E+01  0.7546771E-02  0.2649477E+00
         22   -1    0    0    0    0  0.00000000000E+00  0.00000000000E+00  0.24946406446E+01  0.24946406446E+01  0.00000000000E+00 0.  1.
         22   -1    0    0    0    0 -0.00000000000E+00 -0.00000000000E+00 -0.35302982650E+01  0.35302982650E+01  0.00000000000E+00 0.  1.
          4    1    1    2  501    0 -0.99359110263E+00 -0.20915152558E+01  0.85623607107E+00  0.27762744018E+01  0.12700000000E+01 0.  1.
         -4    1    1    2    0  501  0.99359110263E+00  0.20915152558E+01 -0.18918936915E+01  0.32486645078E+01  0.12700000000E+01 0.  1.
<mgrwt>
<rscale>  0 0.26409391E+01</rscale>
<asrwt>0</asrwt>
<pdfrwt beam="1">0</pdfrwt>
<pdfrwt beam="2">0</pdfrwt>
<totfact> 0.19122776E+12</totfact>
</mgrwt>
</event>
<event>
 4    1  0.1699693E+006  0.2409812E+01  0.7546771E-02  0.2749677E+00
         22   -1    0    0    0    0  0.00000000000E+00  0.00000000000E+00  0.12035742345E+01  0.12035742345E+01  0.00000000000E+00 0.  1.
         22   -1    0    0    0    0 -0.00000000000E+00 -0.00000000000E+00 -0.50273996091E+01  0.50273996091E+01  0.00000000000E+00 0.  1.
          4    1    1    2  501    0  0.12139762060E+01  0.16494109014E+01 -0.25370920554E+01  0.34991471315E+01  0.12700000000E+01 0.  1.
         -4    1    1    2    0  501 -0.12139762060E+01 -0.16494109014E+01 -0.12867333192E+01  0.27318267121E+01  0.12700000000E+01 0.  1.
<mgrwt>
<rscale>  0 0.24098121E+01</rscale>
<asrwt>0</asrwt>
<pdfrwt beam="1">0</pdfrwt>
<pdfrwt beam="2">0</pdfrwt>
<totfact> 0.29237523E+12</totfact>
</mgrwt>
</event>
<event>
 4    1  0.1699693E+006  0.2638799E+01  0.7546771E-02  0.2650330E+00
         22   -1    0    0    0    0  0.00000000000E+00  0.00000000000E+00  0.84176377914E+01  0.84176377914E+01  0.00000000000E+00 0. -1.
         22   -1    0    0    0    0 -0.00000000000E+00 -0.00000000000E+00 -0.10255161281E+01  0.10255161281E+01  0.00000000000E+00 0.  1.
          4    1    1    2  501    0 -0.52719483809E-01 -0.23124837104E+01  0.16198565095E+01  0.30963196486E+01  0.12700000000E+01 0. -1.
         -4    1    1    2    0  501  0.52719483809E-01  0.23124837104E+01  0.57722651539E+01  0.63468342709E+01  0.12700000000E+01 0.  1.
<mgrwt>
<rscale>  0 0.26387990E+01</rscale>
<asrwt>0</asrwt>
<pdfrwt beam="1">0</pdfrwt>
<pdfrwt beam="2">0</pdfrwt>
<totfact> 0.18981570E+12</totfact>
</mgrwt>
</event>
<event>
 4    1  0.1699693E+006  0.2519834E+01  0.7546771E-02  0.2699850E+00
         22   -1    0    0    0    0  0.00000000000E+00  0.00000000000E+00  0.12420522564E+01  0.12420522564E+01  0.00000000000E+00 0. -1.
         22   -1    0    0    0    0 -0.00000000000E+00 -0.00000000000E+00 -0.20745979279E+02  0.20745979279E+02  0.00000000000E+00 0. -1.
          4    1    1    2  501    0 -0.17551474383E+01 -0.12869036470E+01 -0.20814877749E+00  0.25284163898E+01  0.12700000000E+01 0. -1.
         -4    1    1    2    0  501  0.17551474383E+01  0.12869036470E+01 -0.19295778246E+02  0.19459615146E+02  0.12700000000E+01 0. -1.
<mgrwt>
<rscale>  0 0.25198340E+01</rscale>
<asrwt>0</asrwt>
<pdfrwt beam="1">0</pdfrwt>
<pdfrwt beam="2">0</pdfrwt>
<totfact> 0.50500277E+11</totfact>
</mgrwt>
</event>
<event>
 4    1  0.1699693E+006  0.3298732E+01  0.7546771E-02  0.2435449E+00
         22   -1    0    0    0    0  0.00000000000E+00  0.00000000000E+00  0.95551822231E+00  0.95551822231E+00  0.00000000000E+00 0. -1.
         22   -1    0    0    0    0 -0.00000000000E+00 -0.00000000000E+00 -0.20383666942E+02  0.20383666942E+02  0.00000000000E+00 0. -1.
          4    1    1    2  501    0 -0.11504253761E+01 -0.28187332490E+01 -0.26261600626E+01  0.42164383488E+01  0.12700000000E+01 0. -1.
         -4    1    1    2    0  501  0.11504253761E+01  0.28187332490E+01 -0.16801988657E+02  0.17122746815E+02  0.12700000000E+01 0. -1.
<mgrwt>
<rscale>  0 0.32987324E+01</rscale>
<asrwt>0</asrwt>
<pdfrwt beam="1">0</pdfrwt>
<pdfrwt beam="2">0</pdfrwt>
<totfact> 0.69683654E+11</totfact>
</mgrwt>
</event>
<event>
 4    1  0.1699693E+006  0.2120272E+01  0.7546771E-02  0.2904018E+00
         22   -1    0    0    0    0  0.00000000000E+00  0.00000000000E+00  0.18792455952E+01  0.18792455952E+01  0.00000000000E+00 0. -1.
         22   -1    0    0    0    0 -0.00000000000E+00 -0.00000000000E+00 -0.25292009715E+01  0.25292009715E+01  0.00000000000E+00 0.  1.
          4    1    1    2  501    0 -0.16077233054E+01 -0.54578253367E+00  0.18801079460E+00  0.21285912852E+01  0.12700000000E+01 0.  1.
         -4    1    1    2    0  501  0.16077233054E+01  0.54578253367E+00 -0.83796617092E+00  0.22798552814E+01  0.12700000000E+01 0. -1.
<mgrwt>
<rscale>  0 0.21202719E+01</rscale>
<asrwt>0</asrwt>
<pdfrwt beam="1">0</pdfrwt>
<pdfrwt beam="2">0</pdfrwt>
<totfact> 0.39205197E+12</totfact>
</mgrwt>
</event>
<event>
 4    1  0.1699693E+006  0.2833559E+01  0.7546771E-02  0.2577546E+00
         22   -1    0    0    0    0  0.00000000000E+00  0.00000000000E+00  0.90889787664E+01  0.90889787664E+01  0.00000000000E+00 0. -1.
         22   -1    0    0    0    0 -0.00000000000E+00 -0.00000000000E+00 -0.88339214844E+00  0.88339214844E+00  0.00000000000E+00 0.  1.
          4    1    1    2  501    0 -0.16484661377E+01  0.19232042602E+01  0.41182591176E+01  0.49989112207E+01  0.12700000000E+01 0. -1.
         -4    1    1    2    0  501  0.16484661377E+01 -0.19232042602E+01  0.40873275003E+01  0.49734596941E+01  0.12700000000E+01 0.  1.
<mgrwt>
<rscale>  0 0.28335588E+01</rscale>
<asrwt>0</asrwt>
<pdfrwt beam="1">0</pdfrwt>
<pdfrwt beam="2">0</pdfrwt>
<totfact> 0.20516253E+12</totfact>
</mgrwt>
</event>
<event>
 4    1  0.1699693E+006  0.2140094E+01  0.7546771E-02  0.2892179E+00
         22   -1    0    0    0    0  0.00000000000E+00  0.00000000000E+00  0.89803481393E+01  0.89803481393E+01  0.00000000000E+00 0. -1.
         22   -1    0    0    0    0 -0.00000000000E+00 -0.00000000000E+00 -0.51912849151E+00  0.51912849151E+00  0.00000000000E+00 0.  1.
          4    1    1    2  501    0  0.96070721599E+00  0.14297358623E+01  0.36008653557E+01  0.41888225434E+01  0.12700000000E+01 0.  1.
         -4    1    1    2    0  501 -0.96070721599E+00 -0.14297358623E+01  0.48603542921E+01  0.53106540873E+01  0.12700000000E+01 0. -1.
<mgrwt>
<rscale>  0 0.21400942E+01</rscale>
<asrwt>0</asrwt>
<pdfrwt beam="1">0</pdfrwt>
<pdfrwt beam="2">0</pdfrwt>
<totfact> 0.38046643E+12</totfact>
</mgrwt>
</event>
<event>
 4    1  0.1699693E+006  0.2077617E+01  0.7546771E-02  0.2930234E+00
         22   -1    0    0    0    0  0.00000000000E+00  0.00000000000E+00  0.11912311186E+01  0.11912311186E+01  0.00000000000E+00 0.  1.
         22   -1    0    0    0    0 -0.00000000000E+00 -0.00000000000E+00 -0.48051909422E+01  0.48051909422E+01  0.00000000000E+00 0.  1.
          4    1    1    2  501    0  0.45068836284E+00 -0.15812876112E+01 -0.32019252502E+00  0.21021450385E+01  0.12700000000E+01 0.  1.
         -4    1    1    2    0  501 -0.45068836284E+00  0.15812876112E+01 -0.32937672985E+01  0.38942770223E+01  0.12700000000E+01 0.  1.
<mgrwt>
<rscale>  0 0.20776165E+01</rscale>
<asrwt>0</asrwt>
<pdfrwt beam="1">0</pdfrwt>
<pdfrwt beam="2">0</pdfrwt>
<totfact> 0.31208815E+12</totfact>
</mgrwt>
</event>
<event>
 4    1  0.1699693E+006  0.2307933E+01  0.7546771E-02  0.2799781E+00
         22   -1    0    0    0    0  0.00000000000E+00  0.00000000000E+00  0.61000943213E+01  0.61000943213E+01  0.00000000000E+00 0.  1.
         22   -1    0    0    0    0 -0.00000000000E+00 -0.00000000000E+00 -0.87354618746E+00  0.87354618746E+00  0.00000000000E+00 0.  1.
          4    1    1    2  501    0 -0.16312472970E+01 -0.10260057197E+01  0.26834535454E+01  0.35394178068E+01  0.12700000000E+01 0.  1.
         -4    1    1    2    0  501  0.16312472970E+01  0.10260057197E+01  0.25430945884E+01  0.34342227019E+01  0.12700000000E+01 0.  1.
<mgrwt>
<rscale>  0 0.23079332E+01</rscale>
<asrwt>0</asrwt>
<pdfrwt beam="1">0</pdfrwt>
<pdfrwt beam="2">0</pdfrwt>
<totfact> 0.33512683E+12</totfact>
</mgrwt>
</event>
<event>
 4    1  0.1699693E+006  0.2096840E+01  0.7546771E-02  0.2918291E+00
         22   -1    0    0    0    0  0.00000000000E+00  0.00000000000E+00  0.11750699398E+00  0.11750699398E+00  0.00000000000E+00 0.  1.
         22   -1    0    0    0    0 -0.00000000000E+00 -0.00000000000E+00 -0.37761442492E+02  0.37761442492E+02  0.00000000000E+00 0. -1.
          4    1    1    2  501    0  0.11554375328E+01 -0.12036626399E+01 -0.20631252273E+02  0.20737533845E+02  0.12700000000E+01 0. -1.
         -4    1    1    2    0  501 -0.11554375328E+01  0.12036626399E+01 -0.17012683225E+02  0.17141415640E+02  0.12700000000E+01 0.  1.
<mgrwt>
<rscale>  0 0.20968404E+01</rscale>
<asrwt>0</asrwt>
<pdfrwt beam="1">0</pdfrwt>
<pdfrwt beam="2">0</pdfrwt>
<totfact> 0.33563246E+12</totfact>
</mgrwt>
</event>
<event>
 4    1  0.1699693E+006  0.2023732E+01  0.7546771E-02  0.2964887E+00
         22   -1    0    0    0    0  0.00000000000E+00  0.00000000000E+00  0.79751036950E+00  0.79751036950E+00  0.00000000000E+00 0. -1.
         22   -1    0    0    0    0 -0.00000000000E+00 -0.00000000000E+00 -0.19636069466E+02  0.19636069466E+02  0.00000000000E+00 0. -1.
          4    1    1    2  501    0 -0.11541790717E+01  0.10725967663E+01 -0.63953275485E+00  0.21223796308E+01  0.12700000000E+01 0. -1.
         -4    1    1    2    0  501  0.11541790717E+01 -0.10725967663E+01 -0.18199026342E+02  0.18311200205E+02  0.12700000000E+01 0. -1.
<mgrwt>
<rscale>  0 0.20237325E+01</rscale>
<asrwt>0</asrwt>
<pdfrwt beam="1">0</pdfrwt>
<pdfrwt beam="2">0</pdfrwt>
<totfact> 0.89690662E+11</totfact>
</mgrwt>
</event>
<event>
 4    1  0.1699693E+006  0.2013737E+01  0.7546771E-02  0.2971515E+00
         22   -1    0    0    0    0  0.00000000000E+00  0.00000000000E+00  0.14877820470E+02  0.14877820470E+02  0.00000000000E+00 0. -1.
         22   -1    0    0    0    0 -0.00000000000E+00 -0.00000000000E+00 -0.54232096835E+00  0.54232096835E+00  0.00000000000E+00 0.  1.
          4    1    1    2  501    0 -0.39503114742E+00  0.15120140535E+01  0.12605480482E+02  0.12765315283E+02  0.12700000000E+01 0. -1.
         -4    1    1    2    0  501  0.39503114742E+00 -0.15120140535E+01  0.17300190205E+01  0.26548261556E+01  0.12700000000E+01 0.  1.
<mgrwt>
<rscale>  0 0.20137369E+01</rscale>
<asrwt>0</asrwt>
<pdfrwt beam="1">0</pdfrwt>
<pdfrwt beam="2">0</pdfrwt>
<totfact> 0.19581820E+12</totfact>
</mgrwt>
</event>
<event>
 4    1  0.1699693E+006  0.2566108E+01  0.7546771E-02  0.2680084E+00
         22   -1    0    0    0    0  0.00000000000E+00  0.00000000000E+00  0.21740471893E+01  0.21740471893E+01  0.00000000000E+00 0. -1.
         22   -1    0    0    0    0 -0.00000000000E+00 -0.00000000000E+00 -0.80312572480E+01  0.80312572480E+01  0.00000000000E+00 0.  1.
          4    1    1    2  501    0  0.15271402581E+01 -0.16247624593E+01  0.10984982988E+01  0.27913453619E+01  0.12700000000E+01 0. -1.
         -4    1    1    2    0  501 -0.15271402581E+01  0.16247624593E+01 -0.69557083575E+01  0.74139590754E+01  0.12700000000E+01 0.  1.
<mgrwt>
<rscale>  0 0.25661080E+01</rscale>
<asrwt>0</asrwt>
<pdfrwt beam="1">0</pdfrwt>
<pdfrwt beam="2">0</pdfrwt>
<totfact> 0.84600069E+11</totfact>
</mgrwt>
</event>
<event>
 4    1  0.1699693E+006  0.2465912E+01  0.7546771E-02  0.2723752E+00
         22   -1    0    0    0    0  0.00000000000E+00  0.00000000000E+00  0.11255881923E+02  0.11255881923E+02  0.00000000000E+00 0.  1.
         22   -1    0    0    0    0 -0.00000000000E+00 -0.00000000000E+00 -0.86198181107E+00  0.86198181107E+00  0.00000000000E+00 0. -1.
          4    1    1    2  501    0  0.21123835788E+01 -0.75214974631E-01  0.88987259343E+01  0.92340697924E+01  0.12700000000E+01 0.  1.
         -4    1    1    2    0  501 -0.21123835788E+01  0.75214974631E-01  0.14951741774E+01  0.28837939415E+01  0.12700000000E+01 0. -1.
<mgrwt>
<rscale>  0 0.24659119E+01</rscale>
<asrwt>0</asrwt>
<pdfrwt beam="1">0</pdfrwt>
<pdfrwt beam="2">0</pdfrwt>
<totfact> 0.16282787E+12</totfact>
</mgrwt>
</event>
<event>
 4    1  0.1699693E+006  0.3713474E+01  0.7546771E-02  0.2335656E+00
         22   -1    0    0    0    0  0.00000000000E+00  0.00000000000E+00  0.87424366141E+01  0.87424366141E+01  0.00000000000E+00 0.  1.
         22   -1    0    0    0    0 -0.00000000000E+00 -0.00000000000E+00 -0.35658414678E+01  0.35658414678E+01  0.00000000000E+00 0. -1.
          4    1    1    2  501    0 -0.10303768625E+01 -0.33339630290E+01  0.71839598910E+01  0.80869750632E+01  0.12700000000E+01 0.  1.
         -4    1    1    2    0  501  0.10303768625E+01  0.33339630290E+01 -0.20073647448E+01  0.42213030187E+01  0.12700000000E+01 0. -1.
<mgrwt>
<rscale>  0 0.37134736E+01</rscale>
<asrwt>0</asrwt>
<pdfrwt beam="1">0</pdfrwt>
<pdfrwt beam="2">0</pdfrwt>
<totfact> 0.42897521E+11</totfact>
</mgrwt>
</event>
<event>
 4    1  0.1699693E+006  0.2926803E+01  0.7546771E-02  0.2545829E+00
         22   -1    0    0    0    0  0.00000000000E+00  0.00000000000E+00  0.38623662633E+02  0.38623662633E+02  0.00000000000E+00 0. -1.
         22   -1    0    0    0    0 -0.00000000000E+00 -0.00000000000E+00 -0.52459147309E+00  0.52459147309E+00  0.00000000000E+00 0.  1.
          4    1    1    2  501    0 -0.16487869842E+01 -0.20578573840E+01  0.33921004729E+02  0.34047037131E+02  0.12700000000E+01 0. -1.
         -4    1    1    2    0  501  0.16487869842E+01  0.20578573840E+01  0.41780664309E+01  0.51012169757E+01  0.12700000000E+01 0.  1.
<mgrwt>
<rscale>  0 0.29268030E+01</rscale>
<asrwt>0</asrwt>
<pdfrwt beam="1">0</pdfrwt>
<pdfrwt beam="2">0</pdfrwt>
<totfact> 0.61130008E+11</totfact>
</mgrwt>
</event>
<event>
 4    1  0.1699693E+006  0.3712390E+01  0.7546771E-02  0.2335891E+00
         22   -1    0    0    0    0  0.00000000000E+00  0.00000000000E+00  0.10316195138E+02  0.10316195138E+02  0.00000000000E+00 0. -1.
         22   -1    0    0    0    0 -0.00000000000E+00 -0.00000000000E+00 -0.39447470295E+01  0.39447470295E+01  0.00000000000E+00 0.  1.
          4    1    1    2  501    0 -0.76118644402E+00  0.34043400543E+01  0.89844084844E+01  0.97211846923E+01  0.12700000000E+01 0. -1.
         -4    1    1    2    0  501  0.76118644402E+00 -0.34043400543E+01 -0.26129603759E+01  0.45397574752E+01  0.12700000000E+01 0.  1.
<mgrwt>
<rscale>  0 0.37123895E+01</rscale>
<asrwt>0</asrwt>
<pdfrwt beam="1">0</pdfrwt>
<pdfrwt beam="2">0</pdfrwt>
<totfact> 0.31190682E+11</totfact>
</mgrwt>
</event>
<event>
 4    1  0.1699693E+006  0.2324513E+01  0.7546771E-02  0.2791345E+00
         22   -1    0    0    0    0  0.00000000000E+00  0.00000000000E+00  0.37744672980E+01  0.37744672980E+01  0.00000000000E+00 0. -1.
         22   -1    0    0    0    0 -0.00000000000E+00 -0.00000000000E+00 -0.24923410698E+01  0.24923410698E+01  0.00000000000E+00 0.  1.
          4    1    1    2  501    0 -0.19402114959E+01  0.16136345418E+00  0.26852778589E+01  0.35516300473E+01  0.12700000000E+01 0. -1.
         -4    1    1    2    0  501  0.19402114959E+01 -0.16136345418E+00 -0.14031516307E+01  0.27151783205E+01  0.12700000000E+01 0.  1.
<mgrwt>
<rscale>  0 0.23245126E+01</rscale>
<asrwt>0</asrwt>
<pdfrwt beam="1">0</pdfrwt>
<pdfrwt beam="2">0</pdfrwt>
<totfact> 0.17697373E+12</totfact>
</mgrwt>
</event>
<event>
 4    1  0.1699693E+006  0.3917168E+01  0.7546771E-02  0.2293413E+00
         22   -1    0    0    0    0  0.00000000000E+00  0.00000000000E+00  0.14260907493E+02  0.14260907493E+02  0.00000000000E+00 0.  1.
         22   -1    0    0    0    0 -0.00000000000E+00 -0.00000000000E+00 -0.11769958282E+01  0.11769958282E+01  0.00000000000E+00 0. -1.
          4    1    1    2  501    0 -0.22246441352E+01  0.29634881962E+01  0.88034885079E+01  0.96356428808E+01  0.12700000000E+01 0.  1.
         -4    1    1    2    0  501  0.22246441352E+01 -0.29634881962E+01  0.42804231572E+01  0.58022604408E+01  0.12700000000E+01 0. -1.
<mgrwt>
<rscale>  0 0.39171678E+01</rscale>
<asrwt>0</asrwt>
<pdfrwt beam="1">0</pdfrwt>
<pdfrwt beam="2">0</pdfrwt>
<totfact> 0.85438874E+11</totfact>
</mgrwt>
</event>
<event>
 4    1  0.1699693E+006  0.2536840E+01  0.7546771E-02  0.2692508E+00
         22   -1    0    0    0    0  0.00000000000E+00  0.00000000000E+00  0.67771329520E+00  0.67771329520E+00  0.00000000000E+00 0. -1.
         22   -1    0    0    0    0 -0.00000000000E+00 -0.00000000000E+00 -0.10403079401E+02  0.10403079401E+02  0.00000000000E+00 0. -1.
          4    1    1    2  501    0 -0.13276682367E+01  0.17492719989E+01 -0.64986934319E+01  0.69762863899E+01  0.12700000000E+01 0. -1.
         -4    1    1    2    0  501  0.13276682367E+01 -0.17492719989E+01 -0.32266726734E+01  0.41045063058E+01  0.12700000000E+01 0. -1.
<mgrwt>
<rscale>  0 0.25368397E+01</rscale>
<asrwt>0</asrwt>
<pdfrwt beam="1">0</pdfrwt>
<pdfrwt beam="2">0</pdfrwt>
<totfact> 0.23551787E+12</totfact>
</mgrwt>
</event>
<event>
 4    1  0.1699693E+006  0.2159988E+01  0.7546771E-02  0.2880509E+00
         22   -1    0    0    0    0  0.00000000000E+00  0.00000000000E+00  0.70948414987E+01  0.70948414987E+01  0.00000000000E+00 0.  1.
         22   -1    0    0    0    0 -0.00000000000E+00 -0.00000000000E+00 -0.62112258883E+01  0.62112258883E+01  0.00000000000E+00 0.  1.
          4    1    1    2  501    0  0.15984773211E+01  0.70534925106E+00  0.67328048925E+01  0.70707997449E+01  0.12700000000E+01 0.  1.
         -4    1    1    2    0  501 -0.15984773211E+01 -0.70534925106E+00 -0.58491892820E+01  0.62352676421E+01  0.12700000000E+01 0.  1.
<mgrwt>
<rscale>  0 0.21599878E+01</rscale>
<asrwt>0</asrwt>
<pdfrwt beam="1">0</pdfrwt>
<pdfrwt beam="2">0</pdfrwt>
<totfact> 0.28601297E+11</totfact>
</mgrwt>
</event>
<event>
 4    1  0.1699693E+006  0.2469972E+01  0.7546771E-02  0.2721918E+00
         22   -1    0    0    0    0  0.00000000000E+00  0.00000000000E+00  0.50826539459E+01  0.50826539459E+01  0.00000000000E+00 0.  1.
         22   -1    0    0    0    0 -0.00000000000E+00 -0.00000000000E+00 -0.16943681709E+01  0.16943681709E+01  0.00000000000E+00 0.  1.
          4    1    1    2  501    0  0.12823909383E+01 -0.16862187705E+01  0.35239026229E+01  0.43033301007E+01  0.12700000000E+01 0.  1.
         -4    1    1    2    0  501 -0.12823909383E+01  0.16862187705E+01 -0.13561684787E+00  0.24736920160E+01  0.12700000000E+01 0.  1.
<mgrwt>
<rscale>  0 0.24699717E+01</rscale>
<asrwt>0</asrwt>
<pdfrwt beam="1">0</pdfrwt>
<pdfrwt beam="2">0</pdfrwt>
<totfact> 0.19479223E+12</totfact>
</mgrwt>
</event>
<event>
 4    1  0.1699693E+006  0.2988718E+01  0.7546771E-02  0.2525757E+00
         22   -1    0    0    0    0  0.00000000000E+00  0.00000000000E+00  0.14123112825E+02  0.14123112825E+02  0.00000000000E+00 0.  1.
         22   -1    0    0    0    0 -0.00000000000E+00 -0.00000000000E+00 -0.69217969133E+00  0.69217969133E+00  0.00000000000E+00 0.  1.
          4    1    1    2  501    0 -0.10392570384E+01  0.24978954361E+01  0.45397847806E+01  0.54352628875E+01  0.12700000000E+01 0.  1.
         -4    1    1    2    0  501  0.10392570384E+01 -0.24978954361E+01  0.88911483527E+01  0.93800296285E+01  0.12700000000E+01 0.  1.
<mgrwt>
<rscale>  0 0.29887183E+01</rscale>
<asrwt>0</asrwt>
<pdfrwt beam="1">0</pdfrwt>
<pdfrwt beam="2">0</pdfrwt>
<totfact> 0.15836521E+12</totfact>
</mgrwt>
</event>
<event>
 4    1  0.1699693E+006  0.2291459E+01  0.7546771E-02  0.2808279E+00
         22   -1    0    0    0    0  0.00000000000E+00  0.00000000000E+00  0.18436519252E+01  0.18436519252E+01  0.00000000000E+00 0.  1.
         22   -1    0    0    0    0 -0.00000000000E+00 -0.00000000000E+00 -0.28556104528E+01  0.28556104528E+01  0.00000000000E+00 0. -1.
          4    1    1    2  501    0  0.83146132227E+00 -0.17165535073E+01 -0.38495420480E+00  0.23235691540E+01  0.12700000000E+01 0.  1.
         -4    1    1    2    0  501 -0.83146132227E+00  0.17165535073E+01 -0.62700432287E+00  0.23756932240E+01  0.12700000000E+01 0. -1.
<mgrwt>
<rscale>  0 0.22914589E+01</rscale>
<asrwt>0</asrwt>
<pdfrwt beam="1">0</pdfrwt>
<pdfrwt beam="2">0</pdfrwt>
<totfact> 0.34796402E+12</totfact>
</mgrwt>
</event>
<event>
 4    1  0.1699693E+006  0.4557148E+01  0.7546771E-02  0.2181965E+00
         22   -1    0    0    0    0  0.00000000000E+00  0.00000000000E+00  0.28360578613E+01  0.28360578613E+01  0.00000000000E+00 0.  1.
         22   -1    0    0    0    0 -0.00000000000E+00 -0.00000000000E+00 -0.74081654518E+01  0.74081654518E+01  0.00000000000E+00 0. -1.
          4    1    1    2  501    0 -0.18580717307E+01  0.39626087868E+01 -0.17358915985E+01  0.48765683216E+01  0.12700000000E+01 0.  1.
         -4    1    1    2    0  501  0.18580717307E+01 -0.39626087868E+01 -0.28362159920E+01  0.53676549915E+01  0.12700000000E+01 0. -1.
<mgrwt>
<rscale>  0 0.45571481E+01</rscale>
<asrwt>0</asrwt>
<pdfrwt beam="1">0</pdfrwt>
<pdfrwt beam="2">0</pdfrwt>
<totfact> 0.68422707E+11</totfact>
</mgrwt>
</event>
<event>
 4    1  0.1699693E+006  0.5346870E+01  0.7546771E-02  0.2083742E+00
         22   -1    0    0    0    0  0.00000000000E+00  0.00000000000E+00  0.23311784173E+01  0.23311784173E+01  0.00000000000E+00 0. -1.
         22   -1    0    0    0    0 -0.00000000000E+00 -0.00000000000E+00 -0.13121523355E+02  0.13121523355E+02  0.00000000000E+00 0.  1.
          4    1    1    2  501    0 -0.51206723473E+01 -0.86881295043E+00 -0.34197267146E+01  0.63469324900E+01  0.12700000000E+01 0. -1.
         -4    1    1    2    0  501  0.51206723473E+01  0.86881295043E+00 -0.73706182235E+01  0.91057692826E+01  0.12700000000E+01 0.  1.
<mgrwt>
<rscale>  0 0.53468702E+01</rscale>
<asrwt>0</asrwt>
<pdfrwt beam="1">0</pdfrwt>
<pdfrwt beam="2">0</pdfrwt>
<totfact> 0.43028734E+11</totfact>
</mgrwt>
</event>
<event>
 4    1  0.1699693E+006  0.2413153E+01  0.7546771E-02  0.2748102E+00
         22   -1    0    0    0    0  0.00000000000E+00  0.00000000000E+00  0.49616280100E+01  0.49616280100E+01  0.00000000000E+00 0. -1.
         22   -1    0    0    0    0 -0.00000000000E+00 -0.00000000000E+00 -0.11739615230E+01  0.11739615230E+01  0.00000000000E+00 0.  1.
          4    1    1    2  501    0 -0.58880424829E+00 -0.19656337679E+01  0.19422998880E+01  0.30977145458E+01  0.12700000000E+01 0. -1.
         -4    1    1    2    0  501  0.58880424829E+00  0.19656337679E+01  0.18453665990E+01  0.30378749871E+01  0.12700000000E+01 0.  1.
<mgrwt>
<rscale>  0 0.24131528E+01</rscale>
<asrwt>0</asrwt>
<pdfrwt beam="1">0</pdfrwt>
<pdfrwt beam="2">0</pdfrwt>
<totfact> 0.30556639E+12</totfact>
</mgrwt>
</event>
<event>
 4    1  0.1699693E+006  0.2211108E+01  0.7546771E-02  0.2851448E+00
         22   -1    0    0    0    0  0.00000000000E+00  0.00000000000E+00  0.22499860280E+00  0.22499860280E+00  0.00000000000E+00 0.  1.
         22   -1    0    0    0    0 -0.00000000000E+00 -0.00000000000E+00 -0.21967590151E+02  0.21967590151E+02  0.00000000000E+00 0. -1.
          4    1    1    2  501    0  0.17620420521E+01 -0.41389191488E+00 -0.12027665070E+02  0.12229216072E+02  0.12700000000E+01 0. -1.
         -4    1    1    2    0  501 -0.17620420521E+01  0.41389191488E+00 -0.97149264789E+01  0.99633726821E+01  0.12700000000E+01 0.  1.
<mgrwt>
<rscale>  0 0.22111080E+01</rscale>
<asrwt>0</asrwt>
<pdfrwt beam="1">0</pdfrwt>
<pdfrwt beam="2">0</pdfrwt>
<totfact> 0.32444226E+12</totfact>
</mgrwt>
</event>
<event>
 4    1  0.1699693E+006  0.2589424E+01  0.7546771E-02  0.2670372E+00
         22   -1    0    0    0    0  0.00000000000E+00  0.00000000000E+00  0.16310382062E+01  0.16310382062E+01  0.00000000000E+00 0.  1.
         22   -1    0    0    0    0 -0.00000000000E+00 -0.00000000000E+00 -0.45827035187E+01  0.45827035187E+01  0.00000000000E+00 0. -1.
          4    1    1    2  501    0  0.17411883373E+01  0.14354362753E+01 -0.47900387359E+00  0.26333550534E+01  0.12700000000E+01 0.  1.
         -4    1    1    2    0  501 -0.17411883373E+01 -0.14354362753E+01 -0.24726614389E+01  0.35803866716E+01  0.12700000000E+01 0. -1.
<mgrwt>
<rscale>  0 0.25894235E+01</rscale>
<asrwt>0</asrwt>
<pdfrwt beam="1">0</pdfrwt>
<pdfrwt beam="2">0</pdfrwt>
<totfact> 0.23005941E+12</totfact>
</mgrwt>
</event>
<event>
 4    1  0.1699693E+006  0.2577418E+01  0.7546771E-02  0.2675352E+00
         22   -1    0    0    0    0  0.00000000000E+00  0.00000000000E+00  0.68819296235E+00  0.68819296235E+00  0.00000000000E+00 0.  1.
         22   -1    0    0    0    0 -0.00000000000E+00 -0.00000000000E+00 -0.15816220963E+02  0.15816220963E+02  0.00000000000E+00 0.  1.
          4    1    1    2  501    0 -0.46570093352E+00 -0.21939254035E+01 -0.24126208192E+01  0.35304143175E+01  0.12700000000E+01 0.  1.
         -4    1    1    2    0  501  0.46570093352E+00  0.21939254035E+01 -0.12715407182E+02  0.12973999608E+02  0.12700000000E+01 0.  1.
<mgrwt>
<rscale>  0 0.25774185E+01</rscale>
<asrwt>0</asrwt>
<pdfrwt beam="1">0</pdfrwt>
<pdfrwt beam="2">0</pdfrwt>
<totfact> 0.13867448E+12</totfact>
</mgrwt>
</event>
<event>
 4    1  0.1699693E+006  0.2912292E+01  0.7546771E-02  0.2550645E+00
         22   -1    0    0    0    0  0.00000000000E+00  0.00000000000E+00  0.10807493578E+01  0.10807493578E+01  0.00000000000E+00 0. -1.
         22   -1    0    0    0    0 -0.00000000000E+00 -0.00000000000E+00 -0.79496201270E+01  0.79496201270E+01  0.00000000000E+00 0. -1.
          4    1    1    2  501    0  0.13861809412E+01  0.22241953244E+01 -0.29232926538E+01  0.41263885399E+01  0.12700000000E+01 0. -1.
         -4    1    1    2    0  501 -0.13861809412E+01 -0.22241953244E+01 -0.39455781154E+01  0.49039809448E+01  0.12700000000E+01 0. -1.
<mgrwt>
<rscale>  0 0.29122916E+01</rscale>
<asrwt>0</asrwt>
<pdfrwt beam="1">0</pdfrwt>
<pdfrwt beam="2">0</pdfrwt>
<totfact> 0.19149903E+12</totfact>
</mgrwt>
</event>
<event>
 4    1  0.1699693E+006  0.2038917E+01  0.7546771E-02  0.2954941E+00
         22   -1    0    0    0    0  0.00000000000E+00  0.00000000000E+00  0.82349688251E-01  0.82349688251E-01  0.00000000000E+00 0. -1.
         22   -1    0    0    0    0 -0.00000000000E+00 -0.00000000000E+00 -0.50609764050E+02  0.50609764050E+02  0.00000000000E+00 0. -1.
          4    1    1    2  501    0  0.28954090893E+00  0.15685818870E+01 -0.26536833236E+02  0.26615046520E+02  0.12700000000E+01 0. -1.
         -4    1    1    2    0  501 -0.28954090893E+00 -0.15685818870E+01 -0.23990581126E+02  0.24077067218E+02  0.12700000000E+01 0. -1.
<mgrwt>
<rscale>  0 0.20389171E+01</rscale>
<asrwt>0</asrwt>
<pdfrwt beam="1">0</pdfrwt>
<pdfrwt beam="2">0</pdfrwt>
<totfact> 0.33933621E+12</totfact>
</mgrwt>
</event>
<event>
 4    1  0.1699693E+006  0.2047889E+01  0.7546771E-02  0.2949132E+00
         22   -1    0    0    0    0  0.00000000000E+00  0.00000000000E+00  0.11699884159E+02  0.11699884159E+02  0.00000000000E+00 0. -1.
         22   -1    0    0    0    0 -0.00000000000E+00 -0.00000000000E+00 -0.13049771124E+01  0.13049771124E+01  0.00000000000E+00 0.  1.
          4    1    1    2  501    0 -0.15905894364E+01  0.22577781424E+00  0.10735291974E+02  0.10928876619E+02  0.12700000000E+01 0. -1.
         -4    1    1    2    0  501  0.15905894364E+01 -0.22577781424E+00 -0.34038492807E+00  0.20759846521E+01  0.12700000000E+01 0.  1.
<mgrwt>
<rscale>  0 0.20478892E+01</rscale>
<asrwt>0</asrwt>
<pdfrwt beam="1">0</pdfrwt>
<pdfrwt beam="2">0</pdfrwt>
<totfact> 0.96682020E+11</totfact>
</mgrwt>
</event>
<event>
 4    1  0.1699693E+006  0.3767784E+01  0.7546771E-02  0.2324009E+00
         22   -1    0    0    0    0  0.00000000000E+00  0.00000000000E+00  0.61812371587E+02  0.61812371587E+02  0.00000000000E+00 0.  1.
         22   -1    0    0    0    0 -0.00000000000E+00 -0.00000000000E+00 -0.23331176918E+00  0.23331176918E+00  0.00000000000E+00 0. -1.
          4    1    1    2  501    0 -0.16360012140E+00 -0.35435196097E+01  0.34667563836E+02  0.34871710290E+02  0.12700000000E+01 0. -1.
         -4    1    1    2    0  501  0.16360012140E+00  0.35435196097E+01  0.26911495982E+02  0.27173973067E+02  0.12700000000E+01 0.  1.
<mgrwt>
<rscale>  0 0.37677840E+01</rscale>
<asrwt>0</asrwt>
<pdfrwt beam="1">0</pdfrwt>
<pdfrwt beam="2">0</pdfrwt>
<totfact> 0.81782461E+11</totfact>
</mgrwt>
</event>
<event>
 4    1  0.1699693E+006  0.2615211E+01  0.7546771E-02  0.2659818E+00
         22   -1    0    0    0    0  0.00000000000E+00  0.00000000000E+00  0.19854113567E+00  0.19854113567E+00  0.00000000000E+00 0. -1.
         22   -1    0    0    0    0 -0.00000000000E+00 -0.00000000000E+00 -0.34494078685E+02  0.34494078685E+02  0.00000000000E+00 0. -1.
          4    1    1    2  501    0 -0.10152353074E+01  0.20483468343E+01 -0.16513167082E+02  0.16718971696E+02  0.12700000000E+01 0. -1.
         -4    1    1    2    0  501  0.10152353074E+01 -0.20483468343E+01 -0.17782370467E+02  0.17973648124E+02  0.12700000000E+01 0. -1.
<mgrwt>
<rscale>  0 0.26152108E+01</rscale>
<asrwt>0</asrwt>
<pdfrwt beam="1">0</pdfrwt>
<pdfrwt beam="2">0</pdfrwt>
<totfact> 0.21049634E+12</totfact>
</mgrwt>
</event>
<event>
 4    1  0.1699693E+006  0.2042713E+01  0.7546771E-02  0.2952477E+00
         22   -1    0    0    0    0  0.00000000000E+00  0.00000000000E+00  0.70305094326E+01  0.70305094326E+01  0.00000000000E+00 0. -1.
         22   -1    0    0    0    0 -0.00000000000E+00 -0.00000000000E+00 -0.11987594958E+01  0.11987594958E+01  0.00000000000E+00 0. -1.
          4    1    1    2  501    0  0.76066979671E+00 -0.14075358754E+01  0.58395731860E+01  0.61865410994E+01  0.12700000000E+01 0. -1.
         -4    1    1    2    0  501 -0.76066979671E+00  0.14075358754E+01 -0.78232491667E-02  0.20427278290E+01  0.12700000000E+01 0. -1.
<mgrwt>
<rscale>  0 0.20427128E+01</rscale>
<asrwt>0</asrwt>
<pdfrwt beam="1">0</pdfrwt>
<pdfrwt beam="2">0</pdfrwt>
<totfact> 0.19704678E+12</totfact>
</mgrwt>
</event>
<event>
 4    1  0.1699693E+006  0.2466331E+01  0.7546771E-02  0.2723562E+00
         22   -1    0    0    0    0  0.00000000000E+00  0.00000000000E+00  0.17418167749E+03  0.17418167749E+03  0.00000000000E+00 0. -1.
         22   -1    0    0    0    0 -0.00000000000E+00 -0.00000000000E+00 -0.34948209324E-01  0.34948209324E-01  0.00000000000E+00 0.  1.
          4    1    1    2  501    0 -0.46607268232E+00 -0.20621993655E+01  0.89454283071E+02  0.89488276046E+02  0.12700000000E+01 0. -1.
         -4    1    1    2    0  501  0.46607268232E+00  0.20621993655E+01  0.84692446206E+02  0.84728349650E+02  0.12700000000E+01 0. -1.
<mgrwt>
<rscale>  0 0.24663313E+01</rscale>
<asrwt>0</asrwt>
<pdfrwt beam="1">0</pdfrwt>
<pdfrwt beam="2">0</pdfrwt>
<totfact> 0.15345230E+12</totfact>
</mgrwt>
</event>
<event>
 4    1  0.1699693E+006  0.5050356E+01  0.7546771E-02  0.2117041E+00
         22   -1    0    0    0    0  0.00000000000E+00  0.00000000000E+00  0.98491463766E+01  0.98491463766E+01  0.00000000000E+00 0.  1.
         22   -1    0    0    0    0 -0.00000000000E+00 -0.00000000000E+00 -0.26000472810E+01  0.26000472810E+01  0.00000000000E+00 0. -1.
          4    1    1    2  501    0 -0.42101973127E+01  0.24834325193E+01  0.40176791500E+01  0.64535141002E+01  0.12700000000E+01 0. -1.
         -4    1    1    2    0  501  0.42101973127E+01 -0.24834325193E+01  0.32314199456E+01  0.59956795574E+01  0.12700000000E+01 0.  1.
<mgrwt>
<rscale>  0 0.50503563E+01</rscale>
<asrwt>0</asrwt>
<pdfrwt beam="1">0</pdfrwt>
<pdfrwt beam="2">0</pdfrwt>
<totfact> 0.53732242E+11</totfact>
</mgrwt>
</event>
<event>
 4    1  0.1699693E+006  0.2181771E+01  0.7546771E-02  0.2867965E+00
         22   -1    0    0    0    0  0.00000000000E+00  0.00000000000E+00  0.21484058472E+01  0.21484058472E+01  0.00000000000E+00 0. -1.
         22   -1    0    0    0    0 -0.00000000000E+00 -0.00000000000E+00 -0.27969918419E+01  0.27969918419E+01  0.00000000000E+00 0. -1.
          4    1    1    2  501    0 -0.18881696040E+00 -0.17639654467E+01  0.80300721055E+00  0.23248540862E+01  0.12700000000E+01 0. -1.
         -4    1    1    2    0  501  0.18881696040E+00  0.17639654467E+01 -0.14515932052E+01  0.26205436030E+01  0.12700000000E+01 0. -1.
<mgrwt>
<rscale>  0 0.21817713E+01</rscale>
<asrwt>0</asrwt>
<pdfrwt beam="1">0</pdfrwt>
<pdfrwt beam="2">0</pdfrwt>
<totfact> 0.29863658E+12</totfact>
</mgrwt>
</event>
<event>
 4    1  0.1699693E+006  0.2204323E+01  0.7546771E-02  0.2855230E+00
         22   -1    0    0    0    0  0.00000000000E+00  0.00000000000E+00  0.74584817579E+00  0.74584817579E+00  0.00000000000E+00 0.  1.
         22   -1    0    0    0    0 -0.00000000000E+00 -0.00000000000E+00 -0.72104492955E+01  0.72104492955E+01  0.00000000000E+00 0. -1.
          4    1    1    2  501    0  0.16274005728E+01 -0.77311547493E+00 -0.19966380943E+01  0.29741559881E+01  0.12700000000E+01 0.  1.
         -4    1    1    2    0  501 -0.16274005728E+01  0.77311547493E+00 -0.44679630254E+01  0.49821414831E+01  0.12700000000E+01 0. -1.
<mgrwt>
<rscale>  0 0.22043231E+01</rscale>
<asrwt>0</asrwt>
<pdfrwt beam="1">0</pdfrwt>
<pdfrwt beam="2">0</pdfrwt>
<totfact> 0.32852635E+12</totfact>
</mgrwt>
</event>
<event>
 4    1  0.1699693E+006  0.2059552E+01  0.7546771E-02  0.2941654E+00
         22   -1    0    0    0    0  0.00000000000E+00  0.00000000000E+00  0.18837151289E+01  0.18837151289E+01  0.00000000000E+00 0. -1.
         22   -1    0    0    0    0 -0.00000000000E+00 -0.00000000000E+00 -0.68862482219E+01  0.68862482219E+01  0.00000000000E+00 0. -1.
          4    1    1    2  501    0  0.81716698745E+00  0.14003901383E+01  0.10960225930E+01  0.23330280644E+01  0.12700000000E+01 0. -1.
         -4    1    1    2    0  501 -0.81716698745E+00 -0.14003901383E+01 -0.60985556860E+01  0.64369352863E+01  0.12700000000E+01 0. -1.
<mgrwt>
<rscale>  0 0.20595520E+01</rscale>
<asrwt>0</asrwt>
<pdfrwt beam="1">0</pdfrwt>
<pdfrwt beam="2">0</pdfrwt>
<totfact> 0.12007994E+12</totfact>
</mgrwt>
</event>
<event>
 4    1  0.1699693E+006  0.2676192E+01  0.7546771E-02  0.2635605E+00
         22   -1    0    0    0    0  0.00000000000E+00  0.00000000000E+00  0.19922556515E+01  0.19922556515E+01  0.00000000000E+00 0. -1.
         22   -1    0    0    0    0 -0.00000000000E+00 -0.00000000000E+00 -0.63416598857E+01  0.63416598857E+01  0.00000000000E+00 0.  1.
          4    1    1    2  501    0  0.27364066479E+00 -0.23397064044E+01  0.56766865221E+00  0.27357362758E+01  0.12700000000E+01 0. -1.
         -4    1    1    2    0  501 -0.27364066479E+00  0.23397064044E+01 -0.49170728864E+01  0.55981792613E+01  0.12700000000E+01 0.  1.
<mgrwt>
<rscale>  0 0.26761923E+01</rscale>
<asrwt>0</asrwt>
<pdfrwt beam="1">0</pdfrwt>
<pdfrwt beam="2">0</pdfrwt>
<totfact> 0.12419032E+12</totfact>
</mgrwt>
</event>
<event>
 4    1  0.1699693E+006  0.2067668E+01  0.7546771E-02  0.2936499E+00
         22   -1    0    0    0    0  0.00000000000E+00  0.00000000000E+00  0.21569105810E+01  0.21569105810E+01  0.00000000000E+00 0. -1.
         22   -1    0    0    0    0 -0.00000000000E+00 -0.00000000000E+00 -0.21993398546E+01  0.21993398546E+01  0.00000000000E+00 0.  1.
          4    1    1    2  501    0 -0.16285991193E+01 -0.10008573551E+00  0.66330826933E+00  0.21714580599E+01  0.12700000000E+01 0.  1.
         -4    1    1    2    0  501  0.16285991193E+01  0.10008573551E+00 -0.70573754295E+00  0.21847923758E+01  0.12700000000E+01 0.  1.
<mgrwt>
<rscale>  0 0.20676683E+01</rscale>
<asrwt>0</asrwt>
<pdfrwt beam="1">0</pdfrwt>
<pdfrwt beam="2">0</pdfrwt>
<totfact> 0.39314909E+12</totfact>
</mgrwt>
</event>
<event>
 4    1  0.1699693E+006  0.2194474E+01  0.7546771E-02  0.2860761E+00
         22   -1    0    0    0    0  0.00000000000E+00  0.00000000000E+00  0.81605450852E+00  0.81605450852E+00  0.00000000000E+00 0. -1.
         22   -1    0    0    0    0 -0.00000000000E+00 -0.00000000000E+00 -0.64404365163E+01  0.64404365163E+01  0.00000000000E+00 0. -1.
          4    1    1    2  501    0  0.14761955471E+01  0.10117613586E+01 -0.17623536702E+01  0.28145345617E+01  0.12700000000E+01 0. -1.
         -4    1    1    2    0  501 -0.14761955471E+01 -0.10117613586E+01 -0.38620283375E+01  0.44419564631E+01  0.12700000000E+01 0. -1.
<mgrwt>
<rscale>  0 0.21944736E+01</rscale>
<asrwt>0</asrwt>
<pdfrwt beam="1">0</pdfrwt>
<pdfrwt beam="2">0</pdfrwt>
<totfact> 0.33943818E+12</totfact>
</mgrwt>
</event>
<event>
 4    1  0.1699693E+006  0.2363560E+01  0.7546771E-02  0.2771919E+00
         22   -1    0    0    0    0  0.00000000000E+00  0.00000000000E+00  0.24331477423E+02  0.24331477423E+02  0.00000000000E+00 0.  1.
         22   -1    0    0    0    0 -0.00000000000E+00 -0.00000000000E+00 -0.39936491032E+00  0.39936491032E+00  0.00000000000E+00 0.  1.
          4    1    1    2  501    0 -0.19905538464E+01  0.10588148042E+00  0.20028241020E+02  0.20167222264E+02  0.12700000000E+01 0.  1.
         -4    1    1    2    0  501  0.19905538464E+01 -0.10588148042E+00  0.39038714932E+01  0.45636200695E+01  0.12700000000E+01 0.  1.
<mgrwt>
<rscale>  0 0.23635599E+01</rscale>
<asrwt>0</asrwt>
<pdfrwt beam="1">0</pdfrwt>
<pdfrwt beam="2">0</pdfrwt>
<totfact> 0.14996247E+12</totfact>
</mgrwt>
</event>
<event>
 4    1  0.1699693E+006  0.2044190E+01  0.7546771E-02  0.2951521E+00
         22   -1    0    0    0    0  0.00000000000E+00  0.00000000000E+00  0.58509830490E+00  0.58509830490E+00  0.00000000000E+00 0. -1.
         22   -1    0    0    0    0 -0.00000000000E+00 -0.00000000000E+00 -0.71697065815E+01  0.71697065815E+01  0.00000000000E+00 0. -1.
          4    1    1    2  501    0 -0.13781048977E+01 -0.81647931358E+00 -0.30508188091E+01  0.36723571428E+01  0.12700000000E+01 0. -1.
         -4    1    1    2    0  501  0.13781048977E+01  0.81647931358E+00 -0.35337894675E+01  0.40824477436E+01  0.12700000000E+01 0. -1.
<mgrwt>
<rscale>  0 0.20441897E+01</rscale>
<asrwt>0</asrwt>
<pdfrwt beam="1">0</pdfrwt>
<pdfrwt beam="2">0</pdfrwt>
<totfact> 0.43556696E+12</totfact>
</mgrwt>
</event>
<event>
 4    1  0.1699693E+006  0.2063685E+01  0.7546771E-02  0.2939024E+00
         22   -1    0    0    0    0  0.00000000000E+00  0.00000000000E+00  0.35870950596E+01  0.35870950596E+01  0.00000000000E+00 0. -1.
         22   -1    0    0    0    0 -0.00000000000E+00 -0.00000000000E+00 -0.11950534294E+01  0.11950534294E+01  0.00000000000E+00 0.  1.
          4    1    1    2  501    0 -0.15308936219E+01 -0.54978407615E+00  0.13891701145E+01  0.24876879666E+01  0.12700000000E+01 0.  1.
         -4    1    1    2    0  501  0.15308936219E+01  0.54978407615E+00  0.10028715157E+01  0.22944605225E+01  0.12700000000E+01 0. -1.
<mgrwt>
<rscale>  0 0.20636855E+01</rscale>
<asrwt>0</asrwt>
<pdfrwt beam="1">0</pdfrwt>
<pdfrwt beam="2">0</pdfrwt>
<totfact> 0.43877786E+12</totfact>
</mgrwt>
</event>
<event>
 4    1  0.1699693E+006  0.3081595E+01  0.7546771E-02  0.2497008E+00
         22   -1    0    0    0    0  0.00000000000E+00  0.00000000000E+00  0.61962490375E+02  0.61962490375E+02  0.00000000000E+00 0. -1.
         22   -1    0    0    0    0 -0.00000000000E+00 -0.00000000000E+00 -0.15337507848E+00  0.15337507848E+00  0.00000000000E+00 0.  1.
          4    1    1    2  501    0 -0.27575726883E+01 -0.52831736012E+00  0.31763889551E+02  0.31913020944E+02  0.12700000000E+01 0. -1.
         -4    1    1    2    0  501  0.27575726883E+01  0.52831736012E+00  0.30045225745E+02  0.30202844509E+02  0.12700000000E+01 0.  1.
<mgrwt>
<rscale>  0 0.30815948E+01</rscale>
<asrwt>0</asrwt>
<pdfrwt beam="1">0</pdfrwt>
<pdfrwt beam="2">0</pdfrwt>
<totfact> 0.13012097E+12</totfact>
</mgrwt>
</event>
<event>
 4    1  0.1699693E+006  0.2359580E+01  0.7546771E-02  0.2773872E+00
         22   -1    0    0    0    0  0.00000000000E+00  0.00000000000E+00  0.42195150515E+01  0.42195150515E+01  0.00000000000E+00 0. -1.
         22   -1    0    0    0    0 -0.00000000000E+00 -0.00000000000E+00 -0.15359544397E+01  0.15359544397E+01  0.00000000000E+00 0.  1.
          4    1    1    2  501    0  0.12600474040E+01  0.15385050919E+01  0.24221008245E+01  0.33814478825E+01  0.12700000000E+01 0. -1.
         -4    1    1    2    0  501 -0.12600474040E+01 -0.15385050919E+01  0.26145978724E+00  0.23740216087E+01  0.12700000000E+01 0.  1.
<mgrwt>
<rscale>  0 0.23595799E+01</rscale>
<asrwt>0</asrwt>
<pdfrwt beam="1">0</pdfrwt>
<pdfrwt beam="2">0</pdfrwt>
<totfact> 0.27175890E+12</totfact>
</mgrwt>
</event>
<event>
 4    1  0.1699693E+006  0.2998232E+01  0.7546771E-02  0.2522739E+00
         22   -1    0    0    0    0  0.00000000000E+00  0.00000000000E+00  0.63150550539E+01  0.63150550539E+01  0.00000000000E+00 0. -1.
         22   -1    0    0    0    0 -0.00000000000E+00 -0.00000000000E+00 -0.14502548189E+01  0.14502548189E+01  0.00000000000E+00 0.  1.
          4    1    1    2  501    0  0.19007289537E+01  0.19400322097E+01  0.29598938401E+01  0.42131184501E+01  0.12700000000E+01 0. -1.
         -4    1    1    2    0  501 -0.19007289537E+01 -0.19400322097E+01  0.19049063949E+01  0.35521914227E+01  0.12700000000E+01 0.  1.
<mgrwt>
<rscale>  0 0.29982321E+01</rscale>
<asrwt>0</asrwt>
<pdfrwt beam="1">0</pdfrwt>
<pdfrwt beam="2">0</pdfrwt>
<totfact> 0.18002989E+12</totfact>
</mgrwt>
</event>
<event>
 4    1  0.1699693E+006  0.2125994E+01  0.7546771E-02  0.2900578E+00
         22   -1    0    0    0    0  0.00000000000E+00  0.00000000000E+00  0.15470598564E+01  0.15470598564E+01  0.00000000000E+00 0. -1.
         22   -1    0    0    0    0 -0.00000000000E+00 -0.00000000000E+00 -0.66424816662E+01  0.66424816662E+01  0.00000000000E+00 0.  1.
          4    1    1    2  501    0  0.33738327184E+00 -0.16712640590E+01  0.51699506026E+00  0.21879522205E+01  0.12700000000E+01 0. -1.
         -4    1    1    2    0  501 -0.33738327184E+00  0.16712640590E+01 -0.56124168700E+01  0.60015893020E+01  0.12700000000E+01 0.  1.
<mgrwt>
<rscale>  0 0.21259941E+01</rscale>
<asrwt>0</asrwt>
<pdfrwt beam="1">0</pdfrwt>
<pdfrwt beam="2">0</pdfrwt>
<totfact> 0.15733549E+12</totfact>
</mgrwt>
</event>
<event>
 4    1  0.1699693E+006  0.2471502E+01  0.7546771E-02  0.2721229E+00
         22   -1    0    0    0    0  0.00000000000E+00  0.00000000000E+00  0.64557854189E+01  0.64557854189E+01  0.00000000000E+00 0.  1.
         22   -1    0    0    0    0 -0.00000000000E+00 -0.00000000000E+00 -0.23592797021E+01  0.23592797021E+01  0.00000000000E+00 0.  1.
          4    1    1    2  501    0 -0.87923623143E+00 -0.19293435396E+01  0.54593375830E+01  0.59927197239E+01  0.12700000000E+01 0.  1.
         -4    1    1    2    0  501  0.87923623143E+00  0.19293435396E+01 -0.13628318662E+01  0.28223453970E+01  0.12700000000E+01 0.  1.
<mgrwt>
<rscale>  0 0.24715021E+01</rscale>
<asrwt>0</asrwt>
<pdfrwt beam="1">0</pdfrwt>
<pdfrwt beam="2">0</pdfrwt>
<totfact> 0.99930103E+11</totfact>
</mgrwt>
</event>
<event>
 4    1  0.1699693E+006  0.2604440E+01  0.7546771E-02  0.2664203E+00
         22   -1    0    0    0    0  0.00000000000E+00  0.00000000000E+00  0.25933973772E+01  0.25933973772E+01  0.00000000000E+00 0.  1.
         22   -1    0    0    0    0 -0.00000000000E+00 -0.00000000000E+00 -0.86146795841E+01  0.86146795841E+01  0.00000000000E+00 0. -1.
          4    1    1    2  501    0 -0.13822295262E-02 -0.22738082049E+01  0.16659180420E+01  0.30916643715E+01  0.12700000000E+01 0.  1.
         -4    1    1    2    0  501  0.13822295262E-02  0.22738082049E+01 -0.76872002489E+01  0.81164125899E+01  0.12700000000E+01 0. -1.
<mgrwt>
<rscale>  0 0.26044396E+01</rscale>
<asrwt>0</asrwt>
<pdfrwt beam="1">0</pdfrwt>
<pdfrwt beam="2">0</pdfrwt>
<totfact> 0.63348511E+11</totfact>
</mgrwt>
</event>
<event>
 4    1  0.1699693E+006  0.3338545E+01  0.7546771E-02  0.2424933E+00
         22   -1    0    0    0    0  0.00000000000E+00  0.00000000000E+00  0.21988013427E+00  0.21988013427E+00  0.00000000000E+00 0. -1.
         22   -1    0    0    0    0 -0.00000000000E+00 -0.00000000000E+00 -0.50693092978E+02  0.50693092978E+02  0.00000000000E+00 0.  1.
          4    1    1    2  501    0  0.30271405893E+01  0.60778387049E+00 -0.25410932124E+02  0.25629306521E+02  0.12700000000E+01 0. -1.
         -4    1    1    2    0  501 -0.30271405893E+01 -0.60778387049E+00 -0.25062280720E+02  0.25283666590E+02  0.12700000000E+01 0.  1.
<mgrwt>
<rscale>  0 0.33385448E+01</rscale>
<asrwt>0</asrwt>
<pdfrwt beam="1">0</pdfrwt>
<pdfrwt beam="2">0</pdfrwt>
<totfact> 0.11377505E+12</totfact>
</mgrwt>
</event>
<event>
 4    1  0.1699693E+006  0.2242733E+01  0.7546771E-02  0.2834105E+00
         22   -1    0    0    0    0  0.00000000000E+00  0.00000000000E+00  0.82201411657E+00  0.82201411657E+00  0.00000000000E+00 0.  1.
         22   -1    0    0    0    0 -0.00000000000E+00 -0.00000000000E+00 -0.15639384267E+02  0.15639384267E+02  0.00000000000E+00 0. -1.
          4    1    1    2  501    0  0.18411514010E+01  0.16465593876E+00 -0.98690171229E+00  0.24502704033E+01  0.12700000000E+01 0.  1.
         -4    1    1    2    0  501 -0.18411514010E+01 -0.16465593876E+00 -0.13830468438E+02  0.14011127980E+02  0.12700000000E+01 0. -1.
<mgrwt>
<rscale>  0 0.22427327E+01</rscale>
<asrwt>0</asrwt>
<pdfrwt beam="1">0</pdfrwt>
<pdfrwt beam="2">0</pdfrwt>
<totfact> 0.11489525E+12</totfact>
</mgrwt>
</event>
<event>
 4    1  0.1699693E+006  0.4623121E+01  0.7546771E-02  0.2171967E+00
         22   -1    0    0    0    0  0.00000000000E+00  0.00000000000E+00  0.17043608256E+02  0.17043608256E+02  0.00000000000E+00 0. -1.
         22   -1    0    0    0    0 -0.00000000000E+00 -0.00000000000E+00 -0.24583079158E+01  0.24583079158E+01  0.00000000000E+00 0.  1.
          4    1    1    2  501    0  0.40712204622E+01  0.17848003356E+01  0.14117482063E+02  0.14855185899E+02  0.12700000000E+01 0. -1.
         -4    1    1    2    0  501 -0.40712204622E+01 -0.17848003356E+01  0.46781827738E+00  0.46467302731E+01  0.12700000000E+01 0.  1.
<mgrwt>
<rscale>  0 0.46231211E+01</rscale>
<asrwt>0</asrwt>
<pdfrwt beam="1">0</pdfrwt>
<pdfrwt beam="2">0</pdfrwt>
<totfact> 0.29322599E+11</totfact>
</mgrwt>
</event>
<event>
 4    1  0.1699693E+006  0.2565303E+01  0.7546771E-02  0.2680422E+00
         22   -1    0    0    0    0  0.00000000000E+00  0.00000000000E+00  0.25762914350E+02  0.25762914350E+02  0.00000000000E+00 0. -1.
         22   -1    0    0    0    0 -0.00000000000E+00 -0.00000000000E+00 -0.25860291910E+00  0.25860291910E+00  0.00000000000E+00 0.  1.
          4    1    1    2  501    0 -0.14945900648E+01 -0.16535052174E+01  0.11312376362E+02  0.11599596455E+02  0.12700000000E+01 0.  1.
         -4    1    1    2    0  501  0.14945900648E+01  0.16535052174E+01  0.14191935069E+02  0.14421920814E+02  0.12700000000E+01 0. -1.
<mgrwt>
<rscale>  0 0.25653029E+01</rscale>
<asrwt>0</asrwt>
<pdfrwt beam="1">0</pdfrwt>
<pdfrwt beam="2">0</pdfrwt>
<totfact> 0.22724269E+12</totfact>
</mgrwt>
</event>
<event>
 4    1  0.1699693E+006  0.3849535E+01  0.7546771E-02  0.2307013E+00
         22   -1    0    0    0    0  0.00000000000E+00  0.00000000000E+00  0.15435700467E+01  0.15435700467E+01  0.00000000000E+00 0. -1.
         22   -1    0    0    0    0 -0.00000000000E+00 -0.00000000000E+00 -0.11057605990E+02  0.11057605990E+02  0.00000000000E+00 0.  1.
          4    1    1    2  501    0  0.34377767402E+01 -0.11780120826E+01 -0.24697978672E+01  0.45737099697E+01  0.12700000000E+01 0. -1.
         -4    1    1    2    0  501 -0.34377767402E+01  0.11780120826E+01 -0.70442380758E+01  0.80274660666E+01  0.12700000000E+01 0. -1.
<mgrwt>
<rscale>  0 0.38495352E+01</rscale>
<asrwt>0</asrwt>
<pdfrwt beam="1">0</pdfrwt>
<pdfrwt beam="2">0</pdfrwt>
<totfact> 0.85391546E+11</totfact>
</mgrwt>
</event>
<event>
 4    1  0.1699693E+006  0.2910180E+01  0.7546771E-02  0.2551349E+00
         22   -1    0    0    0    0  0.00000000000E+00  0.00000000000E+00  0.17472486888E+01  0.17472486888E+01  0.00000000000E+00 0.  1.
         22   -1    0    0    0    0 -0.00000000000E+00 -0.00000000000E+00 -0.49579866094E+01  0.49579866094E+01  0.00000000000E+00 0. -1.
          4    1    1    2  501    0  0.24549197821E+01 -0.91083295875E+00 -0.21066775071E+01  0.35926644617E+01  0.12700000000E+01 0. -1.
         -4    1    1    2    0  501 -0.24549197821E+01  0.91083295875E+00 -0.11040604135E+01  0.31125708365E+01  0.12700000000E+01 0.  1.
<mgrwt>
<rscale>  0 0.29101800E+01</rscale>
<asrwt>0</asrwt>
<pdfrwt beam="1">0</pdfrwt>
<pdfrwt beam="2">0</pdfrwt>
<totfact> 0.19362089E+12</totfact>
</mgrwt>
</event>
<event>
 4    1  0.1699693E+006  0.2418417E+01  0.7546771E-02  0.2745628E+00
         22   -1    0    0    0    0  0.00000000000E+00  0.00000000000E+00  0.14337594254E+02  0.14337594254E+02  0.00000000000E+00 0. -1.
         22   -1    0    0    0    0 -0.00000000000E+00 -0.00000000000E+00 -0.50610749434E+00  0.50610749434E+00  0.00000000000E+00 0. -1.
          4    1    1    2  501    0 -0.16243500915E+01  0.12638536966E+01  0.10184601778E+02  0.10467800760E+02  0.12700000000E+01 0. -1.
         -4    1    1    2    0  501  0.16243500915E+01 -0.12638536966E+01  0.36468849822E+01  0.43759009883E+01  0.12700000000E+01 0. -1.
<mgrwt>
<rscale>  0 0.24184167E+01</rscale>
<asrwt>0</asrwt>
<pdfrwt beam="1">0</pdfrwt>
<pdfrwt beam="2">0</pdfrwt>
<totfact> 0.22159173E+12</totfact>
</mgrwt>
</event>
<event>
 4    1  0.1699693E+006  0.2593191E+01  0.7546771E-02  0.2668818E+00
         22   -1    0    0    0    0  0.00000000000E+00  0.00000000000E+00  0.11625368566E+01  0.11625368566E+01  0.00000000000E+00 0.  1.
         22   -1    0    0    0    0 -0.00000000000E+00 -0.00000000000E+00 -0.10157503281E+02  0.10157503281E+02  0.00000000000E+00 0. -1.
          4    1    1    2  501    0  0.22548214473E+01  0.16589718886E+00 -0.78369919584E+00  0.27090267747E+01  0.12700000000E+01 0.  1.
         -4    1    1    2    0  501 -0.22548214473E+01 -0.16589718886E+00 -0.82112672290E+01  0.86110133633E+01  0.12700000000E+01 0. -1.
<mgrwt>
<rscale>  0 0.25931914E+01</rscale>
<asrwt>0</asrwt>
<pdfrwt beam="1">0</pdfrwt>
<pdfrwt beam="2">0</pdfrwt>
<totfact> 0.13107182E+12</totfact>
</mgrwt>
</event>
<event>
 4    1  0.1699693E+006  0.2225474E+01  0.7546771E-02  0.2843511E+00
         22   -1    0    0    0    0  0.00000000000E+00  0.00000000000E+00  0.42767303075E+00  0.42767303075E+00  0.00000000000E+00 0.  1.
         22   -1    0    0    0    0 -0.00000000000E+00 -0.00000000000E+00 -0.13849651418E+02  0.13849651418E+02  0.00000000000E+00 0. -1.
          4    1    1    2  501    0  0.10626196018E+01 -0.14868331110E+01 -0.38215439124E+01  0.44223219006E+01  0.12700000000E+01 0.  1.
         -4    1    1    2    0  501 -0.10626196018E+01  0.14868331110E+01 -0.96004344750E+01  0.98550025483E+01  0.12700000000E+01 0. -1.
<mgrwt>
<rscale>  0 0.22254737E+01</rscale>
<asrwt>0</asrwt>
<pdfrwt beam="1">0</pdfrwt>
<pdfrwt beam="2">0</pdfrwt>
<totfact> 0.27957149E+12</totfact>
</mgrwt>
</event>
<event>
 4    1  0.1699693E+006  0.2156955E+01  0.7546771E-02  0.2882275E+00
         22   -1    0    0    0    0  0.00000000000E+00  0.00000000000E+00  0.52827760090E+00  0.52827760090E+00  0.00000000000E+00 0. -1.
         22   -1    0    0    0    0 -0.00000000000E+00 -0.00000000000E+00 -0.89070136350E+01  0.89070136350E+01  0.00000000000E+00 0. -1.
          4    1    1    2  501    0  0.16819907073E+01  0.45876014721E+00 -0.36890489784E+01  0.42733518434E+01  0.12700000000E+01 0. -1.
         -4    1    1    2    0  501 -0.16819907073E+01 -0.45876014721E+00 -0.46896870556E+01  0.51619393925E+01  0.12700000000E+01 0. -1.
<mgrwt>
<rscale>  0 0.21569547E+01</rscale>
<asrwt>0</asrwt>
<pdfrwt beam="1">0</pdfrwt>
<pdfrwt beam="2">0</pdfrwt>
<totfact> 0.37673770E+12</totfact>
</mgrwt>
</event>
<event>
 4    1  0.1699693E+006  0.2499404E+01  0.7546771E-02  0.2708793E+00
         22   -1    0    0    0    0  0.00000000000E+00  0.00000000000E+00  0.56293192730E+00  0.56293192730E+00  0.00000000000E+00 0.  1.
         22   -1    0    0    0    0 -0.00000000000E+00 -0.00000000000E+00 -0.17420531549E+02  0.17420531549E+02  0.00000000000E+00 0. -1.
          4    1    1    2  501    0  0.91517389061E+00  0.19484801066E+01 -0.30115036405E+01  0.39135881430E+01  0.12700000000E+01 0.  1.
         -4    1    1    2    0  501 -0.91517389061E+00 -0.19484801066E+01 -0.13846095982E+02  0.14069875334E+02  0.12700000000E+01 0. -1.
<mgrwt>
<rscale>  0 0.24994035E+01</rscale>
<asrwt>0</asrwt>
<pdfrwt beam="1">0</pdfrwt>
<pdfrwt beam="2">0</pdfrwt>
<totfact> 0.15452111E+12</totfact>
</mgrwt>
</event>
<event>
 4    1  0.1699693E+006  0.2393682E+01  0.7546771E-02  0.2757342E+00
         22   -1    0    0    0    0  0.00000000000E+00  0.00000000000E+00  0.30280442059E+00  0.30280442059E+00  0.00000000000E+00 0.  1.
         22   -1    0    0    0    0 -0.00000000000E+00 -0.00000000000E+00 -0.19355165099E+02  0.19355165099E+02  0.00000000000E+00 0. -1.
          4    1    1    2  501    0  0.10830857470E+01  0.17157328078E+01 -0.80560476048E+01  0.84041428364E+01  0.12700000000E+01 0.  1.
         -4    1    1    2    0  501 -0.10830857470E+01 -0.17157328078E+01 -0.10996313073E+02  0.11253826683E+02  0.12700000000E+01 0. -1.
<mgrwt>
<rscale>  0 0.23936821E+01</rscale>
<asrwt>0</asrwt>
<pdfrwt beam="1">0</pdfrwt>
<pdfrwt beam="2">0</pdfrwt>
<totfact> 0.27255782E+12</totfact>
</mgrwt>
</event>
<event>
 4    1  0.1699693E+006  0.2178092E+01  0.7546771E-02  0.2870067E+00
         22   -1    0    0    0    0  0.00000000000E+00  0.00000000000E+00  0.35995397160E+01  0.35995397160E+01  0.00000000000E+00 0.  1.
         22   -1    0    0    0    0 -0.00000000000E+00 -0.00000000000E+00 -0.19462093403E+01  0.19462093403E+01  0.00000000000E+00 0. -1.
          4    1    1    2  501    0  0.13240027701E-01 -0.17694660767E+01  0.24020911324E+01  0.32425495067E+01  0.12700000000E+01 0.  1.
         -4    1    1    2    0  501 -0.13240027701E-01  0.17694660767E+01 -0.74876075665E+00  0.23031995497E+01  0.12700000000E+01 0. -1.
<mgrwt>
<rscale>  0 0.21780922E+01</rscale>
<asrwt>0</asrwt>
<pdfrwt beam="1">0</pdfrwt>
<pdfrwt beam="2">0</pdfrwt>
<totfact> 0.24928236E+12</totfact>
</mgrwt>
</event>
<event>
 4    1  0.1699693E+006  0.3303231E+01  0.7546771E-02  0.2434250E+00
         22   -1    0    0    0    0  0.00000000000E+00  0.00000000000E+00  0.84930685649E+01  0.84930685649E+01  0.00000000000E+00 0.  1.
         22   -1    0    0    0    0 -0.00000000000E+00 -0.00000000000E+00 -0.13672407844E+01  0.13672407844E+01  0.00000000000E+00 0. -1.
          4    1    1    2  501    0 -0.19436476427E+01  0.23496102161E+01  0.23518062157E+01  0.40549139082E+01  0.12700000000E+01 0.  1.
         -4    1    1    2    0  501  0.19436476427E+01 -0.23496102161E+01  0.47740215647E+01  0.58053954411E+01  0.12700000000E+01 0. -1.
<mgrwt>
<rscale>  0 0.33032309E+01</rscale>
<asrwt>0</asrwt>
<pdfrwt beam="1">0</pdfrwt>
<pdfrwt beam="2">0</pdfrwt>
<totfact> 0.13508396E+12</totfact>
</mgrwt>
</event>
<event>
 4    1  0.1699693E+006  0.2577072E+01  0.7546771E-02  0.2675497E+00
         22   -1    0    0    0    0  0.00000000000E+00  0.00000000000E+00  0.17220871300E+01  0.17220871300E+01  0.00000000000E+00 0.  1.
         22   -1    0    0    0    0 -0.00000000000E+00 -0.00000000000E+00 -0.10087484537E+02  0.10087484537E+02  0.00000000000E+00 0.  1.
          4    1    1    2  501    0  0.13786466136E+01 -0.17685398025E+01  0.45806674862E+00  0.26174653129E+01  0.12700000000E+01 0.  1.
         -4    1    1    2    0  501 -0.13786466136E+01  0.17685398025E+01 -0.88234641555E+01  0.91921063539E+01  0.12700000000E+01 0.  1.
<mgrwt>
<rscale>  0 0.25770719E+01</rscale>
<asrwt>0</asrwt>
<pdfrwt beam="1">0</pdfrwt>
<pdfrwt beam="2">0</pdfrwt>
<totfact> 0.84141835E+11</totfact>
</mgrwt>
</event>
<event>
 4    1  0.1699693E+006  0.2619825E+01  0.7546771E-02  0.2657950E+00
         22   -1    0    0    0    0  0.00000000000E+00  0.00000000000E+00  0.38317864114E+01  0.38317864114E+01  0.00000000000E+00 0. -1.
         22   -1    0    0    0    0 -0.00000000000E+00 -0.00000000000E+00 -0.18998515189E+01  0.18998515189E+01  0.00000000000E+00 0. -1.
          4    1    1    2  501    0  0.21951288133E+01 -0.65726101996E+00  0.28061535604E+00  0.26348107206E+01  0.12700000000E+01 0. -1.
         -4    1    1    2    0  501 -0.21951288133E+01  0.65726101996E+00  0.16513195365E+01  0.30968272097E+01  0.12700000000E+01 0. -1.
<mgrwt>
<rscale>  0 0.26198249E+01</rscale>
<asrwt>0</asrwt>
<pdfrwt beam="1">0</pdfrwt>
<pdfrwt beam="2">0</pdfrwt>
<totfact> 0.23819373E+12</totfact>
</mgrwt>
</event>
<event>
 4    1  0.1699693E+006  0.2543264E+01  0.7546771E-02  0.2689758E+00
         22   -1    0    0    0    0  0.00000000000E+00  0.00000000000E+00  0.28116794508E+00  0.28116794508E+00  0.00000000000E+00 0. -1.
         22   -1    0    0    0    0 -0.00000000000E+00 -0.00000000000E+00 -0.32040502908E+02  0.32040502908E+02  0.00000000000E+00 0. -1.
          4    1    1    2  501    0  0.18768879243E+01 -0.11543765141E+01 -0.72975049566E+01  0.77279862842E+01  0.12700000000E+01 0. -1.
         -4    1    1    2    0  501 -0.18768879243E+01  0.11543765141E+01 -0.24461830006E+02  0.24593684569E+02  0.12700000000E+01 0. -1.
<mgrwt>
<rscale>  0 0.25432643E+01</rscale>
<asrwt>0</asrwt>
<pdfrwt beam="1">0</pdfrwt>
<pdfrwt beam="2">0</pdfrwt>
<totfact> 0.15682398E+12</totfact>
</mgrwt>
</event>
<event>
 4    1  0.1699693E+006  0.2159158E+01  0.7546771E-02  0.2880992E+00
         22   -1    0    0    0    0  0.00000000000E+00  0.00000000000E+00  0.22076286608E+00  0.22076286608E+00  0.00000000000E+00 0. -1.
         22   -1    0    0    0    0 -0.00000000000E+00 -0.00000000000E+00 -0.30521149570E+02  0.30521149570E+02  0.00000000000E+00 0. -1.
          4    1    1    2  501    0 -0.17003441521E+01  0.39735843503E+00 -0.66182448085E+01  0.69615464020E+01  0.12700000000E+01 0. -1.
         -4    1    1    2    0  501  0.17003441521E+01 -0.39735843503E+00 -0.23682141896E+02  0.23780366034E+02  0.12700000000E+01 0. -1.
<mgrwt>
<rscale>  0 0.21591582E+01</rscale>
<asrwt>0</asrwt>
<pdfrwt beam="1">0</pdfrwt>
<pdfrwt beam="2">0</pdfrwt>
<totfact> 0.21869350E+12</totfact>
</mgrwt>
</event>
<event>
 4    1  0.1699693E+006  0.2521065E+01  0.7546771E-02  0.2699315E+00
         22   -1    0    0    0    0  0.00000000000E+00  0.00000000000E+00  0.23530030402E+02  0.23530030402E+02  0.00000000000E+00 0. -1.
         22   -1    0    0    0    0 -0.00000000000E+00 -0.00000000000E+00 -0.31317305726E+00  0.31317305726E+00  0.00000000000E+00 0.  1.
          4    1    1    2  501    0 -0.91765872469E+00  0.19750374861E+01  0.16029005710E+02  0.16226052960E+02  0.12700000000E+01 0. -1.
         -4    1    1    2    0  501  0.91765872469E+00 -0.19750374861E+01  0.71878516342E+01  0.76171504989E+01  0.12700000000E+01 0.  1.
<mgrwt>
<rscale>  0 0.25210654E+01</rscale>
<asrwt>0</asrwt>
<pdfrwt beam="1">0</pdfrwt>
<pdfrwt beam="2">0</pdfrwt>
<totfact> 0.20556195E+12</totfact>
</mgrwt>
</event>
<event>
 4    1  0.1699693E+006  0.2103938E+01  0.7546771E-02  0.2913935E+00
         22   -1    0    0    0    0  0.00000000000E+00  0.00000000000E+00  0.11853465624E+01  0.11853465624E+01  0.00000000000E+00 0. -1.
         22   -1    0    0    0    0 -0.00000000000E+00 -0.00000000000E+00 -0.43371034673E+01  0.43371034673E+01  0.00000000000E+00 0.  1.
          4    1    1    2  501    0 -0.57779964476E+00  0.15747389043E+01 -0.54654825931E+00  0.21737686275E+01  0.12700000000E+01 0. -1.
         -4    1    1    2    0  501  0.57779964476E+00 -0.15747389043E+01 -0.26052086457E+01  0.33486814022E+01  0.12700000000E+01 0.  1.
<mgrwt>
<rscale>  0 0.21039380E+01</rscale>
<asrwt>0</asrwt>
<pdfrwt beam="1">0</pdfrwt>
<pdfrwt beam="2">0</pdfrwt>
<totfact> 0.35425077E+12</totfact>
</mgrwt>
</event>
<event>
 4    1  0.1699693E+006  0.2746695E+01  0.7546771E-02  0.2608843E+00
         22   -1    0    0    0    0  0.00000000000E+00  0.00000000000E+00  0.12658807806E+01  0.12658807806E+01  0.00000000000E+00 0.  1.
         22   -1    0    0    0    0 -0.00000000000E+00 -0.00000000000E+00 -0.75639570952E+01  0.75639570952E+01  0.00000000000E+00 0. -1.
          4    1    1    2  501    0  0.18675135634E+01 -0.15632750914E+01 -0.11158474891E+01  0.29647009191E+01  0.12700000000E+01 0.  1.
         -4    1    1    2    0  501 -0.18675135634E+01  0.15632750914E+01 -0.51822288256E+01  0.58651369567E+01  0.12700000000E+01 0. -1.
<mgrwt>
<rscale>  0 0.27466955E+01</rscale>
<asrwt>0</asrwt>
<pdfrwt beam="1">0</pdfrwt>
<pdfrwt beam="2">0</pdfrwt>
<totfact> 0.16960812E+12</totfact>
</mgrwt>
</event>
<event>
 4    1  0.1699693E+006  0.2603886E+01  0.7546771E-02  0.2664429E+00
         22   -1    0    0    0    0  0.00000000000E+00  0.00000000000E+00  0.37441126904E+01  0.37441126904E+01  0.00000000000E+00 0.  1.
         22   -1    0    0    0    0 -0.00000000000E+00 -0.00000000000E+00 -0.32240997931E+01  0.32240997931E+01  0.00000000000E+00 0. -1.
          4    1    1    2  501    0 -0.11022702121E+01 -0.19880452963E+01  0.25666926724E+01  0.36562460250E+01  0.12700000000E+01 0.  1.
         -4    1    1    2    0  501  0.11022702121E+01  0.19880452963E+01 -0.20466797751E+01  0.33119664585E+01  0.12700000000E+01 0. -1.
<mgrwt>
<rscale>  0 0.26038863E+01</rscale>
<asrwt>0</asrwt>
<pdfrwt beam="1">0</pdfrwt>
<pdfrwt beam="2">0</pdfrwt>
<totfact> 0.13231513E+12</totfact>
</mgrwt>
</event>
<event>
 4    1  0.1699693E+006  0.2012797E+01  0.7546771E-02  0.2972142E+00
         22   -1    0    0    0    0  0.00000000000E+00  0.00000000000E+00  0.50326832235E+01  0.50326832235E+01  0.00000000000E+00 0. -1.
         22   -1    0    0    0    0 -0.00000000000E+00 -0.00000000000E+00 -0.37426092098E+01  0.37426092098E+01  0.00000000000E+00 0.  1.
          4    1    1    2  501    0  0.15251125470E+01  0.33538394331E+00  0.45322718113E+01  0.49591166998E+01  0.12700000000E+01 0. -1.
         -4    1    1    2    0  501 -0.15251125470E+01 -0.33538394331E+00 -0.32421977976E+01  0.38161757336E+01  0.12700000000E+01 0.  1.
<mgrwt>
<rscale>  0 0.20127967E+01</rscale>
<asrwt>0</asrwt>
<pdfrwt beam="1">0</pdfrwt>
<pdfrwt beam="2">0</pdfrwt>
<totfact> 0.78367577E+11</totfact>
</mgrwt>
</event>
<event>
 4    1  0.1699693E+006  0.3222786E+01  0.7546771E-02  0.2456144E+00
         22   -1    0    0    0    0  0.00000000000E+00  0.00000000000E+00  0.16571231048E+01  0.16571231048E+01  0.00000000000E+00 0.  1.
         22   -1    0    0    0    0 -0.00000000000E+00 -0.00000000000E+00 -0.99078744898E+01  0.99078744898E+01  0.00000000000E+00 0. -1.
          4    1    1    2  501    0  0.77622763287E+00 -0.28584825215E+01 -0.62038909736E+00  0.32819558644E+01  0.12700000000E+01 0.  1.
         -4    1    1    2    0  501 -0.77622763287E+00  0.28584825215E+01 -0.76303622876E+01  0.82830417302E+01  0.12700000000E+01 0. -1.
<mgrwt>
<rscale>  0 0.32227863E+01</rscale>
<asrwt>0</asrwt>
<pdfrwt beam="1">0</pdfrwt>
<pdfrwt beam="2">0</pdfrwt>
<totfact> 0.89893902E+11</totfact>
</mgrwt>
</event>
<event>
 4    1  0.1699693E+006  0.3650647E+01  0.7546771E-02  0.2349501E+00
         22   -1    0    0    0    0  0.00000000000E+00  0.00000000000E+00  0.33005820466E+01  0.33005820466E+01  0.00000000000E+00 0.  1.
         22   -1    0    0    0    0 -0.00000000000E+00 -0.00000000000E+00 -0.40433210418E+01  0.40433210418E+01  0.00000000000E+00 0. -1.
          4    1    1    2  501    0  0.33021354434E+01 -0.90012501385E+00 -0.50655919167E+00  0.36856241997E+01  0.12700000000E+01 0.  1.
         -4    1    1    2    0  501 -0.33021354434E+01  0.90012501385E+00 -0.23617980354E+00  0.36582788886E+01  0.12700000000E+01 0. -1.
<mgrwt>
<rscale>  0 0.36506470E+01</rscale>
<asrwt>0</asrwt>
<pdfrwt beam="1">0</pdfrwt>
<pdfrwt beam="2">0</pdfrwt>
<totfact> 0.11760812E+12</totfact>
</mgrwt>
</event>
<event>
 4    1  0.1699693E+006  0.2214480E+01  0.7546771E-02  0.2849576E+00
         22   -1    0    0    0    0  0.00000000000E+00  0.00000000000E+00  0.21486070388E+01  0.21486070388E+01  0.00000000000E+00 0.  1.
         22   -1    0    0    0    0 -0.00000000000E+00 -0.00000000000E+00 -0.36051203646E+01  0.36051203646E+01  0.00000000000E+00 0. -1.
          4    1    1    2  501    0 -0.92878837649E+00  0.15583240818E+01  0.10143441943E+01  0.24357372471E+01  0.12700000000E+01 0.  1.
         -4    1    1    2    0  501  0.92878837649E+00 -0.15583240818E+01 -0.24708575202E+01  0.33179901563E+01  0.12700000000E+01 0. -1.
<mgrwt>
<rscale>  0 0.22144800E+01</rscale>
<asrwt>0</asrwt>
<pdfrwt beam="1">0</pdfrwt>
<pdfrwt beam="2">0</pdfrwt>
<totfact> 0.22189546E+12</totfact>
</mgrwt>
</event>
<event>
 4    1  0.1699693E+006  0.2163105E+01  0.7546771E-02  0.2878699E+00
         22   -1    0    0    0    0  0.00000000000E+00  0.00000000000E+00  0.51242775387E+01  0.51242775387E+01  0.00000000000E+00 0.  1.
         22   -1    0    0    0    0 -0.00000000000E+00 -0.00000000000E+00 -0.91844934711E+00  0.91844934711E+00  0.00000000000E+00 0. -1.
          4    1    1    2  501    0 -0.14619535694E+01  0.96375032450E+00  0.18725217007E+01  0.28610068938E+01  0.12700000000E+01 0.  1.
         -4    1    1    2    0  501  0.14619535694E+01 -0.96375032450E+00  0.23333064909E+01  0.31817199920E+01  0.12700000000E+01 0. -1.
<mgrwt>
<rscale>  0 0.21631049E+01</rscale>
<asrwt>0</asrwt>
<pdfrwt beam="1">0</pdfrwt>
<pdfrwt beam="2">0</pdfrwt>
<totfact> 0.38932582E+12</totfact>
</mgrwt>
</event>
<event>
 4    1  0.1699693E+006  0.2293326E+01  0.7546771E-02  0.2807310E+00
         22   -1    0    0    0    0  0.00000000000E+00  0.00000000000E+00  0.18048175390E+02  0.18048175390E+02  0.00000000000E+00 0. -1.
         22   -1    0    0    0    0 -0.00000000000E+00 -0.00000000000E+00 -0.43280623742E+00  0.43280623742E+00  0.00000000000E+00 0.  1.
          4    1    1    2  501    0 -0.18846823050E+01  0.30727446517E+00  0.14089381667E+02  0.14274803702E+02  0.12700000000E+01 0. -1.
         -4    1    1    2    0  501  0.18846823050E+01 -0.30727446517E+00  0.35259874861E+01  0.42061779253E+01  0.12700000000E+01 0.  1.
<mgrwt>
<rscale>  0 0.22933262E+01</rscale>
<asrwt>0</asrwt>
<pdfrwt beam="1">0</pdfrwt>
<pdfrwt beam="2">0</pdfrwt>
<totfact> 0.19898109E+12</totfact>
</mgrwt>
</event>
<event>
 4    1  0.1699693E+006  0.2144449E+01  0.7546771E-02  0.2889606E+00
         22   -1    0    0    0    0  0.00000000000E+00  0.00000000000E+00  0.71319257282E+00  0.71319257282E+00  0.00000000000E+00 0.  1.
         22   -1    0    0    0    0 -0.00000000000E+00 -0.00000000000E+00 -0.79618354448E+01  0.79618354448E+01  0.00000000000E+00 0.  1.
          4    1    1    2  501    0  0.17207729192E+01  0.15717152527E+00 -0.17329609712E+01  0.27571391070E+01  0.12700000000E+01 0.  1.
         -4    1    1    2    0  501 -0.17207729192E+01 -0.15717152527E+00 -0.55156819008E+01  0.59178889106E+01  0.12700000000E+01 0.  1.
<mgrwt>
<rscale>  0 0.21444492E+01</rscale>
<asrwt>0</asrwt>
<pdfrwt beam="1">0</pdfrwt>
<pdfrwt beam="2">0</pdfrwt>
<totfact> 0.30691711E+12</totfact>
</mgrwt>
</event>
<event>
 4    1  0.1699693E+006  0.2432960E+01  0.7546771E-02  0.2738844E+00
         22   -1    0    0    0    0  0.00000000000E+00  0.00000000000E+00  0.81726393491E+01  0.81726393491E+01  0.00000000000E+00 0.  1.
         22   -1    0    0    0    0 -0.00000000000E+00 -0.00000000000E+00 -0.10172365911E+01  0.10172365911E+01  0.00000000000E+00 0.  1.
          4    1    1    2  501    0 -0.18424690311E+01  0.95483226436E+00  0.60435630526E+01  0.65149022367E+01  0.12700000000E+01 0.  1.
         -4    1    1    2    0  501  0.18424690311E+01 -0.95483226436E+00  0.11118397055E+01  0.26749737035E+01  0.12700000000E+01 0.  1.
<mgrwt>
<rscale>  0 0.24329605E+01</rscale>
<asrwt>0</asrwt>
<pdfrwt beam="1">0</pdfrwt>
<pdfrwt beam="2">0</pdfrwt>
<totfact> 0.19850798E+12</totfact>
</mgrwt>
</event>
<event>
 4    1  0.1699693E+006  0.2045247E+01  0.7546771E-02  0.2950837E+00
         22   -1    0    0    0    0  0.00000000000E+00  0.00000000000E+00  0.18257896340E+00  0.18257896340E+00  0.00000000000E+00 0.  1.
         22   -1    0    0    0    0 -0.00000000000E+00 -0.00000000000E+00 -0.25201469052E+02  0.25201469052E+02  0.00000000000E+00 0. -1.
          4    1    1    2  501    0 -0.15857240489E+01 -0.23583018623E+00 -0.86829976732E+01  0.89206213477E+01  0.12700000000E+01 0.  1.
         -4    1    1    2    0  501  0.15857240489E+01  0.23583018623E+00 -0.16335892416E+02  0.16463426668E+02  0.12700000000E+01 0. -1.
<mgrwt>
<rscale>  0 0.20452473E+01</rscale>
<asrwt>0</asrwt>
<pdfrwt beam="1">0</pdfrwt>
<pdfrwt beam="2">0</pdfrwt>
<totfact> 0.34463158E+12</totfact>
</mgrwt>
</event>
<event>
 4    1  0.1699693E+006  0.7412204E+01  0.7546771E-02  0.1912226E+00
         22   -1    0    0    0    0  0.00000000000E+00  0.00000000000E+00  0.27216193473E+01  0.27216193473E+01  0.00000000000E+00 0. -1.
         22   -1    0    0    0    0 -0.00000000000E+00 -0.00000000000E+00 -0.28345533779E+02  0.28345533779E+02  0.00000000000E+00 0.  1.
          4    1    1    2  501    0 -0.60525759014E+01  0.40858532094E+01 -0.44782035330E+01  0.86599698830E+01  0.12700000000E+01 0. -1.
         -4    1    1    2    0  501  0.60525759014E+01 -0.40858532094E+01 -0.21145710899E+02  0.22407183243E+02  0.12700000000E+01 0.  1.
<mgrwt>
<rscale>  0 0.74122042E+01</rscale>
<asrwt>0</asrwt>
<pdfrwt beam="1">0</pdfrwt>
<pdfrwt beam="2">0</pdfrwt>
<totfact> 0.13768823E+11</totfact>
</mgrwt>
</event>
<event>
 4    1  0.1699693E+006  0.2329206E+01  0.7546771E-02  0.2788978E+00
         22   -1    0    0    0    0  0.00000000000E+00  0.00000000000E+00  0.22154275679E+02  0.22154275679E+02  0.00000000000E+00 0. -1.
         22   -1    0    0    0    0 -0.00000000000E+00 -0.00000000000E+00 -0.86040372858E+00  0.86040372858E+00  0.00000000000E+00 0. -1.
          4    1    1    2  501    0 -0.15720957208E+01  0.11579365603E+01  0.20379901580E+02  0.20512571522E+02  0.12700000000E+01 0. -1.
         -4    1    1    2    0  501  0.15720957208E+01 -0.11579365603E+01  0.91397037037E+00  0.25021078856E+01  0.12700000000E+01 0. -1.
<mgrwt>
<rscale>  0 0.23292063E+01</rscale>
<asrwt>0</asrwt>
<pdfrwt beam="1">0</pdfrwt>
<pdfrwt beam="2">0</pdfrwt>
<totfact> 0.70758106E+11</totfact>
</mgrwt>
</event>
<event>
 4    1  0.1699693E+006  0.2784295E+01  0.7546771E-02  0.2595078E+00
         22   -1    0    0    0    0  0.00000000000E+00  0.00000000000E+00  0.34075538512E+02  0.34075538512E+02  0.00000000000E+00 0. -1.
         22   -1    0    0    0    0 -0.00000000000E+00 -0.00000000000E+00 -0.22752096786E+00  0.22752096786E+00  0.00000000000E+00 0. -1.
          4    1    1    2  501    0  0.21926917723E+01  0.11539070759E+01  0.16773028793E+02  0.17002552562E+02  0.12700000000E+01 0. -1.
         -4    1    1    2    0  501 -0.21926917723E+01 -0.11539070759E+01  0.17074988751E+02  0.17300506918E+02  0.12700000000E+01 0. -1.
<mgrwt>
<rscale>  0 0.27842950E+01</rscale>
<asrwt>0</asrwt>
<pdfrwt beam="1">0</pdfrwt>
<pdfrwt beam="2">0</pdfrwt>
<totfact> 0.18365535E+12</totfact>
</mgrwt>
</event>
<event>
 4    1  0.1699693E+006  0.2330161E+01  0.7546771E-02  0.2788497E+00
         22   -1    0    0    0    0  0.00000000000E+00  0.00000000000E+00  0.40720162237E+00  0.40720162237E+00  0.00000000000E+00 0.  1.
         22   -1    0    0    0    0 -0.00000000000E+00 -0.00000000000E+00 -0.19416142619E+03  0.19416142619E+03  0.00000000000E+00 0.  1.
          4    1    1    2  501    0  0.12999688500E+01  0.14583663146E+01 -0.29927153960E+01  0.37928876546E+01  0.12700000000E+01 0.  1.
         -4    1    1    2    0  501 -0.12999688500E+01 -0.14583663146E+01 -0.19076150918E+03  0.19077574016E+03  0.12700000000E+01 0.  1.
<mgrwt>
<rscale>  0 0.23301612E+01</rscale>
<asrwt>0</asrwt>
<pdfrwt beam="1">0</pdfrwt>
<pdfrwt beam="2">0</pdfrwt>
<totfact> 0.85139976E+10</totfact>
</mgrwt>
</event>
<event>
 4    1  0.1699693E+006  0.2634013E+01  0.7546771E-02  0.2652243E+00
         22   -1    0    0    0    0  0.00000000000E+00  0.00000000000E+00  0.10446033346E+02  0.10446033346E+02  0.00000000000E+00 0. -1.
         22   -1    0    0    0    0 -0.00000000000E+00 -0.00000000000E+00 -0.12857888395E+01  0.12857888395E+01  0.00000000000E+00 0.  1.
          4    1    1    2  501    0  0.22076886734E+01  0.67173898850E+00  0.86587121568E+01  0.90504872113E+01  0.12700000000E+01 0. -1.
         -4    1    1    2    0  501 -0.22076886734E+01 -0.67173898850E+00  0.50153234990E+00  0.26813349745E+01  0.12700000000E+01 0.  1.
<mgrwt>
<rscale>  0 0.26340126E+01</rscale>
<asrwt>0</asrwt>
<pdfrwt beam="1">0</pdfrwt>
<pdfrwt beam="2">0</pdfrwt>
<totfact> 0.11287723E+12</totfact>
</mgrwt>
</event>
<event>
 4    1  0.1699693E+006  0.2107557E+01  0.7546771E-02  0.2911725E+00
         22   -1    0    0    0    0  0.00000000000E+00  0.00000000000E+00  0.39055348212E+01  0.39055348212E+01  0.00000000000E+00 0.  1.
         22   -1    0    0    0    0 -0.00000000000E+00 -0.00000000000E+00 -0.99740559424E+01  0.99740559424E+01  0.00000000000E+00 0. -1.
          4    1    1    2  501    0 -0.28396782674E+00 -0.16577869194E+01  0.34979023056E+01  0.40837624486E+01  0.12700000000E+01 0.  1.
         -4    1    1    2    0  501  0.28396782674E+00  0.16577869194E+01 -0.95664234268E+01  0.97958283150E+01  0.12700000000E+01 0. -1.
<mgrwt>
<rscale>  0 0.21075567E+01</rscale>
<asrwt>0</asrwt>
<pdfrwt beam="1">0</pdfrwt>
<pdfrwt beam="2">0</pdfrwt>
<totfact> 0.32872283E+11</totfact>
</mgrwt>
</event>
<event>
 4    1  0.1699693E+006  0.2908205E+01  0.7546771E-02  0.2552009E+00
         22   -1    0    0    0    0  0.00000000000E+00  0.00000000000E+00  0.13680999983E+02  0.13680999983E+02  0.00000000000E+00 0. -1.
         22   -1    0    0    0    0 -0.00000000000E+00 -0.00000000000E+00 -0.61896476684E+00  0.61896476684E+00  0.00000000000E+00 0.  1.
          4    1    1    2  501    0  0.24888019387E+01 -0.80661115499E+00  0.67815918465E+01  0.73788647242E+01  0.12700000000E+01 0. -1.
         -4    1    1    2    0  501 -0.24888019387E+01  0.80661115499E+00  0.62804433699E+01  0.69211000259E+01  0.12700000000E+01 0. -1.
<mgrwt>
<rscale>  0 0.29082051E+01</rscale>
<asrwt>0</asrwt>
<pdfrwt beam="1">0</pdfrwt>
<pdfrwt beam="2">0</pdfrwt>
<totfact> 0.18692021E+12</totfact>
</mgrwt>
</event>
<event>
 4    1  0.1699693E+006  0.2743635E+01  0.7546771E-02  0.2609979E+00
         22   -1    0    0    0    0  0.00000000000E+00  0.00000000000E+00  0.11811496087E+01  0.11811496087E+01  0.00000000000E+00 0.  1.
         22   -1    0    0    0    0 -0.00000000000E+00 -0.00000000000E+00 -0.96026182303E+01  0.96026182303E+01  0.00000000000E+00 0. -1.
          4    1    1    2  501    0 -0.23783845964E+01  0.50785583649E+00 -0.10838081116E+01  0.29499442134E+01  0.12700000000E+01 0.  1.
         -4    1    1    2    0  501  0.23783845964E+01 -0.50785583649E+00 -0.73376605100E+01  0.78338236257E+01  0.12700000000E+01 0. -1.
<mgrwt>
<rscale>  0 0.27436346E+01</rscale>
<asrwt>0</asrwt>
<pdfrwt beam="1">0</pdfrwt>
<pdfrwt beam="2">0</pdfrwt>
<totfact> 0.13776594E+12</totfact>
</mgrwt>
</event>
<event>
 4    1  0.1699693E+006  0.2726651E+01  0.7546771E-02  0.2616323E+00
         22   -1    0    0    0    0  0.00000000000E+00  0.00000000000E+00  0.29212922913E+00  0.29212922913E+00  0.00000000000E+00 0. -1.
         22   -1    0    0    0    0 -0.00000000000E+00 -0.00000000000E+00 -0.26084934672E+02  0.26084934672E+02  0.00000000000E+00 0. -1.
          4    1    1    2  501    0  0.23420543862E+01  0.58009125336E+00 -0.10838421864E+02  0.11176135875E+02  0.12700000000E+01 0. -1.
         -4    1    1    2    0  501 -0.23420543862E+01 -0.58009125336E+00 -0.14954383579E+02  0.15200928025E+02  0.12700000000E+01 0. -1.
<mgrwt>
<rscale>  0 0.27266508E+01</rscale>
<asrwt>0</asrwt>
<pdfrwt beam="1">0</pdfrwt>
<pdfrwt beam="2">0</pdfrwt>
<totfact> 0.19515644E+12</totfact>
</mgrwt>
</event>
<event>
 4    1  0.1699693E+006  0.2829514E+01  0.7546771E-02  0.2578964E+00
         22   -1    0    0    0    0  0.00000000000E+00  0.00000000000E+00  0.10738876464E+02  0.10738876464E+02  0.00000000000E+00 0.  1.
         22   -1    0    0    0    0 -0.00000000000E+00 -0.00000000000E+00 -0.18023681738E+01  0.18023681738E+01  0.00000000000E+00 0. -1.
          4    1    1    2  501    0 -0.11675467354E+01 -0.22427850649E+01  0.92699341901E+01  0.96921530176E+01  0.12700000000E+01 0.  1.
         -4    1    1    2    0  501  0.11675467354E+01  0.22427850649E+01 -0.33342590037E+00  0.28490916198E+01  0.12700000000E+01 0. -1.
<mgrwt>
<rscale>  0 0.28295141E+01</rscale>
<asrwt>0</asrwt>
<pdfrwt beam="1">0</pdfrwt>
<pdfrwt beam="2">0</pdfrwt>
<totfact> 0.73997668E+11</totfact>
</mgrwt>
</event>
<event>
 4    1  0.1699693E+006  0.2050366E+01  0.7546771E-02  0.2947537E+00
         22   -1    0    0    0    0  0.00000000000E+00  0.00000000000E+00  0.44496337214E+02  0.44496337214E+02  0.00000000000E+00 0.  1.
         22   -1    0    0    0    0 -0.00000000000E+00 -0.00000000000E+00 -0.11046445235E+00  0.11046445235E+00  0.00000000000E+00 0. -1.
          4    1    1    2  501    0 -0.86213820342E+00  0.13593452142E+01  0.13708706304E+02  0.13861191515E+02  0.12700000000E+01 0.  1.
         -4    1    1    2    0  501  0.86213820342E+00 -0.13593452142E+01  0.30677166458E+02  0.30745610151E+02  0.12700000000E+01 0.  1.
<mgrwt>
<rscale>  0 0.20503662E+01</rscale>
<asrwt>0</asrwt>
<pdfrwt beam="1">0</pdfrwt>
<pdfrwt beam="2">0</pdfrwt>
<totfact> 0.29036637E+12</totfact>
</mgrwt>
</event>
<event>
 4    1  0.1699693E+006  0.3190117E+01  0.7546771E-02  0.2465313E+00
         22   -1    0    0    0    0  0.00000000000E+00  0.00000000000E+00  0.13748128402E+02  0.13748128402E+02  0.00000000000E+00 0. -1.
         22   -1    0    0    0    0 -0.00000000000E+00 -0.00000000000E+00 -0.11728742177E+01  0.11728742177E+01  0.00000000000E+00 0.  1.
          4    1    1    2  501    0  0.17365698883E+01  0.23554770808E+01  0.10818743099E+02  0.11279275221E+02  0.12700000000E+01 0. -1.
         -4    1    1    2    0  501 -0.17365698883E+01 -0.23554770808E+01  0.17565110844E+01  0.36417273984E+01  0.12700000000E+01 0.  1.
<mgrwt>
<rscale>  0 0.31901171E+01</rscale>
<asrwt>0</asrwt>
<pdfrwt beam="1">0</pdfrwt>
<pdfrwt beam="2">0</pdfrwt>
<totfact> 0.89724740E+11</totfact>
</mgrwt>
</event>
<event>
 4    1  0.1699693E+006  0.2017222E+01  0.7546771E-02  0.2969197E+00
         22   -1    0    0    0    0  0.00000000000E+00  0.00000000000E+00  0.36210086633E+00  0.36210086633E+00  0.00000000000E+00 0.  1.
         22   -1    0    0    0    0 -0.00000000000E+00 -0.00000000000E+00 -0.11327206481E+02  0.11327206481E+02  0.00000000000E+00 0. -1.
          4    1    1    2  501    0 -0.39503206414E+00 -0.15166518640E+01 -0.49630245367E+01  0.53573123635E+01  0.12700000000E+01 0.  1.
         -4    1    1    2    0  501  0.39503206414E+00  0.15166518640E+01 -0.60020810780E+01  0.63319949838E+01  0.12700000000E+01 0. -1.
<mgrwt>
<rscale>  0 0.20172217E+01</rscale>
<asrwt>0</asrwt>
<pdfrwt beam="1">0</pdfrwt>
<pdfrwt beam="2">0</pdfrwt>
<totfact> 0.43098708E+12</totfact>
</mgrwt>
</event>
<event>
 4    1  0.1699693E+006  0.2218235E+01  0.7546771E-02  0.2847498E+00
         22   -1    0    0    0    0  0.00000000000E+00  0.00000000000E+00  0.69531383592E+01  0.69531383592E+01  0.00000000000E+00 0. -1.
         22   -1    0    0    0    0 -0.00000000000E+00 -0.00000000000E+00 -0.16987856355E+01  0.16987856355E+01  0.00000000000E+00 0.  1.
          4    1    1    2  501    0 -0.61393451009E-01  0.18176625199E+01  0.59314374194E+01  0.63326547397E+01  0.12700000000E+01 0. -1.
         -4    1    1    2    0  501  0.61393451009E-01 -0.18176625199E+01 -0.67708469571E+00  0.23192692550E+01  0.12700000000E+01 0.  1.
<mgrwt>
<rscale>  0 0.22182349E+01</rscale>
<asrwt>0</asrwt>
<pdfrwt beam="1">0</pdfrwt>
<pdfrwt beam="2">0</pdfrwt>
<totfact> 0.13374877E+12</totfact>
</mgrwt>
</event>
<event>
 4    1  0.1699693E+006  0.2382303E+01  0.7546771E-02  0.2762808E+00
         22   -1    0    0    0    0  0.00000000000E+00  0.00000000000E+00  0.77257840592E+00  0.77257840592E+00  0.00000000000E+00 0.  1.
         22   -1    0    0    0    0 -0.00000000000E+00 -0.00000000000E+00 -0.84082162064E+01  0.84082162064E+01  0.00000000000E+00 0. -1.
          4    1    1    2  501    0  0.16011323245E+01  0.12242727613E+01 -0.21862598148E+01  0.32334347825E+01  0.12700000000E+01 0.  1.
         -4    1    1    2    0  501 -0.16011323245E+01 -0.12242727613E+01 -0.54493779857E+01  0.59473598299E+01  0.12700000000E+01 0. -1.
<mgrwt>
<rscale>  0 0.23823032E+01</rscale>
<asrwt>0</asrwt>
<pdfrwt beam="1">0</pdfrwt>
<pdfrwt beam="2">0</pdfrwt>
<totfact> 0.26247488E+12</totfact>
</mgrwt>
</event>
<event>
 4    1  0.1699693E+006  0.3065997E+01  0.7546771E-02  0.2501727E+00
         22   -1    0    0    0    0  0.00000000000E+00  0.00000000000E+00  0.25612929800E+01  0.25612929800E+01  0.00000000000E+00 0.  1.
         22   -1    0    0    0    0 -0.00000000000E+00 -0.00000000000E+00 -0.39698261915E+01  0.39698261915E+01  0.00000000000E+00 0. -1.
          4    1    1    2  501    0  0.22797272802E+01  0.16094352317E+01  0.19294626536E+00  0.30720622550E+01  0.12700000000E+01 0.  1.
         -4    1    1    2    0  501 -0.22797272802E+01 -0.16094352317E+01 -0.16014794768E+01  0.34590569165E+01  0.12700000000E+01 0. -1.
<mgrwt>
<rscale>  0 0.30659971E+01</rscale>
<asrwt>0</asrwt>
<pdfrwt beam="1">0</pdfrwt>
<pdfrwt beam="2">0</pdfrwt>
<totfact> 0.16157354E+12</totfact>
</mgrwt>
</event>
<event>
 4    1  0.1699693E+006  0.2546257E+01  0.7546771E-02  0.2688481E+00
         22   -1    0    0    0    0  0.00000000000E+00  0.00000000000E+00  0.13069108190E+00  0.13069108190E+00  0.00000000000E+00 0. -1.
         22   -1    0    0    0    0 -0.00000000000E+00 -0.00000000000E+00 -0.51695316449E+02  0.51695316449E+02  0.00000000000E+00 0. -1.
          4    1    1    2  501    0  0.20967776177E+01 -0.68851274175E+00 -0.20576310864E+02  0.20733258185E+02  0.12700000000E+01 0. -1.
         -4    1    1    2    0  501 -0.20967776177E+01  0.68851274175E+00 -0.30988314503E+02  0.31092749347E+02  0.12700000000E+01 0. -1.
<mgrwt>
<rscale>  0 0.25462573E+01</rscale>
<asrwt>0</asrwt>
<pdfrwt beam="1">0</pdfrwt>
<pdfrwt beam="2">0</pdfrwt>
<totfact> 0.19786423E+12</totfact>
</mgrwt>
</event>
<event>
 4    1  0.1699693E+006  0.3316751E+01  0.7546771E-02  0.2430662E+00
         22   -1    0    0    0    0  0.00000000000E+00  0.00000000000E+00  0.20583975527E+01  0.20583975527E+01  0.00000000000E+00 0. -1.
         22   -1    0    0    0    0 -0.00000000000E+00 -0.00000000000E+00 -0.61172407981E+01  0.61172407981E+01  0.00000000000E+00 0.  1.
          4    1    1    2  501    0 -0.85953832788E+00 -0.29409410635E+01 -0.57641692915E+00  0.33664665381E+01  0.12700000000E+01 0.  1.
         -4    1    1    2    0  501  0.85953832788E+00  0.29409410635E+01 -0.34824263162E+01  0.48091718127E+01  0.12700000000E+01 0.  1.
<mgrwt>
<rscale>  0 0.33167515E+01</rscale>
<asrwt>0</asrwt>
<pdfrwt beam="1">0</pdfrwt>
<pdfrwt beam="2">0</pdfrwt>
<totfact> 0.12483029E+12</totfact>
</mgrwt>
</event>
<event>
 4    1  0.1699693E+006  0.2706147E+01  0.7546771E-02  0.2624079E+00
         22   -1    0    0    0    0  0.00000000000E+00  0.00000000000E+00  0.23606031531E+02  0.23606031531E+02  0.00000000000E+00 0.  1.
         22   -1    0    0    0    0 -0.00000000000E+00 -0.00000000000E+00 -0.31294380378E+00  0.31294380378E+00  0.00000000000E+00 0. -1.
          4    1    1    2  501    0  0.22996111335E+01 -0.64970786899E+00  0.12760831302E+02  0.13044617556E+02  0.12700000000E+01 0.  1.
         -4    1    1    2    0  501 -0.22996111335E+01  0.64970786899E+00  0.10532256425E+02  0.10874357778E+02  0.12700000000E+01 0. -1.
<mgrwt>
<rscale>  0 0.27061470E+01</rscale>
<asrwt>0</asrwt>
<pdfrwt beam="1">0</pdfrwt>
<pdfrwt beam="2">0</pdfrwt>
<totfact> 0.20490082E+12</totfact>
</mgrwt>
</event>
<event>
 4    1  0.1699693E+006  0.2421254E+01  0.7546771E-02  0.2744299E+00
         22   -1    0    0    0    0  0.00000000000E+00  0.00000000000E+00  0.83759500878E+00  0.83759500878E+00  0.00000000000E+00 0. -1.
         22   -1    0    0    0    0 -0.00000000000E+00 -0.00000000000E+00 -0.82259897594E+01  0.82259897594E+01  0.00000000000E+00 0.  1.
          4    1    1    2  501    0  0.20383118791E+01  0.30798282152E+00 -0.19440825596E+01  0.31051450422E+01  0.12700000000E+01 0. -1.
         -4    1    1    2    0  501 -0.20383118791E+01 -0.30798282152E+00 -0.54443121910E+01  0.59584397259E+01  0.12700000000E+01 0. -1.
<mgrwt>
<rscale>  0 0.24212535E+01</rscale>
<asrwt>0</asrwt>
<pdfrwt beam="1">0</pdfrwt>
<pdfrwt beam="2">0</pdfrwt>
<totfact> 0.24581774E+12</totfact>
</mgrwt>
</event>
<event>
 4    1  0.1699693E+006  0.2222355E+01  0.7546771E-02  0.2845226E+00
         22   -1    0    0    0    0  0.00000000000E+00  0.00000000000E+00  0.34845635838E+01  0.34845635838E+01  0.00000000000E+00 0. -1.
         22   -1    0    0    0    0 -0.00000000000E+00 -0.00000000000E+00 -0.16179247392E+01  0.16179247392E+01  0.00000000000E+00 0. -1.
          4    1    1    2  501    0  0.49681751473E+00 -0.17547459079E+01  0.35050379578E-01  0.22226311825E+01  0.12700000000E+01 0. -1.
         -4    1    1    2    0  501 -0.49681751473E+00  0.17547459079E+01  0.18315884650E+01  0.28798571405E+01  0.12700000000E+01 0. -1.
<mgrwt>
<rscale>  0 0.22223548E+01</rscale>
<asrwt>0</asrwt>
<pdfrwt beam="1">0</pdfrwt>
<pdfrwt beam="2">0</pdfrwt>
<totfact> 0.32052708E+12</totfact>
</mgrwt>
</event>
<event>
 4    1  0.1699693E+006  0.3232114E+01  0.7546771E-02  0.2453556E+00
         22   -1    0    0    0    0  0.00000000000E+00  0.00000000000E+00  0.28208816914E+01  0.28208816914E+01  0.00000000000E+00 0.  1.
         22   -1    0    0    0    0 -0.00000000000E+00 -0.00000000000E+00 -0.48471512869E+01  0.48471512869E+01  0.00000000000E+00 0. -1.
          4    1    1    2  501    0 -0.11650477559E+01  0.27342872527E+01  0.84936407046E+00  0.33418531353E+01  0.12700000000E+01 0.  1.
         -4    1    1    2    0  501  0.11650477559E+01 -0.27342872527E+01 -0.28756336659E+01  0.43261798430E+01  0.12700000000E+01 0. -1.
<mgrwt>
<rscale>  0 0.32321143E+01</rscale>
<asrwt>0</asrwt>
<pdfrwt beam="1">0</pdfrwt>
<pdfrwt beam="2">0</pdfrwt>
<totfact> 0.11408403E+12</totfact>
</mgrwt>
</event>
<event>
 4    1  0.1699693E+006  0.2408207E+01  0.7546771E-02  0.2750436E+00
         22   -1    0    0    0    0  0.00000000000E+00  0.00000000000E+00  0.14390542999E+01  0.14390542999E+01  0.00000000000E+00 0. -1.
         22   -1    0    0    0    0 -0.00000000000E+00 -0.00000000000E+00 -0.40637447955E+01  0.40637447955E+01  0.00000000000E+00 0.  1.
          4    1    1    2  501    0  0.20211840776E+01  0.31839654738E+00 -0.15628805474E+01  0.28708982988E+01  0.12700000000E+01 0.  1.
         -4    1    1    2    0  501 -0.20211840776E+01 -0.31839654738E+00 -0.10618099483E+01  0.26319007966E+01  0.12700000000E+01 0. -1.
<mgrwt>
<rscale>  0 0.24082071E+01</rscale>
<asrwt>0</asrwt>
<pdfrwt beam="1">0</pdfrwt>
<pdfrwt beam="2">0</pdfrwt>
<totfact> 0.30618635E+12</totfact>
</mgrwt>
</event>
<event>
 4    1  0.1699693E+006  0.3761311E+01  0.7546771E-02  0.2325382E+00
         22   -1    0    0    0    0  0.00000000000E+00  0.00000000000E+00  0.27310132369E+01  0.27310132369E+01  0.00000000000E+00 0. -1.
         22   -1    0    0    0    0 -0.00000000000E+00 -0.00000000000E+00 -0.77950187590E+01  0.77950187590E+01  0.00000000000E+00 0.  1.
          4    1    1    2  501    0 -0.21976786713E+01 -0.27757467557E+01  0.51616447070E+00  0.37965625709E+01  0.12700000000E+01 0. -1.
         -4    1    1    2    0  501  0.21976786713E+01  0.27757467557E+01 -0.55801699928E+01  0.67294694251E+01  0.12700000000E+01 0.  1.
<mgrwt>
<rscale>  0 0.37613112E+01</rscale>
<asrwt>0</asrwt>
<pdfrwt beam="1">0</pdfrwt>
<pdfrwt beam="2">0</pdfrwt>
<totfact> 0.67266668E+11</totfact>
</mgrwt>
</event>
<event>
 4    1  0.1699693E+006  0.2060063E+01  0.7546771E-02  0.2941328E+00
         22   -1    0    0    0    0  0.00000000000E+00  0.00000000000E+00  0.28152473776E+02  0.28152473776E+02  0.00000000000E+00 0. -1.
         22   -1    0    0    0    0 -0.00000000000E+00 -0.00000000000E+00 -0.59611238229E+00  0.59611238229E+00  0.00000000000E+00 0.  1.
          4    1    1    2  501    0 -0.83873707537E+00  0.13883376306E+01  0.26202749920E+02  0.26283606385E+02  0.12700000000E+01 0. -1.
         -4    1    1    2    0  501  0.83873707537E+00 -0.13883376306E+01  0.13536114736E+01  0.24649797727E+01  0.12700000000E+01 0.  1.
<mgrwt>
<rscale>  0 0.20600634E+01</rscale>
<asrwt>0</asrwt>
<pdfrwt beam="1">0</pdfrwt>
<pdfrwt beam="2">0</pdfrwt>
<totfact> 0.79335522E+11</totfact>
</mgrwt>
</event>
<event>
 4    1  0.1699693E+006  0.2561797E+01  0.7546771E-02  0.2681897E+00
         22   -1    0    0    0    0  0.00000000000E+00  0.00000000000E+00  0.26356088600E+00  0.26356088600E+00  0.00000000000E+00 0. -1.
         22   -1    0    0    0    0 -0.00000000000E+00 -0.00000000000E+00 -0.24913619905E+02  0.24913619905E+02  0.00000000000E+00 0.  1.
          4    1    1    2  501    0 -0.19175736298E+01  0.11281914232E+01 -0.12036423965E+02  0.12306027238E+02  0.12700000000E+01 0.  1.
         -4    1    1    2    0  501  0.19175736298E+01 -0.11281914232E+01 -0.12613635054E+02  0.12871153553E+02  0.12700000000E+01 0. -1.
<mgrwt>
<rscale>  0 0.25617971E+01</rscale>
<asrwt>0</asrwt>
<pdfrwt beam="1">0</pdfrwt>
<pdfrwt beam="2">0</pdfrwt>
<totfact> 0.23207861E+12</totfact>
</mgrwt>
</event>
<event>
 4    1  0.1699693E+006  0.2223603E+01  0.7546771E-02  0.2844539E+00
         22   -1    0    0    0    0  0.00000000000E+00  0.00000000000E+00  0.31166536156E+01  0.31166536156E+01  0.00000000000E+00 0. -1.
         22   -1    0    0    0    0 -0.00000000000E+00 -0.00000000000E+00 -0.17748652398E+01  0.17748652398E+01  0.00000000000E+00 0.  1.
          4    1    1    2  501    0 -0.18177522743E+01 -0.16518815331E+00  0.14677702586E+01  0.26643498247E+01  0.12700000000E+01 0. -1.
         -4    1    1    2    0  501  0.18177522743E+01  0.16518815331E+00 -0.12598188275E+00  0.22271690307E+01  0.12700000000E+01 0.  1.
<mgrwt>
<rscale>  0 0.22236030E+01</rscale>
<asrwt>0</asrwt>
<pdfrwt beam="1">0</pdfrwt>
<pdfrwt beam="2">0</pdfrwt>
<totfact> 0.32826869E+12</totfact>
</mgrwt>
</event>
<event>
 4    1  0.1699693E+006  0.2857063E+01  0.7546771E-02  0.2569375E+00
         22   -1    0    0    0    0  0.00000000000E+00  0.00000000000E+00  0.11886950476E+01  0.11886950476E+01  0.00000000000E+00 0. -1.
         22   -1    0    0    0    0 -0.00000000000E+00 -0.00000000000E+00 -0.19467897151E+02  0.19467897151E+02  0.00000000000E+00 0.  1.
          4    1    1    2  501    0  0.20938269792E+01  0.14716643185E+01 -0.83020737146E+00  0.29752397492E+01  0.12700000000E+01 0. -1.
         -4    1    1    2    0  501 -0.20938269792E+01 -0.14716643185E+01 -0.17448994732E+02  0.17681352449E+02  0.12700000000E+01 0. -1.
<mgrwt>
<rscale>  0 0.28570627E+01</rscale>
<asrwt>0</asrwt>
<pdfrwt beam="1">0</pdfrwt>
<pdfrwt beam="2">0</pdfrwt>
<totfact> 0.57490858E+11</totfact>
</mgrwt>
</event>
<event>
 4    1  0.1699693E+006  0.3584423E+01  0.7546771E-02  0.2364549E+00
         22   -1    0    0    0    0  0.00000000000E+00  0.00000000000E+00  0.51751927783E+02  0.51751927783E+02  0.00000000000E+00 0.  1.
         22   -1    0    0    0    0 -0.00000000000E+00 -0.00000000000E+00 -0.20965755391E+01  0.20965755391E+01  0.00000000000E+00 0. -1.
          4    1    1    2  501    0 -0.52664145239E+00 -0.33102621206E+01  0.50107619342E+02  0.50235660667E+02  0.12700000000E+01 0.  1.
         -4    1    1    2    0  501  0.52664145239E+00  0.33102621206E+01 -0.45226709765E+00  0.36128426556E+01  0.12700000000E+01 0. -1.
<mgrwt>
<rscale>  0 0.35844228E+01</rscale>
<asrwt>0</asrwt>
<pdfrwt beam="1">0</pdfrwt>
<pdfrwt beam="2">0</pdfrwt>
<totfact> 0.85517811E+10</totfact>
</mgrwt>
</event>
<event>
 4    1  0.1699693E+006  0.2406379E+01  0.7546771E-02  0.2751301E+00
         22   -1    0    0    0    0  0.00000000000E+00  0.00000000000E+00  0.78713800744E+00  0.78713800744E+00  0.00000000000E+00 0.  1.
         22   -1    0    0    0    0 -0.00000000000E+00 -0.00000000000E+00 -0.73679805638E+01  0.73679805638E+01  0.00000000000E+00 0. -1.
          4    1    1    2  501    0 -0.16089361693E+01 -0.12605890550E+01 -0.31301756477E+01  0.39482477059E+01  0.12700000000E+01 0. -1.
         -4    1    1    2    0  501  0.16089361693E+01  0.12605890550E+01 -0.34506669087E+01  0.42068708653E+01  0.12700000000E+01 0.  1.
<mgrwt>
<rscale>  0 0.24063791E+01</rscale>
<asrwt>0</asrwt>
<pdfrwt beam="1">0</pdfrwt>
<pdfrwt beam="2">0</pdfrwt>
<totfact> 0.30112011E+12</totfact>
</mgrwt>
</event>
<event>
 4    1  0.1699693E+006  0.2036699E+01  0.7546771E-02  0.2956385E+00
         22   -1    0    0    0    0  0.00000000000E+00  0.00000000000E+00  0.52546800232E+00  0.52546800232E+00  0.00000000000E+00 0. -1.
         22   -1    0    0    0    0 -0.00000000000E+00 -0.00000000000E+00 -0.10948561107E+02  0.10948561107E+02  0.00000000000E+00 0. -1.
          4    1    1    2  501    0  0.70742266140E+00 -0.14264621225E+01 -0.21813641745E+01  0.29843744187E+01  0.12700000000E+01 0. -1.
         -4    1    1    2    0  501 -0.70742266140E+00  0.14264621225E+01 -0.82417289305E+01  0.84896546910E+01  0.12700000000E+01 0. -1.
<mgrwt>
<rscale>  0 0.20366986E+01</rscale>
<asrwt>0</asrwt>
<pdfrwt beam="1">0</pdfrwt>
<pdfrwt beam="2">0</pdfrwt>
<totfact> 0.29522999E+12</totfact>
</mgrwt>
</event>
<event>
 4    1  0.1699693E+006  0.2575796E+01  0.7546771E-02  0.2676029E+00
         22   -1    0    0    0    0  0.00000000000E+00  0.00000000000E+00  0.74511844148E-01  0.74511844148E-01  0.00000000000E+00 0.  1.
         22   -1    0    0    0    0 -0.00000000000E+00 -0.00000000000E+00 -0.92167028280E+02  0.92167028280E+02  0.00000000000E+00 0.  1.
          4    1    1    2  501    0  0.16571118548E+01 -0.15085777660E+01 -0.37554537981E+02  0.37642768888E+02  0.12700000000E+01 0.  1.
         -4    1    1    2    0  501 -0.16571118548E+01  0.15085777660E+01 -0.54537978455E+02  0.54598771236E+02  0.12700000000E+01 0.  1.
<mgrwt>
<rscale>  0 0.25757963E+01</rscale>
<asrwt>0</asrwt>
<pdfrwt beam="1">0</pdfrwt>
<pdfrwt beam="2">0</pdfrwt>
<totfact> 0.16822109E+12</totfact>
</mgrwt>
</event>
<event>
 4    1  0.1699693E+006  0.2065653E+01  0.7546771E-02  0.2937776E+00
         22   -1    0    0    0    0  0.00000000000E+00  0.00000000000E+00  0.37298994967E+01  0.37298994967E+01  0.00000000000E+00 0.  1.
         22   -1    0    0    0    0 -0.00000000000E+00 -0.00000000000E+00 -0.20603526553E+01  0.20603526553E+01  0.00000000000E+00 0. -1.
          4    1    1    2  501    0 -0.10100697064E+01  0.12781942950E+01  0.27655558144E+01  0.34518430483E+01  0.12700000000E+01 0.  1.
         -4    1    1    2    0  501  0.10100697064E+01 -0.12781942950E+01 -0.10960089730E+01  0.23384091037E+01  0.12700000000E+01 0. -1.
<mgrwt>
<rscale>  0 0.20656528E+01</rscale>
<asrwt>0</asrwt>
<pdfrwt beam="1">0</pdfrwt>
<pdfrwt beam="2">0</pdfrwt>
<totfact> 0.22381501E+12</totfact>
</mgrwt>
</event>
<event>
 4    1  0.1699693E+006  0.3272949E+01  0.7546771E-02  0.2442380E+00
         22   -1    0    0    0    0  0.00000000000E+00  0.00000000000E+00  0.39082017451E+01  0.39082017451E+01  0.00000000000E+00 0.  1.
         22   -1    0    0    0    0 -0.00000000000E+00 -0.00000000000E+00 -0.35149968172E+01  0.35149968172E+01  0.00000000000E+00 0.  1.
          4    1    1    2  501    0  0.24097461734E+01  0.18145020011E+01  0.19383355995E+01  0.38038584396E+01  0.12700000000E+01 0.  1.
         -4    1    1    2    0  501 -0.24097461734E+01 -0.18145020011E+01 -0.15451306716E+01  0.36193401228E+01  0.12700000000E+01 0.  1.
<mgrwt>
<rscale>  0 0.32729488E+01</rscale>
<asrwt>0</asrwt>
<pdfrwt beam="1">0</pdfrwt>
<pdfrwt beam="2">0</pdfrwt>
<totfact> 0.11370288E+12</totfact>
</mgrwt>
</event>
<event>
 4    1  0.1699693E+006  0.2779457E+01  0.7546771E-02  0.2596830E+00
         22   -1    0    0    0    0  0.00000000000E+00  0.00000000000E+00  0.11740221209E+01  0.11740221209E+01  0.00000000000E+00 0.  1.
         22   -1    0    0    0    0 -0.00000000000E+00 -0.00000000000E+00 -0.66412130050E+01  0.66412130050E+01  0.00000000000E+00 0.  1.
          4    1    1    2  501    0  0.12812635123E+01  0.21144374654E+01 -0.23592677331E+01  0.36457545473E+01  0.12700000000E+01 0.  1.
         -4    1    1    2    0  501 -0.12812635123E+01 -0.21144374654E+01 -0.31079231510E+01  0.41694805786E+01  0.12700000000E+01 0.  1.
<mgrwt>
<rscale>  0 0.27794571E+01</rscale>
<asrwt>0</asrwt>
<pdfrwt beam="1">0</pdfrwt>
<pdfrwt beam="2">0</pdfrwt>
<totfact> 0.21605002E+12</totfact>
</mgrwt>
</event>
<event>
 4    1  0.1699693E+006  0.3276232E+01  0.7546771E-02  0.2441492E+00
         22   -1    0    0    0    0  0.00000000000E+00  0.00000000000E+00  0.93438764613E+00  0.93438764613E+00  0.00000000000E+00 0. -1.
         22   -1    0    0    0    0 -0.00000000000E+00 -0.00000000000E+00 -0.12263414461E+02  0.12263414461E+02  0.00000000000E+00 0.  1.
          4    1    1    2  501    0 -0.16142285758E+01  0.25524620367E+01 -0.40045545757E+01  0.51739881807E+01  0.12700000000E+01 0. -1.
         -4    1    1    2    0  501  0.16142285758E+01 -0.25524620367E+01 -0.73244722388E+01  0.80238139261E+01  0.12700000000E+01 0.  1.
<mgrwt>
<rscale>  0 0.32762320E+01</rscale>
<asrwt>0</asrwt>
<pdfrwt beam="1">0</pdfrwt>
<pdfrwt beam="2">0</pdfrwt>
<totfact> 0.13379950E+12</totfact>
</mgrwt>
</event>
<event>
 4    1  0.1699693E+006  0.2343790E+01  0.7546771E-02  0.2781678E+00
         22   -1    0    0    0    0  0.00000000000E+00  0.00000000000E+00  0.15002079695E+00  0.15002079695E+00  0.00000000000E+00 0. -1.
         22   -1    0    0    0    0 -0.00000000000E+00 -0.00000000000E+00 -0.45629809060E+02  0.45629809060E+02  0.00000000000E+00 0.  1.
          4    1    1    2  501    0 -0.18796767803E+01  0.58929502044E+00 -0.12567030815E+02  0.12783724689E+02  0.12700000000E+01 0. -1.
         -4    1    1    2    0  501  0.18796767803E+01 -0.58929502044E+00 -0.32912757448E+02  0.32996105168E+02  0.12700000000E+01 0.  1.
<mgrwt>
<rscale>  0 0.23437904E+01</rscale>
<asrwt>0</asrwt>
<pdfrwt beam="1">0</pdfrwt>
<pdfrwt beam="2">0</pdfrwt>
<totfact> 0.20004837E+12</totfact>
</mgrwt>
</event>
<event>
 4    1  0.1699693E+006  0.2321646E+01  0.7546771E-02  0.2792796E+00
         22   -1    0    0    0    0  0.00000000000E+00  0.00000000000E+00  0.57274845925E+01  0.57274845925E+01  0.00000000000E+00 0.  1.
         22   -1    0    0    0    0 -0.00000000000E+00 -0.00000000000E+00 -0.11173926378E+01  0.11173926378E+01  0.00000000000E+00 0. -1.
          4    1    1    2  501    0  0.15129085746E+01  0.12199384416E+01  0.36645170775E+01  0.43380557359E+01  0.12700000000E+01 0.  1.
         -4    1    1    2    0  501 -0.15129085746E+01 -0.12199384416E+01  0.94557487717E+00  0.25068214944E+01  0.12700000000E+01 0. -1.
<mgrwt>
<rscale>  0 0.23216464E+01</rscale>
<asrwt>0</asrwt>
<pdfrwt beam="1">0</pdfrwt>
<pdfrwt beam="2">0</pdfrwt>
<totfact> 0.27271285E+12</totfact>
</mgrwt>
</event>
<event>
 4    1  0.1699693E+006  0.2347523E+01  0.7546771E-02  0.2779824E+00
         22   -1    0    0    0    0  0.00000000000E+00  0.00000000000E+00  0.85593673851E+02  0.85593673851E+02  0.00000000000E+00 0.  1.
         22   -1    0    0    0    0 -0.00000000000E+00 -0.00000000000E+00 -0.89878002096E-01  0.89878002096E-01  0.00000000000E+00 0. -1.
          4    1    1    2  501    0 -0.11859615706E+01  0.15784350773E+01  0.65568967375E+02  0.65610977319E+02  0.12700000000E+01 0.  1.
         -4    1    1    2    0  501  0.11859615706E+01 -0.15784350773E+01  0.19934828474E+02  0.20072574534E+02  0.12700000000E+01 0. -1.
<mgrwt>
<rscale>  0 0.23475226E+01</rscale>
<asrwt>0</asrwt>
<pdfrwt beam="1">0</pdfrwt>
<pdfrwt beam="2">0</pdfrwt>
<totfact> 0.15155169E+12</totfact>
</mgrwt>
</event>
<event>
 4    1  0.1699693E+006  0.3713853E+01  0.7546771E-02  0.2335574E+00
         22   -1    0    0    0    0  0.00000000000E+00  0.00000000000E+00  0.10126245756E+01  0.10126245756E+01  0.00000000000E+00 0. -1.
         22   -1    0    0    0    0 -0.00000000000E+00 -0.00000000000E+00 -0.15264129914E+02  0.15264129914E+02  0.00000000000E+00 0.  1.
          4    1    1    2  501    0  0.16731999058E+01 -0.30627122784E+01 -0.44553853294E+01  0.58002726538E+01  0.12700000000E+01 0. -1.
         -4    1    1    2    0  501 -0.16731999058E+01  0.30627122784E+01 -0.97961200093E+01  0.10476481836E+02  0.12700000000E+01 0.  1.
<mgrwt>
<rscale>  0 0.37138530E+01</rscale>
<asrwt>0</asrwt>
<pdfrwt beam="1">0</pdfrwt>
<pdfrwt beam="2">0</pdfrwt>
<totfact> 0.93339355E+11</totfact>
</mgrwt>
</event>
<event>
 4    1  0.1699693E+006  0.4466191E+01  0.7546771E-02  0.2196154E+00
         22   -1    0    0    0    0  0.00000000000E+00  0.00000000000E+00  0.43796962296E+01  0.43796962296E+01  0.00000000000E+00 0.  1.
         22   -1    0    0    0    0 -0.00000000000E+00 -0.00000000000E+00 -0.45683723298E+01  0.45683723298E+01  0.00000000000E+00 0. -1.
          4    1    1    2  501    0  0.36631887153E+01 -0.22169817760E+01  0.15315041598E+00  0.44688158174E+01  0.12700000000E+01 0.  1.
         -4    1    1    2    0  501 -0.36631887153E+01  0.22169817760E+01 -0.34182651618E+00  0.44792527420E+01  0.12700000000E+01 0. -1.
<mgrwt>
<rscale>  0 0.44661907E+01</rscale>
<asrwt>0</asrwt>
<pdfrwt beam="1">0</pdfrwt>
<pdfrwt beam="2">0</pdfrwt>
<totfact> 0.73037240E+11</totfact>
</mgrwt>
</event>
<event>
 4    1  0.1699693E+006  0.2251045E+01  0.7546771E-02  0.2829624E+00
         22   -1    0    0    0    0  0.00000000000E+00  0.00000000000E+00  0.16046172183E+01  0.16046172183E+01  0.00000000000E+00 0.  1.
         22   -1    0    0    0    0 -0.00000000000E+00 -0.00000000000E+00 -0.41653839299E+01  0.41653839299E+01  0.00000000000E+00 0. -1.
          4    1    1    2  501    0 -0.72266422550E+00 -0.17123258442E+01  0.13847740213E+00  0.22553002839E+01  0.12700000000E+01 0.  1.
         -4    1    1    2    0  501  0.72266422550E+00  0.17123258442E+01 -0.26992441138E+01  0.35147008643E+01  0.12700000000E+01 0. -1.
<mgrwt>
<rscale>  0 0.22510450E+01</rscale>
<asrwt>0</asrwt>
<pdfrwt beam="1">0</pdfrwt>
<pdfrwt beam="2">0</pdfrwt>
<totfact> 0.26236755E+12</totfact>
</mgrwt>
</event>
<event>
 4    1  0.1699693E+006  0.2123760E+01  0.7546771E-02  0.2901919E+00
         22   -1    0    0    0    0  0.00000000000E+00  0.00000000000E+00  0.29247610334E+02  0.29247610334E+02  0.00000000000E+00 0. -1.
         22   -1    0    0    0    0 -0.00000000000E+00 -0.00000000000E+00 -0.27975459079E+00  0.27975459079E+00  0.00000000000E+00 0. -1.
          4    1    1    2  501    0 -0.87884189975E+00  0.14577703057E+01  0.24374015914E+02  0.24466364853E+02  0.12700000000E+01 0. -1.
         -4    1    1    2    0  501  0.87884189975E+00 -0.14577703057E+01  0.45938398290E+01  0.50610000715E+01  0.12700000000E+01 0. -1.
<mgrwt>
<rscale>  0 0.21237602E+01</rscale>
<asrwt>0</asrwt>
<pdfrwt beam="1">0</pdfrwt>
<pdfrwt beam="2">0</pdfrwt>
<totfact> 0.17716295E+12</totfact>
</mgrwt>
</event>
<event>
 4    1  0.1699693E+006  0.2161937E+01  0.7546771E-02  0.2879377E+00
         22   -1    0    0    0    0  0.00000000000E+00  0.00000000000E+00  0.72076703437E+00  0.72076703437E+00  0.00000000000E+00 0.  1.
         22   -1    0    0    0    0 -0.00000000000E+00 -0.00000000000E+00 -0.71010063930E+01  0.71010063930E+01  0.00000000000E+00 0. -1.
          4    1    1    2  501    0 -0.14360176886E+01 -0.99946187596E+00 -0.20379741576E+01  0.29710788462E+01  0.12700000000E+01 0.  1.
         -4    1    1    2    0  501  0.14360176886E+01  0.99946187596E+00 -0.43422652011E+01  0.48506945812E+01  0.12700000000E+01 0. -1.
<mgrwt>
<rscale>  0 0.21619368E+01</rscale>
<asrwt>0</asrwt>
<pdfrwt beam="1">0</pdfrwt>
<pdfrwt beam="2">0</pdfrwt>
<totfact> 0.34785054E+12</totfact>
</mgrwt>
</event>
<event>
 4    1  0.1699693E+006  0.2235614E+01  0.7546771E-02  0.2837968E+00
         22   -1    0    0    0    0  0.00000000000E+00  0.00000000000E+00  0.63788797419E+00  0.63788797419E+00  0.00000000000E+00 0.  1.
         22   -1    0    0    0    0 -0.00000000000E+00 -0.00000000000E+00 -0.78965010169E+01  0.78965010169E+01  0.00000000000E+00 0.  1.
          4    1    1    2  501    0 -0.10968576126E+01  0.14771505695E+01 -0.32532862329E+01  0.39473841643E+01  0.12700000000E+01 0.  1.
         -4    1    1    2    0  501  0.10968576126E+01 -0.14771505695E+01 -0.40053268098E+01  0.45870048268E+01  0.12700000000E+01 0.  1.
<mgrwt>
<rscale>  0 0.22356141E+01</rscale>
<asrwt>0</asrwt>
<pdfrwt beam="1">0</pdfrwt>
<pdfrwt beam="2">0</pdfrwt>
<totfact> 0.35180785E+12</totfact>
</mgrwt>
</event>
<event>
 4    1  0.1699693E+006  0.4423362E+01  0.7546771E-02  0.2203003E+00
         22   -1    0    0    0    0  0.00000000000E+00  0.00000000000E+00  0.25270103696E+01  0.25270103696E+01  0.00000000000E+00 0.  1.
         22   -1    0    0    0    0 -0.00000000000E+00 -0.00000000000E+00 -0.85062546598E+01  0.85062546598E+01  0.00000000000E+00 0. -1.
          4    1    1    2  501    0  0.37431759088E+01  0.19854131295E+01 -0.13369107562E+01  0.46209805830E+01  0.12700000000E+01 0. -1.
         -4    1    1    2    0  501 -0.37431759088E+01 -0.19854131295E+01 -0.46423335340E+01  0.64122844463E+01  0.12700000000E+01 0. -1.
<mgrwt>
<rscale>  0 0.44233620E+01</rscale>
<asrwt>0</asrwt>
<pdfrwt beam="1">0</pdfrwt>
<pdfrwt beam="2">0</pdfrwt>
<totfact> 0.66294498E+11</totfact>
</mgrwt>
</event>
<event>
 4    1  0.1699693E+006  0.2034415E+01  0.7546771E-02  0.2957875E+00
         22   -1    0    0    0    0  0.00000000000E+00  0.00000000000E+00  0.18825583461E+02  0.18825583461E+02  0.00000000000E+00 0. -1.
         22   -1    0    0    0    0 -0.00000000000E+00 -0.00000000000E+00 -0.22066363357E+00  0.22066363357E+00  0.00000000000E+00 0. -1.
          4    1    1    2  501    0  0.12296771768E+01  0.10068961971E+01  0.87249746070E+01  0.89590193551E+01  0.12700000000E+01 0. -1.
         -4    1    1    2    0  501 -0.12296771768E+01 -0.10068961971E+01  0.98799452205E+01  0.10087227740E+02  0.12700000000E+01 0. -1.
<mgrwt>
<rscale>  0 0.20344154E+01</rscale>
<asrwt>0</asrwt>
<pdfrwt beam="1">0</pdfrwt>
<pdfrwt beam="2">0</pdfrwt>
<totfact> 0.40198896E+12</totfact>
</mgrwt>
</event>
<event>
 4    1  0.1699693E+006  0.2890221E+01  0.7546771E-02  0.2558052E+00
         22   -1    0    0    0    0  0.00000000000E+00  0.00000000000E+00  0.13239472484E+02  0.13239472484E+02  0.00000000000E+00 0.  1.
         22   -1    0    0    0    0 -0.00000000000E+00 -0.00000000000E+00 -0.75867396950E+00  0.75867396950E+00  0.00000000000E+00 0. -1.
          4    1    1    2  501    0  0.25699783459E+01  0.36835583075E+00  0.33685727785E+01  0.44385422472E+01  0.12700000000E+01 0.  1.
         -4    1    1    2    0  501 -0.25699783459E+01 -0.36835583075E+00  0.91122257356E+01  0.95596042059E+01  0.12700000000E+01 0. -1.
<mgrwt>
<rscale>  0 0.28902205E+01</rscale>
<asrwt>0</asrwt>
<pdfrwt beam="1">0</pdfrwt>
<pdfrwt beam="2">0</pdfrwt>
<totfact> 0.15445787E+12</totfact>
</mgrwt>
</event>
<event>
 4    1  0.1699693E+006  0.2450497E+01  0.7546771E-02  0.2730765E+00
         22   -1    0    0    0    0  0.00000000000E+00  0.00000000000E+00  0.26685132026E+01  0.26685132026E+01  0.00000000000E+00 0. -1.
         22   -1    0    0    0    0 -0.00000000000E+00 -0.00000000000E+00 -0.23096675578E+01  0.23096675578E+01  0.00000000000E+00 0.  1.
          4    1    1    2  501    0 -0.19460798652E+01  0.77769333959E+00 -0.21966637428E+00  0.24603225578E+01  0.12700000000E+01 0.  1.
         -4    1    1    2    0  501  0.19460798652E+01 -0.77769333959E+00  0.57851201905E+00  0.25178582026E+01  0.12700000000E+01 0. -1.
<mgrwt>
<rscale>  0 0.24504966E+01</rscale>
<asrwt>0</asrwt>
<pdfrwt beam="1">0</pdfrwt>
<pdfrwt beam="2">0</pdfrwt>
<totfact> 0.29006468E+12</totfact>
</mgrwt>
</event>
<event>
 4    1  0.1699693E+006  0.3171852E+01  0.7546771E-02  0.2470513E+00
         22   -1    0    0    0    0  0.00000000000E+00  0.00000000000E+00  0.89271981375E+00  0.89271981375E+00  0.00000000000E+00 0.  1.
         22   -1    0    0    0    0 -0.00000000000E+00 -0.00000000000E+00 -0.12370419897E+02  0.12370419897E+02  0.00000000000E+00 0. -1.
          4    1    1    2  501    0 -0.17919953842E+01  0.22883388635E+01 -0.37606423861E+01  0.49196619159E+01  0.12700000000E+01 0.  1.
         -4    1    1    2    0  501  0.17919953842E+01 -0.22883388635E+01 -0.77170576977E+01  0.83434777953E+01  0.12700000000E+01 0. -1.
<mgrwt>
<rscale>  0 0.31718515E+01</rscale>
<asrwt>0</asrwt>
<pdfrwt beam="1">0</pdfrwt>
<pdfrwt beam="2">0</pdfrwt>
<totfact> 0.13945602E+12</totfact>
</mgrwt>
</event>
<event>
 4    1  0.1699693E+006  0.2161257E+01  0.7546771E-02  0.2879772E+00
         22   -1    0    0    0    0  0.00000000000E+00  0.00000000000E+00  0.31887870838E+00  0.31887870838E+00  0.00000000000E+00 0. -1.
         22   -1    0    0    0    0 -0.00000000000E+00 -0.00000000000E+00 -0.17114806746E+02  0.17114806746E+02  0.00000000000E+00 0.  1.
          4    1    1    2  501    0  0.82053611100E+00 -0.15442962024E+01 -0.50888284376E+01  0.55287616279E+01  0.12700000000E+01 0. -1.
         -4    1    1    2    0  501 -0.82053611100E+00  0.15442962024E+01 -0.11707099600E+02  0.11904923826E+02  0.12700000000E+01 0.  1.
<mgrwt>
<rscale>  0 0.21612566E+01</rscale>
<asrwt>0</asrwt>
<pdfrwt beam="1">0</pdfrwt>
<pdfrwt beam="2">0</pdfrwt>
<totfact> 0.29961507E+12</totfact>
</mgrwt>
</event>
<event>
 4    1  0.1699693E+006  0.2143012E+01  0.7546771E-02  0.2890455E+00
         22   -1    0    0    0    0  0.00000000000E+00  0.00000000000E+00  0.35271396508E+02  0.35271396508E+02  0.00000000000E+00 0. -1.
         22   -1    0    0    0    0 -0.00000000000E+00 -0.00000000000E+00 -0.26117386617E+00  0.26117386617E+00  0.00000000000E+00 0.  1.
          4    1    1    2  501    0  0.77354142040E+00 -0.15431243830E+01  0.30086147602E+02  0.30162373526E+02  0.12700000000E+01 0. -1.
         -4    1    1    2    0  501 -0.77354142040E+00  0.15431243830E+01  0.49240750399E+01  0.53701968483E+01  0.12700000000E+01 0.  1.
<mgrwt>
<rscale>  0 0.21430117E+01</rscale>
<asrwt>0</asrwt>
<pdfrwt beam="1">0</pdfrwt>
<pdfrwt beam="2">0</pdfrwt>
<totfact> 0.15056196E+12</totfact>
</mgrwt>
</event>
<event>
 4    1  0.1699693E+006  0.4366339E+01  0.7546771E-02  0.2212298E+00
         22   -1    0    0    0    0  0.00000000000E+00  0.00000000000E+00  0.24768309393E+01  0.24768309393E+01  0.00000000000E+00 0. -1.
         22   -1    0    0    0    0 -0.00000000000E+00 -0.00000000000E+00 -0.80893136647E+01  0.80893136647E+01  0.00000000000E+00 0.  1.
          4    1    1    2  501    0 -0.27897283601E+01 -0.31095705649E+01 -0.16432386420E+01  0.46653131359E+01  0.12700000000E+01 0.  1.
         -4    1    1    2    0  501  0.27897283601E+01  0.31095705649E+01 -0.39692440834E+01  0.59008314681E+01  0.12700000000E+01 0. -1.
<mgrwt>
<rscale>  0 0.43663387E+01</rscale>
<asrwt>0</asrwt>
<pdfrwt beam="1">0</pdfrwt>
<pdfrwt beam="2">0</pdfrwt>
<totfact> 0.72088348E+11</totfact>
</mgrwt>
</event>
<event>
 4    1  0.1699693E+006  0.4313550E+01  0.7546771E-02  0.2221087E+00
         22   -1    0    0    0    0  0.00000000000E+00  0.00000000000E+00  0.37878987969E+01  0.37878987969E+01  0.00000000000E+00 0. -1.
         22   -1    0    0    0    0 -0.00000000000E+00 -0.00000000000E+00 -0.52985868569E+01  0.52985868569E+01  0.00000000000E+00 0.  1.
          4    1    1    2  501    0 -0.19516690645E+01 -0.36310880333E+01  0.47160737356E+00  0.43392540785E+01  0.12700000000E+01 0. -1.
         -4    1    1    2    0  501  0.19516690645E+01  0.36310880333E+01 -0.19822954336E+01  0.47472315753E+01  0.12700000000E+01 0.  1.
<mgrwt>
<rscale>  0 0.43135499E+01</rscale>
<asrwt>0</asrwt>
<pdfrwt beam="1">0</pdfrwt>
<pdfrwt beam="2">0</pdfrwt>
<totfact> 0.72703551E+11</totfact>
</mgrwt>
</event>
<event>
 4    1  0.1699693E+006  0.3392479E+01  0.7546771E-02  0.2411033E+00
         22   -1    0    0    0    0  0.00000000000E+00  0.00000000000E+00  0.67108196943E+01  0.67108196943E+01  0.00000000000E+00 0. -1.
         22   -1    0    0    0    0 -0.00000000000E+00 -0.00000000000E+00 -0.17203521395E+01  0.17203521395E+01  0.00000000000E+00 0.  1.
          4    1    1    2  501    0  0.78090809918E+00  0.30473264414E+01  0.27308238557E+01  0.43550332755E+01  0.12700000000E+01 0.  1.
         -4    1    1    2    0  501 -0.78090809918E+00 -0.30473264414E+01  0.22596436992E+01  0.40761385583E+01  0.12700000000E+01 0. -1.
<mgrwt>
<rscale>  0 0.33924793E+01</rscale>
<asrwt>0</asrwt>
<pdfrwt beam="1">0</pdfrwt>
<pdfrwt beam="2">0</pdfrwt>
<totfact> 0.13753373E+12</totfact>
</mgrwt>
</event>
<event>
 4    1  0.1699693E+006  0.2277509E+01  0.7546771E-02  0.2815565E+00
         22   -1    0    0    0    0  0.00000000000E+00  0.00000000000E+00  0.20977144164E+01  0.20977144164E+01  0.00000000000E+00 0.  1.
         22   -1    0    0    0    0 -0.00000000000E+00 -0.00000000000E+00 -0.38730137341E+01  0.38730137341E+01  0.00000000000E+00 0. -1.
          4    1    1    2  501    0  0.74079255132E+00 -0.17393601718E+01  0.90742830734E+00  0.24516267139E+01  0.12700000000E+01 0.  1.
         -4    1    1    2    0  501 -0.74079255132E+00  0.17393601718E+01 -0.26827276250E+01  0.35191014367E+01  0.12700000000E+01 0. -1.
<mgrwt>
<rscale>  0 0.22775090E+01</rscale>
<asrwt>0</asrwt>
<pdfrwt beam="1">0</pdfrwt>
<pdfrwt beam="2">0</pdfrwt>
<totfact> 0.20972620E+12</totfact>
</mgrwt>
</event>
<event>
 4    1  0.1699693E+006  0.3564547E+01  0.7546771E-02  0.2369159E+00
         22   -1    0    0    0    0  0.00000000000E+00  0.00000000000E+00  0.11519072187E+01  0.11519072187E+01  0.00000000000E+00 0. -1.
         22   -1    0    0    0    0 -0.00000000000E+00 -0.00000000000E+00 -0.11075488022E+02  0.11075488022E+02  0.00000000000E+00 0. -1.
          4    1    1    2  501    0 -0.59019805884E+00 -0.32779201549E+01 -0.53518815044E+01  0.64302900345E+01  0.12700000000E+01 0. -1.
         -4    1    1    2    0  501  0.59019805884E+00  0.32779201549E+01 -0.45716992985E+01  0.57971052057E+01  0.12700000000E+01 0. -1.
<mgrwt>
<rscale>  0 0.35645469E+01</rscale>
<asrwt>0</asrwt>
<pdfrwt beam="1">0</pdfrwt>
<pdfrwt beam="2">0</pdfrwt>
<totfact> 0.11925751E+12</totfact>
</mgrwt>
</event>
<event>
 4    1  0.1699693E+006  0.2285363E+01  0.7546771E-02  0.2811452E+00
         22   -1    0    0    0    0  0.00000000000E+00  0.00000000000E+00  0.37337776750E+02  0.37337776750E+02  0.00000000000E+00 0.  1.
         22   -1    0    0    0    0 -0.00000000000E+00 -0.00000000000E+00 -0.19276871868E+00  0.19276871868E+00  0.00000000000E+00 0. -1.
          4    1    1    2  501    0  0.12118736764E+01 -0.14633345744E+01  0.28401509607E+02  0.28493308580E+02  0.12700000000E+01 0.  1.
         -4    1    1    2    0  501 -0.12118736764E+01  0.14633345744E+01  0.87434984244E+01  0.90372368887E+01  0.12700000000E+01 0. -1.
<mgrwt>
<rscale>  0 0.22853634E+01</rscale>
<asrwt>0</asrwt>
<pdfrwt beam="1">0</pdfrwt>
<pdfrwt beam="2">0</pdfrwt>
<totfact> 0.19642091E+12</totfact>
</mgrwt>
</event>
<event>
 4    1  0.1699693E+006  0.2467043E+01  0.7546771E-02  0.2723240E+00
         22   -1    0    0    0    0  0.00000000000E+00  0.00000000000E+00  0.12612766644E+02  0.12612766644E+02  0.00000000000E+00 0.  1.
         22   -1    0    0    0    0 -0.00000000000E+00 -0.00000000000E+00 -0.48361947839E+00  0.48361947839E+00  0.00000000000E+00 0.  1.
          4    1    1    2  501    0  0.19365266969E+01 -0.85045036102E+00  0.57567657115E+01  0.62631184662E+01  0.12700000000E+01 0.  1.
         -4    1    1    2    0  501 -0.19365266969E+01  0.85045036102E+00  0.63723814540E+01  0.68332676561E+01  0.12700000000E+01 0.  1.
<mgrwt>
<rscale>  0 0.24670431E+01</rscale>
<asrwt>0</asrwt>
<pdfrwt beam="1">0</pdfrwt>
<pdfrwt beam="2">0</pdfrwt>
<totfact> 0.27291721E+12</totfact>
</mgrwt>
</event>
<event>
 4    1  0.1699693E+006  0.2627893E+01  0.7546771E-02  0.2654697E+00
         22   -1    0    0    0    0  0.00000000000E+00  0.00000000000E+00  0.19089815363E+02  0.19089815363E+02  0.00000000000E+00 0.  1.
         22   -1    0    0    0    0 -0.00000000000E+00 -0.00000000000E+00 -0.38079350946E+00  0.38079350946E+00  0.00000000000E+00 0. -1.
          4    1    1    2  501    0 -0.25586168007E+00 -0.22863626096E+01  0.11531375352E+02  0.11827021463E+02  0.12700000000E+01 0.  1.
         -4    1    1    2    0  501  0.25586168007E+00  0.22863626096E+01  0.71776465016E+01  0.76435874093E+01  0.12700000000E+01 0. -1.
<mgrwt>
<rscale>  0 0.26278925E+01</rscale>
<asrwt>0</asrwt>
<pdfrwt beam="1">0</pdfrwt>
<pdfrwt beam="2">0</pdfrwt>
<totfact> 0.21436327E+12</totfact>
</mgrwt>
</event>
<event>
 4    1  0.1699693E+006  0.4009825E+01  0.7546771E-02  0.2275420E+00
         22   -1    0    0    0    0  0.00000000000E+00  0.00000000000E+00  0.90628344403E+00  0.90628344403E+00  0.00000000000E+00 0.  1.
         22   -1    0    0    0    0 -0.00000000000E+00 -0.00000000000E+00 -0.17780919900E+02  0.17780919900E+02  0.00000000000E+00 0. -1.
          4    1    1    2  501    0 -0.22023458926E+01  0.31008813641E+01 -0.88780905527E+01  0.97416212473E+01  0.12700000000E+01 0. -1.
         -4    1    1    2    0  501  0.22023458926E+01 -0.31008813641E+01 -0.79965459033E+01  0.89455820967E+01  0.12700000000E+01 0.  1.
<mgrwt>
<rscale>  0 0.40098245E+01</rscale>
<asrwt>0</asrwt>
<pdfrwt beam="1">0</pdfrwt>
<pdfrwt beam="2">0</pdfrwt>
<totfact> 0.87728737E+11</totfact>
</mgrwt>
</event>
<event>
 4    1  0.1699693E+006  0.2317292E+01  0.7546771E-02  0.2795005E+00
         22   -1    0    0    0    0  0.00000000000E+00  0.00000000000E+00  0.35039065179E+02  0.35039065179E+02  0.00000000000E+00 0.  1.
         22   -1    0    0    0    0 -0.00000000000E+00 -0.00000000000E+00 -0.10836476574E+01  0.10836476574E+01  0.00000000000E+00 0. -1.
          4    1    1    2  501    0  0.18719228993E+01 -0.50283834375E+00  0.33713256055E+02  0.33792802127E+02  0.12700000000E+01 0.  1.
         -4    1    1    2    0  501 -0.18719228993E+01  0.50283834375E+00  0.24216146692E+00  0.23299107101E+01  0.12700000000E+01 0. -1.
<mgrwt>
<rscale>  0 0.23172919E+01</rscale>
<asrwt>0</asrwt>
<pdfrwt beam="1">0</pdfrwt>
<pdfrwt beam="2">0</pdfrwt>
<totfact> 0.30389519E+11</totfact>
</mgrwt>
</event>
<event>
 4    1  0.1699693E+006  0.3637137E+01  0.7546771E-02  0.2352532E+00
         22   -1    0    0    0    0  0.00000000000E+00  0.00000000000E+00  0.31268778860E+02  0.31268778860E+02  0.00000000000E+00 0. -1.
         22   -1    0    0    0    0 -0.00000000000E+00 -0.00000000000E+00 -0.31501145450E+01  0.31501145450E+01  0.00000000000E+00 0.  1.
          4    1    1    2  501    0 -0.20317457909E+01 -0.27363985954E+01  0.30071500268E+02  0.30290656919E+02  0.12700000000E+01 0. -1.
         -4    1    1    2    0  501  0.20317457909E+01  0.27363985954E+01 -0.19528359523E+01  0.41282364864E+01  0.12700000000E+01 0.  1.
<mgrwt>
<rscale>  0 0.36371374E+01</rscale>
<asrwt>0</asrwt>
<pdfrwt beam="1">0</pdfrwt>
<pdfrwt beam="2">0</pdfrwt>
<totfact> 0.10243786E+11</totfact>
</mgrwt>
</event>
<event>
 4    1  0.1699693E+006  0.3539976E+01  0.7546771E-02  0.2374921E+00
         22   -1    0    0    0    0  0.00000000000E+00  0.00000000000E+00  0.18962949923E+02  0.18962949923E+02  0.00000000000E+00 0.  1.
         22   -1    0    0    0    0 -0.00000000000E+00 -0.00000000000E+00 -0.72189912398E+00  0.72189912398E+00  0.00000000000E+00 0. -1.
          4    1    1    2  501    0  0.32149792940E+01  0.76317706001E+00  0.11983038684E+02  0.12494984882E+02  0.12700000000E+01 0.  1.
         -4    1    1    2    0  501 -0.32149792940E+01 -0.76317706001E+00  0.62580121144E+01  0.71898641649E+01  0.12700000000E+01 0.  1.
<mgrwt>
<rscale>  0 0.35399761E+01</rscale>
<asrwt>0</asrwt>
<pdfrwt beam="1">0</pdfrwt>
<pdfrwt beam="2">0</pdfrwt>
<totfact> 0.10491334E+12</totfact>
</mgrwt>
</event>
<event>
 4    1  0.1699693E+006  0.2223013E+01  0.7546771E-02  0.2844864E+00
         22   -1    0    0    0    0  0.00000000000E+00  0.00000000000E+00  0.19178621138E+00  0.19178621138E+00  0.00000000000E+00 0.  1.
         22   -1    0    0    0    0 -0.00000000000E+00 -0.00000000000E+00 -0.60589801652E+02  0.60589801652E+02  0.00000000000E+00 0.  1.
          4    1    1    2  501    0  0.10020433054E+01  0.15247283838E+01 -0.71595055622E+01  0.74966864230E+01  0.12700000000E+01 0.  1.
         -4    1    1    2    0  501 -0.10020433054E+01 -0.15247283838E+01 -0.53238509878E+02  0.53284901440E+02  0.12700000000E+01 0.  1.
<mgrwt>
<rscale>  0 0.22230131E+01</rscale>
<asrwt>0</asrwt>
<pdfrwt beam="1">0</pdfrwt>
<pdfrwt beam="2">0</pdfrwt>
<totfact> 0.10453800E+12</totfact>
</mgrwt>
</event>
<event>
 4    1  0.1699693E+006  0.2282201E+01  0.7546771E-02  0.2813105E+00
         22   -1    0    0    0    0  0.00000000000E+00  0.00000000000E+00  0.38057492758E+01  0.38057492758E+01  0.00000000000E+00 0.  1.
         22   -1    0    0    0    0 -0.00000000000E+00 -0.00000000000E+00 -0.15370404654E+01  0.15370404654E+01  0.00000000000E+00 0. -1.
          4    1    1    2  501    0  0.16475172414E+01 -0.93873802176E+00  0.20187664874E+01  0.30469427735E+01  0.12700000000E+01 0.  1.
         -4    1    1    2    0  501 -0.16475172414E+01  0.93873802176E+00  0.24994232300E+00  0.22958469677E+01  0.12700000000E+01 0. -1.
<mgrwt>
<rscale>  0 0.22822012E+01</rscale>
<asrwt>0</asrwt>
<pdfrwt beam="1">0</pdfrwt>
<pdfrwt beam="2">0</pdfrwt>
<totfact> 0.30660073E+12</totfact>
</mgrwt>
</event>
<event>
 4    1  0.1699693E+006  0.2975752E+01  0.7546771E-02  0.2529899E+00
         22   -1    0    0    0    0  0.00000000000E+00  0.00000000000E+00  0.40281670671E+01  0.40281670671E+01  0.00000000000E+00 0.  1.
         22   -1    0    0    0    0 -0.00000000000E+00 -0.00000000000E+00 -0.74292347978E+01  0.74292347978E+01  0.00000000000E+00 0.  1.
          4    1    1    2  501    0  0.14113211280E+01  0.22913685907E+01  0.31064646906E+01  0.43017694288E+01  0.12700000000E+01 0.  1.
         -4    1    1    2    0  501 -0.14113211280E+01 -0.22913685907E+01 -0.65075324214E+01  0.71556324361E+01  0.12700000000E+01 0.  1.
<mgrwt>
<rscale>  0 0.29757516E+01</rscale>
<asrwt>0</asrwt>
<pdfrwt beam="1">0</pdfrwt>
<pdfrwt beam="2">0</pdfrwt>
<totfact> 0.45202508E+11</totfact>
</mgrwt>
</event>
<event>
 4    1  0.1699693E+006  0.3787691E+01  0.7546771E-02  0.2319813E+00
         22   -1    0    0    0    0  0.00000000000E+00  0.00000000000E+00  0.29417766081E+00  0.29417766081E+00  0.00000000000E+00 0. -1.
         22   -1    0    0    0    0 -0.00000000000E+00 -0.00000000000E+00 -0.49006463809E+02  0.49006463809E+02  0.00000000000E+00 0.  1.
          4    1    1    2  501    0 -0.13006713085E+01  0.33229437669E+01 -0.26073885038E+02  0.26347563115E+02  0.12700000000E+01 0. -1.
         -4    1    1    2    0  501  0.13006713085E+01 -0.33229437669E+01 -0.22638401110E+02  0.22953078355E+02  0.12700000000E+01 0. -1.
<mgrwt>
<rscale>  0 0.37876907E+01</rscale>
<asrwt>0</asrwt>
<pdfrwt beam="1">0</pdfrwt>
<pdfrwt beam="2">0</pdfrwt>
<totfact> 0.85896216E+11</totfact>
</mgrwt>
</event>
<event>
 4    1  0.1699693E+006  0.7239080E+01  0.7546771E-02  0.1923650E+00
         22   -1    0    0    0    0  0.00000000000E+00  0.00000000000E+00  0.39294106640E+02  0.39294106640E+02  0.00000000000E+00 0.  1.
         22   -1    0    0    0    0 -0.00000000000E+00 -0.00000000000E+00 -0.13584273671E+01  0.13584273671E+01  0.00000000000E+00 0. -1.
          4    1    1    2  501    0  0.69152722366E+01 -0.17234803952E+01  0.16222246104E+02  0.17764164586E+02  0.12700000000E+01 0.  1.
         -4    1    1    2    0  501 -0.69152722366E+01  0.17234803952E+01  0.21713433169E+02  0.22888369421E+02  0.12700000000E+01 0. -1.
<mgrwt>
<rscale>  0 0.72390797E+01</rscale>
<asrwt>0</asrwt>
<pdfrwt beam="1">0</pdfrwt>
<pdfrwt beam="2">0</pdfrwt>
<totfact> 0.20230066E+11</totfact>
</mgrwt>
</event>
<event>
 4    1  0.1699693E+006  0.2026212E+01  0.7546771E-02  0.2963254E+00
         22   -1    0    0    0    0  0.00000000000E+00  0.00000000000E+00  0.22666220670E+02  0.22666220670E+02  0.00000000000E+00 0.  1.
         22   -1    0    0    0    0 -0.00000000000E+00 -0.00000000000E+00 -0.24917492105E+00  0.24917492105E+00  0.00000000000E+00 0. -1.
          4    1    1    2  501    0  0.19213988651E+00  0.15670723815E+01  0.17195986804E+02  0.17314950065E+02  0.12700000000E+01 0.  1.
         -4    1    1    2    0  501 -0.19213988651E+00 -0.15670723815E+01  0.52210589444E+01  0.56004455256E+01  0.12700000000E+01 0. -1.
<mgrwt>
<rscale>  0 0.20262116E+01</rscale>
<asrwt>0</asrwt>
<pdfrwt beam="1">0</pdfrwt>
<pdfrwt beam="2">0</pdfrwt>
<totfact> 0.27830216E+12</totfact>
</mgrwt>
</event>
<event>
 4    1  0.1699693E+006  0.1540439E+02  0.7546771E-02  0.1616811E+00
         22   -1    0    0    0    0  0.00000000000E+00  0.00000000000E+00  0.30329572856E+02  0.30329572856E+02  0.00000000000E+00 0. -1.
         22   -1    0    0    0    0 -0.00000000000E+00 -0.00000000000E+00 -0.11453049028E+02  0.11453049028E+02  0.00000000000E+00 0.  1.
          4    1    1    2  501    0 -0.14944257475E+02 -0.35144565065E+01  0.21198289525E+02  0.26204248029E+02  0.12700000000E+01 0. -1.
         -4    1    1    2    0  501  0.14944257475E+02  0.35144565065E+01 -0.23217656965E+01  0.15578373855E+02  0.12700000000E+01 0.  1.
<mgrwt>
<rscale>  0 0.15404387E+02</rscale>
<asrwt>0</asrwt>
<pdfrwt beam="1">0</pdfrwt>
<pdfrwt beam="2">0</pdfrwt>
<totfact> 0.22881198E+10</totfact>
</mgrwt>
</event>
<event>
 4    1  0.1699693E+006  0.2189309E+01  0.7546771E-02  0.2863681E+00
         22   -1    0    0    0    0  0.00000000000E+00  0.00000000000E+00  0.10681281909E+02  0.10681281909E+02  0.00000000000E+00 0. -1.
         22   -1    0    0    0    0 -0.00000000000E+00 -0.00000000000E+00 -0.11455620729E+01  0.11455620729E+01  0.00000000000E+00 0.  1.
          4    1    1    2  501    0  0.12626639450E+01 -0.12593059872E+01  0.93798872128E+01  0.96319964666E+01  0.12700000000E+01 0. -1.
         -4    1    1    2    0  501 -0.12626639450E+01  0.12593059872E+01  0.15583262295E+00  0.21948475149E+01  0.12700000000E+01 0.  1.
<mgrwt>
<rscale>  0 0.21893085E+01</rscale>
<asrwt>0</asrwt>
<pdfrwt beam="1">0</pdfrwt>
<pdfrwt beam="2">0</pdfrwt>
<totfact> 0.12540629E+12</totfact>
</mgrwt>
</event>
<event>
 4    1  0.1699693E+006  0.5123917E+01  0.7546771E-02  0.2108497E+00
         22   -1    0    0    0    0  0.00000000000E+00  0.00000000000E+00  0.51064952029E+02  0.51064952029E+02  0.00000000000E+00 0.  1.
         22   -1    0    0    0    0 -0.00000000000E+00 -0.00000000000E+00 -0.62736562711E+00  0.62736562711E+00  0.00000000000E+00 0. -1.
          4    1    1    2  501    0  0.30054256204E+01 -0.39508282074E+01  0.36198944063E+02  0.36559787717E+02  0.12700000000E+01 0.  1.
         -4    1    1    2    0  501 -0.30054256204E+01  0.39508282074E+01  0.14238642339E+02  0.15132529939E+02  0.12700000000E+01 0. -1.
<mgrwt>
<rscale>  0 0.51239171E+01</rscale>
<asrwt>0</asrwt>
<pdfrwt beam="1">0</pdfrwt>
<pdfrwt beam="2">0</pdfrwt>
<totfact> 0.34655504E+11</totfact>
</mgrwt>
</event>
<event>
 4    1  0.1699693E+006  0.2240654E+01  0.7546771E-02  0.2835231E+00
         22   -1    0    0    0    0  0.00000000000E+00  0.00000000000E+00  0.18067804595E+01  0.18067804595E+01  0.00000000000E+00 0. -1.
         22   -1    0    0    0    0 -0.00000000000E+00 -0.00000000000E+00 -0.29694334378E+01  0.29694334378E+01  0.00000000000E+00 0.  1.
          4    1    1    2  501    0  0.34893694814E-01 -0.18456474256E+01  0.23890037599E-01  0.22407817215E+01  0.12700000000E+01 0. -1.
         -4    1    1    2    0  501 -0.34893694814E-01  0.18456474256E+01 -0.11865430159E+01  0.25354321758E+01  0.12700000000E+01 0.  1.
<mgrwt>
<rscale>  0 0.22406544E+01</rscale>
<asrwt>0</asrwt>
<pdfrwt beam="1">0</pdfrwt>
<pdfrwt beam="2">0</pdfrwt>
<totfact> 0.34029125E+12</totfact>
</mgrwt>
</event>
<event>
 4    1  0.1699693E+006  0.2737154E+01  0.7546771E-02  0.2612391E+00
         22   -1    0    0    0    0  0.00000000000E+00  0.00000000000E+00  0.10144282539E+02  0.10144282539E+02  0.00000000000E+00 0. -1.
         22   -1    0    0    0    0 -0.00000000000E+00 -0.00000000000E+00 -0.11998893570E+01  0.11998893570E+01  0.00000000000E+00 0.  1.
          4    1    1    2  501    0 -0.15161829293E+01  0.18921680849E+01  0.79892967415E+01  0.84451686283E+01  0.12700000000E+01 0. -1.
         -4    1    1    2    0  501  0.15161829293E+01 -0.18921680849E+01  0.95509644090E+00  0.28990032680E+01  0.12700000000E+01 0.  1.
<mgrwt>
<rscale>  0 0.27371538E+01</rscale>
<asrwt>0</asrwt>
<pdfrwt beam="1">0</pdfrwt>
<pdfrwt beam="2">0</pdfrwt>
<totfact> 0.12660956E+12</totfact>
</mgrwt>
</event>
<event>
 4    1  0.1699693E+006  0.4049587E+01  0.7546771E-02  0.2267915E+00
         22   -1    0    0    0    0  0.00000000000E+00  0.00000000000E+00  0.98494749456E+01  0.98494749456E+01  0.00000000000E+00 0.  1.
         22   -1    0    0    0    0 -0.00000000000E+00 -0.00000000000E+00 -0.23045650117E+01  0.23045650117E+01  0.00000000000E+00 0. -1.
          4    1    1    2  501    0 -0.11409754995E+01 -0.36721156296E+01  0.69738998396E+01  0.80643931737E+01  0.12700000000E+01 0.  1.
         -4    1    1    2    0  501  0.11409754995E+01  0.36721156296E+01  0.57101009428E+00  0.40896467837E+01  0.12700000000E+01 0. -1.
<mgrwt>
<rscale>  0 0.40495874E+01</rscale>
<asrwt>0</asrwt>
<pdfrwt beam="1">0</pdfrwt>
<pdfrwt beam="2">0</pdfrwt>
<totfact> 0.61820133E+11</totfact>
</mgrwt>
</event>
<event>
 4    1  0.1699693E+006  0.2174197E+01  0.7546771E-02  0.2872299E+00
         22   -1    0    0    0    0  0.00000000000E+00  0.00000000000E+00  0.12135253596E+02  0.12135253596E+02  0.00000000000E+00 0.  1.
         22   -1    0    0    0    0 -0.00000000000E+00 -0.00000000000E+00 -0.42640280314E+00  0.42640280314E+00  0.00000000000E+00 0. -1.
          4    1    1    2  501    0  0.12008004678E+01 -0.12931791652E+01  0.77012126831E+01  0.80022378687E+01  0.12700000000E+01 0. -1.
         -4    1    1    2    0  501 -0.12008004678E+01  0.12931791652E+01  0.40076381096E+01  0.45594185303E+01  0.12700000000E+01 0.  1.
<mgrwt>
<rscale>  0 0.21741974E+01</rscale>
<asrwt>0</asrwt>
<pdfrwt beam="1">0</pdfrwt>
<pdfrwt beam="2">0</pdfrwt>
<totfact> 0.32971532E+12</totfact>
</mgrwt>
</event>
<event>
 4    1  0.1699693E+006  0.2658395E+01  0.7546771E-02  0.2642566E+00
         22   -1    0    0    0    0  0.00000000000E+00  0.00000000000E+00  0.18795969828E+01  0.18795969828E+01  0.00000000000E+00 0.  1.
         22   -1    0    0    0    0 -0.00000000000E+00 -0.00000000000E+00 -0.91061724820E+01  0.91061724820E+01  0.00000000000E+00 0. -1.
          4    1    1    2  501    0 -0.13390368915E+01  0.19134119819E+01  0.59551695845E+00  0.27242807596E+01  0.12700000000E+01 0.  1.
         -4    1    1    2    0  501  0.13390368915E+01 -0.19134119819E+01 -0.78220924577E+01  0.82614887052E+01  0.12700000000E+01 0. -1.
<mgrwt>
<rscale>  0 0.26583952E+01</rscale>
<asrwt>0</asrwt>
<pdfrwt beam="1">0</pdfrwt>
<pdfrwt beam="2">0</pdfrwt>
<totfact> 0.86070781E+11</totfact>
</mgrwt>
</event>
<event>
 4    1  0.1699693E+006  0.2416087E+01  0.7546771E-02  0.2746722E+00
         22   -1    0    0    0    0  0.00000000000E+00  0.00000000000E+00  0.45726543941E+01  0.45726543941E+01  0.00000000000E+00 0.  1.
         22   -1    0    0    0    0 -0.00000000000E+00 -0.00000000000E+00 -0.12880277647E+01  0.12880277647E+01  0.00000000000E+00 0.  1.
          4    1    1    2  501    0 -0.20450059488E+01  0.20621636433E+00  0.19182673715E+01  0.30849998749E+01  0.12700000000E+01 0.  1.
         -4    1    1    2    0  501  0.20450059488E+01 -0.20621636433E+00  0.13663592578E+01  0.27756822839E+01  0.12700000000E+01 0.  1.
<mgrwt>
<rscale>  0 0.24160866E+01</rscale>
<asrwt>0</asrwt>
<pdfrwt beam="1">0</pdfrwt>
<pdfrwt beam="2">0</pdfrwt>
<totfact> 0.30259841E+12</totfact>
</mgrwt>
</event>
<event>
 4    1  0.1699693E+006  0.2648753E+01  0.7546771E-02  0.2646373E+00
         22   -1    0    0    0    0  0.00000000000E+00  0.00000000000E+00  0.51213501927E+02  0.51213501927E+02  0.00000000000E+00 0.  1.
         22   -1    0    0    0    0 -0.00000000000E+00 -0.00000000000E+00 -0.75914467633E+00  0.75914467633E+00  0.00000000000E+00 0. -1.
          4    1    1    2  501    0 -0.23244270816E+01 -0.54057033480E-02  0.48752236749E+02  0.48824138277E+02  0.12700000000E+01 0.  1.
         -4    1    1    2    0  501  0.23244270816E+01  0.54057033480E-02  0.17021205022E+01  0.31485083267E+01  0.12700000000E+01 0. -1.
<mgrwt>
<rscale>  0 0.26487526E+01</rscale>
<asrwt>0</asrwt>
<pdfrwt beam="1">0</pdfrwt>
<pdfrwt beam="2">0</pdfrwt>
<totfact> 0.27805011E+11</totfact>
</mgrwt>
</event>
<event>
 4    1  0.1699693E+006  0.3368652E+01  0.7546771E-02  0.2417126E+00
         22   -1    0    0    0    0  0.00000000000E+00  0.00000000000E+00  0.12781139602E+02  0.12781139602E+02  0.00000000000E+00 0.  1.
         22   -1    0    0    0    0 -0.00000000000E+00 -0.00000000000E+00 -0.21154731889E+01  0.21154731889E+01  0.00000000000E+00 0. -1.
          4    1    1    2  501    0 -0.12641352318E+01 -0.28525216281E+01  0.11006778807E+02  0.11510734000E+02  0.12700000000E+01 0.  1.
         -4    1    1    2    0  501  0.12641352318E+01  0.28525216281E+01 -0.34111239329E+00  0.33858787911E+01  0.12700000000E+01 0. -1.
<mgrwt>
<rscale>  0 0.33686522E+01</rscale>
<asrwt>0</asrwt>
<pdfrwt beam="1">0</pdfrwt>
<pdfrwt beam="2">0</pdfrwt>
<totfact> 0.49732061E+11</totfact>
</mgrwt>
</event>
<event>
 4    1  0.1699693E+006  0.2048199E+01  0.7546771E-02  0.2948932E+00
         22   -1    0    0    0    0  0.00000000000E+00  0.00000000000E+00  0.49646343374E+01  0.49646343374E+01  0.00000000000E+00 0. -1.
         22   -1    0    0    0    0 -0.00000000000E+00 -0.00000000000E+00 -0.93558245611E+00  0.93558245611E+00  0.00000000000E+00 0.  1.
          4    1    1    2  501    0 -0.48663806192E+00  0.15314711626E+01  0.29324712508E+01  0.35769411739E+01  0.12700000000E+01 0. -1.
         -4    1    1    2    0  501  0.48663806192E+00 -0.15314711626E+01  0.10965806305E+01  0.23232756196E+01  0.12700000000E+01 0.  1.
<mgrwt>
<rscale>  0 0.20481993E+01</rscale>
<asrwt>0</asrwt>
<pdfrwt beam="1">0</pdfrwt>
<pdfrwt beam="2">0</pdfrwt>
<totfact> 0.39575286E+12</totfact>
</mgrwt>
</event>
<event>
 4    1  0.1699693E+006  0.2054304E+01  0.7546771E-02  0.2945009E+00
         22   -1    0    0    0    0  0.00000000000E+00  0.00000000000E+00  0.88187688344E+01  0.88187688344E+01  0.00000000000E+00 0.  1.
         22   -1    0    0    0    0 -0.00000000000E+00 -0.00000000000E+00 -0.72892879422E+00  0.72892879422E+00  0.00000000000E+00 0. -1.
          4    1    1    2  501    0  0.63919658025E+00 -0.14827989575E+01  0.68428089277E+01  0.71445223100E+01  0.12700000000E+01 0.  1.
         -4    1    1    2    0  501 -0.63919658025E+00  0.14827989575E+01  0.12470311124E+01  0.24031753186E+01  0.12700000000E+01 0. -1.
<mgrwt>
<rscale>  0 0.20543040E+01</rscale>
<asrwt>0</asrwt>
<pdfrwt beam="1">0</pdfrwt>
<pdfrwt beam="2">0</pdfrwt>
<totfact> 0.26474266E+12</totfact>
</mgrwt>
</event>
<event>
 4    1  0.1699693E+006  0.2920866E+01  0.7546771E-02  0.2547794E+00
         22   -1    0    0    0    0  0.00000000000E+00  0.00000000000E+00  0.18588947045E+00  0.18588947045E+00  0.00000000000E+00 0.  1.
         22   -1    0    0    0    0 -0.00000000000E+00 -0.00000000000E+00 -0.46705583019E+02  0.46705583019E+02  0.00000000000E+00 0. -1.
          4    1    1    2  501    0  0.14065576235E+01  0.22226455258E+01 -0.20171746438E+02  0.20382119906E+02  0.12700000000E+01 0.  1.
         -4    1    1    2    0  501 -0.14065576235E+01 -0.22226455258E+01 -0.26347947110E+02  0.26509352584E+02  0.12700000000E+01 0. -1.
<mgrwt>
<rscale>  0 0.29208659E+01</rscale>
<asrwt>0</asrwt>
<pdfrwt beam="1">0</pdfrwt>
<pdfrwt beam="2">0</pdfrwt>
<totfact> 0.15284223E+12</totfact>
</mgrwt>
</event>
<event>
 4    1  0.1699693E+006  0.3611242E+01  0.7546771E-02  0.2358397E+00
         22   -1    0    0    0    0  0.00000000000E+00  0.00000000000E+00  0.20617840815E+01  0.20617840815E+01  0.00000000000E+00 0.  1.
         22   -1    0    0    0    0 -0.00000000000E+00 -0.00000000000E+00 -0.64839237047E+01  0.64839237047E+01  0.00000000000E+00 0. -1.
          4    1    1    2  501    0 -0.32450675326E+01  0.94747229942E+00 -0.15424088265E+01  0.39268425023E+01  0.12700000000E+01 0.  1.
         -4    1    1    2    0  501  0.32450675326E+01 -0.94747229942E+00 -0.28797307968E+01  0.46188652840E+01  0.12700000000E+01 0. -1.
<mgrwt>
<rscale>  0 0.36112418E+01</rscale>
<asrwt>0</asrwt>
<pdfrwt beam="1">0</pdfrwt>
<pdfrwt beam="2">0</pdfrwt>
<totfact> 0.11623939E+12</totfact>
</mgrwt>
</event>
<event>
 4    1  0.1699693E+006  0.2500221E+01  0.7546771E-02  0.2708433E+00
         22   -1    0    0    0    0  0.00000000000E+00  0.00000000000E+00  0.30349694664E+01  0.30349694664E+01  0.00000000000E+00 0. -1.
         22   -1    0    0    0    0 -0.00000000000E+00 -0.00000000000E+00 -0.26330556427E+01  0.26330556427E+01  0.00000000000E+00 0. -1.
          4    1    1    2  501    0  0.15845838972E+01  0.14585263993E+01  0.15234287894E+01  0.29277876735E+01  0.12700000000E+01 0. -1.
         -4    1    1    2    0  501 -0.15845838972E+01 -0.14585263993E+01 -0.11215149657E+01  0.27402374355E+01  0.12700000000E+01 0. -1.
<mgrwt>
<rscale>  0 0.25002211E+01</rscale>
<asrwt>0</asrwt>
<pdfrwt beam="1">0</pdfrwt>
<pdfrwt beam="2">0</pdfrwt>
<totfact> 0.21434695E+12</totfact>
</mgrwt>
</event>
<event>
 4    1  0.1699693E+006  0.2026694E+01  0.7546771E-02  0.2962936E+00
         22   -1    0    0    0    0  0.00000000000E+00  0.00000000000E+00  0.45590213073E+02  0.45590213073E+02  0.00000000000E+00 0.  1.
         22   -1    0    0    0    0 -0.00000000000E+00 -0.00000000000E+00 -0.13014332417E+00  0.13014332417E+00  0.00000000000E+00 0.  1.
          4    1    1    2  501    0  0.73204586682E+00 -0.13995351279E+01  0.35411111951E+02  0.35469061721E+02  0.12700000000E+01 0.  1.
         -4    1    1    2    0  501 -0.73204586682E+00  0.13995351279E+01  0.10048957797E+02  0.10251294676E+02  0.12700000000E+01 0.  1.
<mgrwt>
<rscale>  0 0.20266943E+01</rscale>
<asrwt>0</asrwt>
<pdfrwt beam="1">0</pdfrwt>
<pdfrwt beam="2">0</pdfrwt>
<totfact> 0.23451478E+12</totfact>
</mgrwt>
</event>
<event>
 4    1  0.1699693E+006  0.2243143E+01  0.7546771E-02  0.2833884E+00
         22   -1    0    0    0    0  0.00000000000E+00  0.00000000000E+00  0.35267432769E+00  0.35267432769E+00  0.00000000000E+00 0. -1.
         22   -1    0    0    0    0 -0.00000000000E+00 -0.00000000000E+00 -0.14594689918E+02  0.14594689918E+02  0.00000000000E+00 0.  1.
          4    1    1    2  501    0 -0.10208107895E+01 -0.15416659390E+01 -0.60015415061E+01  0.64070421401E+01  0.12700000000E+01 0. -1.
         -4    1    1    2    0  501  0.10208107895E+01  0.15416659390E+01 -0.82404740845E+01  0.85403221059E+01  0.12700000000E+01 0.  1.
<mgrwt>
<rscale>  0 0.22431426E+01</rscale>
<asrwt>0</asrwt>
<pdfrwt beam="1">0</pdfrwt>
<pdfrwt beam="2">0</pdfrwt>
<totfact> 0.32566658E+12</totfact>
</mgrwt>
</event>
<event>
 4    1  0.1699693E+006  0.2115814E+01  0.7546771E-02  0.2906710E+00
         22   -1    0    0    0    0  0.00000000000E+00  0.00000000000E+00  0.18377740418E+02  0.18377740418E+02  0.00000000000E+00 0. -1.
         22   -1    0    0    0    0 -0.00000000000E+00 -0.00000000000E+00 -0.27238128476E+00  0.27238128476E+00  0.00000000000E+00 0. -1.
          4    1    1    2  501    0  0.11660736259E+00  0.16882447357E+01  0.12084334047E+02  0.12268161921E+02  0.12700000000E+01 0. -1.
         -4    1    1    2    0  501 -0.11660736259E+00 -0.16882447357E+01  0.60210250859E+01  0.63819597812E+01  0.12700000000E+01 0. -1.
<mgrwt>
<rscale>  0 0.21158137E+01</rscale>
<asrwt>0</asrwt>
<pdfrwt beam="1">0</pdfrwt>
<pdfrwt beam="2">0</pdfrwt>
<totfact> 0.32730330E+12</totfact>
</mgrwt>
</event>
<event>
 4    1  0.1699693E+006  0.3494568E+01  0.7546771E-02  0.2385755E+00
         22   -1    0    0    0    0  0.00000000000E+00  0.00000000000E+00  0.21647659415E+01  0.21647659415E+01  0.00000000000E+00 0. -1.
         22   -1    0    0    0    0 -0.00000000000E+00 -0.00000000000E+00 -0.63070413863E+01  0.63070413863E+01  0.00000000000E+00 0. -1.
          4    1    1    2  501    0  0.28153163540E+01  0.16349616533E+01 -0.69488142249E+00  0.35629855420E+01  0.12700000000E+01 0. -1.
         -4    1    1    2    0  501 -0.28153163540E+01 -0.16349616533E+01 -0.34473940223E+01  0.49088217859E+01  0.12700000000E+01 0. -1.
<mgrwt>
<rscale>  0 0.34945680E+01</rscale>
<asrwt>0</asrwt>
<pdfrwt beam="1">0</pdfrwt>
<pdfrwt beam="2">0</pdfrwt>
<totfact> 0.11354047E+12</totfact>
</mgrwt>
</event>
<event>
 4    1  0.1699693E+006  0.2244201E+01  0.7546771E-02  0.2833311E+00
         22   -1    0    0    0    0  0.00000000000E+00  0.00000000000E+00  0.76941711727E+01  0.76941711727E+01  0.00000000000E+00 0.  1.
         22   -1    0    0    0    0 -0.00000000000E+00 -0.00000000000E+00 -0.67674729353E+00  0.67674729353E+00  0.00000000000E+00 0.  1.
          4    1    1    2  501    0 -0.14964761497E+01 -0.10881627023E+01  0.42662439657E+01  0.48205058353E+01  0.12700000000E+01 0.  1.
         -4    1    1    2    0  501  0.14964761497E+01  0.10881627023E+01  0.27511799134E+01  0.35504126309E+01  0.12700000000E+01 0.  1.
<mgrwt>
<rscale>  0 0.22442012E+01</rscale>
<asrwt>0</asrwt>
<pdfrwt beam="1">0</pdfrwt>
<pdfrwt beam="2">0</pdfrwt>
<totfact> 0.33940250E+12</totfact>
</mgrwt>
</event>
<event>
 4    1  0.1699693E+006  0.3010249E+01  0.7546771E-02  0.2518951E+00
         22   -1    0    0    0    0  0.00000000000E+00  0.00000000000E+00  0.48484456031E+02  0.48484456031E+02  0.00000000000E+00 0. -1.
         22   -1    0    0    0    0 -0.00000000000E+00 -0.00000000000E+00 -0.19566500410E+00  0.19566500410E+00  0.00000000000E+00 0.  1.
          4    1    1    2  501    0 -0.27227411308E+01  0.18809947004E+00  0.29296857369E+02  0.29451102736E+02  0.12700000000E+01 0. -1.
         -4    1    1    2    0  501  0.27227411308E+01 -0.18809947004E+00  0.18991933658E+02  0.19229018299E+02  0.12700000000E+01 0.  1.
<mgrwt>
<rscale>  0 0.30102493E+01</rscale>
<asrwt>0</asrwt>
<pdfrwt beam="1">0</pdfrwt>
<pdfrwt beam="2">0</pdfrwt>
<totfact> 0.13743517E+12</totfact>
</mgrwt>
</event>
<event>
 4    1  0.1699693E+006  0.4221697E+01  0.7546771E-02  0.2236819E+00
         22   -1    0    0    0    0  0.00000000000E+00  0.00000000000E+00  0.22325480171E+01  0.22325480171E+01  0.00000000000E+00 0.  1.
         22   -1    0    0    0    0 -0.00000000000E+00 -0.00000000000E+00 -0.99175747606E+01  0.99175747606E+01  0.00000000000E+00 0. -1.
          4    1    1    2  501    0  0.13387375735E+01  0.37970526686E+01 -0.11594817970E+01  0.43780275577E+01  0.12700000000E+01 0.  1.
         -4    1    1    2    0  501 -0.13387375735E+01 -0.37970526686E+01 -0.65255449465E+01  0.77720952199E+01  0.12700000000E+01 0. -1.
<mgrwt>
<rscale>  0 0.42216972E+01</rscale>
<asrwt>0</asrwt>
<pdfrwt beam="1">0</pdfrwt>
<pdfrwt beam="2">0</pdfrwt>
<totfact> 0.63607912E+11</totfact>
</mgrwt>
</event>
<event>
 4    1  0.1699693E+006  0.2110037E+01  0.7546771E-02  0.2910214E+00
         22   -1    0    0    0    0  0.00000000000E+00  0.00000000000E+00  0.84626803109E+01  0.84626803109E+01  0.00000000000E+00 0. -1.
         22   -1    0    0    0    0 -0.00000000000E+00 -0.00000000000E+00 -0.75294256428E+00  0.75294256428E+00  0.00000000000E+00 0. -1.
          4    1    1    2  501    0 -0.77199367229E+00  0.14977930310E+01  0.63839996580E+01  0.67236678850E+01  0.12700000000E+01 0. -1.
         -4    1    1    2    0  501  0.77199367229E+00 -0.14977930310E+01  0.13257380886E+01  0.24919549902E+01  0.12700000000E+01 0. -1.
<mgrwt>
<rscale>  0 0.21100375E+01</rscale>
<asrwt>0</asrwt>
<pdfrwt beam="1">0</pdfrwt>
<pdfrwt beam="2">0</pdfrwt>
<totfact> 0.26816384E+12</totfact>
</mgrwt>
</event>
<event>
 4    1  0.1699693E+006  0.2567347E+01  0.7546771E-02  0.2679563E+00
         22   -1    0    0    0    0  0.00000000000E+00  0.00000000000E+00  0.40605684235E+00  0.40605684235E+00  0.00000000000E+00 0.  1.
         22   -1    0    0    0    0 -0.00000000000E+00 -0.00000000000E+00 -0.16554721758E+02  0.16554721758E+02  0.00000000000E+00 0.  1.
          4    1    1    2  501    0  0.14624947998E+01  0.16850761883E+01 -0.68910000125E+01  0.73537170174E+01  0.12700000000E+01 0.  1.
         -4    1    1    2    0  501 -0.14624947998E+01 -0.16850761883E+01 -0.92576649030E+01  0.96070615828E+01  0.12700000000E+01 0.  1.
<mgrwt>
<rscale>  0 0.25673474E+01</rscale>
<asrwt>0</asrwt>
<pdfrwt beam="1">0</pdfrwt>
<pdfrwt beam="2">0</pdfrwt>
<totfact> 0.23795076E+12</totfact>
</mgrwt>
</event>
<event>
 4    1  0.1699693E+006  0.2653580E+01  0.7546771E-02  0.2644464E+00
         22   -1    0    0    0    0  0.00000000000E+00  0.00000000000E+00  0.55324696785E+00  0.55324696785E+00  0.00000000000E+00 0. -1.
         22   -1    0    0    0    0 -0.00000000000E+00 -0.00000000000E+00 -0.13283098176E+02  0.13283098176E+02  0.00000000000E+00 0. -1.
          4    1    1    2  501    0 -0.54425611547E+00  0.22654733620E+01 -0.49501145451E+01  0.56165040980E+01  0.12700000000E+01 0. -1.
         -4    1    1    2    0  501  0.54425611547E+00 -0.22654733620E+01 -0.77797366631E+01  0.82198410459E+01  0.12700000000E+01 0. -1.
<mgrwt>
<rscale>  0 0.26535795E+01</rscale>
<asrwt>0</asrwt>
<pdfrwt beam="1">0</pdfrwt>
<pdfrwt beam="2">0</pdfrwt>
<totfact> 0.22005608E+12</totfact>
</mgrwt>
</event>
<event>
 4    1  0.1699693E+006  0.2854379E+01  0.7546771E-02  0.2570302E+00
         22   -1    0    0    0    0  0.00000000000E+00  0.00000000000E+00  0.42781422676E+00  0.42781422676E+00  0.00000000000E+00 0.  1.
         22   -1    0    0    0    0 -0.00000000000E+00 -0.00000000000E+00 -0.22927328048E+02  0.22927328048E+02  0.00000000000E+00 0. -1.
          4    1    1    2  501    0  0.25529241448E+01 -0.13098509874E+00 -0.64440895924E+01  0.70479620785E+01  0.12700000000E+01 0.  1.
         -4    1    1    2    0  501 -0.25529241448E+01  0.13098509874E+00 -0.16055424229E+02  0.16307180197E+02  0.12700000000E+01 0. -1.
<mgrwt>
<rscale>  0 0.28543789E+01</rscale>
<asrwt>0</asrwt>
<pdfrwt beam="1">0</pdfrwt>
<pdfrwt beam="2">0</pdfrwt>
<totfact> 0.14955687E+12</totfact>
</mgrwt>
</event>
<event>
 4    1  0.1699693E+006  0.2133494E+01  0.7546771E-02  0.2896097E+00
         22   -1    0    0    0    0  0.00000000000E+00  0.00000000000E+00  0.78857637906E+00  0.78857637906E+00  0.00000000000E+00 0. -1.
         22   -1    0    0    0    0 -0.00000000000E+00 -0.00000000000E+00 -0.58147781365E+01  0.58147781365E+01  0.00000000000E+00 0. -1.
          4    1    1    2  501    0  0.53249087497E+00  0.16295242967E+01 -0.22304694403E+01  0.30865498359E+01  0.12700000000E+01 0. -1.
         -4    1    1    2    0  501 -0.53249087497E+00 -0.16295242967E+01 -0.27957323172E+01  0.35168046797E+01  0.12700000000E+01 0. -1.
<mgrwt>
<rscale>  0 0.21334938E+01</rscale>
<asrwt>0</asrwt>
<pdfrwt beam="1">0</pdfrwt>
<pdfrwt beam="2">0</pdfrwt>
<totfact> 0.39860449E+12</totfact>
</mgrwt>
</event>
<event>
 4    1  0.1699693E+006  0.2124083E+01  0.7546771E-02  0.2901725E+00
         22   -1    0    0    0    0  0.00000000000E+00  0.00000000000E+00  0.32758110593E+01  0.32758110593E+01  0.00000000000E+00 0.  1.
         22   -1    0    0    0    0 -0.00000000000E+00 -0.00000000000E+00 -0.13989401876E+01  0.13989401876E+01  0.00000000000E+00 0. -1.
          4    1    1    2  501    0 -0.16190833268E+01  0.52668448262E+00  0.12292418679E+01  0.24541318085E+01  0.12700000000E+01 0.  1.
         -4    1    1    2    0  501  0.16190833268E+01 -0.52668448262E+00  0.64762900382E+00  0.22206194384E+01  0.12700000000E+01 0. -1.
<mgrwt>
<rscale>  0 0.21240827E+01</rscale>
<asrwt>0</asrwt>
<pdfrwt beam="1">0</pdfrwt>
<pdfrwt beam="2">0</pdfrwt>
<totfact> 0.40734971E+12</totfact>
</mgrwt>
</event>
<event>
 4    1  0.1699693E+006  0.2338734E+01  0.7546771E-02  0.2784199E+00
         22   -1    0    0    0    0  0.00000000000E+00  0.00000000000E+00  0.13361714375E+02  0.13361714375E+02  0.00000000000E+00 0.  1.
         22   -1    0    0    0    0 -0.00000000000E+00 -0.00000000000E+00 -0.12760262374E+01  0.12760262374E+01  0.00000000000E+00 0. -1.
          4    1    1    2  501    0  0.43264028083E+00 -0.19156197530E+01  0.12074569860E+02  0.12298980200E+02  0.12700000000E+01 0.  1.
         -4    1    1    2    0  501 -0.43264028083E+00  0.19156197530E+01  0.11118277434E-01  0.23387604124E+01  0.12700000000E+01 0. -1.
<mgrwt>
<rscale>  0 0.23387340E+01</rscale>
<asrwt>0</asrwt>
<pdfrwt beam="1">0</pdfrwt>
<pdfrwt beam="2">0</pdfrwt>
<totfact> 0.84354118E+11</totfact>
</mgrwt>
</event>
<event>
 4    1  0.1699693E+006  0.2152315E+01  0.7546771E-02  0.2884985E+00
         22   -1    0    0    0    0  0.00000000000E+00  0.00000000000E+00  0.79416961776E+01  0.79416961776E+01  0.00000000000E+00 0. -1.
         22   -1    0    0    0    0 -0.00000000000E+00 -0.00000000000E+00 -0.65146755028E+00  0.65146755028E+00  0.00000000000E+00 0. -1.
          4    1    1    2  501    0 -0.73140059200E+00  0.15762660066E+01  0.50348668436E+01  0.54756137082E+01  0.12700000000E+01 0. -1.
         -4    1    1    2    0  501  0.73140059200E+00 -0.15762660066E+01  0.22553617837E+01  0.31175500196E+01  0.12700000000E+01 0. -1.
<mgrwt>
<rscale>  0 0.21523153E+01</rscale>
<asrwt>0</asrwt>
<pdfrwt beam="1">0</pdfrwt>
<pdfrwt beam="2">0</pdfrwt>
<totfact> 0.34115389E+12</totfact>
</mgrwt>
</event>
<event>
 4    1  0.1699693E+006  0.2143442E+01  0.7546771E-02  0.2890201E+00
         22   -1    0    0    0    0  0.00000000000E+00  0.00000000000E+00  0.26372883804E+02  0.26372883804E+02  0.00000000000E+00 0.  1.
         22   -1    0    0    0    0 -0.00000000000E+00 -0.00000000000E+00 -0.19886237330E+00  0.19886237330E+00  0.00000000000E+00 0. -1.
          4    1    1    2  501    0 -0.25214118547E+00 -0.17081768003E+01  0.84089177242E+01  0.86778015909E+01  0.12700000000E+01 0.  1.
         -4    1    1    2    0  501  0.25214118547E+00  0.17081768003E+01  0.17765103707E+02  0.17893944587E+02  0.12700000000E+01 0.  1.
<mgrwt>
<rscale>  0 0.21434419E+01</rscale>
<asrwt>0</asrwt>
<pdfrwt beam="1">0</pdfrwt>
<pdfrwt beam="2">0</pdfrwt>
<totfact> 0.29585094E+12</totfact>
</mgrwt>
</event>
<event>
 4    1  0.1699693E+006  0.2158864E+01  0.7546771E-02  0.2881163E+00
         22   -1    0    0    0    0  0.00000000000E+00  0.00000000000E+00  0.15989472205E+01  0.15989472205E+01  0.00000000000E+00 0.  1.
         22   -1    0    0    0    0 -0.00000000000E+00 -0.00000000000E+00 -0.36602211656E+01  0.36602211656E+01  0.00000000000E+00 0. -1.
          4    1    1    2  501    0  0.13860631980E+01 -0.10614250225E+01  0.15600353901E+00  0.21644933290E+01  0.12700000000E+01 0.  1.
         -4    1    1    2    0  501 -0.13860631980E+01  0.10614250225E+01 -0.22172774842E+01  0.30946750571E+01  0.12700000000E+01 0. -1.
<mgrwt>
<rscale>  0 0.21588641E+01</rscale>
<asrwt>0</asrwt>
<pdfrwt beam="1">0</pdfrwt>
<pdfrwt beam="2">0</pdfrwt>
<totfact> 0.30669267E+12</totfact>
</mgrwt>
</event>
<event>
 4    1  0.1699693E+006  0.2038075E+01  0.7546771E-02  0.2955489E+00
         22   -1    0    0    0    0  0.00000000000E+00  0.00000000000E+00  0.56958336061E+01  0.56958336061E+01  0.00000000000E+00 0.  1.
         22   -1    0    0    0    0 -0.00000000000E+00 -0.00000000000E+00 -0.10224423147E+01  0.10224423147E+01  0.00000000000E+00 0. -1.
          4    1    1    2  501    0 -0.15312531165E+01 -0.44284637561E+00  0.41354697030E+01  0.46104076483E+01  0.12700000000E+01 0.  1.
         -4    1    1    2    0  501  0.15312531165E+01  0.44284637561E+00  0.53792158838E+00  0.21078682725E+01  0.12700000000E+01 0. -1.
<mgrwt>
<rscale>  0 0.20380748E+01</rscale>
<asrwt>0</asrwt>
<pdfrwt beam="1">0</pdfrwt>
<pdfrwt beam="2">0</pdfrwt>
<totfact> 0.30383159E+12</totfact>
</mgrwt>
</event>
<event>
 4    1  0.1699693E+006  0.3918701E+01  0.7546771E-02  0.2293110E+00
         22   -1    0    0    0    0  0.00000000000E+00  0.00000000000E+00  0.59007863718E+00  0.59007863718E+00  0.00000000000E+00 0. -1.
         22   -1    0    0    0    0 -0.00000000000E+00 -0.00000000000E+00 -0.26808464759E+02  0.26808464759E+02  0.00000000000E+00 0.  1.
          4    1    1    2  501    0 -0.19239982669E+01 -0.31688396037E+01 -0.15452584271E+02  0.15941724324E+02  0.12700000000E+01 0. -1.
         -4    1    1    2    0  501  0.19239982669E+01  0.31688396037E+01 -0.10765801850E+02  0.11456819072E+02  0.12700000000E+01 0. -1.
<mgrwt>
<rscale>  0 0.39187005E+01</rscale>
<asrwt>0</asrwt>
<pdfrwt beam="1">0</pdfrwt>
<pdfrwt beam="2">0</pdfrwt>
<totfact> 0.85400519E+11</totfact>
</mgrwt>
</event>
<event>
 4    1  0.1699693E+006  0.3231603E+01  0.7546771E-02  0.2453697E+00
         22   -1    0    0    0    0  0.00000000000E+00  0.00000000000E+00  0.49428488493E+00  0.49428488493E+00  0.00000000000E+00 0. -1.
         22   -1    0    0    0    0 -0.00000000000E+00 -0.00000000000E+00 -0.53570435310E+02  0.53570435310E+02  0.00000000000E+00 0.  1.
          4    1    1    2  501    0  0.23407316702E+01 -0.18306642779E+01 -0.55013551964E+01  0.63802950909E+01  0.12700000000E+01 0. -1.
         -4    1    1    2    0  501 -0.23407316702E+01  0.18306642779E+01 -0.47574795229E+02  0.47684425104E+02  0.12700000000E+01 0.  1.
<mgrwt>
<rscale>  0 0.32316028E+01</rscale>
<asrwt>0</asrwt>
<pdfrwt beam="1">0</pdfrwt>
<pdfrwt beam="2">0</pdfrwt>
<totfact> 0.42594414E+11</totfact>
</mgrwt>
</event>
<event>
 4    1  0.1699693E+006  0.2656070E+01  0.7546771E-02  0.2643482E+00
         22   -1    0    0    0    0  0.00000000000E+00  0.00000000000E+00  0.14415011131E+01  0.14415011131E+01  0.00000000000E+00 0. -1.
         22   -1    0    0    0    0 -0.00000000000E+00 -0.00000000000E+00 -0.93121999404E+01  0.93121999404E+01  0.00000000000E+00 0.  1.
          4    1    1    2  501    0  0.18669062289E+01  0.13987392403E+01 -0.23174691979E+00  0.26661614664E+01  0.12700000000E+01 0. -1.
         -4    1    1    2    0  501 -0.18669062289E+01 -0.13987392403E+01 -0.76389519075E+01  0.80875395872E+01  0.12700000000E+01 0.  1.
<mgrwt>
<rscale>  0 0.26560705E+01</rscale>
<asrwt>0</asrwt>
<pdfrwt beam="1">0</pdfrwt>
<pdfrwt beam="2">0</pdfrwt>
<totfact> 0.11375844E+12</totfact>
</mgrwt>
</event>
<event>
 4    1  0.1699693E+006  0.2107286E+01  0.7546771E-02  0.2911890E+00
         22   -1    0    0    0    0  0.00000000000E+00  0.00000000000E+00  0.36329173627E+01  0.36329173627E+01  0.00000000000E+00 0.  1.
         22   -1    0    0    0    0 -0.00000000000E+00 -0.00000000000E+00 -0.12229059382E+01  0.12229059382E+01  0.00000000000E+00 0.  1.
          4    1    1    2  501    0  0.12870600027E+01  0.10822344722E+01  0.12573031651E+01  0.24538675906E+01  0.12700000000E+01 0.  1.
         -4    1    1    2    0  501 -0.12870600027E+01 -0.10822344722E+01  0.11527082594E+01  0.24019557104E+01  0.12700000000E+01 0.  1.
<mgrwt>
<rscale>  0 0.21072861E+01</rscale>
<asrwt>0</asrwt>
<pdfrwt beam="1">0</pdfrwt>
<pdfrwt beam="2">0</pdfrwt>
<totfact> 0.42103189E+12</totfact>
</mgrwt>
</event>
<event>
 4    1  0.1699693E+006  0.3456451E+01  0.7546771E-02  0.2395040E+00
         22   -1    0    0    0    0  0.00000000000E+00  0.00000000000E+00  0.26205228153E+02  0.26205228153E+02  0.00000000000E+00 0. -1.
         22   -1    0    0    0    0 -0.00000000000E+00 -0.00000000000E+00 -0.45973042148E+00  0.45973042148E+00  0.00000000000E+00 0.  1.
          4    1    1    2  501    0  0.24918372852E+01 -0.20309858188E+01  0.11656334803E+02  0.12158009603E+02  0.12700000000E+01 0. -1.
         -4    1    1    2    0  501 -0.24918372852E+01  0.20309858188E+01  0.14089162928E+02  0.14506948972E+02  0.12700000000E+01 0. -1.
<mgrwt>
<rscale>  0 0.34564514E+01</rscale>
<asrwt>0</asrwt>
<pdfrwt beam="1">0</pdfrwt>
<pdfrwt beam="2">0</pdfrwt>
<totfact> 0.11653588E+12</totfact>
</mgrwt>
</event>
<event>
 4    1  0.1699693E+006  0.2441788E+01  0.7546771E-02  0.2734764E+00
         22   -1    0    0    0    0  0.00000000000E+00  0.00000000000E+00  0.84736142754E+01  0.84736142754E+01  0.00000000000E+00 0. -1.
         22   -1    0    0    0    0 -0.00000000000E+00 -0.00000000000E+00 -0.71105776559E+00  0.71105776559E+00  0.00000000000E+00 0.  1.
          4    1    1    2  501    0  0.35476344581E+00 -0.20551330813E+01  0.43504941399E+01  0.49889005147E+01  0.12700000000E+01 0. -1.
         -4    1    1    2    0  501 -0.35476344581E+00  0.20551330813E+01  0.34120623699E+01  0.41957715263E+01  0.12700000000E+01 0.  1.
<mgrwt>
<rscale>  0 0.24417881E+01</rscale>
<asrwt>0</asrwt>
<pdfrwt beam="1">0</pdfrwt>
<pdfrwt beam="2">0</pdfrwt>
<totfact> 0.28574948E+12</totfact>
</mgrwt>
</event>
<event>
 4    1  0.1699693E+006  0.3870046E+01  0.7546771E-02  0.2302846E+00
         22   -1    0    0    0    0  0.00000000000E+00  0.00000000000E+00  0.68719549268E+01  0.68719549268E+01  0.00000000000E+00 0.  1.
         22   -1    0    0    0    0 -0.00000000000E+00 -0.00000000000E+00 -0.30473756541E+01  0.30473756541E+01  0.00000000000E+00 0. -1.
          4    1    1    2  501    0 -0.27819860034E+01 -0.23716887831E+01  0.45591095004E+01  0.59801950841E+01  0.12700000000E+01 0.  1.
         -4    1    1    2    0  501  0.27819860034E+01  0.23716887831E+01 -0.73453022758E+00  0.39391354968E+01  0.12700000000E+01 0. -1.
<mgrwt>
<rscale>  0 0.38700457E+01</rscale>
<asrwt>0</asrwt>
<pdfrwt beam="1">0</pdfrwt>
<pdfrwt beam="2">0</pdfrwt>
<totfact> 0.68835444E+11</totfact>
</mgrwt>
</event>
<event>
 4    1  0.1699693E+006  0.2182989E+01  0.7546771E-02  0.2867271E+00
         22   -1    0    0    0    0  0.00000000000E+00  0.00000000000E+00  0.41395765205E+01  0.41395765205E+01  0.00000000000E+00 0.  1.
         22   -1    0    0    0    0 -0.00000000000E+00 -0.00000000000E+00 -0.47741270894E+01  0.47741270894E+01  0.00000000000E+00 0.  1.
          4    1    1    2  501    0 -0.14270874852E+01  0.10563909139E+01  0.35652257697E+01  0.41804635200E+01  0.12700000000E+01 0.  1.
         -4    1    1    2    0  501  0.14270874852E+01 -0.10563909139E+01 -0.41997763387E+01  0.47332400899E+01  0.12700000000E+01 0.  1.
<mgrwt>
<rscale>  0 0.21829889E+01</rscale>
<asrwt>0</asrwt>
<pdfrwt beam="1">0</pdfrwt>
<pdfrwt beam="2">0</pdfrwt>
<totfact> 0.74091197E+11</totfact>
</mgrwt>
</event>
<event>
 4    1  0.1699693E+006  0.2152034E+01  0.7546771E-02  0.2885150E+00
         22   -1    0    0    0    0  0.00000000000E+00  0.00000000000E+00  0.23257190041E+00  0.23257190041E+00  0.00000000000E+00 0.  1.
         22   -1    0    0    0    0 -0.00000000000E+00 -0.00000000000E+00 -0.20327841076E+02  0.20327841076E+02  0.00000000000E+00 0.  1.
          4    1    1    2  501    0 -0.14888983387E+01  0.89528241028E+00 -0.85793958707E+01  0.88451841339E+01  0.12700000000E+01 0.  1.
         -4    1    1    2    0  501  0.14888983387E+01 -0.89528241028E+00 -0.11515873305E+02  0.11715228842E+02  0.12700000000E+01 0.  1.
<mgrwt>
<rscale>  0 0.21520337E+01</rscale>
<asrwt>0</asrwt>
<pdfrwt beam="1">0</pdfrwt>
<pdfrwt beam="2">0</pdfrwt>
<totfact> 0.34450347E+12</totfact>
</mgrwt>
</event>
<event>
 4    1  0.1699693E+006  0.4249164E+01  0.7546771E-02  0.2232054E+00
         22   -1    0    0    0    0  0.00000000000E+00  0.00000000000E+00  0.42404421487E+01  0.42404421487E+01  0.00000000000E+00 0.  1.
         22   -1    0    0    0    0 -0.00000000000E+00 -0.00000000000E+00 -0.56045121230E+01  0.56045121230E+01  0.00000000000E+00 0. -1.
          4    1    1    2  501    0 -0.27983788184E+01 -0.29345473671E+01  0.17308440066E+01  0.45881601145E+01  0.12700000000E+01 0.  1.
         -4    1    1    2    0  501  0.27983788184E+01  0.29345473671E+01 -0.30949139808E+01  0.52567941571E+01  0.12700000000E+01 0. -1.
<mgrwt>
<rscale>  0 0.42491637E+01</rscale>
<asrwt>0</asrwt>
<pdfrwt beam="1">0</pdfrwt>
<pdfrwt beam="2">0</pdfrwt>
<totfact> 0.59558193E+11</totfact>
</mgrwt>
</event>
<event>
 4    1  0.1699693E+006  0.2634131E+01  0.7546771E-02  0.2652195E+00
         22   -1    0    0    0    0  0.00000000000E+00  0.00000000000E+00  0.24906336457E+01  0.24906336457E+01  0.00000000000E+00 0. -1.
         22   -1    0    0    0    0 -0.00000000000E+00 -0.00000000000E+00 -0.44383462028E+01  0.44383462028E+01  0.00000000000E+00 0. -1.
          4    1    1    2  501    0 -0.21467689196E+01 -0.84683439955E+00  0.11400851933E+01  0.28702682005E+01  0.12700000000E+01 0. -1.
         -4    1    1    2    0  501  0.21467689196E+01  0.84683439955E+00 -0.30877977504E+01  0.40587116480E+01  0.12700000000E+01 0. -1.
<mgrwt>
<rscale>  0 0.26341308E+01</rscale>
<asrwt>0</asrwt>
<pdfrwt beam="1">0</pdfrwt>
<pdfrwt beam="2">0</pdfrwt>
<totfact> 0.14635686E+12</totfact>
</mgrwt>
</event>
<event>
 4    1  0.1699693E+006  0.2358927E+01  0.7546771E-02  0.2774193E+00
         22   -1    0    0    0    0  0.00000000000E+00  0.00000000000E+00  0.39079762406E+01  0.39079762406E+01  0.00000000000E+00 0. -1.
         22   -1    0    0    0    0 -0.00000000000E+00 -0.00000000000E+00 -0.20080935209E+01  0.20080935209E+01  0.00000000000E+00 0. -1.
          4    1    1    2  501    0 -0.76968032364E+00 -0.18328196367E+01  0.25454263066E+01  0.34704078584E+01  0.12700000000E+01 0. -1.
         -4    1    1    2    0  501  0.76968032364E+00  0.18328196367E+01 -0.64554358688E+00  0.24456619030E+01  0.12700000000E+01 0. -1.
<mgrwt>
<rscale>  0 0.23589268E+01</rscale>
<asrwt>0</asrwt>
<pdfrwt beam="1">0</pdfrwt>
<pdfrwt beam="2">0</pdfrwt>
<totfact> 0.21828737E+12</totfact>
</mgrwt>
</event>
<event>
 4    1  0.1699693E+006  0.2502620E+01  0.7546771E-02  0.2707376E+00
         22   -1    0    0    0    0  0.00000000000E+00  0.00000000000E+00  0.20795511632E+01  0.20795511632E+01  0.00000000000E+00 0.  1.
         22   -1    0    0    0    0 -0.00000000000E+00 -0.00000000000E+00 -0.98962285517E+01  0.98962285517E+01  0.00000000000E+00 0. -1.
          4    1    1    2  501    0 -0.20106229946E+01  0.77948882409E+00 -0.89026335134E+01  0.92477019376E+01  0.12700000000E+01 0. -1.
         -4    1    1    2    0  501  0.20106229946E+01 -0.77948882409E+00  0.10859561249E+01  0.27280777772E+01  0.12700000000E+01 0.  1.
<mgrwt>
<rscale>  0 0.25026202E+01</rscale>
<asrwt>0</asrwt>
<pdfrwt beam="1">0</pdfrwt>
<pdfrwt beam="2">0</pdfrwt>
<totfact> 0.69242680E+11</totfact>
</mgrwt>
</event>
<event>
 4    1  0.1699693E+006  0.2041401E+01  0.7546771E-02  0.2953328E+00
         22   -1    0    0    0    0  0.00000000000E+00  0.00000000000E+00  0.33116517225E+02  0.33116517225E+02  0.00000000000E+00 0.  1.
         22   -1    0    0    0    0 -0.00000000000E+00 -0.00000000000E+00 -0.12733714176E+00  0.12733714176E+00  0.00000000000E+00 0. -1.
          4    1    1    2  501    0 -0.65731524220E+00 -0.14568308992E+01  0.18298067569E+02  0.18411588643E+02  0.12700000000E+01 0. -1.
         -4    1    1    2    0  501  0.65731524220E+00  0.14568308992E+01  0.14691112514E+02  0.14832265724E+02  0.12700000000E+01 0.  1.
<mgrwt>
<rscale>  0 0.20414014E+01</rscale>
<asrwt>0</asrwt>
<pdfrwt beam="1">0</pdfrwt>
<pdfrwt beam="2">0</pdfrwt>
<totfact> 0.36352554E+12</totfact>
</mgrwt>
</event>
<event>
 4    1  0.1699693E+006  0.2218847E+01  0.7546771E-02  0.2847160E+00
         22   -1    0    0    0    0  0.00000000000E+00  0.00000000000E+00  0.34400191846E+01  0.34400191846E+01  0.00000000000E+00 0.  1.
         22   -1    0    0    0    0 -0.00000000000E+00 -0.00000000000E+00 -0.29029779383E+01  0.29029779383E+01  0.00000000000E+00 0.  1.
          4    1    1    2  501    0  0.10642663048E+01 -0.14757097316E+01  0.25267442492E+01  0.33626951215E+01  0.12700000000E+01 0.  1.
         -4    1    1    2    0  501 -0.10642663048E+01  0.14757097316E+01 -0.19897030030E+01  0.29803020014E+01  0.12700000000E+01 0.  1.
<mgrwt>
<rscale>  0 0.22188470E+01</rscale>
<asrwt>0</asrwt>
<pdfrwt beam="1">0</pdfrwt>
<pdfrwt beam="2">0</pdfrwt>
<totfact> 0.16520098E+12</totfact>
</mgrwt>
</event>
<event>
 4    1  0.1699693E+006  0.7697385E+01  0.7546771E-02  0.1894264E+00
         22   -1    0    0    0    0  0.00000000000E+00  0.00000000000E+00  0.11906591952E+02  0.11906591952E+02  0.00000000000E+00 0. -1.
         22   -1    0    0    0    0 -0.00000000000E+00 -0.00000000000E+00 -0.51389076874E+01  0.51389076874E+01  0.00000000000E+00 0.  1.
          4    1    1    2  501    0  0.65864953266E+01  0.37755687701E+01  0.49003013311E+01  0.91248393608E+01  0.12700000000E+01 0.  1.
         -4    1    1    2    0  501 -0.65864953266E+01 -0.37755687701E+01  0.18673829332E+01  0.79206602783E+01  0.12700000000E+01 0. -1.
<mgrwt>
<rscale>  0 0.76973853E+01</rscale>
<asrwt>0</asrwt>
<pdfrwt beam="1">0</pdfrwt>
<pdfrwt beam="2">0</pdfrwt>
<totfact> 0.19175449E+11</totfact>
</mgrwt>
</event>
<event>
 4    1  0.1699693E+006  0.2404468E+01  0.7546771E-02  0.2752206E+00
         22   -1    0    0    0    0  0.00000000000E+00  0.00000000000E+00  0.55683262002E+00  0.55683262002E+00  0.00000000000E+00 0.  1.
         22   -1    0    0    0    0 -0.00000000000E+00 -0.00000000000E+00 -0.19871732515E+02  0.19871732515E+02  0.00000000000E+00 0. -1.
          4    1    1    2  501    0  0.19958549070E+01  0.43026494704E+00 -0.25991618818E+01  0.35407777708E+01  0.12700000000E+01 0.  1.
         -4    1    1    2    0  501 -0.19958549070E+01 -0.43026494704E+00 -0.16715738014E+02  0.16887787365E+02  0.12700000000E+01 0. -1.
<mgrwt>
<rscale>  0 0.24044677E+01</rscale>
<asrwt>0</asrwt>
<pdfrwt beam="1">0</pdfrwt>
<pdfrwt beam="2">0</pdfrwt>
<totfact> 0.13282693E+12</totfact>
</mgrwt>
</event>
<event>
 4    1  0.1699693E+006  0.2088969E+01  0.7546771E-02  0.2923155E+00
         22   -1    0    0    0    0  0.00000000000E+00  0.00000000000E+00  0.97004663821E+02  0.97004663821E+02  0.00000000000E+00 0. -1.
         22   -1    0    0    0    0 -0.00000000000E+00 -0.00000000000E+00 -0.31165508563E+00  0.31165508563E+00  0.00000000000E+00 0. -1.
          4    1    1    2  501    0  0.64605488139E+00 -0.15275806430E+01  0.93356132708E+02  0.93379501518E+02  0.12700000000E+01 0. -1.
         -4    1    1    2    0  501 -0.64605488139E+00  0.15275806430E+01  0.33368760275E+01  0.39368173889E+01  0.12700000000E+01 0. -1.
<mgrwt>
<rscale>  0 0.20889685E+01</rscale>
<asrwt>0</asrwt>
<pdfrwt beam="1">0</pdfrwt>
<pdfrwt beam="2">0</pdfrwt>
<totfact> 0.31880875E+11</totfact>
</mgrwt>
</event>
<event>
 4    1  0.1699693E+006  0.2413180E+01  0.7546771E-02  0.2748089E+00
         22   -1    0    0    0    0  0.00000000000E+00  0.00000000000E+00  0.18686921642E+01  0.18686921642E+01  0.00000000000E+00 0. -1.
         22   -1    0    0    0    0 -0.00000000000E+00 -0.00000000000E+00 -0.78015884567E+01  0.78015884567E+01  0.00000000000E+00 0.  1.
          4    1    1    2  501    0  0.53272517298E+00 -0.19816005180E+01  0.78056272211E+00  0.25362797334E+01  0.12700000000E+01 0. -1.
         -4    1    1    2    0  501 -0.53272517298E+00  0.19816005180E+01 -0.67134590146E+01  0.71340008875E+01  0.12700000000E+01 0.  1.
<mgrwt>
<rscale>  0 0.24131798E+01</rscale>
<asrwt>0</asrwt>
<pdfrwt beam="1">0</pdfrwt>
<pdfrwt beam="2">0</pdfrwt>
<totfact> 0.10437391E+12</totfact>
</mgrwt>
</event>
<event>
 4    1  0.1699693E+006  0.2761753E+01  0.7546771E-02  0.2603290E+00
         22   -1    0    0    0    0  0.00000000000E+00  0.00000000000E+00  0.25220113362E+00  0.25220113362E+00  0.00000000000E+00 0.  1.
         22   -1    0    0    0    0 -0.00000000000E+00 -0.00000000000E+00 -0.37589749004E+02  0.37589749004E+02  0.00000000000E+00 0.  1.
          4    1    1    2  501    0  0.58362103491E+00 -0.23819674189E+01 -0.10303875163E+02  0.10667573561E+02  0.12700000000E+01 0.  1.
         -4    1    1    2    0  501 -0.58362103491E+00  0.23819674189E+01 -0.27033672707E+02  0.27174376577E+02  0.12700000000E+01 0.  1.
<mgrwt>
<rscale>  0 0.27617535E+01</rscale>
<asrwt>0</asrwt>
<pdfrwt beam="1">0</pdfrwt>
<pdfrwt beam="2">0</pdfrwt>
<totfact> 0.14423849E+12</totfact>
</mgrwt>
</event>
<event>
 4    1  0.1699693E+006  0.2256235E+01  0.7546771E-02  0.2826842E+00
         22   -1    0    0    0    0  0.00000000000E+00  0.00000000000E+00  0.16214766352E+01  0.16214766352E+01  0.00000000000E+00 0. -1.
         22   -1    0    0    0    0 -0.00000000000E+00 -0.00000000000E+00 -0.13263532298E+02  0.13263532298E+02  0.00000000000E+00 0.  1.
          4    1    1    2  501    0 -0.55439642088E+00  0.17805451876E+01  0.68126693621E+00  0.23568456027E+01  0.12700000000E+01 0. -1.
         -4    1    1    2    0  501  0.55439642088E+00 -0.17805451876E+01 -0.12323322599E+02  0.12528163330E+02  0.12700000000E+01 0.  1.
<mgrwt>
<rscale>  0 0.22562350E+01</rscale>
<asrwt>0</asrwt>
<pdfrwt beam="1">0</pdfrwt>
<pdfrwt beam="2">0</pdfrwt>
<totfact> 0.64624099E+11</totfact>
</mgrwt>
</event>
<event>
 4    1  0.1699693E+006  0.2641701E+01  0.7546771E-02  0.2649173E+00
         22   -1    0    0    0    0  0.00000000000E+00  0.00000000000E+00  0.10165571942E+01  0.10165571942E+01  0.00000000000E+00 0. -1.
         22   -1    0    0    0    0 -0.00000000000E+00 -0.00000000000E+00 -0.93940602288E+01  0.93940602288E+01  0.00000000000E+00 0.  1.
          4    1    1    2  501    0 -0.23114257953E+01  0.15164790826E+00 -0.14878666824E+01  0.30318861390E+01  0.12700000000E+01 0. -1.
         -4    1    1    2    0  501  0.23114257953E+01 -0.15164790826E+00 -0.68896363522E+01  0.73787312839E+01  0.12700000000E+01 0. -1.
<mgrwt>
<rscale>  0 0.26417014E+01</rscale>
<asrwt>0</asrwt>
<pdfrwt beam="1">0</pdfrwt>
<pdfrwt beam="2">0</pdfrwt>
<totfact> 0.16796264E+12</totfact>
</mgrwt>
</event>
<event>
 4    1  0.1699693E+006  0.2258977E+01  0.7546771E-02  0.2825377E+00
         22   -1    0    0    0    0  0.00000000000E+00  0.00000000000E+00  0.57261735633E+01  0.57261735633E+01  0.00000000000E+00 0. -1.
         22   -1    0    0    0    0 -0.00000000000E+00 -0.00000000000E+00 -0.17569182338E+01  0.17569182338E+01  0.00000000000E+00 0.  1.
          4    1    1    2  501    0  0.18345303389E+01 -0.35295519532E+00  0.46110936051E+01  0.51347018579E+01  0.12700000000E+01 0. -1.
         -4    1    1    2    0  501 -0.18345303389E+01  0.35295519532E+00 -0.64183827561E+00  0.23483899391E+01  0.12700000000E+01 0.  1.
<mgrwt>
<rscale>  0 0.22589774E+01</rscale>
<asrwt>0</asrwt>
<pdfrwt beam="1">0</pdfrwt>
<pdfrwt beam="2">0</pdfrwt>
<totfact> 0.16216528E+12</totfact>
</mgrwt>
</event>
<event>
 4    1  0.1699693E+006  0.2329917E+01  0.7546771E-02  0.2788620E+00
         22   -1    0    0    0    0  0.00000000000E+00  0.00000000000E+00  0.11052573421E+01  0.11052573421E+01  0.00000000000E+00 0. -1.
         22   -1    0    0    0    0 -0.00000000000E+00 -0.00000000000E+00 -0.60665843675E+01  0.60665843675E+01  0.00000000000E+00 0.  1.
          4    1    1    2  501    0 -0.11488520729E+01 -0.15797944552E+01 -0.91597245815E+00  0.25035009787E+01  0.12700000000E+01 0. -1.
         -4    1    1    2    0  501  0.11488520729E+01  0.15797944552E+01 -0.40453545672E+01  0.46683407309E+01  0.12700000000E+01 0.  1.
<mgrwt>
<rscale>  0 0.23299167E+01</rscale>
<asrwt>0</asrwt>
<pdfrwt beam="1">0</pdfrwt>
<pdfrwt beam="2">0</pdfrwt>
<totfact> 0.25787639E+12</totfact>
</mgrwt>
</event>
<event>
 4    1  0.1699693E+006  0.3141933E+01  0.7546771E-02  0.2479145E+00
         22   -1    0    0    0    0  0.00000000000E+00  0.00000000000E+00  0.12543265950E+01  0.12543265950E+01  0.00000000000E+00 0.  1.
         22   -1    0    0    0    0 -0.00000000000E+00 -0.00000000000E+00 -0.82717395772E+01  0.82717395772E+01  0.00000000000E+00 0. -1.
          4    1    1    2  501    0 -0.21022177753E+01  0.19594700757E+01 -0.24592253945E+01  0.39899288332E+01  0.12700000000E+01 0. -1.
         -4    1    1    2    0  501  0.21022177753E+01 -0.19594700757E+01 -0.45581875877E+01  0.55361373391E+01  0.12700000000E+01 0.  1.
<mgrwt>
<rscale>  0 0.31419329E+01</rscale>
<asrwt>0</asrwt>
<pdfrwt beam="1">0</pdfrwt>
<pdfrwt beam="2">0</pdfrwt>
<totfact> 0.15394393E+12</totfact>
</mgrwt>
</event>
<event>
 4    1  0.1699693E+006  0.3674264E+01  0.7546771E-02  0.2344249E+00
         22   -1    0    0    0    0  0.00000000000E+00  0.00000000000E+00  0.15860201336E+01  0.15860201336E+01  0.00000000000E+00 0.  1.
         22   -1    0    0    0    0 -0.00000000000E+00 -0.00000000000E+00 -0.94337694689E+01  0.94337694689E+01  0.00000000000E+00 0. -1.
          4    1    1    2  501    0  0.34475456719E+01 -0.41761404948E-01 -0.22015695792E+01  0.42833542682E+01  0.12700000000E+01 0. -1.
         -4    1    1    2    0  501 -0.34475456719E+01  0.41761404948E-01 -0.56461797561E+01  0.67364353343E+01  0.12700000000E+01 0.  1.
<mgrwt>
<rscale>  0 0.36742639E+01</rscale>
<asrwt>0</asrwt>
<pdfrwt beam="1">0</pdfrwt>
<pdfrwt beam="2">0</pdfrwt>
<totfact> 0.10033099E+12</totfact>
</mgrwt>
</event>
<event>
 4    1  0.1699693E+006  0.2011639E+01  0.7546771E-02  0.2972914E+00
         22   -1    0    0    0    0  0.00000000000E+00  0.00000000000E+00  0.11086549998E+00  0.11086549998E+00  0.00000000000E+00 0. -1.
         22   -1    0    0    0    0 -0.00000000000E+00 -0.00000000000E+00 -0.50463579679E+02  0.50463579679E+02  0.00000000000E+00 0.  1.
          4    1    1    2  501    0 -0.15585498038E+01 -0.68647847256E-01 -0.11874981300E+02  0.12044163354E+02  0.12700000000E+01 0. -1.
         -4    1    1    2    0  501  0.15585498038E+01  0.68647847256E-01 -0.38477732880E+02  0.38530281826E+02  0.12700000000E+01 0.  1.
<mgrwt>
<rscale>  0 0.20116386E+01</rscale>
<asrwt>0</asrwt>
<pdfrwt beam="1">0</pdfrwt>
<pdfrwt beam="2">0</pdfrwt>
<totfact> 0.24513102E+12</totfact>
</mgrwt>
</event>
<event>
 4    1  0.1699693E+006  0.5068852E+01  0.7546771E-02  0.2114874E+00
         22   -1    0    0    0    0  0.00000000000E+00  0.00000000000E+00  0.56328004885E+01  0.56328004885E+01  0.00000000000E+00 0.  1.
         22   -1    0    0    0    0 -0.00000000000E+00 -0.00000000000E+00 -0.49750187948E+01  0.49750187948E+01  0.00000000000E+00 0.  1.
          4    1    1    2  501    0 -0.37011200502E+01  0.32221224300E+01 -0.12004945062E+01  0.52090737794E+01  0.12700000000E+01 0.  1.
         -4    1    1    2    0  501  0.37011200502E+01 -0.32221224300E+01  0.18582761999E+01  0.53987455038E+01  0.12700000000E+01 0.  1.
<mgrwt>
<rscale>  0 0.50688522E+01</rscale>
<asrwt>0</asrwt>
<pdfrwt beam="1">0</pdfrwt>
<pdfrwt beam="2">0</pdfrwt>
<totfact> 0.49021821E+11</totfact>
</mgrwt>
</event>
<event>
 4    1  0.1699693E+006  0.2146948E+01  0.7546771E-02  0.2888135E+00
         22   -1    0    0    0    0  0.00000000000E+00  0.00000000000E+00  0.49813064625E+02  0.49813064625E+02  0.00000000000E+00 0. -1.
         22   -1    0    0    0    0 -0.00000000000E+00 -0.00000000000E+00 -0.66763883108E+00  0.66763883108E+00  0.00000000000E+00 0.  1.
          4    1    1    2  501    0  0.13164710717E+01 -0.11240057184E+01  0.47998718709E+02  0.48046710425E+02  0.12700000000E+01 0. -1.
         -4    1    1    2    0  501 -0.13164710717E+01  0.11240057184E+01  0.11467070848E+01  0.24339930312E+01  0.12700000000E+01 0.  1.
<mgrwt>
<rscale>  0 0.21469478E+01</rscale>
<asrwt>0</asrwt>
<pdfrwt beam="1">0</pdfrwt>
<pdfrwt beam="2">0</pdfrwt>
<totfact> 0.33367125E+11</totfact>
</mgrwt>
</event>
<event>
 4    1  0.1699693E+006  0.2046116E+01  0.7546771E-02  0.2950276E+00
         22   -1    0    0    0    0  0.00000000000E+00  0.00000000000E+00  0.69209942514E+00  0.69209942514E+00  0.00000000000E+00 0.  1.
         22   -1    0    0    0    0 -0.00000000000E+00 -0.00000000000E+00 -0.80189794845E+01  0.80189794845E+01  0.00000000000E+00 0. -1.
          4    1    1    2  501    0 -0.78033966469E+00 -0.14016988813E+01 -0.15046994298E+01  0.25398248208E+01  0.12700000000E+01 0.  1.
         -4    1    1    2    0  501  0.78033966469E+00  0.14016988813E+01 -0.58221806295E+01  0.61712540888E+01  0.12700000000E+01 0. -1.
<mgrwt>
<rscale>  0 0.20461158E+01</rscale>
<asrwt>0</asrwt>
<pdfrwt beam="1">0</pdfrwt>
<pdfrwt beam="2">0</pdfrwt>
<totfact> 0.31483151E+12</totfact>
</mgrwt>
</event>
<event>
 4    1  0.1699693E+006  0.2555098E+01  0.7546771E-02  0.2684726E+00
         22   -1    0    0    0    0  0.00000000000E+00  0.00000000000E+00  0.46381493200E+01  0.46381493200E+01  0.00000000000E+00 0.  1.
         22   -1    0    0    0    0 -0.00000000000E+00 -0.00000000000E+00 -0.15996870073E+01  0.15996870073E+01  0.00000000000E+00 0. -1.
          4    1    1    2  501    0 -0.21679535434E+01  0.46433262461E+00  0.26000864306E+01  0.36454048882E+01  0.12700000000E+01 0. -1.
         -4    1    1    2    0  501  0.21679535434E+01 -0.46433262461E+00  0.43837588211E+00  0.25924314391E+01  0.12700000000E+01 0.  1.
<mgrwt>
<rscale>  0 0.25550983E+01</rscale>
<asrwt>0</asrwt>
<pdfrwt beam="1">0</pdfrwt>
<pdfrwt beam="2">0</pdfrwt>
<totfact> 0.23194356E+12</totfact>
</mgrwt>
</event>
<event>
 4    1  0.1699693E+006  0.2495524E+01  0.7546771E-02  0.2710507E+00
         22   -1    0    0    0    0  0.00000000000E+00  0.00000000000E+00  0.11422921486E+02  0.11422921486E+02  0.00000000000E+00 0.  1.
         22   -1    0    0    0    0 -0.00000000000E+00 -0.00000000000E+00 -0.13260248497E+01  0.13260248497E+01  0.00000000000E+00 0. -1.
          4    1    1    2  501    0 -0.10306507960E+01 -0.18848071078E+01  0.99400224120E+01  0.10248496692E+02  0.12700000000E+01 0.  1.
         -4    1    1    2    0  501  0.10306507960E+01  0.18848071078E+01  0.15687422414E+00  0.25004496434E+01  0.12700000000E+01 0. -1.
<mgrwt>
<rscale>  0 0.24955238E+01</rscale>
<asrwt>0</asrwt>
<pdfrwt beam="1">0</pdfrwt>
<pdfrwt beam="2">0</pdfrwt>
<totfact> 0.97740805E+11</totfact>
</mgrwt>
</event>
<event>
 4    1  0.1699693E+006  0.2538122E+01  0.7546771E-02  0.2691958E+00
         22   -1    0    0    0    0  0.00000000000E+00  0.00000000000E+00  0.98326481647E+01  0.98326481647E+01  0.00000000000E+00 0. -1.
         22   -1    0    0    0    0 -0.00000000000E+00 -0.00000000000E+00 -0.71902332102E+00  0.71902332102E+00  0.00000000000E+00 0.  1.
          4    1    1    2  501    0  0.18141334713E+01 -0.12401951519E+01  0.61290156997E+01  0.66337694951E+01  0.12700000000E+01 0. -1.
         -4    1    1    2    0  501 -0.18141334713E+01  0.12401951519E+01  0.29846091440E+01  0.39179019907E+01  0.12700000000E+01 0.  1.
<mgrwt>
<rscale>  0 0.25381222E+01</rscale>
<asrwt>0</asrwt>
<pdfrwt beam="1">0</pdfrwt>
<pdfrwt beam="2">0</pdfrwt>
<totfact> 0.23578988E+12</totfact>
</mgrwt>
</event>
<event>
 4    1  0.1699693E+006  0.2526712E+01  0.7546771E-02  0.2696870E+00
         22   -1    0    0    0    0  0.00000000000E+00  0.00000000000E+00  0.13338275830E+02  0.13338275830E+02  0.00000000000E+00 0.  1.
         22   -1    0    0    0    0 -0.00000000000E+00 -0.00000000000E+00 -0.48091042201E+00  0.48091042201E+00  0.00000000000E+00 0.  1.
          4    1    1    2  501    0 -0.11996011507E+01 -0.18254667560E+01  0.69031328453E+01  0.73510213493E+01  0.12700000000E+01 0.  1.
         -4    1    1    2    0  501  0.11996011507E+01  0.18254667560E+01  0.59542325624E+01  0.64681649025E+01  0.12700000000E+01 0.  1.
<mgrwt>
<rscale>  0 0.25267117E+01</rscale>
<asrwt>0</asrwt>
<pdfrwt beam="1">0</pdfrwt>
<pdfrwt beam="2">0</pdfrwt>
<totfact> 0.25649406E+12</totfact>
</mgrwt>
</event>
<event>
 4    1  0.1699693E+006  0.2979537E+01  0.7546771E-02  0.2528686E+00
         22   -1    0    0    0    0  0.00000000000E+00  0.00000000000E+00  0.65829111380E+01  0.65829111380E+01  0.00000000000E+00 0.  1.
         22   -1    0    0    0    0 -0.00000000000E+00 -0.00000000000E+00 -0.19155529679E+01  0.19155529679E+01  0.00000000000E+00 0. -1.
          4    1    1    2  501    0  0.24231238151E+01  0.11803450109E+01  0.46454297427E+01  0.55188459720E+01  0.12700000000E+01 0.  1.
         -4    1    1    2    0  501 -0.24231238151E+01 -0.11803450109E+01  0.21928427347E-01  0.29796181339E+01  0.12700000000E+01 0. -1.
<mgrwt>
<rscale>  0 0.29795374E+01</rscale>
<asrwt>0</asrwt>
<pdfrwt beam="1">0</pdfrwt>
<pdfrwt beam="2">0</pdfrwt>
<totfact> 0.12430008E+12</totfact>
</mgrwt>
</event>
<event>
 4    1  0.1699693E+006  0.3232780E+01  0.7546771E-02  0.2453372E+00
         22   -1    0    0    0    0  0.00000000000E+00  0.00000000000E+00  0.85333057245E+01  0.85333057245E+01  0.00000000000E+00 0.  1.
         22   -1    0    0    0    0 -0.00000000000E+00 -0.00000000000E+00 -0.14727175137E+01  0.14727175137E+01  0.00000000000E+00 0.  1.
          4    1    1    2  501    0  0.29525100908E+00 -0.29581736260E+01  0.55833470602E+01  0.64517151793E+01  0.12700000000E+01 0.  1.
         -4    1    1    2    0  501 -0.29525100908E+00  0.29581736260E+01  0.14772411507E+01  0.35543080589E+01  0.12700000000E+01 0.  1.
<mgrwt>
<rscale>  0 0.32327797E+01</rscale>
<asrwt>0</asrwt>
<pdfrwt beam="1">0</pdfrwt>
<pdfrwt beam="2">0</pdfrwt>
<totfact> 0.12332085E+12</totfact>
</mgrwt>
</event>
<event>
 4    1  0.1699693E+006  0.2883423E+01  0.7546771E-02  0.2560354E+00
         22   -1    0    0    0    0  0.00000000000E+00  0.00000000000E+00  0.30500048018E+02  0.30500048018E+02  0.00000000000E+00 0.  1.
         22   -1    0    0    0    0 -0.00000000000E+00 -0.00000000000E+00 -0.28239273541E+00  0.28239273541E+00  0.00000000000E+00 0. -1.
          4    1    1    2  501    0 -0.25715053281E+01  0.29763689313E+00  0.17975864564E+02  0.18205653907E+02  0.12700000000E+01 0. -1.
         -4    1    1    2    0  501  0.25715053281E+01 -0.29763689313E+00  0.12241790718E+02  0.12576786846E+02  0.12700000000E+01 0.  1.
<mgrwt>
<rscale>  0 0.28834229E+01</rscale>
<asrwt>0</asrwt>
<pdfrwt beam="1">0</pdfrwt>
<pdfrwt beam="2">0</pdfrwt>
<totfact> 0.16620469E+12</totfact>
</mgrwt>
</event>
<event>
 4    1  0.1699693E+006  0.2276126E+01  0.7546771E-02  0.2816292E+00
         22   -1    0    0    0    0  0.00000000000E+00  0.00000000000E+00  0.55121816376E+01  0.55121816376E+01  0.00000000000E+00 0. -1.
         22   -1    0    0    0    0 -0.00000000000E+00 -0.00000000000E+00 -0.11425268397E+01  0.11425268397E+01  0.00000000000E+00 0.  1.
          4    1    1    2  501    0 -0.13888517321E+01 -0.12802104084E+01  0.35861683386E+01  0.42475111744E+01  0.12700000000E+01 0. -1.
         -4    1    1    2    0  501  0.13888517321E+01  0.12802104084E+01  0.78348645917E+00  0.24071973029E+01  0.12700000000E+01 0.  1.
<mgrwt>
<rscale>  0 0.22761256E+01</rscale>
<asrwt>0</asrwt>
<pdfrwt beam="1">0</pdfrwt>
<pdfrwt beam="2">0</pdfrwt>
<totfact> 0.27823771E+12</totfact>
</mgrwt>
</event>
<event>
 4    1  0.1699693E+006  0.2382062E+01  0.7546771E-02  0.2762924E+00
         22   -1    0    0    0    0  0.00000000000E+00  0.00000000000E+00  0.57084799123E+01  0.57084799123E+01  0.00000000000E+00 0.  1.
         22   -1    0    0    0    0 -0.00000000000E+00 -0.00000000000E+00 -0.10160577078E+01  0.10160577078E+01  0.00000000000E+00 0. -1.
          4    1    1    2  501    0  0.11094687318E+01  0.16823794325E+01  0.28416231451E+01  0.37079702696E+01  0.12700000000E+01 0. -1.
         -4    1    1    2    0  501 -0.11094687318E+01 -0.16823794325E+01  0.18507990594E+01  0.30165673505E+01  0.12700000000E+01 0.  1.
<mgrwt>
<rscale>  0 0.23820624E+01</rscale>
<asrwt>0</asrwt>
<pdfrwt beam="1">0</pdfrwt>
<pdfrwt beam="2">0</pdfrwt>
<totfact> 0.30522955E+12</totfact>
</mgrwt>
</event>
<event>
 4    1  0.1699693E+006  0.2854975E+01  0.7546771E-02  0.2570096E+00
         22   -1    0    0    0    0  0.00000000000E+00  0.00000000000E+00  0.46734006585E+00  0.46734006585E+00  0.00000000000E+00 0.  1.
         22   -1    0    0    0    0 -0.00000000000E+00 -0.00000000000E+00 -0.31939735349E+02  0.31939735349E+02  0.00000000000E+00 0.  1.
          4    1    1    2  501    0  0.84664198553E+00  0.24127121761E+01 -0.48190520755E+01  0.56012628579E+01  0.12700000000E+01 0.  1.
         -4    1    1    2    0  501 -0.84664198553E+00 -0.24127121761E+01 -0.26653343208E+02  0.26805812557E+02  0.12700000000E+01 0.  1.
<mgrwt>
<rscale>  0 0.28549751E+01</rscale>
<asrwt>0</asrwt>
<pdfrwt beam="1">0</pdfrwt>
<pdfrwt beam="2">0</pdfrwt>
<totfact> 0.88943180E+11</totfact>
</mgrwt>
</event>
<event>
 4    1  0.1699693E+006  0.2742254E+01  0.7546771E-02  0.2610492E+00
         22   -1    0    0    0    0  0.00000000000E+00  0.00000000000E+00  0.44777308294E+00  0.44777308294E+00  0.00000000000E+00 0. -1.
         22   -1    0    0    0    0 -0.00000000000E+00 -0.00000000000E+00 -0.18387409298E+02  0.18387409298E+02  0.00000000000E+00 0.  1.
          4    1    1    2  501    0 -0.98064266305E+00  0.22238252369E+01 -0.61976107200E+01  0.67771924389E+01  0.12700000000E+01 0. -1.
         -4    1    1    2    0  501  0.98064266305E+00 -0.22238252369E+01 -0.11742025495E+02  0.12057989942E+02  0.12700000000E+01 0.  1.
<mgrwt>
<rscale>  0 0.27422543E+01</rscale>
<asrwt>0</asrwt>
<pdfrwt beam="1">0</pdfrwt>
<pdfrwt beam="2">0</pdfrwt>
<totfact> 0.18713181E+12</totfact>
</mgrwt>
</event>
<event>
 4    1  0.1699693E+006  0.2147555E+01  0.7546771E-02  0.2887778E+00
         22   -1    0    0    0    0  0.00000000000E+00  0.00000000000E+00  0.61441789052E+01  0.61441789052E+01  0.00000000000E+00 0.  1.
         22   -1    0    0    0    0 -0.00000000000E+00 -0.00000000000E+00 -0.12605273704E+01  0.12605273704E+01  0.00000000000E+00 0.  1.
          4    1    1    2  501    0 -0.90097105861E+00  0.14789676600E+01  0.47965705134E+01  0.52553860826E+01  0.12700000000E+01 0.  1.
         -4    1    1    2    0  501  0.90097105861E+00 -0.14789676600E+01  0.87081021432E-01  0.21493201930E+01  0.12700000000E+01 0.  1.
<mgrwt>
<rscale>  0 0.21475554E+01</rscale>
<asrwt>0</asrwt>
<pdfrwt beam="1">0</pdfrwt>
<pdfrwt beam="2">0</pdfrwt>
<totfact> 0.21849135E+12</totfact>
</mgrwt>
</event>
<event>
 4    1  0.1699693E+006  0.2137105E+01  0.7546771E-02  0.2893951E+00
         22   -1    0    0    0    0  0.00000000000E+00  0.00000000000E+00  0.13116319405E+01  0.13116319405E+01  0.00000000000E+00 0. -1.
         22   -1    0    0    0    0 -0.00000000000E+00 -0.00000000000E+00 -0.35924173984E+01  0.35924173984E+01  0.00000000000E+00 0.  1.
          4    1    1    2  501    0  0.11133640980E+01  0.13094804710E+01 -0.71068244559E+00  0.22521741179E+01  0.12700000000E+01 0.  1.
         -4    1    1    2    0  501 -0.11133640980E+01 -0.13094804710E+01 -0.15701030123E+01  0.26518752210E+01  0.12700000000E+01 0.  1.
<mgrwt>
<rscale>  0 0.21371052E+01</rscale>
<asrwt>0</asrwt>
<pdfrwt beam="1">0</pdfrwt>
<pdfrwt beam="2">0</pdfrwt>
<totfact> 0.39368162E+12</totfact>
</mgrwt>
</event>
<event>
 4    1  0.1699693E+006  0.2341573E+01  0.7546771E-02  0.2782783E+00
         22   -1    0    0    0    0  0.00000000000E+00  0.00000000000E+00  0.90164512619E+00  0.90164512619E+00  0.00000000000E+00 0.  1.
         22   -1    0    0    0    0 -0.00000000000E+00 -0.00000000000E+00 -0.11572571610E+02  0.11572571610E+02  0.00000000000E+00 0.  1.
          4    1    1    2  501    0  0.12544570918E-01  0.19672077125E+01 -0.10389706634E+01  0.25617227777E+01  0.12700000000E+01 0.  1.
         -4    1    1    2    0  501 -0.12544570918E-01 -0.19672077125E+01 -0.96319558203E+01  0.99124939584E+01  0.12700000000E+01 0.  1.
<mgrwt>
<rscale>  0 0.23415729E+01</rscale>
<asrwt>0</asrwt>
<pdfrwt beam="1">0</pdfrwt>
<pdfrwt beam="2">0</pdfrwt>
<totfact> 0.14955319E+12</totfact>
</mgrwt>
</event>
<event>
 4    1  0.1699693E+006  0.2185789E+01  0.7546771E-02  0.2865678E+00
         22   -1    0    0    0    0  0.00000000000E+00  0.00000000000E+00  0.10906144906E+01  0.10906144906E+01  0.00000000000E+00 0.  1.
         22   -1    0    0    0    0 -0.00000000000E+00 -0.00000000000E+00 -0.60378022618E+01  0.60378022618E+01  0.00000000000E+00 0. -1.
          4    1    1    2  501    0  0.14344703951E+01  0.10521739737E+01 -0.60637239507E+00  0.22683392310E+01  0.12700000000E+01 0.  1.
         -4    1    1    2    0  501 -0.14344703951E+01 -0.10521739737E+01 -0.43408153761E+01  0.48600775215E+01  0.12700000000E+01 0. -1.
<mgrwt>
<rscale>  0 0.21857894E+01</rscale>
<asrwt>0</asrwt>
<pdfrwt beam="1">0</pdfrwt>
<pdfrwt beam="2">0</pdfrwt>
<totfact> 0.26332109E+12</totfact>
</mgrwt>
</event>
<event>
 4    1  0.1699693E+006  0.2281594E+01  0.7546771E-02  0.2813423E+00
         22   -1    0    0    0    0  0.00000000000E+00  0.00000000000E+00  0.34524899462E+02  0.34524899462E+02  0.00000000000E+00 0.  1.
         22   -1    0    0    0    0 -0.00000000000E+00 -0.00000000000E+00 -0.18759599118E+00  0.18759599118E+00  0.00000000000E+00 0. -1.
          4    1    1    2  501    0  0.97937623918E+00 -0.16228348440E+01  0.24857498707E+02  0.24961989358E+02  0.12700000000E+01 0.  1.
         -4    1    1    2    0  501 -0.97937623918E+00  0.16228348440E+01  0.94798047639E+01  0.97505060951E+01  0.12700000000E+01 0. -1.
<mgrwt>
<rscale>  0 0.22815939E+01</rscale>
<asrwt>0</asrwt>
<pdfrwt beam="1">0</pdfrwt>
<pdfrwt beam="2">0</pdfrwt>
<totfact> 0.22397050E+12</totfact>
</mgrwt>
</event>
<event>
 4    1  0.1699693E+006  0.3158558E+01  0.7546771E-02  0.2474331E+00
         22   -1    0    0    0    0  0.00000000000E+00  0.00000000000E+00  0.43316811435E+02  0.43316811435E+02  0.00000000000E+00 0.  1.
         22   -1    0    0    0    0 -0.00000000000E+00 -0.00000000000E+00 -0.30722225436E+00  0.30722225436E+00  0.00000000000E+00 0.  1.
          4    1    1    2  501    0 -0.26286746399E+01 -0.12056764718E+01  0.32418061871E+02  0.32571570757E+02  0.12700000000E+01 0.  1.
         -4    1    1    2    0  501  0.26286746399E+01  0.12056764718E+01  0.10591527310E+02  0.11052462933E+02  0.12700000000E+01 0.  1.
<mgrwt>
<rscale>  0 0.31585576E+01</rscale>
<asrwt>0</asrwt>
<pdfrwt beam="1">0</pdfrwt>
<pdfrwt beam="2">0</pdfrwt>
<totfact> 0.96184083E+11</totfact>
</mgrwt>
</event>
<event>
 4    1  0.1699693E+006  0.2354233E+01  0.7546771E-02  0.2776504E+00
         22   -1    0    0    0    0  0.00000000000E+00  0.00000000000E+00  0.37871957507E+02  0.37871957507E+02  0.00000000000E+00 0. -1.
         22   -1    0    0    0    0 -0.00000000000E+00 -0.00000000000E+00 -0.19146025639E+00  0.19146025639E+00  0.00000000000E+00 0.  1.
          4    1    1    2  501    0  0.73965012853E+00 -0.18391382395E+01  0.28078612825E+02  0.28177134524E+02  0.12700000000E+01 0. -1.
         -4    1    1    2    0  501 -0.73965012853E+00  0.18391382395E+01  0.96018844247E+01  0.98862832390E+01  0.12700000000E+01 0. -1.
<mgrwt>
<rscale>  0 0.23542327E+01</rscale>
<asrwt>0</asrwt>
<pdfrwt beam="1">0</pdfrwt>
<pdfrwt beam="2">0</pdfrwt>
<totfact> 0.19431986E+12</totfact>
</mgrwt>
</event>
<event>
 4    1  0.1699693E+006  0.2076264E+01  0.7546771E-02  0.2931082E+00
         22   -1    0    0    0    0  0.00000000000E+00  0.00000000000E+00  0.79602516059E+00  0.79602516059E+00  0.00000000000E+00 0.  1.
         22   -1    0    0    0    0 -0.00000000000E+00 -0.00000000000E+00 -0.54155635570E+01  0.54155635570E+01  0.00000000000E+00 0. -1.
          4    1    1    2  501    0  0.13521727460E+01 -0.93252392981E+00 -0.22988961725E+01  0.30977081248E+01  0.12700000000E+01 0.  1.
         -4    1    1    2    0  501 -0.13521727460E+01  0.93252392981E+00 -0.23206422239E+01  0.31138805928E+01  0.12700000000E+01 0.  1.
<mgrwt>
<rscale>  0 0.20762640E+01</rscale>
<asrwt>0</asrwt>
<pdfrwt beam="1">0</pdfrwt>
<pdfrwt beam="2">0</pdfrwt>
<totfact> 0.42912922E+12</totfact>
</mgrwt>
</event>
<event>
 4    1  0.1699693E+006  0.2282978E+01  0.7546771E-02  0.2812698E+00
         22   -1    0    0    0    0  0.00000000000E+00  0.00000000000E+00  0.10809808360E+02  0.10809808360E+02  0.00000000000E+00 0. -1.
         22   -1    0    0    0    0 -0.00000000000E+00 -0.00000000000E+00 -0.50879752748E+00  0.50879752748E+00  0.00000000000E+00 0. -1.
          4    1    1    2  501    0  0.15113129320E+01  0.11467438263E+01  0.64455640836E+01  0.68379298429E+01  0.12700000000E+01 0. -1.
         -4    1    1    2    0  501 -0.15113129320E+01 -0.11467438263E+01  0.38554467486E+01  0.44806760442E+01  0.12700000000E+01 0. -1.
<mgrwt>
<rscale>  0 0.22829779E+01</rscale>
<asrwt>0</asrwt>
<pdfrwt beam="1">0</pdfrwt>
<pdfrwt beam="2">0</pdfrwt>
<totfact> 0.31098112E+12</totfact>
</mgrwt>
</event>
<event>
 4    1  0.1699693E+006  0.2202417E+01  0.7546771E-02  0.2856297E+00
         22   -1    0    0    0    0  0.00000000000E+00  0.00000000000E+00  0.10276758833E+02  0.10276758833E+02  0.00000000000E+00 0. -1.
         22   -1    0    0    0    0 -0.00000000000E+00 -0.00000000000E+00 -0.98476576061E+00  0.98476576061E+00  0.00000000000E+00 0.  1.
          4    1    1    2  501    0  0.44946159187E+00 -0.17423327857E+01  0.87091184940E+01  0.89832835980E+01  0.12700000000E+01 0. -1.
         -4    1    1    2    0  501 -0.44946159187E+00  0.17423327857E+01  0.58287457793E+00  0.22782409952E+01  0.12700000000E+01 0.  1.
<mgrwt>
<rscale>  0 0.22024167E+01</rscale>
<asrwt>0</asrwt>
<pdfrwt beam="1">0</pdfrwt>
<pdfrwt beam="2">0</pdfrwt>
<totfact> 0.15622499E+12</totfact>
</mgrwt>
</event>
<event>
 4    1  0.1699693E+006  0.2097858E+01  0.7546771E-02  0.2917664E+00
         22   -1    0    0    0    0  0.00000000000E+00  0.00000000000E+00  0.42529045787E+01  0.42529045787E+01  0.00000000000E+00 0. -1.
         22   -1    0    0    0    0 -0.00000000000E+00 -0.00000000000E+00 -0.18364529018E+01  0.18364529018E+01  0.00000000000E+00 0.  1.
          4    1    1    2  501    0 -0.15040770797E+01  0.72516180707E+00  0.32198103113E+01  0.38429397535E+01  0.12700000000E+01 0. -1.
         -4    1    1    2    0  501  0.15040770797E+01 -0.72516180707E+00 -0.80335863442E+00  0.22464177269E+01  0.12700000000E+01 0.  1.
<mgrwt>
<rscale>  0 0.20978578E+01</rscale>
<asrwt>0</asrwt>
<pdfrwt beam="1">0</pdfrwt>
<pdfrwt beam="2">0</pdfrwt>
<totfact> 0.21909576E+12</totfact>
</mgrwt>
</event>
<event>
 4    1  0.1699693E+006  0.2503085E+01  0.7546771E-02  0.2707172E+00
         22   -1    0    0    0    0  0.00000000000E+00  0.00000000000E+00  0.36048329294E+02  0.36048329294E+02  0.00000000000E+00 0. -1.
         22   -1    0    0    0    0 -0.00000000000E+00 -0.00000000000E+00 -0.17761031827E+00  0.17761031827E+00  0.00000000000E+00 0.  1.
          4    1    1    2  501    0 -0.45531973774E+00 -0.21083684200E+01  0.20586093918E+02  0.20737711934E+02  0.12700000000E+01 0.  1.
         -4    1    1    2    0  501  0.45531973774E+00  0.21083684200E+01  0.15284625058E+02  0.15488227679E+02  0.12700000000E+01 0. -1.
<mgrwt>
<rscale>  0 0.25030848E+01</rscale>
<asrwt>0</asrwt>
<pdfrwt beam="1">0</pdfrwt>
<pdfrwt beam="2">0</pdfrwt>
<totfact> 0.22518429E+12</totfact>
</mgrwt>
</event>
<event>
 4    1  0.1699693E+006  0.2475974E+01  0.7546771E-02  0.2719218E+00
         22   -1    0    0    0    0  0.00000000000E+00  0.00000000000E+00  0.38837486125E+01  0.38837486125E+01  0.00000000000E+00 0.  1.
         22   -1    0    0    0    0 -0.00000000000E+00 -0.00000000000E+00 -0.25953219388E+01  0.25953219388E+01  0.00000000000E+00 0. -1.
          4    1    1    2  501    0 -0.95114497910E-01 -0.21233230126E+01  0.26719534231E+01  0.36427712636E+01  0.12700000000E+01 0.  1.
         -4    1    1    2    0  501  0.95114497910E-01  0.21233230126E+01 -0.13835267493E+01  0.28362992878E+01  0.12700000000E+01 0. -1.
<mgrwt>
<rscale>  0 0.24759740E+01</rscale>
<asrwt>0</asrwt>
<pdfrwt beam="1">0</pdfrwt>
<pdfrwt beam="2">0</pdfrwt>
<totfact> 0.16326204E+12</totfact>
</mgrwt>
</event>
<event>
 4    1  0.1699693E+006  0.2781265E+01  0.7546771E-02  0.2596175E+00
         22   -1    0    0    0    0  0.00000000000E+00  0.00000000000E+00  0.30851241144E+01  0.30851241144E+01  0.00000000000E+00 0. -1.
         22   -1    0    0    0    0 -0.00000000000E+00 -0.00000000000E+00 -0.26944086295E+01  0.26944086295E+01  0.00000000000E+00 0.  1.
          4    1    1    2  501    0 -0.16181093725E+01  0.18719655086E+01  0.95680507841E+00  0.29412427245E+01  0.12700000000E+01 0.  1.
         -4    1    1    2    0  501  0.16181093725E+01 -0.18719655086E+01 -0.56608959350E+00  0.28382900194E+01  0.12700000000E+01 0. -1.
<mgrwt>
<rscale>  0 0.27812646E+01</rscale>
<asrwt>0</asrwt>
<pdfrwt beam="1">0</pdfrwt>
<pdfrwt beam="2">0</pdfrwt>
<totfact> 0.20471577E+12</totfact>
</mgrwt>
</event>
<event>
 4    1  0.1699693E+006  0.3109171E+01  0.7546771E-02  0.2488768E+00
         22   -1    0    0    0    0  0.00000000000E+00  0.00000000000E+00  0.83694187798E+00  0.83694187798E+00  0.00000000000E+00 0.  1.
         22   -1    0    0    0    0 -0.00000000000E+00 -0.00000000000E+00 -0.37173705893E+02  0.37173705893E+02  0.00000000000E+00 0. -1.
          4    1    1    2  501    0  0.15485826878E+01  0.23782207402E+01 -0.23895211004E+01  0.39213203541E+01  0.12700000000E+01 0.  1.
         -4    1    1    2    0  501 -0.15485826878E+01 -0.23782207402E+01 -0.33947242914E+02  0.34089327417E+02  0.12700000000E+01 0. -1.
<mgrwt>
<rscale>  0 0.31091707E+01</rscale>
<asrwt>0</asrwt>
<pdfrwt beam="1">0</pdfrwt>
<pdfrwt beam="2">0</pdfrwt>
<totfact> 0.37813958E+11</totfact>
</mgrwt>
</event>
<event>
 4    1  0.1699693E+006  0.2204841E+01  0.7546771E-02  0.2854941E+00
         22   -1    0    0    0    0  0.00000000000E+00  0.00000000000E+00  0.90635820729E+00  0.90635820729E+00  0.00000000000E+00 0.  1.
         22   -1    0    0    0    0 -0.00000000000E+00 -0.00000000000E+00 -0.68006820040E+01  0.68006820040E+01  0.00000000000E+00 0. -1.
          4    1    1    2  501    0  0.62224905778E+00  0.16915176670E+01 -0.11757277992E+01  0.24987320315E+01  0.12700000000E+01 0.  1.
         -4    1    1    2    0  501 -0.62224905778E+00 -0.16915176670E+01 -0.47185959975E+01  0.52083081798E+01  0.12700000000E+01 0. -1.
<mgrwt>
<rscale>  0 0.22048415E+01</rscale>
<asrwt>0</asrwt>
<pdfrwt beam="1">0</pdfrwt>
<pdfrwt beam="2">0</pdfrwt>
<totfact> 0.28224260E+12</totfact>
</mgrwt>
</event>
<event>
 4    1  0.1699693E+006  0.2085430E+01  0.7546771E-02  0.2925354E+00
         22   -1    0    0    0    0  0.00000000000E+00  0.00000000000E+00  0.65061733782E+01  0.65061733782E+01  0.00000000000E+00 0.  1.
         22   -1    0    0    0    0 -0.00000000000E+00 -0.00000000000E+00 -0.67720764975E+00  0.67720764975E+00  0.00000000000E+00 0. -1.
          4    1    1    2  501    0 -0.48367568647E+00 -0.15818273794E+01  0.25059264492E+01  0.32601667744E+01  0.12700000000E+01 0.  1.
         -4    1    1    2    0  501  0.48367568647E+00  0.15818273794E+01  0.33230392792E+01  0.39232142535E+01  0.12700000000E+01 0. -1.
<mgrwt>
<rscale>  0 0.20854304E+01</rscale>
<asrwt>0</asrwt>
<pdfrwt beam="1">0</pdfrwt>
<pdfrwt beam="2">0</pdfrwt>
<totfact> 0.41449437E+12</totfact>
</mgrwt>
</event>
<event>
 4    1  0.1699693E+006  0.2153517E+01  0.7546771E-02  0.2884282E+00
         22   -1    0    0    0    0  0.00000000000E+00  0.00000000000E+00  0.61221379601E+00  0.61221379601E+00  0.00000000000E+00 0.  1.
         22   -1    0    0    0    0 -0.00000000000E+00 -0.00000000000E+00 -0.82023822417E+01  0.82023822417E+01  0.00000000000E+00 0.  1.
          4    1    1    2  501    0 -0.16681693375E+01 -0.49188017083E+00 -0.25763662985E+01  0.33578711031E+01  0.12700000000E+01 0.  1.
         -4    1    1    2    0  501  0.16681693375E+01  0.49188017083E+00 -0.50138021472E+01  0.54567249346E+01  0.12700000000E+01 0.  1.
<mgrwt>
<rscale>  0 0.21535169E+01</rscale>
<asrwt>0</asrwt>
<pdfrwt beam="1">0</pdfrwt>
<pdfrwt beam="2">0</pdfrwt>
<totfact> 0.35211117E+12</totfact>
</mgrwt>
</event>
<event>
 4    1  0.1699693E+006  0.2483516E+01  0.7546771E-02  0.2715842E+00
         22   -1    0    0    0    0  0.00000000000E+00  0.00000000000E+00  0.10395586235E+00  0.10395586235E+00  0.00000000000E+00 0. -1.
         22   -1    0    0    0    0 -0.00000000000E+00 -0.00000000000E+00 -0.73331009547E+02  0.73331009547E+02  0.00000000000E+00 0. -1.
          4    1    1    2  501    0 -0.11675092976E+01 -0.17865810575E+01 -0.20570489905E+02  0.20719867392E+02  0.12700000000E+01 0. -1.
         -4    1    1    2    0  501  0.11675092976E+01  0.17865810575E+01 -0.52656563780E+02  0.52715098017E+02  0.12700000000E+01 0. -1.
<mgrwt>
<rscale>  0 0.24835156E+01</rscale>
<asrwt>0</asrwt>
<pdfrwt beam="1">0</pdfrwt>
<pdfrwt beam="2">0</pdfrwt>
<totfact> 0.15953149E+12</totfact>
</mgrwt>
</event>
<event>
 4    1  0.1699693E+006  0.2893270E+01  0.7546771E-02  0.2557023E+00
         22   -1    0    0    0    0  0.00000000000E+00  0.00000000000E+00  0.25991311332E+00  0.25991311332E+00  0.00000000000E+00 0.  1.
         22   -1    0    0    0    0 -0.00000000000E+00 -0.00000000000E+00 -0.38982384603E+02  0.38982384603E+02  0.00000000000E+00 0. -1.
          4    1    1    2  501    0  0.21004951451E+01  0.15316756367E+01 -0.11181135425E+02  0.11549406890E+02  0.12700000000E+01 0.  1.
         -4    1    1    2    0  501 -0.21004951451E+01 -0.15316756367E+01 -0.27541336064E+02  0.27692890826E+02  0.12700000000E+01 0. -1.
<mgrwt>
<rscale>  0 0.28932698E+01</rscale>
<asrwt>0</asrwt>
<pdfrwt beam="1">0</pdfrwt>
<pdfrwt beam="2">0</pdfrwt>
<totfact> 0.13304613E+12</totfact>
</mgrwt>
</event>
<event>
 4    1  0.1699693E+006  0.2206948E+01  0.7546771E-02  0.2853764E+00
         22   -1    0    0    0    0  0.00000000000E+00  0.00000000000E+00  0.27909552813E+01  0.27909552813E+01  0.00000000000E+00 0. -1.
         22   -1    0    0    0    0 -0.00000000000E+00 -0.00000000000E+00 -0.30972453092E+01  0.30972453092E+01  0.00000000000E+00 0. -1.
          4    1    1    2  501    0  0.95980055291E+00 -0.15285621019E+01  0.17920779869E+01  0.28429144749E+01  0.12700000000E+01 0. -1.
         -4    1    1    2    0  501 -0.95980055291E+00  0.15285621019E+01 -0.20983680147E+01  0.30452861156E+01  0.12700000000E+01 0. -1.
<mgrwt>
<rscale>  0 0.22069479E+01</rscale>
<asrwt>0</asrwt>
<pdfrwt beam="1">0</pdfrwt>
<pdfrwt beam="2">0</pdfrwt>
<totfact> 0.19557571E+12</totfact>
</mgrwt>
</event>
<event>
 4    1  0.1699693E+006  0.2461186E+01  0.7546771E-02  0.2725893E+00
         22   -1    0    0    0    0  0.00000000000E+00  0.00000000000E+00  0.12378283088E+02  0.12378283088E+02  0.00000000000E+00 0. -1.
         22   -1    0    0    0    0 -0.00000000000E+00 -0.00000000000E+00 -0.54700132461E+00  0.54700132461E+00  0.00000000000E+00 0.  1.
          4    1    1    2  501    0 -0.22039910330E+00  0.20966548028E+01  0.80135310280E+01  0.83829658632E+01  0.12700000000E+01 0. -1.
         -4    1    1    2    0  501  0.22039910330E+00 -0.20966548028E+01  0.38177507354E+01  0.45423185494E+01  0.12700000000E+01 0.  1.
<mgrwt>
<rscale>  0 0.24611861E+01</rscale>
<asrwt>0</asrwt>
<pdfrwt beam="1">0</pdfrwt>
<pdfrwt beam="2">0</pdfrwt>
<totfact> 0.24297503E+12</totfact>
</mgrwt>
</event>
<event>
 4    1  0.1699693E+006  0.2891130E+01  0.7546771E-02  0.2557745E+00
         22   -1    0    0    0    0  0.00000000000E+00  0.00000000000E+00  0.25619392507E+02  0.25619392507E+02  0.00000000000E+00 0.  1.
         22   -1    0    0    0    0 -0.00000000000E+00 -0.00000000000E+00 -0.15061531493E+01  0.15061531493E+01  0.00000000000E+00 0. -1.
          4    1    1    2  501    0 -0.22770953774E+01  0.12492265381E+01  0.24060866610E+02  0.24233941741E+02  0.12700000000E+01 0.  1.
         -4    1    1    2    0  501  0.22770953774E+01 -0.12492265381E+01  0.52372748624E-01  0.28916039159E+01  0.12700000000E+01 0. -1.
<mgrwt>
<rscale>  0 0.28911296E+01</rscale>
<asrwt>0</asrwt>
<pdfrwt beam="1">0</pdfrwt>
<pdfrwt beam="2">0</pdfrwt>
<totfact> 0.31048369E+11</totfact>
</mgrwt>
</event>
<event>
 4    1  0.1699693E+006  0.2089518E+01  0.7546771E-02  0.2922814E+00
         22   -1    0    0    0    0  0.00000000000E+00  0.00000000000E+00  0.29195076593E+00  0.29195076593E+00  0.00000000000E+00 0.  1.
         22   -1    0    0    0    0 -0.00000000000E+00 -0.00000000000E+00 -0.15226881425E+02  0.15226881425E+02  0.00000000000E+00 0.  1.
          4    1    1    2  501    0 -0.11401713380E+01 -0.12054861050E+01 -0.85045460069E+01  0.87574762467E+01  0.12700000000E+01 0.  1.
         -4    1    1    2    0  501  0.11401713380E+01  0.12054861050E+01 -0.64303846527E+01  0.67613559447E+01  0.12700000000E+01 0.  1.
<mgrwt>
<rscale>  0 0.20895185E+01</rscale>
<asrwt>0</asrwt>
<pdfrwt beam="1">0</pdfrwt>
<pdfrwt beam="2">0</pdfrwt>
<totfact> 0.38211644E+12</totfact>
</mgrwt>
</event>
<event>
 4    1  0.1699693E+006  0.2591887E+01  0.7546771E-02  0.2669356E+00
         22   -1    0    0    0    0  0.00000000000E+00  0.00000000000E+00  0.86915167763E+00  0.86915167763E+00  0.00000000000E+00 0. -1.
         22   -1    0    0    0    0 -0.00000000000E+00 -0.00000000000E+00 -0.11577193587E+02  0.11577193587E+02  0.00000000000E+00 0.  1.
          4    1    1    2  501    0  0.19160929734E+01  0.11973169828E+01 -0.17662457671E+01  0.31364796110E+01  0.12700000000E+01 0. -1.
         -4    1    1    2    0  501 -0.19160929734E+01 -0.11973169828E+01 -0.89417961423E+01  0.93098656537E+01  0.12700000000E+01 0.  1.
<mgrwt>
<rscale>  0 0.25918874E+01</rscale>
<asrwt>0</asrwt>
<pdfrwt beam="1">0</pdfrwt>
<pdfrwt beam="2">0</pdfrwt>
<totfact> 0.15586883E+12</totfact>
</mgrwt>
</event>
<event>
 4    1  0.1699693E+006  0.2192345E+01  0.7546771E-02  0.2861963E+00
         22   -1    0    0    0    0  0.00000000000E+00  0.00000000000E+00  0.51261472002E+01  0.51261472002E+01  0.00000000000E+00 0. -1.
         22   -1    0    0    0    0 -0.00000000000E+00 -0.00000000000E+00 -0.10153388720E+01  0.10153388720E+01  0.00000000000E+00 0.  1.
          4    1    1    2  501    0 -0.81352468707E+00  0.15911174166E+01  0.12058290034E+01  0.25020792624E+01  0.12700000000E+01 0.  1.
         -4    1    1    2    0  501  0.81352468707E+00 -0.15911174166E+01  0.29049793248E+01  0.36394068098E+01  0.12700000000E+01 0. -1.
<mgrwt>
<rscale>  0 0.21923451E+01</rscale>
<asrwt>0</asrwt>
<pdfrwt beam="1">0</pdfrwt>
<pdfrwt beam="2">0</pdfrwt>
<totfact> 0.34707198E+12</totfact>
</mgrwt>
</event>
<event>
 4    1  0.1699693E+006  0.4116942E+01  0.7546771E-02  0.2255483E+00
         22   -1    0    0    0    0  0.00000000000E+00  0.00000000000E+00  0.31266543015E+01  0.31266543015E+01  0.00000000000E+00 0. -1.
         22   -1    0    0    0    0 -0.00000000000E+00 -0.00000000000E+00 -0.23481580665E+02  0.23481580665E+02  0.00000000000E+00 0.  1.
          4    1    1    2  501    0 -0.37553304938E+01 -0.11107666097E+01  0.14903572345E+01  0.43783985960E+01  0.12700000000E+01 0. -1.
         -4    1    1    2    0  501  0.37553304938E+01  0.11107666097E+01 -0.21845283598E+02  0.22229836371E+02  0.12700000000E+01 0.  1.
<mgrwt>
<rscale>  0 0.41169418E+01</rscale>
<asrwt>0</asrwt>
<pdfrwt beam="1">0</pdfrwt>
<pdfrwt beam="2">0</pdfrwt>
<totfact> 0.14854690E+11</totfact>
</mgrwt>
</event>
<event>
 4    1  0.1699693E+006  0.2615247E+01  0.7546771E-02  0.2659803E+00
         22   -1    0    0    0    0  0.00000000000E+00  0.00000000000E+00  0.46999873765E+02  0.46999873765E+02  0.00000000000E+00 0.  1.
         22   -1    0    0    0    0 -0.00000000000E+00 -0.00000000000E+00 -0.18950534610E+00  0.18950534610E+00  0.00000000000E+00 0. -1.
          4    1    1    2  501    0 -0.18416219817E+01 -0.13546391569E+01  0.34772222885E+02  0.34870431645E+02  0.12700000000E+01 0. -1.
         -4    1    1    2    0  501  0.18416219817E+01  0.13546391569E+01  0.12038145534E+02  0.12318947466E+02  0.12700000000E+01 0.  1.
<mgrwt>
<rscale>  0 0.26152474E+01</rscale>
<asrwt>0</asrwt>
<pdfrwt beam="1">0</pdfrwt>
<pdfrwt beam="2">0</pdfrwt>
<totfact> 0.14836486E+12</totfact>
</mgrwt>
</event>
<event>
 4    1  0.1699693E+006  0.2403403E+01  0.7546771E-02  0.2752711E+00
         22   -1    0    0    0    0  0.00000000000E+00  0.00000000000E+00  0.11501199624E+01  0.11501199624E+01  0.00000000000E+00 0. -1.
         22   -1    0    0    0    0 -0.00000000000E+00 -0.00000000000E+00 -0.11663552412E+02  0.11663552412E+02  0.00000000000E+00 0. -1.
          4    1    1    2  501    0  0.16433114586E+01  0.12095352279E+01 -0.42222993887E+00  0.24402102653E+01  0.12700000000E+01 0. -1.
         -4    1    1    2    0  501 -0.16433114586E+01 -0.12095352279E+01 -0.10091202511E+02  0.10373462109E+02  0.12700000000E+01 0. -1.
<mgrwt>
<rscale>  0 0.24034034E+01</rscale>
<asrwt>0</asrwt>
<pdfrwt beam="1">0</pdfrwt>
<pdfrwt beam="2">0</pdfrwt>
<totfact> 0.11217689E+12</totfact>
</mgrwt>
</event>
<event>
 4    1  0.1699693E+006  0.2053041E+01  0.7546771E-02  0.2945819E+00
         22   -1    0    0    0    0  0.00000000000E+00  0.00000000000E+00  0.48292662498E+00  0.48292662498E+00  0.00000000000E+00 0.  1.
         22   -1    0    0    0    0 -0.00000000000E+00 -0.00000000000E+00 -0.15626224417E+02  0.15626224417E+02  0.00000000000E+00 0.  1.
          4    1    1    2  501    0  0.47637005692E+00  0.15411515656E+01 -0.22200353381E+01  0.30238276210E+01  0.12700000000E+01 0.  1.
         -4    1    1    2    0  501 -0.47637005692E+00 -0.15411515656E+01 -0.12923262454E+02  0.13085323421E+02  0.12700000000E+01 0.  1.
<mgrwt>
<rscale>  0 0.20530408E+01</rscale>
<asrwt>0</asrwt>
<pdfrwt beam="1">0</pdfrwt>
<pdfrwt beam="2">0</pdfrwt>
<totfact> 0.21014365E+12</totfact>
</mgrwt>
</event>
<event>
 4    1  0.1699693E+006  0.2464916E+01  0.7546771E-02  0.2724202E+00
         22   -1    0    0    0    0  0.00000000000E+00  0.00000000000E+00  0.20851115728E+01  0.20851115728E+01  0.00000000000E+00 0. -1.
         22   -1    0    0    0    0 -0.00000000000E+00 -0.00000000000E+00 -0.29139461987E+01  0.29139461987E+01  0.00000000000E+00 0.  1.
          4    1    1    2  501    0  0.51344311637E+00 -0.20492166008E+01 -0.42406027423E+00  0.25011276711E+01  0.12700000000E+01 0. -1.
         -4    1    1    2    0  501 -0.51344311637E+00  0.20492166008E+01 -0.40477435170E+00  0.24979301004E+01  0.12700000000E+01 0.  1.
<mgrwt>
<rscale>  0 0.24649163E+01</rscale>
<asrwt>0</asrwt>
<pdfrwt beam="1">0</pdfrwt>
<pdfrwt beam="2">0</pdfrwt>
<totfact> 0.29474902E+12</totfact>
</mgrwt>
</event>
<event>
 4    1  0.1699693E+006  0.2419747E+01  0.7546771E-02  0.2745004E+00
         22   -1    0    0    0    0  0.00000000000E+00  0.00000000000E+00  0.62822843104E+01  0.62822843104E+01  0.00000000000E+00 0.  1.
         22   -1    0    0    0    0 -0.00000000000E+00 -0.00000000000E+00 -0.27974514322E+01  0.27974514322E+01  0.00000000000E+00 0. -1.
          4    1    1    2  501    0 -0.34244343246E+00  0.20310116419E+01  0.54496700791E+01  0.59627241899E+01  0.12700000000E+01 0.  1.
         -4    1    1    2    0  501  0.34244343246E+00 -0.20310116419E+01 -0.19648372009E+01  0.31170115528E+01  0.12700000000E+01 0. -1.
<mgrwt>
<rscale>  0 0.24197471E+01</rscale>
<asrwt>0</asrwt>
<pdfrwt beam="1">0</pdfrwt>
<pdfrwt beam="2">0</pdfrwt>
<totfact> 0.84662898E+11</totfact>
</mgrwt>
</event>
<event>
 4    1  0.1699693E+006  0.2503527E+01  0.7546771E-02  0.2706977E+00
         22   -1    0    0    0    0  0.00000000000E+00  0.00000000000E+00  0.99788638859E-01  0.99788638859E-01  0.00000000000E+00 0.  1.
         22   -1    0    0    0    0 -0.00000000000E+00 -0.00000000000E+00 -0.87304218448E+02  0.87304218448E+02  0.00000000000E+00 0.  1.
          4    1    1    2  501    0 -0.21316705092E+01  0.33276210299E+00 -0.20453752086E+02  0.20606397652E+02  0.12700000000E+01 0.  1.
         -4    1    1    2    0  501  0.21316705092E+01 -0.33276210299E+00 -0.66750677723E+02  0.66797609435E+02  0.12700000000E+01 0.  1.
<mgrwt>
<rscale>  0 0.25035275E+01</rscale>
<asrwt>0</asrwt>
<pdfrwt beam="1">0</pdfrwt>
<pdfrwt beam="2">0</pdfrwt>
<totfact> 0.13134146E+12</totfact>
</mgrwt>
</event>
<event>
 4    1  0.1699693E+006  0.2447343E+01  0.7546771E-02  0.2732210E+00
         22   -1    0    0    0    0  0.00000000000E+00  0.00000000000E+00  0.23472490383E+02  0.23472490383E+02  0.00000000000E+00 0. -1.
         22   -1    0    0    0    0 -0.00000000000E+00 -0.00000000000E+00 -0.15673154732E+01  0.15673154732E+01  0.00000000000E+00 0.  1.
          4    1    1    2  501    0  0.19821190455E+01 -0.66917188050E+00  0.22408077254E+02  0.22541326783E+02  0.12700000000E+01 0. -1.
         -4    1    1    2    0  501 -0.19821190455E+01  0.66917188050E+00 -0.50290234332E+00  0.24984790740E+01  0.12700000000E+01 0.  1.
<mgrwt>
<rscale>  0 0.24473428E+01</rscale>
<asrwt>0</asrwt>
<pdfrwt beam="1">0</pdfrwt>
<pdfrwt beam="2">0</pdfrwt>
<totfact> 0.33114683E+11</totfact>
</mgrwt>
</event>
<event>
 4    1  0.1699693E+006  0.2135939E+01  0.7546771E-02  0.2894643E+00
         22   -1    0    0    0    0  0.00000000000E+00  0.00000000000E+00  0.76401730225E+00  0.76401730225E+00  0.00000000000E+00 0.  1.
         22   -1    0    0    0    0 -0.00000000000E+00 -0.00000000000E+00 -0.15571998602E+02  0.15571998602E+02  0.00000000000E+00 0. -1.
          4    1    1    2  501    0 -0.17113282716E+01  0.14384340690E+00 -0.99051205970E+00  0.23544318889E+01  0.12700000000E+01 0.  1.
         -4    1    1    2    0  501  0.17113282716E+01 -0.14384340690E+00 -0.13817469240E+02  0.13981584016E+02  0.12700000000E+01 0. -1.
<mgrwt>
<rscale>  0 0.21359390E+01</rscale>
<asrwt>0</asrwt>
<pdfrwt beam="1">0</pdfrwt>
<pdfrwt beam="2">0</pdfrwt>
<totfact> 0.12552952E+12</totfact>
</mgrwt>
</event>
<event>
 4    1  0.1699693E+006  0.2864922E+01  0.7546771E-02  0.2566670E+00
         22   -1    0    0    0    0  0.00000000000E+00  0.00000000000E+00  0.14619711916E+01  0.14619711916E+01  0.00000000000E+00 0.  1.
         22   -1    0    0    0    0 -0.00000000000E+00 -0.00000000000E+00 -0.89863395414E+01  0.89863395414E+01  0.00000000000E+00 0. -1.
          4    1    1    2  501    0 -0.23049196888E+01 -0.11323526983E+01 -0.56197491439E+00  0.29195193456E+01  0.12700000000E+01 0.  1.
         -4    1    1    2    0  501  0.23049196888E+01  0.11323526983E+01 -0.69623934355E+01  0.75287913874E+01  0.12700000000E+01 0. -1.
<mgrwt>
<rscale>  0 0.28649219E+01</rscale>
<asrwt>0</asrwt>
<pdfrwt beam="1">0</pdfrwt>
<pdfrwt beam="2">0</pdfrwt>
<totfact> 0.11684692E+12</totfact>
</mgrwt>
</event>
<event>
 4    1  0.1699693E+006  0.2712832E+01  0.7546771E-02  0.2621539E+00
         22   -1    0    0    0    0  0.00000000000E+00  0.00000000000E+00  0.17912587373E+02  0.17912587373E+02  0.00000000000E+00 0. -1.
         22   -1    0    0    0    0 -0.00000000000E+00 -0.00000000000E+00 -0.83671536074E+00  0.83671536074E+00  0.00000000000E+00 0.  1.
          4    1    1    2  501    0  0.12479218574E+01 -0.20467652951E+01  0.15225999739E+02  0.15465785632E+02  0.12700000000E+01 0. -1.
         -4    1    1    2    0  501 -0.12479218574E+01  0.20467652951E+01  0.18498722730E+01  0.32835171023E+01  0.12700000000E+01 0.  1.
<mgrwt>
<rscale>  0 0.27128319E+01</rscale>
<asrwt>0</asrwt>
<pdfrwt beam="1">0</pdfrwt>
<pdfrwt beam="2">0</pdfrwt>
<totfact> 0.95208576E+11</totfact>
</mgrwt>
</event>
<event>
 4    1  0.1699693E+006  0.3797417E+01  0.7546771E-02  0.2317776E+00
         22   -1    0    0    0    0  0.00000000000E+00  0.00000000000E+00  0.82205977023E+01  0.82205977023E+01  0.00000000000E+00 0. -1.
         22   -1    0    0    0    0 -0.00000000000E+00 -0.00000000000E+00 -0.19704239710E+01  0.19704239710E+01  0.00000000000E+00 0.  1.
          4    1    1    2  501    0  0.35107583664E+01 -0.69429811886E+00  0.48131319142E+01  0.61307922007E+01  0.12700000000E+01 0. -1.
         -4    1    1    2    0  501 -0.35107583664E+01  0.69429811886E+00  0.14370418171E+01  0.40602294725E+01  0.12700000000E+01 0.  1.
<mgrwt>
<rscale>  0 0.37974168E+01</rscale>
<asrwt>0</asrwt>
<pdfrwt beam="1">0</pdfrwt>
<pdfrwt beam="2">0</pdfrwt>
<totfact> 0.92190714E+11</totfact>
</mgrwt>
</event>
<event>
 4    1  0.1699693E+006  0.2796323E+01  0.7546771E-02  0.2590746E+00
         22   -1    0    0    0    0  0.00000000000E+00  0.00000000000E+00  0.68598262103E+00  0.68598262103E+00  0.00000000000E+00 0.  1.
         22   -1    0    0    0    0 -0.00000000000E+00 -0.00000000000E+00 -0.11522576249E+02  0.11522576249E+02  0.00000000000E+00 0.  1.
          4    1    1    2  501    0  0.13596856716E+01 -0.20875292236E+01 -0.60508018126E+01  0.66657052110E+01  0.12700000000E+01 0.  1.
         -4    1    1    2    0  501 -0.13596856716E+01  0.20875292236E+01 -0.47857918152E+01  0.55428536589E+01  0.12700000000E+01 0.  1.
<mgrwt>
<rscale>  0 0.27963232E+01</rscale>
<asrwt>0</asrwt>
<pdfrwt beam="1">0</pdfrwt>
<pdfrwt beam="2">0</pdfrwt>
<totfact> 0.20517372E+12</totfact>
</mgrwt>
</event>
<event>
 4    1  0.1699693E+006  0.2582917E+01  0.7546771E-02  0.2673066E+00
         22   -1    0    0    0    0  0.00000000000E+00  0.00000000000E+00  0.16271750932E+02  0.16271750932E+02  0.00000000000E+00 0. -1.
         22   -1    0    0    0    0 -0.00000000000E+00 -0.00000000000E+00 -0.69778148277E+00  0.69778148277E+00  0.00000000000E+00 0. -1.
          4    1    1    2  501    0  0.22490438457E+01 -0.19020942528E-01  0.13235894654E+02  0.13485561439E+02  0.12700000000E+01 0. -1.
         -4    1    1    2    0  501 -0.22490438457E+01  0.19020942528E-01  0.23380747952E+01  0.34839709764E+01  0.12700000000E+01 0. -1.
<mgrwt>
<rscale>  0 0.25829170E+01</rscale>
<asrwt>0</asrwt>
<pdfrwt beam="1">0</pdfrwt>
<pdfrwt beam="2">0</pdfrwt>
<totfact> 0.13181251E+12</totfact>
</mgrwt>
</event>
<event>
 4    1  0.1699693E+006  0.2089787E+01  0.7546771E-02  0.2922648E+00
         22   -1    0    0    0    0  0.00000000000E+00  0.00000000000E+00  0.16929801293E+02  0.16929801293E+02  0.00000000000E+00 0.  1.
         22   -1    0    0    0    0 -0.00000000000E+00 -0.00000000000E+00 -0.26353610219E+00  0.26353610219E+00  0.00000000000E+00 0.  1.
          4    1    1    2  501    0  0.60730395313E+00  0.15445035456E+01  0.95836238635E+01  0.98088253961E+01  0.12700000000E+01 0.  1.
         -4    1    1    2    0  501 -0.60730395313E+00 -0.15445035456E+01  0.70826413278E+01  0.73845119996E+01  0.12700000000E+01 0.  1.
<mgrwt>
<rscale>  0 0.20897869E+01</rscale>
<asrwt>0</asrwt>
<pdfrwt beam="1">0</pdfrwt>
<pdfrwt beam="2">0</pdfrwt>
<totfact> 0.37599111E+12</totfact>
</mgrwt>
</event>
<event>
 4    1  0.1699693E+006  0.2501744E+01  0.7546771E-02  0.2707762E+00
         22   -1    0    0    0    0  0.00000000000E+00  0.00000000000E+00  0.25460181420E+00  0.25460181420E+00  0.00000000000E+00 0.  1.
         22   -1    0    0    0    0 -0.00000000000E+00 -0.00000000000E+00 -0.32814162797E+02  0.32814162797E+02  0.00000000000E+00 0. -1.
          4    1    1    2  501    0  0.14161921806E+01  0.16248759773E+01 -0.79983782401E+01  0.83804997885E+01  0.12700000000E+01 0.  1.
         -4    1    1    2    0  501 -0.14161921806E+01 -0.16248759773E+01 -0.24561182743E+02  0.24688264823E+02  0.12700000000E+01 0. -1.
<mgrwt>
<rscale>  0 0.25017438E+01</rscale>
<asrwt>0</asrwt>
<pdfrwt beam="1">0</pdfrwt>
<pdfrwt beam="2">0</pdfrwt>
<totfact> 0.16998176E+12</totfact>
</mgrwt>
</event>
<event>
 4    1  0.1699693E+006  0.2199034E+01  0.7546771E-02  0.2858195E+00
         22   -1    0    0    0    0  0.00000000000E+00  0.00000000000E+00  0.34805238028E+00  0.34805238028E+00  0.00000000000E+00 0.  1.
         22   -1    0    0    0    0 -0.00000000000E+00 -0.00000000000E+00 -0.13914711531E+02  0.13914711531E+02  0.00000000000E+00 0. -1.
          4    1    1    2  501    0  0.68095897412E+00  0.16610675930E+01 -0.65065014798E+01  0.68680646604E+01  0.12700000000E+01 0.  1.
         -4    1    1    2    0  501 -0.68095897412E+00 -0.16610675930E+01 -0.70601576712E+01  0.73946992512E+01  0.12700000000E+01 0. -1.
<mgrwt>
<rscale>  0 0.21990340E+01</rscale>
<asrwt>0</asrwt>
<pdfrwt beam="1">0</pdfrwt>
<pdfrwt beam="2">0</pdfrwt>
<totfact> 0.35046931E+12</totfact>
</mgrwt>
</event>
<event>
 4    1  0.1699693E+006  0.2005839E+01  0.7546771E-02  0.2976797E+00
         22   -1    0    0    0    0  0.00000000000E+00  0.00000000000E+00  0.28827998468E+01  0.28827998468E+01  0.00000000000E+00 0.  1.
         22   -1    0    0    0    0 -0.00000000000E+00 -0.00000000000E+00 -0.15601731817E+01  0.15601731817E+01  0.00000000000E+00 0.  1.
          4    1    1    2  501    0  0.40041241914E+00 -0.15000535022E+01  0.13826961380E+01  0.24362346408E+01  0.12700000000E+01 0.  1.
         -4    1    1    2    0  501 -0.40041241914E+00  0.15000535022E+01 -0.60069472894E-01  0.20067383877E+01  0.12700000000E+01 0.  1.
<mgrwt>
<rscale>  0 0.20058391E+01</rscale>
<asrwt>0</asrwt>
<pdfrwt beam="1">0</pdfrwt>
<pdfrwt beam="2">0</pdfrwt>
<totfact> 0.41719232E+12</totfact>
</mgrwt>
</event>
<event>
 4    1  0.1699693E+006  0.2637855E+01  0.7546771E-02  0.2650707E+00
         22   -1    0    0    0    0  0.00000000000E+00  0.00000000000E+00  0.12710797780E+02  0.12710797780E+02  0.00000000000E+00 0.  1.
         22   -1    0    0    0    0 -0.00000000000E+00 -0.00000000000E+00 -0.87525496054E+00  0.87525496054E+00  0.00000000000E+00 0. -1.
          4    1    1    2  501    0 -0.23023722346E+01  0.21085269155E+00  0.10075123167E+02  0.10414719564E+02  0.12700000000E+01 0.  1.
         -4    1    1    2    0  501  0.23023722346E+01 -0.21085269155E+00  0.17604196522E+01  0.31713331764E+01  0.12700000000E+01 0. -1.
<mgrwt>
<rscale>  0 0.26378546E+01</rscale>
<asrwt>0</asrwt>
<pdfrwt beam="1">0</pdfrwt>
<pdfrwt beam="2">0</pdfrwt>
<totfact> 0.13797779E+12</totfact>
</mgrwt>
</event>
<event>
 4    1  0.1699693E+006  0.2331828E+01  0.7546771E-02  0.2787659E+00
         22   -1    0    0    0    0  0.00000000000E+00  0.00000000000E+00  0.57269229568E+01  0.57269229568E+01  0.00000000000E+00 0. -1.
         22   -1    0    0    0    0 -0.00000000000E+00 -0.00000000000E+00 -0.98388320963E+00  0.98388320963E+00  0.00000000000E+00 0. -1.
          4    1    1    2  501    0  0.45178369276E+00  0.19027384670E+01  0.17437983963E+01  0.29117443270E+01  0.12700000000E+01 0. -1.
         -4    1    1    2    0  501 -0.45178369276E+00 -0.19027384670E+01  0.29992413508E+01  0.37990618394E+01  0.12700000000E+01 0. -1.
<mgrwt>
<rscale>  0 0.23318281E+01</rscale>
<asrwt>0</asrwt>
<pdfrwt beam="1">0</pdfrwt>
<pdfrwt beam="2">0</pdfrwt>
<totfact> 0.31544049E+12</totfact>
</mgrwt>
</event>
<event>
 4    1  0.1699693E+006  0.2010122E+01  0.7546771E-02  0.2973928E+00
         22   -1    0    0    0    0  0.00000000000E+00  0.00000000000E+00  0.14805579215E+02  0.14805579215E+02  0.00000000000E+00 0.  1.
         22   -1    0    0    0    0 -0.00000000000E+00 -0.00000000000E+00 -0.27764134925E+00  0.27764134925E+00  0.00000000000E+00 0.  1.
          4    1    1    2  501    0 -0.15284558462E+01  0.30250880862E+00  0.82484786465E+01  0.84898756666E+01  0.12700000000E+01 0.  1.
         -4    1    1    2    0  501  0.15284558462E+01 -0.30250880862E+00  0.62794592197E+01  0.65933448980E+01  0.12700000000E+01 0.  1.
<mgrwt>
<rscale>  0 0.20101216E+01</rscale>
<asrwt>0</asrwt>
<pdfrwt beam="1">0</pdfrwt>
<pdfrwt beam="2">0</pdfrwt>
<totfact> 0.41844168E+12</totfact>
</mgrwt>
</event>
<event>
 4    1  0.1699693E+006  0.2730816E+01  0.7546771E-02  0.2614760E+00
         22   -1    0    0    0    0  0.00000000000E+00  0.00000000000E+00  0.15606194344E+01  0.15606194344E+01  0.00000000000E+00 0.  1.
         22   -1    0    0    0    0 -0.00000000000E+00 -0.00000000000E+00 -0.55466638399E+01  0.55466638399E+01  0.00000000000E+00 0. -1.
          4    1    1    2  501    0  0.20553735330E+01 -0.12727518770E+01 -0.67052148926E+00  0.28119311457E+01  0.12700000000E+01 0. -1.
         -4    1    1    2    0  501 -0.20553735330E+01  0.12727518770E+01 -0.33155229163E+01  0.42953521286E+01  0.12700000000E+01 0.  1.
<mgrwt>
<rscale>  0 0.27308163E+01</rscale>
<asrwt>0</asrwt>
<pdfrwt beam="1">0</pdfrwt>
<pdfrwt beam="2">0</pdfrwt>
<totfact> 0.19307848E+12</totfact>
</mgrwt>
</event>
<event>
 4    1  0.1699693E+006  0.2851017E+01  0.7546771E-02  0.2571465E+00
         22   -1    0    0    0    0  0.00000000000E+00  0.00000000000E+00  0.15379608317E+01  0.15379608317E+01  0.00000000000E+00 0.  1.
         22   -1    0    0    0    0 -0.00000000000E+00 -0.00000000000E+00 -0.80475661055E+01  0.80475661055E+01  0.00000000000E+00 0. -1.
          4    1    1    2  501    0  0.58780287471E+00 -0.24839253365E+01 -0.44677646719E+00  0.28858112392E+01  0.12700000000E+01 0. -1.
         -4    1    1    2    0  501 -0.58780287471E+00  0.24839253365E+01 -0.60628288066E+01  0.66997156981E+01  0.12700000000E+01 0. -1.
<mgrwt>
<rscale>  0 0.28510169E+01</rscale>
<asrwt>0</asrwt>
<pdfrwt beam="1">0</pdfrwt>
<pdfrwt beam="2">0</pdfrwt>
<totfact> 0.12588864E+12</totfact>
</mgrwt>
</event>
<event>
 4    1  0.1699693E+006  0.2036901E+01  0.7546771E-02  0.2956254E+00
         22   -1    0    0    0    0  0.00000000000E+00  0.00000000000E+00  0.12498778616E+02  0.12498778616E+02  0.00000000000E+00 0.  1.
         22   -1    0    0    0    0 -0.00000000000E+00 -0.00000000000E+00 -0.43161288237E+00  0.43161288237E+00  0.00000000000E+00 0. -1.
          4    1    1    2  501    0  0.10673859202E+01 -0.11818423460E+01  0.91403032354E+01  0.93645131891E+01  0.12700000000E+01 0. -1.
         -4    1    1    2    0  501 -0.10673859202E+01  0.11818423460E+01  0.29268624986E+01  0.35658783096E+01  0.12700000000E+01 0. -1.
<mgrwt>
<rscale>  0 0.20369006E+01</rscale>
<asrwt>0</asrwt>
<pdfrwt beam="1">0</pdfrwt>
<pdfrwt beam="2">0</pdfrwt>
<totfact> 0.31371293E+12</totfact>
</mgrwt>
</event>
<event>
 4    1  0.1699693E+006  0.5087711E+01  0.7546771E-02  0.2112677E+00
         22   -1    0    0    0    0  0.00000000000E+00  0.00000000000E+00  0.16164968822E+02  0.16164968822E+02  0.00000000000E+00 0.  1.
         22   -1    0    0    0    0 -0.00000000000E+00 -0.00000000000E+00 -0.21368415941E+01  0.21368415941E+01  0.00000000000E+00 0.  1.
          4    1    1    2  501    0  0.34269215691E+01 -0.35395072487E+01  0.11595256192E+02  0.12662336639E+02  0.12700000000E+01 0.  1.
         -4    1    1    2    0  501 -0.34269215691E+01  0.35395072487E+01  0.24328710359E+01  0.56394737770E+01  0.12700000000E+01 0.  1.
<mgrwt>
<rscale>  0 0.50877110E+01</rscale>
<asrwt>0</asrwt>
<pdfrwt beam="1">0</pdfrwt>
<pdfrwt beam="2">0</pdfrwt>
<totfact> 0.36836161E+11</totfact>
</mgrwt>
</event>
<event>
 4    1  0.1699693E+006  0.7093352E+01  0.7546771E-02  0.1933594E+00
         22   -1    0    0    0    0  0.00000000000E+00  0.00000000000E+00  0.81983222151E+01  0.81983222151E+01  0.00000000000E+00 0.  1.
         22   -1    0    0    0    0 -0.00000000000E+00 -0.00000000000E+00 -0.96024813075E+01  0.96024813075E+01  0.00000000000E+00 0. -1.
          4    1    1    2  501    0  0.34641701074E+01 -0.60582392908E+01  0.46445523475E+01  0.84786499129E+01  0.12700000000E+01 0.  1.
         -4    1    1    2    0  501 -0.34641701074E+01  0.60582392908E+01 -0.60487114399E+01  0.93221536096E+01  0.12700000000E+01 0. -1.
<mgrwt>
<rscale>  0 0.70933517E+01</rscale>
<asrwt>0</asrwt>
<pdfrwt beam="1">0</pdfrwt>
<pdfrwt beam="2">0</pdfrwt>
<totfact> 0.14257565E+11</totfact>
</mgrwt>
</event>
<event>
 4    1  0.1699693E+006  0.2386802E+01  0.7546771E-02  0.2760641E+00
         22   -1    0    0    0    0  0.00000000000E+00  0.00000000000E+00  0.64548235476E+00  0.64548235476E+00  0.00000000000E+00 0.  1.
         22   -1    0    0    0    0 -0.00000000000E+00 -0.00000000000E+00 -0.71761605937E+02  0.71761605937E+02  0.00000000000E+00 0. -1.
          4    1    1    2  501    0  0.59861253701E-01 -0.20199855441E+01 -0.16537991562E+01  0.29037693808E+01  0.12700000000E+01 0.  1.
         -4    1    1    2    0  501 -0.59861253701E-01  0.20199855441E+01 -0.69462324426E+02  0.69503318911E+02  0.12700000000E+01 0. -1.
<mgrwt>
<rscale>  0 0.23868022E+01</rscale>
<asrwt>0</asrwt>
<pdfrwt beam="1">0</pdfrwt>
<pdfrwt beam="2">0</pdfrwt>
<totfact> 0.21269478E+11</totfact>
</mgrwt>
</event>
<event>
 4    1  0.1699693E+006  0.2868128E+01  0.7546771E-02  0.2565570E+00
         22   -1    0    0    0    0  0.00000000000E+00  0.00000000000E+00  0.42490551091E+01  0.42490551091E+01  0.00000000000E+00 0.  1.
         22   -1    0    0    0    0 -0.00000000000E+00 -0.00000000000E+00 -0.33129426898E+01  0.33129426898E+01  0.00000000000E+00 0. -1.
          4    1    1    2  501    0  0.11955776846E+01  0.22768075686E+01  0.29056310949E+01  0.40827503921E+01  0.12700000000E+01 0.  1.
         -4    1    1    2    0  501 -0.11955776846E+01 -0.22768075686E+01 -0.19695186756E+01  0.34792474068E+01  0.12700000000E+01 0. -1.
<mgrwt>
<rscale>  0 0.28681281E+01</rscale>
<asrwt>0</asrwt>
<pdfrwt beam="1">0</pdfrwt>
<pdfrwt beam="2">0</pdfrwt>
<totfact> 0.11044459E+12</totfact>
</mgrwt>
</event>
<event>
 4    1  0.1699693E+006  0.2504431E+01  0.7546771E-02  0.2706580E+00
         22   -1    0    0    0    0  0.00000000000E+00  0.00000000000E+00  0.31434033030E+02  0.31434033030E+02  0.00000000000E+00 0. -1.
         22   -1    0    0    0    0 -0.00000000000E+00 -0.00000000000E+00 -0.32281038218E+00  0.32281038218E+00  0.00000000000E+00 0.  1.
          4    1    1    2  501    0  0.15485770255E+00  0.21529732138E+01  0.25367951958E+02  0.25491276176E+02  0.12700000000E+01 0. -1.
         -4    1    1    2    0  501 -0.15485770255E+00 -0.21529732138E+01  0.57432706899E+01  0.62655672357E+01  0.12700000000E+01 0.  1.
<mgrwt>
<rscale>  0 0.25044310E+01</rscale>
<asrwt>0</asrwt>
<pdfrwt beam="1">0</pdfrwt>
<pdfrwt beam="2">0</pdfrwt>
<totfact> 0.13764671E+12</totfact>
</mgrwt>
</event>
<event>
 4    1  0.1699693E+006  0.2033391E+01  0.7546771E-02  0.2958544E+00
         22   -1    0    0    0    0  0.00000000000E+00  0.00000000000E+00  0.37255188672E+02  0.37255188672E+02  0.00000000000E+00 0. -1.
         22   -1    0    0    0    0 -0.00000000000E+00 -0.00000000000E+00 -0.31800865187E+00  0.31800865187E+00  0.00000000000E+00 0.  1.
          4    1    1    2  501    0 -0.13875393266E+01  0.77234242026E+00  0.33626564638E+02  0.33687987882E+02  0.12700000000E+01 0. -1.
         -4    1    1    2    0  501  0.13875393266E+01 -0.77234242026E+00  0.33106153819E+01  0.38852094414E+01  0.12700000000E+01 0.  1.
<mgrwt>
<rscale>  0 0.20333908E+01</rscale>
<asrwt>0</asrwt>
<pdfrwt beam="1">0</pdfrwt>
<pdfrwt beam="2">0</pdfrwt>
<totfact> 0.11251996E+12</totfact>
</mgrwt>
</event>
<event>
 4    1  0.1699693E+006  0.2522345E+01  0.7546771E-02  0.2698760E+00
         22   -1    0    0    0    0  0.00000000000E+00  0.00000000000E+00  0.23909934640E+02  0.23909934640E+02  0.00000000000E+00 0.  1.
         22   -1    0    0    0    0 -0.00000000000E+00 -0.00000000000E+00 -0.28395335854E+00  0.28395335854E+00  0.00000000000E+00 0. -1.
          4    1    1    2  501    0  0.38389571284E+00  0.21452151427E+01  0.14847012921E+02  0.15059748225E+02  0.12700000000E+01 0. -1.
         -4    1    1    2    0  501 -0.38389571284E+00 -0.21452151427E+01  0.87789683606E+01  0.91341397736E+01  0.12700000000E+01 0.  1.
<mgrwt>
<rscale>  0 0.25223449E+01</rscale>
<asrwt>0</asrwt>
<pdfrwt beam="1">0</pdfrwt>
<pdfrwt beam="2">0</pdfrwt>
<totfact> 0.22484554E+12</totfact>
</mgrwt>
</event>
<event>
 4    1  0.1699693E+006  0.2145393E+01  0.7546771E-02  0.2889050E+00
         22   -1    0    0    0    0  0.00000000000E+00  0.00000000000E+00  0.11982539798E+01  0.11982539798E+01  0.00000000000E+00 0. -1.
         22   -1    0    0    0    0 -0.00000000000E+00 -0.00000000000E+00 -0.39316584953E+01  0.39316584953E+01  0.00000000000E+00 0.  1.
          4    1    1    2  501    0  0.11760640617E+01  0.12675506111E+01 -0.17558018102E+01  0.27722826742E+01  0.12700000000E+01 0.  1.
         -4    1    1    2    0  501 -0.11760640617E+01 -0.12675506111E+01 -0.97760270538E+00  0.23576298010E+01  0.12700000000E+01 0. -1.
<mgrwt>
<rscale>  0 0.21453930E+01</rscale>
<asrwt>0</asrwt>
<pdfrwt beam="1">0</pdfrwt>
<pdfrwt beam="2">0</pdfrwt>
<totfact> 0.39276034E+12</totfact>
</mgrwt>
</event>
<event>
 4    1  0.1699693E+006  0.2945453E+01  0.7546771E-02  0.2539703E+00
         22   -1    0    0    0    0  0.00000000000E+00  0.00000000000E+00  0.69358286913E+01  0.69358286913E+01  0.00000000000E+00 0.  1.
         22   -1    0    0    0    0 -0.00000000000E+00 -0.00000000000E+00 -0.11832729153E+02  0.11832729153E+02  0.00000000000E+00 0. -1.
          4    1    1    2  501    0  0.85512749280E-01  0.26562154492E+01  0.64259663209E+01  0.70688567746E+01  0.12700000000E+01 0.  1.
         -4    1    1    2    0  501 -0.85512749280E-01 -0.26562154492E+01 -0.11322866783E+02  0.11699701070E+02  0.12700000000E+01 0. -1.
<mgrwt>
<rscale>  0 0.29454529E+01</rscale>
<asrwt>0</asrwt>
<pdfrwt beam="1">0</pdfrwt>
<pdfrwt beam="2">0</pdfrwt>
<totfact> 0.13521671E+11</totfact>
</mgrwt>
</event>
<event>
 4    1  0.1699693E+006  0.3202097E+01  0.7546771E-02  0.2461932E+00
         22   -1    0    0    0    0  0.00000000000E+00  0.00000000000E+00  0.15760539708E+02  0.15760539708E+02  0.00000000000E+00 0.  1.
         22   -1    0    0    0    0 -0.00000000000E+00 -0.00000000000E+00 -0.11609998454E+01  0.11609998454E+01  0.00000000000E+00 0. -1.
          4    1    1    2  501    0 -0.20626049024E+01 -0.20943219744E+01  0.12909725468E+02  0.13300918584E+02  0.12700000000E+01 0.  1.
         -4    1    1    2    0  501  0.20626049024E+01  0.20943219744E+01  0.16898143944E+01  0.36206209693E+01  0.12700000000E+01 0. -1.
<mgrwt>
<rscale>  0 0.32020967E+01</rscale>
<asrwt>0</asrwt>
<pdfrwt beam="1">0</pdfrwt>
<pdfrwt beam="2">0</pdfrwt>
<totfact> 0.76740065E+11</totfact>
</mgrwt>
</event>
<event>
 4    1  0.1699693E+006  0.2321915E+01  0.7546771E-02  0.2792659E+00
         22   -1    0    0    0    0  0.00000000000E+00  0.00000000000E+00  0.69747579268E+01  0.69747579268E+01  0.00000000000E+00 0.  1.
         22   -1    0    0    0    0 -0.00000000000E+00 -0.00000000000E+00 -0.78600680892E+00  0.78600680892E+00  0.00000000000E+00 0. -1.
          4    1    1    2  501    0 -0.33864862425E+00  0.19140815503E+01  0.25946663938E+01  0.34818938477E+01  0.12700000000E+01 0.  1.
         -4    1    1    2    0  501  0.33864862425E+00 -0.19140815503E+01  0.35940847241E+01  0.42788708879E+01  0.12700000000E+01 0. -1.
<mgrwt>
<rscale>  0 0.23219154E+01</rscale>
<asrwt>0</asrwt>
<pdfrwt beam="1">0</pdfrwt>
<pdfrwt beam="2">0</pdfrwt>
<totfact> 0.32207653E+12</totfact>
</mgrwt>
</event>
<event>
 4    1  0.1699693E+006  0.8035685E+01  0.7546771E-02  0.1874223E+00
         22   -1    0    0    0    0  0.00000000000E+00  0.00000000000E+00  0.17796451094E+02  0.17796451094E+02  0.00000000000E+00 0. -1.
         22   -1    0    0    0    0 -0.00000000000E+00 -0.00000000000E+00 -0.39870886026E+01  0.39870886026E+01  0.00000000000E+00 0.  1.
          4    1    1    2  501    0  0.11608942717E+01  0.78493097523E+01  0.10171635440E+02  0.12962808593E+02  0.12700000000E+01 0. -1.
         -4    1    1    2    0  501 -0.11608942717E+01 -0.78493097523E+01  0.36377270516E+01  0.88207311035E+01  0.12700000000E+01 0.  1.
<mgrwt>
<rscale>  0 0.80356854E+01</rscale>
<asrwt>0</asrwt>
<pdfrwt beam="1">0</pdfrwt>
<pdfrwt beam="2">0</pdfrwt>
<totfact> 0.15788096E+11</totfact>
</mgrwt>
</event>
<event>
 4    1  0.1699693E+006  0.2038345E+01  0.7546771E-02  0.2955313E+00
         22   -1    0    0    0    0  0.00000000000E+00  0.00000000000E+00  0.73580635062E-01  0.73580635062E-01  0.00000000000E+00 0. -1.
         22   -1    0    0    0    0 -0.00000000000E+00 -0.00000000000E+00 -0.56546053380E+02  0.56546053380E+02  0.00000000000E+00 0. -1.
          4    1    1    2  501    0 -0.62082689688E+00 -0.14685115068E+01 -0.29297079435E+02  0.29367902810E+02  0.12700000000E+01 0. -1.
         -4    1    1    2    0  501  0.62082689688E+00  0.14685115068E+01 -0.27175393310E+02  0.27251731204E+02  0.12700000000E+01 0. -1.
<mgrwt>
<rscale>  0 0.20383454E+01</rscale>
<asrwt>0</asrwt>
<pdfrwt beam="1">0</pdfrwt>
<pdfrwt beam="2">0</pdfrwt>
<totfact> 0.33170819E+12</totfact>
</mgrwt>
</event>
<event>
 4    1  0.1699693E+006  0.2448900E+01  0.7546771E-02  0.2731496E+00
         22   -1    0    0    0    0  0.00000000000E+00  0.00000000000E+00  0.40091927319E+01  0.40091927319E+01  0.00000000000E+00 0. -1.
         22   -1    0    0    0    0 -0.00000000000E+00 -0.00000000000E+00 -0.64777658105E+01  0.64777658105E+01  0.00000000000E+00 0. -1.
          4    1    1    2  501    0 -0.85545828087E+00  0.19111254977E+01  0.33641010701E+01  0.41610438051E+01  0.12700000000E+01 0. -1.
         -4    1    1    2    0  501  0.85545828087E+00 -0.19111254977E+01 -0.58326741487E+01  0.63259147372E+01  0.12700000000E+01 0. -1.
<mgrwt>
<rscale>  0 0.24488997E+01</rscale>
<asrwt>0</asrwt>
<pdfrwt beam="1">0</pdfrwt>
<pdfrwt beam="2">0</pdfrwt>
<totfact> 0.53547252E+11</totfact>
</mgrwt>
</event>
<event>
 4    1  0.1699693E+006  0.2066434E+01  0.7546771E-02  0.2937281E+00
         22   -1    0    0    0    0  0.00000000000E+00  0.00000000000E+00  0.12763833515E+01  0.12763833515E+01  0.00000000000E+00 0.  1.
         22   -1    0    0    0    0 -0.00000000000E+00 -0.00000000000E+00 -0.34337644894E+01  0.34337644894E+01  0.00000000000E+00 0. -1.
          4    1    1    2  501    0  0.15716559485E+01 -0.43260424531E+00 -0.70112168147E+00  0.21821366744E+01  0.12700000000E+01 0. -1.
         -4    1    1    2    0  501 -0.15716559485E+01  0.43260424531E+00 -0.14562594565E+01  0.25280111665E+01  0.12700000000E+01 0.  1.
<mgrwt>
<rscale>  0 0.20664338E+01</rscale>
<asrwt>0</asrwt>
<pdfrwt beam="1">0</pdfrwt>
<pdfrwt beam="2">0</pdfrwt>
<totfact> 0.42826890E+12</totfact>
</mgrwt>
</event>
<event>
 4    1  0.1699693E+006  0.3667049E+01  0.7546771E-02  0.2345847E+00
         22   -1    0    0    0    0  0.00000000000E+00  0.00000000000E+00  0.12310531534E+02  0.12310531534E+02  0.00000000000E+00 0.  1.
         22   -1    0    0    0    0 -0.00000000000E+00 -0.00000000000E+00 -0.11794035009E+01  0.11794035009E+01  0.00000000000E+00 0.  1.
          4    1    1    2  501    0  0.30600224538E+01  0.15718178809E+01  0.73981917118E+01  0.82571477807E+01  0.12700000000E+01 0.  1.
         -4    1    1    2    0  501 -0.30600224538E+01 -0.15718178809E+01  0.37329363214E+01  0.52327872542E+01  0.12700000000E+01 0.  1.
<mgrwt>
<rscale>  0 0.36670491E+01</rscale>
<asrwt>0</asrwt>
<pdfrwt beam="1">0</pdfrwt>
<pdfrwt beam="2">0</pdfrwt>
<totfact> 0.10205395E+12</totfact>
</mgrwt>
</event>
<event>
 4    1  0.1699693E+006  0.2089735E+01  0.7546771E-02  0.2922680E+00
         22   -1    0    0    0    0  0.00000000000E+00  0.00000000000E+00  0.56225133783E+01  0.56225133783E+01  0.00000000000E+00 0. -1.
         22   -1    0    0    0    0 -0.00000000000E+00 -0.00000000000E+00 -0.79265699369E+00  0.79265699369E+00  0.00000000000E+00 0.  1.
          4    1    1    2  501    0  0.54849877164E-01  0.16586389838E+01  0.19597873332E+01  0.28649185292E+01  0.12700000000E+01 0. -1.
         -4    1    1    2    0  501 -0.54849877164E-01 -0.16586389838E+01  0.28700690514E+01  0.35502518428E+01  0.12700000000E+01 0.  1.
<mgrwt>
<rscale>  0 0.20897349E+01</rscale>
<asrwt>0</asrwt>
<pdfrwt beam="1">0</pdfrwt>
<pdfrwt beam="2">0</pdfrwt>
<totfact> 0.41242532E+12</totfact>
</mgrwt>
</event>
<event>
 4    1  0.1699693E+006  0.2562122E+01  0.7546771E-02  0.2681760E+00
         22   -1    0    0    0    0  0.00000000000E+00  0.00000000000E+00  0.11768411612E+01  0.11768411612E+01  0.00000000000E+00 0.  1.
         22   -1    0    0    0    0 -0.00000000000E+00 -0.00000000000E+00 -0.56458919742E+01  0.56458919742E+01  0.00000000000E+00 0. -1.
          4    1    1    2  501    0  0.95510664504E+00 -0.20098107644E+01 -0.26084988739E+01  0.36563279922E+01  0.12700000000E+01 0. -1.
         -4    1    1    2    0  501 -0.95510664504E+00  0.20098107644E+01 -0.18605519391E+01  0.31664051431E+01  0.12700000000E+01 0.  1.
<mgrwt>
<rscale>  0 0.25621218E+01</rscale>
<asrwt>0</asrwt>
<pdfrwt beam="1">0</pdfrwt>
<pdfrwt beam="2">0</pdfrwt>
<totfact> 0.26142682E+12</totfact>
</mgrwt>
</event>
<event>
 4    1  0.1699693E+006  0.2403832E+01  0.7546771E-02  0.2752508E+00
         22   -1    0    0    0    0  0.00000000000E+00  0.00000000000E+00  0.21015014375E+01  0.21015014375E+01  0.00000000000E+00 0. -1.
         22   -1    0    0    0    0 -0.00000000000E+00 -0.00000000000E+00 -0.32709771160E+01  0.32709771160E+01  0.00000000000E+00 0.  1.
          4    1    1    2  501    0  0.19576850268E+01 -0.57704226034E+00  0.48766541911E+00  0.24527996239E+01  0.12700000000E+01 0. -1.
         -4    1    1    2    0  501 -0.19576850268E+01  0.57704226034E+00 -0.16571410976E+01  0.29196789295E+01  0.12700000000E+01 0.  1.
<mgrwt>
<rscale>  0 0.24038320E+01</rscale>
<asrwt>0</asrwt>
<pdfrwt beam="1">0</pdfrwt>
<pdfrwt beam="2">0</pdfrwt>
<totfact> 0.25517051E+12</totfact>
</mgrwt>
</event>
<event>
 4    1  0.1699693E+006  0.4461865E+01  0.7546771E-02  0.2196840E+00
         22   -1    0    0    0    0  0.00000000000E+00  0.00000000000E+00  0.21295337179E+02  0.21295337179E+02  0.00000000000E+00 0.  1.
         22   -1    0    0    0    0 -0.00000000000E+00 -0.00000000000E+00 -0.93725330567E+00  0.93725330567E+00  0.00000000000E+00 0. -1.
          4    1    1    2  501    0 -0.25968513555E+01 -0.33987801203E+01  0.10740310827E+02  0.11630241611E+02  0.12700000000E+01 0. -1.
         -4    1    1    2    0  501  0.25968513555E+01  0.33987801203E+01  0.96177730460E+01  0.10602348873E+02  0.12700000000E+01 0.  1.
<mgrwt>
<rscale>  0 0.44618654E+01</rscale>
<asrwt>0</asrwt>
<pdfrwt beam="1">0</pdfrwt>
<pdfrwt beam="2">0</pdfrwt>
<totfact> 0.67445386E+11</totfact>
</mgrwt>
</event>
<event>
 4    1  0.1699693E+006  0.2240227E+01  0.7546771E-02  0.2835462E+00
         22   -1    0    0    0    0  0.00000000000E+00  0.00000000000E+00  0.14476529853E+01  0.14476529853E+01  0.00000000000E+00 0.  1.
         22   -1    0    0    0    0 -0.00000000000E+00 -0.00000000000E+00 -0.34667713747E+01  0.34667713747E+01  0.00000000000E+00 0. -1.
          4    1    1    2  501    0  0.81104610041E+00  0.16576858245E+01 -0.10007939721E+01  0.24536109399E+01  0.12700000000E+01 0.  1.
         -4    1    1    2    0  501 -0.81104610041E+00 -0.16576858245E+01 -0.10183244173E+01  0.24608134201E+01  0.12700000000E+01 0. -1.
<mgrwt>
<rscale>  0 0.22402272E+01</rscale>
<asrwt>0</asrwt>
<pdfrwt beam="1">0</pdfrwt>
<pdfrwt beam="2">0</pdfrwt>
<totfact> 0.36649105E+12</totfact>
</mgrwt>
</event>
<event>
 4    1  0.1699693E+006  0.3099982E+01  0.7546771E-02  0.2491499E+00
         22   -1    0    0    0    0  0.00000000000E+00  0.00000000000E+00  0.29421511605E+01  0.29421511605E+01  0.00000000000E+00 0.  1.
         22   -1    0    0    0    0 -0.00000000000E+00 -0.00000000000E+00 -0.62248541654E+01  0.62248541654E+01  0.00000000000E+00 0. -1.
          4    1    1    2  501    0 -0.76797087532E+00  0.27216185524E+01  0.15185547234E+01  0.34519407958E+01  0.12700000000E+01 0.  1.
         -4    1    1    2    0  501  0.76797087532E+00 -0.27216185524E+01 -0.48012577282E+01  0.57150645301E+01  0.12700000000E+01 0. -1.
<mgrwt>
<rscale>  0 0.30999817E+01</rscale>
<asrwt>0</asrwt>
<pdfrwt beam="1">0</pdfrwt>
<pdfrwt beam="2">0</pdfrwt>
<totfact> 0.80705262E+11</totfact>
</mgrwt>
</event>
<event>
 4    1  0.1699693E+006  0.2088932E+01  0.7546771E-02  0.2923178E+00
         22   -1    0    0    0    0  0.00000000000E+00  0.00000000000E+00  0.18291821300E+02  0.18291821300E+02  0.00000000000E+00 0. -1.
         22   -1    0    0    0    0 -0.00000000000E+00 -0.00000000000E+00 -0.24349037941E+00  0.24349037941E+00  0.00000000000E+00 0. -1.
          4    1    1    2  501    0 -0.40181559274E+00 -0.16091249399E+01  0.10343360116E+02  0.10552191115E+02  0.12700000000E+01 0. -1.
         -4    1    1    2    0  501  0.40181559274E+00  0.16091249399E+01  0.77049708044E+01  0.79831205640E+01  0.12700000000E+01 0. -1.
<mgrwt>
<rscale>  0 0.20889325E+01</rscale>
<asrwt>0</asrwt>
<pdfrwt beam="1">0</pdfrwt>
<pdfrwt beam="2">0</pdfrwt>
<totfact> 0.37322111E+12</totfact>
</mgrwt>
</event>
<event>
 4    1  0.1699693E+006  0.4436303E+01  0.7546771E-02  0.2200922E+00
         22   -1    0    0    0    0  0.00000000000E+00  0.00000000000E+00  0.64659569849E+00  0.64659569849E+00  0.00000000000E+00 0. -1.
         22   -1    0    0    0    0 -0.00000000000E+00 -0.00000000000E+00 -0.33180386010E+02  0.33180386010E+02  0.00000000000E+00 0.  1.
          4    1    1    2  501    0  0.33576930623E+01  0.26064884352E+01 -0.11404021612E+02  0.12236522937E+02  0.12700000000E+01 0. -1.
         -4    1    1    2    0  501 -0.33576930623E+01 -0.26064884352E+01 -0.21129768699E+02  0.21590458771E+02  0.12700000000E+01 0.  1.
<mgrwt>
<rscale>  0 0.44363030E+01</rscale>
<asrwt>0</asrwt>
<pdfrwt beam="1">0</pdfrwt>
<pdfrwt beam="2">0</pdfrwt>
<totfact> 0.58677511E+11</totfact>
</mgrwt>
</event>
<event>
 4    1  0.1699693E+006  0.2257978E+01  0.7546771E-02  0.2825910E+00
         22   -1    0    0    0    0  0.00000000000E+00  0.00000000000E+00  0.10657339831E+02  0.10657339831E+02  0.00000000000E+00 0.  1.
         22   -1    0    0    0    0 -0.00000000000E+00 -0.00000000000E+00 -0.66961825999E+00  0.66961825999E+00  0.00000000000E+00 0.  1.
          4    1    1    2  501    0 -0.17781930658E+01  0.56885314104E+00  0.80203217042E+01  0.83321080595E+01  0.12700000000E+01 0.  1.
         -4    1    1    2    0  501  0.17781930658E+01 -0.56885314104E+00  0.19673998667E+01  0.29948500315E+01  0.12700000000E+01 0.  1.
<mgrwt>
<rscale>  0 0.22579780E+01</rscale>
<asrwt>0</asrwt>
<pdfrwt beam="1">0</pdfrwt>
<pdfrwt beam="2">0</pdfrwt>
<totfact> 0.23185004E+12</totfact>
</mgrwt>
</event>
<event>
 4    1  0.1699693E+006  0.2283531E+01  0.7546771E-02  0.2812409E+00
         22   -1    0    0    0    0  0.00000000000E+00  0.00000000000E+00  0.54276404686E+00  0.54276404686E+00  0.00000000000E+00 0.  1.
         22   -1    0    0    0    0 -0.00000000000E+00 -0.00000000000E+00 -0.11156706191E+02  0.11156706191E+02  0.00000000000E+00 0.  1.
          4    1    1    2  501    0 -0.90994833477E+00  0.16654158609E+01 -0.31270239585E+01  0.38720530470E+01  0.12700000000E+01 0.  1.
         -4    1    1    2    0  501  0.90994833477E+00 -0.16654158609E+01 -0.74869181852E+01  0.78274171905E+01  0.12700000000E+01 0.  1.
<mgrwt>
<rscale>  0 0.22835315E+01</rscale>
<asrwt>0</asrwt>
<pdfrwt beam="1">0</pdfrwt>
<pdfrwt beam="2">0</pdfrwt>
<totfact> 0.27819396E+12</totfact>
</mgrwt>
</event>
<event>
 4    1  0.1699693E+006  0.3775032E+01  0.7546771E-02  0.2322477E+00
         22   -1    0    0    0    0  0.00000000000E+00  0.00000000000E+00  0.75139831607E+00  0.75139831607E+00  0.00000000000E+00 0.  1.
         22   -1    0    0    0    0 -0.00000000000E+00 -0.00000000000E+00 -0.28498759330E+02  0.28498759330E+02  0.00000000000E+00 0. -1.
          4    1    1    2  501    0 -0.35546556140E+01  0.48875789020E-01 -0.54150655817E+01  0.66010454196E+01  0.12700000000E+01 0.  1.
         -4    1    1    2    0  501  0.35546556140E+01 -0.48875789020E-01 -0.22332295432E+02  0.22649112227E+02  0.12700000000E+01 0. -1.
<mgrwt>
<rscale>  0 0.37750318E+01</rscale>
<asrwt>0</asrwt>
<pdfrwt beam="1">0</pdfrwt>
<pdfrwt beam="2">0</pdfrwt>
<totfact> 0.60080182E+11</totfact>
</mgrwt>
</event>
<event>
 4    1  0.1699693E+006  0.2148677E+01  0.7546771E-02  0.2887119E+00
         22   -1    0    0    0    0  0.00000000000E+00  0.00000000000E+00  0.21056725261E+01  0.21056725261E+01  0.00000000000E+00 0.  1.
         22   -1    0    0    0    0 -0.00000000000E+00 -0.00000000000E+00 -0.23896024526E+01  0.23896024526E+01  0.00000000000E+00 0.  1.
          4    1    1    2  501    0  0.17232782040E+01 -0.18499727776E+00  0.50345764701E+00  0.22068713971E+01  0.12700000000E+01 0.  1.
         -4    1    1    2    0  501 -0.17232782040E+01  0.18499727776E+00 -0.78738757360E+00  0.22884035816E+01  0.12700000000E+01 0.  1.
<mgrwt>
<rscale>  0 0.21486767E+01</rscale>
<asrwt>0</asrwt>
<pdfrwt beam="1">0</pdfrwt>
<pdfrwt beam="2">0</pdfrwt>
<totfact> 0.36714436E+12</totfact>
</mgrwt>
</event>
<event>
 4    1  0.1699693E+006  0.3226043E+01  0.7546771E-02  0.2455239E+00
         22   -1    0    0    0    0  0.00000000000E+00  0.00000000000E+00  0.12190617890E+02  0.12190617890E+02  0.00000000000E+00 0.  1.
         22   -1    0    0    0    0 -0.00000000000E+00 -0.00000000000E+00 -0.18823135281E+01  0.18823135281E+01  0.00000000000E+00 0. -1.
          4    1    1    2  501    0 -0.15190177767E+01  0.25469664047E+01  0.10355679199E+02  0.10846540672E+02  0.12700000000E+01 0.  1.
         -4    1    1    2    0  501  0.15190177767E+01 -0.25469664047E+01 -0.47374837162E-01  0.32263907463E+01  0.12700000000E+01 0. -1.
<mgrwt>
<rscale>  0 0.32260429E+01</rscale>
<asrwt>0</asrwt>
<pdfrwt beam="1">0</pdfrwt>
<pdfrwt beam="2">0</pdfrwt>
<totfact> 0.60314673E+11</totfact>
</mgrwt>
</event>
<event>
 4    1  0.1699693E+006  0.2122472E+01  0.7546771E-02  0.2902693E+00
         22   -1    0    0    0    0  0.00000000000E+00  0.00000000000E+00  0.28823879835E+00  0.28823879835E+00  0.00000000000E+00 0. -1.
         22   -1    0    0    0    0 -0.00000000000E+00 -0.00000000000E+00 -0.18406916381E+02  0.18406916381E+02  0.00000000000E+00 0.  1.
          4    1    1    2  501    0 -0.10440856285E+01 -0.13423376917E+01 -0.54279909998E+01  0.58282048327E+01  0.12700000000E+01 0. -1.
         -4    1    1    2    0  501  0.10440856285E+01  0.13423376917E+01 -0.12690686582E+02  0.12866950346E+02  0.12700000000E+01 0.  1.
<mgrwt>
<rscale>  0 0.21224715E+01</rscale>
<asrwt>0</asrwt>
<pdfrwt beam="1">0</pdfrwt>
<pdfrwt beam="2">0</pdfrwt>
<totfact> 0.30659514E+12</totfact>
</mgrwt>
</event>
<event>
 4    1  0.1699693E+006  0.2513074E+01  0.7546771E-02  0.2702794E+00
         22   -1    0    0    0    0  0.00000000000E+00  0.00000000000E+00  0.71858909389E+00  0.71858909389E+00  0.00000000000E+00 0. -1.
         22   -1    0    0    0    0 -0.00000000000E+00 -0.00000000000E+00 -0.11163760949E+02  0.11163760949E+02  0.00000000000E+00 0.  1.
          4    1    1    2  501    0  0.21551497307E+01  0.24077470475E+00 -0.24823091568E+01  0.35323365596E+01  0.12700000000E+01 0. -1.
         -4    1    1    2    0  501 -0.21551497307E+01 -0.24077470475E+00 -0.79628626986E+01  0.83500134836E+01  0.12700000000E+01 0.  1.
<mgrwt>
<rscale>  0 0.25130744E+01</rscale>
<asrwt>0</asrwt>
<pdfrwt beam="1">0</pdfrwt>
<pdfrwt beam="2">0</pdfrwt>
<totfact> 0.20227265E+12</totfact>
</mgrwt>
</event>
<event>
 4    1  0.1699693E+006  0.2450877E+01  0.7546771E-02  0.2730591E+00
         22   -1    0    0    0    0  0.00000000000E+00  0.00000000000E+00  0.15170812015E+02  0.15170812015E+02  0.00000000000E+00 0. -1.
         22   -1    0    0    0    0 -0.00000000000E+00 -0.00000000000E+00 -0.57336877181E+00  0.57336877181E+00  0.00000000000E+00 0. -1.
          4    1    1    2  501    0  0.10826369829E+01 -0.17949364366E+01  0.11677768199E+02  0.11932186294E+02  0.12700000000E+01 0. -1.
         -4    1    1    2    0  501 -0.10826369829E+01  0.17949364366E+01  0.29196750439E+01  0.38119944924E+01  0.12700000000E+01 0. -1.
<mgrwt>
<rscale>  0 0.24508773E+01</rscale>
<asrwt>0</asrwt>
<pdfrwt beam="1">0</pdfrwt>
<pdfrwt beam="2">0</pdfrwt>
<totfact> 0.17952444E+12</totfact>
</mgrwt>
</event>
<event>
 4    1  0.1699693E+006  0.4439830E+01  0.7546771E-02  0.2200357E+00
         22   -1    0    0    0    0  0.00000000000E+00  0.00000000000E+00  0.54041349848E+00  0.54041349848E+00  0.00000000000E+00 0. -1.
         22   -1    0    0    0    0 -0.00000000000E+00 -0.00000000000E+00 -0.40897192024E+02  0.40897192024E+02  0.00000000000E+00 0. -1.
          4    1    1    2  501    0  0.26060287728E+01 -0.33627078941E+01 -0.13366139750E+02  0.14084238785E+02  0.12700000000E+01 0. -1.
         -4    1    1    2    0  501 -0.26060287728E+01  0.33627078941E+01 -0.26990638776E+02  0.27353366737E+02  0.12700000000E+01 0. -1.
<mgrwt>
<rscale>  0 0.44398300E+01</rscale>
<asrwt>0</asrwt>
<pdfrwt beam="1">0</pdfrwt>
<pdfrwt beam="2">0</pdfrwt>
<totfact> 0.54884364E+11</totfact>
</mgrwt>
</event>
<event>
 4    1  0.1699693E+006  0.2013798E+01  0.7546771E-02  0.2971474E+00
         22   -1    0    0    0    0  0.00000000000E+00  0.00000000000E+00  0.68654564600E+00  0.68654564600E+00  0.00000000000E+00 0.  1.
         22   -1    0    0    0    0 -0.00000000000E+00 -0.00000000000E+00 -0.76367686140E+01  0.76367686140E+01  0.00000000000E+00 0. -1.
          4    1    1    2  501    0  0.20368387092E+00 -0.15495149408E+01 -0.14944371776E+01  0.25077332691E+01  0.12700000000E+01 0.  1.
         -4    1    1    2    0  501 -0.20368387092E+00  0.15495149408E+01 -0.54557857903E+01  0.58155809908E+01  0.12700000000E+01 0. -1.
<mgrwt>
<rscale>  0 0.20137983E+01</rscale>
<asrwt>0</asrwt>
<pdfrwt beam="1">0</pdfrwt>
<pdfrwt beam="2">0</pdfrwt>
<totfact> 0.33690452E+12</totfact>
</mgrwt>
</event>
<event>
 4    1  0.1699693E+006  0.2178303E+01  0.7546771E-02  0.2869946E+00
         22   -1    0    0    0    0  0.00000000000E+00  0.00000000000E+00  0.11139729287E+02  0.11139729287E+02  0.00000000000E+00 0.  1.
         22   -1    0    0    0    0 -0.00000000000E+00 -0.00000000000E+00 -0.47765076009E+00  0.47765076009E+00  0.00000000000E+00 0. -1.
          4    1    1    2  501    0 -0.37797769497E+00 -0.17289408820E+01  0.72420267662E+01  0.75625363070E+01  0.12700000000E+01 0.  1.
         -4    1    1    2    0  501  0.37797769497E+00  0.17289408820E+01  0.34200517608E+01  0.40548437402E+01  0.12700000000E+01 0. -1.
<mgrwt>
<rscale>  0 0.21783029E+01</rscale>
<asrwt>0</asrwt>
<pdfrwt beam="1">0</pdfrwt>
<pdfrwt beam="2">0</pdfrwt>
<totfact> 0.32198366E+12</totfact>
</mgrwt>
</event>
<event>
 4    1  0.1699693E+006  0.3356534E+01  0.7546771E-02  0.2420253E+00
         22   -1    0    0    0    0  0.00000000000E+00  0.00000000000E+00  0.11515239571E+00  0.11515239571E+00  0.00000000000E+00 0.  1.
         22   -1    0    0    0    0 -0.00000000000E+00 -0.00000000000E+00 -0.11657246580E+03  0.11657246580E+03  0.00000000000E+00 0. -1.
          4    1    1    2  501    0 -0.18347736755E+01 -0.25073939593E+01 -0.34839555235E+02  0.35000870388E+02  0.12700000000E+01 0.  1.
         -4    1    1    2    0  501  0.18347736755E+01  0.25073939593E+01 -0.81617758167E+02  0.81686747806E+02  0.12700000000E+01 0. -1.
<mgrwt>
<rscale>  0 0.33565338E+01</rscale>
<asrwt>0</asrwt>
<pdfrwt beam="1">0</pdfrwt>
<pdfrwt beam="2">0</pdfrwt>
<totfact> 0.74563378E+11</totfact>
</mgrwt>
</event>
<event>
 4    1  0.1699693E+006  0.2011855E+01  0.7546771E-02  0.2972770E+00
         22   -1    0    0    0    0  0.00000000000E+00  0.00000000000E+00  0.12819011311E+01  0.12819011311E+01  0.00000000000E+00 0.  1.
         22   -1    0    0    0    0 -0.00000000000E+00 -0.00000000000E+00 -0.38924403886E+01  0.38924403886E+01  0.00000000000E+00 0. -1.
          4    1    1    2  501    0  0.15311128663E+01 -0.30059086435E+00 -0.18105380049E+00  0.20199856326E+01  0.12700000000E+01 0.  1.
         -4    1    1    2    0  501 -0.15311128663E+01  0.30059086435E+00 -0.24294854570E+01  0.31543558872E+01  0.12700000000E+01 0. -1.
<mgrwt>
<rscale>  0 0.20118552E+01</rscale>
<asrwt>0</asrwt>
<pdfrwt beam="1">0</pdfrwt>
<pdfrwt beam="2">0</pdfrwt>
<totfact> 0.36781883E+12</totfact>
</mgrwt>
</event>
<event>
 4    1  0.1699693E+006  0.2072352E+01  0.7546771E-02  0.2933542E+00
         22   -1    0    0    0    0  0.00000000000E+00  0.00000000000E+00  0.31057717251E+01  0.31057717251E+01  0.00000000000E+00 0.  1.
         22   -1    0    0    0    0 -0.00000000000E+00 -0.00000000000E+00 -0.13834398585E+01  0.13834398585E+01  0.00000000000E+00 0.  1.
          4    1    1    2  501    0 -0.15877157783E+01  0.40112703619E+00  0.81268898004E+00  0.22260071137E+01  0.12700000000E+01 0.  1.
         -4    1    1    2    0  501  0.15877157783E+01 -0.40112703619E+00  0.90964288657E+00  0.22632044700E+01  0.12700000000E+01 0.  1.
<mgrwt>
<rscale>  0 0.20723524E+01</rscale>
<asrwt>0</asrwt>
<pdfrwt beam="1">0</pdfrwt>
<pdfrwt beam="2">0</pdfrwt>
<totfact> 0.43914143E+12</totfact>
</mgrwt>
</event>
<event>
 4    1  0.1699693E+006  0.2223211E+01  0.7546771E-02  0.2844755E+00
         22   -1    0    0    0    0  0.00000000000E+00  0.00000000000E+00  0.25342869667E+02  0.25342869667E+02  0.00000000000E+00 0.  1.
         22   -1    0    0    0    0 -0.00000000000E+00 -0.00000000000E+00 -0.26690961660E+00  0.26690961660E+00  0.00000000000E+00 0.  1.
          4    1    1    2  501    0  0.10820501065E+01  0.14693306919E+01  0.19182922288E+02  0.19311322395E+02  0.12700000000E+01 0.  1.
         -4    1    1    2    0  501 -0.10820501065E+01 -0.14693306919E+01  0.58930377621E+01  0.62984568888E+01  0.12700000000E+01 0.  1.
<mgrwt>
<rscale>  0 0.22232105E+01</rscale>
<asrwt>0</asrwt>
<pdfrwt beam="1">0</pdfrwt>
<pdfrwt beam="2">0</pdfrwt>
<totfact> 0.22393254E+12</totfact>
</mgrwt>
</event>
<event>
 4    1  0.1699693E+006  0.2688334E+01  0.7546771E-02  0.2630905E+00
         22   -1    0    0    0    0  0.00000000000E+00  0.00000000000E+00  0.75713210699E-01  0.75713210699E-01  0.00000000000E+00 0.  1.
         22   -1    0    0    0    0 -0.00000000000E+00 -0.00000000000E+00 -0.95475391608E+02  0.95475391608E+02  0.00000000000E+00 0. -1.
          4    1    1    2  501    0  0.39777146101E+00  0.23358115619E+01 -0.46986698454E+02  0.47063541828E+02  0.12700000000E+01 0.  1.
         -4    1    1    2    0  501 -0.39777146101E+00 -0.23358115619E+01 -0.48412979943E+02  0.48487562990E+02  0.12700000000E+01 0. -1.
<mgrwt>
<rscale>  0 0.26883336E+01</rscale>
<asrwt>0</asrwt>
<pdfrwt beam="1">0</pdfrwt>
<pdfrwt beam="2">0</pdfrwt>
<totfact> 0.15732972E+12</totfact>
</mgrwt>
</event>
<event>
 4    1  0.1699693E+006  0.2816034E+01  0.7546771E-02  0.2583719E+00
         22   -1    0    0    0    0  0.00000000000E+00  0.00000000000E+00  0.30754494360E+02  0.30754494360E+02  0.00000000000E+00 0.  1.
         22   -1    0    0    0    0 -0.00000000000E+00 -0.00000000000E+00 -0.25874140848E+00  0.25874140848E+00  0.00000000000E+00 0. -1.
          4    1    1    2  501    0 -0.23814165257E+01 -0.80374249631E+00  0.14337711467E+02  0.14611639771E+02  0.12700000000E+01 0.  1.
         -4    1    1    2    0  501  0.23814165257E+01  0.80374249631E+00  0.16158041484E+02  0.16401595998E+02  0.12700000000E+01 0. -1.
<mgrwt>
<rscale>  0 0.28160339E+01</rscale>
<asrwt>0</asrwt>
<pdfrwt beam="1">0</pdfrwt>
<pdfrwt beam="2">0</pdfrwt>
<totfact> 0.18137364E+12</totfact>
</mgrwt>
</event>
<event>
 4    1  0.1699693E+006  0.1012569E+02  0.7546771E-02  0.1773593E+00
         22   -1    0    0    0    0  0.00000000000E+00  0.00000000000E+00  0.28678203560E+02  0.28678203560E+02  0.00000000000E+00 0.  1.
         22   -1    0    0    0    0 -0.00000000000E+00 -0.00000000000E+00 -0.35753131923E+01  0.35753131923E+01  0.00000000000E+00 0. -1.
          4    1    1    2  501    0 -0.88801808933E+01  0.46967160091E+01  0.12451914881E+02  0.16049294008E+02  0.12700000000E+01 0.  1.
         -4    1    1    2    0  501  0.88801808933E+01 -0.46967160091E+01  0.12650975487E+02  0.16204222744E+02  0.12700000000E+01 0. -1.
<mgrwt>
<rscale>  0 0.10125693E+02</rscale>
<asrwt>0</asrwt>
<pdfrwt beam="1">0</pdfrwt>
<pdfrwt beam="2">0</pdfrwt>
<totfact> 0.98607062E+10</totfact>
</mgrwt>
</event>
<event>
 4    1  0.1699693E+006  0.3859961E+01  0.7546771E-02  0.2304890E+00
         22   -1    0    0    0    0  0.00000000000E+00  0.00000000000E+00  0.25474457277E+01  0.25474457277E+01  0.00000000000E+00 0.  1.
         22   -1    0    0    0    0 -0.00000000000E+00 -0.00000000000E+00 -0.12159177996E+02  0.12159177996E+02  0.00000000000E+00 0. -1.
          4    1    1    2  501    0 -0.20615482418E+01 -0.30060632199E+01  0.49151610570E+00  0.38911290543E+01  0.12700000000E+01 0.  1.
         -4    1    1    2    0  501  0.20615482418E+01  0.30060632199E+01 -0.10103248374E+02  0.10815494669E+02  0.12700000000E+01 0. -1.
<mgrwt>
<rscale>  0 0.38599608E+01</rscale>
<asrwt>0</asrwt>
<pdfrwt beam="1">0</pdfrwt>
<pdfrwt beam="2">0</pdfrwt>
<totfact> 0.42597602E+11</totfact>
</mgrwt>
</event>
<event>
 4    1  0.1699693E+006  0.2387271E+01  0.7546771E-02  0.2760416E+00
         22   -1    0    0    0    0  0.00000000000E+00  0.00000000000E+00  0.26679091720E+02  0.26679091720E+02  0.00000000000E+00 0.  1.
         22   -1    0    0    0    0 -0.00000000000E+00 -0.00000000000E+00 -0.46508763537E+00  0.46508763537E+00  0.00000000000E+00 0.  1.
          4    1    1    2  501    0  0.43339946207E+00  0.19744179517E+01  0.23086862260E+02  0.23209960585E+02  0.12700000000E+01 0.  1.
         -4    1    1    2    0  501 -0.43339946207E+00 -0.19744179517E+01  0.31271418242E+01  0.39342187700E+01  0.12700000000E+01 0.  1.
<mgrwt>
<rscale>  0 0.23872707E+01</rscale>
<asrwt>0</asrwt>
<pdfrwt beam="1">0</pdfrwt>
<pdfrwt beam="2">0</pdfrwt>
<totfact> 0.11243936E+12</totfact>
</mgrwt>
</event>
<event>
 4    1  0.1699693E+006  0.2311867E+01  0.7546771E-02  0.2797770E+00
         22   -1    0    0    0    0  0.00000000000E+00  0.00000000000E+00  0.57072413739E+00  0.57072413739E+00  0.00000000000E+00 0. -1.
         22   -1    0    0    0    0 -0.00000000000E+00 -0.00000000000E+00 -0.10569673299E+02  0.10569673299E+02  0.00000000000E+00 0.  1.
          4    1    1    2  501    0  0.10524677090E+01  0.16199195670E+01 -0.31188272978E+01  0.38822430882E+01  0.12700000000E+01 0. -1.
         -4    1    1    2    0  501 -0.10524677090E+01 -0.16199195670E+01 -0.68801218637E+01  0.72581543482E+01  0.12700000000E+01 0.  1.
<mgrwt>
<rscale>  0 0.23118667E+01</rscale>
<asrwt>0</asrwt>
<pdfrwt beam="1">0</pdfrwt>
<pdfrwt beam="2">0</pdfrwt>
<totfact> 0.28066496E+12</totfact>
</mgrwt>
</event>
<event>
 4    1  0.1699693E+006  0.2150620E+01  0.7546771E-02  0.2885979E+00
         22   -1    0    0    0    0  0.00000000000E+00  0.00000000000E+00  0.66764376296E+01  0.66764376296E+01  0.00000000000E+00 0.  1.
         22   -1    0    0    0    0 -0.00000000000E+00 -0.00000000000E+00 -0.19066284370E+02  0.19066284370E+02  0.00000000000E+00 0. -1.
          4    1    1    2  501    0  0.69851226477E-01 -0.17341815290E+01  0.64404383773E+01  0.67900229205E+01  0.12700000000E+01 0.  1.
         -4    1    1    2    0  501 -0.69851226477E-01  0.17341815290E+01 -0.18830285118E+02  0.18952699079E+02  0.12700000000E+01 0. -1.
<mgrwt>
<rscale>  0 0.21506196E+01</rscale>
<asrwt>0</asrwt>
<pdfrwt beam="1">0</pdfrwt>
<pdfrwt beam="2">0</pdfrwt>
<totfact> 0.78659609E+10</totfact>
</mgrwt>
</event>
<event>
 4    1  0.1699693E+006  0.5253794E+01  0.7546771E-02  0.2093875E+00
         22   -1    0    0    0    0  0.00000000000E+00  0.00000000000E+00  0.42634743801E+02  0.42634743801E+02  0.00000000000E+00 0. -1.
         22   -1    0    0    0    0 -0.00000000000E+00 -0.00000000000E+00 -0.13819540454E+01  0.13819540454E+01  0.00000000000E+00 0.  1.
          4    1    1    2  501    0 -0.50267844566E+01  0.84905179570E+00  0.36671710185E+02  0.37046142564E+02  0.12700000000E+01 0. -1.
         -4    1    1    2    0  501  0.50267844566E+01 -0.84905179570E+00  0.45810795708E+01  0.69705552834E+01  0.12700000000E+01 0.  1.
<mgrwt>
<rscale>  0 0.52537940E+01</rscale>
<asrwt>0</asrwt>
<pdfrwt beam="1">0</pdfrwt>
<pdfrwt beam="2">0</pdfrwt>
<totfact> 0.17838934E+11</totfact>
</mgrwt>
</event>
<event>
 4    1  0.1699693E+006  0.2093430E+01  0.7546771E-02  0.2920394E+00
         22   -1    0    0    0    0  0.00000000000E+00  0.00000000000E+00  0.11045536040E+02  0.11045536040E+02  0.00000000000E+00 0.  1.
         22   -1    0    0    0    0 -0.00000000000E+00 -0.00000000000E+00 -0.40013239185E+00  0.40013239185E+00  0.00000000000E+00 0.  1.
          4    1    1    2  501    0  0.89416852206E+00  0.14035707860E+01  0.47974670949E+01  0.52343231486E+01  0.12700000000E+01 0.  1.
         -4    1    1    2    0  501 -0.89416852206E+00 -0.14035707860E+01  0.58479365528E+01  0.62113452829E+01  0.12700000000E+01 0.  1.
<mgrwt>
<rscale>  0 0.20934298E+01</rscale>
<asrwt>0</asrwt>
<pdfrwt beam="1">0</pdfrwt>
<pdfrwt beam="2">0</pdfrwt>
<totfact> 0.39717750E+12</totfact>
</mgrwt>
</event>
<event>
 4    1  0.1699693E+006  0.5551423E+01  0.7546771E-02  0.2062417E+00
         22   -1    0    0    0    0  0.00000000000E+00  0.00000000000E+00  0.26893004098E+02  0.26893004098E+02  0.00000000000E+00 0.  1.
         22   -1    0    0    0    0 -0.00000000000E+00 -0.00000000000E+00 -0.90087055961E+01  0.90087055961E+01  0.00000000000E+00 0. -1.
          4    1    1    2  501    0  0.23690914621E+01  0.48572419259E+01  0.25712458215E+02  0.26304919710E+02  0.12700000000E+01 0.  1.
         -4    1    1    2    0  501 -0.23690914621E+01 -0.48572419259E+01 -0.78281597139E+01  0.95967899836E+01  0.12700000000E+01 0. -1.
<mgrwt>
<rscale>  0 0.55514227E+01</rscale>
<asrwt>0</asrwt>
<pdfrwt beam="1">0</pdfrwt>
<pdfrwt beam="2">0</pdfrwt>
<totfact> 0.35659194E+10</totfact>
</mgrwt>
</event>
<event>
 4    1  0.1699693E+006  0.2875564E+01  0.7546771E-02  0.2563028E+00
         22   -1    0    0    0    0  0.00000000000E+00  0.00000000000E+00  0.13565670232E+02  0.13565670232E+02  0.00000000000E+00 0.  1.
         22   -1    0    0    0    0 -0.00000000000E+00 -0.00000000000E+00 -0.11066765687E+01  0.11066765687E+01  0.00000000000E+00 0.  1.
          4    1    1    2  501    0  0.19941146809E+01 -0.16369098825E+01  0.11146443729E+02  0.11511388931E+02  0.12700000000E+01 0.  1.
         -4    1    1    2    0  501 -0.19941146809E+01  0.16369098825E+01  0.13125499350E+01  0.31609578700E+01  0.12700000000E+01 0.  1.
<mgrwt>
<rscale>  0 0.28755638E+01</rscale>
<asrwt>0</asrwt>
<pdfrwt beam="1">0</pdfrwt>
<pdfrwt beam="2">0</pdfrwt>
<totfact> 0.97476865E+11</totfact>
</mgrwt>
</event>
<event>
 4    1  0.1699693E+006  0.2357609E+01  0.7546771E-02  0.2774841E+00
         22   -1    0    0    0    0  0.00000000000E+00  0.00000000000E+00  0.17556896624E+02  0.17556896624E+02  0.00000000000E+00 0. -1.
         22   -1    0    0    0    0 -0.00000000000E+00 -0.00000000000E+00 -0.33666958388E+00  0.33666958388E+00  0.00000000000E+00 0.  1.
          4    1    1    2  501    0  0.50420386503E+00  0.19212495616E+01  0.64251083097E+01  0.68440001612E+01  0.12700000000E+01 0. -1.
         -4    1    1    2    0  501 -0.50420386503E+00 -0.19212495616E+01  0.10795118731E+02  0.11049566047E+02  0.12700000000E+01 0. -1.
<mgrwt>
<rscale>  0 0.23576093E+01</rscale>
<asrwt>0</asrwt>
<pdfrwt beam="1">0</pdfrwt>
<pdfrwt beam="2">0</pdfrwt>
<totfact> 0.27314514E+12</totfact>
</mgrwt>
</event>
<event>
 4    1  0.1699693E+006  0.2376403E+01  0.7546771E-02  0.2765662E+00
         22   -1    0    0    0    0  0.00000000000E+00  0.00000000000E+00  0.12560764442E+02  0.12560764442E+02  0.00000000000E+00 0.  1.
         22   -1    0    0    0    0 -0.00000000000E+00 -0.00000000000E+00 -0.56059520371E+00  0.56059520371E+00  0.00000000000E+00 0.  1.
          4    1    1    2  501    0 -0.28369527330E+00 -0.19884431623E+01  0.89193999470E+01  0.92305462803E+01  0.12700000000E+01 0.  1.
         -4    1    1    2    0  501  0.28369527330E+00  0.19884431623E+01  0.30807692910E+01  0.38908133651E+01  0.12700000000E+01 0.  1.
<mgrwt>
<rscale>  0 0.23764026E+01</rscale>
<asrwt>0</asrwt>
<pdfrwt beam="1">0</pdfrwt>
<pdfrwt beam="2">0</pdfrwt>
<totfact> 0.23213413E+12</totfact>
</mgrwt>
</event>
<event>
 4    1  0.1699693E+006  0.3709249E+01  0.7546771E-02  0.2336574E+00
         22   -1    0    0    0    0  0.00000000000E+00  0.00000000000E+00  0.43957932612E+01  0.43957932612E+01  0.00000000000E+00 0.  1.
         22   -1    0    0    0    0 -0.00000000000E+00 -0.00000000000E+00 -0.92446415407E+01  0.92446415407E+01  0.00000000000E+00 0.  1.
          4    1    1    2  501    0  0.19458012841E+01  0.28912768955E+01  0.31223588024E+01  0.48484687495E+01  0.12700000000E+01 0.  1.
         -4    1    1    2    0  501 -0.19458012841E+01 -0.28912768955E+01 -0.79712070820E+01  0.87919660524E+01  0.12700000000E+01 0.  1.
<mgrwt>
<rscale>  0 0.37092485E+01</rscale>
<asrwt>0</asrwt>
<pdfrwt beam="1">0</pdfrwt>
<pdfrwt beam="2">0</pdfrwt>
<totfact> 0.31351744E+11</totfact>
</mgrwt>
</event>
<event>
 4    1  0.1699693E+006  0.2177973E+01  0.7546771E-02  0.2870135E+00
         22   -1    0    0    0    0  0.00000000000E+00  0.00000000000E+00  0.35469839492E+01  0.35469839492E+01  0.00000000000E+00 0. -1.
         22   -1    0    0    0    0 -0.00000000000E+00 -0.00000000000E+00 -0.13376275329E+01  0.13376275329E+01  0.00000000000E+00 0. -1.
          4    1    1    2  501    0 -0.95910937827E+00  0.14868681103E+01  0.10696525778E+01  0.24264633140E+01  0.12700000000E+01 0. -1.
         -4    1    1    2    0  501  0.95910937827E+00 -0.14868681103E+01  0.11397038384E+01  0.24581481681E+01  0.12700000000E+01 0. -1.
<mgrwt>
<rscale>  0 0.21779733E+01</rscale>
<asrwt>0</asrwt>
<pdfrwt beam="1">0</pdfrwt>
<pdfrwt beam="2">0</pdfrwt>
<totfact> 0.39070677E+12</totfact>
</mgrwt>
</event>
<event>
 4    1  0.1699693E+006  0.2050076E+01  0.7546771E-02  0.2947723E+00
         22   -1    0    0    0    0  0.00000000000E+00  0.00000000000E+00  0.10669408328E+01  0.10669408328E+01  0.00000000000E+00 0. -1.
         22   -1    0    0    0    0 -0.00000000000E+00 -0.00000000000E+00 -0.41620343849E+01  0.41620343849E+01  0.00000000000E+00 0.  1.
          4    1    1    2  501    0  0.82882930678E+00 -0.13794759041E+01 -0.94248555560E+00  0.22563445686E+01  0.12700000000E+01 0. -1.
         -4    1    1    2    0  501 -0.82882930678E+00  0.13794759041E+01 -0.21526079964E+01  0.29726306491E+01  0.12700000000E+01 0. -1.
<mgrwt>
<rscale>  0 0.20500760E+01</rscale>
<asrwt>0</asrwt>
<pdfrwt beam="1">0</pdfrwt>
<pdfrwt beam="2">0</pdfrwt>
<totfact> 0.41946758E+12</totfact>
</mgrwt>
</event>
<event>
 4    1  0.1699693E+006  0.6014299E+01  0.7546771E-02  0.2018408E+00
         22   -1    0    0    0    0  0.00000000000E+00  0.00000000000E+00  0.59062884943E+01  0.59062884943E+01  0.00000000000E+00 0. -1.
         22   -1    0    0    0    0 -0.00000000000E+00 -0.00000000000E+00 -0.65436654531E+01  0.65436654531E+01  0.00000000000E+00 0.  1.
          4    1    1    2  501    0 -0.27946727568E+01  0.51719141428E+01  0.12572218439E+01  0.61442980464E+01  0.12700000000E+01 0. -1.
         -4    1    1    2    0  501  0.27946727568E+01 -0.51719141428E+01 -0.18945988026E+01  0.63056559009E+01  0.12700000000E+01 0.  1.
<mgrwt>
<rscale>  0 0.60142989E+01</rscale>
<asrwt>0</asrwt>
<pdfrwt beam="1">0</pdfrwt>
<pdfrwt beam="2">0</pdfrwt>
<totfact> 0.33452686E+11</totfact>
</mgrwt>
</event>
<event>
 4    1  0.1699693E+006  0.3454780E+01  0.7546771E-02  0.2395451E+00
         22   -1    0    0    0    0  0.00000000000E+00  0.00000000000E+00  0.12332947128E+01  0.12332947128E+01  0.00000000000E+00 0. -1.
         22   -1    0    0    0    0 -0.00000000000E+00 -0.00000000000E+00 -0.21108807669E+02  0.21108807669E+02  0.00000000000E+00 0.  1.
          4    1    1    2  501    0 -0.26535758082E+01  0.18113922142E+01 -0.17171174833E+01  0.38579785866E+01  0.12700000000E+01 0. -1.
         -4    1    1    2    0  501  0.26535758082E+01 -0.18113922142E+01 -0.18158395473E+02  0.18484123795E+02  0.12700000000E+01 0.  1.
<mgrwt>
<rscale>  0 0.34547802E+01</rscale>
<asrwt>0</asrwt>
<pdfrwt beam="1">0</pdfrwt>
<pdfrwt beam="2">0</pdfrwt>
<totfact> 0.49821704E+11</totfact>
</mgrwt>
</event>
<event>
 4    1  0.1699693E+006  0.2410258E+01  0.7546771E-02  0.2749467E+00
         22   -1    0    0    0    0  0.00000000000E+00  0.00000000000E+00  0.24843706714E+00  0.24843706714E+00  0.00000000000E+00 0. -1.
         22   -1    0    0    0    0 -0.00000000000E+00 -0.00000000000E+00 -0.27619740149E+02  0.27619740149E+02  0.00000000000E+00 0.  1.
          4    1    1    2  501    0 -0.18056328257E+01  0.96754001139E+00 -0.82286273494E+01  0.85743601295E+01  0.12700000000E+01 0.  1.
         -4    1    1    2    0  501  0.18056328257E+01 -0.96754001139E+00 -0.19142675733E+02  0.19293817087E+02  0.12700000000E+01 0. -1.
<mgrwt>
<rscale>  0 0.24102580E+01</rscale>
<asrwt>0</asrwt>
<pdfrwt beam="1">0</pdfrwt>
<pdfrwt beam="2">0</pdfrwt>
<totfact> 0.21762527E+12</totfact>
</mgrwt>
</event>
<event>
 4    1  0.1699693E+006  0.2420761E+01  0.7546771E-02  0.2744529E+00
         22   -1    0    0    0    0  0.00000000000E+00  0.00000000000E+00  0.45025149592E+01  0.45025149592E+01  0.00000000000E+00 0.  1.
         22   -1    0    0    0    0 -0.00000000000E+00 -0.00000000000E+00 -0.15650248596E+01  0.15650248596E+01  0.00000000000E+00 0.  1.
          4    1    1    2  501    0  0.75967905897E+00 -0.19157430772E+01  0.27136085269E+01  0.36364481363E+01  0.12700000000E+01 0.  1.
         -4    1    1    2    0  501 -0.75967905897E+00  0.19157430772E+01  0.22388157271E+00  0.24310916826E+01  0.12700000000E+01 0.  1.
<mgrwt>
<rscale>  0 0.24207610E+01</rscale>
<asrwt>0</asrwt>
<pdfrwt beam="1">0</pdfrwt>
<pdfrwt beam="2">0</pdfrwt>
<totfact> 0.24635346E+12</totfact>
</mgrwt>
</event>
<event>
 4    1  0.1699693E+006  0.5041765E+01  0.7546771E-02  0.2118051E+00
         22   -1    0    0    0    0  0.00000000000E+00  0.00000000000E+00  0.42980987605E+01  0.42980987605E+01  0.00000000000E+00 0. -1.
         22   -1    0    0    0    0 -0.00000000000E+00 -0.00000000000E+00 -0.60053115197E+01  0.60053115197E+01  0.00000000000E+00 0.  1.
          4    1    1    2  501    0 -0.45975757702E+01 -0.16336437950E+01 -0.21870975908E+00  0.50465066105E+01  0.12700000000E+01 0. -1.
         -4    1    1    2    0  501  0.45975757702E+01  0.16336437950E+01 -0.14885030001E+01  0.52569036697E+01  0.12700000000E+01 0.  1.
<mgrwt>
<rscale>  0 0.50417651E+01</rscale>
<asrwt>0</asrwt>
<pdfrwt beam="1">0</pdfrwt>
<pdfrwt beam="2">0</pdfrwt>
<totfact> 0.53995204E+11</totfact>
</mgrwt>
</event>
<event>
 4    1  0.1699693E+006  0.2742734E+01  0.7546771E-02  0.2610314E+00
         22   -1    0    0    0    0  0.00000000000E+00  0.00000000000E+00  0.24893178509E+02  0.24893178509E+02  0.00000000000E+00 0.  1.
         22   -1    0    0    0    0 -0.00000000000E+00 -0.00000000000E+00 -0.45858000860E+00  0.45858000860E+00  0.00000000000E+00 0. -1.
          4    1    1    2  501    0  0.22012559210E+01 -0.10315816311E+01  0.48149696854E+01  0.55413465298E+01  0.12700000000E+01 0.  1.
         -4    1    1    2    0  501 -0.22012559210E+01  0.10315816311E+01  0.19619628815E+02  0.19810411988E+02  0.12700000000E+01 0. -1.
<mgrwt>
<rscale>  0 0.27427337E+01</rscale>
<asrwt>0</asrwt>
<pdfrwt beam="1">0</pdfrwt>
<pdfrwt beam="2">0</pdfrwt>
<totfact> 0.12469568E+12</totfact>
</mgrwt>
</event>
<event>
 4    1  0.1699693E+006  0.2664190E+01  0.7546771E-02  0.2640290E+00
         22   -1    0    0    0    0  0.00000000000E+00  0.00000000000E+00  0.10447394705E+02  0.10447394705E+02  0.00000000000E+00 0. -1.
         22   -1    0    0    0    0 -0.00000000000E+00 -0.00000000000E+00 -0.13780894456E+01  0.13780894456E+01  0.00000000000E+00 0.  1.
          4    1    1    2  501    0  0.29308719220E+00  0.23235982762E+01  0.87447664525E+01  0.91415999343E+01  0.12700000000E+01 0. -1.
         -4    1    1    2    0  501 -0.29308719220E+00 -0.23235982762E+01  0.32453880731E+00  0.26838842167E+01  0.12700000000E+01 0.  1.
<mgrwt>
<rscale>  0 0.26641901E+01</rscale>
<asrwt>0</asrwt>
<pdfrwt beam="1">0</pdfrwt>
<pdfrwt beam="2">0</pdfrwt>
<totfact> 0.10422591E+12</totfact>
</mgrwt>
</event>
<event>
 4    1  0.1699693E+006  0.7681738E+01  0.7546771E-02  0.1895224E+00
         22   -1    0    0    0    0  0.00000000000E+00  0.00000000000E+00  0.35404478036E+01  0.35404478036E+01  0.00000000000E+00 0. -1.
         22   -1    0    0    0    0 -0.00000000000E+00 -0.00000000000E+00 -0.20798351043E+02  0.20798351043E+02  0.00000000000E+00 0.  1.
          4    1    1    2  501    0 -0.37247666062E+01  0.65971440718E+01 -0.32052720539E+01  0.83236329276E+01  0.12700000000E+01 0. -1.
         -4    1    1    2    0  501  0.37247666062E+01 -0.65971440718E+01 -0.14052631186E+02  0.16015165919E+02  0.12700000000E+01 0.  1.
<mgrwt>
<rscale>  0 0.76817378E+01</rscale>
<asrwt>0</asrwt>
<pdfrwt beam="1">0</pdfrwt>
<pdfrwt beam="2">0</pdfrwt>
<totfact> 0.14951651E+11</totfact>
</mgrwt>
</event>
<event>
 4    1  0.1699693E+006  0.2043701E+01  0.7546771E-02  0.2951837E+00
         22   -1    0    0    0    0  0.00000000000E+00  0.00000000000E+00  0.21062997620E+01  0.21062997620E+01  0.00000000000E+00 0.  1.
         22   -1    0    0    0    0 -0.00000000000E+00 -0.00000000000E+00 -0.19891111025E+01  0.19891111025E+01  0.00000000000E+00 0. -1.
          4    1    1    2  501    0  0.15893574398E+01 -0.19431500638E+00  0.17243395341E+00  0.20509629108E+01  0.12700000000E+01 0.  1.
         -4    1    1    2    0  501 -0.15893574398E+01  0.19431500638E+00 -0.55245293859E-01  0.20444479537E+01  0.12700000000E+01 0. -1.
<mgrwt>
<rscale>  0 0.20437014E+01</rscale>
<asrwt>0</asrwt>
<pdfrwt beam="1">0</pdfrwt>
<pdfrwt beam="2">0</pdfrwt>
<totfact> 0.45400307E+12</totfact>
</mgrwt>
</event>
<event>
 4    1  0.1699693E+006  0.3661045E+01  0.7546771E-02  0.2347181E+00
         22   -1    0    0    0    0  0.00000000000E+00  0.00000000000E+00  0.10374271259E+02  0.10374271259E+02  0.00000000000E+00 0. -1.
         22   -1    0    0    0    0 -0.00000000000E+00 -0.00000000000E+00 -0.13485248130E+01  0.13485248130E+01  0.00000000000E+00 0.  1.
          4    1    1    2  501    0  0.33465808234E+01 -0.76860180325E+00  0.57132146338E+01  0.67855783388E+01  0.12700000000E+01 0. -1.
         -4    1    1    2    0  501 -0.33465808234E+01  0.76860180325E+00  0.33125318125E+01  0.49372177335E+01  0.12700000000E+01 0.  1.
<mgrwt>
<rscale>  0 0.36610452E+01</rscale>
<asrwt>0</asrwt>
<pdfrwt beam="1">0</pdfrwt>
<pdfrwt beam="2">0</pdfrwt>
<totfact> 0.10777044E+12</totfact>
</mgrwt>
</event>
<event>
 4    1  0.1699693E+006  0.1307400E+02  0.7546771E-02  0.1674578E+00
         22   -1    0    0    0    0  0.00000000000E+00  0.00000000000E+00  0.14645479392E+02  0.14645479392E+02  0.00000000000E+00 0.  1.
         22   -1    0    0    0    0 -0.00000000000E+00 -0.00000000000E+00 -0.11850090168E+02  0.11850090168E+02  0.00000000000E+00 0. -1.
          4    1    1    2  501    0 -0.85743201451E+00  0.12983892979E+02 -0.23024404742E+00  0.13076030700E+02  0.12700000000E+01 0. -1.
         -4    1    1    2    0  501  0.85743201451E+00 -0.12983892979E+02  0.30256332705E+01  0.13419538860E+02  0.12700000000E+01 0.  1.
<mgrwt>
<rscale>  0 0.13074003E+02</rscale>
<asrwt>0</asrwt>
<pdfrwt beam="1">0</pdfrwt>
<pdfrwt beam="2">0</pdfrwt>
<totfact> 0.54568329E+10</totfact>
</mgrwt>
</event>
<event>
 4    1  0.1699693E+006  0.2542156E+01  0.7546771E-02  0.2690232E+00
         22   -1    0    0    0    0  0.00000000000E+00  0.00000000000E+00  0.45017817106E+01  0.45017817106E+01  0.00000000000E+00 0. -1.
         22   -1    0    0    0    0 -0.00000000000E+00 -0.00000000000E+00 -0.15972205899E+01  0.15972205899E+01  0.00000000000E+00 0.  1.
          4    1    1    2  501    0  0.12124879549E+01  0.18383494166E+01  0.24224666319E+01  0.35115381531E+01  0.12700000000E+01 0.  1.
         -4    1    1    2    0  501 -0.12124879549E+01 -0.18383494166E+01  0.48209448883E+00  0.25874641474E+01  0.12700000000E+01 0. -1.
<mgrwt>
<rscale>  0 0.25421557E+01</rscale>
<asrwt>0</asrwt>
<pdfrwt beam="1">0</pdfrwt>
<pdfrwt beam="2">0</pdfrwt>
<totfact> 0.24069114E+12</totfact>
</mgrwt>
</event>
<event>
 4    1  0.1699693E+006  0.2127583E+01  0.7546771E-02  0.2899626E+00
         22   -1    0    0    0    0  0.00000000000E+00  0.00000000000E+00  0.28886330309E+01  0.28886330309E+01  0.00000000000E+00 0.  1.
         22   -1    0    0    0    0 -0.00000000000E+00 -0.00000000000E+00 -0.31529526152E+01  0.31529526152E+01  0.00000000000E+00 0. -1.
          4    1    1    2  501    0  0.29462611935E+00 -0.16813399418E+01  0.20102453722E+01  0.29270625218E+01  0.12700000000E+01 0.  1.
         -4    1    1    2    0  501 -0.29462611935E+00  0.16813399418E+01 -0.22745649565E+01  0.31145231243E+01  0.12700000000E+01 0. -1.
<mgrwt>
<rscale>  0 0.21275828E+01</rscale>
<asrwt>0</asrwt>
<pdfrwt beam="1">0</pdfrwt>
<pdfrwt beam="2">0</pdfrwt>
<totfact> 0.18400298E+12</totfact>
</mgrwt>
</event>
<event>
 4    1  0.1699693E+006  0.3370749E+01  0.7546771E-02  0.2416587E+00
         22   -1    0    0    0    0  0.00000000000E+00  0.00000000000E+00  0.28602506539E+01  0.28602506539E+01  0.00000000000E+00 0.  1.
         22   -1    0    0    0    0 -0.00000000000E+00 -0.00000000000E+00 -0.39966086369E+01  0.39966086369E+01  0.00000000000E+00 0. -1.
          4    1    1    2  501    0 -0.31221691834E+01  0.33262851772E-01 -0.30113164028E+00  0.33841730293E+01  0.12700000000E+01 0. -1.
         -4    1    1    2    0  501  0.31221691834E+01 -0.33262851772E-01 -0.83522634279E+00  0.34726862615E+01  0.12700000000E+01 0.  1.
<mgrwt>
<rscale>  0 0.33707487E+01</rscale>
<asrwt>0</asrwt>
<pdfrwt beam="1">0</pdfrwt>
<pdfrwt beam="2">0</pdfrwt>
<totfact> 0.14094971E+12</totfact>
</mgrwt>
</event>
<event>
 4    1  0.1699693E+006  0.3527362E+01  0.7546771E-02  0.2377906E+00
         22   -1    0    0    0    0  0.00000000000E+00  0.00000000000E+00  0.37552772924E+01  0.37552772924E+01  0.00000000000E+00 0.  1.
         22   -1    0    0    0    0 -0.00000000000E+00 -0.00000000000E+00 -0.68806246041E+01  0.68806246041E+01  0.00000000000E+00 0.  1.
          4    1    1    2  501    0  0.20062632361E+01  0.26085029036E+01  0.22664819708E+01  0.41927580534E+01  0.12700000000E+01 0.  1.
         -4    1    1    2    0  501 -0.20062632361E+01 -0.26085029036E+01 -0.53918292825E+01  0.64431438430E+01  0.12700000000E+01 0.  1.
<mgrwt>
<rscale>  0 0.35273616E+01</rscale>
<asrwt>0</asrwt>
<pdfrwt beam="1">0</pdfrwt>
<pdfrwt beam="2">0</pdfrwt>
<totfact> 0.53810522E+11</totfact>
</mgrwt>
</event>
<event>
 4    1  0.1699693E+006  0.3879608E+01  0.7546771E-02  0.2300916E+00
         22   -1    0    0    0    0  0.00000000000E+00  0.00000000000E+00  0.49204259649E+01  0.49204259649E+01  0.00000000000E+00 0.  1.
         22   -1    0    0    0    0 -0.00000000000E+00 -0.00000000000E+00 -0.30877060376E+01  0.30877060376E+01  0.00000000000E+00 0. -1.
          4    1    1    2  501    0  0.34345345260E+01  0.12815733410E+01  0.52997865676E+00  0.39156397964E+01  0.12700000000E+01 0.  1.
         -4    1    1    2    0  501 -0.34345345260E+01 -0.12815733410E+01  0.13027412705E+01  0.40924922060E+01  0.12700000000E+01 0. -1.
<mgrwt>
<rscale>  0 0.38796079E+01</rscale>
<asrwt>0</asrwt>
<pdfrwt beam="1">0</pdfrwt>
<pdfrwt beam="2">0</pdfrwt>
<totfact> 0.10085138E+12</totfact>
</mgrwt>
</event>
<event>
 4    1  0.1699693E+006  0.2367108E+01  0.7546771E-02  0.2770184E+00
         22   -1    0    0    0    0  0.00000000000E+00  0.00000000000E+00  0.50943469611E+00  0.50943469611E+00  0.00000000000E+00 0.  1.
         22   -1    0    0    0    0 -0.00000000000E+00 -0.00000000000E+00 -0.13194559437E+02  0.13194559437E+02  0.00000000000E+00 0. -1.
          4    1    1    2  501    0  0.19676469777E+01 -0.34447790738E+00 -0.35474040727E+01  0.42646541844E+01  0.12700000000E+01 0.  1.
         -4    1    1    2    0  501 -0.19676469777E+01  0.34447790738E+00 -0.91377206679E+01  0.94393399484E+01  0.12700000000E+01 0. -1.
<mgrwt>
<rscale>  0 0.23671079E+01</rscale>
<asrwt>0</asrwt>
<pdfrwt beam="1">0</pdfrwt>
<pdfrwt beam="2">0</pdfrwt>
<totfact> 0.24354324E+12</totfact>
</mgrwt>
</event>
<event>
 4    1  0.1699693E+006  0.2309609E+01  0.7546771E-02  0.2798923E+00
         22   -1    0    0    0    0  0.00000000000E+00  0.00000000000E+00  0.33744365274E+00  0.33744365274E+00  0.00000000000E+00 0.  1.
         22   -1    0    0    0    0 -0.00000000000E+00 -0.00000000000E+00 -0.18965069923E+02  0.18965069923E+02  0.00000000000E+00 0.  1.
          4    1    1    2  501    0 -0.19086831193E+01  0.27986491135E+00 -0.53760324158E+01  0.58511554547E+01  0.12700000000E+01 0.  1.
         -4    1    1    2    0  501  0.19086831193E+01 -0.27986491135E+00 -0.13251593854E+02  0.13451358121E+02  0.12700000000E+01 0.  1.
<mgrwt>
<rscale>  0 0.23096094E+01</rscale>
<asrwt>0</asrwt>
<pdfrwt beam="1">0</pdfrwt>
<pdfrwt beam="2">0</pdfrwt>
<totfact> 0.24755454E+12</totfact>
</mgrwt>
</event>
<event>
 4    1  0.1699693E+006  0.2982190E+01  0.7546771E-02  0.2527838E+00
         22   -1    0    0    0    0  0.00000000000E+00  0.00000000000E+00  0.44786829057E+02  0.44786829057E+02  0.00000000000E+00 0.  1.
         22   -1    0    0    0    0 -0.00000000000E+00 -0.00000000000E+00 -0.82214540162E+00  0.82214540162E+00  0.00000000000E+00 0.  1.
          4    1    1    2  501    0 -0.13073923547E+01  0.23603564500E+01  0.41842807170E+02  0.41948944792E+02  0.12700000000E+01 0.  1.
         -4    1    1    2    0  501  0.13073923547E+01 -0.23603564500E+01  0.21218764863E+01  0.36600296670E+01  0.12700000000E+01 0.  1.
<mgrwt>
<rscale>  0 0.29821900E+01</rscale>
<asrwt>0</asrwt>
<pdfrwt beam="1">0</pdfrwt>
<pdfrwt beam="2">0</pdfrwt>
<totfact> 0.30290536E+11</totfact>
</mgrwt>
</event>
<event>
 4    1  0.1699693E+006  0.2361826E+01  0.7546771E-02  0.2772769E+00
         22   -1    0    0    0    0  0.00000000000E+00  0.00000000000E+00  0.96109526008E+01  0.96109526008E+01  0.00000000000E+00 0. -1.
         22   -1    0    0    0    0 -0.00000000000E+00 -0.00000000000E+00 -0.60677063605E+00  0.60677063605E+00  0.00000000000E+00 0.  1.
          4    1    1    2  501    0 -0.18389877882E+01  0.76383770287E+00  0.55670890777E+01  0.60473717366E+01  0.12700000000E+01 0. -1.
         -4    1    1    2    0  501  0.18389877882E+01 -0.76383770287E+00  0.34370928871E+01  0.41703515003E+01  0.12700000000E+01 0.  1.
<mgrwt>
<rscale>  0 0.23618264E+01</rscale>
<asrwt>0</asrwt>
<pdfrwt beam="1">0</pdfrwt>
<pdfrwt beam="2">0</pdfrwt>
<totfact> 0.29383280E+12</totfact>
</mgrwt>
</event>
<event>
 4    1  0.1699693E+006  0.2196983E+01  0.7546771E-02  0.2859348E+00
         22   -1    0    0    0    0  0.00000000000E+00  0.00000000000E+00  0.21866023789E+01  0.21866023789E+01  0.00000000000E+00 0. -1.
         22   -1    0    0    0    0 -0.00000000000E+00 -0.00000000000E+00 -0.26743698016E+01  0.26743698016E+01  0.00000000000E+00 0.  1.
          4    1    1    2  501    0  0.95798692180E+00  0.15152869556E+01  0.77171228277E+00  0.23285775374E+01  0.12700000000E+01 0. -1.
         -4    1    1    2    0  501 -0.95798692180E+00 -0.15152869556E+01 -0.12594797054E+01  0.25323946431E+01  0.12700000000E+01 0.  1.
<mgrwt>
<rscale>  0 0.21969828E+01</rscale>
<asrwt>0</asrwt>
<pdfrwt beam="1">0</pdfrwt>
<pdfrwt beam="2">0</pdfrwt>
<totfact> 0.30829369E+12</totfact>
</mgrwt>
</event>
<event>
 4    1  0.1699693E+006  0.2143389E+01  0.7546771E-02  0.2890232E+00
         22   -1    0    0    0    0  0.00000000000E+00  0.00000000000E+00  0.24202764372E+02  0.24202764372E+02  0.00000000000E+00 0.  1.
         22   -1    0    0    0    0 -0.00000000000E+00 -0.00000000000E+00 -0.24905302563E+00  0.24905302563E+00  0.00000000000E+00 0.  1.
          4    1    1    2  501    0  0.44406742507E+00  0.16685378545E+01  0.60143965080E+01  0.63849103209E+01  0.12700000000E+01 0.  1.
         -4    1    1    2    0  501 -0.44406742507E+00 -0.16685378545E+01  0.17939314838E+02  0.18066907077E+02  0.12700000000E+01 0.  1.
<mgrwt>
<rscale>  0 0.21433885E+01</rscale>
<asrwt>0</asrwt>
<pdfrwt beam="1">0</pdfrwt>
<pdfrwt beam="2">0</pdfrwt>
<totfact> 0.25642744E+12</totfact>
</mgrwt>
</event>
<event>
 4    1  0.1699693E+006  0.3585627E+01  0.7546771E-02  0.2364271E+00
         22   -1    0    0    0    0  0.00000000000E+00  0.00000000000E+00  0.84908973230E+00  0.84908973230E+00  0.00000000000E+00 0.  1.
         22   -1    0    0    0    0 -0.00000000000E+00 -0.00000000000E+00 -0.22098129904E+02  0.22098129904E+02  0.00000000000E+00 0. -1.
          4    1    1    2  501    0 -0.33531691253E+01 -0.86935466820E-02 -0.41870765081E+01  0.55125609698E+01  0.12700000000E+01 0.  1.
         -4    1    1    2    0  501  0.33531691253E+01  0.86935466820E-02 -0.17061963663E+02  0.17434658666E+02  0.12700000000E+01 0. -1.
<mgrwt>
<rscale>  0 0.35856267E+01</rscale>
<asrwt>0</asrwt>
<pdfrwt beam="1">0</pdfrwt>
<pdfrwt beam="2">0</pdfrwt>
<totfact> 0.72065385E+11</totfact>
</mgrwt>
</event>
<event>
 4    1  0.1699693E+006  0.2373869E+01  0.7546771E-02  0.2766891E+00
         22   -1    0    0    0    0  0.00000000000E+00  0.00000000000E+00  0.14063547499E+01  0.14063547499E+01  0.00000000000E+00 0. -1.
         22   -1    0    0    0    0 -0.00000000000E+00 -0.00000000000E+00 -0.46867501821E+01  0.46867501821E+01  0.00000000000E+00 0. -1.
          4    1    1    2  501    0  0.15076033783E+01  0.13226813389E+01 -0.47995297427E+00  0.24219018824E+01  0.12700000000E+01 0. -1.
         -4    1    1    2    0  501 -0.15076033783E+01 -0.13226813389E+01 -0.28004424579E+01  0.36712030495E+01  0.12700000000E+01 0. -1.
<mgrwt>
<rscale>  0 0.23738690E+01</rscale>
<asrwt>0</asrwt>
<pdfrwt beam="1">0</pdfrwt>
<pdfrwt beam="2">0</pdfrwt>
<totfact> 0.26570056E+12</totfact>
</mgrwt>
</event>
<event>
 4    1  0.1699693E+006  0.4453887E+01  0.7546771E-02  0.2198110E+00
         22   -1    0    0    0    0  0.00000000000E+00  0.00000000000E+00  0.60215368404E+01  0.60215368404E+01  0.00000000000E+00 0. -1.
         22   -1    0    0    0    0 -0.00000000000E+00 -0.00000000000E+00 -0.33209907509E+01  0.33209907509E+01  0.00000000000E+00 0.  1.
          4    1    1    2  501    0 -0.42663718260E+01  0.14925482685E+00  0.93196287725E+00  0.45503472796E+01  0.12700000000E+01 0.  1.
         -4    1    1    2    0  501  0.42663718260E+01 -0.14925482685E+00  0.17685832122E+01  0.47921803116E+01  0.12700000000E+01 0. -1.
<mgrwt>
<rscale>  0 0.44538866E+01</rscale>
<asrwt>0</asrwt>
<pdfrwt beam="1">0</pdfrwt>
<pdfrwt beam="2">0</pdfrwt>
<totfact> 0.72873725E+11</totfact>
</mgrwt>
</event>
<event>
 4    1  0.1699693E+006  0.2108381E+01  0.7546771E-02  0.2911222E+00
         22   -1    0    0    0    0  0.00000000000E+00  0.00000000000E+00  0.14852142300E+01  0.14852142300E+01  0.00000000000E+00 0.  1.
         22   -1    0    0    0    0 -0.00000000000E+00 -0.00000000000E+00 -0.64626299954E+01  0.64626299954E+01  0.00000000000E+00 0. -1.
          4    1    1    2  501    0  0.52001579813E+00  0.16006104727E+01  0.42305006850E+00  0.21504050028E+01  0.12700000000E+01 0.  1.
         -4    1    1    2    0  501 -0.52001579813E+00 -0.16006104727E+01 -0.54004658339E+01  0.57974392225E+01  0.12700000000E+01 0. -1.
<mgrwt>
<rscale>  0 0.21083810E+01</rscale>
<asrwt>0</asrwt>
<pdfrwt beam="1">0</pdfrwt>
<pdfrwt beam="2">0</pdfrwt>
<totfact> 0.17039044E+12</totfact>
</mgrwt>
</event>
<event>
 4    1  0.1699693E+006  0.2133961E+01  0.7546771E-02  0.2895819E+00
         22   -1    0    0    0    0  0.00000000000E+00  0.00000000000E+00  0.55551977162E+01  0.55551977162E+01  0.00000000000E+00 0. -1.
         22   -1    0    0    0    0 -0.00000000000E+00 -0.00000000000E+00 -0.22206259336E+01  0.22206259336E+01  0.00000000000E+00 0. -1.
          4    1    1    2  501    0  0.12408639161E+01 -0.11837003159E+01  0.47553113628E+01  0.52121757312E+01  0.12700000000E+01 0. -1.
         -4    1    1    2    0  501 -0.12408639161E+01  0.11837003159E+01 -0.14207395802E+01  0.25636479186E+01  0.12700000000E+01 0. -1.
<mgrwt>
<rscale>  0 0.21339610E+01</rscale>
<asrwt>0</asrwt>
<pdfrwt beam="1">0</pdfrwt>
<pdfrwt beam="2">0</pdfrwt>
<totfact> 0.12819684E+12</totfact>
</mgrwt>
</event>
<event>
 4    1  0.1699693E+006  0.2176680E+01  0.7546771E-02  0.2870876E+00
         22   -1    0    0    0    0  0.00000000000E+00  0.00000000000E+00  0.44702907759E+01  0.44702907759E+01  0.00000000000E+00 0. -1.
         22   -1    0    0    0    0 -0.00000000000E+00 -0.00000000000E+00 -0.12741657514E+01  0.12741657514E+01  0.00000000000E+00 0.  1.
          4    1    1    2  501    0  0.85262271917E-01  0.17657195633E+01  0.27759692923E+01  0.35275970211E+01  0.12700000000E+01 0. -1.
         -4    1    1    2    0  501 -0.85262271917E-01 -0.17657195633E+01  0.42015573216E+00  0.22168595063E+01  0.12700000000E+01 0.  1.
<mgrwt>
<rscale>  0 0.21766799E+01</rscale>
<asrwt>0</asrwt>
<pdfrwt beam="1">0</pdfrwt>
<pdfrwt beam="2">0</pdfrwt>
<totfact> 0.31466671E+12</totfact>
</mgrwt>
</event>
<event>
 4    1  0.1699693E+006  0.2171907E+01  0.7546771E-02  0.2873616E+00
         22   -1    0    0    0    0  0.00000000000E+00  0.00000000000E+00  0.10313749762E+01  0.10313749762E+01  0.00000000000E+00 0. -1.
         22   -1    0    0    0    0 -0.00000000000E+00 -0.00000000000E+00 -0.45870014697E+01  0.45870014697E+01  0.00000000000E+00 0. -1.
          4    1    1    2  501    0  0.13486970967E+01 -0.11337081393E+01 -0.16264188450E+01  0.27133772799E+01  0.12700000000E+01 0. -1.
         -4    1    1    2    0  501 -0.13486970967E+01  0.11337081393E+01 -0.19292076485E+01  0.29049991661E+01  0.12700000000E+01 0. -1.
<mgrwt>
<rscale>  0 0.21719065E+01</rscale>
<asrwt>0</asrwt>
<pdfrwt beam="1">0</pdfrwt>
<pdfrwt beam="2">0</pdfrwt>
<totfact> 0.38880875E+12</totfact>
</mgrwt>
</event>
<event>
 4    1  0.1699693E+006  0.2081601E+01  0.7546771E-02  0.2927741E+00
         22   -1    0    0    0    0  0.00000000000E+00  0.00000000000E+00  0.64850633021E+01  0.64850633021E+01  0.00000000000E+00 0.  1.
         22   -1    0    0    0    0 -0.00000000000E+00 -0.00000000000E+00 -0.66832177336E+00  0.66832177336E+00  0.00000000000E+00 0.  1.
          4    1    1    2  501    0 -0.11925273940E+01  0.11393164848E+01  0.29639185023E+01  0.36218609203E+01  0.12700000000E+01 0.  1.
         -4    1    1    2    0  501  0.11925273940E+01 -0.11393164848E+01  0.28528230264E+01  0.35315241551E+01  0.12700000000E+01 0.  1.
<mgrwt>
<rscale>  0 0.20816012E+01</rscale>
<asrwt>0</asrwt>
<pdfrwt beam="1">0</pdfrwt>
<pdfrwt beam="2">0</pdfrwt>
<totfact> 0.42238609E+12</totfact>
</mgrwt>
</event>
<event>
 4    1  0.1699693E+006  0.2513913E+01  0.7546771E-02  0.2702428E+00
         22   -1    0    0    0    0  0.00000000000E+00  0.00000000000E+00  0.10849985332E+02  0.10849985332E+02  0.00000000000E+00 0. -1.
         22   -1    0    0    0    0 -0.00000000000E+00 -0.00000000000E+00 -0.17530372691E+01  0.17530372691E+01  0.00000000000E+00 0. -1.
          4    1    1    2  501    0 -0.10014036749E+01 -0.19245903802E+01  0.96977706072E+01  0.10018308849E+02  0.12700000000E+01 0. -1.
         -4    1    1    2    0  501  0.10014036749E+01  0.19245903802E+01 -0.60082254385E+00  0.25847137522E+01  0.12700000000E+01 0. -1.
<mgrwt>
<rscale>  0 0.25139128E+01</rscale>
<asrwt>0</asrwt>
<pdfrwt beam="1">0</pdfrwt>
<pdfrwt beam="2">0</pdfrwt>
<totfact> 0.75456657E+11</totfact>
</mgrwt>
</event>
<event>
 4    1  0.1699693E+006  0.2453819E+01  0.7546771E-02  0.2729247E+00
         22   -1    0    0    0    0  0.00000000000E+00  0.00000000000E+00  0.15143502798E+02  0.15143502798E+02  0.00000000000E+00 0. -1.
         22   -1    0    0    0    0 -0.00000000000E+00 -0.00000000000E+00 -0.94406193812E+00  0.94406193812E+00  0.00000000000E+00 0. -1.
          4    1    1    2  501    0  0.19366863061E+01 -0.81090802010E+00  0.13219497376E+02  0.13445309091E+02  0.12700000000E+01 0. -1.
         -4    1    1    2    0  501 -0.19366863061E+01  0.81090802010E+00  0.97994348398E+00  0.26422556457E+01  0.12700000000E+01 0. -1.
<mgrwt>
<rscale>  0 0.24538186E+01</rscale>
<asrwt>0</asrwt>
<pdfrwt beam="1">0</pdfrwt>
<pdfrwt beam="2">0</pdfrwt>
<totfact> 0.10210554E+12</totfact>
</mgrwt>
</event>
<event>
 4    1  0.1699693E+006  0.5998412E+01  0.7546771E-02  0.2019830E+00
         22   -1    0    0    0    0  0.00000000000E+00  0.00000000000E+00  0.42208983456E+02  0.42208983456E+02  0.00000000000E+00 0.  1.
         22   -1    0    0    0    0 -0.00000000000E+00 -0.00000000000E+00 -0.22509010192E+01  0.22509010192E+01  0.00000000000E+00 0. -1.
          4    1    1    2  501    0 -0.53023530994E+01  0.25006205961E+01  0.37501059095E+02  0.37977761717E+02  0.12700000000E+01 0.  1.
         -4    1    1    2    0  501  0.53023530994E+01 -0.25006205961E+01  0.24570233420E+01  0.64821227588E+01  0.12700000000E+01 0. -1.
<mgrwt>
<rscale>  0 0.59984124E+01</rscale>
<asrwt>0</asrwt>
<pdfrwt beam="1">0</pdfrwt>
<pdfrwt beam="2">0</pdfrwt>
<totfact> 0.10291063E+11</totfact>
</mgrwt>
</event>
<event>
 4    1  0.1699693E+006  0.3928237E+01  0.7546771E-02  0.2291226E+00
         22   -1    0    0    0    0  0.00000000000E+00  0.00000000000E+00  0.13506249337E+01  0.13506249337E+01  0.00000000000E+00 0.  1.
         22   -1    0    0    0    0 -0.00000000000E+00 -0.00000000000E+00 -0.12475091476E+02  0.12475091476E+02  0.00000000000E+00 0. -1.
          4    1    1    2  501    0 -0.29556889483E+01  0.22543392153E+01 -0.35567179587E+01  0.52991777753E+01  0.12700000000E+01 0.  1.
         -4    1    1    2    0  501  0.29556889483E+01 -0.22543392153E+01 -0.75677485837E+01  0.85265386343E+01  0.12700000000E+01 0. -1.
<mgrwt>
<rscale>  0 0.39282366E+01</rscale>
<asrwt>0</asrwt>
<pdfrwt beam="1">0</pdfrwt>
<pdfrwt beam="2">0</pdfrwt>
<totfact> 0.85955522E+11</totfact>
</mgrwt>
</event>
<event>
 4    1  0.1699693E+006  0.2380223E+01  0.7546771E-02  0.2763813E+00
         22   -1    0    0    0    0  0.00000000000E+00  0.00000000000E+00  0.13136701732E+02  0.13136701732E+02  0.00000000000E+00 0. -1.
         22   -1    0    0    0    0 -0.00000000000E+00 -0.00000000000E+00 -0.43196999173E+00  0.43196999173E+00  0.00000000000E+00 0.  1.
          4    1    1    2  501    0 -0.20071444483E+01 -0.15470603944E+00  0.60792245084E+01  0.65285858666E+01  0.12700000000E+01 0.  1.
         -4    1    1    2    0  501  0.20071444483E+01  0.15470603944E+00  0.66255072315E+01  0.70400858567E+01  0.12700000000E+01 0.  1.
<mgrwt>
<rscale>  0 0.23802233E+01</rscale>
<asrwt>0</asrwt>
<pdfrwt beam="1">0</pdfrwt>
<pdfrwt beam="2">0</pdfrwt>
<totfact> 0.29493782E+12</totfact>
</mgrwt>
</event>
<event>
 4    1  0.1699693E+006  0.2061592E+01  0.7546771E-02  0.2940355E+00
         22   -1    0    0    0    0  0.00000000000E+00  0.00000000000E+00  0.23790032357E+01  0.23790032357E+01  0.00000000000E+00 0. -1.
         22   -1    0    0    0    0 -0.00000000000E+00 -0.00000000000E+00 -0.18252159056E+01  0.18252159056E+01  0.00000000000E+00 0.  1.
          4    1    1    2  501    0 -0.10564479112E+01  0.12333606405E+01 -0.29143797646E-01  0.20617977640E+01  0.12700000000E+01 0. -1.
         -4    1    1    2    0  501  0.10564479112E+01 -0.12333606405E+01  0.58293112773E+00  0.21424213774E+01  0.12700000000E+01 0. -1.
<mgrwt>
<rscale>  0 0.20615918E+01</rscale>
<asrwt>0</asrwt>
<pdfrwt beam="1">0</pdfrwt>
<pdfrwt beam="2">0</pdfrwt>
<totfact> 0.43540235E+12</totfact>
</mgrwt>
</event>
<event>
 4    1  0.1699693E+006  0.2153760E+01  0.7546771E-02  0.2884140E+00
         22   -1    0    0    0    0  0.00000000000E+00  0.00000000000E+00  0.14753012789E+01  0.14753012789E+01  0.00000000000E+00 0.  1.
         22   -1    0    0    0    0 -0.00000000000E+00 -0.00000000000E+00 -0.41389429550E+01  0.41389429550E+01  0.00000000000E+00 0.  1.
          4    1    1    2  501    0 -0.11139761035E+01  0.13359791510E+01 -0.27079715176E+01  0.34600278599E+01  0.12700000000E+01 0.  1.
         -4    1    1    2    0  501  0.11139761035E+01 -0.13359791510E+01  0.44329841412E-01  0.21542163740E+01  0.12700000000E+01 0.  1.
<mgrwt>
<rscale>  0 0.21537602E+01</rscale>
<asrwt>0</asrwt>
<pdfrwt beam="1">0</pdfrwt>
<pdfrwt beam="2">0</pdfrwt>
<totfact> 0.29118430E+12</totfact>
</mgrwt>
</event>
<event>
 4    1  0.1699693E+006  0.2019738E+01  0.7546771E-02  0.2967528E+00
         22   -1    0    0    0    0  0.00000000000E+00  0.00000000000E+00  0.75653366905E-01  0.75653366905E-01  0.00000000000E+00 0.  1.
         22   -1    0    0    0    0 -0.00000000000E+00 -0.00000000000E+00 -0.56165182333E+02  0.56165182333E+02  0.00000000000E+00 0. -1.
          4    1    1    2  501    0 -0.42547059412E+00  0.15117599265E+01 -0.33665181128E+02  0.33725713687E+02  0.12700000000E+01 0. -1.
         -4    1    1    2    0  501  0.42547059412E+00 -0.15117599265E+01 -0.22424347838E+02  0.22515122013E+02  0.12700000000E+01 0.  1.
<mgrwt>
<rscale>  0 0.20197384E+01</rscale>
<asrwt>0</asrwt>
<pdfrwt beam="1">0</pdfrwt>
<pdfrwt beam="2">0</pdfrwt>
<totfact> 0.32459670E+12</totfact>
</mgrwt>
</event>
<event>
 4    1  0.1699693E+006  0.2043292E+01  0.7546771E-02  0.2952103E+00
         22   -1    0    0    0    0  0.00000000000E+00  0.00000000000E+00  0.40140305964E+01  0.40140305964E+01  0.00000000000E+00 0. -1.
         22   -1    0    0    0    0 -0.00000000000E+00 -0.00000000000E+00 -0.10403819638E+01  0.10403819638E+01  0.00000000000E+00 0.  1.
          4    1    1    2  501    0  0.71732819765E+00 -0.14309369112E+01  0.15275565636E+01  0.25511701711E+01  0.12700000000E+01 0. -1.
         -4    1    1    2    0  501 -0.71732819765E+00  0.14309369112E+01  0.14460920690E+01  0.25032423892E+01  0.12700000000E+01 0.  1.
<mgrwt>
<rscale>  0 0.20432915E+01</rscale>
<asrwt>0</asrwt>
<pdfrwt beam="1">0</pdfrwt>
<pdfrwt beam="2">0</pdfrwt>
<totfact> 0.45053213E+12</totfact>
</mgrwt>
</event>
<event>
 4    1  0.1699693E+006  0.2266147E+01  0.7546771E-02  0.2821563E+00
         22   -1    0    0    0    0  0.00000000000E+00  0.00000000000E+00  0.62873189181E+01  0.62873189181E+01  0.00000000000E+00 0.  1.
         22   -1    0    0    0    0 -0.00000000000E+00 -0.00000000000E+00 -0.95943234429E+00  0.95943234429E+00  0.00000000000E+00 0. -1.
          4    1    1    2  501    0 -0.14800445619E+01 -0.11541181341E+01  0.40610516349E+01  0.46505441568E+01  0.12700000000E+01 0.  1.
         -4    1    1    2    0  501  0.14800445619E+01  0.11541181341E+01  0.12668349388E+01  0.25962071056E+01  0.12700000000E+01 0. -1.
<mgrwt>
<rscale>  0 0.22661466E+01</rscale>
<asrwt>0</asrwt>
<pdfrwt beam="1">0</pdfrwt>
<pdfrwt beam="2">0</pdfrwt>
<totfact> 0.29048513E+12</totfact>
</mgrwt>
</event>
<event>
 4    1  0.1699693E+006  0.2046571E+01  0.7546771E-02  0.2949983E+00
         22   -1    0    0    0    0  0.00000000000E+00  0.00000000000E+00  0.37239172277E+01  0.37239172277E+01  0.00000000000E+00 0.  1.
         22   -1    0    0    0    0 -0.00000000000E+00 -0.00000000000E+00 -0.11296135490E+01  0.11296135490E+01  0.00000000000E+00 0. -1.
          4    1    1    2  501    0 -0.26101817751E+00 -0.15834836145E+01  0.14564972978E+01  0.25119385392E+01  0.12700000000E+01 0. -1.
         -4    1    1    2    0  501  0.26101817751E+00  0.15834836145E+01  0.11378063809E+01  0.23415922375E+01  0.12700000000E+01 0.  1.
<mgrwt>
<rscale>  0 0.20465705E+01</rscale>
<asrwt>0</asrwt>
<pdfrwt beam="1">0</pdfrwt>
<pdfrwt beam="2">0</pdfrwt>
<totfact> 0.44788026E+12</totfact>
</mgrwt>
</event>
<event>
 4    1  0.1699693E+006  0.2254627E+01  0.7546771E-02  0.2827702E+00
         22   -1    0    0    0    0  0.00000000000E+00  0.00000000000E+00  0.31601081481E+02  0.31601081481E+02  0.00000000000E+00 0.  1.
         22   -1    0    0    0    0 -0.00000000000E+00 -0.00000000000E+00 -0.19536369775E+00  0.19536369775E+00  0.00000000000E+00 0. -1.
          4    1    1    2  501    0  0.17501877080E+01  0.63818964992E+00  0.22384156839E+02  0.22497418083E+02  0.12700000000E+01 0.  1.
         -4    1    1    2    0  501 -0.17501877080E+01 -0.63818964992E+00  0.90215609444E+01  0.92990270952E+01  0.12700000000E+01 0. -1.
<mgrwt>
<rscale>  0 0.22546270E+01</rscale>
<asrwt>0</asrwt>
<pdfrwt beam="1">0</pdfrwt>
<pdfrwt beam="2">0</pdfrwt>
<totfact> 0.23977526E+12</totfact>
</mgrwt>
</event>
<event>
 4    1  0.1699693E+006  0.2254954E+01  0.7546771E-02  0.2827527E+00
         22   -1    0    0    0    0  0.00000000000E+00  0.00000000000E+00  0.68668762338E+01  0.68668762338E+01  0.00000000000E+00 0. -1.
         22   -1    0    0    0    0 -0.00000000000E+00 -0.00000000000E+00 -0.97815063505E+00  0.97815063505E+00  0.00000000000E+00 0. -1.
          4    1    1    2  501    0 -0.15632129413E+01  0.10140439057E+01  0.10108607129E+01  0.24711655395E+01  0.12700000000E+01 0. -1.
         -4    1    1    2    0  501  0.15632129413E+01 -0.10140439057E+01  0.48778648859E+01  0.53738613294E+01  0.12700000000E+01 0. -1.
<mgrwt>
<rscale>  0 0.22549545E+01</rscale>
<asrwt>0</asrwt>
<pdfrwt beam="1">0</pdfrwt>
<pdfrwt beam="2">0</pdfrwt>
<totfact> 0.25576007E+12</totfact>
</mgrwt>
</event>
<event>
 4    1  0.1699693E+006  0.3009415E+01  0.7546771E-02  0.2519213E+00
         22   -1    0    0    0    0  0.00000000000E+00  0.00000000000E+00  0.36352019570E+01  0.36352019570E+01  0.00000000000E+00 0.  1.
         22   -1    0    0    0    0 -0.00000000000E+00 -0.00000000000E+00 -0.25470442423E+01  0.25470442423E+01  0.00000000000E+00 0. -1.
          4    1    1    2  501    0 -0.15403692970E+01 -0.22518749306E+01  0.87007475839E-01  0.30106724456E+01  0.12700000000E+01 0.  1.
         -4    1    1    2    0  501  0.15403692970E+01  0.22518749306E+01  0.10011502389E+01  0.31715737536E+01  0.12700000000E+01 0. -1.
<mgrwt>
<rscale>  0 0.30094149E+01</rscale>
<asrwt>0</asrwt>
<pdfrwt beam="1">0</pdfrwt>
<pdfrwt beam="2">0</pdfrwt>
<totfact> 0.18035594E+12</totfact>
</mgrwt>
</event>
<event>
 4    1  0.1699693E+006  0.3971216E+01  0.7546771E-02  0.2282831E+00
         22   -1    0    0    0    0  0.00000000000E+00  0.00000000000E+00  0.78704603473E+01  0.78704603473E+01  0.00000000000E+00 0.  1.
         22   -1    0    0    0    0 -0.00000000000E+00 -0.00000000000E+00 -0.23068456660E+01  0.23068456660E+01  0.00000000000E+00 0. -1.
          4    1    1    2  501    0 -0.34752550983E+00  0.37465830141E+01  0.46262799189E+01  0.60969684392E+01  0.12700000000E+01 0. -1.
         -4    1    1    2    0  501  0.34752550983E+00 -0.37465830141E+01  0.93733476244E+00  0.40803375740E+01  0.12700000000E+01 0.  1.
<mgrwt>
<rscale>  0 0.39712162E+01</rscale>
<asrwt>0</asrwt>
<pdfrwt beam="1">0</pdfrwt>
<pdfrwt beam="2">0</pdfrwt>
<totfact> 0.80919715E+11</totfact>
</mgrwt>
</event>
<event>
 4    1  0.1699693E+006  0.2357433E+01  0.7546771E-02  0.2774927E+00
         22   -1    0    0    0    0  0.00000000000E+00  0.00000000000E+00  0.43574331578E+01  0.43574331578E+01  0.00000000000E+00 0.  1.
         22   -1    0    0    0    0 -0.00000000000E+00 -0.00000000000E+00 -0.39287714253E+01  0.39287714253E+01  0.00000000000E+00 0. -1.
          4    1    1    2  501    0 -0.15157314474E+01  0.12834135891E+01  0.36191644131E+01  0.43192410572E+01  0.12700000000E+01 0.  1.
         -4    1    1    2    0  501  0.15157314474E+01 -0.12834135891E+01 -0.31905026805E+01  0.39669635259E+01  0.12700000000E+01 0. -1.
<mgrwt>
<rscale>  0 0.23574334E+01</rscale>
<asrwt>0</asrwt>
<pdfrwt beam="1">0</pdfrwt>
<pdfrwt beam="2">0</pdfrwt>
<totfact> 0.87768183E+11</totfact>
</mgrwt>
</event>
<event>
 4    1  0.1699693E+006  0.2353585E+01  0.7546771E-02  0.2776824E+00
         22   -1    0    0    0    0  0.00000000000E+00  0.00000000000E+00  0.73599675704E+02  0.73599675704E+02  0.00000000000E+00 0.  1.
         22   -1    0    0    0    0 -0.00000000000E+00 -0.00000000000E+00 -0.98415539089E-01  0.98415539089E-01  0.00000000000E+00 0. -1.
          4    1    1    2  501    0  0.19853925383E-01 -0.19814307111E+01  0.54623321896E+02  0.54674003482E+02  0.12700000000E+01 0.  1.
         -4    1    1    2    0  501 -0.19853925383E-01  0.19814307111E+01  0.18877938269E+02  0.19024087761E+02  0.12700000000E+01 0. -1.
<mgrwt>
<rscale>  0 0.23535849E+01</rscale>
<asrwt>0</asrwt>
<pdfrwt beam="1">0</pdfrwt>
<pdfrwt beam="2">0</pdfrwt>
<totfact> 0.16865899E+12</totfact>
</mgrwt>
</event>
<event>
 4    1  0.1699693E+006  0.2251614E+01  0.7546771E-02  0.2829318E+00
         22   -1    0    0    0    0  0.00000000000E+00  0.00000000000E+00  0.22476658065E+01  0.22476658065E+01  0.00000000000E+00 0.  1.
         22   -1    0    0    0    0 -0.00000000000E+00 -0.00000000000E+00 -0.25843755800E+01  0.25843755800E+01  0.00000000000E+00 0. -1.
          4    1    1    2  501    0 -0.27314133497E+00 -0.18390924063E+01 -0.10301272662E+01  0.24760713343E+01  0.12700000000E+01 0. -1.
         -4    1    1    2    0  501  0.27314133497E+00  0.18390924063E+01  0.69341749259E+00  0.23559700522E+01  0.12700000000E+01 0.  1.
<mgrwt>
<rscale>  0 0.22516143E+01</rscale>
<asrwt>0</asrwt>
<pdfrwt beam="1">0</pdfrwt>
<pdfrwt beam="2">0</pdfrwt>
<totfact> 0.31074516E+12</totfact>
</mgrwt>
</event>
<event>
 4    1  0.1699693E+006  0.6265798E+01  0.7546771E-02  0.1996640E+00
         22   -1    0    0    0    0  0.00000000000E+00  0.00000000000E+00  0.10520788998E+02  0.10520788998E+02  0.00000000000E+00 0.  1.
         22   -1    0    0    0    0 -0.00000000000E+00 -0.00000000000E+00 -0.66887821449E+01  0.66887821449E+01  0.00000000000E+00 0. -1.
          4    1    1    2  501    0 -0.44327614597E+01  0.42423992019E+01  0.76373682198E+01  0.98787457945E+01  0.12700000000E+01 0.  1.
         -4    1    1    2    0  501  0.44327614597E+01 -0.42423992019E+01 -0.38053613672E+01  0.73308253480E+01  0.12700000000E+01 0. -1.
<mgrwt>
<rscale>  0 0.62657980E+01</rscale>
<asrwt>0</asrwt>
<pdfrwt beam="1">0</pdfrwt>
<pdfrwt beam="2">0</pdfrwt>
<totfact> 0.16289754E+11</totfact>
</mgrwt>
</event>
<event>
 4    1  0.1699693E+006  0.2677958E+01  0.7546771E-02  0.2634919E+00
         22   -1    0    0    0    0  0.00000000000E+00  0.00000000000E+00  0.40485557742E+00  0.40485557742E+00  0.00000000000E+00 0. -1.
         22   -1    0    0    0    0 -0.00000000000E+00 -0.00000000000E+00 -0.18983754649E+02  0.18983754649E+02  0.00000000000E+00 0. -1.
          4    1    1    2  501    0  0.21327979212E+01  0.10048539149E+01 -0.67818955329E+01  0.72914720998E+01  0.12700000000E+01 0. -1.
         -4    1    1    2    0  501 -0.21327979212E+01 -0.10048539149E+01 -0.11797003539E+02  0.12097138127E+02  0.12700000000E+01 0. -1.
<mgrwt>
<rscale>  0 0.26779579E+01</rscale>
<asrwt>0</asrwt>
<pdfrwt beam="1">0</pdfrwt>
<pdfrwt beam="2">0</pdfrwt>
<totfact> 0.20147257E+12</totfact>
</mgrwt>
</event>
<event>
 4    1  0.1699693E+006  0.2089489E+01  0.7546771E-02  0.2922833E+00
         22   -1    0    0    0    0  0.00000000000E+00  0.00000000000E+00  0.45425623512E+00  0.45425623512E+00  0.00000000000E+00 0.  1.
         22   -1    0    0    0    0 -0.00000000000E+00 -0.00000000000E+00 -0.10187905040E+02  0.10187905040E+02  0.00000000000E+00 0.  1.
          4    1    1    2  501    0  0.13482865176E+01  0.96705109961E+00 -0.61327853660E+01  0.64789675650E+01  0.12700000000E+01 0.  1.
         -4    1    1    2    0  501 -0.13482865176E+01 -0.96705109961E+00 -0.36008634391E+01  0.41631937104E+01  0.12700000000E+01 0.  1.
<mgrwt>
<rscale>  0 0.20894890E+01</rscale>
<asrwt>0</asrwt>
<pdfrwt beam="1">0</pdfrwt>
<pdfrwt beam="2">0</pdfrwt>
<totfact> 0.37975905E+12</totfact>
</mgrwt>
</event>
<event>
 4    1  0.1699693E+006  0.2420465E+01  0.7546771E-02  0.2744668E+00
         22   -1    0    0    0    0  0.00000000000E+00  0.00000000000E+00  0.15882773132E+01  0.15882773132E+01  0.00000000000E+00 0.  1.
         22   -1    0    0    0    0 -0.00000000000E+00 -0.00000000000E+00 -0.66738150635E+02  0.66738150635E+02  0.00000000000E+00 0. -1.
          4    1    1    2  501    0  0.17004161057E+01  0.11637584262E+01  0.63074158826E+00  0.25012963756E+01  0.12700000000E+01 0.  1.
         -4    1    1    2    0  501 -0.17004161057E+01 -0.11637584262E+01 -0.65780614910E+02  0.65825131573E+02  0.12700000000E+01 0. -1.
<mgrwt>
<rscale>  0 0.24204645E+01</rscale>
<asrwt>0</asrwt>
<pdfrwt beam="1">0</pdfrwt>
<pdfrwt beam="2">0</pdfrwt>
<totfact> 0.83897760E+10</totfact>
</mgrwt>
</event>
<event>
 4    1  0.1699693E+006  0.2273749E+01  0.7546771E-02  0.2817544E+00
         22   -1    0    0    0    0  0.00000000000E+00  0.00000000000E+00  0.10376316480E+02  0.10376316480E+02  0.00000000000E+00 0. -1.
         22   -1    0    0    0    0 -0.00000000000E+00 -0.00000000000E+00 -0.51596187236E+00  0.51596187236E+00  0.00000000000E+00 0.  1.
          4    1    1    2  501    0 -0.71987550142E+00  0.17432188546E+01  0.59394099366E+01  0.63597581013E+01  0.12700000000E+01 0.  1.
         -4    1    1    2    0  501  0.71987550142E+00 -0.17432188546E+01  0.39209446708E+01  0.45325202508E+01  0.12700000000E+01 0. -1.
<mgrwt>
<rscale>  0 0.22737486E+01</rscale>
<asrwt>0</asrwt>
<pdfrwt beam="1">0</pdfrwt>
<pdfrwt beam="2">0</pdfrwt>
<totfact> 0.32169396E+12</totfact>
</mgrwt>
</event>
<event>
 4    1  0.1699693E+006  0.3758136E+01  0.7546771E-02  0.2326057E+00
         22   -1    0    0    0    0  0.00000000000E+00  0.00000000000E+00  0.17429566012E+02  0.17429566012E+02  0.00000000000E+00 0.  1.
         22   -1    0    0    0    0 -0.00000000000E+00 -0.00000000000E+00 -0.13295895576E+01  0.13295895576E+01  0.00000000000E+00 0. -1.
          4    1    1    2  501    0 -0.35237652082E+01  0.30621440216E+00  0.13911631999E+02  0.14410312050E+02  0.12700000000E+01 0.  1.
         -4    1    1    2    0  501  0.35237652082E+01 -0.30621440216E+00  0.21883444552E+01  0.43488435195E+01  0.12700000000E+01 0. -1.
<mgrwt>
<rscale>  0 0.37581363E+01</rscale>
<asrwt>0</asrwt>
<pdfrwt beam="1">0</pdfrwt>
<pdfrwt beam="2">0</pdfrwt>
<totfact> 0.58006787E+11</totfact>
</mgrwt>
</event>
<event>
 4    1  0.1699693E+006  0.2458398E+01  0.7546771E-02  0.2727160E+00
         22   -1    0    0    0    0  0.00000000000E+00  0.00000000000E+00  0.96958257832E+01  0.96958257832E+01  0.00000000000E+00 0. -1.
         22   -1    0    0    0    0 -0.00000000000E+00 -0.00000000000E+00 -0.77690433271E+00  0.77690433271E+00  0.00000000000E+00 0.  1.
          4    1    1    2  501    0  0.10041906226E+01 -0.18499789317E+01  0.67875642498E+01  0.72190545987E+01  0.12700000000E+01 0. -1.
         -4    1    1    2    0  501 -0.10041906226E+01  0.18499789317E+01  0.21313572007E+01  0.32536755172E+01  0.12700000000E+01 0.  1.
<mgrwt>
<rscale>  0 0.24583980E+01</rscale>
<asrwt>0</asrwt>
<pdfrwt beam="1">0</pdfrwt>
<pdfrwt beam="2">0</pdfrwt>
<totfact> 0.21962239E+12</totfact>
</mgrwt>
</event>
<event>
 4    1  0.1699693E+006  0.2511729E+01  0.7546771E-02  0.2703382E+00
         22   -1    0    0    0    0  0.00000000000E+00  0.00000000000E+00  0.18174848375E+02  0.18174848375E+02  0.00000000000E+00 0.  1.
         22   -1    0    0    0    0 -0.00000000000E+00 -0.00000000000E+00 -0.35822505943E+00  0.35822505943E+00  0.00000000000E+00 0. -1.
          4    1    1    2  501    0 -0.16065641746E+01 -0.14542471492E+01  0.72764799323E+01  0.76977882163E+01  0.12700000000E+01 0. -1.
         -4    1    1    2    0  501  0.16065641746E+01  0.14542471492E+01  0.10540143383E+02  0.10835285218E+02  0.12700000000E+01 0.  1.
<mgrwt>
<rscale>  0 0.25117291E+01</rscale>
<asrwt>0</asrwt>
<pdfrwt beam="1">0</pdfrwt>
<pdfrwt beam="2">0</pdfrwt>
<totfact> 0.24405568E+12</totfact>
</mgrwt>
</event>
<event>
 4    1  0.1699693E+006  0.2161126E+01  0.7546771E-02  0.2879848E+00
         22   -1    0    0    0    0  0.00000000000E+00  0.00000000000E+00  0.57334281506E+01  0.57334281506E+01  0.00000000000E+00 0. -1.
         22   -1    0    0    0    0 -0.00000000000E+00 -0.00000000000E+00 -0.23958189546E+01  0.23958189546E+01  0.00000000000E+00 0. -1.
          4    1    1    2  501    0 -0.36200125465E+00 -0.17107074449E+01  0.49708952708E+01  0.54203565071E+01  0.12700000000E+01 0. -1.
         -4    1    1    2    0  501  0.36200125465E+00  0.17107074449E+01 -0.16332860748E+01  0.27088905981E+01  0.12700000000E+01 0. -1.
<mgrwt>
<rscale>  0 0.21611258E+01</rscale>
<asrwt>0</asrwt>
<pdfrwt beam="1">0</pdfrwt>
<pdfrwt beam="2">0</pdfrwt>
<totfact> 0.11305601E+12</totfact>
</mgrwt>
</event>
<event>
 4    1  0.1699693E+006  0.2915174E+01  0.7546771E-02  0.2549685E+00
         22   -1    0    0    0    0  0.00000000000E+00  0.00000000000E+00  0.60534051606E+00  0.60534051606E+00  0.00000000000E+00 0.  1.
         22   -1    0    0    0    0 -0.00000000000E+00 -0.00000000000E+00 -0.14038848167E+02  0.14038848167E+02  0.00000000000E+00 0.  1.
          4    1    1    2  501    0  0.26211995950E+01 -0.12103582270E+00 -0.67339011290E+01  0.73378240237E+01  0.12700000000E+01 0.  1.
         -4    1    1    2    0  501 -0.26211995950E+01  0.12103582270E+00 -0.66996065218E+01  0.73063646593E+01  0.12700000000E+01 0.  1.
<mgrwt>
<rscale>  0 0.29151736E+01</rscale>
<asrwt>0</asrwt>
<pdfrwt beam="1">0</pdfrwt>
<pdfrwt beam="2">0</pdfrwt>
<totfact> 0.18571715E+12</totfact>
</mgrwt>
</event>
<event>
 4    1  0.1699693E+006  0.2188223E+01  0.7546771E-02  0.2864296E+00
         22   -1    0    0    0    0  0.00000000000E+00  0.00000000000E+00  0.79903850466E+00  0.79903850466E+00  0.00000000000E+00 0. -1.
         22   -1    0    0    0    0 -0.00000000000E+00 -0.00000000000E+00 -0.60594605816E+01  0.60594605816E+01  0.00000000000E+00 0.  1.
          4    1    1    2  501    0  0.11242741381E+01  0.13825443691E+01 -0.22700021111E+01  0.31529717497E+01  0.12700000000E+01 0.  1.
         -4    1    1    2    0  501 -0.11242741381E+01 -0.13825443691E+01 -0.29904199659E+01  0.37055273366E+01  0.12700000000E+01 0. -1.
<mgrwt>
<rscale>  0 0.21882233E+01</rscale>
<asrwt>0</asrwt>
<pdfrwt beam="1">0</pdfrwt>
<pdfrwt beam="2">0</pdfrwt>
<totfact> 0.37388218E+12</totfact>
</mgrwt>
</event>
<event>
 4    1  0.1699693E+006  0.2467308E+01  0.7546771E-02  0.2723121E+00
         22   -1    0    0    0    0  0.00000000000E+00  0.00000000000E+00  0.17251436687E+02  0.17251436687E+02  0.00000000000E+00 0. -1.
         22   -1    0    0    0    0 -0.00000000000E+00 -0.00000000000E+00 -0.40363913112E+00  0.40363913112E+00  0.00000000000E+00 0.  1.
          4    1    1    2  501    0  0.13951370707E+01  0.15900633018E+01  0.11554440151E+02  0.11814935292E+02  0.12700000000E+01 0. -1.
         -4    1    1    2    0  501 -0.13951370707E+01 -0.15900633018E+01  0.52933574049E+01  0.58401405262E+01  0.12700000000E+01 0.  1.
<mgrwt>
<rscale>  0 0.24673080E+01</rscale>
<asrwt>0</asrwt>
<pdfrwt beam="1">0</pdfrwt>
<pdfrwt beam="2">0</pdfrwt>
<totfact> 0.22764323E+12</totfact>
</mgrwt>
</event>
<event>
 4    1  0.1699693E+006  0.2124100E+01  0.7546771E-02  0.2901715E+00
         22   -1    0    0    0    0  0.00000000000E+00  0.00000000000E+00  0.58031767923E+00  0.58031767923E+00  0.00000000000E+00 0.  1.
         22   -1    0    0    0    0 -0.00000000000E+00 -0.00000000000E+00 -0.80697337377E+01  0.80697337377E+01  0.00000000000E+00 0.  1.
          4    1    1    2  501    0 -0.70757568010E+00  0.15486242740E+01 -0.29177393408E+01  0.36090169501E+01  0.12700000000E+01 0.  1.
         -4    1    1    2    0  501  0.70757568010E+00 -0.15486242740E+01 -0.45716767177E+01  0.50410344668E+01  0.12700000000E+01 0.  1.
<mgrwt>
<rscale>  0 0.21240999E+01</rscale>
<asrwt>0</asrwt>
<pdfrwt beam="1">0</pdfrwt>
<pdfrwt beam="2">0</pdfrwt>
<totfact> 0.38150386E+12</totfact>
</mgrwt>
</event>
<event>
 4    1  0.1699693E+006  0.2514652E+01  0.7546771E-02  0.2702105E+00
         22   -1    0    0    0    0  0.00000000000E+00  0.00000000000E+00  0.48191210546E+01  0.48191210546E+01  0.00000000000E+00 0. -1.
         22   -1    0    0    0    0 -0.00000000000E+00 -0.00000000000E+00 -0.17673515257E+01  0.17673515257E+01  0.00000000000E+00 0.  1.
          4    1    1    2  501    0  0.19196522401E+01 -0.10126754238E+01  0.31971935271E+01  0.40676187981E+01  0.12700000000E+01 0. -1.
         -4    1    1    2    0  501 -0.19196522401E+01  0.10126754238E+01 -0.14542399819E+00  0.25188537822E+01  0.12700000000E+01 0.  1.
<mgrwt>
<rscale>  0 0.25146523E+01</rscale>
<asrwt>0</asrwt>
<pdfrwt beam="1">0</pdfrwt>
<pdfrwt beam="2">0</pdfrwt>
<totfact> 0.19760953E+12</totfact>
</mgrwt>
</event>
<event>
 4    1  0.1699693E+006  0.2006328E+01  0.7546771E-02  0.2976469E+00
         22   -1    0    0    0    0  0.00000000000E+00  0.00000000000E+00  0.49954815137E+00  0.49954815137E+00  0.00000000000E+00 0. -1.
         22   -1    0    0    0    0 -0.00000000000E+00 -0.00000000000E+00 -0.80598057035E+01  0.80598057035E+01  0.00000000000E+00 0.  1.
          4    1    1    2  501    0 -0.12782633390E+01  0.88232429734E+00 -0.38443877222E+01  0.43364352051E+01  0.12700000000E+01 0. -1.
         -4    1    1    2    0  501  0.12782633390E+01 -0.88232429734E+00 -0.37158698300E+01  0.42229186498E+01  0.12700000000E+01 0.  1.
<mgrwt>
<rscale>  0 0.20063283E+01</rscale>
<asrwt>0</asrwt>
<pdfrwt beam="1">0</pdfrwt>
<pdfrwt beam="2">0</pdfrwt>
<totfact> 0.45259249E+12</totfact>
</mgrwt>
</event>
<event>
 4    1  0.1699693E+006  0.2807965E+01  0.7546771E-02  0.2586585E+00
         22   -1    0    0    0    0  0.00000000000E+00  0.00000000000E+00  0.47079864141E+01  0.47079864141E+01  0.00000000000E+00 0.  1.
         22   -1    0    0    0    0 -0.00000000000E+00 -0.00000000000E+00 -0.10764946380E+02  0.10764946380E+02  0.00000000000E+00 0. -1.
          4    1    1    2  501    0  0.14907723299E+01  0.20123034799E+01  0.40807654449E+01  0.49535153226E+01  0.12700000000E+01 0.  1.
         -4    1    1    2    0  501 -0.14907723299E+01 -0.20123034799E+01 -0.10137725411E+02  0.10519417472E+02  0.12700000000E+01 0. -1.
<mgrwt>
<rscale>  0 0.28079650E+01</rscale>
<asrwt>0</asrwt>
<pdfrwt beam="1">0</pdfrwt>
<pdfrwt beam="2">0</pdfrwt>
<totfact> 0.24044088E+11</totfact>
</mgrwt>
</event>
<event>
 4    1  0.1699693E+006  0.2436916E+01  0.7546771E-02  0.2737013E+00
         22   -1    0    0    0    0  0.00000000000E+00  0.00000000000E+00  0.39325783734E+01  0.39325783734E+01  0.00000000000E+00 0.  1.
         22   -1    0    0    0    0 -0.00000000000E+00 -0.00000000000E+00 -0.37952029944E+01  0.37952029944E+01  0.00000000000E+00 0. -1.
          4    1    1    2  501    0  0.80877731564E+00 -0.19161253779E+01  0.30668899407E+01  0.39171891859E+01  0.12700000000E+01 0.  1.
         -4    1    1    2    0  501 -0.80877731564E+00  0.19161253779E+01 -0.29295145617E+01  0.38105921820E+01  0.12700000000E+01 0. -1.
<mgrwt>
<rscale>  0 0.24369155E+01</rscale>
<asrwt>0</asrwt>
<pdfrwt beam="1">0</pdfrwt>
<pdfrwt beam="2">0</pdfrwt>
<totfact> 0.10315197E+12</totfact>
</mgrwt>
</event>
<event>
 4    1  0.1699693E+006  0.3241695E+01  0.7546771E-02  0.2450912E+00
         22   -1    0    0    0    0  0.00000000000E+00  0.00000000000E+00  0.21666053230E+02  0.21666053230E+02  0.00000000000E+00 0.  1.
         22   -1    0    0    0    0 -0.00000000000E+00 -0.00000000000E+00 -0.50834697246E+00  0.50834697246E+00  0.00000000000E+00 0. -1.
          4    1    1    2  501    0  0.20201013053E+01  0.21942822770E+01  0.82040828813E+01  0.88213128228E+01  0.12700000000E+01 0.  1.
         -4    1    1    2    0  501 -0.20201013053E+01 -0.21942822770E+01  0.12953623377E+02  0.13353087380E+02  0.12700000000E+01 0.  1.
<mgrwt>
<rscale>  0 0.32416946E+01</rscale>
<asrwt>0</asrwt>
<pdfrwt beam="1">0</pdfrwt>
<pdfrwt beam="2">0</pdfrwt>
<totfact> 0.13216593E+12</totfact>
</mgrwt>
</event>
<event>
 4    1  0.1699693E+006  0.3184369E+01  0.7546771E-02  0.2466944E+00
         22   -1    0    0    0    0  0.00000000000E+00  0.00000000000E+00  0.58960548216E+01  0.58960548216E+01  0.00000000000E+00 0. -1.
         22   -1    0    0    0    0 -0.00000000000E+00 -0.00000000000E+00 -0.21620220394E+01  0.21620220394E+01  0.00000000000E+00 0.  1.
          4    1    1    2  501    0  0.28721124213E+01 -0.52751597138E+00  0.36891388856E+01  0.48733918966E+01  0.12700000000E+01 0. -1.
         -4    1    1    2    0  501 -0.28721124213E+01  0.52751597138E+00  0.44893896692E-01  0.31846849644E+01  0.12700000000E+01 0.  1.
<mgrwt>
<rscale>  0 0.31843685E+01</rscale>
<asrwt>0</asrwt>
<pdfrwt beam="1">0</pdfrwt>
<pdfrwt beam="2">0</pdfrwt>
<totfact> 0.12320863E+12</totfact>
</mgrwt>
</event>
<event>
 4    1  0.1699693E+006  0.2154739E+01  0.7546771E-02  0.2883568E+00
         22   -1    0    0    0    0  0.00000000000E+00  0.00000000000E+00  0.35860977070E+01  0.35860977070E+01  0.00000000000E+00 0. -1.
         22   -1    0    0    0    0 -0.00000000000E+00 -0.00000000000E+00 -0.29162111602E+01  0.29162111602E+01  0.00000000000E+00 0. -1.
          4    1    1    2  501    0  0.10702232153E+01 -0.13728154921E+01  0.27592571970E+01  0.35009142214E+01  0.12700000000E+01 0. -1.
         -4    1    1    2    0  501 -0.10702232153E+01  0.13728154921E+01 -0.20893706502E+01  0.30013946458E+01  0.12700000000E+01 0. -1.
<mgrwt>
<rscale>  0 0.21547390E+01</rscale>
<asrwt>0</asrwt>
<pdfrwt beam="1">0</pdfrwt>
<pdfrwt beam="2">0</pdfrwt>
<totfact> 0.15650168E+12</totfact>
</mgrwt>
</event>
<event>
 4    1  0.1699693E+006  0.6241367E+01  0.7546771E-02  0.1998695E+00
         22   -1    0    0    0    0  0.00000000000E+00  0.00000000000E+00  0.67353596379E+01  0.67353596379E+01  0.00000000000E+00 0.  1.
         22   -1    0    0    0    0 -0.00000000000E+00 -0.00000000000E+00 -0.86491614021E+01  0.86491614021E+01  0.00000000000E+00 0. -1.
          4    1    1    2  501    0  0.21367055843E+01  0.57250548618E+01  0.34707300861E+01  0.71414726251E+01  0.12700000000E+01 0. -1.
         -4    1    1    2    0  501 -0.21367055843E+01 -0.57250548618E+01 -0.53845318503E+01  0.82430484149E+01  0.12700000000E+01 0.  1.
<mgrwt>
<rscale>  0 0.62413672E+01</rscale>
<asrwt>0</asrwt>
<pdfrwt beam="1">0</pdfrwt>
<pdfrwt beam="2">0</pdfrwt>
<totfact> 0.20471812E+11</totfact>
</mgrwt>
</event>
<event>
 4    1  0.1699693E+006  0.2343695E+01  0.7546771E-02  0.2781726E+00
         22   -1    0    0    0    0  0.00000000000E+00  0.00000000000E+00  0.91171953158E+01  0.91171953158E+01  0.00000000000E+00 0. -1.
         22   -1    0    0    0    0 -0.00000000000E+00 -0.00000000000E+00 -0.69132197821E+00  0.69132197821E+00  0.00000000000E+00 0.  1.
          4    1    1    2  501    0  0.19296963606E+01  0.39532321407E+00  0.59710524854E+01  0.64145441202E+01  0.12700000000E+01 0. -1.
         -4    1    1    2    0  501 -0.19296963606E+01 -0.39532321407E+00  0.24548208522E+01  0.33939731738E+01  0.12700000000E+01 0.  1.
<mgrwt>
<rscale>  0 0.23436955E+01</rscale>
<asrwt>0</asrwt>
<pdfrwt beam="1">0</pdfrwt>
<pdfrwt beam="2">0</pdfrwt>
<totfact> 0.27010783E+12</totfact>
</mgrwt>
</event>
<event>
 4    1  0.1699693E+006  0.2249012E+01  0.7546771E-02  0.2830717E+00
         22   -1    0    0    0    0  0.00000000000E+00  0.00000000000E+00  0.19024463644E+01  0.19024463644E+01  0.00000000000E+00 0.  1.
         22   -1    0    0    0    0 -0.00000000000E+00 -0.00000000000E+00 -0.19387286731E+02  0.19387286731E+02  0.00000000000E+00 0. -1.
          4    1    1    2  501    0 -0.18144027834E+01  0.39127618642E+00  0.11456420625E+01  0.25239948989E+01  0.12700000000E+01 0.  1.
         -4    1    1    2    0  501  0.18144027834E+01 -0.39127618642E+00 -0.18630482429E+02  0.18765738196E+02  0.12700000000E+01 0. -1.
<mgrwt>
<rscale>  0 0.22490119E+01</rscale>
<asrwt>0</asrwt>
<pdfrwt beam="1">0</pdfrwt>
<pdfrwt beam="2">0</pdfrwt>
<totfact> 0.33634652E+11</totfact>
</mgrwt>
</event>
<event>
 4    1  0.1699693E+006  0.2123034E+01  0.7546771E-02  0.2902355E+00
         22   -1    0    0    0    0  0.00000000000E+00  0.00000000000E+00  0.10269058801E+01  0.10269058801E+01  0.00000000000E+00 0. -1.
         22   -1    0    0    0    0 -0.00000000000E+00 -0.00000000000E+00 -0.48181625784E+01  0.48181625784E+01  0.00000000000E+00 0.  1.
          4    1    1    2  501    0  0.16921207353E+01 -0.17635886409E+00 -0.10235840035E+01  0.23569045895E+01  0.12700000000E+01 0. -1.
         -4    1    1    2    0  501 -0.16921207353E+01  0.17635886409E+00 -0.27676726948E+01  0.34881638690E+01  0.12700000000E+01 0. -1.
<mgrwt>
<rscale>  0 0.21230344E+01</rscale>
<asrwt>0</asrwt>
<pdfrwt beam="1">0</pdfrwt>
<pdfrwt beam="2">0</pdfrwt>
<totfact> 0.36867889E+12</totfact>
</mgrwt>
</event>
<event>
 4    1  0.1699693E+006  0.4209310E+01  0.7546771E-02  0.2238985E+00
         22   -1    0    0    0    0  0.00000000000E+00  0.00000000000E+00  0.27901678294E+01  0.27901678294E+01  0.00000000000E+00 0.  1.
         22   -1    0    0    0    0 -0.00000000000E+00 -0.00000000000E+00 -0.10659765748E+02  0.10659765748E+02  0.00000000000E+00 0. -1.
          4    1    1    2  501    0 -0.59230817557E+00 -0.39692012751E+01  0.34112631951E+00  0.42231096248E+01  0.12700000000E+01 0. -1.
         -4    1    1    2    0  501  0.59230817557E+00  0.39692012751E+01 -0.82107242386E+01  0.92268239530E+01  0.12700000000E+01 0.  1.
<mgrwt>
<rscale>  0 0.42093097E+01</rscale>
<asrwt>0</asrwt>
<pdfrwt beam="1">0</pdfrwt>
<pdfrwt beam="2">0</pdfrwt>
<totfact> 0.44966790E+11</totfact>
</mgrwt>
</event>
<event>
 4    1  0.1699693E+006  0.5043796E+01  0.7546771E-02  0.2117812E+00
         22   -1    0    0    0    0  0.00000000000E+00  0.00000000000E+00  0.41937685213E+01  0.41937685213E+01  0.00000000000E+00 0.  1.
         22   -1    0    0    0    0 -0.00000000000E+00 -0.00000000000E+00 -0.82027125021E+01  0.82027125021E+01  0.00000000000E+00 0. -1.
          4    1    1    2  501    0 -0.38411880096E+01  0.30120179836E+01  0.11589064161E+01  0.51752238348E+01  0.12700000000E+01 0. -1.
         -4    1    1    2    0  501  0.38411880096E+01 -0.30120179836E+01 -0.51678503969E+01  0.72212571886E+01  0.12700000000E+01 0.  1.
<mgrwt>
<rscale>  0 0.50437960E+01</rscale>
<asrwt>0</asrwt>
<pdfrwt beam="1">0</pdfrwt>
<pdfrwt beam="2">0</pdfrwt>
<totfact> 0.38276077E+11</totfact>
</mgrwt>
</event>
<event>
 4    1  0.1699693E+006  0.3063196E+01  0.7546771E-02  0.2502579E+00
         22   -1    0    0    0    0  0.00000000000E+00  0.00000000000E+00  0.15060713980E+02  0.15060713980E+02  0.00000000000E+00 0.  1.
         22   -1    0    0    0    0 -0.00000000000E+00 -0.00000000000E+00 -0.37587845512E+01  0.37587845512E+01  0.00000000000E+00 0. -1.
          4    1    1    2  501    0  0.12662917705E+01  0.24832992854E+01  0.14245568388E+02  0.14571183510E+02  0.12700000000E+01 0.  1.
         -4    1    1    2    0  501 -0.12662917705E+01 -0.24832992854E+01 -0.29436389597E+01  0.42483150206E+01  0.12700000000E+01 0. -1.
<mgrwt>
<rscale>  0 0.30631961E+01</rscale>
<asrwt>0</asrwt>
<pdfrwt beam="1">0</pdfrwt>
<pdfrwt beam="2">0</pdfrwt>
<totfact> 0.20796241E+11</totfact>
</mgrwt>
</event>
<event>
 4    1  0.1699693E+006  0.5449283E+01  0.7546771E-02  0.2072909E+00
         22   -1    0    0    0    0  0.00000000000E+00  0.00000000000E+00  0.20651233837E+02  0.20651233837E+02  0.00000000000E+00 0. -1.
         22   -1    0    0    0    0 -0.00000000000E+00 -0.00000000000E+00 -0.56858564539E+01  0.56858564539E+01  0.00000000000E+00 0.  1.
          4    1    1    2  501    0  0.14834021202E+01 -0.50873674264E+01  0.18864966630E+02  0.19636233221E+02  0.12700000000E+01 0. -1.
         -4    1    1    2    0  501 -0.14834021202E+01  0.50873674264E+01 -0.38995892463E+01  0.67008570699E+01  0.12700000000E+01 0.  1.
<mgrwt>
<rscale>  0 0.54492834E+01</rscale>
<asrwt>0</asrwt>
<pdfrwt beam="1">0</pdfrwt>
<pdfrwt beam="2">0</pdfrwt>
<totfact> 0.86231159E+10</totfact>
</mgrwt>
</event>
<event>
 4    1  0.1699693E+006  0.2027217E+01  0.7546771E-02  0.2962592E+00
         22   -1    0    0    0    0  0.00000000000E+00  0.00000000000E+00  0.11330506218E+01  0.11330506218E+01  0.00000000000E+00 0. -1.
         22   -1    0    0    0    0 -0.00000000000E+00 -0.00000000000E+00 -0.63868593052E+01  0.63868593052E+01  0.00000000000E+00 0. -1.
          4    1    1    2  501    0 -0.13229217170E+01 -0.86405336790E+00 -0.15529416055E+00  0.20331567495E+01  0.12700000000E+01 0. -1.
         -4    1    1    2    0  501  0.13229217170E+01  0.86405336790E+00 -0.50985145228E+01  0.54867531775E+01  0.12700000000E+01 0. -1.
<mgrwt>
<rscale>  0 0.20272173E+01</rscale>
<asrwt>0</asrwt>
<pdfrwt beam="1">0</pdfrwt>
<pdfrwt beam="2">0</pdfrwt>
<totfact> 0.23572864E+12</totfact>
</mgrwt>
</event>
<event>
 4    1  0.1699693E+006  0.2365011E+01  0.7546771E-02  0.2771209E+00
         22   -1    0    0    0    0  0.00000000000E+00  0.00000000000E+00  0.16623026325E+01  0.16623026325E+01  0.00000000000E+00 0. -1.
         22   -1    0    0    0    0 -0.00000000000E+00 -0.00000000000E+00 -0.80702608306E+01  0.80702608306E+01  0.00000000000E+00 0.  1.
          4    1    1    2  501    0  0.56255375421E+00  0.19141339166E+01  0.51184946754E+00  0.24197655371E+01  0.12700000000E+01 0. -1.
         -4    1    1    2    0  501 -0.56255375421E+00 -0.19141339166E+01 -0.69198076656E+01  0.73127979260E+01  0.12700000000E+01 0.  1.
<mgrwt>
<rscale>  0 0.23650107E+01</rscale>
<asrwt>0</asrwt>
<pdfrwt beam="1">0</pdfrwt>
<pdfrwt beam="2">0</pdfrwt>
<totfact> 0.11471037E+12</totfact>
</mgrwt>
</event>
<event>
 4    1  0.1699693E+006  0.3504269E+01  0.7546771E-02  0.2383420E+00
         22   -1    0    0    0    0  0.00000000000E+00  0.00000000000E+00  0.41037571662E+02  0.41037571662E+02  0.00000000000E+00 0. -1.
         22   -1    0    0    0    0 -0.00000000000E+00 -0.00000000000E+00 -0.33804109254E+00  0.33804109254E+00  0.00000000000E+00 0. -1.
          4    1    1    2  501    0  0.23052635507E+00  0.32578913426E+01  0.27359100609E+02  0.27582608371E+02  0.12700000000E+01 0. -1.
         -4    1    1    2    0  501 -0.23052635507E+00 -0.32578913426E+01  0.13340429960E+02  0.13793004383E+02  0.12700000000E+01 0. -1.
<mgrwt>
<rscale>  0 0.35042686E+01</rscale>
<asrwt>0</asrwt>
<pdfrwt beam="1">0</pdfrwt>
<pdfrwt beam="2">0</pdfrwt>
<totfact> 0.92701699E+11</totfact>
</mgrwt>
</event>
<event>
 4    1  0.1699693E+006  0.2135521E+01  0.7546771E-02  0.2894891E+00
         22   -1    0    0    0    0  0.00000000000E+00  0.00000000000E+00  0.23671889644E+02  0.23671889644E+02  0.00000000000E+00 0. -1.
         22   -1    0    0    0    0 -0.00000000000E+00 -0.00000000000E+00 -0.21168158658E+00  0.21168158658E+00  0.00000000000E+00 0. -1.
          4    1    1    2  501    0 -0.17095332388E+01 -0.15825879294E+00  0.15310542446E+02  0.15458756733E+02  0.12700000000E+01 0. -1.
         -4    1    1    2    0  501  0.17095332388E+01  0.15825879294E+00  0.81496656114E+01  0.84248144975E+01  0.12700000000E+01 0. -1.
<mgrwt>
<rscale>  0 0.21355210E+01</rscale>
<asrwt>0</asrwt>
<pdfrwt beam="1">0</pdfrwt>
<pdfrwt beam="2">0</pdfrwt>
<totfact> 0.31621731E+12</totfact>
</mgrwt>
</event>
<event>
 4    1  0.1699693E+006  0.2008435E+01  0.7546771E-02  0.2975057E+00
         22   -1    0    0    0    0  0.00000000000E+00  0.00000000000E+00  0.43160837652E+01  0.43160837652E+01  0.00000000000E+00 0.  1.
         22   -1    0    0    0    0 -0.00000000000E+00 -0.00000000000E+00 -0.17774706432E+01  0.17774706432E+01  0.00000000000E+00 0. -1.
          4    1    1    2  501    0 -0.10302262633E+01 -0.11659944425E+01  0.33673771892E+01  0.39208466340E+01  0.12700000000E+01 0.  1.
         -4    1    1    2    0  501  0.10302262633E+01  0.11659944425E+01 -0.82876406720E+00  0.21727077743E+01  0.12700000000E+01 0. -1.
<mgrwt>
<rscale>  0 0.20084345E+01</rscale>
<asrwt>0</asrwt>
<pdfrwt beam="1">0</pdfrwt>
<pdfrwt beam="2">0</pdfrwt>
<totfact> 0.22358642E+12</totfact>
</mgrwt>
</event>
<event>
 4    1  0.1699693E+006  0.2630033E+01  0.7546771E-02  0.2653838E+00
         22   -1    0    0    0    0  0.00000000000E+00  0.00000000000E+00  0.22715244627E+02  0.22715244627E+02  0.00000000000E+00 0.  1.
         22   -1    0    0    0    0 -0.00000000000E+00 -0.00000000000E+00 -0.37855082272E+00  0.37855082272E+00  0.00000000000E+00 0.  1.
          4    1    1    2  501    0  0.22607551439E+01 -0.43950187757E+00  0.60617505033E+01  0.66077148005E+01  0.12700000000E+01 0.  1.
         -4    1    1    2    0  501 -0.22607551439E+01  0.43950187757E+00  0.16274943301E+02  0.16486080649E+02  0.12700000000E+01 0.  1.
<mgrwt>
<rscale>  0 0.26300334E+01</rscale>
<asrwt>0</asrwt>
<pdfrwt beam="1">0</pdfrwt>
<pdfrwt beam="2">0</pdfrwt>
<totfact> 0.17365165E+12</totfact>
</mgrwt>
</event>
<event>
 4    1  0.1699693E+006  0.5815257E+01  0.7546771E-02  0.2036663E+00
         22   -1    0    0    0    0  0.00000000000E+00  0.00000000000E+00  0.16298716914E+01  0.16298716914E+01  0.00000000000E+00 0. -1.
         22   -1    0    0    0    0 -0.00000000000E+00 -0.00000000000E+00 -0.29579715185E+02  0.29579715185E+02  0.00000000000E+00 0.  1.
          4    1    1    2  501    0 -0.11953833358E+01 -0.55475552207E+01 -0.54483585035E+01  0.79688029609E+01  0.12700000000E+01 0. -1.
         -4    1    1    2    0  501  0.11953833358E+01  0.55475552207E+01 -0.22501484991E+02  0.23240783916E+02  0.12700000000E+01 0.  1.
<mgrwt>
<rscale>  0 0.58152567E+01</rscale>
<asrwt>0</asrwt>
<pdfrwt beam="1">0</pdfrwt>
<pdfrwt beam="2">0</pdfrwt>
<totfact> 0.23626461E+11</totfact>
</mgrwt>
</event>
<event>
 4    1  0.1699693E+006  0.5973445E+01  0.7546771E-02  0.2022078E+00
         22   -1    0    0    0    0  0.00000000000E+00  0.00000000000E+00  0.81083917709E+01  0.81083917709E+01  0.00000000000E+00 0. -1.
         22   -1    0    0    0    0 -0.00000000000E+00 -0.00000000000E+00 -0.44064930390E+01  0.44064930390E+01  0.00000000000E+00 0.  1.
          4    1    1    2  501    0  0.52668934025E+01 -0.25157456419E+01  0.16227232950E+01  0.61899332096E+01  0.12700000000E+01 0. -1.
         -4    1    1    2    0  501 -0.52668934025E+01  0.25157456419E+01  0.20791754369E+01  0.63249516002E+01  0.12700000000E+01 0.  1.
<mgrwt>
<rscale>  0 0.59734448E+01</rscale>
<asrwt>0</asrwt>
<pdfrwt beam="1">0</pdfrwt>
<pdfrwt beam="2">0</pdfrwt>
<totfact> 0.36612575E+11</totfact>
</mgrwt>
</event>
<event>
 4    1  0.1699693E+006  0.3111191E+01  0.7546771E-02  0.2488169E+00
         22   -1    0    0    0    0  0.00000000000E+00  0.00000000000E+00  0.23302925047E+01  0.23302925047E+01  0.00000000000E+00 0. -1.
         22   -1    0    0    0    0 -0.00000000000E+00 -0.00000000000E+00 -0.43678525310E+01  0.43678525310E+01  0.00000000000E+00 0.  1.
          4    1    1    2  501    0 -0.11905766888E+01 -0.25785918441E+01 -0.27733835824E+00  0.31235277036E+01  0.12700000000E+01 0. -1.
         -4    1    1    2    0  501  0.11905766888E+01  0.25785918441E+01 -0.17602216681E+01  0.35746173321E+01  0.12700000000E+01 0.  1.
<mgrwt>
<rscale>  0 0.31111909E+01</rscale>
<asrwt>0</asrwt>
<pdfrwt beam="1">0</pdfrwt>
<pdfrwt beam="2">0</pdfrwt>
<totfact> 0.16114233E+12</totfact>
</mgrwt>
</event>
<event>
 4    1  0.1699693E+006  0.2287924E+01  0.7546771E-02  0.2810117E+00
         22   -1    0    0    0    0  0.00000000000E+00  0.00000000000E+00  0.10128211049E+02  0.10128211049E+02  0.00000000000E+00 0. -1.
         22   -1    0    0    0    0 -0.00000000000E+00 -0.00000000000E+00 -0.95440976491E+00  0.95440976491E+00  0.00000000000E+00 0. -1.
          4    1    1    2  501    0  0.16800449568E+01  0.89394885939E+00  0.83389805084E+01  0.86471493302E+01  0.12700000000E+01 0. -1.
         -4    1    1    2    0  501 -0.16800449568E+01 -0.89394885939E+00  0.83482077569E+00  0.24354714837E+01  0.12700000000E+01 0. -1.
<mgrwt>
<rscale>  0 0.22879239E+01</rscale>
<asrwt>0</asrwt>
<pdfrwt beam="1">0</pdfrwt>
<pdfrwt beam="2">0</pdfrwt>
<totfact> 0.16479351E+12</totfact>
</mgrwt>
</event>
<event>
 4    1  0.1699693E+006  0.3758145E+01  0.7546771E-02  0.2326055E+00
         22   -1    0    0    0    0  0.00000000000E+00  0.00000000000E+00  0.21970088297E+01  0.21970088297E+01  0.00000000000E+00 0. -1.
         22   -1    0    0    0    0 -0.00000000000E+00 -0.00000000000E+00 -0.26048049052E+02  0.26048049052E+02  0.00000000000E+00 0.  1.
          4    1    1    2  501    0  0.31096279058E+01  0.16855166688E+01  0.33103640472E+00  0.37726962844E+01  0.12700000000E+01 0. -1.
         -4    1    1    2    0  501 -0.31096279058E+01 -0.16855166688E+01 -0.24182076627E+02  0.24472361597E+02  0.12700000000E+01 0.  1.
<mgrwt>
<rscale>  0 0.37581448E+01</rscale>
<asrwt>0</asrwt>
<pdfrwt beam="1">0</pdfrwt>
<pdfrwt beam="2">0</pdfrwt>
<totfact> 0.19657633E+11</totfact>
</mgrwt>
</event>
<event>
 4    1  0.1699693E+006  0.3275817E+01  0.7546771E-02  0.2441604E+00
         22   -1    0    0    0    0  0.00000000000E+00  0.00000000000E+00  0.30443794874E+02  0.30443794874E+02  0.00000000000E+00 0.  1.
         22   -1    0    0    0    0 -0.00000000000E+00 -0.00000000000E+00 -0.58102064692E+00  0.58102064692E+00  0.00000000000E+00 0. -1.
          4    1    1    2  501    0  0.21036377841E+01  0.21662839613E+01  0.24660214444E+02  0.24876839722E+02  0.12700000000E+01 0.  1.
         -4    1    1    2    0  501 -0.21036377841E+01 -0.21662839613E+01  0.52025597827E+01  0.61479757986E+01  0.12700000000E+01 0. -1.
<mgrwt>
<rscale>  0 0.32758172E+01</rscale>
<asrwt>0</asrwt>
<pdfrwt beam="1">0</pdfrwt>
<pdfrwt beam="2">0</pdfrwt>
<totfact> 0.73940277E+11</totfact>
</mgrwt>
</event>
<event>
 4    1  0.1699693E+006  0.1317410E+02  0.7546771E-02  0.1671798E+00
         22   -1    0    0    0    0  0.00000000000E+00  0.00000000000E+00  0.16603956747E+02  0.16603956747E+02  0.00000000000E+00 0. -1.
         22   -1    0    0    0    0 -0.00000000000E+00 -0.00000000000E+00 -0.14031444980E+02  0.14031444980E+02  0.00000000000E+00 0.  1.
          4    1    1    2  501    0  0.11737401354E+02 -0.58461474765E+01  0.90220519522E+01  0.15967290074E+02  0.12700000000E+01 0. -1.
         -4    1    1    2    0  501 -0.11737401354E+02  0.58461474765E+01 -0.64495401854E+01  0.14668111653E+02  0.12700000000E+01 0.  1.
<mgrwt>
<rscale>  0 0.13174101E+02</rscale>
<asrwt>0</asrwt>
<pdfrwt beam="1">0</pdfrwt>
<pdfrwt beam="2">0</pdfrwt>
<totfact> 0.38020131E+10</totfact>
</mgrwt>
</event>
<event>
 4    1  0.1699693E+006  0.2093271E+01  0.7546771E-02  0.2920492E+00
         22   -1    0    0    0    0  0.00000000000E+00  0.00000000000E+00  0.65715948416E+01  0.65715948416E+01  0.00000000000E+00 0.  1.
         22   -1    0    0    0    0 -0.00000000000E+00 -0.00000000000E+00 -0.84412008407E+00  0.84412008407E+00  0.00000000000E+00 0. -1.
          4    1    1    2  501    0  0.10951051042E+01  0.12528473776E+01  0.45632690540E+01  0.50204786824E+01  0.12700000000E+01 0.  1.
         -4    1    1    2    0  501 -0.10951051042E+01 -0.12528473776E+01  0.11642057035E+01  0.23952362432E+01  0.12700000000E+01 0. -1.
<mgrwt>
<rscale>  0 0.20932706E+01</rscale>
<asrwt>0</asrwt>
<pdfrwt beam="1">0</pdfrwt>
<pdfrwt beam="2">0</pdfrwt>
<totfact> 0.31884922E+12</totfact>
</mgrwt>
</event>
<event>
 4    1  0.1699693E+006  0.2307629E+01  0.7546771E-02  0.2799937E+00
         22   -1    0    0    0    0  0.00000000000E+00  0.00000000000E+00  0.31002673360E+02  0.31002673360E+02  0.00000000000E+00 0.  1.
         22   -1    0    0    0    0 -0.00000000000E+00 -0.00000000000E+00 -0.16866728789E+01  0.16866728789E+01  0.00000000000E+00 0.  1.
          4    1    1    2  501    0  0.16869453688E+01  0.93084276459E+00  0.30148093022E+02  0.30236280621E+02  0.12700000000E+01 0.  1.
         -4    1    1    2    0  501 -0.16869453688E+01 -0.93084276459E+00 -0.83209254081E+00  0.24530656180E+01  0.12700000000E+01 0.  1.
<mgrwt>
<rscale>  0 0.23076293E+01</rscale>
<asrwt>0</asrwt>
<pdfrwt beam="1">0</pdfrwt>
<pdfrwt beam="2">0</pdfrwt>
<totfact> 0.21389452E+11</totfact>
</mgrwt>
</event>
<event>
 4    1  0.1699693E+006  0.4722947E+01  0.7546771E-02  0.2157602E+00
         22   -1    0    0    0    0  0.00000000000E+00  0.00000000000E+00  0.78589930900E+02  0.78589930900E+02  0.00000000000E+00 0.  1.
         22   -1    0    0    0    0 -0.00000000000E+00 -0.00000000000E+00 -0.28976014896E+00  0.28976014896E+00  0.00000000000E+00 0. -1.
          4    1    1    2  501    0  0.40214363897E+01  0.21263526737E+01  0.44792008078E+02  0.45040317649E+02  0.12700000000E+01 0.  1.
         -4    1    1    2    0  501 -0.40214363897E+01 -0.21263526737E+01  0.33508162673E+02  0.33839373399E+02  0.12700000000E+01 0. -1.
<mgrwt>
<rscale>  0 0.47229468E+01</rscale>
<asrwt>0</asrwt>
<pdfrwt beam="1">0</pdfrwt>
<pdfrwt beam="2">0</pdfrwt>
<totfact> 0.46331503E+11</totfact>
</mgrwt>
</event>
<event>
 4    1  0.1699693E+006  0.2167963E+01  0.7546771E-02  0.2875888E+00
         22   -1    0    0    0    0  0.00000000000E+00  0.00000000000E+00  0.15122330026E+00  0.15122330026E+00  0.00000000000E+00 0.  1.
         22   -1    0    0    0    0 -0.00000000000E+00 -0.00000000000E+00 -0.58731750612E+02  0.58731750612E+02  0.00000000000E+00 0.  1.
          4    1    1    2  501    0 -0.14471157397E+01 -0.99650382016E+00 -0.49491703106E+02  0.49539163701E+02  0.12700000000E+01 0.  1.
         -4    1    1    2    0  501  0.14471157397E+01  0.99650382016E+00 -0.90888242056E+01  0.93438102114E+01  0.12700000000E+01 0.  1.
<mgrwt>
<rscale>  0 0.21679631E+01</rscale>
<asrwt>0</asrwt>
<pdfrwt beam="1">0</pdfrwt>
<pdfrwt beam="2">0</pdfrwt>
<totfact> 0.14199410E+12</totfact>
</mgrwt>
</event>
<event>
 4    1  0.1699693E+006  0.2316295E+01  0.7546771E-02  0.2795512E+00
         22   -1    0    0    0    0  0.00000000000E+00  0.00000000000E+00  0.47640063657E+02  0.47640063657E+02  0.00000000000E+00 0.  1.
         22   -1    0    0    0    0 -0.00000000000E+00 -0.00000000000E+00 -0.83089427318E+00  0.83089427318E+00  0.00000000000E+00 0.  1.
          4    1    1    2  501    0 -0.45633660223E+00 -0.18825726767E+01  0.45937837345E+02  0.45996196831E+02  0.12700000000E+01 0.  1.
         -4    1    1    2    0  501  0.45633660223E+00  0.18825726767E+01  0.87133203926E+00  0.24747610996E+01  0.12700000000E+01 0.  1.
<mgrwt>
<rscale>  0 0.23162951E+01</rscale>
<asrwt>0</asrwt>
<pdfrwt beam="1">0</pdfrwt>
<pdfrwt beam="2">0</pdfrwt>
<totfact> 0.27598459E+11</totfact>
</mgrwt>
</event>
<event>
 4    1  0.1699693E+006  0.3317965E+01  0.7546771E-02  0.2430342E+00
         22   -1    0    0    0    0  0.00000000000E+00  0.00000000000E+00  0.12414117408E+02  0.12414117408E+02  0.00000000000E+00 0. -1.
         22   -1    0    0    0    0 -0.00000000000E+00 -0.00000000000E+00 -0.21581054582E+01  0.21581054582E+01  0.00000000000E+00 0.  1.
          4    1    1    2  501    0 -0.11137981780E+01 -0.28557738572E+01  0.10720219251E+02  0.11221942412E+02  0.12700000000E+01 0. -1.
         -4    1    1    2    0  501  0.11137981780E+01  0.28557738572E+01 -0.46420730107E+00  0.33502804544E+01  0.12700000000E+01 0.  1.
<mgrwt>
<rscale>  0 0.33179648E+01</rscale>
<asrwt>0</asrwt>
<pdfrwt beam="1">0</pdfrwt>
<pdfrwt beam="2">0</pdfrwt>
<totfact> 0.50356007E+11</totfact>
</mgrwt>
</event>
<event>
 4    1  0.1699693E+006  0.2144950E+01  0.7546771E-02  0.2889312E+00
         22   -1    0    0    0    0  0.00000000000E+00  0.00000000000E+00  0.12744172875E+02  0.12744172875E+02  0.00000000000E+00 0.  1.
         22   -1    0    0    0    0 -0.00000000000E+00 -0.00000000000E+00 -0.10631168335E+01  0.10631168335E+01  0.00000000000E+00 0.  1.
          4    1    1    2  501    0 -0.14246393259E+01  0.97893387121E+00  0.11450861774E+02  0.11650023351E+02  0.12700000000E+01 0.  1.
         -4    1    1    2    0  501  0.14246393259E+01 -0.97893387121E+00  0.23019426760E+00  0.21572663567E+01  0.12700000000E+01 0.  1.
<mgrwt>
<rscale>  0 0.21449496E+01</rscale>
<asrwt>0</asrwt>
<pdfrwt beam="1">0</pdfrwt>
<pdfrwt beam="2">0</pdfrwt>
<totfact> 0.11015767E+12</totfact>
</mgrwt>
</event>
<event>
 4    1  0.1699693E+006  0.2074603E+01  0.7546771E-02  0.2932126E+00
         22   -1    0    0    0    0  0.00000000000E+00  0.00000000000E+00  0.43807802801E+00  0.43807802801E+00  0.00000000000E+00 0.  1.
         22   -1    0    0    0    0 -0.00000000000E+00 -0.00000000000E+00 -0.18229197220E+02  0.18229197220E+02  0.00000000000E+00 0. -1.
          4    1    1    2  501    0  0.15380512415E+01  0.57050464339E+00 -0.25579788392E+01  0.32935137636E+01  0.12700000000E+01 0.  1.
         -4    1    1    2    0  501 -0.15380512415E+01 -0.57050464339E+00 -0.15233140353E+02  0.15373761485E+02  0.12700000000E+01 0. -1.
<mgrwt>
<rscale>  0 0.20746029E+01</rscale>
<asrwt>0</asrwt>
<pdfrwt beam="1">0</pdfrwt>
<pdfrwt beam="2">0</pdfrwt>
<totfact> 0.19385797E+12</totfact>
</mgrwt>
</event>
<event>
 4    1  0.1699693E+006  0.2406662E+01  0.7546771E-02  0.2751167E+00
         22   -1    0    0    0    0  0.00000000000E+00  0.00000000000E+00  0.61228126975E+01  0.61228126975E+01  0.00000000000E+00 0.  1.
         22   -1    0    0    0    0 -0.00000000000E+00 -0.00000000000E+00 -0.17612640400E+01  0.17612640400E+01  0.00000000000E+00 0.  1.
          4    1    1    2  501    0  0.20369073061E+01  0.17358475794E+00 -0.50126177342E+00  0.24583096647E+01  0.12700000000E+01 0.  1.
         -4    1    1    2    0  501 -0.20369073061E+01 -0.17358475794E+00  0.48628104309E+01  0.54257670728E+01  0.12700000000E+01 0.  1.
<mgrwt>
<rscale>  0 0.24066622E+01</rscale>
<asrwt>0</asrwt>
<pdfrwt beam="1">0</pdfrwt>
<pdfrwt beam="2">0</pdfrwt>
<totfact> 0.14931992E+12</totfact>
</mgrwt>
</event>
<event>
 4    1  0.1699693E+006  0.2087449E+01  0.7546771E-02  0.2924099E+00
         22   -1    0    0    0    0  0.00000000000E+00  0.00000000000E+00  0.76342091117E+00  0.76342091117E+00  0.00000000000E+00 0. -1.
         22   -1    0    0    0    0 -0.00000000000E+00 -0.00000000000E+00 -0.66804421804E+01  0.66804421804E+01  0.00000000000E+00 0. -1.
          4    1    1    2  501    0 -0.15246432562E+01 -0.64807892561E+00 -0.15383240562E+01  0.25930453630E+01  0.12700000000E+01 0. -1.
         -4    1    1    2    0  501  0.15246432562E+01  0.64807892561E+00 -0.43786972131E+01  0.48508177286E+01  0.12700000000E+01 0. -1.
<mgrwt>
<rscale>  0 0.20874490E+01</rscale>
<asrwt>0</asrwt>
<pdfrwt beam="1">0</pdfrwt>
<pdfrwt beam="2">0</pdfrwt>
<totfact> 0.35052083E+12</totfact>
</mgrwt>
</event>
<event>
 4    1  0.1699693E+006  0.6192991E+01  0.7546771E-02  0.2002801E+00
         22   -1    0    0    0    0  0.00000000000E+00  0.00000000000E+00  0.47023818540E+00  0.47023818540E+00  0.00000000000E+00 0. -1.
         22   -1    0    0    0    0 -0.00000000000E+00 -0.00000000000E+00 -0.82147803609E+02  0.82147803609E+02  0.00000000000E+00 0.  1.
          4    1    1    2  501    0  0.24412647609E+01 -0.55480147115E+01 -0.37347713167E+02  0.37857691685E+02  0.12700000000E+01 0.  1.
         -4    1    1    2    0  501 -0.24412647609E+01  0.55480147115E+01 -0.44329852257E+02  0.44760350110E+02  0.12700000000E+01 0. -1.
<mgrwt>
<rscale>  0 0.61929913E+01</rscale>
<asrwt>0</asrwt>
<pdfrwt beam="1">0</pdfrwt>
<pdfrwt beam="2">0</pdfrwt>
<totfact> 0.25292858E+11</totfact>
</mgrwt>
</event>
<event>
 4    1  0.1699693E+006  0.2096582E+01  0.7546771E-02  0.2918450E+00
         22   -1    0    0    0    0  0.00000000000E+00  0.00000000000E+00  0.12933236614E+01  0.12933236614E+01  0.00000000000E+00 0. -1.
         22   -1    0    0    0    0 -0.00000000000E+00 -0.00000000000E+00 -0.76229889523E+01  0.76229889523E+01  0.00000000000E+00 0.  1.
          4    1    1    2  501    0 -0.16516043372E+01  0.23443477044E+00  0.15386714078E+00  0.21022206462E+01  0.12700000000E+01 0. -1.
         -4    1    1    2    0  501  0.16516043372E+01 -0.23443477044E+00 -0.64835324316E+01  0.68140919674E+01  0.12700000000E+01 0.  1.
<mgrwt>
<rscale>  0 0.20965821E+01</rscale>
<asrwt>0</asrwt>
<pdfrwt beam="1">0</pdfrwt>
<pdfrwt beam="2">0</pdfrwt>
<totfact> 0.16393731E+12</totfact>
</mgrwt>
</event>
<event>
 4    1  0.1699693E+006  0.2017559E+01  0.7546771E-02  0.2968973E+00
         22   -1    0    0    0    0  0.00000000000E+00  0.00000000000E+00  0.24460799290E+00  0.24460799290E+00  0.00000000000E+00 0. -1.
         22   -1    0    0    0    0 -0.00000000000E+00 -0.00000000000E+00 -0.24747036211E+02  0.24747036211E+02  0.00000000000E+00 0. -1.
          4    1    1    2  501    0  0.15247062204E+01 -0.36457503078E+00 -0.50995838509E+01  0.54841863083E+01  0.12700000000E+01 0. -1.
         -4    1    1    2    0  501 -0.15247062204E+01  0.36457503078E+00 -0.19402844367E+02  0.19507457895E+02  0.12700000000E+01 0. -1.
<mgrwt>
<rscale>  0 0.20175589E+01</rscale>
<asrwt>0</asrwt>
<pdfrwt beam="1">0</pdfrwt>
<pdfrwt beam="2">0</pdfrwt>
<totfact> 0.25440410E+12</totfact>
</mgrwt>
</event>
<event>
 4    1  0.1699693E+006  0.2335254E+01  0.7546771E-02  0.2785940E+00
         22   -1    0    0    0    0  0.00000000000E+00  0.00000000000E+00  0.23737151041E+01  0.23737151041E+01  0.00000000000E+00 0. -1.
         22   -1    0    0    0    0 -0.00000000000E+00 -0.00000000000E+00 -0.51811622392E+01  0.51811622392E+01  0.00000000000E+00 0. -1.
          4    1    1    2  501    0 -0.75871094632E+00 -0.18068950212E+01  0.14144148450E+01  0.27301980279E+01  0.12700000000E+01 0. -1.
         -4    1    1    2    0  501  0.75871094632E+00  0.18068950212E+01 -0.42218619801E+01  0.48246793154E+01  0.12700000000E+01 0. -1.
<mgrwt>
<rscale>  0 0.23352541E+01</rscale>
<asrwt>0</asrwt>
<pdfrwt beam="1">0</pdfrwt>
<pdfrwt beam="2">0</pdfrwt>
<totfact> 0.12888328E+12</totfact>
</mgrwt>
</event>
<event>
 4    1  0.1699693E+006  0.3127157E+01  0.7546771E-02  0.2483463E+00
         22   -1    0    0    0    0  0.00000000000E+00  0.00000000000E+00  0.26169931586E+00  0.26169931586E+00  0.00000000000E+00 0. -1.
         22   -1    0    0    0    0 -0.00000000000E+00 -0.00000000000E+00 -0.53989106017E+02  0.53989106017E+02  0.00000000000E+00 0.  1.
          4    1    1    2  501    0 -0.26312570182E+01  0.11147625675E+01 -0.11813005824E+02  0.12219910625E+02  0.12700000000E+01 0. -1.
         -4    1    1    2    0  501  0.26312570182E+01 -0.11147625675E+01 -0.41914400877E+02  0.42030894708E+02  0.12700000000E+01 0.  1.
<mgrwt>
<rscale>  0 0.31271567E+01</rscale>
<asrwt>0</asrwt>
<pdfrwt beam="1">0</pdfrwt>
<pdfrwt beam="2">0</pdfrwt>
<totfact> 0.86157850E+11</totfact>
</mgrwt>
</event>
<event>
 4    1  0.1699693E+006  0.2009328E+01  0.7546771E-02  0.2974459E+00
         22   -1    0    0    0    0  0.00000000000E+00  0.00000000000E+00  0.22291146488E+00  0.22291146488E+00  0.00000000000E+00 0.  1.
         22   -1    0    0    0    0 -0.00000000000E+00 -0.00000000000E+00 -0.20467281399E+02  0.20467281399E+02  0.00000000000E+00 0. -1.
          4    1    1    2  501    0 -0.61420800431E+00 -0.14308207504E+01 -0.66129319661E+01  0.69114592295E+01  0.12700000000E+01 0.  1.
         -4    1    1    2    0  501  0.61420800431E+00  0.14308207504E+01 -0.13631437968E+02  0.13778733635E+02  0.12700000000E+01 0. -1.
<mgrwt>
<rscale>  0 0.20093281E+01</rscale>
<asrwt>0</asrwt>
<pdfrwt beam="1">0</pdfrwt>
<pdfrwt beam="2">0</pdfrwt>
<totfact> 0.35814047E+12</totfact>
</mgrwt>
</event>
<event>
 4    1  0.1699693E+006  0.2281445E+01  0.7546771E-02  0.2813500E+00
         22   -1    0    0    0    0  0.00000000000E+00  0.00000000000E+00  0.61766002852E+01  0.61766002852E+01  0.00000000000E+00 0.  1.
         22   -1    0    0    0    0 -0.00000000000E+00 -0.00000000000E+00 -0.29156352972E+01  0.29156352972E+01  0.00000000000E+00 0. -1.
          4    1    1    2  501    0  0.10864731196E+00 -0.18921649813E+01  0.54637351155E+01  0.59209284717E+01  0.12700000000E+01 0.  1.
         -4    1    1    2    0  501 -0.10864731196E+00  0.18921649813E+01 -0.22027701275E+01  0.31713071106E+01  0.12700000000E+01 0. -1.
<mgrwt>
<rscale>  0 0.22814453E+01</rscale>
<asrwt>0</asrwt>
<pdfrwt beam="1">0</pdfrwt>
<pdfrwt beam="2">0</pdfrwt>
<totfact> 0.82318540E+11</totfact>
</mgrwt>
</event>
<event>
 4    1  0.1699693E+006  0.2167884E+01  0.7546771E-02  0.2875934E+00
         22   -1    0    0    0    0  0.00000000000E+00  0.00000000000E+00  0.16250817448E+00  0.16250817448E+00  0.00000000000E+00 0. -1.
         22   -1    0    0    0    0 -0.00000000000E+00 -0.00000000000E+00 -0.68488894653E+02  0.68488894653E+02  0.00000000000E+00 0.  1.
          4    1    1    2  501    0 -0.15825462894E+00 -0.17497936785E+01 -0.80724306766E+01  0.83584603530E+01  0.12700000000E+01 0. -1.
         -4    1    1    2    0  501  0.15825462894E+00  0.17497936785E+01 -0.60253955802E+02  0.60292942474E+02  0.12700000000E+01 0.  1.
<mgrwt>
<rscale>  0 0.21678843E+01</rscale>
<asrwt>0</asrwt>
<pdfrwt beam="1">0</pdfrwt>
<pdfrwt beam="2">0</pdfrwt>
<totfact> 0.10659370E+12</totfact>
</mgrwt>
</event>
<event>
 4    1  0.1699693E+006  0.2485628E+01  0.7546771E-02  0.2714900E+00
         22   -1    0    0    0    0  0.00000000000E+00  0.00000000000E+00  0.69471180992E+01  0.69471180992E+01  0.00000000000E+00 0. -1.
         22   -1    0    0    0    0 -0.00000000000E+00 -0.00000000000E+00 -0.19347699574E+01  0.19347699574E+01  0.00000000000E+00 0.  1.
          4    1    1    2  501    0  0.10199778130E+01 -0.18775232005E+01  0.57706100764E+01  0.62831750541E+01  0.12700000000E+01 0. -1.
         -4    1    1    2    0  501 -0.10199778130E+01  0.18775232005E+01 -0.75826193458E+00  0.25987130024E+01  0.12700000000E+01 0.  1.
<mgrwt>
<rscale>  0 0.24856283E+01</rscale>
<asrwt>0</asrwt>
<pdfrwt beam="1">0</pdfrwt>
<pdfrwt beam="2">0</pdfrwt>
<totfact> 0.11521392E+12</totfact>
</mgrwt>
</event>
<event>
 4    1  0.1699693E+006  0.2059619E+01  0.7546771E-02  0.2941612E+00
         22   -1    0    0    0    0  0.00000000000E+00  0.00000000000E+00  0.23635047104E+01  0.23635047104E+01  0.00000000000E+00 0.  1.
         22   -1    0    0    0    0 -0.00000000000E+00 -0.00000000000E+00 -0.31570853752E+01  0.31570853752E+01  0.00000000000E+00 0. -1.
          4    1    1    2  501    0  0.15014595669E+01 -0.61216710207E+00 -0.22099900312E+01  0.30209411332E+01  0.12700000000E+01 0. -1.
         -4    1    1    2    0  501 -0.15014595669E+01  0.61216710207E+00  0.14164093665E+01  0.24996489524E+01  0.12700000000E+01 0.  1.
<mgrwt>
<rscale>  0 0.20596187E+01</rscale>
<asrwt>0</asrwt>
<pdfrwt beam="1">0</pdfrwt>
<pdfrwt beam="2">0</pdfrwt>
<totfact> 0.23206585E+12</totfact>
</mgrwt>
</event>
<event>
 4    1  0.1699693E+006  0.2232245E+01  0.7546771E-02  0.2839804E+00
         22   -1    0    0    0    0  0.00000000000E+00  0.00000000000E+00  0.11588121164E+01  0.11588121164E+01  0.00000000000E+00 0. -1.
         22   -1    0    0    0    0 -0.00000000000E+00 -0.00000000000E+00 -0.46673688735E+01  0.46673688735E+01  0.00000000000E+00 0.  1.
          4    1    1    2  501    0  0.17479096979E+01 -0.56109666737E+00 -0.93702637973E+00  0.24209370538E+01  0.12700000000E+01 0. -1.
         -4    1    1    2    0  501 -0.17479096979E+01  0.56109666737E+00 -0.25715303774E+01  0.34052439360E+01  0.12700000000E+01 0.  1.
<mgrwt>
<rscale>  0 0.22322450E+01</rscale>
<asrwt>0</asrwt>
<pdfrwt beam="1">0</pdfrwt>
<pdfrwt beam="2">0</pdfrwt>
<totfact> 0.33339421E+12</totfact>
</mgrwt>
</event>
<event>
 4    1  0.1699693E+006  0.2016324E+01  0.7546771E-02  0.2969794E+00
         22   -1    0    0    0    0  0.00000000000E+00  0.00000000000E+00  0.14264366994E+02  0.14264366994E+02  0.00000000000E+00 0.  1.
         22   -1    0    0    0    0 -0.00000000000E+00 -0.00000000000E+00 -0.94292727587E+00  0.94292727587E+00  0.00000000000E+00 0. -1.
          4    1    1    2  501    0 -0.19355008361E+00 -0.15540911184E+01  0.13012080846E+02  0.13167376685E+02  0.12700000000E+01 0.  1.
         -4    1    1    2    0  501  0.19355008361E+00  0.15540911184E+01  0.30935887224E+00  0.20399175843E+01  0.12700000000E+01 0. -1.
<mgrwt>
<rscale>  0 0.20163236E+01</rscale>
<asrwt>0</asrwt>
<pdfrwt beam="1">0</pdfrwt>
<pdfrwt beam="2">0</pdfrwt>
<totfact> 0.11003715E+12</totfact>
</mgrwt>
</event>
<event>
 4    1  0.1699693E+006  0.5931877E+01  0.7546771E-02  0.2025851E+00
         22   -1    0    0    0    0  0.00000000000E+00  0.00000000000E+00  0.97823039643E+01  0.97823039643E+01  0.00000000000E+00 0.  1.
         22   -1    0    0    0    0 -0.00000000000E+00 -0.00000000000E+00 -0.52994788944E+01  0.52994788944E+01  0.00000000000E+00 0. -1.
          4    1    1    2  501    0  0.47625870374E+01  0.33003075581E+01  0.65155071487E+01  0.88112994882E+01  0.12700000000E+01 0.  1.
         -4    1    1    2    0  501 -0.47625870374E+01 -0.33003075581E+01 -0.20326820788E+01  0.62704833705E+01  0.12700000000E+01 0. -1.
<mgrwt>
<rscale>  0 0.59318770E+01</rscale>
<asrwt>0</asrwt>
<pdfrwt beam="1">0</pdfrwt>
<pdfrwt beam="2">0</pdfrwt>
<totfact> 0.23471843E+11</totfact>
</mgrwt>
</event>
<event>
 4    1  0.1699693E+006  0.2320161E+01  0.7546771E-02  0.2793549E+00
         22   -1    0    0    0    0  0.00000000000E+00  0.00000000000E+00  0.22268090036E+02  0.22268090036E+02  0.00000000000E+00 0. -1.
         22   -1    0    0    0    0 -0.00000000000E+00 -0.00000000000E+00 -0.55156886630E+00  0.55156886630E+00  0.00000000000E+00 0.  1.
          4    1    1    2  501    0  0.45374519341E+00 -0.18879517457E+01  0.19409683423E+02  0.19547863236E+02  0.12700000000E+01 0. -1.
         -4    1    1    2    0  501 -0.45374519341E+00  0.18879517457E+01  0.23068377463E+01  0.32717956664E+01  0.12700000000E+01 0.  1.
<mgrwt>
<rscale>  0 0.23201609E+01</rscale>
<asrwt>0</asrwt>
<pdfrwt beam="1">0</pdfrwt>
<pdfrwt beam="2">0</pdfrwt>
<totfact> 0.11644789E+12</totfact>
</mgrwt>
</event>
<event>
 4    1  0.1699693E+006  0.2040381E+01  0.7546771E-02  0.2953990E+00
         22   -1    0    0    0    0  0.00000000000E+00  0.00000000000E+00  0.11131087932E+01  0.11131087932E+01  0.00000000000E+00 0.  1.
         22   -1    0    0    0    0 -0.00000000000E+00 -0.00000000000E+00 -0.48161645115E+01  0.48161645115E+01  0.00000000000E+00 0.  1.
          4    1    1    2  501    0 -0.83773956565E+00 -0.13595755843E+01 -0.45020816900E+00  0.20894594384E+01  0.12700000000E+01 0.  1.
         -4    1    1    2    0  501  0.83773956565E+00  0.13595755843E+01 -0.32528475493E+01  0.38398138663E+01  0.12700000000E+01 0.  1.
<mgrwt>
<rscale>  0 0.20403807E+01</rscale>
<asrwt>0</asrwt>
<pdfrwt beam="1">0</pdfrwt>
<pdfrwt beam="2">0</pdfrwt>
<totfact> 0.33637705E+12</totfact>
</mgrwt>
</event>
<event>
 4    1  0.1699693E+006  0.2154448E+01  0.7546771E-02  0.2883738E+00
         22   -1    0    0    0    0  0.00000000000E+00  0.00000000000E+00  0.46066054423E+01  0.46066054423E+01  0.00000000000E+00 0.  1.
         22   -1    0    0    0    0 -0.00000000000E+00 -0.00000000000E+00 -0.75953250496E+01  0.75953250496E+01  0.00000000000E+00 0. -1.
          4    1    1    2  501    0 -0.35923714112E-01 -0.17399581869E+01  0.41875311043E+01  0.47092527809E+01  0.12700000000E+01 0.  1.
         -4    1    1    2    0  501  0.35923714112E-01  0.17399581869E+01 -0.71762507116E+01  0.74926777110E+01  0.12700000000E+01 0. -1.
<mgrwt>
<rscale>  0 0.21544477E+01</rscale>
<asrwt>0</asrwt>
<pdfrwt beam="1">0</pdfrwt>
<pdfrwt beam="2">0</pdfrwt>
<totfact> 0.37575616E+11</totfact>
</mgrwt>
</event>
<event>
 4    1  0.1699693E+006  0.2112148E+01  0.7546771E-02  0.2908931E+00
         22   -1    0    0    0    0  0.00000000000E+00  0.00000000000E+00  0.99511855465E+00  0.99511855465E+00  0.00000000000E+00 0. -1.
         22   -1    0    0    0    0 -0.00000000000E+00 -0.00000000000E+00 -0.44851895131E+01  0.44851895131E+01  0.00000000000E+00 0.  1.
          4    1    1    2  501    0 -0.95436084708E+00  0.13919285956E+01 -0.18048317424E+01  0.27782345941E+01  0.12700000000E+01 0. -1.
         -4    1    1    2    0  501  0.95436084708E+00 -0.13919285956E+01 -0.16852392161E+01  0.27020734736E+01  0.12700000000E+01 0.  1.
<mgrwt>
<rscale>  0 0.21121482E+01</rscale>
<asrwt>0</asrwt>
<pdfrwt beam="1">0</pdfrwt>
<pdfrwt beam="2">0</pdfrwt>
<totfact> 0.41590317E+12</totfact>
</mgrwt>
</event>
<event>
 4    1  0.1699693E+006  0.2034222E+01  0.7546771E-02  0.2958001E+00
         22   -1    0    0    0    0  0.00000000000E+00  0.00000000000E+00  0.52436463316E+01  0.52436463316E+01  0.00000000000E+00 0.  1.
         22   -1    0    0    0    0 -0.00000000000E+00 -0.00000000000E+00 -0.83334346523E+00  0.83334346523E+00  0.00000000000E+00 0. -1.
          4    1    1    2  501    0  0.11463408936E+01  0.11004818039E+01  0.29048218746E+01  0.35462723765E+01  0.12700000000E+01 0. -1.
         -4    1    1    2    0  501 -0.11463408936E+01 -0.11004818039E+01  0.15054809918E+01  0.25307174204E+01  0.12700000000E+01 0. -1.
<mgrwt>
<rscale>  0 0.20342216E+01</rscale>
<asrwt>0</asrwt>
<pdfrwt beam="1">0</pdfrwt>
<pdfrwt beam="2">0</pdfrwt>
<totfact> 0.42321313E+12</totfact>
</mgrwt>
</event>
<event>
 4    1  0.1699693E+006  0.3068594E+01  0.7546771E-02  0.2500938E+00
         22   -1    0    0    0    0  0.00000000000E+00  0.00000000000E+00  0.36413300331E+00  0.36413300331E+00  0.00000000000E+00 0. -1.
         22   -1    0    0    0    0 -0.00000000000E+00 -0.00000000000E+00 -0.26017421873E+02  0.26017421873E+02  0.00000000000E+00 0.  1.
          4    1    1    2  501    0  0.56171971820E+00  0.27363921047E+01 -0.13854565710E+02  0.14190322822E+02  0.12700000000E+01 0. -1.
         -4    1    1    2    0  501 -0.56171971820E+00 -0.27363921047E+01 -0.11798723160E+02  0.12191232054E+02  0.12700000000E+01 0.  1.
<mgrwt>
<rscale>  0 0.30685943E+01</rscale>
<asrwt>0</asrwt>
<pdfrwt beam="1">0</pdfrwt>
<pdfrwt beam="2">0</pdfrwt>
<totfact> 0.15289921E+12</totfact>
</mgrwt>
</event>
<event>
 4    1  0.1699693E+006  0.2930811E+01  0.7546771E-02  0.2544507E+00
         22   -1    0    0    0    0  0.00000000000E+00  0.00000000000E+00  0.10666865422E+01  0.10666865422E+01  0.00000000000E+00 0. -1.
         22   -1    0    0    0    0 -0.00000000000E+00 -0.00000000000E+00 -0.81647365410E+01  0.81647365410E+01  0.00000000000E+00 0.  1.
          4    1    1    2  501    0 -0.21619286290E+01  0.15175028849E+01 -0.30082087633E+01  0.41998774227E+01  0.12700000000E+01 0.  1.
         -4    1    1    2    0  501  0.21619286290E+01 -0.15175028849E+01 -0.40898412355E+01  0.50315456605E+01  0.12700000000E+01 0. -1.
<mgrwt>
<rscale>  0 0.29308105E+01</rscale>
<asrwt>0</asrwt>
<pdfrwt beam="1">0</pdfrwt>
<pdfrwt beam="2">0</pdfrwt>
<totfact> 0.18825041E+12</totfact>
</mgrwt>
</event>
<event>
 4    1  0.1699693E+006  0.2162788E+01  0.7546771E-02  0.2878883E+00
         22   -1    0    0    0    0  0.00000000000E+00  0.00000000000E+00  0.84937562598E-01  0.84937562598E-01  0.00000000000E+00 0. -1.
         22   -1    0    0    0    0 -0.00000000000E+00 -0.00000000000E+00 -0.65230268824E+02  0.65230268824E+02  0.00000000000E+00 0. -1.
          4    1    1    2  501    0 -0.45382788071E+00 -0.16907961934E+01 -0.19684915480E+02  0.19803372161E+02  0.12700000000E+01 0. -1.
         -4    1    1    2    0  501  0.45382788071E+00  0.16907961934E+01 -0.45460415782E+02  0.45511834225E+02  0.12700000000E+01 0. -1.
<mgrwt>
<rscale>  0 0.21627879E+01</rscale>
<asrwt>0</asrwt>
<pdfrwt beam="1">0</pdfrwt>
<pdfrwt beam="2">0</pdfrwt>
<totfact> 0.23377566E+12</totfact>
</mgrwt>
</event>
<event>
 4    1  0.1699693E+006  0.3656361E+01  0.7546771E-02  0.2348225E+00
         22   -1    0    0    0    0  0.00000000000E+00  0.00000000000E+00  0.73413585246E+01  0.73413585246E+01  0.00000000000E+00 0.  1.
         22   -1    0    0    0    0 -0.00000000000E+00 -0.00000000000E+00 -0.22294007720E+01  0.22294007720E+01  0.00000000000E+00 0. -1.
          4    1    1    2  501    0 -0.10895274994E+01 -0.32510006611E+01  0.46040234831E+01  0.58792863260E+01  0.12700000000E+01 0. -1.
         -4    1    1    2    0  501  0.10895274994E+01  0.32510006611E+01  0.50793426954E+00  0.36914729706E+01  0.12700000000E+01 0.  1.
<mgrwt>
<rscale>  0 0.36563610E+01</rscale>
<asrwt>0</asrwt>
<pdfrwt beam="1">0</pdfrwt>
<pdfrwt beam="2">0</pdfrwt>
<totfact> 0.91519970E+11</totfact>
</mgrwt>
</event>
<event>
 4    1  0.1699693E+006  0.3676668E+01  0.7546771E-02  0.2343717E+00
         22   -1    0    0    0    0  0.00000000000E+00  0.00000000000E+00  0.52426750430E+01  0.52426750430E+01  0.00000000000E+00 0.  1.
         22   -1    0    0    0    0 -0.00000000000E+00 -0.00000000000E+00 -0.58902512883E+01  0.58902512883E+01  0.00000000000E+00 0. -1.
          4    1    1    2  501    0  0.27035183872E+01  0.21438233743E+01  0.38501463647E+01  0.53236751741E+01  0.12700000000E+01 0.  1.
         -4    1    1    2    0  501 -0.27035183872E+01 -0.21438233743E+01 -0.44977226100E+01  0.58092511571E+01  0.12700000000E+01 0. -1.
<mgrwt>
<rscale>  0 0.36766684E+01</rscale>
<asrwt>0</asrwt>
<pdfrwt beam="1">0</pdfrwt>
<pdfrwt beam="2">0</pdfrwt>
<totfact> 0.43686801E+11</totfact>
</mgrwt>
</event>
<event>
 4    1  0.1699693E+006  0.2446019E+01  0.7546771E-02  0.2732818E+00
         22   -1    0    0    0    0  0.00000000000E+00  0.00000000000E+00  0.43549462193E+01  0.43549462193E+01  0.00000000000E+00 0. -1.
         22   -1    0    0    0    0 -0.00000000000E+00 -0.00000000000E+00 -0.16132400054E+02  0.16132400054E+02  0.00000000000E+00 0.  1.
          4    1    1    2  501    0 -0.49327063465E+00  0.20314512060E+01  0.39090642416E+01  0.46112680649E+01  0.12700000000E+01 0. -1.
         -4    1    1    2    0  501  0.49327063465E+00 -0.20314512060E+01 -0.15686518077E+02  0.15876078209E+02  0.12700000000E+01 0.  1.
<mgrwt>
<rscale>  0 0.24460192E+01</rscale>
<asrwt>0</asrwt>
<pdfrwt beam="1">0</pdfrwt>
<pdfrwt beam="2">0</pdfrwt>
<totfact> 0.16066169E+11</totfact>
</mgrwt>
</event>
<event>
 4    1  0.1699693E+006  0.7917726E+01  0.7546771E-02  0.1881064E+00
         22   -1    0    0    0    0  0.00000000000E+00  0.00000000000E+00  0.28418514328E+02  0.28418514328E+02  0.00000000000E+00 0. -1.
         22   -1    0    0    0    0 -0.00000000000E+00 -0.00000000000E+00 -0.25133939846E+01  0.25133939846E+01  0.00000000000E+00 0.  1.
          4    1    1    2  501    0  0.42715923142E+01  0.65445381027E+01  0.18361542461E+02  0.19995915118E+02  0.12700000000E+01 0. -1.
         -4    1    1    2    0  501 -0.42715923142E+01 -0.65445381027E+01  0.75435778827E+01  0.10935993194E+02  0.12700000000E+01 0.  1.
<mgrwt>
<rscale>  0 0.79177257E+01</rscale>
<asrwt>0</asrwt>
<pdfrwt beam="1">0</pdfrwt>
<pdfrwt beam="2">0</pdfrwt>
<totfact> 0.15056630E+11</totfact>
</mgrwt>
</event>
<event>
 4    1  0.1699693E+006  0.3637814E+01  0.7546771E-02  0.2352380E+00
         22   -1    0    0    0    0  0.00000000000E+00  0.00000000000E+00  0.19073136153E+02  0.19073136153E+02  0.00000000000E+00 0. -1.
         22   -1    0    0    0    0 -0.00000000000E+00 -0.00000000000E+00 -0.69388413473E+00  0.69388413473E+00  0.00000000000E+00 0.  1.
          4    1    1    2  501    0  0.29230291003E+01  0.17540499525E+01  0.92691227122E+01  0.99574256820E+01  0.12700000000E+01 0. -1.
         -4    1    1    2    0  501 -0.29230291003E+01 -0.17540499525E+01  0.91101293060E+01  0.98095946058E+01  0.12700000000E+01 0. -1.
<mgrwt>
<rscale>  0 0.36378140E+01</rscale>
<asrwt>0</asrwt>
<pdfrwt beam="1">0</pdfrwt>
<pdfrwt beam="2">0</pdfrwt>
<totfact> 0.10894731E+12</totfact>
</mgrwt>
</event>
<event>
 4    1  0.1699693E+006  0.4330034E+01  0.7546771E-02  0.2218323E+00
         22   -1    0    0    0    0  0.00000000000E+00  0.00000000000E+00  0.12753108861E+03  0.12753108861E+03  0.00000000000E+00 0. -1.
         22   -1    0    0    0    0 -0.00000000000E+00 -0.00000000000E+00 -0.53615757208E+00  0.53615757208E+00  0.00000000000E+00 0.  1.
          4    1    1    2  501    0 -0.33644313813E+01 -0.24118246668E+01  0.11805004499E+03  0.11812943037E+03  0.12700000000E+01 0. -1.
         -4    1    1    2    0  501  0.33644313813E+01  0.24118246668E+01  0.89448860394E+01  0.99378158064E+01  0.12700000000E+01 0.  1.
<mgrwt>
<rscale>  0 0.43300343E+01</rscale>
<asrwt>0</asrwt>
<pdfrwt beam="1">0</pdfrwt>
<pdfrwt beam="2">0</pdfrwt>
<totfact> 0.11717063E+11</totfact>
</mgrwt>
</event>
<event>
 4    1  0.1699693E+006  0.2826674E+01  0.7546771E-02  0.2579963E+00
         22   -1    0    0    0    0  0.00000000000E+00  0.00000000000E+00  0.26560312491E+00  0.26560312491E+00  0.00000000000E+00 0. -1.
         22   -1    0    0    0    0 -0.00000000000E+00 -0.00000000000E+00 -0.48414814829E+02  0.48414814829E+02  0.00000000000E+00 0. -1.
          4    1    1    2  501    0  0.53784221701E-01 -0.25247367214E+01 -0.90970774987E+01  0.95261171141E+01  0.12700000000E+01 0. -1.
         -4    1    1    2    0  501 -0.53784221701E-01  0.25247367214E+01 -0.39052134205E+02  0.39154300840E+02  0.12700000000E+01 0. -1.
<mgrwt>
<rscale>  0 0.28266744E+01</rscale>
<asrwt>0</asrwt>
<pdfrwt beam="1">0</pdfrwt>
<pdfrwt beam="2">0</pdfrwt>
<totfact> 0.97863855E+11</totfact>
</mgrwt>
</event>
<event>
 4    1  0.1699693E+006  0.4903543E+01  0.7546771E-02  0.2134696E+00
         22   -1    0    0    0    0  0.00000000000E+00  0.00000000000E+00  0.19795117799E+01  0.19795117799E+01  0.00000000000E+00 0.  1.
         22   -1    0    0    0    0 -0.00000000000E+00 -0.00000000000E+00 -0.68055566838E+02  0.68055566838E+02  0.00000000000E+00 0. -1.
          4    1    1    2  501    0 -0.45623197694E+01 -0.12716422849E+01 -0.12989902394E+01  0.50726828623E+01  0.12700000000E+01 0.  1.
         -4    1    1    2    0  501  0.45623197694E+01  0.12716422849E+01 -0.64777064819E+02  0.64962395756E+02  0.12700000000E+01 0. -1.
<mgrwt>
<rscale>  0 0.49035432E+01</rscale>
<asrwt>0</asrwt>
<pdfrwt beam="1">0</pdfrwt>
<pdfrwt beam="2">0</pdfrwt>
<totfact> 0.63370123E+10</totfact>
</mgrwt>
</event>
<event>
 4    1  0.1699693E+006  0.2142802E+01  0.7546771E-02  0.2890578E+00
         22   -1    0    0    0    0  0.00000000000E+00  0.00000000000E+00  0.38921227847E+01  0.38921227847E+01  0.00000000000E+00 0. -1.
         22   -1    0    0    0    0 -0.00000000000E+00 -0.00000000000E+00 -0.55285526223E+01  0.55285526223E+01  0.00000000000E+00 0.  1.
          4    1    1    2  501    0  0.93410496703E+00  0.14512581517E+01  0.33594425728E+01  0.39846526464E+01  0.12700000000E+01 0. -1.
         -4    1    1    2    0  501 -0.93410496703E+00 -0.14512581517E+01 -0.49958724104E+01  0.54360227606E+01  0.12700000000E+01 0.  1.
<mgrwt>
<rscale>  0 0.21428024E+01</rscale>
<asrwt>0</asrwt>
<pdfrwt beam="1">0</pdfrwt>
<pdfrwt beam="2">0</pdfrwt>
<totfact> 0.66952166E+11</totfact>
</mgrwt>
</event>
<event>
 4    1  0.1699693E+006  0.2937692E+01  0.7546771E-02  0.2542244E+00
         22   -1    0    0    0    0  0.00000000000E+00  0.00000000000E+00  0.47786136906E+00  0.47786136906E+00  0.00000000000E+00 0. -1.
         22   -1    0    0    0    0 -0.00000000000E+00 -0.00000000000E+00 -0.21342220313E+02  0.21342220313E+02  0.00000000000E+00 0.  1.
          4    1    1    2  501    0 -0.20082076700E+00  0.26413639345E+01 -0.61534939804E+01  0.68187623937E+01  0.12700000000E+01 0. -1.
         -4    1    1    2    0  501  0.20082076700E+00 -0.26413639345E+01 -0.14710864963E+02  0.15001319288E+02  0.12700000000E+01 0.  1.
<mgrwt>
<rscale>  0 0.29376917E+01</rscale>
<asrwt>0</asrwt>
<pdfrwt beam="1">0</pdfrwt>
<pdfrwt beam="2">0</pdfrwt>
<totfact> 0.14441926E+12</totfact>
</mgrwt>
</event>
<event>
 4    1  0.1699693E+006  0.2960153E+01  0.7546771E-02  0.2534924E+00
         22   -1    0    0    0    0  0.00000000000E+00  0.00000000000E+00  0.14713495536E+01  0.14713495536E+01  0.00000000000E+00 0.  1.
         22   -1    0    0    0    0 -0.00000000000E+00 -0.00000000000E+00 -0.60328755339E+01  0.60328755339E+01  0.00000000000E+00 0.  1.
          4    1    1    2  501    0  0.10193150767E+01  0.24719628843E+01 -0.27059123059E+01  0.40105442442E+01  0.12700000000E+01 0.  1.
         -4    1    1    2    0  501 -0.10193150767E+01 -0.24719628843E+01 -0.18556136743E+01  0.34936808433E+01  0.12700000000E+01 0.  1.
<mgrwt>
<rscale>  0 0.29601527E+01</rscale>
<asrwt>0</asrwt>
<pdfrwt beam="1">0</pdfrwt>
<pdfrwt beam="2">0</pdfrwt>
<totfact> 0.18697555E+12</totfact>
</mgrwt>
</event>
<event>
 4    1  0.1699693E+006  0.2035388E+01  0.7546771E-02  0.2957240E+00
         22   -1    0    0    0    0  0.00000000000E+00  0.00000000000E+00  0.13252991409E+01  0.13252991409E+01  0.00000000000E+00 0.  1.
         22   -1    0    0    0    0 -0.00000000000E+00 -0.00000000000E+00 -0.57977008457E+01  0.57977008457E+01  0.00000000000E+00 0. -1.
          4    1    1    2  501    0 -0.15531890926E+01  0.34279168498E+00  0.18150814781E+00  0.20434646325E+01  0.12700000000E+01 0. -1.
         -4    1    1    2    0  501  0.15531890926E+01 -0.34279168498E+00 -0.46539098526E+01  0.50795353540E+01  0.12700000000E+01 0. -1.
<mgrwt>
<rscale>  0 0.20353876E+01</rscale>
<asrwt>0</asrwt>
<pdfrwt beam="1">0</pdfrwt>
<pdfrwt beam="2">0</pdfrwt>
<totfact> 0.22103180E+12</totfact>
</mgrwt>
</event>
<event>
 4    1  0.1699693E+006  0.3548388E+01  0.7546771E-02  0.2372941E+00
         22   -1    0    0    0    0  0.00000000000E+00  0.00000000000E+00  0.13975207644E+02  0.13975207644E+02  0.00000000000E+00 0.  1.
         22   -1    0    0    0    0 -0.00000000000E+00 -0.00000000000E+00 -0.24773551010E+01  0.24773551010E+01  0.00000000000E+00 0. -1.
          4    1    1    2  501    0  0.13354865484E+01  0.30322655690E+01  0.12311019613E+02  0.12812191956E+02  0.12700000000E+01 0.  1.
         -4    1    1    2    0  501 -0.13354865484E+01 -0.30322655690E+01 -0.81316706959E+00  0.36403707895E+01  0.12700000000E+01 0. -1.
<mgrwt>
<rscale>  0 0.35483882E+01</rscale>
<asrwt>0</asrwt>
<pdfrwt beam="1">0</pdfrwt>
<pdfrwt beam="2">0</pdfrwt>
<totfact> 0.37112547E+11</totfact>
</mgrwt>
</event>
<event>
 4    1  0.1699693E+006  0.3328804E+01  0.7546771E-02  0.2427486E+00
         22   -1    0    0    0    0  0.00000000000E+00  0.00000000000E+00  0.12252233420E+02  0.12252233420E+02  0.00000000000E+00 0.  1.
         22   -1    0    0    0    0 -0.00000000000E+00 -0.00000000000E+00 -0.25036750400E+01  0.25036750400E+01  0.00000000000E+00 0. -1.
          4    1    1    2  501    0  0.10847869612E+01  0.28794570035E+01  0.10770970388E+02  0.11273630226E+02  0.12700000000E+01 0.  1.
         -4    1    1    2    0  501 -0.10847869612E+01 -0.28794570035E+01 -0.10224120074E+01  0.34822782340E+01  0.12700000000E+01 0. -1.
<mgrwt>
<rscale>  0 0.33288039E+01</rscale>
<asrwt>0</asrwt>
<pdfrwt beam="1">0</pdfrwt>
<pdfrwt beam="2">0</pdfrwt>
<totfact> 0.43062700E+11</totfact>
</mgrwt>
</event>
<event>
 4    1  0.1699693E+006  0.2734050E+01  0.7546771E-02  0.2613550E+00
         22   -1    0    0    0    0  0.00000000000E+00  0.00000000000E+00  0.18751173166E+01  0.18751173166E+01  0.00000000000E+00 0.  1.
         22   -1    0    0    0    0 -0.00000000000E+00 -0.00000000000E+00 -0.43856951360E+01  0.43856951360E+01  0.00000000000E+00 0. -1.
          4    1    1    2  501    0  0.11908512587E+01 -0.21080807789E+01 -0.31077134838E+00  0.27516558872E+01  0.12700000000E+01 0.  1.
         -4    1    1    2    0  501 -0.11908512587E+01  0.21080807789E+01 -0.21998064710E+01  0.35091565654E+01  0.12700000000E+01 0. -1.
<mgrwt>
<rscale>  0 0.27340503E+01</rscale>
<asrwt>0</asrwt>
<pdfrwt beam="1">0</pdfrwt>
<pdfrwt beam="2">0</pdfrwt>
<totfact> 0.20628390E+12</totfact>
</mgrwt>
</event>
<event>
 4    1  0.1699693E+006  0.2223392E+01  0.7546771E-02  0.2844655E+00
         22   -1    0    0    0    0  0.00000000000E+00  0.00000000000E+00  0.10670447371E+01  0.10670447371E+01  0.00000000000E+00 0. -1.
         22   -1    0    0    0    0 -0.00000000000E+00 -0.00000000000E+00 -0.97415499773E+01  0.97415499773E+01  0.00000000000E+00 0. -1.
          4    1    1    2  501    0 -0.18245058892E+01 -0.41853252112E-01 -0.42362231680E+00  0.22633888976E+01  0.12700000000E+01 0. -1.
         -4    1    1    2    0  501  0.18245058892E+01  0.41853252112E-01 -0.82508829234E+01  0.85452058167E+01  0.12700000000E+01 0. -1.
<mgrwt>
<rscale>  0 0.22233923E+01</rscale>
<asrwt>0</asrwt>
<pdfrwt beam="1">0</pdfrwt>
<pdfrwt beam="2">0</pdfrwt>
<totfact> 0.15207769E+12</totfact>
</mgrwt>
</event>
<event>
 4    1  0.1699693E+006  0.2399888E+01  0.7546771E-02  0.2754382E+00
         22   -1    0    0    0    0  0.00000000000E+00  0.00000000000E+00  0.18843089377E+01  0.18843089377E+01  0.00000000000E+00 0. -1.
         22   -1    0    0    0    0 -0.00000000000E+00 -0.00000000000E+00 -0.49957836457E+01  0.49957836457E+01  0.00000000000E+00 0.  1.
          4    1    1    2  501    0  0.20236555553E+01 -0.22667597649E+00  0.58754196520E+00  0.24707629117E+01  0.12700000000E+01 0. -1.
         -4    1    1    2    0  501 -0.20236555553E+01  0.22667597649E+00 -0.36990166732E+01  0.44093296717E+01  0.12700000000E+01 0.  1.
<mgrwt>
<rscale>  0 0.23998883E+01</rscale>
<asrwt>0</asrwt>
<pdfrwt beam="1">0</pdfrwt>
<pdfrwt beam="2">0</pdfrwt>
<totfact> 0.17585382E+12</totfact>
</mgrwt>
</event>
<event>
 4    1  0.1699693E+006  0.2910185E+01  0.7546771E-02  0.2551347E+00
         22   -1    0    0    0    0  0.00000000000E+00  0.00000000000E+00  0.88286211729E+02  0.88286211729E+02  0.00000000000E+00 0.  1.
         22   -1    0    0    0    0 -0.00000000000E+00 -0.00000000000E+00 -0.99057131367E-01  0.99057131367E-01  0.00000000000E+00 0.  1.
          4    1    1    2  501    0 -0.19644380206E+01 -0.17312593982E+01  0.51947286172E+02  0.52028739332E+02  0.12700000000E+01 0.  1.
         -4    1    1    2    0  501  0.19644380206E+01  0.17312593982E+01  0.36239868425E+02  0.36356529528E+02  0.12700000000E+01 0.  1.
<mgrwt>
<rscale>  0 0.29101848E+01</rscale>
<asrwt>0</asrwt>
<pdfrwt beam="1">0</pdfrwt>
<pdfrwt beam="2">0</pdfrwt>
<totfact> 0.13038075E+12</totfact>
</mgrwt>
</event>
<event>
 4    1  0.1699693E+006  0.2416927E+01  0.7546771E-02  0.2746327E+00
         22   -1    0    0    0    0  0.00000000000E+00  0.00000000000E+00  0.11027355325E+00  0.11027355325E+00  0.00000000000E+00 0. -1.
         22   -1    0    0    0    0 -0.00000000000E+00 -0.00000000000E+00 -0.59741994240E+02  0.59741994240E+02  0.00000000000E+00 0.  1.
          4    1    1    2  501    0 -0.46151931494E-01  0.20558471971E+01 -0.19742648840E+02  0.19890040747E+02  0.12700000000E+01 0.  1.
         -4    1    1    2    0  501  0.46151931494E-01 -0.20558471971E+01 -0.39889071846E+02  0.39962227046E+02  0.12700000000E+01 0. -1.
<mgrwt>
<rscale>  0 0.24169273E+01</rscale>
<asrwt>0</asrwt>
<pdfrwt beam="1">0</pdfrwt>
<pdfrwt beam="2">0</pdfrwt>
<totfact> 0.19707185E+12</totfact>
</mgrwt>
</event>
<event>
 4    1  0.1699693E+006  0.2359621E+01  0.7546771E-02  0.2773851E+00
         22   -1    0    0    0    0  0.00000000000E+00  0.00000000000E+00  0.22987116365E+02  0.22987116365E+02  0.00000000000E+00 0.  1.
         22   -1    0    0    0    0 -0.00000000000E+00 -0.00000000000E+00 -0.95110168023E+00  0.95110168023E+00  0.00000000000E+00 0. -1.
          4    1    1    2  501    0 -0.18202608175E+01 -0.80097596560E+00  0.21351257001E+02  0.21481247344E+02  0.12700000000E+01 0.  1.
         -4    1    1    2    0  501  0.18202608175E+01  0.80097596560E+00  0.68475768412E+00  0.24569707013E+01  0.12700000000E+01 0. -1.
<mgrwt>
<rscale>  0 0.23596211E+01</rscale>
<asrwt>0</asrwt>
<pdfrwt beam="1">0</pdfrwt>
<pdfrwt beam="2">0</pdfrwt>
<totfact> 0.60263518E+11</totfact>
</mgrwt>
</event>
<event>
 4    1  0.1699693E+006  0.2137284E+01  0.7546771E-02  0.2893845E+00
         22   -1    0    0    0    0  0.00000000000E+00  0.00000000000E+00  0.65059325105E+00  0.65059325105E+00  0.00000000000E+00 0. -1.
         22   -1    0    0    0    0 -0.00000000000E+00 -0.00000000000E+00 -0.72957557943E+01  0.72957557943E+01  0.00000000000E+00 0.  1.
          4    1    1    2  501    0 -0.10169824506E+01 -0.13859396104E+01 -0.40932599390E+01  0.46176572888E+01  0.12700000000E+01 0. -1.
         -4    1    1    2    0  501  0.10169824506E+01  0.13859396104E+01 -0.25519026043E+01  0.33286917566E+01  0.12700000000E+01 0. -1.
<mgrwt>
<rscale>  0 0.21372838E+01</rscale>
<asrwt>0</asrwt>
<pdfrwt beam="1">0</pdfrwt>
<pdfrwt beam="2">0</pdfrwt>
<totfact> 0.37826898E+12</totfact>
</mgrwt>
</event>
<event>
 4    1  0.1699693E+006  0.2313758E+01  0.7546771E-02  0.2796804E+00
         22   -1    0    0    0    0  0.00000000000E+00  0.00000000000E+00  0.48304343070E+02  0.48304343070E+02  0.00000000000E+00 0.  1.
         22   -1    0    0    0    0 -0.00000000000E+00 -0.00000000000E+00 -0.13256216594E+00  0.13256216594E+00  0.00000000000E+00 0. -1.
          4    1    1    2  501    0  0.10510879974E+01  0.16235121099E+01  0.33892238334E+02  0.33971124456E+02  0.12700000000E+01 0.  1.
         -4    1    1    2    0  501 -0.10510879974E+01 -0.16235121099E+01  0.14279542571E+02  0.14465780780E+02  0.12700000000E+01 0. -1.
<mgrwt>
<rscale>  0 0.23137583E+01</rscale>
<asrwt>0</asrwt>
<pdfrwt beam="1">0</pdfrwt>
<pdfrwt beam="2">0</pdfrwt>
<totfact> 0.21299113E+12</totfact>
</mgrwt>
</event>
<event>
 4    1  0.1699693E+006  0.2163988E+01  0.7546771E-02  0.2878188E+00
         22   -1    0    0    0    0  0.00000000000E+00  0.00000000000E+00  0.98628876329E-01  0.98628876329E-01  0.00000000000E+00 0.  1.
         22   -1    0    0    0    0 -0.00000000000E+00 -0.00000000000E+00 -0.48272322458E+02  0.48272322458E+02  0.00000000000E+00 0. -1.
          4    1    1    2  501    0  0.17517509013E+01  0.36210714524E-01 -0.20987188835E+02  0.21098458181E+02  0.12700000000E+01 0. -1.
         -4    1    1    2    0  501 -0.17517509013E+01 -0.36210714524E-01 -0.27186504747E+02  0.27272493153E+02  0.12700000000E+01 0.  1.
<mgrwt>
<rscale>  0 0.21639876E+01</rscale>
<asrwt>0</asrwt>
<pdfrwt beam="1">0</pdfrwt>
<pdfrwt beam="2">0</pdfrwt>
<totfact> 0.29585567E+12</totfact>
</mgrwt>
</event>
<event>
 4    1  0.1699693E+006  0.2368164E+01  0.7546771E-02  0.2769669E+00
         22   -1    0    0    0    0  0.00000000000E+00  0.00000000000E+00  0.20341202845E+01  0.20341202845E+01  0.00000000000E+00 0.  1.
         22   -1    0    0    0    0 -0.00000000000E+00 -0.00000000000E+00 -0.13940086661E+02  0.13940086661E+02  0.00000000000E+00 0.  1.
          4    1    1    2  501    0  0.17156522227E+01 -0.10255921135E+01  0.12008063302E+01  0.26552095162E+01  0.12700000000E+01 0.  1.
         -4    1    1    2    0  501 -0.17156522227E+01  0.10255921135E+01 -0.13106772706E+02  0.13318997429E+02  0.12700000000E+01 0.  1.
<mgrwt>
<rscale>  0 0.23681642E+01</rscale>
<asrwt>0</asrwt>
<pdfrwt beam="1">0</pdfrwt>
<pdfrwt beam="2">0</pdfrwt>
<totfact> 0.46793342E+11</totfact>
</mgrwt>
</event>
<event>
 4    1  0.1699693E+006  0.2877920E+01  0.7546771E-02  0.2562225E+00
         22   -1    0    0    0    0  0.00000000000E+00  0.00000000000E+00  0.10780659035E+02  0.10780659035E+02  0.00000000000E+00 0. -1.
         22   -1    0    0    0    0 -0.00000000000E+00 -0.00000000000E+00 -0.11345675933E+01  0.11345675933E+01  0.00000000000E+00 0.  1.
          4    1    1    2  501    0 -0.20033921872E+01 -0.16297068183E+01  0.82081802717E+01  0.86980830038E+01  0.12700000000E+01 0. -1.
         -4    1    1    2    0  501  0.20033921872E+01  0.16297068183E+01  0.14379111703E+01  0.32171436249E+01  0.12700000000E+01 0.  1.
<mgrwt>
<rscale>  0 0.28779202E+01</rscale>
<asrwt>0</asrwt>
<pdfrwt beam="1">0</pdfrwt>
<pdfrwt beam="2">0</pdfrwt>
<totfact> 0.12538857E+12</totfact>
</mgrwt>
</event>
<event>
 4    1  0.1699693E+006  0.2198832E+01  0.7546771E-02  0.2858308E+00
         22   -1    0    0    0    0  0.00000000000E+00  0.00000000000E+00  0.18956380019E+01  0.18956380019E+01  0.00000000000E+00 0.  1.
         22   -1    0    0    0    0 -0.00000000000E+00 -0.00000000000E+00 -0.38417499201E+01  0.38417499201E+01  0.00000000000E+00 0. -1.
          4    1    1    2  501    0  0.16583436914E+01  0.68692008314E+00  0.69005579115E+00  0.23045693728E+01  0.12700000000E+01 0.  1.
         -4    1    1    2    0  501 -0.16583436914E+01 -0.68692008314E+00 -0.26361677094E+01  0.34328185492E+01  0.12700000000E+01 0. -1.
<mgrwt>
<rscale>  0 0.21988322E+01</rscale>
<asrwt>0</asrwt>
<pdfrwt beam="1">0</pdfrwt>
<pdfrwt beam="2">0</pdfrwt>
<totfact> 0.23806700E+12</totfact>
</mgrwt>
</event>
<event>
 4    1  0.1699693E+006  0.2481870E+01  0.7546771E-02  0.2716577E+00
         22   -1    0    0    0    0  0.00000000000E+00  0.00000000000E+00  0.13249802197E+01  0.13249802197E+01  0.00000000000E+00 0.  1.
         22   -1    0    0    0    0 -0.00000000000E+00 -0.00000000000E+00 -0.71193764350E+01  0.71193764350E+01  0.00000000000E+00 0. -1.
          4    1    1    2  501    0  0.79225552245E+00  0.19796746228E+01 -0.41001770984E+00  0.25155108721E+01  0.12700000000E+01 0. -1.
         -4    1    1    2    0  501 -0.79225552245E+00 -0.19796746228E+01 -0.53843785054E+01  0.59288457826E+01  0.12700000000E+01 0. -1.
<mgrwt>
<rscale>  0 0.24818703E+01</rscale>
<asrwt>0</asrwt>
<pdfrwt beam="1">0</pdfrwt>
<pdfrwt beam="2">0</pdfrwt>
<totfact> 0.17306860E+12</totfact>
</mgrwt>
</event>
<event>
 4    1  0.1699693E+006  0.2082348E+01  0.7546771E-02  0.2927274E+00
         22   -1    0    0    0    0  0.00000000000E+00  0.00000000000E+00  0.78920376589E+01  0.78920376589E+01  0.00000000000E+00 0. -1.
         22   -1    0    0    0    0 -0.00000000000E+00 -0.00000000000E+00 -0.55289228875E+00  0.55289228875E+00  0.00000000000E+00 0. -1.
          4    1    1    2  501    0  0.15433503738E+01  0.58424614574E+00  0.33357496438E+01  0.39323529370E+01  0.12700000000E+01 0. -1.
         -4    1    1    2    0  501 -0.15433503738E+01 -0.58424614574E+00  0.40033957263E+01  0.45125770106E+01  0.12700000000E+01 0. -1.
<mgrwt>
<rscale>  0 0.20823482E+01</rscale>
<asrwt>0</asrwt>
<pdfrwt beam="1">0</pdfrwt>
<pdfrwt beam="2">0</pdfrwt>
<totfact> 0.41390244E+12</totfact>
</mgrwt>
</event>
<event>
 4    1  0.1699693E+006  0.2050670E+01  0.7546771E-02  0.2947342E+00
         22   -1    0    0    0    0  0.00000000000E+00  0.00000000000E+00  0.20791311236E+00  0.20791311236E+00  0.00000000000E+00 0.  1.
         22   -1    0    0    0    0 -0.00000000000E+00 -0.00000000000E+00 -0.22145979013E+02  0.22145979013E+02  0.00000000000E+00 0.  1.
          4    1    1    2  501    0 -0.18347656372E+00  0.15995881215E+01 -0.76780429212E+01  0.79471749011E+01  0.12700000000E+01 0.  1.
         -4    1    1    2    0  501  0.18347656372E+00 -0.15995881215E+01 -0.14260022979E+02  0.14406717224E+02  0.12700000000E+01 0.  1.
<mgrwt>
<rscale>  0 0.20506696E+01</rscale>
<asrwt>0</asrwt>
<pdfrwt beam="1">0</pdfrwt>
<pdfrwt beam="2">0</pdfrwt>
<totfact> 0.35076279E+12</totfact>
</mgrwt>
</event>
<event>
 4    1  0.1699693E+006  0.2991943E+01  0.7546771E-02  0.2524732E+00
         22   -1    0    0    0    0  0.00000000000E+00  0.00000000000E+00  0.35684787558E+01  0.35684787558E+01  0.00000000000E+00 0. -1.
         22   -1    0    0    0    0 -0.00000000000E+00 -0.00000000000E+00 -0.25503590807E+01  0.25503590807E+01  0.00000000000E+00 0.  1.
          4    1    1    2  501    0  0.21144662600E+01 -0.16934734896E+01  0.90076129819E+00  0.31245945242E+01  0.12700000000E+01 0.  1.
         -4    1    1    2    0  501 -0.21144662600E+01  0.16934734896E+01  0.11735837699E+00  0.29942433123E+01  0.12700000000E+01 0. -1.
<mgrwt>
<rscale>  0 0.29919425E+01</rscale>
<asrwt>0</asrwt>
<pdfrwt beam="1">0</pdfrwt>
<pdfrwt beam="2">0</pdfrwt>
<totfact> 0.18404097E+12</totfact>
</mgrwt>
</event>
<event>
 4    1  0.1699693E+006  0.2096552E+01  0.7546771E-02  0.2918468E+00
         22   -1    0    0    0    0  0.00000000000E+00  0.00000000000E+00  0.52099539961E+02  0.52099539961E+02  0.00000000000E+00 0.  1.
         22   -1    0    0    0    0 -0.00000000000E+00 -0.00000000000E+00 -0.13693786528E+00  0.13693786528E+00  0.00000000000E+00 0.  1.
          4    1    1    2  501    0  0.16077468525E+01  0.44472634247E+00  0.42163992206E+02  0.42216084259E+02  0.12700000000E+01 0.  1.
         -4    1    1    2    0  501 -0.16077468525E+01 -0.44472634247E+00  0.97986098901E+01  0.10020393567E+02  0.12700000000E+01 0.  1.
<mgrwt>
<rscale>  0 0.20965523E+01</rscale>
<asrwt>0</asrwt>
<pdfrwt beam="1">0</pdfrwt>
<pdfrwt beam="2">0</pdfrwt>
<totfact> 0.18592566E+12</totfact>
</mgrwt>
</event>
<event>
 4    1  0.1699693E+006  0.2089335E+01  0.7546771E-02  0.2922928E+00
         22   -1    0    0    0    0  0.00000000000E+00  0.00000000000E+00  0.33869719549E+00  0.33869719549E+00  0.00000000000E+00 0.  1.
         22   -1    0    0    0    0 -0.00000000000E+00 -0.00000000000E+00 -0.17077528224E+02  0.17077528224E+02  0.00000000000E+00 0. -1.
          4    1    1    2  501    0  0.38994549464E+00  0.16125646361E+01 -0.40565630790E+01  0.45630062687E+01  0.12700000000E+01 0.  1.
         -4    1    1    2    0  501 -0.38994549464E+00 -0.16125646361E+01 -0.12682267949E+02  0.12853219150E+02  0.12700000000E+01 0. -1.
<mgrwt>
<rscale>  0 0.20893353E+01</rscale>
<asrwt>0</asrwt>
<pdfrwt beam="1">0</pdfrwt>
<pdfrwt beam="2">0</pdfrwt>
<totfact> 0.28075705E+12</totfact>
</mgrwt>
</event>
<event>
 4    1  0.1699693E+006  0.2113817E+01  0.7546771E-02  0.2907919E+00
         22   -1    0    0    0    0  0.00000000000E+00  0.00000000000E+00  0.20368780920E+01  0.20368780920E+01  0.00000000000E+00 0.  1.
         22   -1    0    0    0    0 -0.00000000000E+00 -0.00000000000E+00 -0.26612914887E+01  0.26612914887E+01  0.00000000000E+00 0. -1.
          4    1    1    2  501    0 -0.14090183282E+00 -0.16838848531E+01  0.67249239810E+00  0.22182126928E+01  0.12700000000E+01 0. -1.
         -4    1    1    2    0  501  0.14090183282E+00  0.16838848531E+01 -0.12969057949E+01  0.24799568879E+01  0.12700000000E+01 0.  1.
<mgrwt>
<rscale>  0 0.21138168E+01</rscale>
<asrwt>0</asrwt>
<pdfrwt beam="1">0</pdfrwt>
<pdfrwt beam="2">0</pdfrwt>
<totfact> 0.33661478E+12</totfact>
</mgrwt>
</event>
<event>
 4    1  0.1699693E+006  0.2791641E+01  0.7546771E-02  0.2592428E+00
         22   -1    0    0    0    0  0.00000000000E+00  0.00000000000E+00  0.36168127147E+02  0.36168127147E+02  0.00000000000E+00 0.  1.
         22   -1    0    0    0    0 -0.00000000000E+00 -0.00000000000E+00 -0.41252639287E+00  0.41252639287E+00  0.00000000000E+00 0. -1.
          4    1    1    2  501    0 -0.45899420294E+00  0.24432930876E+01  0.30518976861E+02  0.30646389761E+02  0.12700000000E+01 0.  1.
         -4    1    1    2    0  501  0.45899420294E+00 -0.24432930876E+01  0.52366238934E+01  0.59342637783E+01  0.12700000000E+01 0. -1.
<mgrwt>
<rscale>  0 0.27916405E+01</rscale>
<asrwt>0</asrwt>
<pdfrwt beam="1">0</pdfrwt>
<pdfrwt beam="2">0</pdfrwt>
<totfact> 0.87265685E+11</totfact>
</mgrwt>
</event>
<event>
 4    1  0.1699693E+006  0.2123233E+01  0.7546771E-02  0.2902235E+00
         22   -1    0    0    0    0  0.00000000000E+00  0.00000000000E+00  0.56432267711E+01  0.56432267711E+01  0.00000000000E+00 0. -1.
         22   -1    0    0    0    0 -0.00000000000E+00 -0.00000000000E+00 -0.13970699726E+01  0.13970699726E+01  0.00000000000E+00 0.  1.
          4    1    1    2  501    0 -0.54166799140E+00 -0.16130143612E+01  0.44265377555E+01  0.49094150408E+01  0.12700000000E+01 0. -1.
         -4    1    1    2    0  501  0.54166799140E+00  0.16130143612E+01 -0.18038095698E+00  0.21308817030E+01  0.12700000000E+01 0.  1.
<mgrwt>
<rscale>  0 0.21232333E+01</rscale>
<asrwt>0</asrwt>
<pdfrwt beam="1">0</pdfrwt>
<pdfrwt beam="2">0</pdfrwt>
<totfact> 0.21483411E+12</totfact>
</mgrwt>
</event>
<event>
 4    1  0.1699693E+006  0.2833053E+01  0.7546771E-02  0.2577723E+00
         22   -1    0    0    0    0  0.00000000000E+00  0.00000000000E+00  0.18873849097E+01  0.18873849097E+01  0.00000000000E+00 0. -1.
         22   -1    0    0    0    0 -0.00000000000E+00 -0.00000000000E+00 -0.45884701707E+01  0.45884701707E+01  0.00000000000E+00 0.  1.
          4    1    1    2  501    0  0.22952782296E+01 -0.10700405423E+01 -0.47444085255E+00  0.28725046625E+01  0.12700000000E+01 0. -1.
         -4    1    1    2    0  501 -0.22952782296E+01  0.10700405423E+01 -0.22266444084E+01  0.36033504180E+01  0.12700000000E+01 0.  1.
<mgrwt>
<rscale>  0 0.28330529E+01</rscale>
<asrwt>0</asrwt>
<pdfrwt beam="1">0</pdfrwt>
<pdfrwt beam="2">0</pdfrwt>
<totfact> 0.19409865E+12</totfact>
</mgrwt>
</event>
<event>
 4    1  0.1699693E+006  0.2198603E+01  0.7546771E-02  0.2858437E+00
         22   -1    0    0    0    0  0.00000000000E+00  0.00000000000E+00  0.36074732075E+02  0.36074732075E+02  0.00000000000E+00 0.  1.
         22   -1    0    0    0    0 -0.00000000000E+00 -0.00000000000E+00 -0.23057476194E+01  0.23057476194E+01  0.00000000000E+00 0. -1.
          4    1    1    2  501    0 -0.37133230306E+00  0.17558670428E+01  0.35508778198E+02  0.35576778745E+02  0.12700000000E+01 0.  1.
         -4    1    1    2    0  501  0.37133230306E+00 -0.17558670428E+01 -0.17397937420E+01  0.28037009499E+01  0.12700000000E+01 0. -1.
<mgrwt>
<rscale>  0 0.21986034E+01</rscale>
<asrwt>0</asrwt>
<pdfrwt beam="1">0</pdfrwt>
<pdfrwt beam="2">0</pdfrwt>
<totfact> 0.12264620E+11</totfact>
</mgrwt>
</event>
<event>
 4    1  0.1699693E+006  0.2509927E+01  0.7546771E-02  0.2704170E+00
         22   -1    0    0    0    0  0.00000000000E+00  0.00000000000E+00  0.66937846162E+02  0.66937846162E+02  0.00000000000E+00 0.  1.
         22   -1    0    0    0    0 -0.00000000000E+00 -0.00000000000E+00 -0.32711186895E+00  0.32711186895E+00  0.00000000000E+00 0. -1.
          4    1    1    2  501    0 -0.10865220791E+01 -0.18725124815E+01  0.61690273918E+02  0.61741312176E+02  0.12700000000E+01 0.  1.
         -4    1    1    2    0  501  0.10865220791E+01  0.18725124815E+01  0.49204603757E+01  0.55236458549E+01  0.12700000000E+01 0. -1.
<mgrwt>
<rscale>  0 0.25099269E+01</rscale>
<asrwt>0</asrwt>
<pdfrwt beam="1">0</pdfrwt>
<pdfrwt beam="2">0</pdfrwt>
<totfact> 0.50313145E+11</totfact>
</mgrwt>
</event>
<event>
 4    1  0.1699693E+006  0.3906605E+01  0.7546771E-02  0.2295511E+00
         22   -1    0    0    0    0  0.00000000000E+00  0.00000000000E+00  0.32894505284E+01  0.32894505284E+01  0.00000000000E+00 0. -1.
         22   -1    0    0    0    0 -0.00000000000E+00 -0.00000000000E+00 -0.67747190971E+01  0.67747190971E+01  0.00000000000E+00 0.  1.
          4    1    1    2  501    0 -0.87295306650E+00 -0.35897936436E+01  0.10823666129E+01  0.40537739138E+01  0.12700000000E+01 0. -1.
         -4    1    1    2    0  501  0.87295306650E+00  0.35897936436E+01 -0.45676351815E+01  0.60103957117E+01  0.12700000000E+01 0.  1.
<mgrwt>
<rscale>  0 0.39066054E+01</rscale>
<asrwt>0</asrwt>
<pdfrwt beam="1">0</pdfrwt>
<pdfrwt beam="2">0</pdfrwt>
<totfact> 0.64029053E+11</totfact>
</mgrwt>
</event>
<event>
 4    1  0.1699693E+006  0.2143351E+01  0.7546771E-02  0.2890254E+00
         22   -1    0    0    0    0  0.00000000000E+00  0.00000000000E+00  0.78230827910E-01  0.78230827910E-01  0.00000000000E+00 0. -1.
         22   -1    0    0    0    0 -0.00000000000E+00 -0.00000000000E+00 -0.58866230859E+02  0.58866230859E+02  0.00000000000E+00 0.  1.
          4    1    1    2  501    0  0.16860413294E+01 -0.37191308638E+00 -0.27940598042E+02  0.28022686768E+02  0.12700000000E+01 0. -1.
         -4    1    1    2    0  501 -0.16860413294E+01  0.37191308638E+00 -0.30847401988E+02  0.30921774919E+02  0.12700000000E+01 0. -1.
<mgrwt>
<rscale>  0 0.21433513E+01</rscale>
<asrwt>0</asrwt>
<pdfrwt beam="1">0</pdfrwt>
<pdfrwt beam="2">0</pdfrwt>
<totfact> 0.29382979E+12</totfact>
</mgrwt>
</event>
<event>
 4    1  0.1699693E+006  0.5167776E+01  0.7546771E-02  0.2103494E+00
         22   -1    0    0    0    0  0.00000000000E+00  0.00000000000E+00  0.12730316054E+01  0.12730316054E+01  0.00000000000E+00 0. -1.
         22   -1    0    0    0    0 -0.00000000000E+00 -0.00000000000E+00 -0.20998192320E+02  0.20998192320E+02  0.00000000000E+00 0. -1.
          4    1    1    2  501    0 -0.80467322941E+00 -0.49442400899E+01 -0.95189618873E+01  0.10831276217E+02  0.12700000000E+01 0. -1.
         -4    1    1    2    0  501  0.80467322941E+00  0.49442400899E+01 -0.10206198827E+02  0.11439947709E+02  0.12700000000E+01 0. -1.
<mgrwt>
<rscale>  0 0.51677760E+01</rscale>
<asrwt>0</asrwt>
<pdfrwt beam="1">0</pdfrwt>
<pdfrwt beam="2">0</pdfrwt>
<totfact> 0.48359354E+11</totfact>
</mgrwt>
</event>
<event>
 4    1  0.1699693E+006  0.2368257E+01  0.7546771E-02  0.2769623E+00
         22   -1    0    0    0    0  0.00000000000E+00  0.00000000000E+00  0.37943307628E+01  0.37943307628E+01  0.00000000000E+00 0. -1.
         22   -1    0    0    0    0 -0.00000000000E+00 -0.00000000000E+00 -0.15045917124E+01  0.15045917124E+01  0.00000000000E+00 0.  1.
          4    1    1    2  501    0 -0.53973194743E+00  0.19246898318E+01  0.14960105069E+01  0.28011942025E+01  0.12700000000E+01 0.  1.
         -4    1    1    2    0  501  0.53973194743E+00 -0.19246898318E+01  0.79372854354E+00  0.24977282727E+01  0.12700000000E+01 0. -1.
<mgrwt>
<rscale>  0 0.23682571E+01</rscale>
<asrwt>0</asrwt>
<pdfrwt beam="1">0</pdfrwt>
<pdfrwt beam="2">0</pdfrwt>
<totfact> 0.31533854E+12</totfact>
</mgrwt>
</event>
<event>
 4    1  0.1699693E+006  0.3169389E+01  0.7546771E-02  0.2471218E+00
         22   -1    0    0    0    0  0.00000000000E+00  0.00000000000E+00  0.15224370018E+02  0.15224370018E+02  0.00000000000E+00 0.  1.
         22   -1    0    0    0    0 -0.00000000000E+00 -0.00000000000E+00 -0.66012443240E+00  0.66012443240E+00  0.00000000000E+00 0.  1.
          4    1    1    2  501    0  0.24481807293E+01  0.15615808150E+01  0.74584773514E+01  0.81039439736E+01  0.12700000000E+01 0.  1.
         -4    1    1    2    0  501 -0.24481807293E+01 -0.15615808150E+01  0.71057682341E+01  0.77805504768E+01  0.12700000000E+01 0.  1.
<mgrwt>
<rscale>  0 0.31693885E+01</rscale>
<asrwt>0</asrwt>
<pdfrwt beam="1">0</pdfrwt>
<pdfrwt beam="2">0</pdfrwt>
<totfact> 0.15238202E+12</totfact>
</mgrwt>
</event>
<event>
 4    1  0.1699693E+006  0.2187269E+01  0.7546771E-02  0.2864837E+00
         22   -1    0    0    0    0  0.00000000000E+00  0.00000000000E+00  0.13339042606E+02  0.13339042606E+02  0.00000000000E+00 0. -1.
         22   -1    0    0    0    0 -0.00000000000E+00 -0.00000000000E+00 -0.24254706793E+01  0.24254706793E+01  0.00000000000E+00 0.  1.
          4    1    1    2  501    0  0.17805839630E+01  0.27719517336E-01  0.12732961508E+02  0.12919460375E+02  0.12700000000E+01 0. -1.
         -4    1    1    2    0  501 -0.17805839630E+01 -0.27719517336E-01 -0.18193895805E+01  0.28450529110E+01  0.12700000000E+01 0.  1.
<mgrwt>
<rscale>  0 0.21872694E+01</rscale>
<asrwt>0</asrwt>
<pdfrwt beam="1">0</pdfrwt>
<pdfrwt beam="2">0</pdfrwt>
<totfact> 0.40269366E+11</totfact>
</mgrwt>
</event>
<event>
 4    1  0.1699693E+006  0.2589444E+01  0.7546771E-02  0.2670364E+00
         22   -1    0    0    0    0  0.00000000000E+00  0.00000000000E+00  0.74542751899E+01  0.74542751899E+01  0.00000000000E+00 0. -1.
         22   -1    0    0    0    0 -0.00000000000E+00 -0.00000000000E+00 -0.10857538326E+01  0.10857538326E+01  0.00000000000E+00 0. -1.
          4    1    1    2  501    0  0.22327586063E+01  0.32727178174E+00  0.49527443697E+01  0.55888187129E+01  0.12700000000E+01 0. -1.
         -4    1    1    2    0  501 -0.22327586063E+01 -0.32727178174E+00  0.14157769876E+01  0.29512103097E+01  0.12700000000E+01 0. -1.
<mgrwt>
<rscale>  0 0.25894435E+01</rscale>
<asrwt>0</asrwt>
<pdfrwt beam="1">0</pdfrwt>
<pdfrwt beam="2">0</pdfrwt>
<totfact> 0.20577475E+12</totfact>
</mgrwt>
</event>
<event>
 4    1  0.1699693E+006  0.2277546E+01  0.7546771E-02  0.2815546E+00
         22   -1    0    0    0    0  0.00000000000E+00  0.00000000000E+00  0.10406997453E+02  0.10406997453E+02  0.00000000000E+00 0.  1.
         22   -1    0    0    0    0 -0.00000000000E+00 -0.00000000000E+00 -0.73856616367E+00  0.73856616367E+00  0.00000000000E+00 0. -1.
          4    1    1    2  501    0  0.15681019823E+00 -0.18840717051E+01  0.80118305485E+01  0.83292643353E+01  0.12700000000E+01 0.  1.
         -4    1    1    2    0  501 -0.15681019823E+00  0.18840717051E+01  0.16566007410E+01  0.28162992816E+01  0.12700000000E+01 0. -1.
<mgrwt>
<rscale>  0 0.22775460E+01</rscale>
<asrwt>0</asrwt>
<pdfrwt beam="1">0</pdfrwt>
<pdfrwt beam="2">0</pdfrwt>
<totfact> 0.21350916E+12</totfact>
</mgrwt>
</event>
<event>
 4    1  0.1699693E+006  0.3124715E+01  0.7546771E-02  0.2484180E+00
         22   -1    0    0    0    0  0.00000000000E+00  0.00000000000E+00  0.33317500723E+01  0.33317500723E+01  0.00000000000E+00 0.  1.
         22   -1    0    0    0    0 -0.00000000000E+00 -0.00000000000E+00 -0.29468072199E+01  0.29468072199E+01  0.00000000000E+00 0.  1.
          4    1    1    2  501    0  0.50819050658E-01 -0.28545331348E+01  0.42568295621E+00  0.31535770123E+01  0.12700000000E+01 0.  1.
         -4    1    1    2    0  501 -0.50819050658E-01  0.28545331348E+01 -0.40740103852E-01  0.31249802799E+01  0.12700000000E+01 0.  1.
<mgrwt>
<rscale>  0 0.31247147E+01</rscale>
<asrwt>0</asrwt>
<pdfrwt beam="1">0</pdfrwt>
<pdfrwt beam="2">0</pdfrwt>
<totfact> 0.16854390E+12</totfact>
</mgrwt>
</event>
<event>
 4    1  0.1699693E+006  0.2089210E+01  0.7546771E-02  0.2923005E+00
         22   -1    0    0    0    0  0.00000000000E+00  0.00000000000E+00  0.26548480371E+01  0.26548480371E+01  0.00000000000E+00 0. -1.
         22   -1    0    0    0    0 -0.00000000000E+00 -0.00000000000E+00 -0.26392632138E+01  0.26392632138E+01  0.00000000000E+00 0. -1.
          4    1    1    2  501    0  0.94421850522E+00  0.13639467984E+01  0.16332357987E+01  0.26518406114E+01  0.12700000000E+01 0. -1.
         -4    1    1    2    0  501 -0.94421850522E+00 -0.13639467984E+01 -0.16176509754E+01  0.26422706395E+01  0.12700000000E+01 0. -1.
<mgrwt>
<rscale>  0 0.20892102E+01</rscale>
<asrwt>0</asrwt>
<pdfrwt beam="1">0</pdfrwt>
<pdfrwt beam="2">0</pdfrwt>
<totfact> 0.24986031E+12</totfact>
</mgrwt>
</event>
<event>
 4    1  0.1699693E+006  0.2547219E+01  0.7546771E-02  0.2688072E+00
         22   -1    0    0    0    0  0.00000000000E+00  0.00000000000E+00  0.16268913243E+02  0.16268913243E+02  0.00000000000E+00 0. -1.
         22   -1    0    0    0    0 -0.00000000000E+00 -0.00000000000E+00 -0.94358376966E+00  0.94358376966E+00  0.00000000000E+00 0.  1.
          4    1    1    2  501    0  0.14227178807E+01 -0.16885784459E+01  0.14201928472E+02  0.14428551405E+02  0.12700000000E+01 0. -1.
         -4    1    1    2    0  501 -0.14227178807E+01  0.16885784459E+01  0.11234010019E+01  0.27839456077E+01  0.12700000000E+01 0.  1.
<mgrwt>
<rscale>  0 0.25472187E+01</rscale>
<asrwt>0</asrwt>
<pdfrwt beam="1">0</pdfrwt>
<pdfrwt beam="2">0</pdfrwt>
<totfact> 0.93522526E+11</totfact>
</mgrwt>
</event>
<event>
 4    1  0.1699693E+006  0.2119894E+01  0.7546771E-02  0.2904246E+00
         22   -1    0    0    0    0  0.00000000000E+00  0.00000000000E+00  0.89693002022E+00  0.89693002022E+00  0.00000000000E+00 0. -1.
         22   -1    0    0    0    0 -0.00000000000E+00 -0.00000000000E+00 -0.56500894226E+01  0.56500894226E+01  0.00000000000E+00 0. -1.
          4    1    1    2  501    0  0.63573185016E+00 -0.15738149989E+01 -0.12750867108E+01  0.24738218926E+01  0.12700000000E+01 0. -1.
         -4    1    1    2    0  501 -0.63573185016E+00  0.15738149989E+01 -0.34780726916E+01  0.40731975503E+01  0.12700000000E+01 0. -1.
<mgrwt>
<rscale>  0 0.21198935E+01</rscale>
<asrwt>0</asrwt>
<pdfrwt beam="1">0</pdfrwt>
<pdfrwt beam="2">0</pdfrwt>
<totfact> 0.35621434E+12</totfact>
</mgrwt>
</event>
<event>
 4    1  0.1699693E+006  0.2393823E+01  0.7546771E-02  0.2757275E+00
         22   -1    0    0    0    0  0.00000000000E+00  0.00000000000E+00  0.29374270258E+01  0.29374270258E+01  0.00000000000E+00 0.  1.
         22   -1    0    0    0    0 -0.00000000000E+00 -0.00000000000E+00 -0.19625099375E+01  0.19625099375E+01  0.00000000000E+00 0.  1.
          4    1    1    2  501    0  0.18988851960E+01  0.71534715229E+00  0.67655846865E+00  0.24875927917E+01  0.12700000000E+01 0.  1.
         -4    1    1    2    0  501 -0.18988851960E+01 -0.71534715229E+00  0.29835861964E+00  0.24123441715E+01  0.12700000000E+01 0.  1.
<mgrwt>
<rscale>  0 0.23938226E+01</rscale>
<asrwt>0</asrwt>
<pdfrwt beam="1">0</pdfrwt>
<pdfrwt beam="2">0</pdfrwt>
<totfact> 0.31321949E+12</totfact>
</mgrwt>
</event>
<event>
 4    1  0.1699693E+006  0.3165108E+01  0.7546771E-02  0.2472446E+00
         22   -1    0    0    0    0  0.00000000000E+00  0.00000000000E+00  0.13376985664E+02  0.13376985664E+02  0.00000000000E+00 0. -1.
         22   -1    0    0    0    0 -0.00000000000E+00 -0.00000000000E+00 -0.11551878649E+01  0.11551878649E+01  0.00000000000E+00 0.  1.
          4    1    1    2  501    0  0.23782513019E+01  0.16579901146E+01  0.10420089999E+02  0.10890187605E+02  0.12700000000E+01 0. -1.
         -4    1    1    2    0  501 -0.23782513019E+01 -0.16579901146E+01  0.18017077998E+01  0.36419859241E+01  0.12700000000E+01 0. -1.
<mgrwt>
<rscale>  0 0.31651083E+01</rscale>
<asrwt>0</asrwt>
<pdfrwt beam="1">0</pdfrwt>
<pdfrwt beam="2">0</pdfrwt>
<totfact> 0.94413086E+11</totfact>
</mgrwt>
</event>
<event>
 4    1  0.1699693E+006  0.6062002E+01  0.7546771E-02  0.2014172E+00
         22   -1    0    0    0    0  0.00000000000E+00  0.00000000000E+00  0.13117814018E+02  0.13117814018E+02  0.00000000000E+00 0.  1.
         22   -1    0    0    0    0 -0.00000000000E+00 -0.00000000000E+00 -0.43348025537E+01  0.43348025537E+01  0.00000000000E+00 0. -1.
          4    1    1    2  501    0  0.42800633866E+01 -0.41007347120E+01 -0.79862199937E+00  0.61143818060E+01  0.12700000000E+01 0. -1.
         -4    1    1    2    0  501 -0.42800633866E+01  0.41007347120E+01  0.95816334632E+01  0.11338234765E+02  0.12700000000E+01 0.  1.
<mgrwt>
<rscale>  0 0.60620020E+01</rscale>
<asrwt>0</asrwt>
<pdfrwt beam="1">0</pdfrwt>
<pdfrwt beam="2">0</pdfrwt>
<totfact> 0.20831372E+11</totfact>
</mgrwt>
</event>
<event>
 4    1  0.1699693E+006  0.3335344E+01  0.7546771E-02  0.2425770E+00
         22   -1    0    0    0    0  0.00000000000E+00  0.00000000000E+00  0.83280894748E+01  0.83280894748E+01  0.00000000000E+00 0.  1.
         22   -1    0    0    0    0 -0.00000000000E+00 -0.00000000000E+00 -0.32433249251E+01  0.32433249251E+01  0.00000000000E+00 0. -1.
          4    1    1    2  501    0  0.98839675714E+00 -0.29214197751E+01  0.69794723945E+01  0.77354739065E+01  0.12700000000E+01 0.  1.
         -4    1    1    2    0  501 -0.98839675714E+00  0.29214197751E+01 -0.18947078448E+01  0.38359404935E+01  0.12700000000E+01 0. -1.
<mgrwt>
<rscale>  0 0.33353443E+01</rscale>
<asrwt>0</asrwt>
<pdfrwt beam="1">0</pdfrwt>
<pdfrwt beam="2">0</pdfrwt>
<totfact> 0.50823793E+11</totfact>
</mgrwt>
</event>
<event>
 4    1  0.1699693E+006  0.2178404E+01  0.7546771E-02  0.2869889E+00
         22   -1    0    0    0    0  0.00000000000E+00  0.00000000000E+00  0.19150049118E+01  0.19150049118E+01  0.00000000000E+00 0.  1.
         22   -1    0    0    0    0 -0.00000000000E+00 -0.00000000000E+00 -0.34332157904E+01  0.34332157904E+01  0.00000000000E+00 0.  1.
          4    1    1    2  501    0  0.62745255166E+00 -0.16549457959E+01  0.65139226631E+00  0.22737093430E+01  0.12700000000E+01 0.  1.
         -4    1    1    2    0  501 -0.62745255166E+00  0.16549457959E+01 -0.21696031449E+01  0.30745113592E+01  0.12700000000E+01 0.  1.
<mgrwt>
<rscale>  0 0.21784036E+01</rscale>
<asrwt>0</asrwt>
<pdfrwt beam="1">0</pdfrwt>
<pdfrwt beam="2">0</pdfrwt>
<totfact> 0.26847675E+12</totfact>
</mgrwt>
</event>
<event>
 4    1  0.1699693E+006  0.2980651E+01  0.7546771E-02  0.2528330E+00
         22   -1    0    0    0    0  0.00000000000E+00  0.00000000000E+00  0.21318827866E+02  0.21318827866E+02  0.00000000000E+00 0.  1.
         22   -1    0    0    0    0 -0.00000000000E+00 -0.00000000000E+00 -0.47356222700E+00  0.47356222700E+00  0.00000000000E+00 0. -1.
          4    1    1    2  501    0 -0.49212851340E+00  0.26512617701E+01  0.14197212240E+02  0.14506726538E+02  0.12700000000E+01 0.  1.
         -4    1    1    2    0  501  0.49212851340E+00 -0.26512617701E+01  0.66480533985E+01  0.72856635550E+01  0.12700000000E+01 0. -1.
<mgrwt>
<rscale>  0 0.29806508E+01</rscale>
<asrwt>0</asrwt>
<pdfrwt beam="1">0</pdfrwt>
<pdfrwt beam="2">0</pdfrwt>
<totfact> 0.14610003E+12</totfact>
</mgrwt>
</event>
<event>
 4    1  0.1699693E+006  0.2550751E+01  0.7546771E-02  0.2686570E+00
         22   -1    0    0    0    0  0.00000000000E+00  0.00000000000E+00  0.19043240980E+00  0.19043240980E+00  0.00000000000E+00 0.  1.
         22   -1    0    0    0    0 -0.00000000000E+00 -0.00000000000E+00 -0.34166139239E+02  0.34166139239E+02  0.00000000000E+00 0. -1.
          4    1    1    2  501    0  0.21053030144E+01 -0.67906413012E+00 -0.16965160891E+02  0.17155844862E+02  0.12700000000E+01 0.  1.
         -4    1    1    2    0  501 -0.21053030144E+01  0.67906413012E+00 -0.17010545939E+02  0.17200726787E+02  0.12700000000E+01 0. -1.
<mgrwt>
<rscale>  0 0.25507506E+01</rscale>
<asrwt>0</asrwt>
<pdfrwt beam="1">0</pdfrwt>
<pdfrwt beam="2">0</pdfrwt>
<totfact> 0.22323829E+12</totfact>
</mgrwt>
</event>
<event>
 4    1  0.1699693E+006  0.2282856E+01  0.7546771E-02  0.2812762E+00
         22   -1    0    0    0    0  0.00000000000E+00  0.00000000000E+00  0.13470352062E+00  0.13470352062E+00  0.00000000000E+00 0. -1.
         22   -1    0    0    0    0 -0.00000000000E+00 -0.00000000000E+00 -0.88598864905E+02  0.88598864905E+02  0.00000000000E+00 0. -1.
          4    1    1    2  501    0  0.11900442169E+01  0.14772692041E+01 -0.10932345265E+02  0.11168151258E+02  0.12700000000E+01 0. -1.
         -4    1    1    2    0  501 -0.11900442169E+01 -0.14772692041E+01 -0.77531816120E+02  0.77565417168E+02  0.12700000000E+01 0. -1.
<mgrwt>
<rscale>  0 0.22828556E+01</rscale>
<asrwt>0</asrwt>
<pdfrwt beam="1">0</pdfrwt>
<pdfrwt beam="2">0</pdfrwt>
<totfact> 0.92267683E+11</totfact>
</mgrwt>
</event>
<event>
 4    1  0.1699693E+006  0.2260008E+01  0.7546771E-02  0.2824827E+00
         22   -1    0    0    0    0  0.00000000000E+00  0.00000000000E+00  0.52449815174E+01  0.52449815174E+01  0.00000000000E+00 0. -1.
         22   -1    0    0    0    0 -0.00000000000E+00 -0.00000000000E+00 -0.53214208885E+01  0.53214208885E+01  0.00000000000E+00 0.  1.
          4    1    1    2  501    0 -0.17932775453E+01  0.52810108765E+00  0.47371664269E+01  0.52486551487E+01  0.12700000000E+01 0. -1.
         -4    1    1    2    0  501  0.17932775453E+01 -0.52810108765E+00 -0.48136057980E+01  0.53177472572E+01  0.12700000000E+01 0.  1.
<mgrwt>
<rscale>  0 0.22600078E+01</rscale>
<asrwt>0</asrwt>
<pdfrwt beam="1">0</pdfrwt>
<pdfrwt beam="2">0</pdfrwt>
<totfact> 0.49259701E+11</totfact>
</mgrwt>
</event>
<event>
 4    1  0.1699693E+006  0.2971360E+01  0.7546771E-02  0.2531309E+00
         22   -1    0    0    0    0  0.00000000000E+00  0.00000000000E+00  0.24200738974E+02  0.24200738974E+02  0.00000000000E+00 0. -1.
         22   -1    0    0    0    0 -0.00000000000E+00 -0.00000000000E+00 -0.66555235634E+00  0.66555235634E+00  0.00000000000E+00 0. -1.
          4    1    1    2  501    0  0.17435874383E+01  0.20435221142E+01  0.20125124627E+02  0.20343294253E+02  0.12700000000E+01 0. -1.
         -4    1    1    2    0  501 -0.17435874383E+01 -0.20435221142E+01  0.34100619901E+01  0.45229970774E+01  0.12700000000E+01 0. -1.
<mgrwt>
<rscale>  0 0.29713599E+01</rscale>
<asrwt>0</asrwt>
<pdfrwt beam="1">0</pdfrwt>
<pdfrwt beam="2">0</pdfrwt>
<totfact> 0.84789491E+11</totfact>
</mgrwt>
</event>
<event>
 4    1  0.1699693E+006  0.3364975E+01  0.7546771E-02  0.2418073E+00
         22   -1    0    0    0    0  0.00000000000E+00  0.00000000000E+00  0.59488836519E+00  0.59488836519E+00  0.00000000000E+00 0. -1.
         22   -1    0    0    0    0 -0.00000000000E+00 -0.00000000000E+00 -0.25783062869E+02  0.25783062869E+02  0.00000000000E+00 0.  1.
          4    1    1    2  501    0 -0.23778334369E+01  0.20139670314E+01 -0.58461931666E+01  0.67454451001E+01  0.12700000000E+01 0. -1.
         -4    1    1    2    0  501  0.23778334369E+01 -0.20139670314E+01 -0.19341981337E+02  0.19632506134E+02  0.12700000000E+01 0.  1.
<mgrwt>
<rscale>  0 0.33649747E+01</rscale>
<asrwt>0</asrwt>
<pdfrwt beam="1">0</pdfrwt>
<pdfrwt beam="2">0</pdfrwt>
<totfact> 0.88897790E+11</totfact>
</mgrwt>
</event>
<event>
 4    1  0.1699693E+006  0.3137217E+01  0.7546771E-02  0.2480520E+00
         22   -1    0    0    0    0  0.00000000000E+00  0.00000000000E+00  0.19202916381E+01  0.19202916381E+01  0.00000000000E+00 0. -1.
         22   -1    0    0    0    0 -0.00000000000E+00 -0.00000000000E+00 -0.52262224437E+01  0.52262224437E+01  0.00000000000E+00 0.  1.
          4    1    1    2  501    0 -0.10096059698E+01 -0.26851303713E+01 -0.11564890917E+01  0.33435903374E+01  0.12700000000E+01 0. -1.
         -4    1    1    2    0  501  0.10096059698E+01  0.26851303713E+01 -0.21494417139E+01  0.38029237445E+01  0.12700000000E+01 0.  1.
<mgrwt>
<rscale>  0 0.31372168E+01</rscale>
<asrwt>0</asrwt>
<pdfrwt beam="1">0</pdfrwt>
<pdfrwt beam="2">0</pdfrwt>
<totfact> 0.16310424E+12</totfact>
</mgrwt>
</event>
<event>
 4    1  0.1699693E+006  0.4532868E+01  0.7546771E-02  0.2185706E+00
         22   -1    0    0    0    0  0.00000000000E+00  0.00000000000E+00  0.63128149875E+01  0.63128149875E+01  0.00000000000E+00 0. -1.
         22   -1    0    0    0    0 -0.00000000000E+00 -0.00000000000E+00 -0.57635850625E+01  0.57635850625E+01  0.00000000000E+00 0.  1.
          4    1    1    2  501    0  0.35604354640E+01 -0.25014571560E+01  0.42583799888E+01  0.62193800917E+01  0.12700000000E+01 0. -1.
         -4    1    1    2    0  501 -0.35604354640E+01  0.25014571560E+01 -0.37091500638E+01  0.58570199583E+01  0.12700000000E+01 0.  1.
<mgrwt>
<rscale>  0 0.45328676E+01</rscale>
<asrwt>0</asrwt>
<pdfrwt beam="1">0</pdfrwt>
<pdfrwt beam="2">0</pdfrwt>
<totfact> 0.35947725E+11</totfact>
</mgrwt>
</event>
<event>
 4    1  0.1699693E+006  0.2634290E+01  0.7546771E-02  0.2652132E+00
         22   -1    0    0    0    0  0.00000000000E+00  0.00000000000E+00  0.99218677218E+01  0.99218677218E+01  0.00000000000E+00 0.  1.
         22   -1    0    0    0    0 -0.00000000000E+00 -0.00000000000E+00 -0.91844862601E+00  0.91844862601E+00  0.00000000000E+00 0. -1.
          4    1    1    2  501    0 -0.15838187556E+01  0.16787199090E+01  0.71486367294E+01  0.76185621657E+01  0.12700000000E+01 0.  1.
         -4    1    1    2    0  501  0.15838187556E+01 -0.16787199090E+01  0.18547823664E+01  0.32217541821E+01  0.12700000000E+01 0. -1.
<mgrwt>
<rscale>  0 0.26342897E+01</rscale>
<asrwt>0</asrwt>
<pdfrwt beam="1">0</pdfrwt>
<pdfrwt beam="2">0</pdfrwt>
<totfact> 0.17652504E+12</totfact>
</mgrwt>
</event>
<event>
 4    1  0.1699693E+006  0.3004380E+01  0.7546771E-02  0.2520798E+00
         22   -1    0    0    0    0  0.00000000000E+00  0.00000000000E+00  0.10983969723E+01  0.10983969723E+01  0.00000000000E+00 0.  1.
         22   -1    0    0    0    0 -0.00000000000E+00 -0.00000000000E+00 -0.83093324942E+01  0.83093324942E+01  0.00000000000E+00 0.  1.
          4    1    1    2  501    0 -0.34891467329E+00 -0.27003068302E+01 -0.40994291439E+01  0.50824814542E+01  0.12700000000E+01 0.  1.
         -4    1    1    2    0  501  0.34891467329E+00  0.27003068302E+01 -0.31115063780E+01  0.43252480122E+01  0.12700000000E+01 0.  1.
<mgrwt>
<rscale>  0 0.30043799E+01</rscale>
<asrwt>0</asrwt>
<pdfrwt beam="1">0</pdfrwt>
<pdfrwt beam="2">0</pdfrwt>
<totfact> 0.17824562E+12</totfact>
</mgrwt>
</event>
<event>
 4    1  0.1699693E+006  0.2279644E+01  0.7546771E-02  0.2814445E+00
         22   -1    0    0    0    0  0.00000000000E+00  0.00000000000E+00  0.51190688877E+02  0.51190688877E+02  0.00000000000E+00 0. -1.
         22   -1    0    0    0    0 -0.00000000000E+00 -0.00000000000E+00 -0.42178367612E+00  0.42178367612E+00  0.00000000000E+00 0. -1.
          4    1    1    2  501    0  0.15586887871E+01 -0.10744133532E+01  0.47871633022E+02  0.47925880513E+02  0.12700000000E+01 0. -1.
         -4    1    1    2    0  501 -0.15586887871E+01  0.10744133532E+01  0.28972721787E+01  0.36865920395E+01  0.12700000000E+01 0. -1.
<mgrwt>
<rscale>  0 0.22796436E+01</rscale>
<asrwt>0</asrwt>
<pdfrwt beam="1">0</pdfrwt>
<pdfrwt beam="2">0</pdfrwt>
<totfact> 0.54092025E+11</totfact>
</mgrwt>
</event>
<event>
 4    1  0.1699693E+006  0.2494826E+01  0.7546771E-02  0.2710816E+00
         22   -1    0    0    0    0  0.00000000000E+00  0.00000000000E+00  0.93501350260E+01  0.93501350260E+01  0.00000000000E+00 0.  1.
         22   -1    0    0    0    0 -0.00000000000E+00 -0.00000000000E+00 -0.90030045864E+00  0.90030045864E+00  0.00000000000E+00 0. -1.
          4    1    1    2  501    0 -0.16911343138E+01 -0.13233743543E+01  0.68413271300E+01  0.72820266305E+01  0.12700000000E+01 0.  1.
         -4    1    1    2    0  501  0.16911343138E+01  0.13233743543E+01  0.16085074374E+01  0.29684088541E+01  0.12700000000E+01 0. -1.
<mgrwt>
<rscale>  0 0.24948256E+01</rscale>
<asrwt>0</asrwt>
<pdfrwt beam="1">0</pdfrwt>
<pdfrwt beam="2">0</pdfrwt>
<totfact> 0.19402272E+12</totfact>
</mgrwt>
</event>
<event>
 4    1  0.1699693E+006  0.2114234E+01  0.7546771E-02  0.2907666E+00
         22   -1    0    0    0    0  0.00000000000E+00  0.00000000000E+00  0.11458184513E+02  0.11458184513E+02  0.00000000000E+00 0.  1.
         22   -1    0    0    0    0 -0.00000000000E+00 -0.00000000000E+00 -0.46947721514E+00  0.46947721514E+00  0.00000000000E+00 0. -1.
          4    1    1    2  501    0 -0.16721774188E+01 -0.24679791473E+00  0.79464101320E+01  0.82228596313E+01  0.12700000000E+01 0.  1.
         -4    1    1    2    0  501  0.16721774188E+01  0.24679791473E+00  0.30422971656E+01  0.37048020965E+01  0.12700000000E+01 0. -1.
<mgrwt>
<rscale>  0 0.21142343E+01</rscale>
<asrwt>0</asrwt>
<pdfrwt beam="1">0</pdfrwt>
<pdfrwt beam="2">0</pdfrwt>
<totfact> 0.31724424E+12</totfact>
</mgrwt>
</event>
<event>
 4    1  0.1699693E+006  0.3875947E+01  0.7546771E-02  0.2301654E+00
         22   -1    0    0    0    0  0.00000000000E+00  0.00000000000E+00  0.13202162350E+02  0.13202162350E+02  0.00000000000E+00 0.  1.
         22   -1    0    0    0    0 -0.00000000000E+00 -0.00000000000E+00 -0.11897721113E+01  0.11897721113E+01  0.00000000000E+00 0. -1.
          4    1    1    2  501    0  0.95320352896E+00 -0.35357418256E+01  0.75084802061E+01  0.84498664031E+01  0.12700000000E+01 0.  1.
         -4    1    1    2    0  501 -0.95320352896E+00  0.35357418256E+01  0.45039100321E+01  0.59420680577E+01  0.12700000000E+01 0. -1.
<mgrwt>
<rscale>  0 0.38759473E+01</rscale>
<asrwt>0</asrwt>
<pdfrwt beam="1">0</pdfrwt>
<pdfrwt beam="2">0</pdfrwt>
<totfact> 0.92759269E+11</totfact>
</mgrwt>
</event>
<event>
 4    1  0.1699693E+006  0.2205966E+01  0.7546771E-02  0.2854312E+00
         22   -1    0    0    0    0  0.00000000000E+00  0.00000000000E+00  0.43055232810E+01  0.43055232810E+01  0.00000000000E+00 0. -1.
         22   -1    0    0    0    0 -0.00000000000E+00 -0.00000000000E+00 -0.15913230164E+01  0.15913230164E+01  0.00000000000E+00 0. -1.
          4    1    1    2  501    0  0.15047975545E+01  0.99446940441E+00  0.29441810161E+01  0.36789246978E+01  0.12700000000E+01 0. -1.
         -4    1    1    2    0  501 -0.15047975545E+01 -0.99446940441E+00 -0.22998075151E+00  0.22179215997E+01  0.12700000000E+01 0. -1.
<mgrwt>
<rscale>  0 0.22059658E+01</rscale>
<asrwt>0</asrwt>
<pdfrwt beam="1">0</pdfrwt>
<pdfrwt beam="2">0</pdfrwt>
<totfact> 0.25476063E+12</totfact>
</mgrwt>
</event>
<event>
 4    1  0.1699693E+006  0.4433136E+01  0.7546771E-02  0.2201430E+00
         22   -1    0    0    0    0  0.00000000000E+00  0.00000000000E+00  0.95296782671E+00  0.95296782671E+00  0.00000000000E+00 0. -1.
         22   -1    0    0    0    0 -0.00000000000E+00 -0.00000000000E+00 -0.20994755165E+02  0.20994755165E+02  0.00000000000E+00 0.  1.
          4    1    1    2  501    0  0.13074080756E+01  0.40410991549E+01 -0.85598895964E+01  0.96397307098E+01  0.12700000000E+01 0. -1.
         -4    1    1    2    0  501 -0.13074080756E+01 -0.40410991549E+01 -0.11481897742E+02  0.12307992282E+02  0.12700000000E+01 0. -1.
<mgrwt>
<rscale>  0 0.44331364E+01</rscale>
<asrwt>0</asrwt>
<pdfrwt beam="1">0</pdfrwt>
<pdfrwt beam="2">0</pdfrwt>
<totfact> 0.67364901E+11</totfact>
</mgrwt>
</event>
<event>
 4    1  0.1699693E+006  0.4931631E+01  0.7546771E-02  0.2131254E+00
         22   -1    0    0    0    0  0.00000000000E+00  0.00000000000E+00  0.55062364754E+02  0.55062364754E+02  0.00000000000E+00 0.  1.
         22   -1    0    0    0    0 -0.00000000000E+00 -0.00000000000E+00 -0.51815377408E+00  0.51815377408E+00  0.00000000000E+00 0. -1.
          4    1    1    2  501    0  0.39377035615E+01  0.26837618419E+01  0.16597156665E+02  0.17314346547E+02  0.12700000000E+01 0. -1.
         -4    1    1    2    0  501 -0.39377035615E+01 -0.26837618419E+01  0.37947054314E+02  0.38266171981E+02  0.12700000000E+01 0.  1.
<mgrwt>
<rscale>  0 0.49316313E+01</rscale>
<asrwt>0</asrwt>
<pdfrwt beam="1">0</pdfrwt>
<pdfrwt beam="2">0</pdfrwt>
<totfact> 0.38939185E+11</totfact>
</mgrwt>
</event>
<event>
 4    1  0.1699693E+006  0.4085550E+01  0.7546771E-02  0.2261234E+00
         22   -1    0    0    0    0  0.00000000000E+00  0.00000000000E+00  0.13658219465E+02  0.13658219465E+02  0.00000000000E+00 0.  1.
         22   -1    0    0    0    0 -0.00000000000E+00 -0.00000000000E+00 -0.13592592520E+01  0.13592592520E+01  0.00000000000E+00 0. -1.
          4    1    1    2  501    0  0.38825786724E+01  0.66325881938E-01  0.85346960779E+01  0.94621748775E+01  0.12700000000E+01 0.  1.
         -4    1    1    2    0  501 -0.38825786724E+01 -0.66325881938E-01  0.37642641350E+01  0.55553038394E+01  0.12700000000E+01 0. -1.
<mgrwt>
<rscale>  0 0.40855497E+01</rscale>
<asrwt>0</asrwt>
<pdfrwt beam="1">0</pdfrwt>
<pdfrwt beam="2">0</pdfrwt>
<totfact> 0.76375215E+11</totfact>
</mgrwt>
</event>
<event>
 4    1  0.1699693E+006  0.4760713E+01  0.7546771E-02  0.2152697E+00
         22   -1    0    0    0    0  0.00000000000E+00  0.00000000000E+00  0.16240549037E+02  0.16240549037E+02  0.00000000000E+00 0. -1.
         22   -1    0    0    0    0 -0.00000000000E+00 -0.00000000000E+00 -0.17044754318E+01  0.17044754318E+01  0.00000000000E+00 0.  1.
          4    1    1    2  501    0  0.13173716827E+01  0.43949995699E+01  0.11087921273E+02  0.12066747181E+02  0.12700000000E+01 0. -1.
         -4    1    1    2    0  501 -0.13173716827E+01 -0.43949995699E+01  0.34481523321E+01  0.58782772880E+01  0.12700000000E+01 0.  1.
<mgrwt>
<rscale>  0 0.47607131E+01</rscale>
<asrwt>0</asrwt>
<pdfrwt beam="1">0</pdfrwt>
<pdfrwt beam="2">0</pdfrwt>
<totfact> 0.47566542E+11</totfact>
</mgrwt>
</event>
<event>
 4    1  0.1699693E+006  0.3806399E+01  0.7546771E-02  0.2315903E+00
         22   -1    0    0    0    0  0.00000000000E+00  0.00000000000E+00  0.73759980364E+00  0.73759980364E+00  0.00000000000E+00 0.  1.
         22   -1    0    0    0    0 -0.00000000000E+00 -0.00000000000E+00 -0.21372792375E+02  0.21372792375E+02  0.00000000000E+00 0. -1.
          4    1    1    2  501    0  0.26870843289E+01  0.23780979121E+01 -0.71725069322E+01  0.81199462783E+01  0.12700000000E+01 0.  1.
         -4    1    1    2    0  501 -0.26870843289E+01 -0.23780979121E+01 -0.13462685639E+02  0.13990445900E+02  0.12700000000E+01 0. -1.
<mgrwt>
<rscale>  0 0.38063988E+01</rscale>
<asrwt>0</asrwt>
<pdfrwt beam="1">0</pdfrwt>
<pdfrwt beam="2">0</pdfrwt>
<totfact> 0.88187759E+11</totfact>
</mgrwt>
</event>
<event>
 4    1  0.1699693E+006  0.2437930E+01  0.7546771E-02  0.2736544E+00
         22   -1    0    0    0    0  0.00000000000E+00  0.00000000000E+00  0.36845636024E+02  0.36845636024E+02  0.00000000000E+00 0.  1.
         22   -1    0    0    0    0 -0.00000000000E+00 -0.00000000000E+00 -0.51435030857E+00  0.51435030857E+00  0.00000000000E+00 0. -1.
          4    1    1    2  501    0 -0.12673184560E+01  0.16506077918E+01  0.33641705635E+02  0.33729925292E+02  0.12700000000E+01 0.  1.
         -4    1    1    2    0  501  0.12673184560E+01 -0.16506077918E+01  0.26895800804E+01  0.36300610409E+01  0.12700000000E+01 0. -1.
<mgrwt>
<rscale>  0 0.24379299E+01</rscale>
<asrwt>0</asrwt>
<pdfrwt beam="1">0</pdfrwt>
<pdfrwt beam="2">0</pdfrwt>
<totfact> 0.66431585E+11</totfact>
</mgrwt>
</event>
<event>
 4    1  0.1699693E+006  0.2026443E+01  0.7546771E-02  0.2963101E+00
         22   -1    0    0    0    0  0.00000000000E+00  0.00000000000E+00  0.90856999923E+00  0.90856999923E+00  0.00000000000E+00 0.  1.
         22   -1    0    0    0    0 -0.00000000000E+00 -0.00000000000E+00 -0.62480183012E+01  0.62480183012E+01  0.00000000000E+00 0. -1.
          4    1    1    2  501    0 -0.62337390242E+00  0.14508541542E+01 -0.78774193389E+00  0.21741688420E+01  0.12700000000E+01 0.  1.
         -4    1    1    2    0  501  0.62337390242E+00 -0.14508541542E+01 -0.45517063681E+01  0.49824194585E+01  0.12700000000E+01 0. -1.
<mgrwt>
<rscale>  0 0.20264434E+01</rscale>
<asrwt>0</asrwt>
<pdfrwt beam="1">0</pdfrwt>
<pdfrwt beam="2">0</pdfrwt>
<totfact> 0.31140518E+12</totfact>
</mgrwt>
</event>
<event>
 4    1  0.1699693E+006  0.2020990E+01  0.7546771E-02  0.2966699E+00
         22   -1    0    0    0    0  0.00000000000E+00  0.00000000000E+00  0.12118032423E+01  0.12118032423E+01  0.00000000000E+00 0. -1.
         22   -1    0    0    0    0 -0.00000000000E+00 -0.00000000000E+00 -0.34753873801E+01  0.34753873801E+01  0.00000000000E+00 0. -1.
          4    1    1    2  501    0 -0.61361835063E+00 -0.14474021247E+01 -0.72468127001E+00  0.21469893651E+01  0.12700000000E+01 0. -1.
         -4    1    1    2    0  501  0.61361835063E+00  0.14474021247E+01 -0.15389028678E+01  0.25402012573E+01  0.12700000000E+01 0. -1.
<mgrwt>
<rscale>  0 0.20209900E+01</rscale>
<asrwt>0</asrwt>
<pdfrwt beam="1">0</pdfrwt>
<pdfrwt beam="2">0</pdfrwt>
<totfact> 0.44815500E+12</totfact>
</mgrwt>
</event>
<event>
 4    1  0.1699693E+006  0.2788165E+01  0.7546771E-02  0.2593680E+00
         22   -1    0    0    0    0  0.00000000000E+00  0.00000000000E+00  0.42344463055E+01  0.42344463055E+01  0.00000000000E+00 0. -1.
         22   -1    0    0    0    0 -0.00000000000E+00 -0.00000000000E+00 -0.29706727951E+01  0.29706727951E+01  0.00000000000E+00 0. -1.
          4    1    1    2  501    0 -0.15944439507E+01  0.19022909083E+01  0.28585028596E+01  0.39931066615E+01  0.12700000000E+01 0. -1.
         -4    1    1    2    0  501  0.15944439507E+01 -0.19022909083E+01 -0.15947293492E+01  0.32120124391E+01  0.12700000000E+01 0. -1.
<mgrwt>
<rscale>  0 0.27881647E+01</rscale>
<asrwt>0</asrwt>
<pdfrwt beam="1">0</pdfrwt>
<pdfrwt beam="2">0</pdfrwt>
<totfact> 0.12597699E+12</totfact>
</mgrwt>
</event>
<event>
 4    1  0.1699693E+006  0.2493328E+01  0.7546771E-02  0.2711479E+00
         22   -1    0    0    0    0  0.00000000000E+00  0.00000000000E+00  0.10091454420E+02  0.10091454420E+02  0.00000000000E+00 0.  1.
         22   -1    0    0    0    0 -0.00000000000E+00 -0.00000000000E+00 -0.86467667704E+00  0.86467667704E+00  0.00000000000E+00 0. -1.
          4    1    1    2  501    0 -0.14602173320E+01  0.15721156042E+01  0.75509568167E+01  0.79519576821E+01  0.12700000000E+01 0.  1.
         -4    1    1    2    0  501  0.14602173320E+01 -0.15721156042E+01  0.16758209260E+01  0.30041734147E+01  0.12700000000E+01 0. -1.
<mgrwt>
<rscale>  0 0.24933275E+01</rscale>
<asrwt>0</asrwt>
<pdfrwt beam="1">0</pdfrwt>
<pdfrwt beam="2">0</pdfrwt>
<totfact> 0.18524652E+12</totfact>
</mgrwt>
</event>
<event>
 4    1  0.1699693E+006  0.2566802E+01  0.7546771E-02  0.2679792E+00
         22   -1    0    0    0    0  0.00000000000E+00  0.00000000000E+00  0.38804016887E+01  0.38804016887E+01  0.00000000000E+00 0. -1.
         22   -1    0    0    0    0 -0.00000000000E+00 -0.00000000000E+00 -0.50442567091E+01  0.50442567091E+01  0.00000000000E+00 0. -1.
          4    1    1    2  501    0  0.19363360258E+01  0.11073285044E+01  0.30526182647E+01  0.39883520270E+01  0.12700000000E+01 0. -1.
         -4    1    1    2    0  501 -0.19363360258E+01 -0.11073285044E+01 -0.42164732851E+01  0.49363063707E+01  0.12700000000E+01 0. -1.
<mgrwt>
<rscale>  0 0.25668022E+01</rscale>
<asrwt>0</asrwt>
<pdfrwt beam="1">0</pdfrwt>
<pdfrwt beam="2">0</pdfrwt>
<totfact> 0.74911106E+11</totfact>
</mgrwt>
</event>
<event>
 4    1  0.1699693E+006  0.4266267E+01  0.7546771E-02  0.2229114E+00
         22   -1    0    0    0    0  0.00000000000E+00  0.00000000000E+00  0.38391401338E+02  0.38391401338E+02  0.00000000000E+00 0.  1.
         22   -1    0    0    0    0 -0.00000000000E+00 -0.00000000000E+00 -0.84437201200E+00  0.84437201200E+00  0.00000000000E+00 0. -1.
          4    1    1    2  501    0 -0.40661905167E+01 -0.23287123540E+00  0.31764759748E+02  0.32049976539E+02  0.12700000000E+01 0.  1.
         -4    1    1    2    0  501  0.40661905167E+01  0.23287123540E+00  0.57822695782E+01  0.71857968108E+01  0.12700000000E+01 0. -1.
<mgrwt>
<rscale>  0 0.42662670E+01</rscale>
<asrwt>0</asrwt>
<pdfrwt beam="1">0</pdfrwt>
<pdfrwt beam="2">0</pdfrwt>
<totfact> 0.35907680E+11</totfact>
</mgrwt>
</event>
<event>
 4    1  0.1699693E+006  0.3684421E+01  0.7546771E-02  0.2342008E+00
         22   -1    0    0    0    0  0.00000000000E+00  0.00000000000E+00  0.96847262260E+00  0.96847262260E+00  0.00000000000E+00 0. -1.
         22   -1    0    0    0    0 -0.00000000000E+00 -0.00000000000E+00 -0.40528993930E+02  0.40528993930E+02  0.00000000000E+00 0.  1.
          4    1    1    2  501    0  0.15590268741E+01 -0.30873115462E+01 -0.29987553119E+01  0.47505253181E+01  0.12700000000E+01 0. -1.
         -4    1    1    2    0  501 -0.15590268741E+01  0.30873115462E+01 -0.36561765995E+02  0.36746941234E+02  0.12700000000E+01 0.  1.
<mgrwt>
<rscale>  0 0.36844209E+01</rscale>
<asrwt>0</asrwt>
<pdfrwt beam="1">0</pdfrwt>
<pdfrwt beam="2">0</pdfrwt>
<totfact> 0.28627686E+11</totfact>
</mgrwt>
</event>
<event>
 4    1  0.1699693E+006  0.3741038E+01  0.7546771E-02  0.2329709E+00
         22   -1    0    0    0    0  0.00000000000E+00  0.00000000000E+00  0.92793550254E+00  0.92793550254E+00  0.00000000000E+00 0.  1.
         22   -1    0    0    0    0 -0.00000000000E+00 -0.00000000000E+00 -0.15084504564E+02  0.15084504564E+02  0.00000000000E+00 0. -1.
          4    1    1    2  501    0 -0.91583952241E+00 -0.33976022445E+01 -0.69805875246E+01  0.79198462883E+01  0.12700000000E+01 0.  1.
         -4    1    1    2    0  501  0.91583952241E+00  0.33976022445E+01 -0.71759815374E+01  0.80925937787E+01  0.12700000000E+01 0. -1.
<mgrwt>
<rscale>  0 0.37410377E+01</rscale>
<asrwt>0</asrwt>
<pdfrwt beam="1">0</pdfrwt>
<pdfrwt beam="2">0</pdfrwt>
<totfact> 0.10463721E+12</totfact>
</mgrwt>
</event>
<event>
 4    1  0.1699693E+006  0.2367465E+01  0.7546771E-02  0.2770010E+00
         22   -1    0    0    0    0  0.00000000000E+00  0.00000000000E+00  0.36472496435E+01  0.36472496435E+01  0.00000000000E+00 0.  1.
         22   -1    0    0    0    0 -0.00000000000E+00 -0.00000000000E+00 -0.61013428792E+01  0.61013428792E+01  0.00000000000E+00 0. -1.
          4    1    1    2  501    0 -0.17566894833E+01 -0.95185620116E+00  0.29889526506E+01  0.38129681504E+01  0.12700000000E+01 0.  1.
         -4    1    1    2    0  501  0.17566894833E+01  0.95185620116E+00 -0.54430458863E+01  0.59356243723E+01  0.12700000000E+01 0. -1.
<mgrwt>
<rscale>  0 0.23674645E+01</rscale>
<asrwt>0</asrwt>
<pdfrwt beam="1">0</pdfrwt>
<pdfrwt beam="2">0</pdfrwt>
<totfact> 0.64272393E+11</totfact>
</mgrwt>
</event>
