<event>
 4    1  0.3168498E+006  0.3057794E+01  0.7546771E-02  0.2504226E+00
         22   -1    0    0    0    0  0.00000000000E+00  0.00000000000E+00  0.14000556948E+02  0.14000556948E+02  0.00000000000E+00 0. -1.
         22   -1    0    0    0    0 -0.00000000000E+00 -0.00000000000E+00 -0.15403759525E+01  0.15403759525E+01  0.00000000000E+00 0.  1.
          4    1    1    2  501    0 -0.83876202086E+00  0.26521089429E+01  0.38184096785E+00  0.30815428112E+01  0.12700000000E+01 0.  1.
         -4    1    1    2    0  501  0.83876202086E+00 -0.26521089429E+01  0.12078340028E+02  0.12459390089E+02  0.12700000000E+01 0. -1.
<mgrwt>
<rscale>  0 0.30577939E+01</rscale>
<asrwt>0</asrwt>
<pdfrwt beam="1">0</pdfrwt>
<pdfrwt beam="2">0</pdfrwt>
<totfact> 0.64165446E+11</totfact>
</mgrwt>
</event>
<event>
 4    1  0.3168498E+006  0.2138208E+01  0.7546771E-02  0.2893297E+00
         22   -1    0    0    0    0  0.00000000000E+00  0.00000000000E+00  0.19094988828E+01  0.19094988828E+01  0.00000000000E+00 0.  1.
         22   -1    0    0    0    0 -0.00000000000E+00 -0.00000000000E+00 -0.23992893441E+01  0.23992893441E+01  0.00000000000E+00 0.  1.
          4    1    1    2  501    0 -0.17176337966E+01 -0.93630964487E-01 -0.34303883249E+00  0.21655503359E+01  0.12700000000E+01 0.  1.
         -4    1    1    2    0  501  0.17176337966E+01  0.93630964487E-01 -0.14675162885E+00  0.21432378910E+01  0.12700000000E+01 0.  1.
<mgrwt>
<rscale>  0 0.21382078E+01</rscale>
<asrwt>0</asrwt>
<pdfrwt beam="1">0</pdfrwt>
<pdfrwt beam="2">0</pdfrwt>
<totfact> 0.40921901E+12</totfact>
</mgrwt>
</event>
<event>
 4    1  0.3168498E+006  0.3367632E+01  0.7546771E-02  0.2417388E+00
         22   -1    0    0    0    0  0.00000000000E+00  0.00000000000E+00  0.47559969737E+01  0.47559969737E+01  0.00000000000E+00 0.  1.
         22   -1    0    0    0    0 -0.00000000000E+00 -0.00000000000E+00 -0.46304060167E+01  0.46304060167E+01  0.00000000000E+00 0.  1.
          4    1    1    2  501    0  0.23461599461E+01  0.20551348251E+01 -0.32057154874E+01  0.46494685103E+01  0.12700000000E+01 0.  1.
         -4    1    1    2    0  501 -0.23461599461E+01 -0.20551348251E+01  0.33313064445E+01  0.47369344801E+01  0.12700000000E+01 0.  1.
<mgrwt>
<rscale>  0 0.33676321E+01</rscale>
<asrwt>0</asrwt>
<pdfrwt beam="1">0</pdfrwt>
<pdfrwt beam="2">0</pdfrwt>
<totfact> 0.65215110E+11</totfact>
</mgrwt>
</event>
<event>
 4    1  0.3168498E+006  0.2090483E+01  0.7546771E-02  0.2922217E+00
         22   -1    0    0    0    0  0.00000000000E+00  0.00000000000E+00  0.37736674915E+00  0.37736674915E+00  0.00000000000E+00 0.  1.
         22   -1    0    0    0    0 -0.00000000000E+00 -0.00000000000E+00 -0.13984845536E+02  0.13984845536E+02  0.00000000000E+00 0.  1.
          4    1    1    2  501    0 -0.16459377337E+01  0.21933340713E+00 -0.97812653634E+01  0.10002163280E+02  0.12700000000E+01 0.  1.
         -4    1    1    2    0  501  0.16459377337E+01 -0.21933340713E+00 -0.38262134231E+01  0.43600490050E+01  0.12700000000E+01 0.  1.
<mgrwt>
<rscale>  0 0.20904828E+01</rscale>
<asrwt>0</asrwt>
<pdfrwt beam="1">0</pdfrwt>
<pdfrwt beam="2">0</pdfrwt>
<totfact> 0.31804048E+12</totfact>
</mgrwt>
</event>
<event>
 4    1  0.3168498E+006  0.2565598E+01  0.7546771E-02  0.2680298E+00
         22   -1    0    0    0    0  0.00000000000E+00  0.00000000000E+00  0.31264626363E+02  0.31264626363E+02  0.00000000000E+00 0. -1.
         22   -1    0    0    0    0 -0.00000000000E+00 -0.00000000000E+00 -0.30729558951E+00  0.30729558951E+00  0.00000000000E+00 0.  1.
          4    1    1    2  501    0  0.17559516229E-01  0.22291448978E+01  0.66205299714E+01  0.71002614328E+01  0.12700000000E+01 0.  1.
         -4    1    1    2    0  501 -0.17559516229E-01 -0.22291448978E+01  0.24336800802E+02  0.24471660520E+02  0.12700000000E+01 0. -1.
<mgrwt>
<rscale>  0 0.25655984E+01</rscale>
<asrwt>0</asrwt>
<pdfrwt beam="1">0</pdfrwt>
<pdfrwt beam="2">0</pdfrwt>
<totfact> 0.14647610E+12</totfact>
</mgrwt>
</event>
<event>
 4    1  0.3168498E+006  0.2563465E+01  0.7546771E-02  0.2681195E+00
         22   -1    0    0    0    0  0.00000000000E+00  0.00000000000E+00  0.42115256308E+00  0.42115256308E+00  0.00000000000E+00 0.  1.
         22   -1    0    0    0    0 -0.00000000000E+00 -0.00000000000E+00 -0.18241417328E+02  0.18241417328E+02  0.00000000000E+00 0. -1.
          4    1    1    2  501    0  0.17486360478E+01 -0.13786685483E+01 -0.12458773713E+02  0.12719764048E+02  0.12700000000E+01 0. -1.
         -4    1    1    2    0  501 -0.17486360478E+01  0.13786685483E+01 -0.53614910515E+01  0.59428058431E+01  0.12700000000E+01 0.  1.
<mgrwt>
<rscale>  0 0.25634654E+01</rscale>
<asrwt>0</asrwt>
<pdfrwt beam="1">0</pdfrwt>
<pdfrwt beam="2">0</pdfrwt>
<totfact> 0.20250667E+12</totfact>
</mgrwt>
</event>
<event>
 4    1  0.3168498E+006  0.3063490E+01  0.7546771E-02  0.2502490E+00
         22   -1    0    0    0    0  0.00000000000E+00  0.00000000000E+00  0.11409249673E+02  0.11409249673E+02  0.00000000000E+00 0. -1.
         22   -1    0    0    0    0 -0.00000000000E+00 -0.00000000000E+00 -0.86133946145E+00  0.86133946145E+00  0.00000000000E+00 0.  1.
          4    1    1    2  501    0  0.11009203839E+01 -0.25612580867E+01  0.39723998623E+01  0.50164658221E+01  0.12700000000E+01 0.  1.
         -4    1    1    2    0  501 -0.11009203839E+01  0.25612580867E+01  0.65755103497E+01  0.72541233128E+01  0.12700000000E+01 0. -1.
<mgrwt>
<rscale>  0 0.30634896E+01</rscale>
<asrwt>0</asrwt>
<pdfrwt beam="1">0</pdfrwt>
<pdfrwt beam="2">0</pdfrwt>
<totfact> 0.16030909E+12</totfact>
</mgrwt>
</event>
<event>
 4    1  0.3168498E+006  0.2215945E+01  0.7546771E-02  0.2848765E+00
         22   -1    0    0    0    0  0.00000000000E+00  0.00000000000E+00  0.67028760544E+00  0.67028760544E+00  0.00000000000E+00 0.  1.
         22   -1    0    0    0    0 -0.00000000000E+00 -0.00000000000E+00 -0.96319087277E+01  0.96319087277E+01  0.00000000000E+00 0.  1.
          4    1    1    2  501    0  0.17680711079E+01 -0.41404693001E+00 -0.70012780377E+01  0.73435893447E+01  0.12700000000E+01 0.  1.
         -4    1    1    2    0  501 -0.17680711079E+01  0.41404693001E+00 -0.19603430846E+01  0.29586069884E+01  0.12700000000E+01 0.  1.
<mgrwt>
<rscale>  0 0.22159446E+01</rscale>
<asrwt>0</asrwt>
<pdfrwt beam="1">0</pdfrwt>
<pdfrwt beam="2">0</pdfrwt>
<totfact> 0.26178234E+12</totfact>
</mgrwt>
</event>
<event>
 4    1  0.3168498E+006  0.2217457E+01  0.7546771E-02  0.2847928E+00
         22   -1    0    0    0    0  0.00000000000E+00  0.00000000000E+00  0.16301824082E+00  0.16301824082E+00  0.00000000000E+00 0.  1.
         22   -1    0    0    0    0 -0.00000000000E+00 -0.00000000000E+00 -0.38595851853E+02  0.38595851853E+02  0.00000000000E+00 0. -1.
          4    1    1    2  501    0 -0.14173624522E+01  0.11381123811E+01 -0.28274963339E+02  0.28361781818E+02  0.12700000000E+01 0. -1.
         -4    1    1    2    0  501  0.14173624522E+01 -0.11381123811E+01 -0.10157870273E+02  0.10397088275E+02  0.12700000000E+01 0.  1.
<mgrwt>
<rscale>  0 0.22174571E+01</rscale>
<asrwt>0</asrwt>
<pdfrwt beam="1">0</pdfrwt>
<pdfrwt beam="2">0</pdfrwt>
<totfact> 0.22681161E+12</totfact>
</mgrwt>
</event>
<event>
 4    1  0.3168498E+006  0.2310454E+01  0.7546771E-02  0.2798491E+00
         22   -1    0    0    0    0  0.00000000000E+00  0.00000000000E+00  0.27636979951E+02  0.27636979951E+02  0.00000000000E+00 0.  1.
         22   -1    0    0    0    0 -0.00000000000E+00 -0.00000000000E+00 -0.23433022607E+00  0.23433022607E+00  0.00000000000E+00 0. -1.
          4    1    1    2  501    0 -0.18470813218E+01 -0.55999152264E+00  0.78596789825E+01  0.81922374003E+01  0.12700000000E+01 0.  1.
         -4    1    1    2    0  501  0.18470813218E+01  0.55999152264E+00  0.19542970743E+02  0.19679072777E+02  0.12700000000E+01 0. -1.
<mgrwt>
<rscale>  0 0.23104545E+01</rscale>
<asrwt>0</asrwt>
<pdfrwt beam="1">0</pdfrwt>
<pdfrwt beam="2">0</pdfrwt>
<totfact> 0.23213822E+12</totfact>
</mgrwt>
</event>
<event>
 4    1  0.3168498E+006  0.2167369E+01  0.7546771E-02  0.2876231E+00
         22   -1    0    0    0    0  0.00000000000E+00  0.00000000000E+00  0.55212284752E+01  0.55212284752E+01  0.00000000000E+00 0. -1.
         22   -1    0    0    0    0 -0.00000000000E+00 -0.00000000000E+00 -0.11596242240E+01  0.11596242240E+01  0.00000000000E+00 0.  1.
          4    1    1    2  501    0  0.16714247415E+01 -0.53937736344E+00  0.45696810002E+00  0.22150188376E+01  0.12700000000E+01 0.  1.
         -4    1    1    2    0  501 -0.16714247415E+01  0.53937736344E+00  0.39046361511E+01  0.44658338616E+01  0.12700000000E+01 0.  1.
<mgrwt>
<rscale>  0 0.21673691E+01</rscale>
<asrwt>0</asrwt>
<pdfrwt beam="1">0</pdfrwt>
<pdfrwt beam="2">0</pdfrwt>
<totfact> 0.27300847E+12</totfact>
</mgrwt>
</event>
<event>
 4    1  0.3168498E+006  0.2301134E+01  0.7546771E-02  0.2803274E+00
         22   -1    0    0    0    0  0.00000000000E+00  0.00000000000E+00  0.14457472734E+01  0.14457472734E+01  0.00000000000E+00 0. -1.
         22   -1    0    0    0    0 -0.00000000000E+00 -0.00000000000E+00 -0.46880653420E+01  0.46880653420E+01  0.00000000000E+00 0. -1.
          4    1    1    2  501    0 -0.19178577799E+01  0.64335736246E-01 -0.30555274686E+01  0.38251098889E+01  0.12700000000E+01 0. -1.
         -4    1    1    2    0  501  0.19178577799E+01 -0.64335736246E-01 -0.18679060004E+00  0.23087027265E+01  0.12700000000E+01 0. -1.
<mgrwt>
<rscale>  0 0.23011340E+01</rscale>
<asrwt>0</asrwt>
<pdfrwt beam="1">0</pdfrwt>
<pdfrwt beam="2">0</pdfrwt>
<totfact> 0.25730806E+12</totfact>
</mgrwt>
</event>
<event>
 4    1  0.3168498E+006  0.2447029E+01  0.7546771E-02  0.2732354E+00
         22   -1    0    0    0    0  0.00000000000E+00  0.00000000000E+00  0.50274440430E+01  0.50274440430E+01  0.00000000000E+00 0. -1.
         22   -1    0    0    0    0 -0.00000000000E+00 -0.00000000000E+00 -0.12086710191E+01  0.12086710191E+01  0.00000000000E+00 0.  1.
          4    1    1    2  501    0 -0.31084026798E+00 -0.20684366767E+01  0.22858383928E+01  0.33485831505E+01  0.12700000000E+01 0.  1.
         -4    1    1    2    0  501  0.31084026798E+00  0.20684366767E+01  0.15329346311E+01  0.28875319117E+01  0.12700000000E+01 0. -1.
<mgrwt>
<rscale>  0 0.24470292E+01</rscale>
<asrwt>0</asrwt>
<pdfrwt beam="1">0</pdfrwt>
<pdfrwt beam="2">0</pdfrwt>
<totfact> 0.29096096E+12</totfact>
</mgrwt>
</event>
<event>
 4    1  0.3168498E+006  0.2564216E+01  0.7546771E-02  0.2680879E+00
         22   -1    0    0    0    0  0.00000000000E+00  0.00000000000E+00  0.81502928509E+02  0.81502928509E+02  0.00000000000E+00 0. -1.
         22   -1    0    0    0    0 -0.00000000000E+00 -0.00000000000E+00 -0.65898560157E+00  0.65898560157E+00  0.00000000000E+00 0.  1.
          4    1    1    2  501    0  0.38305611252E+00 -0.21944409311E+01  0.19376903976E+01  0.32140079437E+01  0.12700000000E+01 0.  1.
         -4    1    1    2    0  501 -0.38305611252E+00  0.21944409311E+01  0.78906252509E+02  0.78947906166E+02  0.12700000000E+01 0. -1.
<mgrwt>
<rscale>  0 0.25642159E+01</rscale>
<asrwt>0</asrwt>
<pdfrwt beam="1">0</pdfrwt>
<pdfrwt beam="2">0</pdfrwt>
<totfact> 0.17455348E+11</totfact>
</mgrwt>
</event>
<event>
 4    1  0.3168498E+006  0.3462313E+01  0.7546771E-02  0.2393601E+00
         22   -1    0    0    0    0  0.00000000000E+00  0.00000000000E+00  0.81090600667E+01  0.81090600667E+01  0.00000000000E+00 0.  1.
         22   -1    0    0    0    0 -0.00000000000E+00 -0.00000000000E+00 -0.15555140542E+01  0.15555140542E+01  0.00000000000E+00 0. -1.
          4    1    1    2  501    0  0.31987615251E+01  0.37767518044E+00  0.22001410057E+01  0.41022230901E+01  0.12700000000E+01 0. -1.
         -4    1    1    2    0  501 -0.31987615251E+01 -0.37767518044E+00  0.43534050068E+01  0.55623510307E+01  0.12700000000E+01 0.  1.
<mgrwt>
<rscale>  0 0.34623134E+01</rscale>
<asrwt>0</asrwt>
<pdfrwt beam="1">0</pdfrwt>
<pdfrwt beam="2">0</pdfrwt>
<totfact> 0.12312403E+12</totfact>
</mgrwt>
</event>
<event>
 4    1  0.3168498E+006  0.2108370E+01  0.7546771E-02  0.2911229E+00
         22   -1    0    0    0    0  0.00000000000E+00  0.00000000000E+00  0.39976001504E+01  0.39976001504E+01  0.00000000000E+00 0. -1.
         22   -1    0    0    0    0 -0.00000000000E+00 -0.00000000000E+00 -0.12741327724E+01  0.12741327724E+01  0.00000000000E+00 0.  1.
          4    1    1    2  501    0 -0.10406499238E+01 -0.13226381239E+01  0.42138813137E+00  0.21500678659E+01  0.12700000000E+01 0.  1.
         -4    1    1    2    0  501  0.10406499238E+01  0.13226381239E+01  0.23020792466E+01  0.31216650570E+01  0.12700000000E+01 0. -1.
<mgrwt>
<rscale>  0 0.21083700E+01</rscale>
<asrwt>0</asrwt>
<pdfrwt beam="1">0</pdfrwt>
<pdfrwt beam="2">0</pdfrwt>
<totfact> 0.35896879E+12</totfact>
</mgrwt>
</event>
<event>
 4    1  0.3168498E+006  0.2194251E+01  0.7546771E-02  0.2860887E+00
         22   -1    0    0    0    0  0.00000000000E+00  0.00000000000E+00  0.41972601804E+01  0.41972601804E+01  0.00000000000E+00 0. -1.
         22   -1    0    0    0    0 -0.00000000000E+00 -0.00000000000E+00 -0.52721300057E+01  0.52721300057E+01  0.00000000000E+00 0.  1.
          4    1    1    2  501    0  0.28965124130E+00 -0.17657683758E+01 -0.47254841735E+01  0.52100802751E+01  0.12700000000E+01 0.  1.
         -4    1    1    2    0  501 -0.28965124130E+00  0.17657683758E+01  0.36506143482E+01  0.42593099110E+01  0.12700000000E+01 0. -1.
<mgrwt>
<rscale>  0 0.21942506E+01</rscale>
<asrwt>0</asrwt>
<pdfrwt beam="1">0</pdfrwt>
<pdfrwt beam="2">0</pdfrwt>
<totfact> 0.64812865E+11</totfact>
</mgrwt>
</event>
<event>
 4    1  0.3168498E+006  0.2335336E+01  0.7546771E-02  0.2785900E+00
         22   -1    0    0    0    0  0.00000000000E+00  0.00000000000E+00  0.28945282645E+00  0.28945282645E+00  0.00000000000E+00 0.  1.
         22   -1    0    0    0    0 -0.00000000000E+00 -0.00000000000E+00 -0.18859640440E+02  0.18859640440E+02  0.00000000000E+00 0. -1.
          4    1    1    2  501    0  0.10992535091E+01  0.16225084968E+01 -0.89900404004E+01  0.92884131314E+01  0.12700000000E+01 0.  1.
         -4    1    1    2    0  501 -0.10992535091E+01 -0.16225084968E+01 -0.95801472135E+01  0.98606801354E+01  0.12700000000E+01 0. -1.
<mgrwt>
<rscale>  0 0.23353355E+01</rscale>
<asrwt>0</asrwt>
<pdfrwt beam="1">0</pdfrwt>
<pdfrwt beam="2">0</pdfrwt>
<totfact> 0.29609062E+12</totfact>
</mgrwt>
</event>
<event>
 4    1  0.3168498E+006  0.2783369E+01  0.7546771E-02  0.2595413E+00
         22   -1    0    0    0    0  0.00000000000E+00  0.00000000000E+00  0.85270430363E+01  0.85270430363E+01  0.00000000000E+00 0.  1.
         22   -1    0    0    0    0 -0.00000000000E+00 -0.00000000000E+00 -0.92060132765E+00  0.92060132765E+00  0.00000000000E+00 0.  1.
          4    1    1    2  501    0  0.23601121102E+01 -0.75107637277E+00  0.43439583984E+01  0.51591781765E+01  0.12700000000E+01 0.  1.
         -4    1    1    2    0  501 -0.23601121102E+01  0.75107637277E+00  0.32624833103E+01  0.42884661874E+01  0.12700000000E+01 0.  1.
<mgrwt>
<rscale>  0 0.27833693E+01</rscale>
<asrwt>0</asrwt>
<pdfrwt beam="1">0</pdfrwt>
<pdfrwt beam="2">0</pdfrwt>
<totfact> 0.21138858E+12</totfact>
</mgrwt>
</event>
<event>
 4    1  0.3168498E+006  0.4648952E+01  0.7546771E-02  0.2168117E+00
         22   -1    0    0    0    0  0.00000000000E+00  0.00000000000E+00  0.16972123300E+01  0.16972123300E+01  0.00000000000E+00 0.  1.
         22   -1    0    0    0    0 -0.00000000000E+00 -0.00000000000E+00 -0.40361331346E+02  0.40361331346E+02  0.00000000000E+00 0. -1.
          4    1    1    2  501    0 -0.44634608451E+01  0.27815608693E+00 -0.36730441813E+02  0.37023480514E+02  0.12700000000E+01 0. -1.
         -4    1    1    2    0  501  0.44634608451E+01 -0.27815608693E+00 -0.19336772023E+01  0.50350631621E+01  0.12700000000E+01 0.  1.
<mgrwt>
<rscale>  0 0.46489519E+01</rscale>
<asrwt>0</asrwt>
<pdfrwt beam="1">0</pdfrwt>
<pdfrwt beam="2">0</pdfrwt>
<totfact> 0.15121811E+11</totfact>
</mgrwt>
</event>
<event>
 4    1  0.3168498E+006  0.3177141E+01  0.7546771E-02  0.2469002E+00
         22   -1    0    0    0    0  0.00000000000E+00  0.00000000000E+00  0.31058057052E+01  0.31058057052E+01  0.00000000000E+00 0.  1.
         22   -1    0    0    0    0 -0.00000000000E+00 -0.00000000000E+00 -0.34725601017E+01  0.34725601017E+01  0.00000000000E+00 0. -1.
          4    1    1    2  501    0 -0.32198970452E+00 -0.28944168960E+01 -0.10158581440E+01  0.33355950453E+01  0.12700000000E+01 0. -1.
         -4    1    1    2    0  501  0.32198970452E+00  0.28944168960E+01  0.64910374743E+00  0.32427707616E+01  0.12700000000E+01 0.  1.
<mgrwt>
<rscale>  0 0.31771413E+01</rscale>
<asrwt>0</asrwt>
<pdfrwt beam="1">0</pdfrwt>
<pdfrwt beam="2">0</pdfrwt>
<totfact> 0.15100127E+12</totfact>
</mgrwt>
</event>
<event>
 4    1  0.3168498E+006  0.2708562E+01  0.7546771E-02  0.2623160E+00
         22   -1    0    0    0    0  0.00000000000E+00  0.00000000000E+00  0.44699067447E+00  0.44699067447E+00  0.00000000000E+00 0. -1.
         22   -1    0    0    0    0 -0.00000000000E+00 -0.00000000000E+00 -0.16712008378E+02  0.16712008378E+02  0.00000000000E+00 0.  1.
          4    1    1    2  501    0  0.22473036202E+01 -0.82038602763E+00 -0.69842633946E+01  0.74910774900E+01  0.12700000000E+01 0.  1.
         -4    1    1    2    0  501 -0.22473036202E+01  0.82038602763E+00 -0.92807543089E+01  0.96679215625E+01  0.12700000000E+01 0. -1.
<mgrwt>
<rscale>  0 0.27085618E+01</rscale>
<asrwt>0</asrwt>
<pdfrwt beam="1">0</pdfrwt>
<pdfrwt beam="2">0</pdfrwt>
<totfact> 0.21106704E+12</totfact>
</mgrwt>
</event>
<event>
 4    1  0.3168498E+006  0.2157356E+01  0.7546771E-02  0.2882041E+00
         22   -1    0    0    0    0  0.00000000000E+00  0.00000000000E+00  0.99071610651E+01  0.99071610651E+01  0.00000000000E+00 0.  1.
         22   -1    0    0    0    0 -0.00000000000E+00 -0.00000000000E+00 -0.55645196815E+00  0.55645196815E+00  0.00000000000E+00 0.  1.
          4    1    1    2  501    0 -0.13387716456E+01  0.11175750868E+01  0.26105554469E+01  0.33866182742E+01  0.12700000000E+01 0. -1.
         -4    1    1    2    0  501  0.13387716456E+01 -0.11175750868E+01  0.67401536501E+01  0.70769947591E+01  0.12700000000E+01 0. -1.
<mgrwt>
<rscale>  0 0.21573557E+01</rscale>
<asrwt>0</asrwt>
<pdfrwt beam="1">0</pdfrwt>
<pdfrwt beam="2">0</pdfrwt>
<totfact> 0.31238366E+12</totfact>
</mgrwt>
</event>
<event>
 4    1  0.3168498E+006  0.3510023E+01  0.7546771E-02  0.2382040E+00
         22   -1    0    0    0    0  0.00000000000E+00  0.00000000000E+00  0.97596867633E+00  0.97596867633E+00  0.00000000000E+00 0. -1.
         22   -1    0    0    0    0 -0.00000000000E+00 -0.00000000000E+00 -0.45236840702E+02  0.45236840702E+02  0.00000000000E+00 0.  1.
          4    1    1    2  501    0  0.12922973506E+01  0.30062149415E+01 -0.41749716053E+02  0.41897005278E+02  0.12700000000E+01 0.  1.
         -4    1    1    2    0  501 -0.12922973506E+01 -0.30062149415E+01 -0.25111559725E+01  0.43158041006E+01  0.12700000000E+01 0. -1.
<mgrwt>
<rscale>  0 0.35100229E+01</rscale>
<asrwt>0</asrwt>
<pdfrwt beam="1">0</pdfrwt>
<pdfrwt beam="2">0</pdfrwt>
<totfact> 0.24588338E+11</totfact>
</mgrwt>
</event>
<event>
 4    1  0.3168498E+006  0.2689047E+01  0.7546771E-02  0.2630630E+00
         22   -1    0    0    0    0  0.00000000000E+00  0.00000000000E+00  0.89354692498E+01  0.89354692498E+01  0.00000000000E+00 0.  1.
         22   -1    0    0    0    0 -0.00000000000E+00 -0.00000000000E+00 -0.10388058837E+01  0.10388058837E+01  0.00000000000E+00 0. -1.
          4    1    1    2  501    0 -0.60273738795E+00  0.22923313459E+01  0.16039194075E+01  0.31310593773E+01  0.12700000000E+01 0. -1.
         -4    1    1    2    0  501  0.60273738795E+00 -0.22923313459E+01  0.62927439586E+01  0.68432157563E+01  0.12700000000E+01 0.  1.
<mgrwt>
<rscale>  0 0.26890473E+01</rscale>
<asrwt>0</asrwt>
<pdfrwt beam="1">0</pdfrwt>
<pdfrwt beam="2">0</pdfrwt>
<totfact> 0.17406369E+12</totfact>
</mgrwt>
</event>
<event>
 4    1  0.3168498E+006  0.4052380E+01  0.7546771E-02  0.2267392E+00
         22   -1    0    0    0    0  0.00000000000E+00  0.00000000000E+00  0.39903460214E+01  0.39903460214E+01  0.00000000000E+00 0. -1.
         22   -1    0    0    0    0 -0.00000000000E+00 -0.00000000000E+00 -0.13486444755E+02  0.13486444755E+02  0.00000000000E+00 0.  1.
          4    1    1    2  501    0  0.29321020154E+01 -0.24923207794E+01 -0.12032175404E+02  0.12696260475E+02  0.12700000000E+01 0.  1.
         -4    1    1    2    0  501 -0.29321020154E+01  0.24923207794E+01  0.25360766696E+01  0.47805303022E+01  0.12700000000E+01 0. -1.
<mgrwt>
<rscale>  0 0.40523802E+01</rscale>
<asrwt>0</asrwt>
<pdfrwt beam="1">0</pdfrwt>
<pdfrwt beam="2">0</pdfrwt>
<totfact> 0.22199288E+11</totfact>
</mgrwt>
</event>
<event>
 4    1  0.3168498E+006  0.2004326E+01  0.7546771E-02  0.2977814E+00
         22   -1    0    0    0    0  0.00000000000E+00  0.00000000000E+00  0.28851210354E+02  0.28851210354E+02  0.00000000000E+00 0.  1.
         22   -1    0    0    0    0 -0.00000000000E+00 -0.00000000000E+00 -0.20947427312E+00  0.20947427312E+00  0.00000000000E+00 0. -1.
          4    1    1    2  501    0 -0.26455355664E+00  0.15278854222E+01  0.59073722569E+01  0.62381382984E+01  0.12700000000E+01 0. -1.
         -4    1    1    2    0  501  0.26455355664E+00 -0.15278854222E+01  0.22734363824E+02  0.22822546329E+02  0.12700000000E+01 0.  1.
<mgrwt>
<rscale>  0 0.20043259E+01</rscale>
<asrwt>0</asrwt>
<pdfrwt beam="1">0</pdfrwt>
<pdfrwt beam="2">0</pdfrwt>
<totfact> 0.24910763E+12</totfact>
</mgrwt>
</event>
<event>
 4    1  0.3168498E+006  0.2037102E+01  0.7546771E-02  0.2956122E+00
         22   -1    0    0    0    0  0.00000000000E+00  0.00000000000E+00  0.33866088084E+02  0.33866088084E+02  0.00000000000E+00 0. -1.
         22   -1    0    0    0    0 -0.00000000000E+00 -0.00000000000E+00 -0.19053390661E+00  0.19053390661E+00  0.00000000000E+00 0.  1.
          4    1    1    2  501    0  0.15655763629E+01  0.29301263047E+00  0.66650834876E+01  0.69694421331E+01  0.12700000000E+01 0.  1.
         -4    1    1    2    0  501 -0.15655763629E+01 -0.29301263047E+00  0.27010470690E+02  0.27087179857E+02  0.12700000000E+01 0. -1.
<mgrwt>
<rscale>  0 0.20371023E+01</rscale>
<asrwt>0</asrwt>
<pdfrwt beam="1">0</pdfrwt>
<pdfrwt beam="2">0</pdfrwt>
<totfact> 0.22562420E+12</totfact>
</mgrwt>
</event>
<event>
 4    1  0.3168498E+006  0.2333012E+01  0.7546771E-02  0.2787065E+00
         22   -1    0    0    0    0  0.00000000000E+00  0.00000000000E+00  0.22757370021E+01  0.22757370021E+01  0.00000000000E+00 0. -1.
         22   -1    0    0    0    0 -0.00000000000E+00 -0.00000000000E+00 -0.37017966832E+01  0.37017966832E+01  0.00000000000E+00 0.  1.
          4    1    1    2  501    0  0.63672135114E+00 -0.18505753178E+01 -0.24910343086E+01  0.34129452109E+01  0.12700000000E+01 0.  1.
         -4    1    1    2    0  501 -0.63672135114E+00  0.18505753178E+01  0.10649746274E+01  0.25645884744E+01  0.12700000000E+01 0. -1.
<mgrwt>
<rscale>  0 0.23330116E+01</rscale>
<asrwt>0</asrwt>
<pdfrwt beam="1">0</pdfrwt>
<pdfrwt beam="2">0</pdfrwt>
<totfact> 0.20123591E+12</totfact>
</mgrwt>
</event>
<event>
 4    1  0.3168498E+006  0.2023863E+01  0.7546771E-02  0.2964802E+00
         22   -1    0    0    0    0  0.00000000000E+00  0.00000000000E+00  0.77031998337E+01  0.77031998337E+01  0.00000000000E+00 0.  1.
         22   -1    0    0    0    0 -0.00000000000E+00 -0.00000000000E+00 -0.13290708086E+01  0.13290708086E+01  0.00000000000E+00 0. -1.
          4    1    1    2  501    0  0.25364890692E+00  0.15552434107E+01 -0.31089658711E+00  0.20476026280E+01  0.12700000000E+01 0. -1.
         -4    1    1    2    0  501 -0.25364890692E+00 -0.15552434107E+01  0.66850256122E+01  0.69846680143E+01  0.12700000000E+01 0.  1.
<mgrwt>
<rscale>  0 0.20238626E+01</rscale>
<asrwt>0</asrwt>
<pdfrwt beam="1">0</pdfrwt>
<pdfrwt beam="2">0</pdfrwt>
<totfact> 0.15690049E+12</totfact>
</mgrwt>
</event>
<event>
 4    1  0.3168498E+006  0.2047825E+01  0.7546771E-02  0.2949174E+00
         22   -1    0    0    0    0  0.00000000000E+00  0.00000000000E+00  0.99739084904E+00  0.99739084904E+00  0.00000000000E+00 0. -1.
         22   -1    0    0    0    0 -0.00000000000E+00 -0.00000000000E+00 -0.97740834637E+01  0.97740834637E+01  0.00000000000E+00 0.  1.
          4    1    1    2  501    0  0.14964288053E+01  0.58428275218E+00 -0.84538682980E+01  0.86983604607E+01  0.12700000000E+01 0.  1.
         -4    1    1    2    0  501 -0.14964288053E+01 -0.58428275218E+00 -0.32282431659E+00  0.20731138520E+01  0.12700000000E+01 0. -1.
<mgrwt>
<rscale>  0 0.20478246E+01</rscale>
<asrwt>0</asrwt>
<pdfrwt beam="1">0</pdfrwt>
<pdfrwt beam="2">0</pdfrwt>
<totfact> 0.16360284E+12</totfact>
</mgrwt>
</event>
<event>
 4    1  0.3168498E+006  0.2363081E+01  0.7546771E-02  0.2772154E+00
         22   -1    0    0    0    0  0.00000000000E+00  0.00000000000E+00  0.12353880610E+01  0.12353880610E+01  0.00000000000E+00 0. -1.
         22   -1    0    0    0    0 -0.00000000000E+00 -0.00000000000E+00 -0.50807090259E+01  0.50807090259E+01  0.00000000000E+00 0.  1.
          4    1    1    2  501    0  0.11978724822E+01  0.15925935604E+01 -0.29716305999E+01  0.37966750130E+01  0.12700000000E+01 0. -1.
         -4    1    1    2    0  501 -0.11978724822E+01 -0.15925935604E+01 -0.87369036500E+00  0.25194220739E+01  0.12700000000E+01 0.  1.
<mgrwt>
<rscale>  0 0.23630812E+01</rscale>
<asrwt>0</asrwt>
<pdfrwt beam="1">0</pdfrwt>
<pdfrwt beam="2">0</pdfrwt>
<totfact> 0.28023816E+12</totfact>
</mgrwt>
</event>
<event>
 4    1  0.3168498E+006  0.2639263E+01  0.7546771E-02  0.2650145E+00
         22   -1    0    0    0    0  0.00000000000E+00  0.00000000000E+00  0.36429545035E+01  0.36429545035E+01  0.00000000000E+00 0. -1.
         22   -1    0    0    0    0 -0.00000000000E+00 -0.00000000000E+00 -0.21214216980E+01  0.21214216980E+01  0.00000000000E+00 0.  1.
          4    1    1    2  501    0 -0.21186277356E+00  0.23038935631E+01  0.16661044950E+01  0.31211561277E+01  0.12700000000E+01 0. -1.
         -4    1    1    2    0  501  0.21186277356E+00 -0.23038935631E+01 -0.14457168947E+00  0.26432200738E+01  0.12700000000E+01 0.  1.
<mgrwt>
<rscale>  0 0.26392634E+01</rscale>
<asrwt>0</asrwt>
<pdfrwt beam="1">0</pdfrwt>
<pdfrwt beam="2">0</pdfrwt>
<totfact> 0.22246210E+12</totfact>
</mgrwt>
</event>
<event>
 4    1  0.3168498E+006  0.4128706E+01  0.7546771E-02  0.2253347E+00
         22   -1    0    0    0    0  0.00000000000E+00  0.00000000000E+00  0.37900989522E+01  0.37900989522E+01  0.00000000000E+00 0.  1.
         22   -1    0    0    0    0 -0.00000000000E+00 -0.00000000000E+00 -0.61980645931E+01  0.61980645931E+01  0.00000000000E+00 0. -1.
          4    1    1    2  501    0  0.35816411334E+01 -0.16140498644E+01 -0.38198523310E+01  0.56247206157E+01  0.12700000000E+01 0. -1.
         -4    1    1    2    0  501 -0.35816411334E+01  0.16140498644E+01  0.14118866902E+01  0.43634429295E+01  0.12700000000E+01 0.  1.
<mgrwt>
<rscale>  0 0.41287056E+01</rscale>
<asrwt>0</asrwt>
<pdfrwt beam="1">0</pdfrwt>
<pdfrwt beam="2">0</pdfrwt>
<totfact> 0.60298994E+11</totfact>
</mgrwt>
</event>
<event>
 4    1  0.3168498E+006  0.3911669E+01  0.7546771E-02  0.2294504E+00
         22   -1    0    0    0    0  0.00000000000E+00  0.00000000000E+00  0.98861908931E+00  0.98861908931E+00  0.00000000000E+00 0.  1.
         22   -1    0    0    0    0 -0.00000000000E+00 -0.00000000000E+00 -0.16205115840E+02  0.16205115840E+02  0.00000000000E+00 0. -1.
          4    1    1    2  501    0 -0.25939663082E+01 -0.26381045882E+01 -0.94301464195E+01  0.10209251614E+02  0.12700000000E+01 0. -1.
         -4    1    1    2    0  501  0.25939663082E+01  0.26381045882E+01 -0.57863503315E+01  0.69844833156E+01  0.12700000000E+01 0.  1.
<mgrwt>
<rscale>  0 0.39116693E+01</rscale>
<asrwt>0</asrwt>
<pdfrwt beam="1">0</pdfrwt>
<pdfrwt beam="2">0</pdfrwt>
<totfact> 0.89109967E+11</totfact>
</mgrwt>
</event>
<event>
 4    1  0.3168498E+006  0.2593668E+01  0.7546771E-02  0.2668622E+00
         22   -1    0    0    0    0  0.00000000000E+00  0.00000000000E+00  0.29604852577E+01  0.29604852577E+01  0.00000000000E+00 0. -1.
         22   -1    0    0    0    0 -0.00000000000E+00 -0.00000000000E+00 -0.22853119097E+01  0.22853119097E+01  0.00000000000E+00 0. -1.
          4    1    1    2  501    0  0.21077116555E+01 -0.81961156092E+00  0.13967368257E+00  0.25974257008E+01  0.12700000000E+01 0. -1.
         -4    1    1    2    0  501 -0.21077116555E+01  0.81961156092E+00  0.53549966541E+00  0.26483714666E+01  0.12700000000E+01 0. -1.
<mgrwt>
<rscale>  0 0.25936676E+01</rscale>
<asrwt>0</asrwt>
<pdfrwt beam="1">0</pdfrwt>
<pdfrwt beam="2">0</pdfrwt>
<totfact> 0.26016484E+12</totfact>
</mgrwt>
</event>
<event>
 4    1  0.3168498E+006  0.3175762E+01  0.7546771E-02  0.2469395E+00
         22   -1    0    0    0    0  0.00000000000E+00  0.00000000000E+00  0.61313256278E+01  0.61313256278E+01  0.00000000000E+00 0.  1.
         22   -1    0    0    0    0 -0.00000000000E+00 -0.00000000000E+00 -0.25457698756E+01  0.25457698756E+01  0.00000000000E+00 0.  1.
          4    1    1    2  501    0 -0.38707134895E-02 -0.29107639012E+01 -0.78808015257E+00  0.32720837089E+01  0.12700000000E+01 0.  1.
         -4    1    1    2    0  501  0.38707134895E-02  0.29107639012E+01  0.43736359047E+01  0.54050117945E+01  0.12700000000E+01 0.  1.
<mgrwt>
<rscale>  0 0.31757616E+01</rscale>
<asrwt>0</asrwt>
<pdfrwt beam="1">0</pdfrwt>
<pdfrwt beam="2">0</pdfrwt>
<totfact> 0.97272806E+11</totfact>
</mgrwt>
</event>
<event>
 4    1  0.3168498E+006  0.3389599E+01  0.7546771E-02  0.2411766E+00
         22   -1    0    0    0    0  0.00000000000E+00  0.00000000000E+00  0.80713048134E+01  0.80713048134E+01  0.00000000000E+00 0.  1.
         22   -1    0    0    0    0 -0.00000000000E+00 -0.00000000000E+00 -0.14697205916E+01  0.14697205916E+01  0.00000000000E+00 0. -1.
          4    1    1    2  501    0  0.15570832866E+01  0.27298298715E+01  0.41469218297E+01  0.53559630460E+01  0.12700000000E+01 0.  1.
         -4    1    1    2    0  501 -0.15570832866E+01 -0.27298298715E+01  0.24546623922E+01  0.41850623590E+01  0.12700000000E+01 0. -1.
<mgrwt>
<rscale>  0 0.33895987E+01</rscale>
<asrwt>0</asrwt>
<pdfrwt beam="1">0</pdfrwt>
<pdfrwt beam="2">0</pdfrwt>
<totfact> 0.13217019E+12</totfact>
</mgrwt>
</event>
<event>
 4    1  0.3168498E+006  0.2144544E+01  0.7546771E-02  0.2889550E+00
         22   -1    0    0    0    0  0.00000000000E+00  0.00000000000E+00  0.42364994045E+00  0.42364994045E+00  0.00000000000E+00 0. -1.
         22   -1    0    0    0    0 -0.00000000000E+00 -0.00000000000E+00 -0.10989832996E+02  0.10989832996E+02  0.00000000000E+00 0. -1.
          4    1    1    2  501    0 -0.16280533450E+01  0.57932053796E+00 -0.59132599129E+01  0.62901282004E+01  0.12700000000E+01 0. -1.
         -4    1    1    2    0  501  0.16280533450E+01 -0.57932053796E+00 -0.46529231423E+01  0.51233547357E+01  0.12700000000E+01 0. -1.
<mgrwt>
<rscale>  0 0.21445442E+01</rscale>
<asrwt>0</asrwt>
<pdfrwt beam="1">0</pdfrwt>
<pdfrwt beam="2">0</pdfrwt>
<totfact> 0.37473864E+12</totfact>
</mgrwt>
</event>
<event>
 4    1  0.3168498E+006  0.2125188E+01  0.7546771E-02  0.2901062E+00
         22   -1    0    0    0    0  0.00000000000E+00  0.00000000000E+00  0.23384785745E+02  0.23384785745E+02  0.00000000000E+00 0.  1.
         22   -1    0    0    0    0 -0.00000000000E+00 -0.00000000000E+00 -0.22369495231E+00  0.22369495231E+00  0.00000000000E+00 0.  1.
          4    1    1    2  501    0 -0.16479043232E+01 -0.43351278590E+00  0.72175388715E+01  0.75239144969E+01  0.12700000000E+01 0.  1.
         -4    1    1    2    0  501  0.16479043232E+01  0.43351278590E+00  0.15943551921E+02  0.16084566201E+02  0.12700000000E+01 0.  1.
<mgrwt>
<rscale>  0 0.21251875E+01</rscale>
<asrwt>0</asrwt>
<pdfrwt beam="1">0</pdfrwt>
<pdfrwt beam="2">0</pdfrwt>
<totfact> 0.30190949E+12</totfact>
</mgrwt>
</event>
<event>
 4    1  0.3168498E+006  0.4221587E+01  0.7546771E-02  0.2236838E+00
         22   -1    0    0    0    0  0.00000000000E+00  0.00000000000E+00  0.53075119621E+01  0.53075119621E+01  0.00000000000E+00 0. -1.
         22   -1    0    0    0    0 -0.00000000000E+00 -0.00000000000E+00 -0.47239939205E+01  0.47239939205E+01  0.00000000000E+00 0.  1.
          4    1    1    2  501    0 -0.38863909438E+01  0.10511232470E+01 -0.24055501464E+01  0.48588544077E+01  0.12700000000E+01 0.  1.
         -4    1    1    2    0  501  0.38863909438E+01 -0.10511232470E+01  0.29890681880E+01  0.51726514749E+01  0.12700000000E+01 0. -1.
<mgrwt>
<rscale>  0 0.42215867E+01</rscale>
<asrwt>0</asrwt>
<pdfrwt beam="1">0</pdfrwt>
<pdfrwt beam="2">0</pdfrwt>
<totfact> 0.55931284E+11</totfact>
</mgrwt>
</event>
<event>
 4    1  0.3168498E+006  0.2161940E+01  0.7546771E-02  0.2879375E+00
         22   -1    0    0    0    0  0.00000000000E+00  0.00000000000E+00  0.72216900835E+01  0.72216900835E+01  0.00000000000E+00 0. -1.
         22   -1    0    0    0    0 -0.00000000000E+00 -0.00000000000E+00 -0.64759678766E+00  0.64759678766E+00  0.00000000000E+00 0.  1.
          4    1    1    2  501    0 -0.17495235515E+01  0.15855980820E-01  0.31914753291E+01  0.38548020501E+01  0.12700000000E+01 0.  1.
         -4    1    1    2    0  501  0.17495235515E+01 -0.15855980820E-01  0.33826179668E+01  0.40144848211E+01  0.12700000000E+01 0. -1.
<mgrwt>
<rscale>  0 0.21619399E+01</rscale>
<asrwt>0</asrwt>
<pdfrwt beam="1">0</pdfrwt>
<pdfrwt beam="2">0</pdfrwt>
<totfact> 0.38493129E+12</totfact>
</mgrwt>
</event>
<event>
 4    1  0.3168498E+006  0.3373175E+01  0.7546771E-02  0.2415963E+00
         22   -1    0    0    0    0  0.00000000000E+00  0.00000000000E+00  0.20349537595E+01  0.20349537595E+01  0.00000000000E+00 0.  1.
         22   -1    0    0    0    0 -0.00000000000E+00 -0.00000000000E+00 -0.56176143494E+01  0.56176143494E+01  0.00000000000E+00 0. -1.
          4    1    1    2  501    0 -0.13194359853E+01 -0.28327549243E+01 -0.15301260450E+01  0.37039975019E+01  0.12700000000E+01 0.  1.
         -4    1    1    2    0  501  0.13194359853E+01  0.28327549243E+01 -0.20525345449E+01  0.39485706070E+01  0.12700000000E+01 0.  1.
<mgrwt>
<rscale>  0 0.33731753E+01</rscale>
<asrwt>0</asrwt>
<pdfrwt beam="1">0</pdfrwt>
<pdfrwt beam="2">0</pdfrwt>
<totfact> 0.13999056E+12</totfact>
</mgrwt>
</event>
<event>
 4    1  0.3168498E+006  0.3368055E+01  0.7546771E-02  0.2417280E+00
         22   -1    0    0    0    0  0.00000000000E+00  0.00000000000E+00  0.13675020191E+01  0.13675020191E+01  0.00000000000E+00 0.  1.
         22   -1    0    0    0    0 -0.00000000000E+00 -0.00000000000E+00 -0.83820398314E+01  0.83820398314E+01  0.00000000000E+00 0. -1.
          4    1    1    2  501    0  0.16106631929E+01  0.26714520831E+01 -0.40032616184E+01  0.52316245793E+01  0.12700000000E+01 0. -1.
         -4    1    1    2    0  501 -0.16106631929E+01 -0.26714520831E+01 -0.30112761939E+01  0.45179172712E+01  0.12700000000E+01 0.  1.
<mgrwt>
<rscale>  0 0.33680547E+01</rscale>
<asrwt>0</asrwt>
<pdfrwt beam="1">0</pdfrwt>
<pdfrwt beam="2">0</pdfrwt>
<totfact> 0.13721045E+12</totfact>
</mgrwt>
</event>
<event>
 4    1  0.3168498E+006  0.2055248E+01  0.7546771E-02  0.2944404E+00
         22   -1    0    0    0    0  0.00000000000E+00  0.00000000000E+00  0.11618653673E+03  0.11618653673E+03  0.00000000000E+00 0.  1.
         22   -1    0    0    0    0 -0.00000000000E+00 -0.00000000000E+00 -0.79964819599E-01  0.79964819599E-01  0.00000000000E+00 0. -1.
          4    1    1    2  501    0  0.13914256566E+01  0.82163075572E+00  0.15122997598E+02  0.15262014900E+02  0.12700000000E+01 0. -1.
         -4    1    1    2    0  501 -0.13914256566E+01 -0.82163075572E+00  0.10098357431E+03  0.10100448665E+03  0.12700000000E+01 0.  1.
<mgrwt>
<rscale>  0 0.20552475E+01</rscale>
<asrwt>0</asrwt>
<pdfrwt beam="1">0</pdfrwt>
<pdfrwt beam="2">0</pdfrwt>
<totfact> 0.11214282E+12</totfact>
</mgrwt>
</event>
<event>
 4    1  0.3168498E+006  0.3183173E+01  0.7546771E-02  0.2467284E+00
         22   -1    0    0    0    0  0.00000000000E+00  0.00000000000E+00  0.65799293365E+01  0.65799293365E+01  0.00000000000E+00 0. -1.
         22   -1    0    0    0    0 -0.00000000000E+00 -0.00000000000E+00 -0.53035984671E+01  0.53035984671E+01  0.00000000000E+00 0.  1.
          4    1    1    2  501    0  0.13735201522E+01 -0.25754866051E+01 -0.43672037872E+01  0.54041704063E+01  0.12700000000E+01 0.  1.
         -4    1    1    2    0  501 -0.13735201522E+01  0.25754866051E+01  0.56435346566E+01  0.64793573973E+01  0.12700000000E+01 0. -1.
<mgrwt>
<rscale>  0 0.31831728E+01</rscale>
<asrwt>0</asrwt>
<pdfrwt beam="1">0</pdfrwt>
<pdfrwt beam="2">0</pdfrwt>
<totfact> 0.37765116E+11</totfact>
</mgrwt>
</event>
<event>
 4    1  0.3168498E+006  0.2341989E+01  0.7546771E-02  0.2782575E+00
         22   -1    0    0    0    0  0.00000000000E+00  0.00000000000E+00  0.20483851818E+01  0.20483851818E+01  0.00000000000E+00 0.  1.
         22   -1    0    0    0    0 -0.00000000000E+00 -0.00000000000E+00 -0.31807527242E+01  0.31807527242E+01  0.00000000000E+00 0.  1.
          4    1    1    2  501    0 -0.49897663082E+00 -0.19034268539E+01 -0.16059898134E+01  0.28397384998E+01  0.12700000000E+01 0.  1.
         -4    1    1    2    0  501  0.49897663082E+00  0.19034268539E+01  0.47362227102E+00  0.23893994061E+01  0.12700000000E+01 0.  1.
<mgrwt>
<rscale>  0 0.23419888E+01</rscale>
<asrwt>0</asrwt>
<pdfrwt beam="1">0</pdfrwt>
<pdfrwt beam="2">0</pdfrwt>
<totfact> 0.27159526E+12</totfact>
</mgrwt>
</event>
<event>
 4    1  0.3168498E+006  0.2112007E+01  0.7546771E-02  0.2909017E+00
         22   -1    0    0    0    0  0.00000000000E+00  0.00000000000E+00  0.21292667462E+01  0.21292667462E+01  0.00000000000E+00 0.  1.
         22   -1    0    0    0    0 -0.00000000000E+00 -0.00000000000E+00 -0.45209639502E+01  0.45209639502E+01  0.00000000000E+00 0.  1.
          4    1    1    2  501    0  0.16853338073E+01 -0.85570069169E-01 -0.36316592198E+01  0.42011332956E+01  0.12700000000E+01 0.  1.
         -4    1    1    2    0  501 -0.16853338073E+01  0.85570069169E-01  0.12399620158E+01  0.24490974009E+01  0.12700000000E+01 0.  1.
<mgrwt>
<rscale>  0 0.21120067E+01</rscale>
<asrwt>0</asrwt>
<pdfrwt beam="1">0</pdfrwt>
<pdfrwt beam="2">0</pdfrwt>
<totfact> 0.17177958E+12</totfact>
</mgrwt>
</event>
<event>
 4    1  0.3168498E+006  0.2208286E+01  0.7546771E-02  0.2853018E+00
         22   -1    0    0    0    0  0.00000000000E+00  0.00000000000E+00  0.49228880752E+01  0.49228880752E+01  0.00000000000E+00 0. -1.
         22   -1    0    0    0    0 -0.00000000000E+00 -0.00000000000E+00 -0.10673837350E+01  0.10673837350E+01  0.00000000000E+00 0. -1.
          4    1    1    2  501    0  0.12170534137E+01  0.13350678338E+01  0.27311696736E+01  0.35122375943E+01  0.12700000000E+01 0. -1.
         -4    1    1    2    0  501 -0.12170534137E+01 -0.13350678338E+01  0.11243346666E+01  0.24780342159E+01  0.12700000000E+01 0. -1.
<mgrwt>
<rscale>  0 0.22082856E+01</rscale>
<asrwt>0</asrwt>
<pdfrwt beam="1">0</pdfrwt>
<pdfrwt beam="2">0</pdfrwt>
<totfact> 0.34388944E+12</totfact>
</mgrwt>
</event>
<event>
 4    1  0.3168498E+006  0.2297119E+01  0.7546771E-02  0.2805346E+00
         22   -1    0    0    0    0  0.00000000000E+00  0.00000000000E+00  0.13531660812E+01  0.13531660812E+01  0.00000000000E+00 0.  1.
         22   -1    0    0    0    0 -0.00000000000E+00 -0.00000000000E+00 -0.50920616896E+01  0.50920616896E+01  0.00000000000E+00 0. -1.
          4    1    1    2  501    0 -0.85546988320E+00  0.17123161983E+01 -0.34289662719E+01  0.41272951407E+01  0.12700000000E+01 0.  1.
         -4    1    1    2    0  501  0.85546988320E+00 -0.17123161983E+01 -0.30992933654E+00  0.23179326301E+01  0.12700000000E+01 0.  1.
<mgrwt>
<rscale>  0 0.22971190E+01</rscale>
<asrwt>0</asrwt>
<pdfrwt beam="1">0</pdfrwt>
<pdfrwt beam="2">0</pdfrwt>
<totfact> 0.25176811E+12</totfact>
</mgrwt>
</event>
<event>
 4    1  0.3168498E+006  0.2062774E+01  0.7546771E-02  0.2939603E+00
         22   -1    0    0    0    0  0.00000000000E+00  0.00000000000E+00  0.30099074173E+02  0.30099074173E+02  0.00000000000E+00 0.  1.
         22   -1    0    0    0    0 -0.00000000000E+00 -0.00000000000E+00 -0.15122869610E+00  0.15122869610E+00  0.00000000000E+00 0. -1.
          4    1    1    2  501    0  0.15982414182E+01 -0.29624800068E+00  0.11111659812E+02  0.11301505311E+02  0.12700000000E+01 0.  1.
         -4    1    1    2    0  501 -0.15982414182E+01  0.29624800068E+00  0.18836185664E+02  0.18948797558E+02  0.12700000000E+01 0.  1.
<mgrwt>
<rscale>  0 0.20627745E+01</rscale>
<asrwt>0</asrwt>
<pdfrwt beam="1">0</pdfrwt>
<pdfrwt beam="2">0</pdfrwt>
<totfact> 0.33932731E+12</totfact>
</mgrwt>
</event>
<event>
 4    1  0.3168498E+006  0.2929751E+01  0.7546771E-02  0.2544856E+00
         22   -1    0    0    0    0  0.00000000000E+00  0.00000000000E+00  0.51151675034E+02  0.51151675034E+02  0.00000000000E+00 0. -1.
         22   -1    0    0    0    0 -0.00000000000E+00 -0.00000000000E+00 -0.29163177789E+00  0.29163177789E+00  0.00000000000E+00 0.  1.
          4    1    1    2  501    0  0.22366270873E-01  0.26400834369E+01  0.86693657735E+01  0.91510296534E+01  0.12700000000E+01 0. -1.
         -4    1    1    2    0  501 -0.22366270873E-01 -0.26400834369E+01  0.42190677482E+02  0.42292277158E+02  0.12700000000E+01 0. -1.
<mgrwt>
<rscale>  0 0.29297510E+01</rscale>
<asrwt>0</asrwt>
<pdfrwt beam="1">0</pdfrwt>
<pdfrwt beam="2">0</pdfrwt>
<totfact> 0.81970670E+11</totfact>
</mgrwt>
</event>
<event>
 4    1  0.3168498E+006  0.2371131E+01  0.7546771E-02  0.2768223E+00
         22   -1    0    0    0    0  0.00000000000E+00  0.00000000000E+00  0.43227803537E+02  0.43227803537E+02  0.00000000000E+00 0.  1.
         22   -1    0    0    0    0 -0.00000000000E+00 -0.00000000000E+00 -0.13661699236E+00  0.13661699236E+00  0.00000000000E+00 0. -1.
          4    1    1    2  501    0  0.19756522218E+01 -0.32582181305E+00  0.16795932467E+02  0.16962476499E+02  0.12700000000E+01 0. -1.
         -4    1    1    2    0  501 -0.19756522218E+01  0.32582181305E+00  0.26295254078E+02  0.26401944030E+02  0.12700000000E+01 0.  1.
<mgrwt>
<rscale>  0 0.23711309E+01</rscale>
<asrwt>0</asrwt>
<pdfrwt beam="1">0</pdfrwt>
<pdfrwt beam="2">0</pdfrwt>
<totfact> 0.23823802E+12</totfact>
</mgrwt>
</event>
<event>
 4    1  0.3168498E+006  0.2632076E+01  0.7546771E-02  0.2653018E+00
         22   -1    0    0    0    0  0.00000000000E+00  0.00000000000E+00  0.16865171342E+00  0.16865171342E+00  0.00000000000E+00 0. -1.
         22   -1    0    0    0    0 -0.00000000000E+00 -0.00000000000E+00 -0.43155495539E+02  0.43155495539E+02  0.00000000000E+00 0.  1.
          4    1    1    2  501    0 -0.95560757504E+00 -0.20980318158E+01 -0.26246600060E+02  0.26378245545E+02  0.12700000000E+01 0. -1.
         -4    1    1    2    0  501  0.95560757504E+00  0.20980318158E+01 -0.16740243766E+02  0.16945901708E+02  0.12700000000E+01 0.  1.
<mgrwt>
<rscale>  0 0.26320759E+01</rscale>
<asrwt>0</asrwt>
<pdfrwt beam="1">0</pdfrwt>
<pdfrwt beam="2">0</pdfrwt>
<totfact> 0.18890280E+12</totfact>
</mgrwt>
</event>
<event>
 4    1  0.3168498E+006  0.2185913E+01  0.7546771E-02  0.2865607E+00
         22   -1    0    0    0    0  0.00000000000E+00  0.00000000000E+00  0.51019160249E+01  0.51019160249E+01  0.00000000000E+00 0.  1.
         22   -1    0    0    0    0 -0.00000000000E+00 -0.00000000000E+00 -0.16288623173E+01  0.16288623173E+01  0.00000000000E+00 0.  1.
          4    1    1    2  501    0 -0.10191369588E+01  0.14583129317E+01 -0.45750571869E+00  0.22332774638E+01  0.12700000000E+01 0.  1.
         -4    1    1    2    0  501  0.10191369588E+01 -0.14583129317E+01  0.39305594263E+01  0.44975008784E+01  0.12700000000E+01 0.  1.
<mgrwt>
<rscale>  0 0.21859133E+01</rscale>
<asrwt>0</asrwt>
<pdfrwt beam="1">0</pdfrwt>
<pdfrwt beam="2">0</pdfrwt>
<totfact> 0.20293236E+12</totfact>
</mgrwt>
</event>
<event>
 4    1  0.3168498E+006  0.2394110E+01  0.7546771E-02  0.2757138E+00
         22   -1    0    0    0    0  0.00000000000E+00  0.00000000000E+00  0.23103785767E+02  0.23103785767E+02  0.00000000000E+00 0.  1.
         22   -1    0    0    0    0 -0.00000000000E+00 -0.00000000000E+00 -0.40488393777E+00  0.40488393777E+00  0.00000000000E+00 0.  1.
          4    1    1    2  501    0  0.74967181616E+00  0.18859622555E+01  0.40346784755E+01  0.46915234052E+01  0.12700000000E+01 0.  1.
         -4    1    1    2    0  501 -0.74967181616E+00 -0.18859622555E+01  0.18664223354E+02  0.18817146300E+02  0.12700000000E+01 0.  1.
<mgrwt>
<rscale>  0 0.23941097E+01</rscale>
<asrwt>0</asrwt>
<pdfrwt beam="1">0</pdfrwt>
<pdfrwt beam="2">0</pdfrwt>
<totfact> 0.15760013E+12</totfact>
</mgrwt>
</event>
<event>
 4    1  0.3168498E+006  0.4362015E+01  0.7546771E-02  0.2213011E+00
         22   -1    0    0    0    0  0.00000000000E+00  0.00000000000E+00  0.93126639617E+01  0.93126639617E+01  0.00000000000E+00 0.  1.
         22   -1    0    0    0    0 -0.00000000000E+00 -0.00000000000E+00 -0.20644565811E+01  0.20644565811E+01  0.00000000000E+00 0. -1.
          4    1    1    2  501    0 -0.49054073326E+00 -0.41441094260E+01  0.42020030889E+01  0.60567320483E+01  0.12700000000E+01 0. -1.
         -4    1    1    2    0  501  0.49054073326E+00  0.41441094260E+01  0.30462042917E+01  0.53203884945E+01  0.12700000000E+01 0.  1.
<mgrwt>
<rscale>  0 0.43620148E+01</rscale>
<asrwt>0</asrwt>
<pdfrwt beam="1">0</pdfrwt>
<pdfrwt beam="2">0</pdfrwt>
<totfact> 0.75156593E+11</totfact>
</mgrwt>
</event>
<event>
 4    1  0.3168498E+006  0.2209418E+01  0.7546771E-02  0.2852388E+00
         22   -1    0    0    0    0  0.00000000000E+00  0.00000000000E+00  0.15226649656E+01  0.15226649656E+01  0.00000000000E+00 0. -1.
         22   -1    0    0    0    0 -0.00000000000E+00 -0.00000000000E+00 -0.82217514774E+01  0.82217514774E+01  0.00000000000E+00 0.  1.
          4    1    1    2  501    0  0.60671407771E+00 -0.17030934605E+01 -0.71550763130E+01  0.74884341722E+01  0.12700000000E+01 0.  1.
         -4    1    1    2    0  501 -0.60671407771E+00  0.17030934605E+01  0.45598980128E+00  0.22559822708E+01  0.12700000000E+01 0. -1.
<mgrwt>
<rscale>  0 0.22094183E+01</rscale>
<asrwt>0</asrwt>
<pdfrwt beam="1">0</pdfrwt>
<pdfrwt beam="2">0</pdfrwt>
<totfact> 0.12410211E+12</totfact>
</mgrwt>
</event>
<event>
 4    1  0.3168498E+006  0.2161239E+01  0.7546771E-02  0.2879782E+00
         22   -1    0    0    0    0  0.00000000000E+00  0.00000000000E+00  0.34142998512E+02  0.34142998512E+02  0.00000000000E+00 0. -1.
         22   -1    0    0    0    0 -0.00000000000E+00 -0.00000000000E+00 -0.15133471308E+00  0.15133471308E+00  0.00000000000E+00 0.  1.
          4    1    1    2  501    0 -0.15929341636E+01 -0.72153723208E+00  0.11682807138E+02  0.11881032693E+02  0.12700000000E+01 0. -1.
         -4    1    1    2    0  501  0.15929341636E+01  0.72153723208E+00  0.22308856661E+02  0.22413300532E+02  0.12700000000E+01 0. -1.
<mgrwt>
<rscale>  0 0.21612393E+01</rscale>
<asrwt>0</asrwt>
<pdfrwt beam="1">0</pdfrwt>
<pdfrwt beam="2">0</pdfrwt>
<totfact> 0.28856403E+12</totfact>
</mgrwt>
</event>
<event>
 4    1  0.3168498E+006  0.2152602E+01  0.7546771E-02  0.2884817E+00
         22   -1    0    0    0    0  0.00000000000E+00  0.00000000000E+00  0.84274076557E+01  0.84274076557E+01  0.00000000000E+00 0. -1.
         22   -1    0    0    0    0 -0.00000000000E+00 -0.00000000000E+00 -0.55059278623E+00  0.55059278623E+00  0.00000000000E+00 0.  1.
          4    1    1    2  501    0 -0.38130619541E+00  0.16957007280E+01  0.41047908495E+01  0.46349760832E+01  0.12700000000E+01 0. -1.
         -4    1    1    2    0  501  0.38130619541E+00 -0.16957007280E+01  0.37720240200E+01  0.43430243588E+01  0.12700000000E+01 0. -1.
<mgrwt>
<rscale>  0 0.21526020E+01</rscale>
<asrwt>0</asrwt>
<pdfrwt beam="1">0</pdfrwt>
<pdfrwt beam="2">0</pdfrwt>
<totfact> 0.38431222E+12</totfact>
</mgrwt>
</event>
<event>
 4    1  0.3168498E+006  0.3164413E+01  0.7546771E-02  0.2472646E+00
         22   -1    0    0    0    0  0.00000000000E+00  0.00000000000E+00  0.15894303924E+00  0.15894303924E+00  0.00000000000E+00 0.  1.
         22   -1    0    0    0    0 -0.00000000000E+00 -0.00000000000E+00 -0.74775531860E+02  0.74775531860E+02  0.00000000000E+00 0. -1.
          4    1    1    2  501    0  0.53476104517E+00 -0.28486205985E+01 -0.52176237970E+02  0.52272108408E+02  0.12700000000E+01 0.  1.
         -4    1    1    2    0  501 -0.53476104517E+00  0.28486205985E+01 -0.22440350850E+02  0.22662366491E+02  0.12700000000E+01 0. -1.
<mgrwt>
<rscale>  0 0.31644129E+01</rscale>
<asrwt>0</asrwt>
<pdfrwt beam="1">0</pdfrwt>
<pdfrwt beam="2">0</pdfrwt>
<totfact> 0.96970023E+11</totfact>
</mgrwt>
</event>
<event>
 4    1  0.3168498E+006  0.3716689E+01  0.7546771E-02  0.2334958E+00
         22   -1    0    0    0    0  0.00000000000E+00  0.00000000000E+00  0.54057841021E+01  0.54057841021E+01  0.00000000000E+00 0. -1.
         22   -1    0    0    0    0 -0.00000000000E+00 -0.00000000000E+00 -0.29086774488E+01  0.29086774488E+01  0.00000000000E+00 0.  1.
          4    1    1    2  501    0 -0.29989459426E+01 -0.17908659829E+01 -0.20032807603E+00  0.37220839691E+01  0.12700000000E+01 0.  1.
         -4    1    1    2    0  501  0.29989459426E+01  0.17908659829E+01  0.26974347293E+01  0.45923775818E+01  0.12700000000E+01 0. -1.
<mgrwt>
<rscale>  0 0.37166891E+01</rscale>
<asrwt>0</asrwt>
<pdfrwt beam="1">0</pdfrwt>
<pdfrwt beam="2">0</pdfrwt>
<totfact> 0.96731389E+11</totfact>
</mgrwt>
</event>
<event>
 4    1  0.3168498E+006  0.5033653E+01  0.7546771E-02  0.2119008E+00
         22   -1    0    0    0    0  0.00000000000E+00  0.00000000000E+00  0.99858458419E+01  0.99858458419E+01  0.00000000000E+00 0. -1.
         22   -1    0    0    0    0 -0.00000000000E+00 -0.00000000000E+00 -0.45634579424E+01  0.45634579424E+01  0.00000000000E+00 0.  1.
          4    1    1    2  501    0 -0.43499327052E+01 -0.21915410251E+01  0.75584461212E+01  0.90811769266E+01  0.12700000000E+01 0. -1.
         -4    1    1    2    0  501  0.43499327052E+01  0.21915410251E+01 -0.21360582218E+01  0.54681268577E+01  0.12700000000E+01 0.  1.
<mgrwt>
<rscale>  0 0.50336534E+01</rscale>
<asrwt>0</asrwt>
<pdfrwt beam="1">0</pdfrwt>
<pdfrwt beam="2">0</pdfrwt>
<totfact> 0.27325875E+11</totfact>
</mgrwt>
</event>
<event>
 4    1  0.3168498E+006  0.3237991E+01  0.7546771E-02  0.2451932E+00
         22   -1    0    0    0    0  0.00000000000E+00  0.00000000000E+00  0.23144009466E+02  0.23144009466E+02  0.00000000000E+00 0.  1.
         22   -1    0    0    0    0 -0.00000000000E+00 -0.00000000000E+00 -0.60002512961E+00  0.60002512961E+00  0.00000000000E+00 0. -1.
          4    1    1    2  501    0 -0.29266699626E+01  0.55343560163E+00  0.53955679690E+01  0.62925941982E+01  0.12700000000E+01 0. -1.
         -4    1    1    2    0  501  0.29266699626E+01 -0.55343560163E+00  0.17148416367E+02  0.17451440397E+02  0.12700000000E+01 0.  1.
<mgrwt>
<rscale>  0 0.32379914E+01</rscale>
<asrwt>0</asrwt>
<pdfrwt beam="1">0</pdfrwt>
<pdfrwt beam="2">0</pdfrwt>
<totfact> 0.10086543E+12</totfact>
</mgrwt>
</event>
<event>
 4    1  0.3168498E+006  0.2021635E+01  0.7546771E-02  0.2966273E+00
         22   -1    0    0    0    0  0.00000000000E+00  0.00000000000E+00  0.33313581651E+01  0.33313581651E+01  0.00000000000E+00 0.  1.
         22   -1    0    0    0    0 -0.00000000000E+00 -0.00000000000E+00 -0.12716936578E+01  0.12716936578E+01  0.00000000000E+00 0.  1.
          4    1    1    2  501    0  0.12669741107E+01 -0.93213951693E+00  0.59754162295E+00  0.21080947482E+01  0.12700000000E+01 0.  1.
         -4    1    1    2    0  501 -0.12669741107E+01  0.93213951693E+00  0.14621228843E+01  0.24949570748E+01  0.12700000000E+01 0.  1.
<mgrwt>
<rscale>  0 0.20216349E+01</rscale>
<asrwt>0</asrwt>
<pdfrwt beam="1">0</pdfrwt>
<pdfrwt beam="2">0</pdfrwt>
<totfact> 0.44560512E+12</totfact>
</mgrwt>
</event>
<event>
 4    1  0.3168498E+006  0.4392347E+01  0.7546771E-02  0.2208034E+00
         22   -1    0    0    0    0  0.00000000000E+00  0.00000000000E+00  0.72970511195E+00  0.72970511195E+00  0.00000000000E+00 0.  1.
         22   -1    0    0    0    0 -0.00000000000E+00 -0.00000000000E+00 -0.79312114832E+02  0.79312114832E+02  0.00000000000E+00 0. -1.
          4    1    1    2  501    0 -0.26438693561E+01 -0.32695205106E+01 -0.71967622555E+02  0.72101535391E+02  0.12700000000E+01 0. -1.
         -4    1    1    2    0  501  0.26438693561E+01  0.32695205106E+01 -0.66147871653E+01  0.79402845531E+01  0.12700000000E+01 0.  1.
<mgrwt>
<rscale>  0 0.43923467E+01</rscale>
<asrwt>0</asrwt>
<pdfrwt beam="1">0</pdfrwt>
<pdfrwt beam="2">0</pdfrwt>
<totfact> 0.16142478E+11</totfact>
</mgrwt>
</event>
<event>
 4    1  0.3168498E+006  0.9270787E+01  0.7546771E-02  0.1810643E+00
         22   -1    0    0    0    0  0.00000000000E+00  0.00000000000E+00  0.39450415852E+01  0.39450415852E+01  0.00000000000E+00 0.  1.
         22   -1    0    0    0    0 -0.00000000000E+00 -0.00000000000E+00 -0.21847681347E+02  0.21847681347E+02  0.00000000000E+00 0.  1.
          4    1    1    2  501    0  0.91831338817E+01 -0.68086750257E-01 -0.96354196679E+01  0.13371192762E+02  0.12700000000E+01 0.  1.
         -4    1    1    2    0  501 -0.91831338817E+01  0.68086750257E-01 -0.82672200939E+01  0.12421530170E+02  0.12700000000E+01 0.  1.
<mgrwt>
<rscale>  0 0.92707866E+01</rscale>
<asrwt>0</asrwt>
<pdfrwt beam="1">0</pdfrwt>
<pdfrwt beam="2">0</pdfrwt>
<totfact> 0.12380782E+11</totfact>
</mgrwt>
</event>
<event>
 4    1  0.3168498E+006  0.2103359E+01  0.7546771E-02  0.2914289E+00
         22   -1    0    0    0    0  0.00000000000E+00  0.00000000000E+00  0.13389012638E+01  0.13389012638E+01  0.00000000000E+00 0. -1.
         22   -1    0    0    0    0 -0.00000000000E+00 -0.00000000000E+00 -0.37027262892E+01  0.37027262892E+01  0.00000000000E+00 0.  1.
          4    1    1    2  501    0  0.88146931696E+00  0.14262642820E+01 -0.35500023130E+00  0.21331064491E+01  0.12700000000E+01 0.  1.
         -4    1    1    2    0  501 -0.88146931696E+00 -0.14262642820E+01 -0.20088247941E+01  0.29085211040E+01  0.12700000000E+01 0.  1.
<mgrwt>
<rscale>  0 0.21033587E+01</rscale>
<asrwt>0</asrwt>
<pdfrwt beam="1">0</pdfrwt>
<pdfrwt beam="2">0</pdfrwt>
<totfact> 0.37107718E+12</totfact>
</mgrwt>
</event>
<event>
 4    1  0.3168498E+006  0.2850974E+01  0.7546771E-02  0.2571480E+00
         22   -1    0    0    0    0  0.00000000000E+00  0.00000000000E+00  0.43442080555E+01  0.43442080555E+01  0.00000000000E+00 0. -1.
         22   -1    0    0    0    0 -0.00000000000E+00 -0.00000000000E+00 -0.73738122157E+01  0.73738122157E+01  0.00000000000E+00 0.  1.
          4    1    1    2  501    0 -0.21708036564E+01  0.13426695061E+01 -0.65761970137E+01  0.71675949299E+01  0.12700000000E+01 0.  1.
         -4    1    1    2    0  501  0.21708036564E+01 -0.13426695061E+01  0.35465928535E+01  0.45504253412E+01  0.12700000000E+01 0. -1.
<mgrwt>
<rscale>  0 0.28509735E+01</rscale>
<asrwt>0</asrwt>
<pdfrwt beam="1">0</pdfrwt>
<pdfrwt beam="2">0</pdfrwt>
<totfact> 0.41726388E+11</totfact>
</mgrwt>
</event>
<event>
 4    1  0.3168498E+006  0.2357923E+01  0.7546771E-02  0.2774686E+00
         22   -1    0    0    0    0  0.00000000000E+00  0.00000000000E+00  0.42762312344E+01  0.42762312344E+01  0.00000000000E+00 0.  1.
         22   -1    0    0    0    0 -0.00000000000E+00 -0.00000000000E+00 -0.21705151936E+01  0.21705151936E+01  0.00000000000E+00 0.  1.
          4    1    1    2  501    0 -0.14561196435E+01  0.13515230466E+01 -0.98829993490E+00  0.25566649610E+01  0.12700000000E+01 0.  1.
         -4    1    1    2    0  501  0.14561196435E+01 -0.13515230466E+01  0.30940159757E+01  0.38900814669E+01  0.12700000000E+01 0.  1.
<mgrwt>
<rscale>  0 0.23579226E+01</rscale>
<asrwt>0</asrwt>
<pdfrwt beam="1">0</pdfrwt>
<pdfrwt beam="2">0</pdfrwt>
<totfact> 0.17940986E+12</totfact>
</mgrwt>
</event>
<event>
 4    1  0.3168498E+006  0.4326059E+01  0.7546771E-02  0.2218988E+00
         22   -1    0    0    0    0  0.00000000000E+00  0.00000000000E+00  0.51143707694E+01  0.51143707694E+01  0.00000000000E+00 0. -1.
         22   -1    0    0    0    0 -0.00000000000E+00 -0.00000000000E+00 -0.10309001832E+02  0.10309001832E+02  0.00000000000E+00 0.  1.
          4    1    1    2  501    0  0.10145750056E+01 -0.40090556132E+01 -0.87909216896E+01  0.97977085844E+01  0.12700000000E+01 0.  1.
         -4    1    1    2    0  501 -0.10145750056E+01  0.40090556132E+01  0.35962906274E+01  0.56256640166E+01  0.12700000000E+01 0. -1.
<mgrwt>
<rscale>  0 0.43260593E+01</rscale>
<asrwt>0</asrwt>
<pdfrwt beam="1">0</pdfrwt>
<pdfrwt beam="2">0</pdfrwt>
<totfact> 0.22975623E+11</totfact>
</mgrwt>
</event>
<event>
 4    1  0.3168498E+006  0.3311486E+01  0.7546771E-02  0.2432057E+00
         22   -1    0    0    0    0  0.00000000000E+00  0.00000000000E+00  0.14266075075E+02  0.14266075075E+02  0.00000000000E+00 0. -1.
         22   -1    0    0    0    0 -0.00000000000E+00 -0.00000000000E+00 -0.77002422216E+00  0.77002422216E+00  0.00000000000E+00 0.  1.
          4    1    1    2  501    0  0.32028379528E+00  0.30414559970E+01  0.64330085020E+01  0.72352978292E+01  0.12700000000E+01 0.  1.
         -4    1    1    2    0  501 -0.32028379528E+00 -0.30414559970E+01  0.70630423504E+01  0.78008014675E+01  0.12700000000E+01 0. -1.
<mgrwt>
<rscale>  0 0.33114855E+01</rscale>
<asrwt>0</asrwt>
<pdfrwt beam="1">0</pdfrwt>
<pdfrwt beam="2">0</pdfrwt>
<totfact> 0.13858506E+12</totfact>
</mgrwt>
</event>
<event>
 4    1  0.3168498E+006  0.2383938E+01  0.7546771E-02  0.2762020E+00
         22   -1    0    0    0    0  0.00000000000E+00  0.00000000000E+00  0.59775133602E+00  0.59775133602E+00  0.00000000000E+00 0.  1.
         22   -1    0    0    0    0 -0.00000000000E+00 -0.00000000000E+00 -0.11673591204E+02  0.11673591204E+02  0.00000000000E+00 0. -1.
          4    1    1    2  501    0 -0.18565401633E+01 -0.78963140818E+00 -0.81808872174E+01  0.85211545464E+01  0.12700000000E+01 0. -1.
         -4    1    1    2    0  501  0.18565401633E+01  0.78963140818E+00 -0.28949526505E+01  0.37501879936E+01  0.12700000000E+01 0.  1.
<mgrwt>
<rscale>  0 0.23839377E+01</rscale>
<asrwt>0</asrwt>
<pdfrwt beam="1">0</pdfrwt>
<pdfrwt beam="2">0</pdfrwt>
<totfact> 0.23604751E+12</totfact>
</mgrwt>
</event>
<event>
 4    1  0.3168498E+006  0.2655292E+01  0.7546771E-02  0.2643788E+00
         22   -1    0    0    0    0  0.00000000000E+00  0.00000000000E+00  0.36161785471E+02  0.36161785471E+02  0.00000000000E+00 0. -1.
         22   -1    0    0    0    0 -0.00000000000E+00 -0.00000000000E+00 -0.23159151099E+00  0.23159151099E+00  0.00000000000E+00 0. -1.
          4    1    1    2  501    0 -0.19672585419E+01 -0.12520260055E+01  0.10729392680E+02  0.11053073897E+02  0.12700000000E+01 0. -1.
         -4    1    1    2    0  501  0.19672585419E+01  0.12520260055E+01  0.25200801280E+02  0.25340303086E+02  0.12700000000E+01 0. -1.
<mgrwt>
<rscale>  0 0.26552919E+01</rscale>
<asrwt>0</asrwt>
<pdfrwt beam="1">0</pdfrwt>
<pdfrwt beam="2">0</pdfrwt>
<totfact> 0.16679706E+12</totfact>
</mgrwt>
</event>
<event>
 4    1  0.3168498E+006  0.2013921E+01  0.7546771E-02  0.2971392E+00
         22   -1    0    0    0    0  0.00000000000E+00  0.00000000000E+00  0.49867294257E+01  0.49867294257E+01  0.00000000000E+00 0.  1.
         22   -1    0    0    0    0 -0.00000000000E+00 -0.00000000000E+00 -0.11090391088E+01  0.11090391088E+01  0.00000000000E+00 0. -1.
          4    1    1    2  501    0  0.15387268407E+01 -0.27440250793E+00  0.36502758184E+00  0.20467345119E+01  0.12700000000E+01 0. -1.
         -4    1    1    2    0  501 -0.15387268407E+01  0.27440250793E+00  0.35126627350E+01  0.40490340226E+01  0.12700000000E+01 0.  1.
<mgrwt>
<rscale>  0 0.20139208E+01</rscale>
<asrwt>0</asrwt>
<pdfrwt beam="1">0</pdfrwt>
<pdfrwt beam="2">0</pdfrwt>
<totfact> 0.32415801E+12</totfact>
</mgrwt>
</event>
<event>
 4    1  0.3168498E+006  0.2699676E+01  0.7546771E-02  0.2626549E+00
         22   -1    0    0    0    0  0.00000000000E+00  0.00000000000E+00  0.21281005618E+02  0.21281005618E+02  0.00000000000E+00 0. -1.
         22   -1    0    0    0    0 -0.00000000000E+00 -0.00000000000E+00 -0.71822203680E+00  0.71822203680E+00  0.00000000000E+00 0. -1.
          4    1    1    2  501    0  0.58832510071E+00  0.23085115288E+01  0.23253916049E+01  0.35631023026E+01  0.12700000000E+01 0. -1.
         -4    1    1    2    0  501 -0.58832510071E+00 -0.23085115288E+01  0.18237391976E+02  0.18436125352E+02  0.12700000000E+01 0. -1.
<mgrwt>
<rscale>  0 0.26996763E+01</rscale>
<asrwt>0</asrwt>
<pdfrwt beam="1">0</pdfrwt>
<pdfrwt beam="2">0</pdfrwt>
<totfact> 0.91384256E+11</totfact>
</mgrwt>
</event>
<event>
 4    1  0.3168498E+006  0.2967643E+01  0.7546771E-02  0.2532505E+00
         22   -1    0    0    0    0  0.00000000000E+00  0.00000000000E+00  0.11576625623E+02  0.11576625623E+02  0.00000000000E+00 0. -1.
         22   -1    0    0    0    0 -0.00000000000E+00 -0.00000000000E+00 -0.81629237139E+00  0.81629237139E+00  0.00000000000E+00 0.  1.
          4    1    1    2  501    0  0.92857966846E+00 -0.25162964068E+01  0.37638131438E+01  0.47930363225E+01  0.12700000000E+01 0.  1.
         -4    1    1    2    0  501 -0.92857966846E+00  0.25162964068E+01  0.69965201080E+01  0.75998816720E+01  0.12700000000E+01 0. -1.
<mgrwt>
<rscale>  0 0.29676435E+01</rscale>
<asrwt>0</asrwt>
<pdfrwt beam="1">0</pdfrwt>
<pdfrwt beam="2">0</pdfrwt>
<totfact> 0.16742401E+12</totfact>
</mgrwt>
</event>
<event>
 4    1  0.3168498E+006  0.2266077E+01  0.7546771E-02  0.2821600E+00
         22   -1    0    0    0    0  0.00000000000E+00  0.00000000000E+00  0.27721352171E+01  0.27721352171E+01  0.00000000000E+00 0. -1.
         22   -1    0    0    0    0 -0.00000000000E+00 -0.00000000000E+00 -0.18879870955E+01  0.18879870955E+01  0.00000000000E+00 0. -1.
          4    1    1    2  501    0 -0.16126547759E+01 -0.95997255117E+00  0.12217328467E+00  0.22693675411E+01  0.12700000000E+01 0. -1.
         -4    1    1    2    0  501  0.16126547759E+01  0.95997255117E+00  0.76197483686E+00  0.23907547715E+01  0.12700000000E+01 0. -1.
<mgrwt>
<rscale>  0 0.22660765E+01</rscale>
<asrwt>0</asrwt>
<pdfrwt beam="1">0</pdfrwt>
<pdfrwt beam="2">0</pdfrwt>
<totfact> 0.35045620E+12</totfact>
</mgrwt>
</event>
<event>
 4    1  0.3168498E+006  0.3148149E+01  0.7546771E-02  0.2477340E+00
         22   -1    0    0    0    0  0.00000000000E+00  0.00000000000E+00  0.94618407461E+00  0.94618407461E+00  0.00000000000E+00 0.  1.
         22   -1    0    0    0    0 -0.00000000000E+00 -0.00000000000E+00 -0.10849872159E+02  0.10849872159E+02  0.00000000000E+00 0.  1.
          4    1    1    2  501    0 -0.45622617884E+00 -0.28442573519E+01 -0.60488345269E+01  0.68190352209E+01  0.12700000000E+01 0.  1.
         -4    1    1    2    0  501  0.45622617884E+00  0.28442573519E+01 -0.38548535570E+01  0.49770210122E+01  0.12700000000E+01 0.  1.
<mgrwt>
<rscale>  0 0.31481490E+01</rscale>
<asrwt>0</asrwt>
<pdfrwt beam="1">0</pdfrwt>
<pdfrwt beam="2">0</pdfrwt>
<totfact> 0.15310559E+12</totfact>
</mgrwt>
</event>
<event>
 4    1  0.3168498E+006  0.2716816E+01  0.7546771E-02  0.2620030E+00
         22   -1    0    0    0    0  0.00000000000E+00  0.00000000000E+00  0.23622917834E+01  0.23622917834E+01  0.00000000000E+00 0. -1.
         22   -1    0    0    0    0 -0.00000000000E+00 -0.00000000000E+00 -0.33035025354E+01  0.33035025354E+01  0.00000000000E+00 0. -1.
          4    1    1    2  501    0  0.22906061059E+01  0.72201879401E+00  0.18874799330E+00  0.27233643304E+01  0.12700000000E+01 0. -1.
         -4    1    1    2    0  501 -0.22906061059E+01 -0.72201879401E+00 -0.11299587453E+01  0.29424299885E+01  0.12700000000E+01 0. -1.
<mgrwt>
<rscale>  0 0.27168157E+01</rscale>
<asrwt>0</asrwt>
<pdfrwt beam="1">0</pdfrwt>
<pdfrwt beam="2">0</pdfrwt>
<totfact> 0.22022508E+12</totfact>
</mgrwt>
</event>
<event>
 4    1  0.3168498E+006  0.4122269E+01  0.7546771E-02  0.2254514E+00
         22   -1    0    0    0    0  0.00000000000E+00  0.00000000000E+00  0.17809810437E+01  0.17809810437E+01  0.00000000000E+00 0.  1.
         22   -1    0    0    0    0 -0.00000000000E+00 -0.00000000000E+00 -0.95530542117E+01  0.95530542117E+01  0.00000000000E+00 0. -1.
          4    1    1    2  501    0 -0.30726341030E+01 -0.24370313608E+01 -0.36883374401E+01  0.55314496523E+01  0.12700000000E+01 0.  1.
         -4    1    1    2    0  501  0.30726341030E+01  0.24370313608E+01 -0.40837357280E+01  0.58025856030E+01  0.12700000000E+01 0. -1.
<mgrwt>
<rscale>  0 0.41222691E+01</rscale>
<asrwt>0</asrwt>
<pdfrwt beam="1">0</pdfrwt>
<pdfrwt beam="2">0</pdfrwt>
<totfact> 0.86451607E+11</totfact>
</mgrwt>
</event>
<event>
 4    1  0.3168498E+006  0.2081209E+01  0.7546771E-02  0.2927986E+00
         22   -1    0    0    0    0  0.00000000000E+00  0.00000000000E+00  0.12750134666E+02  0.12750134666E+02  0.00000000000E+00 0. -1.
         22   -1    0    0    0    0 -0.00000000000E+00 -0.00000000000E+00 -0.68441692967E+00  0.68441692967E+00  0.00000000000E+00 0.  1.
          4    1    1    2  501    0 -0.35101273874E+00  0.16109996362E+01  0.12657640817E+01  0.24358958272E+01  0.12700000000E+01 0.  1.
         -4    1    1    2    0  501  0.35101273874E+00 -0.16109996362E+01  0.10799953655E+02  0.10998655768E+02  0.12700000000E+01 0. -1.
<mgrwt>
<rscale>  0 0.20812087E+01</rscale>
<asrwt>0</asrwt>
<pdfrwt beam="1">0</pdfrwt>
<pdfrwt beam="2">0</pdfrwt>
<totfact> 0.18179388E+12</totfact>
</mgrwt>
</event>
<event>
 4    1  0.3168498E+006  0.2667556E+01  0.7546771E-02  0.2638972E+00
         22   -1    0    0    0    0  0.00000000000E+00  0.00000000000E+00  0.12493051248E+00  0.12493051248E+00  0.00000000000E+00 0.  1.
         22   -1    0    0    0    0 -0.00000000000E+00 -0.00000000000E+00 -0.62824188199E+02  0.62824188199E+02  0.00000000000E+00 0. -1.
          4    1    1    2  501    0 -0.20987801203E+01 -0.10478914725E+01 -0.40966985492E+02  0.41053742275E+02  0.12700000000E+01 0. -1.
         -4    1    1    2    0  501  0.20987801203E+01  0.10478914725E+01 -0.21732272195E+02  0.21895376436E+02  0.12700000000E+01 0.  1.
<mgrwt>
<rscale>  0 0.26675559E+01</rscale>
<asrwt>0</asrwt>
<pdfrwt beam="1">0</pdfrwt>
<pdfrwt beam="2">0</pdfrwt>
<totfact> 0.16041522E+12</totfact>
</mgrwt>
</event>
<event>
 4    1  0.3168498E+006  0.3193970E+01  0.7546771E-02  0.2464223E+00
         22   -1    0    0    0    0  0.00000000000E+00  0.00000000000E+00  0.19368301504E+02  0.19368301504E+02  0.00000000000E+00 0. -1.
         22   -1    0    0    0    0 -0.00000000000E+00 -0.00000000000E+00 -0.19070454912E+01  0.19070454912E+01  0.00000000000E+00 0.  1.
          4    1    1    2  501    0 -0.72485640724E+00  0.28395645019E+01 -0.31958371420E+00  0.32099185538E+01  0.12700000000E+01 0.  1.
         -4    1    1    2    0  501  0.72485640724E+00 -0.28395645019E+01  0.17780839727E+02  0.18065428441E+02  0.12700000000E+01 0. -1.
<mgrwt>
<rscale>  0 0.31939698E+01</rscale>
<asrwt>0</asrwt>
<pdfrwt beam="1">0</pdfrwt>
<pdfrwt beam="2">0</pdfrwt>
<totfact> 0.33583968E+11</totfact>
</mgrwt>
</event>
<event>
 4    1  0.3168498E+006  0.4328176E+01  0.7546771E-02  0.2218633E+00
         22   -1    0    0    0    0  0.00000000000E+00  0.00000000000E+00  0.63509865258E+02  0.63509865258E+02  0.00000000000E+00 0.  1.
         22   -1    0    0    0    0 -0.00000000000E+00 -0.00000000000E+00 -0.29545784690E+00  0.29545784690E+00  0.00000000000E+00 0. -1.
          4    1    1    2  501    0  0.40941138652E+01  0.59870139177E+00  0.30302656620E+02  0.30610196176E+02  0.12700000000E+01 0. -1.
         -4    1    1    2    0  501 -0.40941138652E+01 -0.59870139177E+00  0.32911750791E+02  0.33195126929E+02  0.12700000000E+01 0.  1.
<mgrwt>
<rscale>  0 0.43281765E+01</rscale>
<asrwt>0</asrwt>
<pdfrwt beam="1">0</pdfrwt>
<pdfrwt beam="2">0</pdfrwt>
<totfact> 0.60542304E+11</totfact>
</mgrwt>
</event>
<event>
 4    1  0.3168498E+006  0.2773202E+01  0.7546771E-02  0.2599104E+00
         22   -1    0    0    0    0  0.00000000000E+00  0.00000000000E+00  0.28986917582E+01  0.28986917582E+01  0.00000000000E+00 0.  1.
         22   -1    0    0    0    0 -0.00000000000E+00 -0.00000000000E+00 -0.41074479692E+01  0.41074479692E+01  0.00000000000E+00 0. -1.
          4    1    1    2  501    0 -0.19828768489E+01 -0.14649062515E+01 -0.26888216533E+01  0.38626950186E+01  0.12700000000E+01 0. -1.
         -4    1    1    2    0  501  0.19828768489E+01  0.14649062515E+01  0.14800654423E+01  0.31434447087E+01  0.12700000000E+01 0.  1.
<mgrwt>
<rscale>  0 0.27732023E+01</rscale>
<asrwt>0</asrwt>
<pdfrwt beam="1">0</pdfrwt>
<pdfrwt beam="2">0</pdfrwt>
<totfact> 0.13437179E+12</totfact>
</mgrwt>
</event>
<event>
 4    1  0.3168498E+006  0.2350677E+01  0.7546771E-02  0.2778261E+00
         22   -1    0    0    0    0  0.00000000000E+00  0.00000000000E+00  0.31188163505E+01  0.31188163505E+01  0.00000000000E+00 0.  1.
         22   -1    0    0    0    0 -0.00000000000E+00 -0.00000000000E+00 -0.17905251981E+01  0.17905251981E+01  0.00000000000E+00 0.  1.
          4    1    1    2  501    0 -0.19266324149E+01  0.44818593771E+00  0.41261492342E+00  0.23866156314E+01  0.12700000000E+01 0.  1.
         -4    1    1    2    0  501  0.19266324149E+01 -0.44818593771E+00  0.91567622906E+00  0.25227259172E+01  0.12700000000E+01 0.  1.
<mgrwt>
<rscale>  0 0.23506772E+01</rscale>
<asrwt>0</asrwt>
<pdfrwt beam="1">0</pdfrwt>
<pdfrwt beam="2">0</pdfrwt>
<totfact> 0.32469855E+12</totfact>
</mgrwt>
</event>
<event>
 4    1  0.3168498E+006  0.2801152E+01  0.7546771E-02  0.2589016E+00
         22   -1    0    0    0    0  0.00000000000E+00  0.00000000000E+00  0.21811241468E+01  0.21811241468E+01  0.00000000000E+00 0.  1.
         22   -1    0    0    0    0 -0.00000000000E+00 -0.00000000000E+00 -0.11845929637E+02  0.11845929637E+02  0.00000000000E+00 0. -1.
          4    1    1    2  501    0 -0.22261537459E+01 -0.11303954616E+01 -0.10684873007E+02  0.11045947926E+02  0.12700000000E+01 0. -1.
         -4    1    1    2    0  501  0.22261537459E+01  0.11303954616E+01  0.10200675168E+01  0.29811058583E+01  0.12700000000E+01 0.  1.
<mgrwt>
<rscale>  0 0.28011523E+01</rscale>
<asrwt>0</asrwt>
<pdfrwt beam="1">0</pdfrwt>
<pdfrwt beam="2">0</pdfrwt>
<totfact> 0.52665205E+11</totfact>
</mgrwt>
</event>
<event>
 4    1  0.3168498E+006  0.2536867E+01  0.7546771E-02  0.2692496E+00
         22   -1    0    0    0    0  0.00000000000E+00  0.00000000000E+00  0.13972510588E+01  0.13972510588E+01  0.00000000000E+00 0. -1.
         22   -1    0    0    0    0 -0.00000000000E+00 -0.00000000000E+00 -0.82500757387E+01  0.82500757387E+01  0.00000000000E+00 0.  1.
          4    1    1    2  501    0  0.15832732665E+01 -0.15218547769E+01 -0.66322647382E+01  0.71008895046E+01  0.12700000000E+01 0.  1.
         -4    1    1    2    0  501 -0.15832732665E+01  0.15218547769E+01 -0.22055994165E+00  0.25464372928E+01  0.12700000000E+01 0. -1.
<mgrwt>
<rscale>  0 0.25368674E+01</rscale>
<asrwt>0</asrwt>
<pdfrwt beam="1">0</pdfrwt>
<pdfrwt beam="2">0</pdfrwt>
<totfact> 0.13643651E+12</totfact>
</mgrwt>
</event>
<event>
 4    1  0.3168498E+006  0.2139267E+01  0.7546771E-02  0.2892669E+00
         22   -1    0    0    0    0  0.00000000000E+00  0.00000000000E+00  0.22574701980E+02  0.22574701980E+02  0.00000000000E+00 0.  1.
         22   -1    0    0    0    0 -0.00000000000E+00 -0.00000000000E+00 -0.73456569914E+00  0.73456569914E+00  0.00000000000E+00 0. -1.
          4    1    1    2  501    0 -0.16531256930E+01 -0.48035295787E+00  0.10032130370E+01  0.23628160992E+01  0.12700000000E+01 0. -1.
         -4    1    1    2    0  501  0.16531256930E+01  0.48035295787E+00  0.20836923243E+02  0.20946451579E+02  0.12700000000E+01 0.  1.
<mgrwt>
<rscale>  0 0.21392671E+01</rscale>
<asrwt>0</asrwt>
<pdfrwt beam="1">0</pdfrwt>
<pdfrwt beam="2">0</pdfrwt>
<totfact> 0.82724367E+11</totfact>
</mgrwt>
</event>
<event>
 4    1  0.3168498E+006  0.2022150E+01  0.7546771E-02  0.2965932E+00
         22   -1    0    0    0    0  0.00000000000E+00  0.00000000000E+00  0.23384935637E+01  0.23384935637E+01  0.00000000000E+00 0. -1.
         22   -1    0    0    0    0 -0.00000000000E+00 -0.00000000000E+00 -0.22785554073E+01  0.22785554073E+01  0.00000000000E+00 0. -1.
          4    1    1    2  501    0  0.14077673650E+01 -0.70312329526E+00 -0.10833613877E+01  0.22940713194E+01  0.12700000000E+01 0. -1.
         -4    1    1    2    0  501 -0.14077673650E+01  0.70312329526E+00  0.11432995440E+01  0.23229776516E+01  0.12700000000E+01 0. -1.
<mgrwt>
<rscale>  0 0.20221502E+01</rscale>
<asrwt>0</asrwt>
<pdfrwt beam="1">0</pdfrwt>
<pdfrwt beam="2">0</pdfrwt>
<totfact> 0.34354664E+12</totfact>
</mgrwt>
</event>
<event>
 4    1  0.3168498E+006  0.2001148E+01  0.7546771E-02  0.2979955E+00
         22   -1    0    0    0    0  0.00000000000E+00  0.00000000000E+00  0.22645999870E+01  0.22645999870E+01  0.00000000000E+00 0. -1.
         22   -1    0    0    0    0 -0.00000000000E+00 -0.00000000000E+00 -0.17832142342E+01  0.17832142342E+01  0.00000000000E+00 0.  1.
          4    1    1    2  501    0 -0.13761141048E+01 -0.70569207572E+00  0.55872132628E-01  0.20019273289E+01  0.12700000000E+01 0. -1.
         -4    1    1    2    0  501  0.13761141048E+01  0.70569207572E+00  0.42551362019E+00  0.20458868923E+01  0.12700000000E+01 0.  1.
<mgrwt>
<rscale>  0 0.20011475E+01</rscale>
<asrwt>0</asrwt>
<pdfrwt beam="1">0</pdfrwt>
<pdfrwt beam="2">0</pdfrwt>
<totfact> 0.47360227E+12</totfact>
</mgrwt>
</event>
<event>
 4    1  0.3168498E+006  0.2365086E+01  0.7546771E-02  0.2771173E+00
         22   -1    0    0    0    0  0.00000000000E+00  0.00000000000E+00  0.61876395155E+00  0.61876395155E+00  0.00000000000E+00 0.  1.
         22   -1    0    0    0    0 -0.00000000000E+00 -0.00000000000E+00 -0.28961486610E+02  0.28961486610E+02  0.00000000000E+00 0.  1.
          4    1    1    2  501    0 -0.13272352049E+01 -0.14896905426E+01 -0.26437905015E+02  0.26543482303E+02  0.12700000000E+01 0.  1.
         -4    1    1    2    0  501  0.13272352049E+01  0.14896905426E+01 -0.19048176443E+01  0.30367682592E+01  0.12700000000E+01 0.  1.
<mgrwt>
<rscale>  0 0.23650859E+01</rscale>
<asrwt>0</asrwt>
<pdfrwt beam="1">0</pdfrwt>
<pdfrwt beam="2">0</pdfrwt>
<totfact> 0.73370284E+11</totfact>
</mgrwt>
</event>
<event>
 4    1  0.3168498E+006  0.4502594E+01  0.7546771E-02  0.2190418E+00
         22   -1    0    0    0    0  0.00000000000E+00  0.00000000000E+00  0.54609967536E+01  0.54609967536E+01  0.00000000000E+00 0.  1.
         22   -1    0    0    0    0 -0.00000000000E+00 -0.00000000000E+00 -0.42170857533E+01  0.42170857533E+01  0.00000000000E+00 0. -1.
          4    1    1    2  501    0 -0.36419851943E+01 -0.23230136883E+01 -0.10520929043E+01  0.46238780510E+01  0.12700000000E+01 0. -1.
         -4    1    1    2    0  501  0.36419851943E+01  0.23230136883E+01  0.22960039046E+01  0.50542044559E+01  0.12700000000E+01 0.  1.
<mgrwt>
<rscale>  0 0.45025936E+01</rscale>
<asrwt>0</asrwt>
<pdfrwt beam="1">0</pdfrwt>
<pdfrwt beam="2">0</pdfrwt>
<totfact> 0.61822507E+11</totfact>
</mgrwt>
</event>
<event>
 4    1  0.3168498E+006  0.2549636E+01  0.7546771E-02  0.2687044E+00
         22   -1    0    0    0    0  0.00000000000E+00  0.00000000000E+00  0.69795486894E+01  0.69795486894E+01  0.00000000000E+00 0.  1.
         22   -1    0    0    0    0 -0.00000000000E+00 -0.00000000000E+00 -0.10545574021E+01  0.10545574021E+01  0.00000000000E+00 0. -1.
          4    1    1    2  501    0  0.21192365776E+01  0.62974556121E+00  0.15896234055E+01  0.30045874450E+01  0.12700000000E+01 0. -1.
         -4    1    1    2    0  501 -0.21192365776E+01 -0.62974556121E+00  0.43353678818E+01  0.50295186464E+01  0.12700000000E+01 0. -1.
<mgrwt>
<rscale>  0 0.25496359E+01</rscale>
<asrwt>0</asrwt>
<pdfrwt beam="1">0</pdfrwt>
<pdfrwt beam="2">0</pdfrwt>
<totfact> 0.23018852E+12</totfact>
</mgrwt>
</event>
<event>
 4    1  0.3168498E+006  0.2057257E+01  0.7546771E-02  0.2943119E+00
         22   -1    0    0    0    0  0.00000000000E+00  0.00000000000E+00  0.51413603626E+00  0.51413603626E+00  0.00000000000E+00 0.  1.
         22   -1    0    0    0    0 -0.00000000000E+00 -0.00000000000E+00 -0.82320172704E+01  0.82320172704E+01  0.00000000000E+00 0. -1.
          4    1    1    2  501    0 -0.15895340223E+01 -0.30461031374E+00 -0.38410447626E+01  0.43572847875E+01  0.12700000000E+01 0. -1.
         -4    1    1    2    0  501  0.15895340223E+01  0.30461031374E+00 -0.38768364716E+01  0.43888685192E+01  0.12700000000E+01 0.  1.
<mgrwt>
<rscale>  0 0.20572569E+01</rscale>
<asrwt>0</asrwt>
<pdfrwt beam="1">0</pdfrwt>
<pdfrwt beam="2">0</pdfrwt>
<totfact> 0.42712812E+12</totfact>
</mgrwt>
</event>
<event>
 4    1  0.3168498E+006  0.3205837E+01  0.7546771E-02  0.2460880E+00
         22   -1    0    0    0    0  0.00000000000E+00  0.00000000000E+00  0.85111825487E+01  0.85111825487E+01  0.00000000000E+00 0.  1.
         22   -1    0    0    0    0 -0.00000000000E+00 -0.00000000000E+00 -0.18778320478E+01  0.18778320478E+01  0.00000000000E+00 0.  1.
          4    1    1    2  501    0 -0.26748484221E+01 -0.12286887574E+01  0.21314661840E+00  0.32129148175E+01  0.12700000000E+01 0.  1.
         -4    1    1    2    0  501  0.26748484221E+01  0.12286887574E+01  0.64202038825E+01  0.71760997789E+01  0.12700000000E+01 0.  1.
<mgrwt>
<rscale>  0 0.32058369E+01</rscale>
<asrwt>0</asrwt>
<pdfrwt beam="1">0</pdfrwt>
<pdfrwt beam="2">0</pdfrwt>
<totfact> 0.93477454E+11</totfact>
</mgrwt>
</event>
<event>
 4    1  0.3168498E+006  0.2685866E+01  0.7546771E-02  0.2631857E+00
         22   -1    0    0    0    0  0.00000000000E+00  0.00000000000E+00  0.42006789993E+01  0.42006789993E+01  0.00000000000E+00 0. -1.
         22   -1    0    0    0    0 -0.00000000000E+00 -0.00000000000E+00 -0.34448733139E+01  0.34448733139E+01  0.00000000000E+00 0. -1.
          4    1    1    2  501    0 -0.12800722014E+01 -0.19905761485E+01 -0.23292259777E+01  0.35551613042E+01  0.12700000000E+01 0. -1.
         -4    1    1    2    0  501  0.12800722014E+01  0.19905761485E+01  0.30850316631E+01  0.40903910090E+01  0.12700000000E+01 0. -1.
<mgrwt>
<rscale>  0 0.26858664E+01</rscale>
<asrwt>0</asrwt>
<pdfrwt beam="1">0</pdfrwt>
<pdfrwt beam="2">0</pdfrwt>
<totfact> 0.10693799E+12</totfact>
</mgrwt>
</event>
<event>
 4    1  0.3168498E+006  0.2334959E+01  0.7546771E-02  0.2786088E+00
         22   -1    0    0    0    0  0.00000000000E+00  0.00000000000E+00  0.17781510644E+02  0.17781510644E+02  0.00000000000E+00 0.  1.
         22   -1    0    0    0    0 -0.00000000000E+00 -0.00000000000E+00 -0.35031884905E+00  0.35031884905E+00  0.00000000000E+00 0. -1.
          4    1    1    2  501    0 -0.19455511838E+01  0.23229914305E+00  0.55133663597E+01  0.59874235625E+01  0.12700000000E+01 0. -1.
         -4    1    1    2    0  501  0.19455511838E+01 -0.23229914305E+00  0.11917825436E+02  0.12144405931E+02  0.12700000000E+01 0.  1.
<mgrwt>
<rscale>  0 0.23349587E+01</rscale>
<asrwt>0</asrwt>
<pdfrwt beam="1">0</pdfrwt>
<pdfrwt beam="2">0</pdfrwt>
<totfact> 0.25713494E+12</totfact>
</mgrwt>
</event>
<event>
 4    1  0.3168498E+006  0.2182018E+01  0.7546771E-02  0.2867825E+00
         22   -1    0    0    0    0  0.00000000000E+00  0.00000000000E+00  0.26303502172E+02  0.26303502172E+02  0.00000000000E+00 0. -1.
         22   -1    0    0    0    0 -0.00000000000E+00 -0.00000000000E+00 -0.18285394765E+00  0.18285394765E+00  0.00000000000E+00 0. -1.
          4    1    1    2  501    0  0.91753492922E+00  0.15186945521E+01  0.11730528283E+02  0.11931743263E+02  0.12700000000E+01 0. -1.
         -4    1    1    2    0  501 -0.91753492922E+00 -0.15186945521E+01  0.14390119941E+02  0.14554612856E+02  0.12700000000E+01 0. -1.
<mgrwt>
<rscale>  0 0.21820182E+01</rscale>
<asrwt>0</asrwt>
<pdfrwt beam="1">0</pdfrwt>
<pdfrwt beam="2">0</pdfrwt>
<totfact> 0.32595802E+12</totfact>
</mgrwt>
</event>
<event>
 4    1  0.3168498E+006  0.3734185E+01  0.7546771E-02  0.2331180E+00
         22   -1    0    0    0    0  0.00000000000E+00  0.00000000000E+00  0.19981475103E+01  0.19981475103E+01  0.00000000000E+00 0. -1.
         22   -1    0    0    0    0 -0.00000000000E+00 -0.00000000000E+00 -0.12321335552E+02  0.12321335552E+02  0.00000000000E+00 0.  1.
          4    1    1    2  501    0 -0.10754335429E+01 -0.33428551294E+01 -0.98762827669E+01  0.10558650435E+02  0.12700000000E+01 0.  1.
         -4    1    1    2    0  501  0.10754335429E+01  0.33428551294E+01 -0.44690527430E+00  0.37608326266E+01  0.12700000000E+01 0. -1.
<mgrwt>
<rscale>  0 0.37341850E+01</rscale>
<asrwt>0</asrwt>
<pdfrwt beam="1">0</pdfrwt>
<pdfrwt beam="2">0</pdfrwt>
<totfact> 0.55561285E+11</totfact>
</mgrwt>
</event>
<event>
 4    1  0.3168498E+006  0.2254199E+01  0.7546771E-02  0.2827931E+00
         22   -1    0    0    0    0  0.00000000000E+00  0.00000000000E+00  0.60812170966E+00  0.60812170966E+00  0.00000000000E+00 0.  1.
         22   -1    0    0    0    0 -0.00000000000E+00 -0.00000000000E+00 -0.96024562943E+01  0.96024562943E+01  0.00000000000E+00 0.  1.
          4    1    1    2  501    0 -0.12297466348E+01  0.13986559944E+01 -0.63365915390E+01  0.67256083523E+01  0.12700000000E+01 0.  1.
         -4    1    1    2    0  501  0.12297466348E+01 -0.13986559944E+01 -0.26577430456E+01  0.34849696517E+01  0.12700000000E+01 0.  1.
<mgrwt>
<rscale>  0 0.22541995E+01</rscale>
<asrwt>0</asrwt>
<pdfrwt beam="1">0</pdfrwt>
<pdfrwt beam="2">0</pdfrwt>
<totfact> 0.29340250E+12</totfact>
</mgrwt>
</event>
<event>
 4    1  0.3168498E+006  0.2108997E+01  0.7546771E-02  0.2910847E+00
         22   -1    0    0    0    0  0.00000000000E+00  0.00000000000E+00  0.53144332315E+01  0.53144332315E+01  0.00000000000E+00 0. -1.
         22   -1    0    0    0    0 -0.00000000000E+00 -0.00000000000E+00 -0.88017910968E+00  0.88017910968E+00  0.00000000000E+00 0.  1.
          4    1    1    2  501    0 -0.16463307544E+01  0.35293801072E+00  0.29036088198E+01  0.35887065039E+01  0.12700000000E+01 0. -1.
         -4    1    1    2    0  501  0.16463307544E+01 -0.35293801072E+00  0.15306453020E+01  0.26059058373E+01  0.12700000000E+01 0. -1.
<mgrwt>
<rscale>  0 0.21089974E+01</rscale>
<asrwt>0</asrwt>
<pdfrwt beam="1">0</pdfrwt>
<pdfrwt beam="2">0</pdfrwt>
<totfact> 0.39139694E+12</totfact>
</mgrwt>
</event>
<event>
 4    1  0.3168498E+006  0.2787810E+01  0.7546771E-02  0.2593808E+00
         22   -1    0    0    0    0  0.00000000000E+00  0.00000000000E+00  0.15754393995E+02  0.15754393995E+02  0.00000000000E+00 0. -1.
         22   -1    0    0    0    0 -0.00000000000E+00 -0.00000000000E+00 -0.54917517440E+00  0.54917517440E+00  0.00000000000E+00 0.  1.
          4    1    1    2  501    0 -0.24763054785E+01 -0.16399549336E+00  0.50027654266E+01  0.57270887245E+01  0.12700000000E+01 0.  1.
         -4    1    1    2    0  501  0.24763054785E+01  0.16399549336E+00  0.10202453394E+02  0.10576480445E+02  0.12700000000E+01 0. -1.
<mgrwt>
<rscale>  0 0.27878098E+01</rscale>
<asrwt>0</asrwt>
<pdfrwt beam="1">0</pdfrwt>
<pdfrwt beam="2">0</pdfrwt>
<totfact> 0.17993370E+12</totfact>
</mgrwt>
</event>
<event>
 4    1  0.3168498E+006  0.2070174E+01  0.7546771E-02  0.2934916E+00
         22   -1    0    0    0    0  0.00000000000E+00  0.00000000000E+00  0.50898236899E+02  0.50898236899E+02  0.00000000000E+00 0.  1.
         22   -1    0    0    0    0 -0.00000000000E+00 -0.00000000000E+00 -0.41627372885E+00  0.41627372885E+00  0.00000000000E+00 0. -1.
          4    1    1    2  501    0  0.11604148442E+01  0.11515892391E+01  0.23250193948E+01  0.31130909997E+01  0.12700000000E+01 0. -1.
         -4    1    1    2    0  501 -0.11604148442E+01 -0.11515892391E+01  0.48156943775E+02  0.48201419628E+02  0.12700000000E+01 0.  1.
<mgrwt>
<rscale>  0 0.20701740E+01</rscale>
<asrwt>0</asrwt>
<pdfrwt beam="1">0</pdfrwt>
<pdfrwt beam="2">0</pdfrwt>
<totfact> 0.55312735E+11</totfact>
</mgrwt>
</event>
<event>
 4    1  0.3168498E+006  0.2084200E+01  0.7546771E-02  0.2926120E+00
         22   -1    0    0    0    0  0.00000000000E+00  0.00000000000E+00  0.43531457185E+02  0.43531457185E+02  0.00000000000E+00 0. -1.
         22   -1    0    0    0    0 -0.00000000000E+00 -0.00000000000E+00 -0.13007742738E+00  0.13007742738E+00  0.00000000000E+00 0. -1.
          4    1    1    2  501    0 -0.74462875346E+00  0.14753019346E+01  0.11166081802E+02  0.11358929112E+02  0.12700000000E+01 0. -1.
         -4    1    1    2    0  501  0.74462875346E+00 -0.14753019346E+01  0.32235297956E+02  0.32302605500E+02  0.12700000000E+01 0. -1.
<mgrwt>
<rscale>  0 0.20841996E+01</rscale>
<asrwt>0</asrwt>
<pdfrwt beam="1">0</pdfrwt>
<pdfrwt beam="2">0</pdfrwt>
<totfact> 0.24926868E+12</totfact>
</mgrwt>
</event>
<event>
 4    1  0.3168498E+006  0.2390814E+01  0.7546771E-02  0.2758715E+00
         22   -1    0    0    0    0  0.00000000000E+00  0.00000000000E+00  0.41254772127E+00  0.41254772127E+00  0.00000000000E+00 0. -1.
         22   -1    0    0    0    0 -0.00000000000E+00 -0.00000000000E+00 -0.13867414750E+02  0.13867414750E+02  0.00000000000E+00 0.  1.
          4    1    1    2  501    0  0.15081329675E+01 -0.13522672536E+01 -0.69380610144E+01  0.73384386904E+01  0.12700000000E+01 0. -1.
         -4    1    1    2    0  501 -0.15081329675E+01  0.13522672536E+01 -0.65168060146E+01  0.69415237812E+01  0.12700000000E+01 0. -1.
<mgrwt>
<rscale>  0 0.23908140E+01</rscale>
<asrwt>0</asrwt>
<pdfrwt beam="1">0</pdfrwt>
<pdfrwt beam="2">0</pdfrwt>
<totfact> 0.29069348E+12</totfact>
</mgrwt>
</event>
<event>
 4    1  0.3168498E+006  0.3022723E+01  0.7546771E-02  0.2515048E+00
         22   -1    0    0    0    0  0.00000000000E+00  0.00000000000E+00  0.33864998810E+01  0.33864998810E+01  0.00000000000E+00 0. -1.
         22   -1    0    0    0    0 -0.00000000000E+00 -0.00000000000E+00 -0.28470839698E+01  0.28470839698E+01  0.00000000000E+00 0.  1.
          4    1    1    2  501    0 -0.13466964475E+01  0.23896365006E+01 -0.44345687721E+00  0.30550790381E+01  0.12700000000E+01 0.  1.
         -4    1    1    2    0  501  0.13466964475E+01 -0.23896365006E+01  0.98287278843E+00  0.31785048128E+01  0.12700000000E+01 0. -1.
<mgrwt>
<rscale>  0 0.30227229E+01</rscale>
<asrwt>0</asrwt>
<pdfrwt beam="1">0</pdfrwt>
<pdfrwt beam="2">0</pdfrwt>
<totfact> 0.17213589E+12</totfact>
</mgrwt>
</event>
<event>
 4    1  0.3168498E+006  0.2706752E+01  0.7546771E-02  0.2623849E+00
         22   -1    0    0    0    0  0.00000000000E+00  0.00000000000E+00  0.84989384860E+00  0.84989384860E+00  0.00000000000E+00 0. -1.
         22   -1    0    0    0    0 -0.00000000000E+00 -0.00000000000E+00 -0.93241582332E+01  0.93241582332E+01  0.00000000000E+00 0.  1.
          4    1    1    2  501    0  0.95185066271E+00 -0.21926209336E+01 -0.56345985644E+01  0.62510164953E+01  0.12700000000E+01 0.  1.
         -4    1    1    2    0  501 -0.95185066271E+00  0.21926209336E+01 -0.28396658202E+01  0.39230355865E+01  0.12700000000E+01 0. -1.
<mgrwt>
<rscale>  0 0.27067520E+01</rscale>
<asrwt>0</asrwt>
<pdfrwt beam="1">0</pdfrwt>
<pdfrwt beam="2">0</pdfrwt>
<totfact> 0.20788656E+12</totfact>
</mgrwt>
</event>
<event>
 4    1  0.3168498E+006  0.3391204E+01  0.7546771E-02  0.2411357E+00
         22   -1    0    0    0    0  0.00000000000E+00  0.00000000000E+00  0.45671542422E+02  0.45671542422E+02  0.00000000000E+00 0. -1.
         22   -1    0    0    0    0 -0.00000000000E+00 -0.00000000000E+00 -0.32723203822E+00  0.32723203822E+00  0.00000000000E+00 0.  1.
          4    1    1    2  501    0 -0.29986955077E+01 -0.94614406803E+00  0.11629954713E+02  0.12114293622E+02  0.12700000000E+01 0. -1.
         -4    1    1    2    0  501  0.29986955077E+01  0.94614406803E+00  0.33714355671E+02  0.33884480838E+02  0.12700000000E+01 0.  1.
<mgrwt>
<rscale>  0 0.33912038E+01</rscale>
<asrwt>0</asrwt>
<pdfrwt beam="1">0</pdfrwt>
<pdfrwt beam="2">0</pdfrwt>
<totfact> 0.83617694E+11</totfact>
</mgrwt>
</event>
<event>
 4    1  0.3168498E+006  0.3705274E+01  0.7546771E-02  0.2337440E+00
         22   -1    0    0    0    0  0.00000000000E+00  0.00000000000E+00  0.38415487175E+01  0.38415487175E+01  0.00000000000E+00 0.  1.
         22   -1    0    0    0    0 -0.00000000000E+00 -0.00000000000E+00 -0.48905834998E+01  0.48905834998E+01  0.00000000000E+00 0. -1.
          4    1    1    2  501    0 -0.23783428173E+01  0.25415823042E+01 -0.27900047641E+01  0.46382304545E+01  0.12700000000E+01 0. -1.
         -4    1    1    2    0  501  0.23783428173E+01 -0.25415823042E+01  0.17409699818E+01  0.40939017628E+01  0.12700000000E+01 0.  1.
<mgrwt>
<rscale>  0 0.37052740E+01</rscale>
<asrwt>0</asrwt>
<pdfrwt beam="1">0</pdfrwt>
<pdfrwt beam="2">0</pdfrwt>
<totfact> 0.78632174E+11</totfact>
</mgrwt>
</event>
<event>
 4    1  0.3168498E+006  0.2752511E+01  0.7546771E-02  0.2606692E+00
         22   -1    0    0    0    0  0.00000000000E+00  0.00000000000E+00  0.42979562565E+00  0.42979562565E+00  0.00000000000E+00 0.  1.
         22   -1    0    0    0    0 -0.00000000000E+00 -0.00000000000E+00 -0.18046668008E+02  0.18046668008E+02  0.00000000000E+00 0.  1.
          4    1    1    2  501    0  0.13717123228E+01 -0.20203514367E+01 -0.10216016578E+02  0.10580326523E+02  0.12700000000E+01 0.  1.
         -4    1    1    2    0  501 -0.13717123228E+01  0.20203514367E+01 -0.74008558050E+01  0.78961371107E+01  0.12700000000E+01 0.  1.
<mgrwt>
<rscale>  0 0.27525106E+01</rscale>
<asrwt>0</asrwt>
<pdfrwt beam="1">0</pdfrwt>
<pdfrwt beam="2">0</pdfrwt>
<totfact> 0.20058118E+12</totfact>
</mgrwt>
</event>
<event>
 4    1  0.3168498E+006  0.2551851E+01  0.7546771E-02  0.2686103E+00
         22   -1    0    0    0    0  0.00000000000E+00  0.00000000000E+00  0.10730457233E+01  0.10730457233E+01  0.00000000000E+00 0. -1.
         22   -1    0    0    0    0 -0.00000000000E+00 -0.00000000000E+00 -0.17849823973E+02  0.17849823973E+02  0.00000000000E+00 0.  1.
          4    1    1    2  501    0 -0.21890107765E+01  0.32753119430E+00 -0.16074987983E+02  0.16276276709E+02  0.12700000000E+01 0.  1.
         -4    1    1    2    0  501  0.21890107765E+01 -0.32753119430E+00 -0.70179026726E+00  0.26465929876E+01  0.12700000000E+01 0. -1.
<mgrwt>
<rscale>  0 0.25518513E+01</rscale>
<asrwt>0</asrwt>
<pdfrwt beam="1">0</pdfrwt>
<pdfrwt beam="2">0</pdfrwt>
<totfact> 0.71994565E+11</totfact>
</mgrwt>
</event>
<event>
 4    1  0.3168498E+006  0.3917895E+01  0.7546771E-02  0.2293269E+00
         22   -1    0    0    0    0  0.00000000000E+00  0.00000000000E+00  0.97857569617E+00  0.97857569617E+00  0.00000000000E+00 0. -1.
         22   -1    0    0    0    0 -0.00000000000E+00 -0.00000000000E+00 -0.21468572816E+02  0.21468572816E+02  0.00000000000E+00 0.  1.
          4    1    1    2  501    0 -0.86105556300E+00 -0.36049391618E+01 -0.16069939251E+02  0.16540642387E+02  0.12700000000E+01 0.  1.
         -4    1    1    2    0  501  0.86105556300E+00  0.36049391618E+01 -0.44200578687E+01  0.59065061251E+01  0.12700000000E+01 0. -1.
<mgrwt>
<rscale>  0 0.39178952E+01</rscale>
<asrwt>0</asrwt>
<pdfrwt beam="1">0</pdfrwt>
<pdfrwt beam="2">0</pdfrwt>
<totfact> 0.63557744E+11</totfact>
</mgrwt>
</event>
<event>
 4    1  0.3168498E+006  0.2093703E+01  0.7546771E-02  0.2920225E+00
         22   -1    0    0    0    0  0.00000000000E+00  0.00000000000E+00  0.38482258432E+01  0.38482258432E+01  0.00000000000E+00 0.  1.
         22   -1    0    0    0    0 -0.00000000000E+00 -0.00000000000E+00 -0.18270734831E+01  0.18270734831E+01  0.00000000000E+00 0.  1.
          4    1    1    2  501    0 -0.14983737368E+01 -0.72496124271E+00 -0.73066998037E+00  0.22175372102E+01  0.12700000000E+01 0.  1.
         -4    1    1    2    0  501  0.14983737368E+01  0.72496124271E+00  0.27518223405E+01  0.34577621162E+01  0.12700000000E+01 0.  1.
<mgrwt>
<rscale>  0 0.20937031E+01</rscale>
<asrwt>0</asrwt>
<pdfrwt beam="1">0</pdfrwt>
<pdfrwt beam="2">0</pdfrwt>
<totfact> 0.24792405E+12</totfact>
</mgrwt>
</event>
<event>
 4    1  0.3168498E+006  0.2694401E+01  0.7546771E-02  0.2628571E+00
         22   -1    0    0    0    0  0.00000000000E+00  0.00000000000E+00  0.27391913101E+01  0.27391913101E+01  0.00000000000E+00 0.  1.
         22   -1    0    0    0    0 -0.00000000000E+00 -0.00000000000E+00 -0.69453293631E+01  0.69453293631E+01  0.00000000000E+00 0. -1.
          4    1    1    2  501    0 -0.91062316168E+00  0.21949173843E+01 -0.59109432957E+01  0.64960793954E+01  0.12700000000E+01 0. -1.
         -4    1    1    2    0  501  0.91062316168E+00 -0.21949173843E+01  0.17048052427E+01  0.31884412778E+01  0.12700000000E+01 0.  1.
<mgrwt>
<rscale>  0 0.26944010E+01</rscale>
<asrwt>0</asrwt>
<pdfrwt beam="1">0</pdfrwt>
<pdfrwt beam="2">0</pdfrwt>
<totfact> 0.76971932E+11</totfact>
</mgrwt>
</event>
<event>
 4    1  0.3168498E+006  0.3542569E+01  0.7546771E-02  0.2374310E+00
         22   -1    0    0    0    0  0.00000000000E+00  0.00000000000E+00  0.31413658282E+01  0.31413658282E+01  0.00000000000E+00 0.  1.
         22   -1    0    0    0    0 -0.00000000000E+00 -0.00000000000E+00 -0.59273233887E+01  0.59273233887E+01  0.00000000000E+00 0.  1.
          4    1    1    2  501    0 -0.50254920144E+00 -0.32686904659E+01 -0.39819296488E+01  0.53296863688E+01  0.12700000000E+01 0.  1.
         -4    1    1    2    0  501  0.50254920144E+00  0.32686904659E+01  0.11959720884E+01  0.37390028481E+01  0.12700000000E+01 0.  1.
<mgrwt>
<rscale>  0 0.35425687E+01</rscale>
<asrwt>0</asrwt>
<pdfrwt beam="1">0</pdfrwt>
<pdfrwt beam="2">0</pdfrwt>
<totfact> 0.79247123E+11</totfact>
</mgrwt>
</event>
<event>
 4    1  0.3168498E+006  0.2519061E+01  0.7546771E-02  0.2700186E+00
         22   -1    0    0    0    0  0.00000000000E+00  0.00000000000E+00  0.32099241681E+01  0.32099241681E+01  0.00000000000E+00 0. -1.
         22   -1    0    0    0    0 -0.00000000000E+00 -0.00000000000E+00 -0.10693021187E+02  0.10693021187E+02  0.00000000000E+00 0. -1.
          4    1    1    2  501    0  0.11365953364E+01  0.18549708852E+01 -0.10017628840E+02  0.10329499190E+02  0.12700000000E+01 0. -1.
         -4    1    1    2    0  501 -0.11365953364E+01 -0.18549708852E+01  0.25345318209E+01  0.35734461651E+01  0.12700000000E+01 0. -1.
<mgrwt>
<rscale>  0 0.25190605E+01</rscale>
<asrwt>0</asrwt>
<pdfrwt beam="1">0</pdfrwt>
<pdfrwt beam="2">0</pdfrwt>
<totfact> 0.38031127E+11</totfact>
</mgrwt>
</event>
<event>
 4    1  0.3168498E+006  0.2432204E+01  0.7546771E-02  0.2739195E+00
         22   -1    0    0    0    0  0.00000000000E+00  0.00000000000E+00  0.10795785716E+01  0.10795785716E+01  0.00000000000E+00 0.  1.
         22   -1    0    0    0    0 -0.00000000000E+00 -0.00000000000E+00 -0.14170573594E+02  0.14170573594E+02  0.00000000000E+00 0. -1.
          4    1    1    2  501    0 -0.86379711592E+00 -0.18858870913E+01 -0.12517028366E+02  0.12751141702E+02  0.12700000000E+01 0. -1.
         -4    1    1    2    0  501  0.86379711592E+00  0.18858870913E+01 -0.57396665686E+00  0.24990104645E+01  0.12700000000E+01 0.  1.
<mgrwt>
<rscale>  0 0.24322039E+01</rscale>
<asrwt>0</asrwt>
<pdfrwt beam="1">0</pdfrwt>
<pdfrwt beam="2">0</pdfrwt>
<totfact> 0.95053257E+11</totfact>
</mgrwt>
</event>
<event>
 4    1  0.3168498E+006  0.2506845E+01  0.7546771E-02  0.2705520E+00
         22   -1    0    0    0    0  0.00000000000E+00  0.00000000000E+00  0.24042999023E+01  0.24042999023E+01  0.00000000000E+00 0.  1.
         22   -1    0    0    0    0 -0.00000000000E+00 -0.00000000000E+00 -0.36637497969E+01  0.36637497969E+01  0.00000000000E+00 0.  1.
          4    1    1    2  501    0 -0.19490890060E+01 -0.93403649472E+00 -0.22539566261E+01  0.33711411420E+01  0.12700000000E+01 0.  1.
         -4    1    1    2    0  501  0.19490890060E+01  0.93403649472E+00  0.99450673152E+00  0.26969085572E+01  0.12700000000E+01 0.  1.
<mgrwt>
<rscale>  0 0.25068451E+01</rscale>
<asrwt>0</asrwt>
<pdfrwt beam="1">0</pdfrwt>
<pdfrwt beam="2">0</pdfrwt>
<totfact> 0.19110058E+12</totfact>
</mgrwt>
</event>
<event>
 4    1  0.3168498E+006  0.2580816E+01  0.7546771E-02  0.2673939E+00
         22   -1    0    0    0    0  0.00000000000E+00  0.00000000000E+00  0.33182624749E+01  0.33182624749E+01  0.00000000000E+00 0.  1.
         22   -1    0    0    0    0 -0.00000000000E+00 -0.00000000000E+00 -0.28939221677E+01  0.28939221677E+01  0.00000000000E+00 0.  1.
          4    1    1    2  501    0 -0.15515729755E+01  0.16249102756E+01 -0.15071243677E+01  0.29886511944E+01  0.12700000000E+01 0.  1.
         -4    1    1    2    0  501  0.15515729755E+01 -0.16249102756E+01  0.19314646748E+01  0.32235334483E+01  0.12700000000E+01 0.  1.
<mgrwt>
<rscale>  0 0.25808162E+01</rscale>
<asrwt>0</asrwt>
<pdfrwt beam="1">0</pdfrwt>
<pdfrwt beam="2">0</pdfrwt>
<totfact> 0.17296191E+12</totfact>
</mgrwt>
</event>
<event>
 4    1  0.3168498E+006  0.3276909E+01  0.7546771E-02  0.2441309E+00
         22   -1    0    0    0    0  0.00000000000E+00  0.00000000000E+00  0.12464761241E+02  0.12464761241E+02  0.00000000000E+00 0.  1.
         22   -1    0    0    0    0 -0.00000000000E+00 -0.00000000000E+00 -0.21789035483E+01  0.21789035483E+01  0.00000000000E+00 0. -1.
          4    1    1    2  501    0 -0.30011573356E+01  0.34392947378E+00 -0.55036525625E+00  0.33228052533E+01  0.12700000000E+01 0. -1.
         -4    1    1    2    0  501  0.30011573356E+01 -0.34392947378E+00  0.10836222949E+02  0.11320859536E+02  0.12700000000E+01 0.  1.
<mgrwt>
<rscale>  0 0.32769090E+01</rscale>
<asrwt>0</asrwt>
<pdfrwt beam="1">0</pdfrwt>
<pdfrwt beam="2">0</pdfrwt>
<totfact> 0.49552147E+11</totfact>
</mgrwt>
</event>
<event>
 4    1  0.3168498E+006  0.2936004E+01  0.7546771E-02  0.2542798E+00
         22   -1    0    0    0    0  0.00000000000E+00  0.00000000000E+00  0.10561017256E+01  0.10561017256E+01  0.00000000000E+00 0. -1.
         22   -1    0    0    0    0 -0.00000000000E+00 -0.00000000000E+00 -0.92302669377E+01  0.92302669377E+01  0.00000000000E+00 0.  1.
          4    1    1    2  501    0  0.26469459028E+01  0.29971434493E-01 -0.58366181556E+01  0.65334701648E+01  0.12700000000E+01 0.  1.
         -4    1    1    2    0  501 -0.26469459028E+01 -0.29971434493E-01 -0.23375470564E+01  0.37528984985E+01  0.12700000000E+01 0. -1.
<mgrwt>
<rscale>  0 0.29360042E+01</rscale>
<asrwt>0</asrwt>
<pdfrwt beam="1">0</pdfrwt>
<pdfrwt beam="2">0</pdfrwt>
<totfact> 0.16424984E+12</totfact>
</mgrwt>
</event>
<event>
 4    1  0.3168498E+006  0.2316673E+01  0.7546771E-02  0.2795320E+00
         22   -1    0    0    0    0  0.00000000000E+00  0.00000000000E+00  0.27164244994E+01  0.27164244994E+01  0.00000000000E+00 0.  1.
         22   -1    0    0    0    0 -0.00000000000E+00 -0.00000000000E+00 -0.21176181279E+01  0.21176181279E+01  0.00000000000E+00 0. -1.
          4    1    1    2  501    0  0.81020086856E+00 -0.17600135171E+01 -0.32620235178E+00  0.23395258071E+01  0.12700000000E+01 0. -1.
         -4    1    1    2    0  501 -0.81020086856E+00  0.17600135171E+01  0.92500872335E+00  0.24945168202E+01  0.12700000000E+01 0. -1.
<mgrwt>
<rscale>  0 0.23166728E+01</rscale>
<asrwt>0</asrwt>
<pdfrwt beam="1">0</pdfrwt>
<pdfrwt beam="2">0</pdfrwt>
<totfact> 0.31420804E+12</totfact>
</mgrwt>
</event>
<event>
 4    1  0.3168498E+006  0.3971097E+01  0.7546771E-02  0.2282854E+00
         22   -1    0    0    0    0  0.00000000000E+00  0.00000000000E+00  0.38767810338E+02  0.38767810338E+02  0.00000000000E+00 0.  1.
         22   -1    0    0    0    0 -0.00000000000E+00 -0.00000000000E+00 -0.62706365048E+00  0.62706365048E+00  0.00000000000E+00 0. -1.
          4    1    1    2  501    0 -0.39254985002E+00 -0.37420073551E+01  0.73954489333E+01  0.83941812796E+01  0.12700000000E+01 0. -1.
         -4    1    1    2    0  501  0.39254985002E+00  0.37420073551E+01  0.30745297754E+02  0.31000692709E+02  0.12700000000E+01 0.  1.
<mgrwt>
<rscale>  0 0.39710974E+01</rscale>
<asrwt>0</asrwt>
<pdfrwt beam="1">0</pdfrwt>
<pdfrwt beam="2">0</pdfrwt>
<totfact> 0.49713876E+11</totfact>
</mgrwt>
</event>
<event>
 4    1  0.3168498E+006  0.5612690E+01  0.7546771E-02  0.2056268E+00
         22   -1    0    0    0    0  0.00000000000E+00  0.00000000000E+00  0.33445795699E+02  0.33445795699E+02  0.00000000000E+00 0.  1.
         22   -1    0    0    0    0 -0.00000000000E+00 -0.00000000000E+00 -0.10785907511E+01  0.10785907511E+01  0.00000000000E+00 0. -1.
          4    1    1    2  501    0  0.39249331967E+01  0.38058223634E+01  0.10038177223E+02  0.11500751559E+02  0.12700000000E+01 0. -1.
         -4    1    1    2    0  501 -0.39249331967E+01 -0.38058223634E+01  0.22329027725E+02  0.23023634891E+02  0.12700000000E+01 0.  1.
<mgrwt>
<rscale>  0 0.56126896E+01</rscale>
<asrwt>0</asrwt>
<pdfrwt beam="1">0</pdfrwt>
<pdfrwt beam="2">0</pdfrwt>
<totfact> 0.32436818E+11</totfact>
</mgrwt>
</event>
<event>
 4    1  0.3168498E+006  0.2548022E+01  0.7546771E-02  0.2687730E+00
         22   -1    0    0    0    0  0.00000000000E+00  0.00000000000E+00  0.35923374033E+01  0.35923374033E+01  0.00000000000E+00 0.  1.
         22   -1    0    0    0    0 -0.00000000000E+00 -0.00000000000E+00 -0.18337517289E+01  0.18337517289E+01  0.00000000000E+00 0. -1.
          4    1    1    2  501    0 -0.20585065972E+01 -0.80128986212E+00  0.55341751458E+00  0.26074289634E+01  0.12700000000E+01 0. -1.
         -4    1    1    2    0  501  0.20585065972E+01  0.80128986212E+00  0.12051681598E+01  0.28186601688E+01  0.12700000000E+01 0.  1.
<mgrwt>
<rscale>  0 0.25480218E+01</rscale>
<asrwt>0</asrwt>
<pdfrwt beam="1">0</pdfrwt>
<pdfrwt beam="2">0</pdfrwt>
<totfact> 0.26767963E+12</totfact>
</mgrwt>
</event>
<event>
 4    1  0.3168498E+006  0.3260227E+01  0.7546771E-02  0.2445835E+00
         22   -1    0    0    0    0  0.00000000000E+00  0.00000000000E+00  0.25036243391E+02  0.25036243391E+02  0.00000000000E+00 0.  1.
         22   -1    0    0    0    0 -0.00000000000E+00 -0.00000000000E+00 -0.43290353293E+00  0.43290353293E+00  0.00000000000E+00 0. -1.
          4    1    1    2  501    0 -0.27404884837E+01  0.12271531918E+01  0.10532453032E+02  0.11025499941E+02  0.12700000000E+01 0. -1.
         -4    1    1    2    0  501  0.27404884837E+01 -0.12271531918E+01  0.14070886826E+02  0.14443646982E+02  0.12700000000E+01 0. -1.
<mgrwt>
<rscale>  0 0.32602273E+01</rscale>
<asrwt>0</asrwt>
<pdfrwt beam="1">0</pdfrwt>
<pdfrwt beam="2">0</pdfrwt>
<totfact> 0.13210777E+12</totfact>
</mgrwt>
</event>
<event>
 4    1  0.3168498E+006  0.3493444E+01  0.7546771E-02  0.2386026E+00
         22   -1    0    0    0    0  0.00000000000E+00  0.00000000000E+00  0.33819599364E+00  0.33819599364E+00  0.00000000000E+00 0.  1.
         22   -1    0    0    0    0 -0.00000000000E+00 -0.00000000000E+00 -0.36195871593E+02  0.36195871593E+02  0.00000000000E+00 0. -1.
          4    1    1    2  501    0  0.29831949778E+01  0.13006904478E+01 -0.16922511976E+02  0.17279339093E+02  0.12700000000E+01 0.  1.
         -4    1    1    2    0  501 -0.29831949778E+01 -0.13006904478E+01 -0.18935163623E+02  0.19254728493E+02  0.12700000000E+01 0. -1.
<mgrwt>
<rscale>  0 0.34934436E+01</rscale>
<asrwt>0</asrwt>
<pdfrwt beam="1">0</pdfrwt>
<pdfrwt beam="2">0</pdfrwt>
<totfact> 0.10900582E+12</totfact>
</mgrwt>
</event>
<event>
 4    1  0.3168498E+006  0.2155351E+01  0.7546771E-02  0.2883211E+00
         22   -1    0    0    0    0  0.00000000000E+00  0.00000000000E+00  0.15088664196E+01  0.15088664196E+01  0.00000000000E+00 0.  1.
         22   -1    0    0    0    0 -0.00000000000E+00 -0.00000000000E+00 -0.38779308989E+01  0.38779308989E+01  0.00000000000E+00 0. -1.
          4    1    1    2  501    0 -0.98661700471E+00  0.14349995742E+01 -0.24071833651E+01  0.32311095068E+01  0.12700000000E+01 0. -1.
         -4    1    1    2    0  501  0.98661700471E+00 -0.14349995742E+01  0.38118885751E-01  0.21556878117E+01  0.12700000000E+01 0. -1.
<mgrwt>
<rscale>  0 0.21553508E+01</rscale>
<asrwt>0</asrwt>
<pdfrwt beam="1">0</pdfrwt>
<pdfrwt beam="2">0</pdfrwt>
<totfact> 0.30635041E+12</totfact>
</mgrwt>
</event>
<event>
 4    1  0.3168498E+006  0.2047789E+01  0.7546771E-02  0.2949196E+00
         22   -1    0    0    0    0  0.00000000000E+00  0.00000000000E+00  0.22264199826E+01  0.22264199826E+01  0.00000000000E+00 0. -1.
         22   -1    0    0    0    0 -0.00000000000E+00 -0.00000000000E+00 -0.21493686092E+01  0.21493686092E+01  0.00000000000E+00 0. -1.
          4    1    1    2  501    0  0.15698800826E+01 -0.34061216482E+00 -0.73098110407E+00  0.21743443828E+01  0.12700000000E+01 0. -1.
         -4    1    1    2    0  501 -0.15698800826E+01  0.34061216482E+00  0.80803247740E+00  0.22014442090E+01  0.12700000000E+01 0. -1.
<mgrwt>
<rscale>  0 0.20477891E+01</rscale>
<asrwt>0</asrwt>
<pdfrwt beam="1">0</pdfrwt>
<pdfrwt beam="2">0</pdfrwt>
<totfact> 0.38918224E+12</totfact>
</mgrwt>
</event>
<event>
 4    1  0.3168498E+006  0.2538458E+01  0.7546771E-02  0.2691814E+00
         22   -1    0    0    0    0  0.00000000000E+00  0.00000000000E+00  0.56745331454E+01  0.56745331454E+01  0.00000000000E+00 0.  1.
         22   -1    0    0    0    0 -0.00000000000E+00 -0.00000000000E+00 -0.13486980605E+01  0.13486980605E+01  0.00000000000E+00 0. -1.
          4    1    1    2  501    0 -0.21052917164E+01  0.63136205074E+00  0.76693368248E+00  0.26517840266E+01  0.12700000000E+01 0.  1.
         -4    1    1    2    0  501  0.21052917164E+01 -0.63136205074E+00  0.35589014024E+01  0.43714471794E+01  0.12700000000E+01 0.  1.
<mgrwt>
<rscale>  0 0.25384584E+01</rscale>
<asrwt>0</asrwt>
<pdfrwt beam="1">0</pdfrwt>
<pdfrwt beam="2">0</pdfrwt>
<totfact> 0.22225549E+12</totfact>
</mgrwt>
</event>
<event>
 4    1  0.3168498E+006  0.2077893E+01  0.7546771E-02  0.2930061E+00
         22   -1    0    0    0    0  0.00000000000E+00  0.00000000000E+00  0.53997858327E+00  0.53997858327E+00  0.00000000000E+00 0.  1.
         22   -1    0    0    0    0 -0.00000000000E+00 -0.00000000000E+00 -0.21267474798E+02  0.21267474798E+02  0.00000000000E+00 0. -1.
          4    1    1    2  501    0  0.13665922796E+01  0.91496704129E+00 -0.18977204991E+02  0.19090624621E+02  0.12700000000E+01 0. -1.
         -4    1    1    2    0  501 -0.13665922796E+01 -0.91496704129E+00 -0.17502912238E+01  0.27168287604E+01  0.12700000000E+01 0.  1.
<mgrwt>
<rscale>  0 0.20778930E+01</rscale>
<asrwt>0</asrwt>
<pdfrwt beam="1">0</pdfrwt>
<pdfrwt beam="2">0</pdfrwt>
<totfact> 0.12633941E+12</totfact>
</mgrwt>
</event>
<event>
 4    1  0.3168498E+006  0.2240253E+01  0.7546771E-02  0.2835448E+00
         22   -1    0    0    0    0  0.00000000000E+00  0.00000000000E+00  0.60749572285E+00  0.60749572285E+00  0.00000000000E+00 0.  1.
         22   -1    0    0    0    0 -0.00000000000E+00 -0.00000000000E+00 -0.10359853249E+02  0.10359853249E+02  0.00000000000E+00 0.  1.
          4    1    1    2  501    0 -0.13126225794E+01 -0.12972497860E+01 -0.73442042769E+01  0.76782857139E+01  0.12700000000E+01 0.  1.
         -4    1    1    2    0  501  0.13126225794E+01  0.12972497860E+01 -0.24081532493E+01  0.32890632581E+01  0.12700000000E+01 0.  1.
<mgrwt>
<rscale>  0 0.22402533E+01</rscale>
<asrwt>0</asrwt>
<pdfrwt beam="1">0</pdfrwt>
<pdfrwt beam="2">0</pdfrwt>
<totfact> 0.26794645E+12</totfact>
</mgrwt>
</event>
<event>
 4    1  0.3168498E+006  0.3208555E+01  0.7546771E-02  0.2460118E+00
         22   -1    0    0    0    0  0.00000000000E+00  0.00000000000E+00  0.31990373638E+00  0.31990373638E+00  0.00000000000E+00 0.  1.
         22   -1    0    0    0    0 -0.00000000000E+00 -0.00000000000E+00 -0.32906193765E+02  0.32906193765E+02  0.00000000000E+00 0. -1.
          4    1    1    2  501    0 -0.26294993907E+01 -0.13295324825E+01 -0.18759389432E+02  0.19031802740E+02  0.12700000000E+01 0. -1.
         -4    1    1    2    0  501  0.26294993907E+01  0.13295324825E+01 -0.13826900596E+02  0.14194294761E+02  0.12700000000E+01 0.  1.
<mgrwt>
<rscale>  0 0.32085548E+01</rscale>
<asrwt>0</asrwt>
<pdfrwt beam="1">0</pdfrwt>
<pdfrwt beam="2">0</pdfrwt>
<totfact> 0.13114394E+12</totfact>
</mgrwt>
</event>
<event>
 4    1  0.3168498E+006  0.2253434E+01  0.7546771E-02  0.2828342E+00
         22   -1    0    0    0    0  0.00000000000E+00  0.00000000000E+00  0.22275114163E+02  0.22275114163E+02  0.00000000000E+00 0. -1.
         22   -1    0    0    0    0 -0.00000000000E+00 -0.00000000000E+00 -0.15044578808E+01  0.15044578808E+01  0.00000000000E+00 0.  1.
          4    1    1    2  501    0  0.13539538221E+01  0.12774475393E+01 -0.56666321657E+00  0.23235899744E+01  0.12700000000E+01 0.  1.
         -4    1    1    2    0  501 -0.13539538221E+01 -0.12774475393E+01  0.21337319498E+02  0.21455982069E+02  0.12700000000E+01 0. -1.
<mgrwt>
<rscale>  0 0.22534336E+01</rscale>
<asrwt>0</asrwt>
<pdfrwt beam="1">0</pdfrwt>
<pdfrwt beam="2">0</pdfrwt>
<totfact> 0.37069657E+11</totfact>
</mgrwt>
</event>
<event>
 4    1  0.3168498E+006  0.2029543E+01  0.7546771E-02  0.2961064E+00
         22   -1    0    0    0    0  0.00000000000E+00  0.00000000000E+00  0.17561085041E+02  0.17561085041E+02  0.00000000000E+00 0.  1.
         22   -1    0    0    0    0 -0.00000000000E+00 -0.00000000000E+00 -0.24602566471E+00  0.24602566471E+00  0.00000000000E+00 0. -1.
          4    1    1    2  501    0 -0.60168872068E-01 -0.15819373533E+01  0.10580007414E+02  0.10772910608E+02  0.12700000000E+01 0.  1.
         -4    1    1    2    0  501  0.60168872068E-01  0.15819373533E+01  0.67350519618E+01  0.70342000974E+01  0.12700000000E+01 0. -1.
<mgrwt>
<rscale>  0 0.20295433E+01</rscale>
<asrwt>0</asrwt>
<pdfrwt beam="1">0</pdfrwt>
<pdfrwt beam="2">0</pdfrwt>
<totfact> 0.38805194E+12</totfact>
</mgrwt>
</event>
<event>
 4    1  0.3168498E+006  0.2896312E+01  0.7546771E-02  0.2555997E+00
         22   -1    0    0    0    0  0.00000000000E+00  0.00000000000E+00  0.25505542036E+01  0.25505542036E+01  0.00000000000E+00 0. -1.
         22   -1    0    0    0    0 -0.00000000000E+00 -0.00000000000E+00 -0.25285214197E+02  0.25285214197E+02  0.00000000000E+00 0.  1.
          4    1    1    2  501    0 -0.67009240016E+00  0.25152934342E+01 -0.24348518090E+02  0.24520174511E+02  0.12700000000E+01 0.  1.
         -4    1    1    2    0  501  0.67009240016E+00 -0.25152934342E+01  0.16138580964E+01  0.33155938895E+01  0.12700000000E+01 0. -1.
<mgrwt>
<rscale>  0 0.28963123E+01</rscale>
<asrwt>0</asrwt>
<pdfrwt beam="1">0</pdfrwt>
<pdfrwt beam="2">0</pdfrwt>
<totfact> 0.17161184E+11</totfact>
</mgrwt>
</event>
<event>
 4    1  0.3168498E+006  0.2197702E+01  0.7546771E-02  0.2858944E+00
         22   -1    0    0    0    0  0.00000000000E+00  0.00000000000E+00  0.30080016083E+01  0.30080016083E+01  0.00000000000E+00 0.  1.
         22   -1    0    0    0    0 -0.00000000000E+00 -0.00000000000E+00 -0.24953354549E+01  0.24953354549E+01  0.00000000000E+00 0.  1.
          4    1    1    2  501    0  0.88913269505E+00 -0.15577018954E+01 -0.13866846045E+01  0.25986123868E+01  0.12700000000E+01 0.  1.
         -4    1    1    2    0  501 -0.88913269505E+00  0.15577018954E+01  0.18993507579E+01  0.29047246764E+01  0.12700000000E+01 0.  1.
<mgrwt>
<rscale>  0 0.21977016E+01</rscale>
<asrwt>0</asrwt>
<pdfrwt beam="1">0</pdfrwt>
<pdfrwt beam="2">0</pdfrwt>
<totfact> 0.23055968E+12</totfact>
</mgrwt>
</event>
<event>
 4    1  0.3168498E+006  0.2493641E+01  0.7546771E-02  0.2711340E+00
         22   -1    0    0    0    0  0.00000000000E+00  0.00000000000E+00  0.22757366001E+01  0.22757366001E+01  0.00000000000E+00 0. -1.
         22   -1    0    0    0    0 -0.00000000000E+00 -0.00000000000E+00 -0.38010708810E+01  0.38010708810E+01  0.00000000000E+00 0.  1.
          4    1    1    2  501    0  0.21396831382E+01 -0.16462168468E+00 -0.23737302835E+01  0.34427953308E+01  0.12700000000E+01 0.  1.
         -4    1    1    2    0  501 -0.21396831382E+01  0.16462168468E+00  0.84839600256E+00  0.26340121503E+01  0.12700000000E+01 0. -1.
<mgrwt>
<rscale>  0 0.24936408E+01</rscale>
<asrwt>0</asrwt>
<pdfrwt beam="1">0</pdfrwt>
<pdfrwt beam="2">0</pdfrwt>
<totfact> 0.19507913E+12</totfact>
</mgrwt>
</event>
<event>
 4    1  0.3168498E+006  0.3315860E+01  0.7546771E-02  0.2430898E+00
         22   -1    0    0    0    0  0.00000000000E+00  0.00000000000E+00  0.96048816723E+01  0.96048816723E+01  0.00000000000E+00 0.  1.
         22   -1    0    0    0    0 -0.00000000000E+00 -0.00000000000E+00 -0.11448570568E+01  0.11448570568E+01  0.00000000000E+00 0.  1.
          4    1    1    2  501    0  0.81280514948E+00 -0.29531974899E+01  0.42882041462E+01  0.54206662344E+01  0.12700000000E+01 0.  1.
         -4    1    1    2    0  501 -0.81280514948E+00  0.29531974899E+01  0.41718204693E+01  0.53290724947E+01  0.12700000000E+01 0.  1.
<mgrwt>
<rscale>  0 0.33158600E+01</rscale>
<asrwt>0</asrwt>
<pdfrwt beam="1">0</pdfrwt>
<pdfrwt beam="2">0</pdfrwt>
<totfact> 0.14273913E+12</totfact>
</mgrwt>
</event>
<event>
 4    1  0.3168498E+006  0.3199503E+01  0.7546771E-02  0.2462662E+00
         22   -1    0    0    0    0  0.00000000000E+00  0.00000000000E+00  0.25034231110E+00  0.25034231110E+00  0.00000000000E+00 0.  1.
         22   -1    0    0    0    0 -0.00000000000E+00 -0.00000000000E+00 -0.41684282375E+02  0.41684282375E+02  0.00000000000E+00 0. -1.
          4    1    1    2  501    0  0.12058543211E+01 -0.26776545097E+01 -0.17825005296E+02  0.18109876645E+02  0.12700000000E+01 0. -1.
         -4    1    1    2    0  501 -0.12058543211E+01  0.26776545097E+01 -0.23608934768E+02  0.23824748041E+02  0.12700000000E+01 0.  1.
<mgrwt>
<rscale>  0 0.31995028E+01</rscale>
<asrwt>0</asrwt>
<pdfrwt beam="1">0</pdfrwt>
<pdfrwt beam="2">0</pdfrwt>
<totfact> 0.12718745E+12</totfact>
</mgrwt>
</event>
<event>
 4    1  0.3168498E+006  0.2936521E+01  0.7546771E-02  0.2542629E+00
         22   -1    0    0    0    0  0.00000000000E+00  0.00000000000E+00  0.85151590285E+00  0.85151590285E+00  0.00000000000E+00 0.  1.
         22   -1    0    0    0    0 -0.00000000000E+00 -0.00000000000E+00 -0.12355880539E+02  0.12355880539E+02  0.00000000000E+00 0. -1.
          4    1    1    2  501    0  0.21770524294E+00 -0.26387228664E+01 -0.85570388500E+01  0.90468816627E+01  0.12700000000E+01 0. -1.
         -4    1    1    2    0  501 -0.21770524294E+00  0.26387228664E+01 -0.29473257865E+01  0.41605147795E+01  0.12700000000E+01 0.  1.
<mgrwt>
<rscale>  0 0.29365207E+01</rscale>
<asrwt>0</asrwt>
<pdfrwt beam="1">0</pdfrwt>
<pdfrwt beam="2">0</pdfrwt>
<totfact> 0.14738016E+12</totfact>
</mgrwt>
</event>
<event>
 4    1  0.3168498E+006  0.2195878E+01  0.7546771E-02  0.2859970E+00
         22   -1    0    0    0    0  0.00000000000E+00  0.00000000000E+00  0.75832633514E+01  0.75832633514E+01  0.00000000000E+00 0.  1.
         22   -1    0    0    0    0 -0.00000000000E+00 -0.00000000000E+00 -0.77184794052E+00  0.77184794052E+00  0.00000000000E+00 0. -1.
          4    1    1    2  501    0  0.14266295774E+01  0.10833786245E+01  0.16521937425E+01  0.27480220811E+01  0.12700000000E+01 0.  1.
         -4    1    1    2    0  501 -0.14266295774E+01 -0.10833786245E+01  0.51592216683E+01  0.56070892108E+01  0.12700000000E+01 0.  1.
<mgrwt>
<rscale>  0 0.21958782E+01</rscale>
<asrwt>0</asrwt>
<pdfrwt beam="1">0</pdfrwt>
<pdfrwt beam="2">0</pdfrwt>
<totfact> 0.29745431E+12</totfact>
</mgrwt>
</event>
<event>
 4    1  0.3168498E+006  0.2336199E+01  0.7546771E-02  0.2785467E+00
         22   -1    0    0    0    0  0.00000000000E+00  0.00000000000E+00  0.16373379675E+01  0.16373379675E+01  0.00000000000E+00 0.  1.
         22   -1    0    0    0    0 -0.00000000000E+00 -0.00000000000E+00 -0.33896242957E+01  0.33896242957E+01  0.00000000000E+00 0. -1.
          4    1    1    2  501    0 -0.54181187778E-01 -0.19600996407E+01 -0.11999913544E+01  0.26263673492E+01  0.12700000000E+01 0.  1.
         -4    1    1    2    0  501  0.54181187778E-01  0.19600996407E+01 -0.55229497382E+00  0.24005949139E+01  0.12700000000E+01 0. -1.
<mgrwt>
<rscale>  0 0.23361991E+01</rscale>
<asrwt>0</asrwt>
<pdfrwt beam="1">0</pdfrwt>
<pdfrwt beam="2">0</pdfrwt>
<totfact> 0.32656084E+12</totfact>
</mgrwt>
</event>
<event>
 4    1  0.3168498E+006  0.6581547E+01  0.7546771E-02  0.1971150E+00
         22   -1    0    0    0    0  0.00000000000E+00  0.00000000000E+00  0.47816769495E+01  0.47816769495E+01  0.00000000000E+00 0.  1.
         22   -1    0    0    0    0 -0.00000000000E+00 -0.00000000000E+00 -0.13562485717E+02  0.13562485717E+02  0.00000000000E+00 0. -1.
          4    1    1    2  501    0 -0.30735870945E+01  0.56795182267E+01 -0.96757957162E+01  0.11702042029E+02  0.12700000000E+01 0. -1.
         -4    1    1    2    0  501  0.30735870945E+01 -0.56795182267E+01  0.89498694909E+00  0.66421206368E+01  0.12700000000E+01 0.  1.
<mgrwt>
<rscale>  0 0.65815473E+01</rscale>
<asrwt>0</asrwt>
<pdfrwt beam="1">0</pdfrwt>
<pdfrwt beam="2">0</pdfrwt>
<totfact> 0.17810281E+11</totfact>
</mgrwt>
</event>
<event>
 4    1  0.3168498E+006  0.2507118E+01  0.7546771E-02  0.2705400E+00
         22   -1    0    0    0    0  0.00000000000E+00  0.00000000000E+00  0.87727155658E+01  0.87727155658E+01  0.00000000000E+00 0.  1.
         22   -1    0    0    0    0 -0.00000000000E+00 -0.00000000000E+00 -0.12299347562E+01  0.12299347562E+01  0.00000000000E+00 0.  1.
          4    1    1    2  501    0 -0.15026304313E+01 -0.15539766202E+01  0.54001714022E+00  0.25646169423E+01  0.12700000000E+01 0.  1.
         -4    1    1    2    0  501  0.15026304313E+01  0.15539766202E+01  0.70027636693E+01  0.74380333797E+01  0.12700000000E+01 0.  1.
<mgrwt>
<rscale>  0 0.25071182E+01</rscale>
<asrwt>0</asrwt>
<pdfrwt beam="1">0</pdfrwt>
<pdfrwt beam="2">0</pdfrwt>
<totfact> 0.14668419E+12</totfact>
</mgrwt>
</event>
<event>
 4    1  0.3168498E+006  0.7402090E+01  0.7546771E-02  0.1912882E+00
         22   -1    0    0    0    0  0.00000000000E+00  0.00000000000E+00  0.10487142717E+01  0.10487142717E+01  0.00000000000E+00 0. -1.
         22   -1    0    0    0    0 -0.00000000000E+00 -0.00000000000E+00 -0.56815821942E+02  0.56815821942E+02  0.00000000000E+00 0.  1.
          4    1    1    2  501    0  0.36760552038E+01 -0.62979876955E+01 -0.36089077591E+02  0.36840364442E+02  0.12700000000E+01 0. -1.
         -4    1    1    2    0  501 -0.36760552038E+01  0.62979876955E+01 -0.19678030079E+02  0.21024171771E+02  0.12700000000E+01 0.  1.
<mgrwt>
<rscale>  0 0.74020896E+01</rscale>
<asrwt>0</asrwt>
<pdfrwt beam="1">0</pdfrwt>
<pdfrwt beam="2">0</pdfrwt>
<totfact> 0.16763983E+11</totfact>
</mgrwt>
</event>
<event>
 4    1  0.3168498E+006  0.2508768E+01  0.7546771E-02  0.2704677E+00
         22   -1    0    0    0    0  0.00000000000E+00  0.00000000000E+00  0.81449834740E+01  0.81449834740E+01  0.00000000000E+00 0.  1.
         22   -1    0    0    0    0 -0.00000000000E+00 -0.00000000000E+00 -0.79990617350E+00  0.79990617350E+00  0.00000000000E+00 0. -1.
          4    1    1    2  501    0  0.81533093141E+00  0.20040586907E+01  0.28482529930E+01  0.37955843919E+01  0.12700000000E+01 0. -1.
         -4    1    1    2    0  501 -0.81533093141E+00 -0.20040586907E+01  0.44968243075E+01  0.51493052556E+01  0.12700000000E+01 0.  1.
<mgrwt>
<rscale>  0 0.25087678E+01</rscale>
<asrwt>0</asrwt>
<pdfrwt beam="1">0</pdfrwt>
<pdfrwt beam="2">0</pdfrwt>
<totfact> 0.26214364E+12</totfact>
</mgrwt>
</event>
<event>
 4    1  0.3168498E+006  0.2589622E+01  0.7546771E-02  0.2670290E+00
         22   -1    0    0    0    0  0.00000000000E+00  0.00000000000E+00  0.14192865030E+01  0.14192865030E+01  0.00000000000E+00 0.  1.
         22   -1    0    0    0    0 -0.00000000000E+00 -0.00000000000E+00 -0.62369712551E+01  0.62369712551E+01  0.00000000000E+00 0. -1.
          4    1    1    2  501    0  0.21580634307E+01  0.66030492628E+00 -0.42936640564E+01  0.50141491198E+01  0.12700000000E+01 0.  1.
         -4    1    1    2    0  501 -0.21580634307E+01 -0.66030492628E+00 -0.52402069578E+00  0.26421086383E+01  0.12700000000E+01 0. -1.
<mgrwt>
<rscale>  0 0.25896217E+01</rscale>
<asrwt>0</asrwt>
<pdfrwt beam="1">0</pdfrwt>
<pdfrwt beam="2">0</pdfrwt>
<totfact> 0.18730791E+12</totfact>
</mgrwt>
</event>
<event>
 4    1  0.3168498E+006  0.2497888E+01  0.7546771E-02  0.2709462E+00
         22   -1    0    0    0    0  0.00000000000E+00  0.00000000000E+00  0.43962633177E+02  0.43962633177E+02  0.00000000000E+00 0.  1.
         22   -1    0    0    0    0 -0.00000000000E+00 -0.00000000000E+00 -0.28942424613E+00  0.28942424613E+00  0.00000000000E+00 0. -1.
          4    1    1    2  501    0 -0.93506291748E+00  0.19370595474E+01  0.60412495666E+01  0.65372883274E+01  0.12700000000E+01 0. -1.
         -4    1    1    2    0  501  0.93506291748E+00 -0.19370595474E+01  0.37631959364E+02  0.37714769096E+02  0.12700000000E+01 0.  1.
<mgrwt>
<rscale>  0 0.24978876E+01</rscale>
<asrwt>0</asrwt>
<pdfrwt beam="1">0</pdfrwt>
<pdfrwt beam="2">0</pdfrwt>
<totfact> 0.10086857E+12</totfact>
</mgrwt>
</event>
<event>
 4    1  0.3168498E+006  0.2500776E+01  0.7546771E-02  0.2708188E+00
         22   -1    0    0    0    0  0.00000000000E+00  0.00000000000E+00  0.26751549858E+02  0.26751549858E+02  0.00000000000E+00 0. -1.
         22   -1    0    0    0    0 -0.00000000000E+00 -0.00000000000E+00 -0.67942017355E+00  0.67942017355E+00  0.00000000000E+00 0.  1.
          4    1    1    2  501    0  0.10839959881E+01 -0.18617010987E+01  0.19280635293E+01  0.31577376801E+01  0.12700000000E+01 0.  1.
         -4    1    1    2    0  501 -0.10839959881E+01  0.18617010987E+01  0.24144066155E+02  0.24273232352E+02  0.12700000000E+01 0. -1.
<mgrwt>
<rscale>  0 0.25007755E+01</rscale>
<asrwt>0</asrwt>
<pdfrwt beam="1">0</pdfrwt>
<pdfrwt beam="2">0</pdfrwt>
<totfact> 0.72983372E+11</totfact>
</mgrwt>
</event>
<event>
 4    1  0.3168498E+006  0.2394483E+01  0.7546771E-02  0.2756960E+00
         22   -1    0    0    0    0  0.00000000000E+00  0.00000000000E+00  0.54209434920E+01  0.54209434920E+01  0.00000000000E+00 0.  1.
         22   -1    0    0    0    0 -0.00000000000E+00 -0.00000000000E+00 -0.11084224827E+01  0.11084224827E+01  0.00000000000E+00 0. -1.
          4    1    1    2  501    0  0.20298908589E+01 -0.13783238643E-01  0.14576506639E+01  0.28032645852E+01  0.12700000000E+01 0. -1.
         -4    1    1    2    0  501 -0.20298908589E+01  0.13783238643E-01  0.28548703453E+01  0.37261013896E+01  0.12700000000E+01 0.  1.
<mgrwt>
<rscale>  0 0.23944826E+01</rscale>
<asrwt>0</asrwt>
<pdfrwt beam="1">0</pdfrwt>
<pdfrwt beam="2">0</pdfrwt>
<totfact> 0.29382494E+12</totfact>
</mgrwt>
</event>
<event>
 4    1  0.3168498E+006  0.2061239E+01  0.7546771E-02  0.2940579E+00
         22   -1    0    0    0    0  0.00000000000E+00  0.00000000000E+00  0.11584448443E+01  0.11584448443E+01  0.00000000000E+00 0.  1.
         22   -1    0    0    0    0 -0.00000000000E+00 -0.00000000000E+00 -0.40050742813E+01  0.40050742813E+01  0.00000000000E+00 0. -1.
          4    1    1    2  501    0 -0.19349397193E+00 -0.16119453026E+01 -0.21727488658E+01  0.29949199004E+01  0.12700000000E+01 0. -1.
         -4    1    1    2    0  501  0.19349397193E+00  0.16119453026E+01 -0.67388057112E+00  0.21685992253E+01  0.12700000000E+01 0. -1.
<mgrwt>
<rscale>  0 0.20612393E+01</rscale>
<asrwt>0</asrwt>
<pdfrwt beam="1">0</pdfrwt>
<pdfrwt beam="2">0</pdfrwt>
<totfact> 0.39945791E+12</totfact>
</mgrwt>
</event>
<event>
 4    1  0.3168498E+006  0.2111974E+01  0.7546771E-02  0.2909037E+00
         22   -1    0    0    0    0  0.00000000000E+00  0.00000000000E+00  0.34091297784E+00  0.34091297784E+00  0.00000000000E+00 0. -1.
         22   -1    0    0    0    0 -0.00000000000E+00 -0.00000000000E+00 -0.13220289949E+02  0.13220289949E+02  0.00000000000E+00 0.  1.
          4    1    1    2  501    0 -0.62499562347E+00  0.15674548597E+01 -0.57507001909E+01  0.61262539085E+01  0.12700000000E+01 0. -1.
         -4    1    1    2    0  501  0.62499562347E+00 -0.15674548597E+01 -0.71286767799E+01  0.74349490179E+01  0.12700000000E+01 0. -1.
<mgrwt>
<rscale>  0 0.21119740E+01</rscale>
<asrwt>0</asrwt>
<pdfrwt beam="1">0</pdfrwt>
<pdfrwt beam="2">0</pdfrwt>
<totfact> 0.38194074E+12</totfact>
</mgrwt>
</event>
<event>
 4    1  0.3168498E+006  0.3803849E+01  0.7546771E-02  0.2316434E+00
         22   -1    0    0    0    0  0.00000000000E+00  0.00000000000E+00  0.12091956151E+02  0.12091956151E+02  0.00000000000E+00 0. -1.
         22   -1    0    0    0    0 -0.00000000000E+00 -0.00000000000E+00 -0.15315405595E+01  0.15315405595E+01  0.00000000000E+00 0. -1.
          4    1    1    2  501    0  0.21512007944E+01  0.28685715585E+01  0.20947162981E+01  0.43424767143E+01  0.12700000000E+01 0. -1.
         -4    1    1    2    0  501 -0.21512007944E+01 -0.28685715585E+01  0.84656992932E+01  0.92810199961E+01  0.12700000000E+01 0. -1.
<mgrwt>
<rscale>  0 0.38038491E+01</rscale>
<asrwt>0</asrwt>
<pdfrwt beam="1">0</pdfrwt>
<pdfrwt beam="2">0</pdfrwt>
<totfact> 0.77275485E+11</totfact>
</mgrwt>
</event>
<event>
 4    1  0.3168498E+006  0.2029151E+01  0.7546771E-02  0.2961321E+00
         22   -1    0    0    0    0  0.00000000000E+00  0.00000000000E+00  0.20327824363E+01  0.20327824363E+01  0.00000000000E+00 0.  1.
         22   -1    0    0    0    0 -0.00000000000E+00 -0.00000000000E+00 -0.20961127481E+01  0.20961127481E+01  0.00000000000E+00 0. -1.
          4    1    1    2  501    0 -0.54779577098E+00 -0.14847471504E+01 -0.41050633222E+00  0.20702583791E+01  0.12700000000E+01 0. -1.
         -4    1    1    2    0  501  0.54779577098E+00  0.14847471504E+01  0.34717602046E+00  0.20586368054E+01  0.12700000000E+01 0.  1.
<mgrwt>
<rscale>  0 0.20291511E+01</rscale>
<asrwt>0</asrwt>
<pdfrwt beam="1">0</pdfrwt>
<pdfrwt beam="2">0</pdfrwt>
<totfact> 0.44522351E+12</totfact>
</mgrwt>
</event>
<event>
 4    1  0.3168498E+006  0.3025414E+01  0.7546771E-02  0.2514209E+00
         22   -1    0    0    0    0  0.00000000000E+00  0.00000000000E+00  0.85807637810E+01  0.85807637810E+01  0.00000000000E+00 0. -1.
         22   -1    0    0    0    0 -0.00000000000E+00 -0.00000000000E+00 -0.12884719758E+01  0.12884719758E+01  0.00000000000E+00 0. -1.
          4    1    1    2  501    0  0.11061803129E+01 -0.25132842368E+01  0.15989201227E+01  0.34219406918E+01  0.12700000000E+01 0. -1.
         -4    1    1    2    0  501 -0.11061803129E+01  0.25132842368E+01  0.56933716825E+01  0.64472950650E+01  0.12700000000E+01 0. -1.
<mgrwt>
<rscale>  0 0.30254144E+01</rscale>
<asrwt>0</asrwt>
<pdfrwt beam="1">0</pdfrwt>
<pdfrwt beam="2">0</pdfrwt>
<totfact> 0.14282751E+12</totfact>
</mgrwt>
</event>
<event>
 4    1  0.3168498E+006  0.2221740E+01  0.7546771E-02  0.2845564E+00
         22   -1    0    0    0    0  0.00000000000E+00  0.00000000000E+00  0.93327272226E+00  0.93327272226E+00  0.00000000000E+00 0. -1.
         22   -1    0    0    0    0 -0.00000000000E+00 -0.00000000000E+00 -0.16720359850E+02  0.16720359850E+02  0.00000000000E+00 0.  1.
          4    1    1    2  501    0 -0.13453415783E+01 -0.12301568927E+01 -0.15191969372E+02  0.15353568424E+02  0.12700000000E+01 0.  1.
         -4    1    1    2    0  501  0.13453415783E+01  0.12301568927E+01 -0.59511775540E+00  0.23000641482E+01  0.12700000000E+01 0. -1.
<mgrwt>
<rscale>  0 0.22217403E+01</rscale>
<asrwt>0</asrwt>
<pdfrwt beam="1">0</pdfrwt>
<pdfrwt beam="2">0</pdfrwt>
<totfact> 0.91548471E+11</totfact>
</mgrwt>
</event>
<event>
 4    1  0.3168498E+006  0.2147374E+01  0.7546771E-02  0.2887885E+00
         22   -1    0    0    0    0  0.00000000000E+00  0.00000000000E+00  0.33610748502E+01  0.33610748502E+01  0.00000000000E+00 0. -1.
         22   -1    0    0    0    0 -0.00000000000E+00 -0.00000000000E+00 -0.14081064153E+01  0.14081064153E+01  0.00000000000E+00 0. -1.
          4    1    1    2  501    0  0.12246457234E+01  0.12241553827E+01  0.59435330624E+00  0.22281089295E+01  0.12700000000E+01 0. -1.
         -4    1    1    2    0  501 -0.12246457234E+01 -0.12241553827E+01  0.13586151286E+01  0.25410723360E+01  0.12700000000E+01 0. -1.
<mgrwt>
<rscale>  0 0.21473736E+01</rscale>
<asrwt>0</asrwt>
<pdfrwt beam="1">0</pdfrwt>
<pdfrwt beam="2">0</pdfrwt>
<totfact> 0.39232126E+12</totfact>
</mgrwt>
</event>
<event>
 4    1  0.3168498E+006  0.2097753E+01  0.7546771E-02  0.2917729E+00
         22   -1    0    0    0    0  0.00000000000E+00  0.00000000000E+00  0.13878736093E+02  0.13878736093E+02  0.00000000000E+00 0.  1.
         22   -1    0    0    0    0 -0.00000000000E+00 -0.00000000000E+00 -0.31724916605E+00  0.31724916605E+00  0.00000000000E+00 0.  1.
          4    1    1    2  501    0 -0.14292182399E+01 -0.86313524305E+00  0.69481850929E+01  0.72579503519E+01  0.12700000000E+01 0.  1.
         -4    1    1    2    0  501  0.14292182399E+01  0.86313524305E+00  0.66133018339E+01  0.69380349070E+01  0.12700000000E+01 0.  1.
<mgrwt>
<rscale>  0 0.20977529E+01</rscale>
<asrwt>0</asrwt>
<pdfrwt beam="1">0</pdfrwt>
<pdfrwt beam="2">0</pdfrwt>
<totfact> 0.39012390E+12</totfact>
</mgrwt>
</event>
<event>
 4    1  0.3168498E+006  0.4165806E+01  0.7546771E-02  0.2246678E+00
         22   -1    0    0    0    0  0.00000000000E+00  0.00000000000E+00  0.84069595227E+01  0.84069595227E+01  0.00000000000E+00 0. -1.
         22   -1    0    0    0    0 -0.00000000000E+00 -0.00000000000E+00 -0.21182391708E+01  0.21182391708E+01  0.00000000000E+00 0.  1.
          4    1    1    2  501    0 -0.19548318603E+01 -0.34524878820E+01  0.23040755459E+01  0.47605361356E+01  0.12700000000E+01 0.  1.
         -4    1    1    2    0  501  0.19548318603E+01  0.34524878820E+01  0.39846448060E+01  0.57646625579E+01  0.12700000000E+01 0. -1.
<mgrwt>
<rscale>  0 0.41658061E+01</rscale>
<asrwt>0</asrwt>
<pdfrwt beam="1">0</pdfrwt>
<pdfrwt beam="2">0</pdfrwt>
<totfact> 0.82527254E+11</totfact>
</mgrwt>
</event>
<event>
 4    1  0.3168498E+006  0.3986826E+01  0.7546771E-02  0.2279820E+00
         22   -1    0    0    0    0  0.00000000000E+00  0.00000000000E+00  0.94861703857E+01  0.94861703857E+01  0.00000000000E+00 0. -1.
         22   -1    0    0    0    0 -0.00000000000E+00 -0.00000000000E+00 -0.37124975738E+01  0.37124975738E+01  0.00000000000E+00 0.  1.
          4    1    1    2  501    0 -0.29162641686E+01  0.24035985239E+01 -0.20014243213E+01  0.44609956153E+01  0.12700000000E+01 0.  1.
         -4    1    1    2    0  501  0.29162641686E+01 -0.24035985239E+01  0.77750971332E+01  0.87376723443E+01  0.12700000000E+01 0. -1.
<mgrwt>
<rscale>  0 0.39868261E+01</rscale>
<asrwt>0</asrwt>
<pdfrwt beam="1">0</pdfrwt>
<pdfrwt beam="2">0</pdfrwt>
<totfact> 0.37076072E+11</totfact>
</mgrwt>
</event>
<event>
 4    1  0.3168498E+006  0.2510797E+01  0.7546771E-02  0.2703789E+00
         22   -1    0    0    0    0  0.00000000000E+00  0.00000000000E+00  0.10474157058E+00  0.10474157058E+00  0.00000000000E+00 0.  1.
         22   -1    0    0    0    0 -0.00000000000E+00 -0.00000000000E+00 -0.61275584753E+02  0.61275584753E+02  0.00000000000E+00 0. -1.
          4    1    1    2  501    0 -0.14758762721E+01  0.15852414875E+01 -0.34675650993E+02  0.34766433138E+02  0.12700000000E+01 0. -1.
         -4    1    1    2    0  501  0.14758762721E+01 -0.15852414875E+01 -0.26495192189E+02  0.26613893186E+02  0.12700000000E+01 0. -1.
<mgrwt>
<rscale>  0 0.25107970E+01</rscale>
<asrwt>0</asrwt>
<pdfrwt beam="1">0</pdfrwt>
<pdfrwt beam="2">0</pdfrwt>
<totfact> 0.20167322E+12</totfact>
</mgrwt>
</event>
<event>
 4    1  0.3168498E+006  0.2680446E+01  0.7546771E-02  0.2633954E+00
         22   -1    0    0    0    0  0.00000000000E+00  0.00000000000E+00  0.25747936353E+00  0.25747936353E+00  0.00000000000E+00 0.  1.
         22   -1    0    0    0    0 -0.00000000000E+00 -0.00000000000E+00 -0.31023869301E+02  0.31023869301E+02  0.00000000000E+00 0.  1.
          4    1    1    2  501    0 -0.22912181586E+01  0.56763767722E+00 -0.20342851788E+02  0.20518684462E+02  0.12700000000E+01 0.  1.
         -4    1    1    2    0  501  0.22912181586E+01 -0.56763767722E+00 -0.10423538149E+02  0.10762664202E+02  0.12700000000E+01 0.  1.
<mgrwt>
<rscale>  0 0.26804465E+01</rscale>
<asrwt>0</asrwt>
<pdfrwt beam="1">0</pdfrwt>
<pdfrwt beam="2">0</pdfrwt>
<totfact> 0.18034851E+12</totfact>
</mgrwt>
</event>
<event>
 4    1  0.3168498E+006  0.2384987E+01  0.7546771E-02  0.2761515E+00
         22   -1    0    0    0    0  0.00000000000E+00  0.00000000000E+00  0.32330033534E+00  0.32330033534E+00  0.00000000000E+00 0. -1.
         22   -1    0    0    0    0 -0.00000000000E+00 -0.00000000000E+00 -0.22475953580E+02  0.22475953580E+02  0.00000000000E+00 0.  1.
          4    1    1    2  501    0  0.19077127964E+01 -0.66022287958E+00 -0.16389159583E+02  0.16561784752E+02  0.12700000000E+01 0.  1.
         -4    1    1    2    0  501 -0.19077127964E+01  0.66022287958E+00 -0.57634936619E+01  0.62374691627E+01  0.12700000000E+01 0. -1.
<mgrwt>
<rscale>  0 0.23849869E+01</rscale>
<asrwt>0</asrwt>
<pdfrwt beam="1">0</pdfrwt>
<pdfrwt beam="2">0</pdfrwt>
<totfact> 0.21009841E+12</totfact>
</mgrwt>
</event>
<event>
 4    1  0.3168498E+006  0.2194291E+01  0.7546771E-02  0.2860865E+00
         22   -1    0    0    0    0  0.00000000000E+00  0.00000000000E+00  0.33257099676E+01  0.33257099676E+01  0.00000000000E+00 0.  1.
         22   -1    0    0    0    0 -0.00000000000E+00 -0.00000000000E+00 -0.21514451024E+01  0.21514451024E+01  0.00000000000E+00 0. -1.
          4    1    1    2  501    0 -0.14173309515E+01 -0.10923303261E+01 -0.97904662007E+00  0.24027993782E+01  0.12700000000E+01 0. -1.
         -4    1    1    2    0  501  0.14173309515E+01  0.10923303261E+01  0.21533114852E+01  0.30743556918E+01  0.12700000000E+01 0. -1.
<mgrwt>
<rscale>  0 0.21942909E+01</rscale>
<asrwt>0</asrwt>
<pdfrwt beam="1">0</pdfrwt>
<pdfrwt beam="2">0</pdfrwt>
<totfact> 0.24353199E+12</totfact>
</mgrwt>
</event>
<event>
 4    1  0.3168498E+006  0.3168589E+01  0.7546771E-02  0.2471447E+00
         22   -1    0    0    0    0  0.00000000000E+00  0.00000000000E+00  0.61072388239E+01  0.61072388239E+01  0.00000000000E+00 0. -1.
         22   -1    0    0    0    0 -0.00000000000E+00 -0.00000000000E+00 -0.24124276859E+01  0.24124276859E+01  0.00000000000E+00 0. -1.
          4    1    1    2  501    0 -0.26999974009E+01  0.10663340168E+01 -0.55686299652E+00  0.32171494521E+01  0.12700000000E+01 0. -1.
         -4    1    1    2    0  501  0.26999974009E+01 -0.10663340168E+01  0.42516741346E+01  0.53025170577E+01  0.12700000000E+01 0. -1.
<mgrwt>
<rscale>  0 0.31685887E+01</rscale>
<asrwt>0</asrwt>
<pdfrwt beam="1">0</pdfrwt>
<pdfrwt beam="2">0</pdfrwt>
<totfact> 0.10403987E+12</totfact>
</mgrwt>
</event>
<event>
 4    1  0.3168498E+006  0.2630620E+01  0.7546771E-02  0.2653602E+00
         22   -1    0    0    0    0  0.00000000000E+00  0.00000000000E+00  0.82821179425E+00  0.82821179425E+00  0.00000000000E+00 0. -1.
         22   -1    0    0    0    0 -0.00000000000E+00 -0.00000000000E+00 -0.87041534837E+01  0.87041534837E+01  0.00000000000E+00 0. -1.
          4    1    1    2  501    0  0.22576776311E+01  0.45842652255E+00 -0.48918090125E+01  0.55542739019E+01  0.12700000000E+01 0. -1.
         -4    1    1    2    0  501 -0.22576776311E+01 -0.45842652255E+00 -0.29841326769E+01  0.39780913760E+01  0.12700000000E+01 0. -1.
<mgrwt>
<rscale>  0 0.26306203E+01</rscale>
<asrwt>0</asrwt>
<pdfrwt beam="1">0</pdfrwt>
<pdfrwt beam="2">0</pdfrwt>
<totfact> 0.23262280E+12</totfact>
</mgrwt>
</event>
<event>
 4    1  0.3168498E+006  0.2188523E+01  0.7546771E-02  0.2864126E+00
         22   -1    0    0    0    0  0.00000000000E+00  0.00000000000E+00  0.78027241556E+00  0.78027241556E+00  0.00000000000E+00 0. -1.
         22   -1    0    0    0    0 -0.00000000000E+00 -0.00000000000E+00 -0.92396238575E+01  0.92396238575E+01  0.00000000000E+00 0.  1.
          4    1    1    2  501    0  0.28376621185E+00 -0.17596046126E+01 -0.71321740138E+01  0.74603979665E+01  0.12700000000E+01 0.  1.
         -4    1    1    2    0  501 -0.28376621185E+00  0.17596046126E+01 -0.13271774282E+01  0.25594983066E+01  0.12700000000E+01 0. -1.
<mgrwt>
<rscale>  0 0.21885227E+01</rscale>
<asrwt>0</asrwt>
<pdfrwt beam="1">0</pdfrwt>
<pdfrwt beam="2">0</pdfrwt>
<totfact> 0.23164214E+12</totfact>
</mgrwt>
</event>
<event>
 4    1  0.3168498E+006  0.3214576E+01  0.7546771E-02  0.2458433E+00
         22   -1    0    0    0    0  0.00000000000E+00  0.00000000000E+00  0.19080524272E+01  0.19080524272E+01  0.00000000000E+00 0. -1.
         22   -1    0    0    0    0 -0.00000000000E+00 -0.00000000000E+00 -0.26965339621E+02  0.26965339621E+02  0.00000000000E+00 0.  1.
          4    1    1    2  501    0  0.28983602604E+01  0.56578243703E+00 -0.25434432022E+02  0.25636767234E+02  0.12700000000E+01 0.  1.
         -4    1    1    2    0  501 -0.28983602604E+01 -0.56578243703E+00  0.37714482777E+00  0.32366248139E+01  0.12700000000E+01 0. -1.
<mgrwt>
<rscale>  0 0.32145765E+01</rscale>
<asrwt>0</asrwt>
<pdfrwt beam="1">0</pdfrwt>
<pdfrwt beam="2">0</pdfrwt>
<totfact> 0.22152855E+11</totfact>
</mgrwt>
</event>
<event>
 4    1  0.3168498E+006  0.2227716E+01  0.7546771E-02  0.2842281E+00
         22   -1    0    0    0    0  0.00000000000E+00  0.00000000000E+00  0.23426504499E+00  0.23426504499E+00  0.00000000000E+00 0.  1.
         22   -1    0    0    0    0 -0.00000000000E+00 -0.00000000000E+00 -0.21612731100E+02  0.21612731100E+02  0.00000000000E+00 0.  1.
          4    1    1    2  501    0  0.18280220866E+01 -0.90307173742E-01 -0.12227361204E+02  0.12428639594E+02  0.12700000000E+01 0.  1.
         -4    1    1    2    0  501 -0.18280220866E+01  0.90307173742E-01 -0.91511048508E+01  0.94183565511E+01  0.12700000000E+01 0.  1.
<mgrwt>
<rscale>  0 0.22277163E+01</rscale>
<asrwt>0</asrwt>
<pdfrwt beam="1">0</pdfrwt>
<pdfrwt beam="2">0</pdfrwt>
<totfact> 0.31652671E+12</totfact>
</mgrwt>
</event>
<event>
 4    1  0.3168498E+006  0.2089314E+01  0.7546771E-02  0.2922941E+00
         22   -1    0    0    0    0  0.00000000000E+00  0.00000000000E+00  0.11214059927E+01  0.11214059927E+01  0.00000000000E+00 0. -1.
         22   -1    0    0    0    0 -0.00000000000E+00 -0.00000000000E+00 -0.45478850018E+01  0.45478850018E+01  0.00000000000E+00 0.  1.
          4    1    1    2  501    0 -0.15898140817E+01 -0.47415745669E+00 -0.27891957440E+01  0.34849457681E+01  0.12700000000E+01 0.  1.
         -4    1    1    2    0  501  0.15898140817E+01  0.47415745669E+00 -0.63728326504E+00  0.21843452264E+01  0.12700000000E+01 0. -1.
<mgrwt>
<rscale>  0 0.20893143E+01</rscale>
<asrwt>0</asrwt>
<pdfrwt beam="1">0</pdfrwt>
<pdfrwt beam="2">0</pdfrwt>
<totfact> 0.35691081E+12</totfact>
</mgrwt>
</event>
<event>
 4    1  0.3168498E+006  0.2019340E+01  0.7546771E-02  0.2967792E+00
         22   -1    0    0    0    0  0.00000000000E+00  0.00000000000E+00  0.43514259612E+01  0.43514259612E+01  0.00000000000E+00 0. -1.
         22   -1    0    0    0    0 -0.00000000000E+00 -0.00000000000E+00 -0.94061150651E+00  0.94061150651E+00  0.00000000000E+00 0. -1.
          4    1    1    2  501    0  0.13549009644E+01  0.79314391414E+00  0.15438021363E+01  0.25418613117E+01  0.12700000000E+01 0. -1.
         -4    1    1    2    0  501 -0.13549009644E+01 -0.79314391414E+00  0.18670123184E+01  0.27501761560E+01  0.12700000000E+01 0. -1.
<mgrwt>
<rscale>  0 0.20193400E+01</rscale>
<asrwt>0</asrwt>
<pdfrwt beam="1">0</pdfrwt>
<pdfrwt beam="2">0</pdfrwt>
<totfact> 0.45963815E+12</totfact>
</mgrwt>
</event>
<event>
 4    1  0.3168498E+006  0.2694306E+01  0.7546771E-02  0.2628607E+00
         22   -1    0    0    0    0  0.00000000000E+00  0.00000000000E+00  0.38914412454E+00  0.38914412454E+00  0.00000000000E+00 0. -1.
         22   -1    0    0    0    0 -0.00000000000E+00 -0.00000000000E+00 -0.18882251838E+02  0.18882251838E+02  0.00000000000E+00 0.  1.
          4    1    1    2  501    0 -0.71196121234E+00  0.22670459370E+01 -0.10304819356E+02  0.10651224719E+02  0.12700000000E+01 0. -1.
         -4    1    1    2    0  501  0.71196121234E+00 -0.22670459370E+01 -0.81882883571E+01  0.86201712435E+01  0.12700000000E+01 0.  1.
<mgrwt>
<rscale>  0 0.26943062E+01</rscale>
<asrwt>0</asrwt>
<pdfrwt beam="1">0</pdfrwt>
<pdfrwt beam="2">0</pdfrwt>
<totfact> 0.21206005E+12</totfact>
</mgrwt>
</event>
<event>
 4    1  0.3168498E+006  0.4913784E+01  0.7546771E-02  0.2133437E+00
         22   -1    0    0    0    0  0.00000000000E+00  0.00000000000E+00  0.27577063568E+01  0.27577063568E+01  0.00000000000E+00 0.  1.
         22   -1    0    0    0    0 -0.00000000000E+00 -0.00000000000E+00 -0.12937041477E+02  0.12937041477E+02  0.00000000000E+00 0. -1.
          4    1    1    2  501    0 -0.46933777858E+01 -0.71033893579E+00 -0.95510731354E+01  0.10740962456E+02  0.12700000000E+01 0. -1.
         -4    1    1    2    0  501  0.46933777858E+01  0.71033893579E+00 -0.62826198437E+00  0.49537853773E+01  0.12700000000E+01 0. -1.
<mgrwt>
<rscale>  0 0.49137843E+01</rscale>
<asrwt>0</asrwt>
<pdfrwt beam="1">0</pdfrwt>
<pdfrwt beam="2">0</pdfrwt>
<totfact> 0.36005809E+11</totfact>
</mgrwt>
</event>
<event>
 4    1  0.3168498E+006  0.2209049E+01  0.7546771E-02  0.2852593E+00
         22   -1    0    0    0    0  0.00000000000E+00  0.00000000000E+00  0.23328886861E+01  0.23328886861E+01  0.00000000000E+00 0. -1.
         22   -1    0    0    0    0 -0.00000000000E+00 -0.00000000000E+00 -0.21177724323E+01  0.21177724323E+01  0.00000000000E+00 0. -1.
          4    1    1    2  501    0  0.16335854045E+01 -0.77356214595E+00 -0.13895687384E+00  0.22134156140E+01  0.12700000000E+01 0. -1.
         -4    1    1    2    0  501 -0.16335854045E+01  0.77356214595E+00  0.35407312764E+00  0.22372455045E+01  0.12700000000E+01 0. -1.
<mgrwt>
<rscale>  0 0.22090495E+01</rscale>
<asrwt>0</asrwt>
<pdfrwt beam="1">0</pdfrwt>
<pdfrwt beam="2">0</pdfrwt>
<totfact> 0.37503942E+12</totfact>
</mgrwt>
</event>
<event>
 4    1  0.3168498E+006  0.2282574E+01  0.7546771E-02  0.2812910E+00
         22   -1    0    0    0    0  0.00000000000E+00  0.00000000000E+00  0.25250174010E+01  0.25250174010E+01  0.00000000000E+00 0. -1.
         22   -1    0    0    0    0 -0.00000000000E+00 -0.00000000000E+00 -0.32469333538E+01  0.32469333538E+01  0.00000000000E+00 0.  1.
          4    1    1    2  501    0  0.18666902706E+01 -0.33572408701E+00 -0.21033447387E+01  0.31039011451E+01  0.12700000000E+01 0.  1.
         -4    1    1    2    0  501 -0.18666902706E+01  0.33572408701E+00  0.13814287860E+01  0.26680496097E+01  0.12700000000E+01 0. -1.
<mgrwt>
<rscale>  0 0.22825738E+01</rscale>
<asrwt>0</asrwt>
<pdfrwt beam="1">0</pdfrwt>
<pdfrwt beam="2">0</pdfrwt>
<totfact> 0.20796897E+12</totfact>
</mgrwt>
</event>
<event>
 4    1  0.3168498E+006  0.2299559E+01  0.7546771E-02  0.2804086E+00
         22   -1    0    0    0    0  0.00000000000E+00  0.00000000000E+00  0.33050201521E+01  0.33050201521E+01  0.00000000000E+00 0.  1.
         22   -1    0    0    0    0 -0.00000000000E+00 -0.00000000000E+00 -0.19143816778E+01  0.19143816778E+01  0.00000000000E+00 0.  1.
          4    1    1    2  501    0 -0.61545585868E+00 -0.18155678310E+01 -0.36227135784E+00  0.23279203164E+01  0.12700000000E+01 0.  1.
         -4    1    1    2    0  501  0.61545585868E+00  0.18155678310E+01  0.17529098322E+01  0.28914815135E+01  0.12700000000E+01 0.  1.
<mgrwt>
<rscale>  0 0.22995592E+01</rscale>
<asrwt>0</asrwt>
<pdfrwt beam="1">0</pdfrwt>
<pdfrwt beam="2">0</pdfrwt>
<totfact> 0.28082866E+12</totfact>
</mgrwt>
</event>
<event>
 4    1  0.3168498E+006  0.2121340E+01  0.7546771E-02  0.2903374E+00
         22   -1    0    0    0    0  0.00000000000E+00  0.00000000000E+00  0.97901207596E+00  0.97901207596E+00  0.00000000000E+00 0. -1.
         22   -1    0    0    0    0 -0.00000000000E+00 -0.00000000000E+00 -0.55210884101E+01  0.55210884101E+01  0.00000000000E+00 0. -1.
          4    1    1    2  501    0 -0.12898173672E+01 -0.11061445744E+01 -0.36009982166E+01  0.41793866555E+01  0.12700000000E+01 0. -1.
         -4    1    1    2    0  501  0.12898173672E+01  0.11061445744E+01 -0.94107811754E+00  0.23207138306E+01  0.12700000000E+01 0. -1.
<mgrwt>
<rscale>  0 0.21213403E+01</rscale>
<asrwt>0</asrwt>
<pdfrwt beam="1">0</pdfrwt>
<pdfrwt beam="2">0</pdfrwt>
<totfact> 0.33131975E+12</totfact>
</mgrwt>
</event>
<event>
 4    1  0.3168498E+006  0.2883408E+01  0.7546771E-02  0.2560359E+00
         22   -1    0    0    0    0  0.00000000000E+00  0.00000000000E+00  0.57056036504E+02  0.57056036504E+02  0.00000000000E+00 0. -1.
         22   -1    0    0    0    0 -0.00000000000E+00 -0.00000000000E+00 -0.92265303004E+00  0.92265303004E+00  0.00000000000E+00 0. -1.
          4    1    1    2  501    0  0.67675488124E+00  0.24986287907E+01  0.14648452814E+01  0.32341636788E+01  0.12700000000E+01 0. -1.
         -4    1    1    2    0  501 -0.67675488124E+00 -0.24986287907E+01  0.54668538192E+02  0.54744525855E+02  0.12700000000E+01 0. -1.
<mgrwt>
<rscale>  0 0.28834082E+01</rscale>
<asrwt>0</asrwt>
<pdfrwt beam="1">0</pdfrwt>
<pdfrwt beam="2">0</pdfrwt>
<totfact> 0.19294133E+11</totfact>
</mgrwt>
</event>
<event>
 4    1  0.3168498E+006  0.3018365E+01  0.7546771E-02  0.2516408E+00
         22   -1    0    0    0    0  0.00000000000E+00  0.00000000000E+00  0.22227245673E+01  0.22227245673E+01  0.00000000000E+00 0.  1.
         22   -1    0    0    0    0 -0.00000000000E+00 -0.00000000000E+00 -0.93777394714E+01  0.93777394714E+01  0.00000000000E+00 0. -1.
          4    1    1    2  501    0  0.23328087504E+01  0.14337463527E+01 -0.79293104032E+01  0.84843673153E+01  0.12700000000E+01 0. -1.
         -4    1    1    2    0  501 -0.23328087504E+01 -0.14337463527E+01  0.77429549920E+00  0.31160967234E+01  0.12700000000E+01 0.  1.
<mgrwt>
<rscale>  0 0.30183647E+01</rscale>
<asrwt>0</asrwt>
<pdfrwt beam="1">0</pdfrwt>
<pdfrwt beam="2">0</pdfrwt>
<totfact> 0.68410769E+11</totfact>
</mgrwt>
</event>
<event>
 4    1  0.3168498E+006  0.3237636E+01  0.7546771E-02  0.2452030E+00
         22   -1    0    0    0    0  0.00000000000E+00  0.00000000000E+00  0.48538574958E+01  0.48538574958E+01  0.00000000000E+00 0.  1.
         22   -1    0    0    0    0 -0.00000000000E+00 -0.00000000000E+00 -0.22369442917E+01  0.22369442917E+01  0.00000000000E+00 0. -1.
          4    1    1    2  501    0  0.26260302374E+01 -0.14047600958E+01  0.64911181946E+00  0.33020647917E+01  0.12700000000E+01 0. -1.
         -4    1    1    2    0  501 -0.26260302374E+01  0.14047600958E+01  0.19678013846E+01  0.37887369959E+01  0.12700000000E+01 0.  1.
<mgrwt>
<rscale>  0 0.32376358E+01</rscale>
<asrwt>0</asrwt>
<pdfrwt beam="1">0</pdfrwt>
<pdfrwt beam="2">0</pdfrwt>
<totfact> 0.14917522E+12</totfact>
</mgrwt>
</event>
<event>
 4    1  0.3168498E+006  0.2702790E+01  0.7546771E-02  0.2625359E+00
         22   -1    0    0    0    0  0.00000000000E+00  0.00000000000E+00  0.23173631968E+01  0.23173631968E+01  0.00000000000E+00 0.  1.
         22   -1    0    0    0    0 -0.00000000000E+00 -0.00000000000E+00 -0.44820684196E+01  0.44820684196E+01  0.00000000000E+00 0. -1.
          4    1    1    2  501    0  0.31433554650E+00  0.23650295352E+01 -0.29341268228E+01  0.39892570424E+01  0.12700000000E+01 0. -1.
         -4    1    1    2    0  501 -0.31433554650E+00 -0.23650295352E+01  0.76942160004E+00  0.28101745741E+01  0.12700000000E+01 0.  1.
<mgrwt>
<rscale>  0 0.27027896E+01</rscale>
<asrwt>0</asrwt>
<pdfrwt beam="1">0</pdfrwt>
<pdfrwt beam="2">0</pdfrwt>
<totfact> 0.15731970E+12</totfact>
</mgrwt>
</event>
<event>
 4    1  0.3168498E+006  0.2215979E+01  0.7546771E-02  0.2848745E+00
         22   -1    0    0    0    0  0.00000000000E+00  0.00000000000E+00  0.32535689394E+02  0.32535689394E+02  0.00000000000E+00 0.  1.
         22   -1    0    0    0    0 -0.00000000000E+00 -0.00000000000E+00 -0.25511521602E+00  0.25511521602E+00  0.00000000000E+00 0. -1.
          4    1    1    2  501    0 -0.16539592526E+01  0.74972231888E+00  0.56627321895E+01  0.60808799211E+01  0.12700000000E+01 0. -1.
         -4    1    1    2    0  501  0.16539592526E+01 -0.74972231888E+00  0.26617841988E+02  0.26709924688E+02  0.12700000000E+01 0. -1.
<mgrwt>
<rscale>  0 0.22159794E+01</rscale>
<asrwt>0</asrwt>
<pdfrwt beam="1">0</pdfrwt>
<pdfrwt beam="2">0</pdfrwt>
<totfact> 0.17145350E+12</totfact>
</mgrwt>
</event>
<event>
 4    1  0.3168498E+006  0.2755097E+01  0.7546771E-02  0.2605738E+00
         22   -1    0    0    0    0  0.00000000000E+00  0.00000000000E+00  0.12329003943E+02  0.12329003943E+02  0.00000000000E+00 0. -1.
         22   -1    0    0    0    0 -0.00000000000E+00 -0.00000000000E+00 -0.81535237179E+00  0.81535237179E+00  0.00000000000E+00 0.  1.
          4    1    1    2  501    0 -0.78338976830E+00 -0.23160222845E+01  0.25043807140E+01  0.37232353555E+01  0.12700000000E+01 0.  1.
         -4    1    1    2    0  501  0.78338976830E+00  0.23160222845E+01  0.90092708570E+01  0.94211209592E+01  0.12700000000E+01 0. -1.
<mgrwt>
<rscale>  0 0.27550969E+01</rscale>
<asrwt>0</asrwt>
<pdfrwt beam="1">0</pdfrwt>
<pdfrwt beam="2">0</pdfrwt>
<totfact> 0.15525529E+12</totfact>
</mgrwt>
</event>
<event>
 4    1  0.3168498E+006  0.4342851E+01  0.7546771E-02  0.2216186E+00
         22   -1    0    0    0    0  0.00000000000E+00  0.00000000000E+00  0.28750857423E+01  0.28750857423E+01  0.00000000000E+00 0. -1.
         22   -1    0    0    0    0 -0.00000000000E+00 -0.00000000000E+00 -0.65601836583E+01  0.65601836583E+01  0.00000000000E+00 0.  1.
          4    1    1    2  501    0 -0.28493688136E+00 -0.41432190588E+01 -0.18130528109E+01  0.47061145003E+01  0.12700000000E+01 0.  1.
         -4    1    1    2    0  501  0.28493688136E+00  0.41432190588E+01 -0.18720451051E+01  0.47291549003E+01  0.12700000000E+01 0. -1.
<mgrwt>
<rscale>  0 0.43428508E+01</rscale>
<asrwt>0</asrwt>
<pdfrwt beam="1">0</pdfrwt>
<pdfrwt beam="2">0</pdfrwt>
<totfact> 0.77878296E+11</totfact>
</mgrwt>
</event>
<event>
 4    1  0.3168498E+006  0.3285498E+01  0.7546771E-02  0.2438995E+00
         22   -1    0    0    0    0  0.00000000000E+00  0.00000000000E+00  0.30392790534E+02  0.30392790534E+02  0.00000000000E+00 0. -1.
         22   -1    0    0    0    0 -0.00000000000E+00 -0.00000000000E+00 -0.36270281768E+00  0.36270281768E+00  0.00000000000E+00 0.  1.
          4    1    1    2  501    0 -0.23831094710E+01 -0.18714659279E+01  0.12798368387E+02  0.13213354186E+02  0.12700000000E+01 0.  1.
         -4    1    1    2    0  501  0.23831094710E+01  0.18714659279E+01  0.17231719330E+02  0.17542139166E+02  0.12700000000E+01 0. -1.
<mgrwt>
<rscale>  0 0.32854978E+01</rscale>
<asrwt>0</asrwt>
<pdfrwt beam="1">0</pdfrwt>
<pdfrwt beam="2">0</pdfrwt>
<totfact> 0.12607165E+12</totfact>
</mgrwt>
</event>
<event>
 4    1  0.3168498E+006  0.2400240E+01  0.7546771E-02  0.2754214E+00
         22   -1    0    0    0    0  0.00000000000E+00  0.00000000000E+00  0.20868243125E+02  0.20868243125E+02  0.00000000000E+00 0.  1.
         22   -1    0    0    0    0 -0.00000000000E+00 -0.00000000000E+00 -0.28790474870E+00  0.28790474870E+00  0.00000000000E+00 0. -1.
          4    1    1    2  501    0  0.20363411774E+01  0.39584495000E-01  0.12434600162E+02  0.12664139667E+02  0.12700000000E+01 0.  1.
         -4    1    1    2    0  501 -0.20363411774E+01 -0.39584495000E-01  0.81457382152E+01  0.84920082073E+01  0.12700000000E+01 0. -1.
<mgrwt>
<rscale>  0 0.24002401E+01</rscale>
<asrwt>0</asrwt>
<pdfrwt beam="1">0</pdfrwt>
<pdfrwt beam="2">0</pdfrwt>
<totfact> 0.26257388E+12</totfact>
</mgrwt>
</event>
<event>
 4    1  0.3168498E+006  0.2663963E+01  0.7546771E-02  0.2640379E+00
         22   -1    0    0    0    0  0.00000000000E+00  0.00000000000E+00  0.49937755660E+01  0.49937755660E+01  0.00000000000E+00 0.  1.
         22   -1    0    0    0    0 -0.00000000000E+00 -0.00000000000E+00 -0.17086076616E+01  0.17086076616E+01  0.00000000000E+00 0. -1.
          4    1    1    2  501    0  0.16291105261E+01  0.16822004312E+01  0.26792172266E+00  0.26774019957E+01  0.12700000000E+01 0. -1.
         -4    1    1    2    0  501 -0.16291105261E+01 -0.16822004312E+01  0.30172461817E+01  0.40249812320E+01  0.12700000000E+01 0.  1.
<mgrwt>
<rscale>  0 0.26639631E+01</rscale>
<asrwt>0</asrwt>
<pdfrwt beam="1">0</pdfrwt>
<pdfrwt beam="2">0</pdfrwt>
<totfact> 0.19699615E+12</totfact>
</mgrwt>
</event>
<event>
 4    1  0.3168498E+006  0.2443209E+01  0.7546771E-02  0.2734109E+00
         22   -1    0    0    0    0  0.00000000000E+00  0.00000000000E+00  0.86225260338E+01  0.86225260338E+01  0.00000000000E+00 0. -1.
         22   -1    0    0    0    0 -0.00000000000E+00 -0.00000000000E+00 -0.94388850276E+00  0.94388850276E+00  0.00000000000E+00 0.  1.
          4    1    1    2  501    0  0.13137715540E+01 -0.16218434827E+01  0.13697874544E+01  0.28009979737E+01  0.12700000000E+01 0.  1.
         -4    1    1    2    0  501 -0.13137715540E+01  0.16218434827E+01  0.63088500767E+01  0.67654165628E+01  0.12700000000E+01 0. -1.
<mgrwt>
<rscale>  0 0.24432094E+01</rscale>
<asrwt>0</asrwt>
<pdfrwt beam="1">0</pdfrwt>
<pdfrwt beam="2">0</pdfrwt>
<totfact> 0.20270976E+12</totfact>
</mgrwt>
</event>
<event>
 4    1  0.3168498E+006  0.2121658E+01  0.7546771E-02  0.2903183E+00
         22   -1    0    0    0    0  0.00000000000E+00  0.00000000000E+00  0.40381609716E+01  0.40381609716E+01  0.00000000000E+00 0. -1.
         22   -1    0    0    0    0 -0.00000000000E+00 -0.00000000000E+00 -0.13515730363E+01  0.13515730363E+01  0.00000000000E+00 0. -1.
          4    1    1    2  501    0 -0.12893355222E+01  0.11073154570E+01  0.21517813904E+00  0.21325419671E+01  0.12700000000E+01 0. -1.
         -4    1    1    2    0  501  0.12893355222E+01 -0.11073154570E+01  0.24714097962E+01  0.32571920408E+01  0.12700000000E+01 0. -1.
<mgrwt>
<rscale>  0 0.21216582E+01</rscale>
<asrwt>0</asrwt>
<pdfrwt beam="1">0</pdfrwt>
<pdfrwt beam="2">0</pdfrwt>
<totfact> 0.33150479E+12</totfact>
</mgrwt>
</event>
<event>
 4    1  0.3168498E+006  0.2855210E+01  0.7546771E-02  0.2570014E+00
         22   -1    0    0    0    0  0.00000000000E+00  0.00000000000E+00  0.11563257278E+01  0.11563257278E+01  0.00000000000E+00 0.  1.
         22   -1    0    0    0    0 -0.00000000000E+00 -0.00000000000E+00 -0.12622840524E+02  0.12622840524E+02  0.00000000000E+00 0. -1.
          4    1    1    2  501    0  0.89859544947E-01 -0.25556308206E+01 -0.10310968873E+02  0.10698986061E+02  0.12700000000E+01 0. -1.
         -4    1    1    2    0  501 -0.89859544947E-01  0.25556308206E+01 -0.11555459235E+01  0.30801801912E+01  0.12700000000E+01 0.  1.
<mgrwt>
<rscale>  0 0.28552099E+01</rscale>
<asrwt>0</asrwt>
<pdfrwt beam="1">0</pdfrwt>
<pdfrwt beam="2">0</pdfrwt>
<totfact> 0.10124336E+12</totfact>
</mgrwt>
</event>
<event>
 4    1  0.3168498E+006  0.7625125E+01  0.7546771E-02  0.1898719E+00
         22   -1    0    0    0    0  0.00000000000E+00  0.00000000000E+00  0.37935612191E+01  0.37935612191E+01  0.00000000000E+00 0. -1.
         22   -1    0    0    0    0 -0.00000000000E+00 -0.00000000000E+00 -0.26643452391E+02  0.26643452391E+02  0.00000000000E+00 0.  1.
          4    1    1    2  501    0  0.39774672509E+01 -0.63803903701E+01 -0.21343284705E+02  0.22664472838E+02  0.12700000000E+01 0.  1.
         -4    1    1    2    0  501 -0.39774672509E+01  0.63803903701E+01 -0.15066064663E+01  0.77725407719E+01  0.12700000000E+01 0. -1.
<mgrwt>
<rscale>  0 0.76251247E+01</rscale>
<asrwt>0</asrwt>
<pdfrwt beam="1">0</pdfrwt>
<pdfrwt beam="2">0</pdfrwt>
<totfact> 0.10097926E+11</totfact>
</mgrwt>
</event>
<event>
 4    1  0.3168498E+006  0.5688031E+01  0.7546771E-02  0.2048849E+00
         22   -1    0    0    0    0  0.00000000000E+00  0.00000000000E+00  0.16428823852E+01  0.16428823852E+01  0.00000000000E+00 0. -1.
         22   -1    0    0    0    0 -0.00000000000E+00 -0.00000000000E+00 -0.20501678616E+02  0.20501678616E+02  0.00000000000E+00 0.  1.
          4    1    1    2  501    0 -0.45101403810E+01 -0.32248155749E+01 -0.72307189319E+01  0.91998368475E+01  0.12700000000E+01 0. -1.
         -4    1    1    2    0  501  0.45101403810E+01  0.32248155749E+01 -0.11628077299E+02  0.12944724154E+02  0.12700000000E+01 0.  1.
<mgrwt>
<rscale>  0 0.56880314E+01</rscale>
<asrwt>0</asrwt>
<pdfrwt beam="1">0</pdfrwt>
<pdfrwt beam="2">0</pdfrwt>
<totfact> 0.37162132E+11</totfact>
</mgrwt>
</event>
<event>
 4    1  0.3168498E+006  0.2321419E+01  0.7546771E-02  0.2792911E+00
         22   -1    0    0    0    0  0.00000000000E+00  0.00000000000E+00  0.53723798045E+00  0.53723798045E+00  0.00000000000E+00 0. -1.
         22   -1    0    0    0    0 -0.00000000000E+00 -0.00000000000E+00 -0.50550608734E+02  0.50550608734E+02  0.00000000000E+00 0.  1.
          4    1    1    2  501    0 -0.13848705016E+01 -0.13631649065E+01 -0.47876230209E+02  0.47932477548E+02  0.12700000000E+01 0.  1.
         -4    1    1    2    0  501  0.13848705016E+01  0.13631649065E+01 -0.21371405441E+01  0.31553691660E+01  0.12700000000E+01 0. -1.
<mgrwt>
<rscale>  0 0.23214187E+01</rscale>
<asrwt>0</asrwt>
<pdfrwt beam="1">0</pdfrwt>
<pdfrwt beam="2">0</pdfrwt>
<totfact> 0.41858210E+11</totfact>
</mgrwt>
</event>
<event>
 4    1  0.3168498E+006  0.2311414E+01  0.7546771E-02  0.2798001E+00
         22   -1    0    0    0    0  0.00000000000E+00  0.00000000000E+00  0.14181816456E+02  0.14181816456E+02  0.00000000000E+00 0.  1.
         22   -1    0    0    0    0 -0.00000000000E+00 -0.00000000000E+00 -0.37999695076E+00  0.37999695076E+00  0.00000000000E+00 0. -1.
          4    1    1    2  501    0 -0.19066106806E+00 -0.19218182105E+01  0.62252378129E+01  0.66404986788E+01  0.12700000000E+01 0.  1.
         -4    1    1    2    0  501  0.19066106806E+00  0.19218182105E+01  0.75765816921E+01  0.79213147276E+01  0.12700000000E+01 0. -1.
<mgrwt>
<rscale>  0 0.23114145E+01</rscale>
<asrwt>0</asrwt>
<pdfrwt beam="1">0</pdfrwt>
<pdfrwt beam="2">0</pdfrwt>
<totfact> 0.31020989E+12</totfact>
</mgrwt>
</event>
<event>
 4    1  0.3168498E+006  0.2183071E+01  0.7546771E-02  0.2867224E+00
         22   -1    0    0    0    0  0.00000000000E+00  0.00000000000E+00  0.60748390365E+01  0.60748390365E+01  0.00000000000E+00 0.  1.
         22   -1    0    0    0    0 -0.00000000000E+00 -0.00000000000E+00 -0.10193369834E+01  0.10193369834E+01  0.00000000000E+00 0. -1.
          4    1    1    2  501    0  0.11650608878E+01  0.13399750625E+01  0.82526796148E+00  0.23338524479E+01  0.12700000000E+01 0. -1.
         -4    1    1    2    0  501 -0.11650608878E+01 -0.13399750625E+01  0.42302340916E+01  0.47603235720E+01  0.12700000000E+01 0.  1.
<mgrwt>
<rscale>  0 0.21830712E+01</rscale>
<asrwt>0</asrwt>
<pdfrwt beam="1">0</pdfrwt>
<pdfrwt beam="2">0</pdfrwt>
<totfact> 0.28240675E+12</totfact>
</mgrwt>
</event>
<event>
 4    1  0.3168498E+006  0.2272635E+01  0.7546771E-02  0.2818131E+00
         22   -1    0    0    0    0  0.00000000000E+00  0.00000000000E+00  0.15405943720E+00  0.15405943720E+00  0.00000000000E+00 0. -1.
         22   -1    0    0    0    0 -0.00000000000E+00 -0.00000000000E+00 -0.57511047568E+02  0.57511047568E+02  0.00000000000E+00 0.  1.
          4    1    1    2  501    0 -0.18837830139E+01 -0.57737026514E-01 -0.47298726010E+02  0.47353292960E+02  0.12700000000E+01 0. -1.
         -4    1    1    2    0  501  0.18837830139E+01  0.57737026514E-01 -0.10058262121E+02  0.10311814045E+02  0.12700000000E+01 0.  1.
<mgrwt>
<rscale>  0 0.22726355E+01</rscale>
<asrwt>0</asrwt>
<pdfrwt beam="1">0</pdfrwt>
<pdfrwt beam="2">0</pdfrwt>
<totfact> 0.14304876E+12</totfact>
</mgrwt>
</event>
<event>
 4    1  0.3168498E+006  0.3142147E+01  0.7546771E-02  0.2479083E+00
         22   -1    0    0    0    0  0.00000000000E+00  0.00000000000E+00  0.60195790564E+01  0.60195790564E+01  0.00000000000E+00 0.  1.
         22   -1    0    0    0    0 -0.00000000000E+00 -0.00000000000E+00 -0.24085519205E+01  0.24085519205E+01  0.00000000000E+00 0. -1.
          4    1    1    2  501    0 -0.26949926022E+01  0.99859919501E+00 -0.57468984191E+00  0.31942689136E+01  0.12700000000E+01 0. -1.
         -4    1    1    2    0  501  0.26949926022E+01 -0.99859919501E+00  0.41857169779E+01  0.52338620632E+01  0.12700000000E+01 0.  1.
<mgrwt>
<rscale>  0 0.31421466E+01</rscale>
<asrwt>0</asrwt>
<pdfrwt beam="1">0</pdfrwt>
<pdfrwt beam="2">0</pdfrwt>
<totfact> 0.10604441E+12</totfact>
</mgrwt>
</event>
<event>
 4    1  0.3168498E+006  0.3869161E+01  0.7546771E-02  0.2303025E+00
         22   -1    0    0    0    0  0.00000000000E+00  0.00000000000E+00  0.27024834062E+01  0.27024834062E+01  0.00000000000E+00 0.  1.
         22   -1    0    0    0    0 -0.00000000000E+00 -0.00000000000E+00 -0.58413330823E+01  0.58413330823E+01  0.00000000000E+00 0. -1.
          4    1    1    2  501    0 -0.30811729591E+01 -0.19656764216E+01 -0.59835973709E+00  0.39151558045E+01  0.12700000000E+01 0.  1.
         -4    1    1    2    0  501  0.30811729591E+01  0.19656764216E+01 -0.25404899390E+01  0.46286606841E+01  0.12700000000E+01 0. -1.
<mgrwt>
<rscale>  0 0.38691615E+01</rscale>
<asrwt>0</asrwt>
<pdfrwt beam="1">0</pdfrwt>
<pdfrwt beam="2">0</pdfrwt>
<totfact> 0.96123362E+11</totfact>
</mgrwt>
</event>
<event>
 4    1  0.3168498E+006  0.2554403E+01  0.7546771E-02  0.2685021E+00
         22   -1    0    0    0    0  0.00000000000E+00  0.00000000000E+00  0.67236682330E+00  0.67236682330E+00  0.00000000000E+00 0. -1.
         22   -1    0    0    0    0 -0.00000000000E+00 -0.00000000000E+00 -0.15070737316E+02  0.15070737316E+02  0.00000000000E+00 0.  1.
          4    1    1    2  501    0 -0.14412668559E+01 -0.16836936927E+01 -0.11896272372E+02  0.12167426636E+02  0.12700000000E+01 0.  1.
         -4    1    1    2    0  501  0.14412668559E+01  0.16836936927E+01 -0.25020981211E+01  0.35756775034E+01  0.12700000000E+01 0. -1.
<mgrwt>
<rscale>  0 0.25544030E+01</rscale>
<asrwt>0</asrwt>
<pdfrwt beam="1">0</pdfrwt>
<pdfrwt beam="2">0</pdfrwt>
<totfact> 0.15111093E+12</totfact>
</mgrwt>
</event>
<event>
 4    1  0.3168498E+006  0.6325109E+01  0.7546771E-02  0.1991703E+00
         22   -1    0    0    0    0  0.00000000000E+00  0.00000000000E+00  0.52516576104E+01  0.52516576104E+01  0.00000000000E+00 0.  1.
         22   -1    0    0    0    0 -0.00000000000E+00 -0.00000000000E+00 -0.79448819728E+01  0.79448819728E+01  0.00000000000E+00 0. -1.
          4    1    1    2  501    0  0.21006704540E+01  0.58293470049E+01 -0.26850482054E+01  0.68714253780E+01  0.12700000000E+01 0.  1.
         -4    1    1    2    0  501 -0.21006704540E+01 -0.58293470049E+01 -0.81761571175E-02  0.63251142052E+01  0.12700000000E+01 0. -1.
<mgrwt>
<rscale>  0 0.63251089E+01</rscale>
<asrwt>0</asrwt>
<pdfrwt beam="1">0</pdfrwt>
<pdfrwt beam="2">0</pdfrwt>
<totfact> 0.30488347E+11</totfact>
</mgrwt>
</event>
<event>
 4    1  0.3168498E+006  0.2211691E+01  0.7546771E-02  0.2851124E+00
         22   -1    0    0    0    0  0.00000000000E+00  0.00000000000E+00  0.89218577396E+00  0.89218577396E+00  0.00000000000E+00 0.  1.
         22   -1    0    0    0    0 -0.00000000000E+00 -0.00000000000E+00 -0.61930235677E+01  0.61930235677E+01  0.00000000000E+00 0. -1.
          4    1    1    2  501    0 -0.48020899932E+00  0.17458742803E+01 -0.38502016331E+01  0.44402286317E+01  0.12700000000E+01 0. -1.
         -4    1    1    2    0  501  0.48020899932E+00 -0.17458742803E+01 -0.14506361606E+01  0.26449807100E+01  0.12700000000E+01 0.  1.
<mgrwt>
<rscale>  0 0.22116911E+01</rscale>
<asrwt>0</asrwt>
<pdfrwt beam="1">0</pdfrwt>
<pdfrwt beam="2">0</pdfrwt>
<totfact> 0.32131551E+12</totfact>
</mgrwt>
</event>
<event>
 4    1  0.3168498E+006  0.5435015E+01  0.7546771E-02  0.2074399E+00
         22   -1    0    0    0    0  0.00000000000E+00  0.00000000000E+00  0.51596068966E+02  0.51596068966E+02  0.00000000000E+00 0.  1.
         22   -1    0    0    0    0 -0.00000000000E+00 -0.00000000000E+00 -0.98299972541E+00  0.98299972541E+00  0.00000000000E+00 0. -1.
          4    1    1    2  501    0 -0.75211347990E+00  0.52307561717E+01  0.83179922694E+01  0.99362155879E+01  0.12700000000E+01 0. -1.
         -4    1    1    2    0  501  0.75211347990E+00 -0.52307561717E+01  0.42295076971E+02  0.42642853104E+02  0.12700000000E+01 0.  1.
<mgrwt>
<rscale>  0 0.54350147E+01</rscale>
<asrwt>0</asrwt>
<pdfrwt beam="1">0</pdfrwt>
<pdfrwt beam="2">0</pdfrwt>
<totfact> 0.20512779E+11</totfact>
</mgrwt>
</event>
<event>
 4    1  0.3168498E+006  0.2088670E+01  0.7546771E-02  0.2923341E+00
         22   -1    0    0    0    0  0.00000000000E+00  0.00000000000E+00  0.55369861045E+01  0.55369861045E+01  0.00000000000E+00 0. -1.
         22   -1    0    0    0    0 -0.00000000000E+00 -0.00000000000E+00 -0.84480840712E+00  0.84480840712E+00  0.00000000000E+00 0.  1.
          4    1    1    2  501    0  0.10619218627E+01  0.12735631820E+01  0.15178483435E+01  0.25819381896E+01  0.12700000000E+01 0.  1.
         -4    1    1    2    0  501 -0.10619218627E+01 -0.12735631820E+01  0.31743293538E+01  0.37998563220E+01  0.12700000000E+01 0. -1.
<mgrwt>
<rscale>  0 0.20886697E+01</rscale>
<asrwt>0</asrwt>
<pdfrwt beam="1">0</pdfrwt>
<pdfrwt beam="2">0</pdfrwt>
<totfact> 0.39062469E+12</totfact>
</mgrwt>
</event>
<event>
 4    1  0.3168498E+006  0.2809128E+01  0.7546771E-02  0.2586171E+00
         22   -1    0    0    0    0  0.00000000000E+00  0.00000000000E+00  0.43108993674E+01  0.43108993674E+01  0.00000000000E+00 0.  1.
         22   -1    0    0    0    0 -0.00000000000E+00 -0.00000000000E+00 -0.31148069758E+01  0.31148069758E+01  0.00000000000E+00 0. -1.
          4    1    1    2  501    0  0.20053701637E+01  0.15022618133E+01 -0.17860443911E+01  0.33288368263E+01  0.12700000000E+01 0. -1.
         -4    1    1    2    0  501 -0.20053701637E+01 -0.15022618133E+01  0.29821367827E+01  0.40968695170E+01  0.12700000000E+01 0.  1.
<mgrwt>
<rscale>  0 0.28091280E+01</rscale>
<asrwt>0</asrwt>
<pdfrwt beam="1">0</pdfrwt>
<pdfrwt beam="2">0</pdfrwt>
<totfact> 0.11670391E+12</totfact>
</mgrwt>
</event>
<event>
 4    1  0.3168498E+006  0.2439596E+01  0.7546771E-02  0.2735775E+00
         22   -1    0    0    0    0  0.00000000000E+00  0.00000000000E+00  0.41154919045E+02  0.41154919045E+02  0.00000000000E+00 0.  1.
         22   -1    0    0    0    0 -0.00000000000E+00 -0.00000000000E+00 -0.19253179291E+01  0.19253179291E+01  0.00000000000E+00 0. -1.
          4    1    1    2  501    0  0.17202504793E+01  0.11745063811E+01 -0.11005635995E+01  0.26763533375E+01  0.12700000000E+01 0. -1.
         -4    1    1    2    0  501 -0.17202504793E+01 -0.11745063811E+01  0.40330164716E+02  0.40403883637E+02  0.12700000000E+01 0.  1.
<mgrwt>
<rscale>  0 0.24395957E+01</rscale>
<asrwt>0</asrwt>
<pdfrwt beam="1">0</pdfrwt>
<pdfrwt beam="2">0</pdfrwt>
<totfact> 0.12745027E+11</totfact>
</mgrwt>
</event>
<event>
 4    1  0.3168498E+006  0.2455199E+01  0.7546771E-02  0.2728617E+00
         22   -1    0    0    0    0  0.00000000000E+00  0.00000000000E+00  0.10439047189E+02  0.10439047189E+02  0.00000000000E+00 0. -1.
         22   -1    0    0    0    0 -0.00000000000E+00 -0.00000000000E+00 -0.81444298526E+00  0.81444298526E+00  0.00000000000E+00 0.  1.
          4    1    1    2  501    0 -0.11705081589E+01  0.17449971653E+01  0.17770365609E+01  0.30308189315E+01  0.12700000000E+01 0.  1.
         -4    1    1    2    0  501  0.11705081589E+01 -0.17449971653E+01  0.78475676434E+01  0.82226712432E+01  0.12700000000E+01 0. -1.
<mgrwt>
<rscale>  0 0.24551995E+01</rscale>
<asrwt>0</asrwt>
<pdfrwt beam="1">0</pdfrwt>
<pdfrwt beam="2">0</pdfrwt>
<totfact> 0.19033386E+12</totfact>
</mgrwt>
</event>
<event>
 4    1  0.3168498E+006  0.2479219E+01  0.7546771E-02  0.2717763E+00
         22   -1    0    0    0    0  0.00000000000E+00  0.00000000000E+00  0.32860024495E+01  0.32860024495E+01  0.00000000000E+00 0.  1.
         22   -1    0    0    0    0 -0.00000000000E+00 -0.00000000000E+00 -0.19645712810E+01  0.19645712810E+01  0.00000000000E+00 0. -1.
          4    1    1    2  501    0 -0.20921753486E+01 -0.39551282164E+00  0.12351347151E+01  0.27698530369E+01  0.12700000000E+01 0.  1.
         -4    1    1    2    0  501  0.20921753486E+01  0.39551282164E+00  0.86296453440E-01  0.24807206935E+01  0.12700000000E+01 0.  1.
<mgrwt>
<rscale>  0 0.24792192E+01</rscale>
<asrwt>0</asrwt>
<pdfrwt beam="1">0</pdfrwt>
<pdfrwt beam="2">0</pdfrwt>
<totfact> 0.27440000E+12</totfact>
</mgrwt>
</event>
<event>
 4    1  0.3168498E+006  0.2571970E+01  0.7546771E-02  0.2677627E+00
         22   -1    0    0    0    0  0.00000000000E+00  0.00000000000E+00  0.14007065536E+02  0.14007065536E+02  0.00000000000E+00 0.  1.
         22   -1    0    0    0    0 -0.00000000000E+00 -0.00000000000E+00 -0.48176193695E+01  0.48176193695E+01  0.00000000000E+00 0. -1.
          4    1    1    2  501    0  0.22208128066E+01 -0.26480293587E+00 -0.43443839434E+01  0.50486336730E+01  0.12700000000E+01 0. -1.
         -4    1    1    2    0  501 -0.22208128066E+01  0.26480293587E+00  0.13533830109E+02  0.13776051232E+02  0.12700000000E+01 0.  1.
<mgrwt>
<rscale>  0 0.25719701E+01</rscale>
<asrwt>0</asrwt>
<pdfrwt beam="1">0</pdfrwt>
<pdfrwt beam="2">0</pdfrwt>
<totfact> 0.16968197E+11</totfact>
</mgrwt>
</event>
<event>
 4    1  0.3168498E+006  0.2584191E+01  0.7546771E-02  0.2672538E+00
         22   -1    0    0    0    0  0.00000000000E+00  0.00000000000E+00  0.10445529687E+01  0.10445529687E+01  0.00000000000E+00 0.  1.
         22   -1    0    0    0    0 -0.00000000000E+00 -0.00000000000E+00 -0.23464824743E+02  0.23464824743E+02  0.00000000000E+00 0.  1.
          4    1    1    2  501    0 -0.14656906753E+01 -0.17078912318E+01 -0.21662896194E+02  0.21816487185E+02  0.12700000000E+01 0.  1.
         -4    1    1    2    0  501  0.14656906753E+01  0.17078912318E+01 -0.75737558039E+00  0.26928905260E+01  0.12700000000E+01 0.  1.
<mgrwt>
<rscale>  0 0.25841907E+01</rscale>
<asrwt>0</asrwt>
<pdfrwt beam="1">0</pdfrwt>
<pdfrwt beam="2">0</pdfrwt>
<totfact> 0.52766939E+11</totfact>
</mgrwt>
</event>
<event>
 4    1  0.3168498E+006  0.2167903E+01  0.7546771E-02  0.2875923E+00
         22   -1    0    0    0    0  0.00000000000E+00  0.00000000000E+00  0.20079099292E+01  0.20079099292E+01  0.00000000000E+00 0.  1.
         22   -1    0    0    0    0 -0.00000000000E+00 -0.00000000000E+00 -0.25240809174E+01  0.25240809174E+01  0.00000000000E+00 0. -1.
          4    1    1    2  501    0 -0.17549236901E+01  0.84538786001E-01 -0.86895690294E+00  0.23355706077E+01  0.12700000000E+01 0.  1.
         -4    1    1    2    0  501  0.17549236901E+01 -0.84538786001E-01  0.35278591473E+00  0.21964202390E+01  0.12700000000E+01 0. -1.
<mgrwt>
<rscale>  0 0.21679031E+01</rscale>
<asrwt>0</asrwt>
<pdfrwt beam="1">0</pdfrwt>
<pdfrwt beam="2">0</pdfrwt>
<totfact> 0.36400206E+12</totfact>
</mgrwt>
</event>
<event>
 4    1  0.3168498E+006  0.3595039E+01  0.7546771E-02  0.2362104E+00
         22   -1    0    0    0    0  0.00000000000E+00  0.00000000000E+00  0.22012607870E+00  0.22012607870E+00  0.00000000000E+00 0. -1.
         22   -1    0    0    0    0 -0.00000000000E+00 -0.00000000000E+00 -0.88528158238E+02  0.88528158238E+02  0.00000000000E+00 0. -1.
          4    1    1    2  501    0  0.32206652452E+01  0.96887777923E+00 -0.18402293640E+02  0.18750165865E+02  0.12700000000E+01 0. -1.
         -4    1    1    2    0  501 -0.32206652452E+01 -0.96887777923E+00 -0.69905738520E+02  0.69998118451E+02  0.12700000000E+01 0. -1.
<mgrwt>
<rscale>  0 0.35950395E+01</rscale>
<asrwt>0</asrwt>
<pdfrwt beam="1">0</pdfrwt>
<pdfrwt beam="2">0</pdfrwt>
<totfact> 0.53461031E+11</totfact>
</mgrwt>
</event>
<event>
 4    1  0.3168498E+006  0.2740090E+01  0.7546771E-02  0.2611297E+00
         22   -1    0    0    0    0  0.00000000000E+00  0.00000000000E+00  0.33316143556E+02  0.33316143556E+02  0.00000000000E+00 0.  1.
         22   -1    0    0    0    0 -0.00000000000E+00 -0.00000000000E+00 -0.26997647481E+00  0.26997647481E+00  0.00000000000E+00 0. -1.
          4    1    1    2  501    0 -0.23288643918E+01 -0.68671817917E+00  0.96962454390E+01  0.10075974733E+02  0.12700000000E+01 0. -1.
         -4    1    1    2    0  501  0.23288643918E+01  0.68671817917E+00  0.23349921643E+02  0.23510145298E+02  0.12700000000E+01 0.  1.
<mgrwt>
<rscale>  0 0.27400896E+01</rscale>
<asrwt>0</asrwt>
<pdfrwt beam="1">0</pdfrwt>
<pdfrwt beam="2">0</pdfrwt>
<totfact> 0.15611887E+12</totfact>
</mgrwt>
</event>
<event>
 4    1  0.3168498E+006  0.2150916E+01  0.7546771E-02  0.2885805E+00
         22   -1    0    0    0    0  0.00000000000E+00  0.00000000000E+00  0.23197760014E+01  0.23197760014E+01  0.00000000000E+00 0. -1.
         22   -1    0    0    0    0 -0.00000000000E+00 -0.00000000000E+00 -0.57442741813E+01  0.57442741813E+01  0.00000000000E+00 0.  1.
          4    1    1    2  501    0 -0.42786095591E+00  0.16824015380E+01 -0.49699936043E+01  0.54154664028E+01  0.12700000000E+01 0.  1.
         -4    1    1    2    0  501  0.42786095591E+00 -0.16824015380E+01  0.15454954244E+01  0.26485837799E+01  0.12700000000E+01 0. -1.
<mgrwt>
<rscale>  0 0.21509161E+01</rscale>
<asrwt>0</asrwt>
<pdfrwt beam="1">0</pdfrwt>
<pdfrwt beam="2">0</pdfrwt>
<totfact> 0.11710867E+12</totfact>
</mgrwt>
</event>
<event>
 4    1  0.3168498E+006  0.3354397E+01  0.7546771E-02  0.2420807E+00
         22   -1    0    0    0    0  0.00000000000E+00  0.00000000000E+00  0.32239831687E+02  0.32239831687E+02  0.00000000000E+00 0.  1.
         22   -1    0    0    0    0 -0.00000000000E+00 -0.00000000000E+00 -0.14894054399E+01  0.14894054399E+01  0.00000000000E+00 0. -1.
          4    1    1    2  501    0  0.13137340260E+01 -0.28130379833E+01  0.61821404330E+00  0.34108896772E+01  0.12700000000E+01 0. -1.
         -4    1    1    2    0  501 -0.13137340260E+01  0.28130379833E+01  0.30132212204E+02  0.30318347450E+02  0.12700000000E+01 0.  1.
<mgrwt>
<rscale>  0 0.33543971E+01</rscale>
<asrwt>0</asrwt>
<pdfrwt beam="1">0</pdfrwt>
<pdfrwt beam="2">0</pdfrwt>
<totfact> 0.23481366E+11</totfact>
</mgrwt>
</event>
<event>
 4    1  0.3168498E+006  0.2028207E+01  0.7546771E-02  0.2961941E+00
         22   -1    0    0    0    0  0.00000000000E+00  0.00000000000E+00  0.23956042776E+00  0.23956042776E+00  0.00000000000E+00 0.  1.
         22   -1    0    0    0    0 -0.00000000000E+00 -0.00000000000E+00 -0.17350714577E+02  0.17350714577E+02  0.00000000000E+00 0.  1.
          4    1    1    2  501    0 -0.72505128173E+00 -0.14053561820E+01 -0.94492990883E+01  0.96645164710E+01  0.12700000000E+01 0.  1.
         -4    1    1    2    0  501  0.72505128173E+00  0.14053561820E+01 -0.76618550612E+01  0.79257585339E+01  0.12700000000E+01 0.  1.
<mgrwt>
<rscale>  0 0.20282074E+01</rscale>
<asrwt>0</asrwt>
<pdfrwt beam="1">0</pdfrwt>
<pdfrwt beam="2">0</pdfrwt>
<totfact> 0.40579502E+12</totfact>
</mgrwt>
</event>
<event>
 4    1  0.3168498E+006  0.2481909E+01  0.7546771E-02  0.2716560E+00
         22   -1    0    0    0    0  0.00000000000E+00  0.00000000000E+00  0.98786860530E+00  0.98786860530E+00  0.00000000000E+00 0. -1.
         22   -1    0    0    0    0 -0.00000000000E+00 -0.00000000000E+00 -0.10299774270E+02  0.10299774270E+02  0.00000000000E+00 0.  1.
          4    1    1    2  501    0 -0.34949915626E+00 -0.21035263709E+01 -0.82012278706E+01  0.85685478022E+01  0.12700000000E+01 0.  1.
         -4    1    1    2    0  501  0.34949915626E+00  0.21035263709E+01 -0.11106777938E+01  0.27190950728E+01  0.12700000000E+01 0. -1.
<mgrwt>
<rscale>  0 0.24819091E+01</rscale>
<asrwt>0</asrwt>
<pdfrwt beam="1">0</pdfrwt>
<pdfrwt beam="2">0</pdfrwt>
<totfact> 0.15524944E+12</totfact>
</mgrwt>
</event>
<event>
 4    1  0.3168498E+006  0.2021651E+01  0.7546771E-02  0.2966262E+00
         22   -1    0    0    0    0  0.00000000000E+00  0.00000000000E+00  0.16765012973E+02  0.16765012973E+02  0.00000000000E+00 0. -1.
         22   -1    0    0    0    0 -0.00000000000E+00 -0.00000000000E+00 -0.25244399189E+00  0.25244399189E+00  0.00000000000E+00 0.  1.
          4    1    1    2  501    0 -0.13359390232E+01 -0.83032467165E+00  0.98320649043E+01  0.10037757340E+02  0.12700000000E+01 0.  1.
         -4    1    1    2    0  501  0.13359390232E+01  0.83032467165E+00  0.66805040773E+01  0.69796996254E+01  0.12700000000E+01 0. -1.
<mgrwt>
<rscale>  0 0.20216508E+01</rscale>
<asrwt>0</asrwt>
<pdfrwt beam="1">0</pdfrwt>
<pdfrwt beam="2">0</pdfrwt>
<totfact> 0.39931924E+12</totfact>
</mgrwt>
</event>
<event>
 4    1  0.3168498E+006  0.2772441E+01  0.7546771E-02  0.2599381E+00
         22   -1    0    0    0    0  0.00000000000E+00  0.00000000000E+00  0.68890504606E+01  0.68890504606E+01  0.00000000000E+00 0. -1.
         22   -1    0    0    0    0 -0.00000000000E+00 -0.00000000000E+00 -0.17973246942E+01  0.17973246942E+01  0.00000000000E+00 0.  1.
          4    1    1    2  501    0  0.20700638376E+01 -0.13372968295E+01 -0.12870408004E+00  0.27754264253E+01  0.12700000000E+01 0.  1.
         -4    1    1    2    0  501 -0.20700638376E+01  0.13372968295E+01  0.52204298464E+01  0.59109487295E+01  0.12700000000E+01 0. -1.
<mgrwt>
<rscale>  0 0.27724406E+01</rscale>
<asrwt>0</asrwt>
<pdfrwt beam="1">0</pdfrwt>
<pdfrwt beam="2">0</pdfrwt>
<totfact> 0.12672365E+12</totfact>
</mgrwt>
</event>
<event>
 4    1  0.3168498E+006  0.2347355E+01  0.7546771E-02  0.2779907E+00
         22   -1    0    0    0    0  0.00000000000E+00  0.00000000000E+00  0.45566023198E+01  0.45566023198E+01  0.00000000000E+00 0.  1.
         22   -1    0    0    0    0 -0.00000000000E+00 -0.00000000000E+00 -0.12594670342E+01  0.12594670342E+01  0.00000000000E+00 0.  1.
          4    1    1    2  501    0 -0.38298357482E+00  0.19366205782E+01  0.22292352537E+01  0.32372157016E+01  0.12700000000E+01 0.  1.
         -4    1    1    2    0  501  0.38298357482E+00 -0.19366205782E+01  0.10679000319E+01  0.25788536524E+01  0.12700000000E+01 0.  1.
<mgrwt>
<rscale>  0 0.23473550E+01</rscale>
<asrwt>0</asrwt>
<pdfrwt beam="1">0</pdfrwt>
<pdfrwt beam="2">0</pdfrwt>
<totfact> 0.31177193E+12</totfact>
</mgrwt>
</event>
<event>
 4    1  0.3168498E+006  0.2178236E+01  0.7546771E-02  0.2869985E+00
         22   -1    0    0    0    0  0.00000000000E+00  0.00000000000E+00  0.48893355468E+00  0.48893355468E+00  0.00000000000E+00 0. -1.
         22   -1    0    0    0    0 -0.00000000000E+00 -0.00000000000E+00 -0.48308788352E+02  0.48308788352E+02  0.00000000000E+00 0. -1.
          4    1    1    2  501    0 -0.81881552988E+00 -0.15688695543E+01 -0.45720944820E+02  0.45772803124E+02  0.12700000000E+01 0. -1.
         -4    1    1    2    0  501  0.81881552988E+00  0.15688695543E+01 -0.20989099766E+01  0.30249187824E+01  0.12700000000E+01 0. -1.
<mgrwt>
<rscale>  0 0.21782357E+01</rscale>
<asrwt>0</asrwt>
<pdfrwt beam="1">0</pdfrwt>
<pdfrwt beam="2">0</pdfrwt>
<totfact> 0.49425152E+11</totfact>
</mgrwt>
</event>
<event>
 4    1  0.3168498E+006  0.2153385E+01  0.7546771E-02  0.2884359E+00
         22   -1    0    0    0    0  0.00000000000E+00  0.00000000000E+00  0.11595494591E+01  0.11595494591E+01  0.00000000000E+00 0.  1.
         22   -1    0    0    0    0 -0.00000000000E+00 -0.00000000000E+00 -0.44080499209E+01  0.44080499209E+01  0.00000000000E+00 0.  1.
          4    1    1    2  501    0 -0.32696183358E+00 -0.17079999583E+01 -0.24722374949E+01  0.32785707449E+01  0.12700000000E+01 0.  1.
         -4    1    1    2    0  501  0.32696183358E+00  0.17079999583E+01 -0.77626296700E+00  0.22890286351E+01  0.12700000000E+01 0.  1.
<mgrwt>
<rscale>  0 0.21533852E+01</rscale>
<asrwt>0</asrwt>
<pdfrwt beam="1">0</pdfrwt>
<pdfrwt beam="2">0</pdfrwt>
<totfact> 0.35640850E+12</totfact>
</mgrwt>
</event>
<event>
 4    1  0.3168498E+006  0.2770628E+01  0.7546771E-02  0.2600042E+00
         22   -1    0    0    0    0  0.00000000000E+00  0.00000000000E+00  0.71594960330E+00  0.71594960330E+00  0.00000000000E+00 0. -1.
         22   -1    0    0    0    0 -0.00000000000E+00 -0.00000000000E+00 -0.14552490765E+02  0.14552490765E+02  0.00000000000E+00 0.  1.
          4    1    1    2  501    0 -0.24009389993E+01  0.54678378814E+00 -0.10835019069E+02  0.11183649619E+02  0.12700000000E+01 0.  1.
         -4    1    1    2    0  501  0.24009389993E+01 -0.54678378814E+00 -0.30015220937E+01  0.40847907496E+01  0.12700000000E+01 0. -1.
<mgrwt>
<rscale>  0 0.27706282E+01</rscale>
<asrwt>0</asrwt>
<pdfrwt beam="1">0</pdfrwt>
<pdfrwt beam="2">0</pdfrwt>
<totfact> 0.14690452E+12</totfact>
</mgrwt>
</event>
<event>
 4    1  0.3168498E+006  0.2214024E+01  0.7546771E-02  0.2849829E+00
         22   -1    0    0    0    0  0.00000000000E+00  0.00000000000E+00  0.40260691804E+02  0.40260691804E+02  0.00000000000E+00 0. -1.
         22   -1    0    0    0    0 -0.00000000000E+00 -0.00000000000E+00 -0.13943456768E+00  0.13943456768E+00  0.00000000000E+00 0.  1.
          4    1    1    2  501    0 -0.15158582809E+00  0.18072142973E+01  0.27253712794E+02  0.27343495805E+02  0.12700000000E+01 0. -1.
         -4    1    1    2    0  501  0.15158582809E+00 -0.18072142973E+01  0.12867544442E+02  0.13056630566E+02  0.12700000000E+01 0.  1.
<mgrwt>
<rscale>  0 0.22140239E+01</rscale>
<asrwt>0</asrwt>
<pdfrwt beam="1">0</pdfrwt>
<pdfrwt beam="2">0</pdfrwt>
<totfact> 0.25547377E+12</totfact>
</mgrwt>
</event>
<event>
 4    1  0.3168498E+006  0.2394228E+01  0.7546771E-02  0.2757081E+00
         22   -1    0    0    0    0  0.00000000000E+00  0.00000000000E+00  0.20681861845E+01  0.20681861845E+01  0.00000000000E+00 0. -1.
         22   -1    0    0    0    0 -0.00000000000E+00 -0.00000000000E+00 -0.28515467876E+01  0.28515467876E+01  0.00000000000E+00 0.  1.
          4    1    1    2  501    0  0.15757979734E+01 -0.12791754807E+01 -0.80338152410E+00  0.25254209623E+01  0.12700000000E+01 0. -1.
         -4    1    1    2    0  501 -0.15757979734E+01  0.12791754807E+01  0.20020920944E-01  0.23943120099E+01  0.12700000000E+01 0.  1.
<mgrwt>
<rscale>  0 0.23942283E+01</rscale>
<asrwt>0</asrwt>
<pdfrwt beam="1">0</pdfrwt>
<pdfrwt beam="2">0</pdfrwt>
<totfact> 0.30515567E+12</totfact>
</mgrwt>
</event>
<event>
 4    1  0.3168498E+006  0.2923882E+01  0.7546771E-02  0.2546795E+00
         22   -1    0    0    0    0  0.00000000000E+00  0.00000000000E+00  0.24145930248E+01  0.24145930248E+01  0.00000000000E+00 0. -1.
         22   -1    0    0    0    0 -0.00000000000E+00 -0.00000000000E+00 -0.44940181851E+01  0.44940181851E+01  0.00000000000E+00 0.  1.
          4    1    1    2  501    0 -0.24724715690E+01 -0.90723102875E+00 -0.26307754795E+01  0.39332001503E+01  0.12700000000E+01 0.  1.
         -4    1    1    2    0  501  0.24724715690E+01  0.90723102875E+00  0.55135031914E+00  0.29754110596E+01  0.12700000000E+01 0. -1.
<mgrwt>
<rscale>  0 0.29238816E+01</rscale>
<asrwt>0</asrwt>
<pdfrwt beam="1">0</pdfrwt>
<pdfrwt beam="2">0</pdfrwt>
<totfact> 0.14951497E+12</totfact>
</mgrwt>
</event>
<event>
 4    1  0.3168498E+006  0.2641400E+01  0.7546771E-02  0.2649294E+00
         22   -1    0    0    0    0  0.00000000000E+00  0.00000000000E+00  0.60788121775E+02  0.60788121775E+02  0.00000000000E+00 0. -1.
         22   -1    0    0    0    0 -0.00000000000E+00 -0.00000000000E+00 -0.12533100528E+00  0.12533100528E+00  0.00000000000E+00 0.  1.
          4    1    1    2  501    0 -0.10540778667E+01 -0.20622835067E+01  0.21492635660E+02  0.21654338619E+02  0.12700000000E+01 0. -1.
         -4    1    1    2    0  501  0.10540778667E+01  0.20622835067E+01  0.39170155110E+02  0.39259114161E+02  0.12700000000E+01 0. -1.
<mgrwt>
<rscale>  0 0.26413999E+01</rscale>
<asrwt>0</asrwt>
<pdfrwt beam="1">0</pdfrwt>
<pdfrwt beam="2">0</pdfrwt>
<totfact> 0.16707160E+12</totfact>
</mgrwt>
</event>
<event>
 4    1  0.3168498E+006  0.4934295E+01  0.7546771E-02  0.2130929E+00
         22   -1    0    0    0    0  0.00000000000E+00  0.00000000000E+00  0.16166656235E+03  0.16166656235E+03  0.00000000000E+00 0.  1.
         22   -1    0    0    0    0 -0.00000000000E+00 -0.00000000000E+00 -0.15281827542E+00  0.15281827542E+00  0.00000000000E+00 0. -1.
          4    1    1    2  501    0  0.31463554691E+01  0.35825711462E+01  0.71012624433E+02  0.71183847167E+02  0.12700000000E+01 0.  1.
         -4    1    1    2    0  501 -0.31463554691E+01 -0.35825711462E+01  0.90501119641E+02  0.90635533457E+02  0.12700000000E+01 0. -1.
<mgrwt>
<rscale>  0 0.49342952E+01</rscale>
<asrwt>0</asrwt>
<pdfrwt beam="1">0</pdfrwt>
<pdfrwt beam="2">0</pdfrwt>
<totfact> 0.33707707E+11</totfact>
</mgrwt>
</event>
<event>
 4    1  0.3168498E+006  0.2490080E+01  0.7546771E-02  0.2712920E+00
         22   -1    0    0    0    0  0.00000000000E+00  0.00000000000E+00  0.18722486653E+02  0.18722486653E+02  0.00000000000E+00 0.  1.
         22   -1    0    0    0    0 -0.00000000000E+00 -0.00000000000E+00 -0.17719620019E+01  0.17719620019E+01  0.00000000000E+00 0.  1.
          4    1    1    2  501    0  0.52148457158E+00  0.20774144622E+01 -0.76487250707E+00  0.26049044048E+01  0.12700000000E+01 0.  1.
         -4    1    1    2    0  501 -0.52148457158E+00 -0.20774144622E+01  0.17715397158E+02  0.17889544250E+02  0.12700000000E+01 0.  1.
<mgrwt>
<rscale>  0 0.24900797E+01</rscale>
<asrwt>0</asrwt>
<pdfrwt beam="1">0</pdfrwt>
<pdfrwt beam="2">0</pdfrwt>
<totfact> 0.38133451E+11</totfact>
</mgrwt>
</event>
<event>
 4    1  0.3168498E+006  0.2271121E+01  0.7546771E-02  0.2818930E+00
         22   -1    0    0    0    0  0.00000000000E+00  0.00000000000E+00  0.20922819291E+01  0.20922819291E+01  0.00000000000E+00 0. -1.
         22   -1    0    0    0    0 -0.00000000000E+00 -0.00000000000E+00 -0.29119589994E+01  0.29119589994E+01  0.00000000000E+00 0. -1.
          4    1    1    2  501    0  0.65141607402E+00  0.17665640386E+01 -0.13898462089E+01  0.26626422757E+01  0.12700000000E+01 0. -1.
         -4    1    1    2    0  501 -0.65141607402E+00 -0.17665640386E+01  0.57016913867E+00  0.23415986528E+01  0.12700000000E+01 0. -1.
<mgrwt>
<rscale>  0 0.22711212E+01</rscale>
<asrwt>0</asrwt>
<pdfrwt beam="1">0</pdfrwt>
<pdfrwt beam="2">0</pdfrwt>
<totfact> 0.29380632E+12</totfact>
</mgrwt>
</event>
<event>
 4    1  0.3168498E+006  0.2221372E+01  0.7546771E-02  0.2845767E+00
         22   -1    0    0    0    0  0.00000000000E+00  0.00000000000E+00  0.26514367573E+01  0.26514367573E+01  0.00000000000E+00 0.  1.
         22   -1    0    0    0    0 -0.00000000000E+00 -0.00000000000E+00 -0.22318544395E+01  0.22318544395E+01  0.00000000000E+00 0.  1.
          4    1    1    2  501    0 -0.46037081776E+00 -0.17634202991E+01 -0.78541760246E+00  0.23561352362E+01  0.12700000000E+01 0.  1.
         -4    1    1    2    0  501  0.46037081776E+00  0.17634202991E+01  0.12049999203E+01  0.25271559605E+01  0.12700000000E+01 0.  1.
<mgrwt>
<rscale>  0 0.22213717E+01</rscale>
<asrwt>0</asrwt>
<pdfrwt beam="1">0</pdfrwt>
<pdfrwt beam="2">0</pdfrwt>
<totfact> 0.30409164E+12</totfact>
</mgrwt>
</event>
<event>
 4    1  0.3168498E+006  0.2058390E+01  0.7546771E-02  0.2942396E+00
         22   -1    0    0    0    0  0.00000000000E+00  0.00000000000E+00  0.33578315731E+01  0.33578315731E+01  0.00000000000E+00 0.  1.
         22   -1    0    0    0    0 -0.00000000000E+00 -0.00000000000E+00 -0.14781827650E+01  0.14781827650E+01  0.00000000000E+00 0.  1.
          4    1    1    2  501    0 -0.77996332716E+00  0.14197628706E+01  0.14726582415E-01  0.20584426814E+01  0.12700000000E+01 0.  1.
         -4    1    1    2    0  501  0.77996332716E+00 -0.14197628706E+01  0.18649222257E+01  0.27775716567E+01  0.12700000000E+01 0.  1.
<mgrwt>
<rscale>  0 0.20583900E+01</rscale>
<asrwt>0</asrwt>
<pdfrwt beam="1">0</pdfrwt>
<pdfrwt beam="2">0</pdfrwt>
<totfact> 0.37142498E+12</totfact>
</mgrwt>
</event>
<event>
 4    1  0.3168498E+006  0.2134688E+01  0.7546771E-02  0.2895387E+00
         22   -1    0    0    0    0  0.00000000000E+00  0.00000000000E+00  0.16506359783E+00  0.16506359783E+00  0.00000000000E+00 0. -1.
         22   -1    0    0    0    0 -0.00000000000E+00 -0.00000000000E+00 -0.27633089221E+02  0.27633089221E+02  0.00000000000E+00 0. -1.
          4    1    1    2  501    0  0.92742077540E-01  0.17132980862E+01 -0.14162042425E+02  0.14322022800E+02  0.12700000000E+01 0. -1.
         -4    1    1    2    0  501 -0.92742077540E-01 -0.17132980862E+01 -0.13305983198E+02  0.13476130019E+02  0.12700000000E+01 0. -1.
<mgrwt>
<rscale>  0 0.21346877E+01</rscale>
<asrwt>0</asrwt>
<pdfrwt beam="1">0</pdfrwt>
<pdfrwt beam="2">0</pdfrwt>
<totfact> 0.34319248E+12</totfact>
</mgrwt>
</event>
<event>
 4    1  0.3168498E+006  0.2232728E+01  0.7546771E-02  0.2839541E+00
         22   -1    0    0    0    0  0.00000000000E+00  0.00000000000E+00  0.84431688114E+00  0.84431688114E+00  0.00000000000E+00 0. -1.
         22   -1    0    0    0    0 -0.00000000000E+00 -0.00000000000E+00 -0.59947288426E+01  0.59947288426E+01  0.00000000000E+00 0. -1.
          4    1    1    2  501    0  0.58991545978E+00 -0.17390149864E+01 -0.29952650852E+01  0.37358648668E+01  0.12700000000E+01 0. -1.
         -4    1    1    2    0  501 -0.58991545978E+00  0.17390149864E+01 -0.21551468763E+01  0.31031808570E+01  0.12700000000E+01 0. -1.
<mgrwt>
<rscale>  0 0.22327278E+01</rscale>
<asrwt>0</asrwt>
<pdfrwt beam="1">0</pdfrwt>
<pdfrwt beam="2">0</pdfrwt>
<totfact> 0.35567071E+12</totfact>
</mgrwt>
</event>
<event>
 4    1  0.3168498E+006  0.2848829E+01  0.7546771E-02  0.2572223E+00
         22   -1    0    0    0    0  0.00000000000E+00  0.00000000000E+00  0.24412878877E+02  0.24412878877E+02  0.00000000000E+00 0.  1.
         22   -1    0    0    0    0 -0.00000000000E+00 -0.00000000000E+00 -0.71166241528E+00  0.71166241528E+00  0.00000000000E+00 0.  1.
          4    1    1    2  501    0  0.25461936463E+01 -0.14079723416E+00  0.26804267317E+01  0.39115870704E+01  0.12700000000E+01 0.  1.
         -4    1    1    2    0  501 -0.25461936463E+01  0.14079723416E+00  0.21020789730E+02  0.21212954222E+02  0.12700000000E+01 0.  1.
<mgrwt>
<rscale>  0 0.28488289E+01</rscale>
<asrwt>0</asrwt>
<pdfrwt beam="1">0</pdfrwt>
<pdfrwt beam="2">0</pdfrwt>
<totfact> 0.77723634E+11</totfact>
</mgrwt>
</event>
<event>
 4    1  0.3168498E+006  0.2250925E+01  0.7546771E-02  0.2829688E+00
         22   -1    0    0    0    0  0.00000000000E+00  0.00000000000E+00  0.15483381879E+01  0.15483381879E+01  0.00000000000E+00 0.  1.
         22   -1    0    0    0    0 -0.00000000000E+00 -0.00000000000E+00 -0.44043277279E+01  0.44043277279E+01  0.00000000000E+00 0.  1.
          4    1    1    2  501    0  0.86286666160E+00  0.16459728023E+01 -0.29369122454E+01  0.37002863239E+01  0.12700000000E+01 0.  1.
         -4    1    1    2    0  501 -0.86286666160E+00 -0.16459728023E+01  0.80922705323E-01  0.22523795919E+01  0.12700000000E+01 0.  1.
<mgrwt>
<rscale>  0 0.22509254E+01</rscale>
<asrwt>0</asrwt>
<pdfrwt beam="1">0</pdfrwt>
<pdfrwt beam="2">0</pdfrwt>
<totfact> 0.25598251E+12</totfact>
</mgrwt>
</event>
<event>
 4    1  0.3168498E+006  0.2489416E+01  0.7546771E-02  0.2713215E+00
         22   -1    0    0    0    0  0.00000000000E+00  0.00000000000E+00  0.93272979510E+01  0.93272979510E+01  0.00000000000E+00 0. -1.
         22   -1    0    0    0    0 -0.00000000000E+00 -0.00000000000E+00 -0.67803276837E+00  0.67803276837E+00  0.00000000000E+00 0.  1.
          4    1    1    2  501    0 -0.18796119300E+01 -0.10253531387E+01  0.36156421690E+01  0.43897674609E+01  0.12700000000E+01 0.  1.
         -4    1    1    2    0  501  0.18796119300E+01  0.10253531387E+01  0.50336230137E+01  0.56155632585E+01  0.12700000000E+01 0. -1.
<mgrwt>
<rscale>  0 0.24894156E+01</rscale>
<asrwt>0</asrwt>
<pdfrwt beam="1">0</pdfrwt>
<pdfrwt beam="2">0</pdfrwt>
<totfact> 0.26863510E+12</totfact>
</mgrwt>
</event>
<event>
 4    1  0.3168498E+006  0.3181428E+01  0.7546771E-02  0.2467780E+00
         22   -1    0    0    0    0  0.00000000000E+00  0.00000000000E+00  0.62445582848E+00  0.62445582848E+00  0.00000000000E+00 0. -1.
         22   -1    0    0    0    0 -0.00000000000E+00 -0.00000000000E+00 -0.18367696460E+02  0.18367696460E+02  0.00000000000E+00 0.  1.
          4    1    1    2  501    0  0.16584372165E+01  0.23996190536E+01 -0.12127467398E+02  0.12537820827E+02  0.12700000000E+01 0. -1.
         -4    1    1    2    0  501 -0.16584372165E+01 -0.23996190536E+01 -0.56157732336E+01  0.64543314615E+01  0.12700000000E+01 0. -1.
<mgrwt>
<rscale>  0 0.31814282E+01</rscale>
<asrwt>0</asrwt>
<pdfrwt beam="1">0</pdfrwt>
<pdfrwt beam="2">0</pdfrwt>
<totfact> 0.12867089E+12</totfact>
</mgrwt>
</event>
<event>
 4    1  0.3168498E+006  0.2540282E+01  0.7546771E-02  0.2691033E+00
         22   -1    0    0    0    0  0.00000000000E+00  0.00000000000E+00  0.31732764637E+01  0.31732764637E+01  0.00000000000E+00 0. -1.
         22   -1    0    0    0    0 -0.00000000000E+00 -0.00000000000E+00 -0.23001683204E+01  0.23001683204E+01  0.00000000000E+00 0.  1.
          4    1    1    2  501    0  0.52942729011E+00  0.21353775802E+01  0.13682887447E+01  0.28853500229E+01  0.12700000000E+01 0. -1.
         -4    1    1    2    0  501 -0.52942729011E+00 -0.21353775802E+01 -0.49518060136E+00  0.25880947613E+01  0.12700000000E+01 0.  1.
<mgrwt>
<rscale>  0 0.25402816E+01</rscale>
<asrwt>0</asrwt>
<pdfrwt beam="1">0</pdfrwt>
<pdfrwt beam="2">0</pdfrwt>
<totfact> 0.23809300E+12</totfact>
</mgrwt>
</event>
<event>
 4    1  0.3168498E+006  0.2137672E+01  0.7546771E-02  0.2893614E+00
         22   -1    0    0    0    0  0.00000000000E+00  0.00000000000E+00  0.39834864258E+01  0.39834864258E+01  0.00000000000E+00 0.  1.
         22   -1    0    0    0    0 -0.00000000000E+00 -0.00000000000E+00 -0.20205840956E+01  0.20205840956E+01  0.00000000000E+00 0. -1.
          4    1    1    2  501    0  0.16164179862E+01 -0.58645924983E+00 -0.99230420255E+00  0.23567581947E+01  0.12700000000E+01 0. -1.
         -4    1    1    2    0  501 -0.16164179862E+01  0.58645924983E+00  0.29552065327E+01  0.36473123267E+01  0.12700000000E+01 0.  1.
<mgrwt>
<rscale>  0 0.21376720E+01</rscale>
<asrwt>0</asrwt>
<pdfrwt beam="1">0</pdfrwt>
<pdfrwt beam="2">0</pdfrwt>
<totfact> 0.21189329E+12</totfact>
</mgrwt>
</event>
<event>
 4    1  0.3168498E+006  0.2246307E+01  0.7546771E-02  0.2832175E+00
         22   -1    0    0    0    0  0.00000000000E+00  0.00000000000E+00  0.10481321489E+02  0.10481321489E+02  0.00000000000E+00 0. -1.
         22   -1    0    0    0    0 -0.00000000000E+00 -0.00000000000E+00 -0.66349571592E+00  0.66349571592E+00  0.00000000000E+00 0. -1.
          4    1    1    2  501    0  0.18386553531E+01  0.22877897101E+00  0.19897879058E+01  0.30008580831E+01  0.12700000000E+01 0. -1.
         -4    1    1    2    0  501 -0.18386553531E+01 -0.22877897101E+00  0.78280378672E+01  0.81439591217E+01  0.12700000000E+01 0. -1.
<mgrwt>
<rscale>  0 0.22463066E+01</rscale>
<asrwt>0</asrwt>
<pdfrwt beam="1">0</pdfrwt>
<pdfrwt beam="2">0</pdfrwt>
<totfact> 0.23906010E+12</totfact>
</mgrwt>
</event>
<event>
 4    1  0.3168498E+006  0.2013947E+01  0.7546771E-02  0.2971375E+00
         22   -1    0    0    0    0  0.00000000000E+00  0.00000000000E+00  0.30522394485E+01  0.30522394485E+01  0.00000000000E+00 0. -1.
         22   -1    0    0    0    0 -0.00000000000E+00 -0.00000000000E+00 -0.16689201423E+01  0.16689201423E+01  0.00000000000E+00 0. -1.
          4    1    1    2  501    0 -0.15524859176E+01 -0.18129866827E+00 -0.37391128727E+00  0.20483630983E+01  0.12700000000E+01 0. -1.
         -4    1    1    2    0  501  0.15524859176E+01  0.18129866827E+00  0.17572305936E+01  0.26727964925E+01  0.12700000000E+01 0. -1.
<mgrwt>
<rscale>  0 0.20139468E+01</rscale>
<asrwt>0</asrwt>
<pdfrwt beam="1">0</pdfrwt>
<pdfrwt beam="2">0</pdfrwt>
<totfact> 0.36111832E+12</totfact>
</mgrwt>
</event>
<event>
 4    1  0.3168498E+006  0.2066093E+01  0.7546771E-02  0.2937497E+00
         22   -1    0    0    0    0  0.00000000000E+00  0.00000000000E+00  0.99310040066E+02  0.99310040066E+02  0.00000000000E+00 0. -1.
         22   -1    0    0    0    0 -0.00000000000E+00 -0.00000000000E+00 -0.12772531837E+00  0.12772531837E+00  0.00000000000E+00 0.  1.
          4    1    1    2  501    0  0.14512214912E+01 -0.74148268097E+00  0.90934411380E+01  0.93252030602E+01  0.12700000000E+01 0.  1.
         -4    1    1    2    0  501 -0.14512214912E+01  0.74148268097E+00  0.90088873610E+02  0.90112562325E+02  0.12700000000E+01 0. -1.
<mgrwt>
<rscale>  0 0.20660930E+01</rscale>
<asrwt>0</asrwt>
<pdfrwt beam="1">0</pdfrwt>
<pdfrwt beam="2">0</pdfrwt>
<totfact> 0.83442846E+11</totfact>
</mgrwt>
</event>
<event>
 4    1  0.3168498E+006  0.2045377E+01  0.7546771E-02  0.2950753E+00
         22   -1    0    0    0    0  0.00000000000E+00  0.00000000000E+00  0.11156960511E+02  0.11156960511E+02  0.00000000000E+00 0. -1.
         22   -1    0    0    0    0 -0.00000000000E+00 -0.00000000000E+00 -0.97706045362E+00  0.97706045362E+00  0.00000000000E+00 0. -1.
          4    1    1    2  501    0 -0.10978317085E+01 -0.11685177668E+01  0.32735651362E+00  0.20714078590E+01  0.12700000000E+01 0. -1.
         -4    1    1    2    0  501  0.10978317085E+01  0.11685177668E+01  0.98525435437E+01  0.10062613106E+02  0.12700000000E+01 0. -1.
<mgrwt>
<rscale>  0 0.20453773E+01</rscale>
<asrwt>0</asrwt>
<pdfrwt beam="1">0</pdfrwt>
<pdfrwt beam="2">0</pdfrwt>
<totfact> 0.14265878E+12</totfact>
</mgrwt>
</event>
<event>
 4    1  0.3168498E+006  0.2524496E+01  0.7546771E-02  0.2697828E+00
         22   -1    0    0    0    0  0.00000000000E+00  0.00000000000E+00  0.17162972429E+01  0.17162972429E+01  0.00000000000E+00 0. -1.
         22   -1    0    0    0    0 -0.00000000000E+00 -0.00000000000E+00 -0.49116263808E+01  0.49116263808E+01  0.00000000000E+00 0.  1.
          4    1    1    2  501    0 -0.20957512931E+01 -0.60663377105E+00 -0.32345848239E+01  0.41031228349E+01  0.12700000000E+01 0.  1.
         -4    1    1    2    0  501  0.20957512931E+01  0.60663377105E+00  0.39255685987E-01  0.25248007889E+01  0.12700000000E+01 0. -1.
<mgrwt>
<rscale>  0 0.25244956E+01</rscale>
<asrwt>0</asrwt>
<pdfrwt beam="1">0</pdfrwt>
<pdfrwt beam="2">0</pdfrwt>
<totfact> 0.19986239E+12</totfact>
</mgrwt>
</event>
<event>
 4    1  0.3168498E+006  0.2008397E+01  0.7546771E-02  0.2975082E+00
         22   -1    0    0    0    0  0.00000000000E+00  0.00000000000E+00  0.13905522575E+02  0.13905522575E+02  0.00000000000E+00 0. -1.
         22   -1    0    0    0    0 -0.00000000000E+00 -0.00000000000E+00 -0.54556909715E+00  0.54556909715E+00  0.00000000000E+00 0. -1.
          4    1    1    2  501    0  0.14616482143E+01 -0.53323870790E+00  0.17353293750E+01  0.26542469858E+01  0.12700000000E+01 0. -1.
         -4    1    1    2    0  501 -0.14616482143E+01  0.53323870790E+00  0.11624624103E+02  0.11796844686E+02  0.12700000000E+01 0. -1.
<mgrwt>
<rscale>  0 0.20083971E+01</rscale>
<asrwt>0</asrwt>
<pdfrwt beam="1">0</pdfrwt>
<pdfrwt beam="2">0</pdfrwt>
<totfact> 0.21133744E+12</totfact>
</mgrwt>
</event>
<event>
 4    1  0.3168498E+006  0.2296381E+01  0.7546771E-02  0.2805728E+00
         22   -1    0    0    0    0  0.00000000000E+00  0.00000000000E+00  0.10225929200E+01  0.10225929200E+01  0.00000000000E+00 0. -1.
         22   -1    0    0    0    0 -0.00000000000E+00 -0.00000000000E+00 -0.26926140442E+02  0.26926140442E+02  0.00000000000E+00 0.  1.
          4    1    1    2  501    0 -0.44333258390E+00  0.18611618653E+01 -0.25516907944E+02  0.25620030412E+02  0.12700000000E+01 0.  1.
         -4    1    1    2    0  501  0.44333258390E+00 -0.18611618653E+01 -0.38663957833E+00  0.23287029507E+01  0.12700000000E+01 0. -1.
<mgrwt>
<rscale>  0 0.22963813E+01</rscale>
<asrwt>0</asrwt>
<pdfrwt beam="1">0</pdfrwt>
<pdfrwt beam="2">0</pdfrwt>
<totfact> 0.45445619E+11</totfact>
</mgrwt>
</event>
<event>
 4    1  0.3168498E+006  0.3419762E+01  0.7546771E-02  0.2404149E+00
         22   -1    0    0    0    0  0.00000000000E+00  0.00000000000E+00  0.35893973868E+01  0.35893973868E+01  0.00000000000E+00 0.  1.
         22   -1    0    0    0    0 -0.00000000000E+00 -0.00000000000E+00 -0.37348318438E+01  0.37348318438E+01  0.00000000000E+00 0. -1.
          4    1    1    2  501    0  0.31751905190E+01  0.59185463239E-02 -0.13810370280E+01  0.36880934280E+01  0.12700000000E+01 0. -1.
         -4    1    1    2    0  501 -0.31751905190E+01 -0.59185463239E-02  0.12356025710E+01  0.36361358026E+01  0.12700000000E+01 0.  1.
<mgrwt>
<rscale>  0 0.34197617E+01</rscale>
<asrwt>0</asrwt>
<pdfrwt beam="1">0</pdfrwt>
<pdfrwt beam="2">0</pdfrwt>
<totfact> 0.11702037E+12</totfact>
</mgrwt>
</event>
<event>
 4    1  0.3168498E+006  0.2954877E+01  0.7546771E-02  0.2536634E+00
         22   -1    0    0    0    0  0.00000000000E+00  0.00000000000E+00  0.10842867620E+01  0.10842867620E+01  0.00000000000E+00 0.  1.
         22   -1    0    0    0    0 -0.00000000000E+00 -0.00000000000E+00 -0.26914179681E+02  0.26914179681E+02  0.00000000000E+00 0. -1.
          4    1    1    2  501    0  0.12988350256E+01  0.23305423233E+01 -0.24634282294E+02  0.24810867863E+02  0.12700000000E+01 0. -1.
         -4    1    1    2    0  501 -0.12988350256E+01 -0.23305423233E+01 -0.11956106248E+01  0.31875985805E+01  0.12700000000E+01 0.  1.
<mgrwt>
<rscale>  0 0.29548773E+01</rscale>
<asrwt>0</asrwt>
<pdfrwt beam="1">0</pdfrwt>
<pdfrwt beam="2">0</pdfrwt>
<totfact> 0.42528397E+11</totfact>
</mgrwt>
</event>
<event>
 4    1  0.3168498E+006  0.3163547E+01  0.7546771E-02  0.2472895E+00
         22   -1    0    0    0    0  0.00000000000E+00  0.00000000000E+00  0.97052773039E+00  0.97052773039E+00  0.00000000000E+00 0. -1.
         22   -1    0    0    0    0 -0.00000000000E+00 -0.00000000000E+00 -0.13988129834E+02  0.13988129834E+02  0.00000000000E+00 0.  1.
          4    1    1    2  501    0  0.25436222145E+01  0.13874844283E+01 -0.10343061082E+02  0.10816050090E+02  0.12700000000E+01 0.  1.
         -4    1    1    2    0  501 -0.25436222145E+01 -0.13874844283E+01 -0.26745410216E+01  0.41426074742E+01  0.12700000000E+01 0. -1.
<mgrwt>
<rscale>  0 0.31635466E+01</rscale>
<asrwt>0</asrwt>
<pdfrwt beam="1">0</pdfrwt>
<pdfrwt beam="2">0</pdfrwt>
<totfact> 0.10907397E+12</totfact>
</mgrwt>
</event>
<event>
 4    1  0.3168498E+006  0.2578913E+01  0.7546771E-02  0.2674730E+00
         22   -1    0    0    0    0  0.00000000000E+00  0.00000000000E+00  0.66709584474E+02  0.66709584474E+02  0.00000000000E+00 0. -1.
         22   -1    0    0    0    0 -0.00000000000E+00 -0.00000000000E+00 -0.99709401794E-01  0.99709401794E-01  0.00000000000E+00 0.  1.
          4    1    1    2  501    0  0.22436048289E+01 -0.64256187867E-01  0.33666969483E+02  0.33765598257E+02  0.12700000000E+01 0.  1.
         -4    1    1    2    0  501 -0.22436048289E+01  0.64256187867E-01  0.32942905589E+02  0.33043695619E+02  0.12700000000E+01 0. -1.
<mgrwt>
<rscale>  0 0.25789128E+01</rscale>
<asrwt>0</asrwt>
<pdfrwt beam="1">0</pdfrwt>
<pdfrwt beam="2">0</pdfrwt>
<totfact> 0.18996283E+12</totfact>
</mgrwt>
</event>
<event>
 4    1  0.3168498E+006  0.2157091E+01  0.7546771E-02  0.2882196E+00
         22   -1    0    0    0    0  0.00000000000E+00  0.00000000000E+00  0.48362691673E+01  0.48362691673E+01  0.00000000000E+00 0. -1.
         22   -1    0    0    0    0 -0.00000000000E+00 -0.00000000000E+00 -0.12827220573E+01  0.12827220573E+01  0.00000000000E+00 0.  1.
          4    1    1    2  501    0  0.17398778927E+01 -0.11386122280E+00  0.24719719212E+00  0.21712083989E+01  0.12700000000E+01 0.  1.
         -4    1    1    2    0  501 -0.17398778927E+01  0.11386122280E+00  0.33063499179E+01  0.39477828257E+01  0.12700000000E+01 0. -1.
<mgrwt>
<rscale>  0 0.21570905E+01</rscale>
<asrwt>0</asrwt>
<pdfrwt beam="1">0</pdfrwt>
<pdfrwt beam="2">0</pdfrwt>
<totfact> 0.28453424E+12</totfact>
</mgrwt>
</event>
<event>
 4    1  0.3168498E+006  0.2379017E+01  0.7546771E-02  0.2764396E+00
         22   -1    0    0    0    0  0.00000000000E+00  0.00000000000E+00  0.40443450589E+01  0.40443450589E+01  0.00000000000E+00 0. -1.
         22   -1    0    0    0    0 -0.00000000000E+00 -0.00000000000E+00 -0.15941896143E+01  0.15941896143E+01  0.00000000000E+00 0. -1.
          4    1    1    2  501    0 -0.35646864189E+00 -0.19798368076E+01  0.23963667912E+00  0.23910561297E+01  0.12700000000E+01 0. -1.
         -4    1    1    2    0  501  0.35646864189E+00  0.19798368076E+01  0.22105187655E+01  0.32474785434E+01  0.12700000000E+01 0. -1.
<mgrwt>
<rscale>  0 0.23790174E+01</rscale>
<asrwt>0</asrwt>
<pdfrwt beam="1">0</pdfrwt>
<pdfrwt beam="2">0</pdfrwt>
<totfact> 0.27369112E+12</totfact>
</mgrwt>
</event>
<event>
 4    1  0.3168498E+006  0.4267555E+01  0.7546771E-02  0.2228893E+00
         22   -1    0    0    0    0  0.00000000000E+00  0.00000000000E+00  0.64431421119E+02  0.64431421119E+02  0.00000000000E+00 0.  1.
         22   -1    0    0    0    0 -0.00000000000E+00 -0.00000000000E+00 -0.51864759095E+00  0.51864759095E+00  0.00000000000E+00 0. -1.
          4    1    1    2  501    0  0.31691729537E+01  0.25603644945E+01  0.10050525502E+02  0.10919024060E+02  0.12700000000E+01 0. -1.
         -4    1    1    2    0  501 -0.31691729537E+01 -0.25603644945E+01  0.53862248026E+02  0.54031044650E+02  0.12700000000E+01 0.  1.
<mgrwt>
<rscale>  0 0.42675548E+01</rscale>
<asrwt>0</asrwt>
<pdfrwt beam="1">0</pdfrwt>
<pdfrwt beam="2">0</pdfrwt>
<totfact> 0.31523478E+11</totfact>
</mgrwt>
</event>
<event>
 4    1  0.3168498E+006  0.2131939E+01  0.7546771E-02  0.2897024E+00
         22   -1    0    0    0    0  0.00000000000E+00  0.00000000000E+00  0.39036657821E+00  0.39036657821E+00  0.00000000000E+00 0. -1.
         22   -1    0    0    0    0 -0.00000000000E+00 -0.00000000000E+00 -0.12756067498E+02  0.12756067498E+02  0.00000000000E+00 0. -1.
          4    1    1    2  501    0 -0.97406208093E+00 -0.14083564193E+01 -0.81242593074E+01  0.83993305706E+01  0.12700000000E+01 0. -1.
         -4    1    1    2    0  501  0.97406208093E+00  0.14083564193E+01 -0.42414416127E+01  0.47471035059E+01  0.12700000000E+01 0. -1.
<mgrwt>
<rscale>  0 0.21319392E+01</rscale>
<asrwt>0</asrwt>
<pdfrwt beam="1">0</pdfrwt>
<pdfrwt beam="2">0</pdfrwt>
<totfact> 0.34265155E+12</totfact>
</mgrwt>
</event>
<event>
 4    1  0.3168498E+006  0.6320448E+01  0.7546771E-02  0.1992088E+00
         22   -1    0    0    0    0  0.00000000000E+00  0.00000000000E+00  0.62646912477E+01  0.62646912477E+01  0.00000000000E+00 0. -1.
         22   -1    0    0    0    0 -0.00000000000E+00 -0.00000000000E+00 -0.94222948793E+01  0.94222948793E+01  0.00000000000E+00 0.  1.
          4    1    1    2  501    0 -0.36549451859E+01  0.49976538664E+01 -0.60381060551E+01  0.87410979410E+01  0.12700000000E+01 0. -1.
         -4    1    1    2    0  501  0.36549451859E+01 -0.49976538664E+01  0.28805024236E+01  0.69458881860E+01  0.12700000000E+01 0. -1.
<mgrwt>
<rscale>  0 0.63204484E+01</rscale>
<asrwt>0</asrwt>
<pdfrwt beam="1">0</pdfrwt>
<pdfrwt beam="2">0</pdfrwt>
<totfact> 0.20129837E+11</totfact>
</mgrwt>
</event>
<event>
 4    1  0.3168498E+006  0.3798417E+01  0.7546771E-02  0.2317567E+00
         22   -1    0    0    0    0  0.00000000000E+00  0.00000000000E+00  0.31165197683E+01  0.31165197683E+01  0.00000000000E+00 0.  1.
         22   -1    0    0    0    0 -0.00000000000E+00 -0.00000000000E+00 -0.48731525002E+01  0.48731525002E+01  0.00000000000E+00 0. -1.
          4    1    1    2  501    0 -0.31082199401E+01  0.17759625060E+01 -0.17715525769E+01  0.41912256622E+01  0.12700000000E+01 0. -1.
         -4    1    1    2    0  501  0.31082199401E+01 -0.17759625060E+01  0.14919844999E-01  0.37984466063E+01  0.12700000000E+01 0.  1.
<mgrwt>
<rscale>  0 0.37984173E+01</rscale>
<asrwt>0</asrwt>
<pdfrwt beam="1">0</pdfrwt>
<pdfrwt beam="2">0</pdfrwt>
<totfact> 0.10090826E+12</totfact>
</mgrwt>
</event>
<event>
 4    1  0.3168498E+006  0.4278489E+01  0.7546771E-02  0.2227024E+00
         22   -1    0    0    0    0  0.00000000000E+00  0.00000000000E+00  0.38406537558E+00  0.38406537558E+00  0.00000000000E+00 0. -1.
         22   -1    0    0    0    0 -0.00000000000E+00 -0.00000000000E+00 -0.47813245390E+02  0.47813245390E+02  0.00000000000E+00 0.  1.
          4    1    1    2  501    0 -0.13043192009E+01 -0.38718622542E+01 -0.22360871285E+02  0.22766511163E+02  0.12700000000E+01 0.  1.
         -4    1    1    2    0  501  0.13043192009E+01  0.38718622542E+01 -0.25068308730E+02  0.25430799603E+02  0.12700000000E+01 0.  1.
<mgrwt>
<rscale>  0 0.42784887E+01</rscale>
<asrwt>0</asrwt>
<pdfrwt beam="1">0</pdfrwt>
<pdfrwt beam="2">0</pdfrwt>
<totfact> 0.65769921E+11</totfact>
</mgrwt>
</event>
<event>
 4    1  0.3168498E+006  0.3975289E+01  0.7546771E-02  0.2282043E+00
         22   -1    0    0    0    0  0.00000000000E+00  0.00000000000E+00  0.46214975480E+02  0.46214975480E+02  0.00000000000E+00 0. -1.
         22   -1    0    0    0    0 -0.00000000000E+00 -0.00000000000E+00 -0.43667626176E+00  0.43667626176E+00  0.00000000000E+00 0.  1.
          4    1    1    2  501    0 -0.12142717295E+00 -0.37650068358E+01  0.12024722947E+02  0.12664789101E+02  0.12700000000E+01 0.  1.
         -4    1    1    2    0  501  0.12142717295E+00  0.37650068358E+01  0.33753576271E+02  0.33986862640E+02  0.12700000000E+01 0. -1.
<mgrwt>
<rscale>  0 0.39752888E+01</rscale>
<asrwt>0</asrwt>
<pdfrwt beam="1">0</pdfrwt>
<pdfrwt beam="2">0</pdfrwt>
<totfact> 0.59515790E+11</totfact>
</mgrwt>
</event>
<event>
 4    1  0.3168498E+006  0.2665994E+01  0.7546771E-02  0.2639583E+00
         22   -1    0    0    0    0  0.00000000000E+00  0.00000000000E+00  0.45195482031E+02  0.45195482031E+02  0.00000000000E+00 0. -1.
         22   -1    0    0    0    0 -0.00000000000E+00 -0.00000000000E+00 -0.17499246601E+00  0.17499246601E+00  0.00000000000E+00 0.  1.
          4    1    1    2  501    0  0.17820807452E+01  0.15227653642E+01  0.15289279025E+02  0.15519973558E+02  0.12700000000E+01 0. -1.
         -4    1    1    2    0  501 -0.17820807452E+01 -0.15227653642E+01  0.29731210540E+02  0.29850500939E+02  0.12700000000E+01 0.  1.
<mgrwt>
<rscale>  0 0.26659944E+01</rscale>
<asrwt>0</asrwt>
<pdfrwt beam="1">0</pdfrwt>
<pdfrwt beam="2">0</pdfrwt>
<totfact> 0.17067798E+12</totfact>
</mgrwt>
</event>
<event>
 4    1  0.3168498E+006  0.2396355E+01  0.7546771E-02  0.2756065E+00
         22   -1    0    0    0    0  0.00000000000E+00  0.00000000000E+00  0.19902558196E+02  0.19902558196E+02  0.00000000000E+00 0.  1.
         22   -1    0    0    0    0 -0.00000000000E+00 -0.00000000000E+00 -0.13448988330E+01  0.13448988330E+01  0.00000000000E+00 0. -1.
          4    1    1    2  501    0 -0.15154569545E+01 -0.13538864878E+01 -0.13658823260E+00  0.24002447267E+01  0.12700000000E+01 0. -1.
         -4    1    1    2    0  501  0.15154569545E+01  0.13538864878E+01  0.18694247596E+02  0.18847212302E+02  0.12700000000E+01 0.  1.
<mgrwt>
<rscale>  0 0.23963552E+01</rscale>
<asrwt>0</asrwt>
<pdfrwt beam="1">0</pdfrwt>
<pdfrwt beam="2">0</pdfrwt>
<totfact> 0.48544798E+11</totfact>
</mgrwt>
</event>
<event>
 4    1  0.3168498E+006  0.5329316E+01  0.7546771E-02  0.2085632E+00
         22   -1    0    0    0    0  0.00000000000E+00  0.00000000000E+00  0.73836128418E+01  0.73836128418E+01  0.00000000000E+00 0.  1.
         22   -1    0    0    0    0 -0.00000000000E+00 -0.00000000000E+00 -0.11100001802E+02  0.11100001802E+02  0.00000000000E+00 0. -1.
          4    1    1    2  501    0 -0.30217146125E+00 -0.51669532359E+01 -0.93289931182E+01  0.10743915763E+02  0.12700000000E+01 0. -1.
         -4    1    1    2    0  501  0.30217146125E+00  0.51669532359E+01  0.56126041576E+01  0.77396988807E+01  0.12700000000E+01 0.  1.
<mgrwt>
<rscale>  0 0.53293164E+01</rscale>
<asrwt>0</asrwt>
<pdfrwt beam="1">0</pdfrwt>
<pdfrwt beam="2">0</pdfrwt>
<totfact> 0.13561326E+11</totfact>
</mgrwt>
</event>
<event>
 4    1  0.3168498E+006  0.2607723E+01  0.7546771E-02  0.2662863E+00
         22   -1    0    0    0    0  0.00000000000E+00  0.00000000000E+00  0.39607414918E+01  0.39607414918E+01  0.00000000000E+00 0.  1.
         22   -1    0    0    0    0 -0.00000000000E+00 -0.00000000000E+00 -0.19557337106E+01  0.19557337106E+01  0.00000000000E+00 0. -1.
          4    1    1    2  501    0 -0.42046214621E+00  0.22384211400E+01 -0.31259832750E-01  0.26079100432E+01  0.12700000000E+01 0. -1.
         -4    1    1    2    0  501  0.42046214621E+00 -0.22384211400E+01  0.20362676140E+01  0.33085651591E+01  0.12700000000E+01 0.  1.
<mgrwt>
<rscale>  0 0.26077227E+01</rscale>
<asrwt>0</asrwt>
<pdfrwt beam="1">0</pdfrwt>
<pdfrwt beam="2">0</pdfrwt>
<totfact> 0.22154653E+12</totfact>
</mgrwt>
</event>
<event>
 4    1  0.3168498E+006  0.3060123E+01  0.7546771E-02  0.2503516E+00
         22   -1    0    0    0    0  0.00000000000E+00  0.00000000000E+00  0.14163436523E+02  0.14163436523E+02  0.00000000000E+00 0.  1.
         22   -1    0    0    0    0 -0.00000000000E+00 -0.00000000000E+00 -0.16525793979E+01  0.16525793979E+01  0.00000000000E+00 0.  1.
          4    1    1    2  501    0  0.27120687978E+01 -0.62939188838E+00  0.13031976262E+00  0.30628964321E+01  0.12700000000E+01 0.  1.
         -4    1    1    2    0  501 -0.27120687978E+01  0.62939188838E+00  0.12380537362E+02  0.12753119489E+02  0.12700000000E+01 0.  1.
<mgrwt>
<rscale>  0 0.30601228E+01</rscale>
<asrwt>0</asrwt>
<pdfrwt beam="1">0</pdfrwt>
<pdfrwt beam="2">0</pdfrwt>
<totfact> 0.58338840E+11</totfact>
</mgrwt>
</event>
<event>
 4    1  0.3168498E+006  0.2572471E+01  0.7546771E-02  0.2677417E+00
         22   -1    0    0    0    0  0.00000000000E+00  0.00000000000E+00  0.14853505500E+01  0.14853505500E+01  0.00000000000E+00 0.  1.
         22   -1    0    0    0    0 -0.00000000000E+00 -0.00000000000E+00 -0.45497587444E+01  0.45497587444E+01  0.00000000000E+00 0. -1.
          4    1    1    2  501    0 -0.17794333272E+01 -0.13558488482E+01 -0.19671100649E+01  0.32383840218E+01  0.12700000000E+01 0.  1.
         -4    1    1    2    0  501  0.17794333272E+01  0.13558488482E+01 -0.10972981295E+01  0.27967252725E+01  0.12700000000E+01 0. -1.
<mgrwt>
<rscale>  0 0.25724714E+01</rscale>
<asrwt>0</asrwt>
<pdfrwt beam="1">0</pdfrwt>
<pdfrwt beam="2">0</pdfrwt>
<totfact> 0.25842255E+12</totfact>
</mgrwt>
</event>
<event>
 4    1  0.3168498E+006  0.2955660E+01  0.7546771E-02  0.2536380E+00
         22   -1    0    0    0    0  0.00000000000E+00  0.00000000000E+00  0.17066135659E+02  0.17066135659E+02  0.00000000000E+00 0.  1.
         22   -1    0    0    0    0 -0.00000000000E+00 -0.00000000000E+00 -0.51501081350E+00  0.51501081350E+00  0.00000000000E+00 0. -1.
          4    1    1    2  501    0 -0.66593974110E+00 -0.25844820584E+01  0.89602480608E+01  0.94351453916E+01  0.12700000000E+01 0. -1.
         -4    1    1    2    0  501  0.66593974110E+00  0.25844820584E+01  0.75908767842E+01  0.81460010804E+01  0.12700000000E+01 0.  1.
<mgrwt>
<rscale>  0 0.29556595E+01</rscale>
<asrwt>0</asrwt>
<pdfrwt beam="1">0</pdfrwt>
<pdfrwt beam="2">0</pdfrwt>
<totfact> 0.17527982E+12</totfact>
</mgrwt>
</event>
<event>
 4    1  0.3168498E+006  0.3265465E+01  0.7546771E-02  0.2444410E+00
         22   -1    0    0    0    0  0.00000000000E+00  0.00000000000E+00  0.45848275715E+00  0.45848275715E+00  0.00000000000E+00 0.  1.
         22   -1    0    0    0    0 -0.00000000000E+00 -0.00000000000E+00 -0.24507798815E+02  0.24507798815E+02  0.00000000000E+00 0. -1.
          4    1    1    2  501    0  0.21614844924E+01  0.20924495757E+01 -0.92053559765E+01  0.97673865026E+01  0.12700000000E+01 0.  1.
         -4    1    1    2    0  501 -0.21614844924E+01 -0.20924495757E+01 -0.14843960081E+02  0.15198895069E+02  0.12700000000E+01 0. -1.
<mgrwt>
<rscale>  0 0.32654648E+01</rscale>
<asrwt>0</asrwt>
<pdfrwt beam="1">0</pdfrwt>
<pdfrwt beam="2">0</pdfrwt>
<totfact> 0.12720438E+12</totfact>
</mgrwt>
</event>
<event>
 4    1  0.3168498E+006  0.2878322E+01  0.7546771E-02  0.2562088E+00
         22   -1    0    0    0    0  0.00000000000E+00  0.00000000000E+00  0.15493447508E+02  0.15493447508E+02  0.00000000000E+00 0.  1.
         22   -1    0    0    0    0 -0.00000000000E+00 -0.00000000000E+00 -0.48374796788E+01  0.48374796788E+01  0.00000000000E+00 0.  1.
          4    1    1    2  501    0  0.14972902851E+01 -0.21047464272E+01 -0.42591964689E+01  0.51405729527E+01  0.12700000000E+01 0.  1.
         -4    1    1    2    0  501 -0.14972902851E+01  0.21047464272E+01  0.14915164298E+02  0.15190354234E+02  0.12700000000E+01 0.  1.
<mgrwt>
<rscale>  0 0.28783217E+01</rscale>
<asrwt>0</asrwt>
<pdfrwt beam="1">0</pdfrwt>
<pdfrwt beam="2">0</pdfrwt>
<totfact> 0.14916567E+11</totfact>
</mgrwt>
</event>
<event>
 4    1  0.3168498E+006  0.2090748E+01  0.7546771E-02  0.2922053E+00
         22   -1    0    0    0    0  0.00000000000E+00  0.00000000000E+00  0.33171361846E+02  0.33171361846E+02  0.00000000000E+00 0. -1.
         22   -1    0    0    0    0 -0.00000000000E+00 -0.00000000000E+00 -0.13984335185E+00  0.13984335185E+00  0.00000000000E+00 0. -1.
          4    1    1    2  501    0  0.14081201293E+01 -0.88063879240E+00  0.12515626329E+02  0.12689055497E+02  0.12700000000E+01 0. -1.
         -4    1    1    2    0  501 -0.14081201293E+01  0.88063879240E+00  0.20515892165E+02  0.20622149702E+02  0.12700000000E+01 0. -1.
<mgrwt>
<rscale>  0 0.20907479E+01</rscale>
<asrwt>0</asrwt>
<pdfrwt beam="1">0</pdfrwt>
<pdfrwt beam="2">0</pdfrwt>
<totfact> 0.32692119E+12</totfact>
</mgrwt>
</event>
<event>
 4    1  0.3168498E+006  0.2361758E+01  0.7546771E-02  0.2772803E+00
         22   -1    0    0    0    0  0.00000000000E+00  0.00000000000E+00  0.34069640217E+01  0.34069640217E+01  0.00000000000E+00 0. -1.
         22   -1    0    0    0    0 -0.00000000000E+00 -0.00000000000E+00 -0.41847638851E+02  0.41847638851E+02  0.00000000000E+00 0. -1.
          4    1    1    2  501    0  0.12606093991E+01 -0.15413833792E+01 -0.41400598913E+02  0.41467909148E+02  0.12700000000E+01 0. -1.
         -4    1    1    2    0  501 -0.12606093991E+01  0.15413833792E+01  0.29599240838E+01  0.37866937242E+01  0.12700000000E+01 0. -1.
<mgrwt>
<rscale>  0 0.23617576E+01</rscale>
<asrwt>0</asrwt>
<pdfrwt beam="1">0</pdfrwt>
<pdfrwt beam="2">0</pdfrwt>
<totfact> 0.64180074E+10</totfact>
</mgrwt>
</event>
<event>
 4    1  0.3168498E+006  0.2853472E+01  0.7546771E-02  0.2570615E+00
         22   -1    0    0    0    0  0.00000000000E+00  0.00000000000E+00  0.54650436848E+01  0.54650436848E+01  0.00000000000E+00 0. -1.
         22   -1    0    0    0    0 -0.00000000000E+00 -0.00000000000E+00 -0.35183483721E+01  0.35183483721E+01  0.00000000000E+00 0.  1.
          4    1    1    2  501    0  0.25303478722E+01 -0.35600520712E+00 -0.24372010805E+01  0.37526322986E+01  0.12700000000E+01 0.  1.
         -4    1    1    2    0  501 -0.25303478722E+01  0.35600520712E+00  0.43838963932E+01  0.52307597582E+01  0.12700000000E+01 0. -1.
<mgrwt>
<rscale>  0 0.28534716E+01</rscale>
<asrwt>0</asrwt>
<pdfrwt beam="1">0</pdfrwt>
<pdfrwt beam="2">0</pdfrwt>
<totfact> 0.76427054E+11</totfact>
</mgrwt>
</event>
<event>
 4    1  0.3168498E+006  0.2705451E+01  0.7546771E-02  0.2624344E+00
         22   -1    0    0    0    0  0.00000000000E+00  0.00000000000E+00  0.11379634570E+03  0.11379634570E+03  0.00000000000E+00 0.  1.
         22   -1    0    0    0    0 -0.00000000000E+00 -0.00000000000E+00 -0.67125058558E-01  0.67125058558E-01  0.00000000000E+00 0. -1.
          4    1    1    2  501    0 -0.49909960205E+00 -0.23361213288E+01  0.45227985253E+02  0.45308830412E+02  0.12700000000E+01 0. -1.
         -4    1    1    2    0  501  0.49909960205E+00  0.23361213288E+01  0.68501235388E+02  0.68554640345E+02  0.12700000000E+01 0.  1.
<mgrwt>
<rscale>  0 0.27054507E+01</rscale>
<asrwt>0</asrwt>
<pdfrwt beam="1">0</pdfrwt>
<pdfrwt beam="2">0</pdfrwt>
<totfact> 0.14016673E+12</totfact>
</mgrwt>
</event>
<event>
 4    1  0.3168498E+006  0.2099103E+01  0.7546771E-02  0.2916899E+00
         22   -1    0    0    0    0  0.00000000000E+00  0.00000000000E+00  0.67731569128E+01  0.67731569128E+01  0.00000000000E+00 0.  1.
         22   -1    0    0    0    0 -0.00000000000E+00 -0.00000000000E+00 -0.83963240689E+00  0.83963240689E+00  0.00000000000E+00 0. -1.
          4    1    1    2  501    0 -0.15700539684E+01 -0.57294213455E+00  0.47731144139E+01  0.52142931794E+01  0.12700000000E+01 0.  1.
         -4    1    1    2    0  501  0.15700539684E+01  0.57294213455E+00  0.11604100920E+01  0.23984961402E+01  0.12700000000E+01 0. -1.
<mgrwt>
<rscale>  0 0.20991027E+01</rscale>
<asrwt>0</asrwt>
<pdfrwt beam="1">0</pdfrwt>
<pdfrwt beam="2">0</pdfrwt>
<totfact> 0.30942258E+12</totfact>
</mgrwt>
</event>
<event>
 4    1  0.3168498E+006  0.2414194E+01  0.7546771E-02  0.2747612E+00
         22   -1    0    0    0    0  0.00000000000E+00  0.00000000000E+00  0.15665901148E+02  0.15665901148E+02  0.00000000000E+00 0. -1.
         22   -1    0    0    0    0 -0.00000000000E+00 -0.00000000000E+00 -0.37212627702E+00  0.37212627702E+00  0.00000000000E+00 0.  1.
          4    1    1    2  501    0  0.93176470825E+00  0.18295488214E+01  0.75244468966E+01  0.79022550871E+01  0.12700000000E+01 0. -1.
         -4    1    1    2    0  501 -0.93176470825E+00 -0.18295488214E+01  0.77693279747E+01  0.81357723382E+01  0.12700000000E+01 0.  1.
<mgrwt>
<rscale>  0 0.24141944E+01</rscale>
<asrwt>0</asrwt>
<pdfrwt beam="1">0</pdfrwt>
<pdfrwt beam="2">0</pdfrwt>
<totfact> 0.28100033E+12</totfact>
</mgrwt>
</event>
<event>
 4    1  0.3168498E+006  0.2040753E+01  0.7546771E-02  0.2953748E+00
         22   -1    0    0    0    0  0.00000000000E+00  0.00000000000E+00  0.23410129251E+00  0.23410129251E+00  0.00000000000E+00 0.  1.
         22   -1    0    0    0    0 -0.00000000000E+00 -0.00000000000E+00 -0.29935942724E+02  0.29935942724E+02  0.00000000000E+00 0. -1.
          4    1    1    2  501    0 -0.78883385019E+00 -0.13890701375E+01 -0.24459609413E+02  0.24544595481E+02  0.12700000000E+01 0. -1.
         -4    1    1    2    0  501  0.78883385019E+00  0.13890701375E+01 -0.52422320188E+01  0.56254485358E+01  0.12700000000E+01 0.  1.
<mgrwt>
<rscale>  0 0.20407535E+01</rscale>
<asrwt>0</asrwt>
<pdfrwt beam="1">0</pdfrwt>
<pdfrwt beam="2">0</pdfrwt>
<totfact> 0.20992900E+12</totfact>
</mgrwt>
</event>
<event>
 4    1  0.3168498E+006  0.3051910E+01  0.7546771E-02  0.2506026E+00
         22   -1    0    0    0    0  0.00000000000E+00  0.00000000000E+00  0.54926078032E+01  0.54926078032E+01  0.00000000000E+00 0.  1.
         22   -1    0    0    0    0 -0.00000000000E+00 -0.00000000000E+00 -0.16984434068E+01  0.16984434068E+01  0.00000000000E+00 0. -1.
          4    1    1    2  501    0 -0.25970522786E+01 -0.97804566508E+00  0.20399530870E+01  0.36709075796E+01  0.12700000000E+01 0.  1.
         -4    1    1    2    0  501  0.25970522786E+01  0.97804566508E+00  0.17542113094E+01  0.35201436304E+01  0.12700000000E+01 0. -1.
<mgrwt>
<rscale>  0 0.30519099E+01</rscale>
<asrwt>0</asrwt>
<pdfrwt beam="1">0</pdfrwt>
<pdfrwt beam="2">0</pdfrwt>
<totfact> 0.17718560E+12</totfact>
</mgrwt>
</event>
<event>
 4    1  0.3168498E+006  0.2194389E+01  0.7546771E-02  0.2860809E+00
         22   -1    0    0    0    0  0.00000000000E+00  0.00000000000E+00  0.10245497080E+02  0.10245497080E+02  0.00000000000E+00 0. -1.
         22   -1    0    0    0    0 -0.00000000000E+00 -0.00000000000E+00 -0.11650609975E+01  0.11650609975E+01  0.00000000000E+00 0. -1.
          4    1    1    2  501    0  0.16844036352E+01 -0.60433943398E+00  0.13349968465E+00  0.21984457973E+01  0.12700000000E+01 0. -1.
         -4    1    1    2    0  501 -0.16844036352E+01  0.60433943398E+00  0.89469363979E+01  0.92121122803E+01  0.12700000000E+01 0. -1.
<mgrwt>
<rscale>  0 0.21943887E+01</rscale>
<asrwt>0</asrwt>
<pdfrwt beam="1">0</pdfrwt>
<pdfrwt beam="2">0</pdfrwt>
<totfact> 0.12938077E+12</totfact>
</mgrwt>
</event>
<event>
 4    1  0.3168498E+006  0.2624764E+01  0.7546771E-02  0.2655956E+00
         22   -1    0    0    0    0  0.00000000000E+00  0.00000000000E+00  0.37491764702E+01  0.37491764702E+01  0.00000000000E+00 0.  1.
         22   -1    0    0    0    0 -0.00000000000E+00 -0.00000000000E+00 -0.18941909768E+01  0.18941909768E+01  0.00000000000E+00 0. -1.
          4    1    1    2  501    0 -0.13465310701E+00  0.22931102607E+01  0.43965776897E+00  0.26613314488E+01  0.12700000000E+01 0. -1.
         -4    1    1    2    0  501  0.13465310701E+00 -0.22931102607E+01  0.14153277244E+01  0.29820359981E+01  0.12700000000E+01 0.  1.
<mgrwt>
<rscale>  0 0.26247640E+01</rscale>
<asrwt>0</asrwt>
<pdfrwt beam="1">0</pdfrwt>
<pdfrwt beam="2">0</pdfrwt>
<totfact> 0.24521739E+12</totfact>
</mgrwt>
</event>
<event>
 4    1  0.3168498E+006  0.4047766E+01  0.7546771E-02  0.2268256E+00
         22   -1    0    0    0    0  0.00000000000E+00  0.00000000000E+00  0.27274034460E+02  0.27274034460E+02  0.00000000000E+00 0. -1.
         22   -1    0    0    0    0 -0.00000000000E+00 -0.00000000000E+00 -0.60081731809E+00  0.60081731809E+00  0.00000000000E+00 0.  1.
          4    1    1    2  501    0 -0.24267657972E+01 -0.29803214973E+01  0.13171352750E+02  0.13779293949E+02  0.12700000000E+01 0.  1.
         -4    1    1    2    0  501  0.24267657972E+01  0.29803214973E+01  0.13501864391E+02  0.14095557829E+02  0.12700000000E+01 0. -1.
<mgrwt>
<rscale>  0 0.40477659E+01</rscale>
<asrwt>0</asrwt>
<pdfrwt beam="1">0</pdfrwt>
<pdfrwt beam="2">0</pdfrwt>
<totfact> 0.81869089E+11</totfact>
</mgrwt>
</event>
<event>
 4    1  0.3168498E+006  0.2081508E+01  0.7546771E-02  0.2927799E+00
         22   -1    0    0    0    0  0.00000000000E+00  0.00000000000E+00  0.14625608733E+02  0.14625608733E+02  0.00000000000E+00 0. -1.
         22   -1    0    0    0    0 -0.00000000000E+00 -0.00000000000E+00 -0.57525937045E+00  0.57525937045E+00  0.00000000000E+00 0. -1.
          4    1    1    2  501    0 -0.29608442342E+00 -0.16223783073E+01  0.17319002369E+01  0.27077953742E+01  0.12700000000E+01 0. -1.
         -4    1    1    2    0  501  0.29608442342E+00  0.16223783073E+01  0.12318449125E+02  0.12493072729E+02  0.12700000000E+01 0. -1.
<mgrwt>
<rscale>  0 0.20815084E+01</rscale>
<asrwt>0</asrwt>
<pdfrwt beam="1">0</pdfrwt>
<pdfrwt beam="2">0</pdfrwt>
<totfact> 0.18708120E+12</totfact>
</mgrwt>
</event>
<event>
 4    1  0.3168498E+006  0.2165953E+01  0.7546771E-02  0.2877050E+00
         22   -1    0    0    0    0  0.00000000000E+00  0.00000000000E+00  0.97049260865E+00  0.97049260865E+00  0.00000000000E+00 0. -1.
         22   -1    0    0    0    0 -0.00000000000E+00 -0.00000000000E+00 -0.58539135296E+01  0.58539135296E+01  0.00000000000E+00 0. -1.
          4    1    1    2  501    0  0.79350027583E+00  0.15648671332E+01 -0.38659907518E+01  0.44313921430E+01  0.12700000000E+01 0. -1.
         -4    1    1    2    0  501 -0.79350027583E+00 -0.15648671332E+01 -0.10174301691E+01  0.23930139952E+01  0.12700000000E+01 0. -1.
<mgrwt>
<rscale>  0 0.21659529E+01</rscale>
<asrwt>0</asrwt>
<pdfrwt beam="1">0</pdfrwt>
<pdfrwt beam="2">0</pdfrwt>
<totfact> 0.31215633E+12</totfact>
</mgrwt>
</event>
<event>
 4    1  0.3168498E+006  0.2053294E+01  0.7546771E-02  0.2945656E+00
         22   -1    0    0    0    0  0.00000000000E+00  0.00000000000E+00  0.20123738887E+01  0.20123738887E+01  0.00000000000E+00 0. -1.
         22   -1    0    0    0    0 -0.00000000000E+00 -0.00000000000E+00 -0.33537673182E+01  0.33537673182E+01  0.00000000000E+00 0.  1.
          4    1    1    2  501    0 -0.13662124308E+01 -0.85824194902E+00 -0.23144265924E+01  0.30939596152E+01  0.12700000000E+01 0.  1.
         -4    1    1    2    0  501  0.13662124308E+01  0.85824194902E+00  0.97303316293E+00  0.22721815916E+01  0.12700000000E+01 0. -1.
<mgrwt>
<rscale>  0 0.20532939E+01</rscale>
<asrwt>0</asrwt>
<pdfrwt beam="1">0</pdfrwt>
<pdfrwt beam="2">0</pdfrwt>
<totfact> 0.26054724E+12</totfact>
</mgrwt>
</event>
<event>
 4    1  0.3168498E+006  0.2139460E+01  0.7546771E-02  0.2892554E+00
         22   -1    0    0    0    0  0.00000000000E+00  0.00000000000E+00  0.21510033243E+01  0.21510033243E+01  0.00000000000E+00 0.  1.
         22   -1    0    0    0    0 -0.00000000000E+00 -0.00000000000E+00 -0.21305020287E+01  0.21305020287E+01  0.00000000000E+00 0. -1.
          4    1    1    2  501    0  0.72323214869E+00  0.15624741437E+01  0.83918007116E-01  0.21411054207E+01  0.12700000000E+01 0. -1.
         -4    1    1    2    0  501 -0.72323214869E+00 -0.15624741437E+01 -0.63416711451E-01  0.21403999323E+01  0.12700000000E+01 0.  1.
<mgrwt>
<rscale>  0 0.21394603E+01</rscale>
<asrwt>0</asrwt>
<pdfrwt beam="1">0</pdfrwt>
<pdfrwt beam="2">0</pdfrwt>
<totfact> 0.40922188E+12</totfact>
</mgrwt>
</event>
<event>
 4    1  0.3168498E+006  0.3158491E+01  0.7546771E-02  0.2474350E+00
         22   -1    0    0    0    0  0.00000000000E+00  0.00000000000E+00  0.12017590680E+02  0.12017590680E+02  0.00000000000E+00 0. -1.
         22   -1    0    0    0    0 -0.00000000000E+00 -0.00000000000E+00 -0.83014102127E+00  0.83014102127E+00  0.00000000000E+00 0. -1.
          4    1    1    2  501    0  0.16378819582E+01 -0.23833811455E+01  0.55627462080E+01  0.63968905234E+01  0.12700000000E+01 0. -1.
         -4    1    1    2    0  501 -0.16378819582E+01  0.23833811455E+01  0.56247034508E+01  0.64508411779E+01  0.12700000000E+01 0. -1.
<mgrwt>
<rscale>  0 0.31584906E+01</rscale>
<asrwt>0</asrwt>
<pdfrwt beam="1">0</pdfrwt>
<pdfrwt beam="2">0</pdfrwt>
<totfact> 0.15693538E+12</totfact>
</mgrwt>
</event>
<event>
 4    1  0.3168498E+006  0.2532100E+01  0.7546771E-02  0.2694545E+00
         22   -1    0    0    0    0  0.00000000000E+00  0.00000000000E+00  0.22878700259E+02  0.22878700259E+02  0.00000000000E+00 0.  1.
         22   -1    0    0    0    0 -0.00000000000E+00 -0.00000000000E+00 -0.31741850164E+00  0.31741850164E+00  0.00000000000E+00 0. -1.
          4    1    1    2  501    0  0.90016821349E+00  0.19970797467E+01  0.73113375227E+01  0.77373888812E+01  0.12700000000E+01 0. -1.
         -4    1    1    2    0  501 -0.90016821349E+00 -0.19970797467E+01  0.15249944234E+02  0.15458729879E+02  0.12700000000E+01 0.  1.
<mgrwt>
<rscale>  0 0.25321000E+01</rscale>
<asrwt>0</asrwt>
<pdfrwt beam="1">0</pdfrwt>
<pdfrwt beam="2">0</pdfrwt>
<totfact> 0.20974838E+12</totfact>
</mgrwt>
</event>
<event>
 4    1  0.3168498E+006  0.2936549E+01  0.7546771E-02  0.2542619E+00
         22   -1    0    0    0    0  0.00000000000E+00  0.00000000000E+00  0.21854319111E+01  0.21854319111E+01  0.00000000000E+00 0.  1.
         22   -1    0    0    0    0 -0.00000000000E+00 -0.00000000000E+00 -0.16847235844E+02  0.16847235844E+02  0.00000000000E+00 0. -1.
          4    1    1    2  501    0  0.23644862727E+01  0.11914794981E+01 -0.15658582318E+02  0.15931557329E+02  0.12700000000E+01 0. -1.
         -4    1    1    2    0  501 -0.23644862727E+01 -0.11914794981E+01  0.99677838460E+00  0.31011104263E+01  0.12700000000E+01 0.  1.
<mgrwt>
<rscale>  0 0.29365488E+01</rscale>
<asrwt>0</asrwt>
<pdfrwt beam="1">0</pdfrwt>
<pdfrwt beam="2">0</pdfrwt>
<totfact> 0.34100522E+11</totfact>
</mgrwt>
</event>
<event>
 4    1  0.3168498E+006  0.2066617E+01  0.7546771E-02  0.2937165E+00
         22   -1    0    0    0    0  0.00000000000E+00  0.00000000000E+00  0.18896124644E+00  0.18896124644E+00  0.00000000000E+00 0.  1.
         22   -1    0    0    0    0 -0.00000000000E+00 -0.00000000000E+00 -0.10997766301E+03  0.10997766301E+03  0.00000000000E+00 0. -1.
          4    1    1    2  501    0 -0.22080525455E+00 -0.16153176620E+01 -0.10399225937E+03  0.10401279207E+03  0.12700000000E+01 0. -1.
         -4    1    1    2    0  501  0.22080525455E+00  0.16153176620E+01 -0.57964423929E+01  0.61538321819E+01  0.12700000000E+01 0.  1.
<mgrwt>
<rscale>  0 0.20666171E+01</rscale>
<asrwt>0</asrwt>
<pdfrwt beam="1">0</pdfrwt>
<pdfrwt beam="2">0</pdfrwt>
<totfact> 0.46717573E+11</totfact>
</mgrwt>
</event>
<event>
 4    1  0.3168498E+006  0.3903849E+01  0.7546771E-02  0.2296060E+00
         22   -1    0    0    0    0  0.00000000000E+00  0.00000000000E+00  0.68378331920E+00  0.68378331920E+00  0.00000000000E+00 0.  1.
         22   -1    0    0    0    0 -0.00000000000E+00 -0.00000000000E+00 -0.84462321072E+02  0.84462321072E+02  0.00000000000E+00 0. -1.
          4    1    1    2  501    0 -0.20403340202E+01 -0.30763893982E+01 -0.78415886706E+02  0.78513000978E+02  0.12700000000E+01 0. -1.
         -4    1    1    2    0  501  0.20403340202E+01  0.30763893982E+01 -0.53626510467E+01  0.66331034133E+01  0.12700000000E+01 0.  1.
<mgrwt>
<rscale>  0 0.39038487E+01</rscale>
<asrwt>0</asrwt>
<pdfrwt beam="1">0</pdfrwt>
<pdfrwt beam="2">0</pdfrwt>
<totfact> 0.15935929E+11</totfact>
</mgrwt>
</event>
<event>
 4    1  0.3168498E+006  0.2222709E+01  0.7546771E-02  0.2845031E+00
         22   -1    0    0    0    0  0.00000000000E+00  0.00000000000E+00  0.32857814445E+00  0.32857814445E+00  0.00000000000E+00 0.  1.
         22   -1    0    0    0    0 -0.00000000000E+00 -0.00000000000E+00 -0.15041761157E+02  0.15041761157E+02  0.00000000000E+00 0. -1.
          4    1    1    2  501    0 -0.18208210769E+01 -0.11021751510E+00 -0.75095044296E+01  0.78315448076E+01  0.12700000000E+01 0. -1.
         -4    1    1    2    0  501  0.18208210769E+01  0.11021751510E+00 -0.72036785833E+01  0.75387944942E+01  0.12700000000E+01 0. -1.
<mgrwt>
<rscale>  0 0.22227094E+01</rscale>
<asrwt>0</asrwt>
<pdfrwt beam="1">0</pdfrwt>
<pdfrwt beam="2">0</pdfrwt>
<totfact> 0.33976114E+12</totfact>
</mgrwt>
</event>
<event>
 4    1  0.3168498E+006  0.3276544E+01  0.7546771E-02  0.2441408E+00
         22   -1    0    0    0    0  0.00000000000E+00  0.00000000000E+00  0.10555178920E+02  0.10555178920E+02  0.00000000000E+00 0. -1.
         22   -1    0    0    0    0 -0.00000000000E+00 -0.00000000000E+00 -0.25841763248E+01  0.25841763248E+01  0.00000000000E+00 0.  1.
          4    1    1    2  501    0 -0.10390840781E+01 -0.28360433172E+01 -0.11304595189E+01  0.34660750341E+01  0.12700000000E+01 0.  1.
         -4    1    1    2    0  501  0.10390840781E+01  0.28360433172E+01  0.91014621136E+01  0.96732802102E+01  0.12700000000E+01 0. -1.
<mgrwt>
<rscale>  0 0.32765435E+01</rscale>
<asrwt>0</asrwt>
<pdfrwt beam="1">0</pdfrwt>
<pdfrwt beam="2">0</pdfrwt>
<totfact> 0.49761610E+11</totfact>
</mgrwt>
</event>
<event>
 4    1  0.3168498E+006  0.2580472E+01  0.7546771E-02  0.2674081E+00
         22   -1    0    0    0    0  0.00000000000E+00  0.00000000000E+00  0.22289647680E+02  0.22289647680E+02  0.00000000000E+00 0. -1.
         22   -1    0    0    0    0 -0.00000000000E+00 -0.00000000000E+00 -0.58072995159E+00  0.58072995159E+00  0.00000000000E+00 0.  1.
          4    1    1    2  501    0 -0.17603987590E+01 -0.13953256910E+01  0.28860415863E+01  0.38714433500E+01  0.12700000000E+01 0.  1.
         -4    1    1    2    0  501  0.17603987590E+01  0.13953256910E+01  0.18822876142E+02  0.18998934282E+02  0.12700000000E+01 0. -1.
<mgrwt>
<rscale>  0 0.25804724E+01</rscale>
<asrwt>0</asrwt>
<pdfrwt beam="1">0</pdfrwt>
<pdfrwt beam="2">0</pdfrwt>
<totfact> 0.10972453E+12</totfact>
</mgrwt>
</event>
<event>
 4    1  0.3168498E+006  0.4273502E+01  0.7546771E-02  0.2227876E+00
         22   -1    0    0    0    0  0.00000000000E+00  0.00000000000E+00  0.45987147031E+02  0.45987147031E+02  0.00000000000E+00 0. -1.
         22   -1    0    0    0    0 -0.00000000000E+00 -0.00000000000E+00 -0.54242809227E+00  0.54242809227E+00  0.00000000000E+00 0.  1.
          4    1    1    2  501    0  0.25560571624E+00 -0.40724174895E+01  0.10681435344E+02  0.11504602536E+02  0.12700000000E+01 0.  1.
         -4    1    1    2    0  501 -0.25560571624E+00  0.40724174895E+01  0.34763283595E+02  0.35024972588E+02  0.12700000000E+01 0. -1.
<mgrwt>
<rscale>  0 0.42735019E+01</rscale>
<asrwt>0</asrwt>
<pdfrwt beam="1">0</pdfrwt>
<pdfrwt beam="2">0</pdfrwt>
<totfact> 0.46895667E+11</totfact>
</mgrwt>
</event>
<event>
 4    1  0.3168498E+006  0.4633926E+01  0.7546771E-02  0.2170352E+00
         22   -1    0    0    0    0  0.00000000000E+00  0.00000000000E+00  0.83883438483E+02  0.83883438483E+02  0.00000000000E+00 0. -1.
         22   -1    0    0    0    0 -0.00000000000E+00 -0.00000000000E+00 -0.48189748993E+00  0.48189748993E+00  0.00000000000E+00 0.  1.
          4    1    1    2  501    0  0.29198082992E+01  0.33667624334E+01  0.12819079359E+02  0.13630923131E+02  0.12700000000E+01 0.  1.
         -4    1    1    2    0  501 -0.29198082992E+01 -0.33667624334E+01  0.70582461635E+02  0.70734412843E+02  0.12700000000E+01 0. -1.
<mgrwt>
<rscale>  0 0.46339260E+01</rscale>
<asrwt>0</asrwt>
<pdfrwt beam="1">0</pdfrwt>
<pdfrwt beam="2">0</pdfrwt>
<totfact> 0.23903906E+11</totfact>
</mgrwt>
</event>
<event>
 4    1  0.3168498E+006  0.2561497E+01  0.7546771E-02  0.2682023E+00
         22   -1    0    0    0    0  0.00000000000E+00  0.00000000000E+00  0.17177378007E+01  0.17177378007E+01  0.00000000000E+00 0.  1.
         22   -1    0    0    0    0 -0.00000000000E+00 -0.00000000000E+00 -0.41823576922E+01  0.41823576922E+01  0.00000000000E+00 0. -1.
          4    1    1    2  501    0  0.92107152254E+00  0.20248446218E+01 -0.36363349893E+00  0.25871795094E+01  0.12700000000E+01 0. -1.
         -4    1    1    2    0  501 -0.92107152254E+00 -0.20248446218E+01 -0.21009863926E+01  0.33129159835E+01  0.12700000000E+01 0.  1.
<mgrwt>
<rscale>  0 0.25614973E+01</rscale>
<asrwt>0</asrwt>
<pdfrwt beam="1">0</pdfrwt>
<pdfrwt beam="2">0</pdfrwt>
<totfact> 0.24139757E+12</totfact>
</mgrwt>
</event>
<event>
 4    1  0.3168498E+006  0.2037825E+01  0.7546771E-02  0.2955651E+00
         22   -1    0    0    0    0  0.00000000000E+00  0.00000000000E+00  0.48269365785E+00  0.48269365785E+00  0.00000000000E+00 0. -1.
         22   -1    0    0    0    0 -0.00000000000E+00 -0.00000000000E+00 -0.12332255323E+02  0.12332255323E+02  0.00000000000E+00 0.  1.
          4    1    1    2  501    0 -0.15561341876E+01 -0.34391642285E+00 -0.94481843746E+01  0.96654498132E+01  0.12700000000E+01 0.  1.
         -4    1    1    2    0  501  0.15561341876E+01  0.34391642285E+00 -0.24013772908E+01  0.31494991679E+01  0.12700000000E+01 0. -1.
<mgrwt>
<rscale>  0 0.20378253E+01</rscale>
<asrwt>0</asrwt>
<pdfrwt beam="1">0</pdfrwt>
<pdfrwt beam="2">0</pdfrwt>
<totfact> 0.28110096E+12</totfact>
</mgrwt>
</event>
<event>
 4    1  0.3168498E+006  0.2123540E+01  0.7546771E-02  0.2902051E+00
         22   -1    0    0    0    0  0.00000000000E+00  0.00000000000E+00  0.70100149298E+02  0.70100149298E+02  0.00000000000E+00 0.  1.
         22   -1    0    0    0    0 -0.00000000000E+00 -0.00000000000E+00 -0.13265428135E+00  0.13265428135E+00  0.00000000000E+00 0. -1.
          4    1    1    2  501    0  0.46362964466E+00  0.16375496838E+01  0.97813182462E+01  0.10009176192E+02  0.12700000000E+01 0. -1.
         -4    1    1    2    0  501 -0.46362964466E+00 -0.16375496838E+01  0.60186176771E+02  0.60223627388E+02  0.12700000000E+01 0.  1.
<mgrwt>
<rscale>  0 0.21235398E+01</rscale>
<asrwt>0</asrwt>
<pdfrwt beam="1">0</pdfrwt>
<pdfrwt beam="2">0</pdfrwt>
<totfact> 0.12942773E+12</totfact>
</mgrwt>
</event>
<event>
 4    1  0.3168498E+006  0.2930727E+01  0.7546771E-02  0.2544535E+00
         22   -1    0    0    0    0  0.00000000000E+00  0.00000000000E+00  0.59254994293E+00  0.59254994293E+00  0.00000000000E+00 0. -1.
         22   -1    0    0    0    0 -0.00000000000E+00 -0.00000000000E+00 -0.22538727143E+02  0.22538727143E+02  0.00000000000E+00 0. -1.
          4    1    1    2  501    0  0.13602369157E+01  0.22640708027E+01 -0.17882272776E+02  0.18120839956E+02  0.12700000000E+01 0. -1.
         -4    1    1    2    0  501 -0.13602369157E+01 -0.22640708027E+01 -0.40639044236E+01  0.50104371297E+01  0.12700000000E+01 0. -1.
<mgrwt>
<rscale>  0 0.29307271E+01</rscale>
<asrwt>0</asrwt>
<pdfrwt beam="1">0</pdfrwt>
<pdfrwt beam="2">0</pdfrwt>
<totfact> 0.10576752E+12</totfact>
</mgrwt>
</event>
<event>
 4    1  0.3168498E+006  0.2406791E+01  0.7546771E-02  0.2751106E+00
         22   -1    0    0    0    0  0.00000000000E+00  0.00000000000E+00  0.16703815421E+02  0.16703815421E+02  0.00000000000E+00 0.  1.
         22   -1    0    0    0    0 -0.00000000000E+00 -0.00000000000E+00 -0.38623678400E+00  0.38623678400E+00  0.00000000000E+00 0.  1.
          4    1    1    2  501    0  0.13105685406E+01 -0.15691252267E+01  0.10889754702E+02  0.11152551338E+02  0.12700000000E+01 0.  1.
         -4    1    1    2    0  501 -0.13105685406E+01  0.15691252267E+01  0.54278239357E+01  0.59375008677E+01  0.12700000000E+01 0.  1.
<mgrwt>
<rscale>  0 0.24067912E+01</rscale>
<asrwt>0</asrwt>
<pdfrwt beam="1">0</pdfrwt>
<pdfrwt beam="2">0</pdfrwt>
<totfact> 0.24895865E+12</totfact>
</mgrwt>
</event>
<event>
 4    1  0.3168498E+006  0.2110578E+01  0.7546771E-02  0.2909885E+00
         22   -1    0    0    0    0  0.00000000000E+00  0.00000000000E+00  0.29100618033E+02  0.29100618033E+02  0.00000000000E+00 0.  1.
         22   -1    0    0    0    0 -0.00000000000E+00 -0.00000000000E+00 -0.15314616734E+00  0.15314616734E+00  0.00000000000E+00 0. -1.
          4    1    1    2  501    0 -0.40725348873E-01  0.16852248618E+01  0.14791754191E+02  0.14941570649E+02  0.12700000000E+01 0. -1.
         -4    1    1    2    0  501  0.40725348873E-01 -0.16852248618E+01  0.14155717674E+02  0.14312193551E+02  0.12700000000E+01 0.  1.
<mgrwt>
<rscale>  0 0.21105784E+01</rscale>
<asrwt>0</asrwt>
<pdfrwt beam="1">0</pdfrwt>
<pdfrwt beam="2">0</pdfrwt>
<totfact> 0.34929926E+12</totfact>
</mgrwt>
</event>
<event>
 4    1  0.3168498E+006  0.2508369E+01  0.7546771E-02  0.2704852E+00
         22   -1    0    0    0    0  0.00000000000E+00  0.00000000000E+00  0.68197565581E+00  0.68197565581E+00  0.00000000000E+00 0. -1.
         22   -1    0    0    0    0 -0.00000000000E+00 -0.00000000000E+00 -0.92328178250E+01  0.92328178250E+01  0.00000000000E+00 0.  1.
          4    1    1    2  501    0  0.96527546448E+00  0.19357836006E+01 -0.41408163587E+01  0.48413092224E+01  0.12700000000E+01 0.  1.
         -4    1    1    2    0  501 -0.96527546448E+00 -0.19357836006E+01 -0.44100258105E+01  0.50734842584E+01  0.12700000000E+01 0.  1.
<mgrwt>
<rscale>  0 0.25083690E+01</rscale>
<asrwt>0</asrwt>
<pdfrwt beam="1">0</pdfrwt>
<pdfrwt beam="2">0</pdfrwt>
<totfact> 0.27017548E+12</totfact>
</mgrwt>
</event>
<event>
 4    1  0.3168498E+006  0.2152088E+01  0.7546771E-02  0.2885118E+00
         22   -1    0    0    0    0  0.00000000000E+00  0.00000000000E+00  0.17541325726E+02  0.17541325726E+02  0.00000000000E+00 0. -1.
         22   -1    0    0    0    0 -0.00000000000E+00 -0.00000000000E+00 -0.32044757956E+00  0.32044757956E+00  0.00000000000E+00 0. -1.
          4    1    1    2  501    0  0.11494475848E+01 -0.13028248041E+01  0.48631843679E+01  0.53180865371E+01  0.12700000000E+01 0. -1.
         -4    1    1    2    0  501 -0.11494475848E+01  0.13028248041E+01  0.12357693778E+02  0.12543686768E+02  0.12700000000E+01 0. -1.
<mgrwt>
<rscale>  0 0.21520879E+01</rscale>
<asrwt>0</asrwt>
<pdfrwt beam="1">0</pdfrwt>
<pdfrwt beam="2">0</pdfrwt>
<totfact> 0.28902158E+12</totfact>
</mgrwt>
</event>
<event>
 4    1  0.3168498E+006  0.2186953E+01  0.7546771E-02  0.2865017E+00
         22   -1    0    0    0    0  0.00000000000E+00  0.00000000000E+00  0.21295185752E+01  0.21295185752E+01  0.00000000000E+00 0.  1.
         22   -1    0    0    0    0 -0.00000000000E+00 -0.00000000000E+00 -0.22746590890E+01  0.22746590890E+01  0.00000000000E+00 0. -1.
          4    1    1    2  501    0  0.17757127993E+01  0.12925893424E+00 -0.32002018040E+00  0.22102435914E+01  0.12700000000E+01 0. -1.
         -4    1    1    2    0  501 -0.17757127993E+01 -0.12925893424E+00  0.17487966661E+00  0.21939340727E+01  0.12700000000E+01 0. -1.
<mgrwt>
<rscale>  0 0.21869531E+01</rscale>
<asrwt>0</asrwt>
<pdfrwt beam="1">0</pdfrwt>
<pdfrwt beam="2">0</pdfrwt>
<totfact> 0.38373959E+12</totfact>
</mgrwt>
</event>
<event>
 4    1  0.3168498E+006  0.2989057E+01  0.7546771E-02  0.2525649E+00
         22   -1    0    0    0    0  0.00000000000E+00  0.00000000000E+00  0.74358215447E+00  0.74358215447E+00  0.00000000000E+00 0. -1.
         22   -1    0    0    0    0 -0.00000000000E+00 -0.00000000000E+00 -0.12657279036E+02  0.12657279036E+02  0.00000000000E+00 0.  1.
          4    1    1    2  501    0  0.24158533853E+01  0.12186944757E+01 -0.74657014903E+01  0.80418382566E+01  0.12700000000E+01 0.  1.
         -4    1    1    2    0  501 -0.24158533853E+01 -0.12186944757E+01 -0.44479953914E+01  0.53590229339E+01  0.12700000000E+01 0. -1.
<mgrwt>
<rscale>  0 0.29890573E+01</rscale>
<asrwt>0</asrwt>
<pdfrwt beam="1">0</pdfrwt>
<pdfrwt beam="2">0</pdfrwt>
<totfact> 0.16696058E+12</totfact>
</mgrwt>
</event>
<event>
 4    1  0.3168498E+006  0.4671998E+01  0.7546771E-02  0.2164712E+00
         22   -1    0    0    0    0  0.00000000000E+00  0.00000000000E+00  0.20361986585E+01  0.20361986585E+01  0.00000000000E+00 0. -1.
         22   -1    0    0    0    0 -0.00000000000E+00 -0.00000000000E+00 -0.15205346199E+02  0.15205346199E+02  0.00000000000E+00 0.  1.
          4    1    1    2  501    0 -0.25408795330E-01  0.44960006584E+01 -0.11266854742E+02  0.12197113728E+02  0.12700000000E+01 0.  1.
         -4    1    1    2    0  501  0.25408795330E-01 -0.44960006584E+01 -0.19022927990E+01  0.50444311295E+01  0.12700000000E+01 0. -1.
<mgrwt>
<rscale>  0 0.46719982E+01</rscale>
<asrwt>0</asrwt>
<pdfrwt beam="1">0</pdfrwt>
<pdfrwt beam="2">0</pdfrwt>
<totfact> 0.42006677E+11</totfact>
</mgrwt>
</event>
<event>
 4    1  0.3168498E+006  0.2208094E+01  0.7546771E-02  0.2853125E+00
         22   -1    0    0    0    0  0.00000000000E+00  0.00000000000E+00  0.40257965572E+01  0.40257965572E+01  0.00000000000E+00 0.  1.
         22   -1    0    0    0    0 -0.00000000000E+00 -0.00000000000E+00 -0.17568769316E+01  0.17568769316E+01  0.00000000000E+00 0. -1.
          4    1    1    2  501    0  0.84127593524E+00 -0.15984472937E+01 -0.47704631743E+00  0.22590378790E+01  0.12700000000E+01 0. -1.
         -4    1    1    2    0  501 -0.84127593524E+00  0.15984472937E+01  0.27459659430E+01  0.35236356097E+01  0.12700000000E+01 0.  1.
<mgrwt>
<rscale>  0 0.22080940E+01</rscale>
<asrwt>0</asrwt>
<pdfrwt beam="1">0</pdfrwt>
<pdfrwt beam="2">0</pdfrwt>
<totfact> 0.24599963E+12</totfact>
</mgrwt>
</event>
<event>
 4    1  0.3168498E+006  0.2408840E+01  0.7546771E-02  0.2750137E+00
         22   -1    0    0    0    0  0.00000000000E+00  0.00000000000E+00  0.10929390844E+01  0.10929390844E+01  0.00000000000E+00 0.  1.
         22   -1    0    0    0    0 -0.00000000000E+00 -0.00000000000E+00 -0.66588295131E+01  0.66588295131E+01  0.00000000000E+00 0.  1.
          4    1    1    2  501    0  0.14137298591E+01 -0.14801948308E+01 -0.45279527043E+01  0.51288268194E+01  0.12700000000E+01 0.  1.
         -4    1    1    2    0  501 -0.14137298591E+01  0.14801948308E+01 -0.10379377244E+01  0.26229417781E+01  0.12700000000E+01 0.  1.
<mgrwt>
<rscale>  0 0.24088397E+01</rscale>
<asrwt>0</asrwt>
<pdfrwt beam="1">0</pdfrwt>
<pdfrwt beam="2">0</pdfrwt>
<totfact> 0.23374493E+12</totfact>
</mgrwt>
</event>
<event>
 4    1  0.3168498E+006  0.2034371E+01  0.7546771E-02  0.2957904E+00
         22   -1    0    0    0    0  0.00000000000E+00  0.00000000000E+00  0.35720218211E+00  0.35720218211E+00  0.00000000000E+00 0. -1.
         22   -1    0    0    0    0 -0.00000000000E+00 -0.00000000000E+00 -0.11765200812E+02  0.11765200812E+02  0.00000000000E+00 0. -1.
          4    1    1    2  501    0  0.73425314739E+00  0.14094813941E+01 -0.49566594246E+01  0.53579042672E+01  0.12700000000E+01 0. -1.
         -4    1    1    2    0  501 -0.73425314739E+00 -0.14094813941E+01 -0.64513392056E+01  0.67644987272E+01  0.12700000000E+01 0. -1.
<mgrwt>
<rscale>  0 0.20343710E+01</rscale>
<asrwt>0</asrwt>
<pdfrwt beam="1">0</pdfrwt>
<pdfrwt beam="2">0</pdfrwt>
<totfact> 0.41788397E+12</totfact>
</mgrwt>
</event>
<event>
 4    1  0.3168498E+006  0.2220420E+01  0.7546771E-02  0.2846292E+00
         22   -1    0    0    0    0  0.00000000000E+00  0.00000000000E+00  0.91744992112E+00  0.91744992112E+00  0.00000000000E+00 0. -1.
         22   -1    0    0    0    0 -0.00000000000E+00 -0.00000000000E+00 -0.13370842996E+02  0.13370842996E+02  0.00000000000E+00 0.  1.
          4    1    1    2  501    0 -0.98966286521E-01  0.18186732592E+01 -0.11751711636E+02  0.11959640176E+02  0.12700000000E+01 0.  1.
         -4    1    1    2    0  501  0.98966286521E-01 -0.18186732592E+01 -0.70168143877E+00  0.23286527416E+01  0.12700000000E+01 0. -1.
<mgrwt>
<rscale>  0 0.22204204E+01</rscale>
<asrwt>0</asrwt>
<pdfrwt beam="1">0</pdfrwt>
<pdfrwt beam="2">0</pdfrwt>
<totfact> 0.12290937E+12</totfact>
</mgrwt>
</event>
<event>
 4    1  0.3168498E+006  0.2773957E+01  0.7546771E-02  0.2598829E+00
         22   -1    0    0    0    0  0.00000000000E+00  0.00000000000E+00  0.21803084997E+01  0.21803084997E+01  0.00000000000E+00 0. -1.
         22   -1    0    0    0    0 -0.00000000000E+00 -0.00000000000E+00 -0.36636971533E+01  0.36636971533E+01  0.00000000000E+00 0.  1.
          4    1    1    2  501    0 -0.10342604665E+01  0.22388042235E+01 -0.13014616589E+01  0.30640890185E+01  0.12700000000E+01 0.  1.
         -4    1    1    2    0  501  0.10342604665E+01 -0.22388042235E+01 -0.18192699465E+00  0.27799166345E+01  0.12700000000E+01 0. -1.
<mgrwt>
<rscale>  0 0.27739573E+01</rscale>
<asrwt>0</asrwt>
<pdfrwt beam="1">0</pdfrwt>
<pdfrwt beam="2">0</pdfrwt>
<totfact> 0.21408139E+12</totfact>
</mgrwt>
</event>
<event>
 4    1  0.3168498E+006  0.2250088E+01  0.7546771E-02  0.2830138E+00
         22   -1    0    0    0    0  0.00000000000E+00  0.00000000000E+00  0.28199766671E+00  0.28199766671E+00  0.00000000000E+00 0. -1.
         22   -1    0    0    0    0 -0.00000000000E+00 -0.00000000000E+00 -0.19802431902E+02  0.19802431902E+02  0.00000000000E+00 0. -1.
          4    1    1    2  501    0  0.17580484927E+01 -0.59938496729E+00 -0.12828597189E+02  0.13024430992E+02  0.12700000000E+01 0. -1.
         -4    1    1    2    0  501 -0.17580484927E+01  0.59938496729E+00 -0.66918370463E+01  0.70599985762E+01  0.12700000000E+01 0. -1.
<mgrwt>
<rscale>  0 0.22500882E+01</rscale>
<asrwt>0</asrwt>
<pdfrwt beam="1">0</pdfrwt>
<pdfrwt beam="2">0</pdfrwt>
<totfact> 0.28690822E+12</totfact>
</mgrwt>
</event>
<event>
 4    1  0.3168498E+006  0.2406925E+01  0.7546771E-02  0.2751043E+00
         22   -1    0    0    0    0  0.00000000000E+00  0.00000000000E+00  0.61077766605E+01  0.61077766605E+01  0.00000000000E+00 0. -1.
         22   -1    0    0    0    0 -0.00000000000E+00 -0.00000000000E+00 -0.11684655295E+01  0.11684655295E+01  0.00000000000E+00 0. -1.
          4    1    1    2  501    0 -0.29485595075E-01 -0.20443865743E+01  0.89118363879E+00  0.25666114127E+01  0.12700000000E+01 0. -1.
         -4    1    1    2    0  501  0.29485595075E-01  0.20443865743E+01  0.40481274922E+01  0.47096307773E+01  0.12700000000E+01 0. -1.
<mgrwt>
<rscale>  0 0.24069246E+01</rscale>
<asrwt>0</asrwt>
<pdfrwt beam="1">0</pdfrwt>
<pdfrwt beam="2">0</pdfrwt>
<totfact> 0.24003300E+12</totfact>
</mgrwt>
</event>
<event>
 4    1  0.3168498E+006  0.2858816E+01  0.7546771E-02  0.2568770E+00
         22   -1    0    0    0    0  0.00000000000E+00  0.00000000000E+00  0.47748532227E+01  0.47748532227E+01  0.00000000000E+00 0.  1.
         22   -1    0    0    0    0 -0.00000000000E+00 -0.00000000000E+00 -0.39298162253E+01  0.39298162253E+01  0.00000000000E+00 0. -1.
          4    1    1    2  501    0  0.20230046007E+01 -0.15707892351E+01 -0.28473799022E+01  0.40348976125E+01  0.12700000000E+01 0. -1.
         -4    1    1    2    0  501 -0.20230046007E+01  0.15707892351E+01  0.36924168996E+01  0.46697718355E+01  0.12700000000E+01 0.  1.
<mgrwt>
<rscale>  0 0.28588156E+01</rscale>
<asrwt>0</asrwt>
<pdfrwt beam="1">0</pdfrwt>
<pdfrwt beam="2">0</pdfrwt>
<totfact> 0.78758527E+11</totfact>
</mgrwt>
</event>
<event>
 4    1  0.3168498E+006  0.2908646E+01  0.7546771E-02  0.2551861E+00
         22   -1    0    0    0    0  0.00000000000E+00  0.00000000000E+00  0.72229382188E+00  0.72229382188E+00  0.00000000000E+00 0. -1.
         22   -1    0    0    0    0 -0.00000000000E+00 -0.00000000000E+00 -0.17303292822E+02  0.17303292822E+02  0.00000000000E+00 0.  1.
          4    1    1    2  501    0 -0.25002362916E+01  0.77210232099E+00 -0.13413359985E+02  0.13725102899E+02  0.12700000000E+01 0. -1.
         -4    1    1    2    0  501  0.25002362916E+01 -0.77210232099E+00 -0.31676390153E+01  0.43004837448E+01  0.12700000000E+01 0.  1.
<mgrwt>
<rscale>  0 0.29086463E+01</rscale>
<asrwt>0</asrwt>
<pdfrwt beam="1">0</pdfrwt>
<pdfrwt beam="2">0</pdfrwt>
<totfact> 0.11746938E+12</totfact>
</mgrwt>
</event>
<event>
 4    1  0.3168498E+006  0.2574729E+01  0.7546771E-02  0.2676474E+00
         22   -1    0    0    0    0  0.00000000000E+00  0.00000000000E+00  0.89789241334E+01  0.89789241334E+01  0.00000000000E+00 0.  1.
         22   -1    0    0    0    0 -0.00000000000E+00 -0.00000000000E+00 -0.76525210312E+00  0.76525210312E+00  0.00000000000E+00 0. -1.
          4    1    1    2  501    0 -0.12253989146E+01  0.18747605505E+01  0.50210092161E+01  0.56426734062E+01  0.12700000000E+01 0.  1.
         -4    1    1    2    0  501  0.12253989146E+01 -0.18747605505E+01  0.31926628142E+01  0.41015028303E+01  0.12700000000E+01 0. -1.
<mgrwt>
<rscale>  0 0.25747290E+01</rscale>
<asrwt>0</asrwt>
<pdfrwt beam="1">0</pdfrwt>
<pdfrwt beam="2">0</pdfrwt>
<totfact> 0.24515290E+12</totfact>
</mgrwt>
</event>
<event>
 4    1  0.3168498E+006  0.2014975E+01  0.7546771E-02  0.2970690E+00
         22   -1    0    0    0    0  0.00000000000E+00  0.00000000000E+00  0.11361460133E+01  0.11361460133E+01  0.00000000000E+00 0. -1.
         22   -1    0    0    0    0 -0.00000000000E+00 -0.00000000000E+00 -0.79735555778E+01  0.79735555778E+01  0.00000000000E+00 0. -1.
          4    1    1    2  501    0 -0.11026141200E+01 -0.11097150756E+01 -0.68022543773E+01  0.70944196422E+01  0.12700000000E+01 0. -1.
         -4    1    1    2    0  501  0.11026141200E+01  0.11097150756E+01 -0.35155187210E-01  0.20152819490E+01  0.12700000000E+01 0. -1.
<mgrwt>
<rscale>  0 0.20149753E+01</rscale>
<asrwt>0</asrwt>
<pdfrwt beam="1">0</pdfrwt>
<pdfrwt beam="2">0</pdfrwt>
<totfact> 0.18018237E+12</totfact>
</mgrwt>
</event>
<event>
 4    1  0.3168498E+006  0.2108287E+01  0.7546771E-02  0.2911279E+00
         22   -1    0    0    0    0  0.00000000000E+00  0.00000000000E+00  0.31537476302E+01  0.31537476302E+01  0.00000000000E+00 0. -1.
         22   -1    0    0    0    0 -0.00000000000E+00 -0.00000000000E+00 -0.42253064733E+01  0.42253064733E+01  0.00000000000E+00 0.  1.
          4    1    1    2  501    0 -0.14114637265E+01  0.91637653012E+00 -0.35477525888E+01  0.41269146136E+01  0.12700000000E+01 0.  1.
         -4    1    1    2    0  501  0.14114637265E+01 -0.91637653012E+00  0.24761937457E+01  0.32521394900E+01  0.12700000000E+01 0. -1.
<mgrwt>
<rscale>  0 0.21082874E+01</rscale>
<asrwt>0</asrwt>
<pdfrwt beam="1">0</pdfrwt>
<pdfrwt beam="2">0</pdfrwt>
<totfact> 0.11776266E+12</totfact>
</mgrwt>
</event>
<event>
 4    1  0.3168498E+006  0.4298461E+01  0.7546771E-02  0.2223632E+00
         22   -1    0    0    0    0  0.00000000000E+00  0.00000000000E+00  0.13010603855E+01  0.13010603855E+01  0.00000000000E+00 0. -1.
         22   -1    0    0    0    0 -0.00000000000E+00 -0.00000000000E+00 -0.16373326600E+02  0.16373326600E+02  0.00000000000E+00 0.  1.
          4    1    1    2  501    0  0.40983354015E+01  0.25983732362E+00 -0.10754806885E+02  0.11581996358E+02  0.12700000000E+01 0. -1.
         -4    1    1    2    0  501 -0.40983354015E+01 -0.25983732362E+00 -0.43174593293E+01  0.60923906275E+01  0.12700000000E+01 0.  1.
<mgrwt>
<rscale>  0 0.42984612E+01</rscale>
<asrwt>0</asrwt>
<pdfrwt beam="1">0</pdfrwt>
<pdfrwt beam="2">0</pdfrwt>
<totfact> 0.64250687E+11</totfact>
</mgrwt>
</event>
<event>
 4    1  0.3168498E+006  0.2141836E+01  0.7546771E-02  0.2891149E+00
         22   -1    0    0    0    0  0.00000000000E+00  0.00000000000E+00  0.23011898805E+02  0.23011898805E+02  0.00000000000E+00 0.  1.
         22   -1    0    0    0    0 -0.00000000000E+00 -0.00000000000E+00 -0.40615230137E+01  0.40615230137E+01  0.00000000000E+00 0. -1.
          4    1    1    2  501    0  0.17020205462E+01  0.27872819828E+00 -0.37251320158E+01  0.42969840450E+01  0.12700000000E+01 0. -1.
         -4    1    1    2    0  501 -0.17020205462E+01 -0.27872819828E+00  0.22675507807E+02  0.22776437774E+02  0.12700000000E+01 0.  1.
<mgrwt>
<rscale>  0 0.21418364E+01</rscale>
<asrwt>0</asrwt>
<pdfrwt beam="1">0</pdfrwt>
<pdfrwt beam="2">0</pdfrwt>
<totfact> 0.11208674E+11</totfact>
</mgrwt>
</event>
<event>
 4    1  0.3168498E+006  0.2523264E+01  0.7546771E-02  0.2698362E+00
         22   -1    0    0    0    0  0.00000000000E+00  0.00000000000E+00  0.54510594333E+01  0.54510594333E+01  0.00000000000E+00 0. -1.
         22   -1    0    0    0    0 -0.00000000000E+00 -0.00000000000E+00 -0.12166139087E+01  0.12166139087E+01  0.00000000000E+00 0.  1.
          4    1    1    2  501    0 -0.15606241894E+01 -0.15226338735E+01  0.14508331124E+01  0.29106319749E+01  0.12700000000E+01 0.  1.
         -4    1    1    2    0  501  0.15606241894E+01  0.15226338735E+01  0.27836124122E+01  0.37570413672E+01  0.12700000000E+01 0. -1.
<mgrwt>
<rscale>  0 0.25232641E+01</rscale>
<asrwt>0</asrwt>
<pdfrwt beam="1">0</pdfrwt>
<pdfrwt beam="2">0</pdfrwt>
<totfact> 0.26237595E+12</totfact>
</mgrwt>
</event>
<event>
 4    1  0.3168498E+006  0.3079209E+01  0.7546771E-02  0.2497727E+00
         22   -1    0    0    0    0  0.00000000000E+00  0.00000000000E+00  0.12466885682E+02  0.12466885682E+02  0.00000000000E+00 0.  1.
         22   -1    0    0    0    0 -0.00000000000E+00 -0.00000000000E+00 -0.80128891679E+00  0.80128891679E+00  0.00000000000E+00 0.  1.
          4    1    1    2  501    0  0.27151042499E+01 -0.70486490677E+00  0.43366950859E+01  0.53186887381E+01  0.12700000000E+01 0.  1.
         -4    1    1    2    0  501 -0.27151042499E+01  0.70486490677E+00  0.73289016794E+01  0.79494858608E+01  0.12700000000E+01 0.  1.
<mgrwt>
<rscale>  0 0.30792086E+01</rscale>
<asrwt>0</asrwt>
<pdfrwt beam="1">0</pdfrwt>
<pdfrwt beam="2">0</pdfrwt>
<totfact> 0.15622501E+12</totfact>
</mgrwt>
</event>
<event>
 4    1  0.3168498E+006  0.2102544E+01  0.7546771E-02  0.2914788E+00
         22   -1    0    0    0    0  0.00000000000E+00  0.00000000000E+00  0.17706906113E+00  0.17706906113E+00  0.00000000000E+00 0. -1.
         22   -1    0    0    0    0 -0.00000000000E+00 -0.00000000000E+00 -0.24979773521E+02  0.24979773521E+02  0.00000000000E+00 0. -1.
          4    1    1    2  501    0 -0.27347614995E+00 -0.16531798935E+01 -0.12697513211E+02  0.12870413152E+02  0.12700000000E+01 0. -1.
         -4    1    1    2    0  501  0.27347614995E+00  0.16531798935E+01 -0.12105191249E+02  0.12286429430E+02  0.12700000000E+01 0. -1.
<mgrwt>
<rscale>  0 0.21025444E+01</rscale>
<asrwt>0</asrwt>
<pdfrwt beam="1">0</pdfrwt>
<pdfrwt beam="2">0</pdfrwt>
<totfact> 0.36060548E+12</totfact>
</mgrwt>
</event>
<event>
 4    1  0.3168498E+006  0.4679478E+01  0.7546771E-02  0.2163613E+00
         22   -1    0    0    0    0  0.00000000000E+00  0.00000000000E+00  0.76734420659E+01  0.76734420659E+01  0.00000000000E+00 0.  1.
         22   -1    0    0    0    0 -0.00000000000E+00 -0.00000000000E+00 -0.31186147208E+01  0.31186147208E+01  0.00000000000E+00 0. -1.
          4    1    1    2  501    0 -0.44927606695E+01  0.31578044011E+00  0.38501874783E+01  0.60598233751E+01  0.12700000000E+01 0. -1.
         -4    1    1    2    0  501  0.44927606695E+01 -0.31578044011E+00  0.70463986681E+00  0.47322334116E+01  0.12700000000E+01 0.  1.
<mgrwt>
<rscale>  0 0.46794781E+01</rscale>
<asrwt>0</asrwt>
<pdfrwt beam="1">0</pdfrwt>
<pdfrwt beam="2">0</pdfrwt>
<totfact> 0.58709124E+11</totfact>
</mgrwt>
</event>
<event>
 4    1  0.3168498E+006  0.3137416E+01  0.7546771E-02  0.2480461E+00
         22   -1    0    0    0    0  0.00000000000E+00  0.00000000000E+00  0.14432286049E+01  0.14432286049E+01  0.00000000000E+00 0. -1.
         22   -1    0    0    0    0 -0.00000000000E+00 -0.00000000000E+00 -0.94190757776E+01  0.94190757776E+01  0.00000000000E+00 0.  1.
          4    1    1    2  501    0  0.13246622680E+01  0.25447491274E+01 -0.68406815489E+01  0.75258422984E+01  0.12700000000E+01 0.  1.
         -4    1    1    2    0  501 -0.13246622680E+01 -0.25447491274E+01 -0.11351656238E+01  0.33364620842E+01  0.12700000000E+01 0. -1.
<mgrwt>
<rscale>  0 0.31374159E+01</rscale>
<asrwt>0</asrwt>
<pdfrwt beam="1">0</pdfrwt>
<pdfrwt beam="2">0</pdfrwt>
<totfact> 0.11204815E+12</totfact>
</mgrwt>
</event>
<event>
 4    1  0.3168498E+006  0.3070597E+01  0.7546771E-02  0.2500331E+00
         22   -1    0    0    0    0  0.00000000000E+00  0.00000000000E+00  0.67604668785E+01  0.67604668785E+01  0.00000000000E+00 0.  1.
         22   -1    0    0    0    0 -0.00000000000E+00 -0.00000000000E+00 -0.14293553406E+01  0.14293553406E+01  0.00000000000E+00 0. -1.
          4    1    1    2  501    0  0.27189811371E+01  0.65023828623E+00  0.33035189094E+01  0.45101890689E+01  0.12700000000E+01 0.  1.
         -4    1    1    2    0  501 -0.27189811371E+01 -0.65023828623E+00  0.20275926285E+01  0.36796331502E+01  0.12700000000E+01 0. -1.
<mgrwt>
<rscale>  0 0.30705974E+01</rscale>
<asrwt>0</asrwt>
<pdfrwt beam="1">0</pdfrwt>
<pdfrwt beam="2">0</pdfrwt>
<totfact> 0.16875827E+12</totfact>
</mgrwt>
</event>
<event>
 4    1  0.3168498E+006  0.2734715E+01  0.7546771E-02  0.2613302E+00
         22   -1    0    0    0    0  0.00000000000E+00  0.00000000000E+00  0.67618988557E+00  0.67618988557E+00  0.00000000000E+00 0. -1.
         22   -1    0    0    0    0 -0.00000000000E+00 -0.00000000000E+00 -0.23128102008E+02  0.23128102008E+02  0.00000000000E+00 0.  1.
          4    1    1    2  501    0 -0.13487848589E+01  0.20116023551E+01 -0.19823504690E+02  0.20011246908E+02  0.12700000000E+01 0.  1.
         -4    1    1    2    0  501  0.13487848589E+01 -0.20116023551E+01 -0.26284074330E+01  0.37930449859E+01  0.12700000000E+01 0. -1.
<mgrwt>
<rscale>  0 0.27347147E+01</rscale>
<asrwt>0</asrwt>
<pdfrwt beam="1">0</pdfrwt>
<pdfrwt beam="2">0</pdfrwt>
<totfact> 0.88163419E+11</totfact>
</mgrwt>
</event>
<event>
 4    1  0.3168498E+006  0.2700876E+01  0.7546771E-02  0.2626090E+00
         22   -1    0    0    0    0  0.00000000000E+00  0.00000000000E+00  0.12721519577E+01  0.12721519577E+01  0.00000000000E+00 0. -1.
         22   -1    0    0    0    0 -0.00000000000E+00 -0.00000000000E+00 -0.57683213782E+01  0.57683213782E+01  0.00000000000E+00 0.  1.
          4    1    1    2  501    0 -0.96019306221E+00 -0.21817105154E+01 -0.19772079449E+01  0.33472500276E+01  0.12700000000E+01 0. -1.
         -4    1    1    2    0  501  0.96019306221E+00  0.21817105154E+01 -0.25189614756E+01  0.36932233083E+01  0.12700000000E+01 0.  1.
<mgrwt>
<rscale>  0 0.27008761E+01</rscale>
<asrwt>0</asrwt>
<pdfrwt beam="1">0</pdfrwt>
<pdfrwt beam="2">0</pdfrwt>
<totfact> 0.23308560E+12</totfact>
</mgrwt>
</event>
<event>
 4    1  0.3168498E+006  0.2994301E+01  0.7546771E-02  0.2523984E+00
         22   -1    0    0    0    0  0.00000000000E+00  0.00000000000E+00  0.92088524505E+00  0.92088524505E+00  0.00000000000E+00 0.  1.
         22   -1    0    0    0    0 -0.00000000000E+00 -0.00000000000E+00 -0.10338003259E+02  0.10338003259E+02  0.00000000000E+00 0. -1.
          4    1    1    2  501    0  0.25925685535E+01 -0.79468786478E+00 -0.60668935608E+01  0.67655774318E+01  0.12700000000E+01 0. -1.
         -4    1    1    2    0  501 -0.25925685535E+01  0.79468786478E+00 -0.33502244536E+01  0.44933110727E+01  0.12700000000E+01 0.  1.
<mgrwt>
<rscale>  0 0.29943013E+01</rscale>
<asrwt>0</asrwt>
<pdfrwt beam="1">0</pdfrwt>
<pdfrwt beam="2">0</pdfrwt>
<totfact> 0.16744925E+12</totfact>
</mgrwt>
</event>
<event>
 4    1  0.3168498E+006  0.2190052E+01  0.7546771E-02  0.2863260E+00
         22   -1    0    0    0    0  0.00000000000E+00  0.00000000000E+00  0.23060950129E+02  0.23060950129E+02  0.00000000000E+00 0.  1.
         22   -1    0    0    0    0 -0.00000000000E+00 -0.00000000000E+00 -0.23496668670E+00  0.23496668670E+00  0.00000000000E+00 0.  1.
          4    1    1    2  501    0 -0.42150502190E+00  0.17337132415E+01  0.74658522026E+01  0.77804419667E+01  0.12700000000E+01 0. -1.
         -4    1    1    2    0  501  0.42150502190E+00 -0.17337132415E+01  0.15360131240E+02  0.15515474849E+02  0.12700000000E+01 0. -1.
<mgrwt>
<rscale>  0 0.21900521E+01</rscale>
<asrwt>0</asrwt>
<pdfrwt beam="1">0</pdfrwt>
<pdfrwt beam="2">0</pdfrwt>
<totfact> 0.29082820E+12</totfact>
</mgrwt>
</event>
<event>
 4    1  0.3168498E+006  0.2198455E+01  0.7546771E-02  0.2858520E+00
         22   -1    0    0    0    0  0.00000000000E+00  0.00000000000E+00  0.93603935677E+01  0.93603935677E+01  0.00000000000E+00 0.  1.
         22   -1    0    0    0    0 -0.00000000000E+00 -0.00000000000E+00 -0.52427692070E+00  0.52427692070E+00  0.00000000000E+00 0.  1.
          4    1    1    2  501    0 -0.24649275411E+00 -0.17775107004E+01  0.38101891056E+01  0.43989480547E+01  0.12700000000E+01 0.  1.
         -4    1    1    2    0  501  0.24649275411E+00  0.17775107004E+01  0.50259275415E+01  0.54857224337E+01  0.12700000000E+01 0.  1.
<mgrwt>
<rscale>  0 0.21984547E+01</rscale>
<asrwt>0</asrwt>
<pdfrwt beam="1">0</pdfrwt>
<pdfrwt beam="2">0</pdfrwt>
<totfact> 0.35789042E+12</totfact>
</mgrwt>
</event>
<event>
 4    1  0.3168498E+006  0.2319643E+01  0.7546771E-02  0.2793811E+00
         22   -1    0    0    0    0  0.00000000000E+00  0.00000000000E+00  0.16275345473E+01  0.16275345473E+01  0.00000000000E+00 0.  1.
         22   -1    0    0    0    0 -0.00000000000E+00 -0.00000000000E+00 -0.55987967889E+01  0.55987967889E+01  0.00000000000E+00 0. -1.
          4    1    1    2  501    0 -0.18713921988E+01  0.51549433416E+00 -0.42977846781E+01  0.48838198482E+01  0.12700000000E+01 0.  1.
         -4    1    1    2    0  501  0.18713921988E+01 -0.51549433416E+00  0.32652243650E+00  0.23425114881E+01  0.12700000000E+01 0. -1.
<mgrwt>
<rscale>  0 0.23196429E+01</rscale>
<asrwt>0</asrwt>
<pdfrwt beam="1">0</pdfrwt>
<pdfrwt beam="2">0</pdfrwt>
<totfact> 0.18192363E+12</totfact>
</mgrwt>
</event>
<event>
 4    1  0.3168498E+006  0.9480758E+01  0.7546771E-02  0.1801085E+00
         22   -1    0    0    0    0  0.00000000000E+00  0.00000000000E+00  0.80181825980E+01  0.80181825980E+01  0.00000000000E+00 0. -1.
         22   -1    0    0    0    0 -0.00000000000E+00 -0.00000000000E+00 -0.11223462870E+02  0.11223462870E+02  0.00000000000E+00 0.  1.
          4    1    1    2  501    0 -0.23112525917E+01  0.91065898767E+01 -0.19343946193E+01  0.96760865162E+01  0.12700000000E+01 0. -1.
         -4    1    1    2    0  501  0.23112525917E+01 -0.91065898767E+01 -0.12708856530E+01  0.95655589522E+01  0.12700000000E+01 0.  1.
<mgrwt>
<rscale>  0 0.94807578E+01</rscale>
<asrwt>0</asrwt>
<pdfrwt beam="1">0</pdfrwt>
<pdfrwt beam="2">0</pdfrwt>
<totfact> 0.12119873E+11</totfact>
</mgrwt>
</event>
<event>
 4    1  0.3168498E+006  0.2053683E+01  0.7546771E-02  0.2945407E+00
         22   -1    0    0    0    0  0.00000000000E+00  0.00000000000E+00  0.39112576524E+00  0.39112576524E+00  0.00000000000E+00 0. -1.
         22   -1    0    0    0    0 -0.00000000000E+00 -0.00000000000E+00 -0.10996701407E+02  0.10996701407E+02  0.00000000000E+00 0. -1.
          4    1    1    2  501    0 -0.15841113102E+01  0.30871409118E+00 -0.60960435822E+01  0.64326790989E+01  0.12700000000E+01 0. -1.
         -4    1    1    2    0  501  0.15841113102E+01 -0.30871409118E+00 -0.45095320599E+01  0.49551480737E+01  0.12700000000E+01 0. -1.
<mgrwt>
<rscale>  0 0.20536828E+01</rscale>
<asrwt>0</asrwt>
<pdfrwt beam="1">0</pdfrwt>
<pdfrwt beam="2">0</pdfrwt>
<totfact> 0.40968066E+12</totfact>
</mgrwt>
</event>
<event>
 4    1  0.3168498E+006  0.3335651E+01  0.7546771E-02  0.2425690E+00
         22   -1    0    0    0    0  0.00000000000E+00  0.00000000000E+00  0.23880495134E+01  0.23880495134E+01  0.00000000000E+00 0. -1.
         22   -1    0    0    0    0 -0.00000000000E+00 -0.00000000000E+00 -0.80217254949E+01  0.80217254949E+01  0.00000000000E+00 0.  1.
          4    1    1    2  501    0 -0.20938590457E+01  0.22648221293E+01 -0.61866508911E+01  0.70285997346E+01  0.12700000000E+01 0.  1.
         -4    1    1    2    0  501  0.20938590457E+01 -0.22648221293E+01  0.55297490957E+00  0.33811752737E+01  0.12700000000E+01 0. -1.
<mgrwt>
<rscale>  0 0.33356506E+01</rscale>
<asrwt>0</asrwt>
<pdfrwt beam="1">0</pdfrwt>
<pdfrwt beam="2">0</pdfrwt>
<totfact> 0.75975022E+11</totfact>
</mgrwt>
</event>
<event>
 4    1  0.3168498E+006  0.2251277E+01  0.7546771E-02  0.2829499E+00
         22   -1    0    0    0    0  0.00000000000E+00  0.00000000000E+00  0.27483343890E+00  0.27483343890E+00  0.00000000000E+00 0.  1.
         22   -1    0    0    0    0 -0.00000000000E+00 -0.00000000000E+00 -0.20234347492E+02  0.20234347492E+02  0.00000000000E+00 0. -1.
          4    1    1    2  501    0 -0.16195773677E+01  0.91231466204E+00 -0.69270444180E+01  0.72836936551E+01  0.12700000000E+01 0. -1.
         -4    1    1    2    0  501  0.16195773677E+01 -0.91231466204E+00 -0.13032469635E+02  0.13225487275E+02  0.12700000000E+01 0.  1.
<mgrwt>
<rscale>  0 0.22512772E+01</rscale>
<asrwt>0</asrwt>
<pdfrwt beam="1">0</pdfrwt>
<pdfrwt beam="2">0</pdfrwt>
<totfact> 0.28745919E+12</totfact>
</mgrwt>
</event>
<event>
 4    1  0.3168498E+006  0.2807959E+01  0.7546771E-02  0.2586587E+00
         22   -1    0    0    0    0  0.00000000000E+00  0.00000000000E+00  0.11589304426E+03  0.11589304426E+03  0.00000000000E+00 0. -1.
         22   -1    0    0    0    0 -0.00000000000E+00 -0.00000000000E+00 -0.79498754076E-01  0.79498754076E-01  0.00000000000E+00 0. -1.
          4    1    1    2  501    0  0.99790716194E+00 -0.22969358822E+01  0.35885978048E+02  0.35995667151E+02  0.12700000000E+01 0. -1.
         -4    1    1    2    0  501 -0.99790716194E+00  0.22969358822E+01  0.79927567461E+02  0.79976875867E+02  0.12700000000E+01 0. -1.
<mgrwt>
<rscale>  0 0.28079589E+01</rscale>
<asrwt>0</asrwt>
<pdfrwt beam="1">0</pdfrwt>
<pdfrwt beam="2">0</pdfrwt>
<totfact> 0.11329608E+12</totfact>
</mgrwt>
</event>
<event>
 4    1  0.3168498E+006  0.3722607E+01  0.7546771E-02  0.2333677E+00
         22   -1    0    0    0    0  0.00000000000E+00  0.00000000000E+00  0.37096905466E+02  0.37096905466E+02  0.00000000000E+00 0.  1.
         22   -1    0    0    0    0 -0.00000000000E+00 -0.00000000000E+00 -0.37475096363E+00  0.37475096363E+00  0.00000000000E+00 0.  1.
          4    1    1    2  501    0  0.12579509858E+01 -0.32653424284E+01  0.17303454746E+02  0.17699360102E+02  0.12700000000E+01 0.  1.
         -4    1    1    2    0  501 -0.12579509858E+01  0.32653424284E+01  0.19418699757E+02  0.19772296328E+02  0.12700000000E+01 0.  1.
<mgrwt>
<rscale>  0 0.37226069E+01</rscale>
<asrwt>0</asrwt>
<pdfrwt beam="1">0</pdfrwt>
<pdfrwt beam="2">0</pdfrwt>
<totfact> 0.94097715E+11</totfact>
</mgrwt>
</event>
<event>
 4    1  0.3168498E+006  0.2517017E+01  0.7546771E-02  0.2701075E+00
         22   -1    0    0    0    0  0.00000000000E+00  0.00000000000E+00  0.44158346014E+01  0.44158346014E+01  0.00000000000E+00 0. -1.
         22   -1    0    0    0    0 -0.00000000000E+00 -0.00000000000E+00 -0.14507098681E+01  0.14507098681E+01  0.00000000000E+00 0.  1.
          4    1    1    2  501    0 -0.11795638774E+01 -0.18251309703E+01  0.11743646820E+01  0.27775000280E+01  0.12700000000E+01 0. -1.
         -4    1    1    2    0  501  0.11795638774E+01  0.18251309703E+01  0.17907600514E+01  0.30890444414E+01  0.12700000000E+01 0. -1.
<mgrwt>
<rscale>  0 0.25170169E+01</rscale>
<asrwt>0</asrwt>
<pdfrwt beam="1">0</pdfrwt>
<pdfrwt beam="2">0</pdfrwt>
<totfact> 0.27506282E+12</totfact>
</mgrwt>
</event>
<event>
 4    1  0.3168498E+006  0.2081699E+01  0.7546771E-02  0.2927679E+00
         22   -1    0    0    0    0  0.00000000000E+00  0.00000000000E+00  0.63474686122E+00  0.63474686122E+00  0.00000000000E+00 0. -1.
         22   -1    0    0    0    0 -0.00000000000E+00 -0.00000000000E+00 -0.18647975970E+02  0.18647975970E+02  0.00000000000E+00 0.  1.
          4    1    1    2  501    0 -0.16474246295E+01 -0.81023898359E-01 -0.16682837158E+02  0.16812213668E+02  0.12700000000E+01 0.  1.
         -4    1    1    2    0  501  0.16474246295E+01  0.81023898359E-01 -0.13303919507E+01  0.24705091630E+01  0.12700000000E+01 0. -1.
<mgrwt>
<rscale>  0 0.20816995E+01</rscale>
<asrwt>0</asrwt>
<pdfrwt beam="1">0</pdfrwt>
<pdfrwt beam="2">0</pdfrwt>
<totfact> 0.12394246E+12</totfact>
</mgrwt>
</event>
<event>
 4    1  0.3168498E+006  0.3410428E+01  0.7546771E-02  0.2406493E+00
         22   -1    0    0    0    0  0.00000000000E+00  0.00000000000E+00  0.48029911872E+00  0.48029911872E+00  0.00000000000E+00 0.  1.
         22   -1    0    0    0    0 -0.00000000000E+00 -0.00000000000E+00 -0.26574913275E+02  0.26574913275E+02  0.00000000000E+00 0. -1.
          4    1    1    2  501    0  0.22668579106E+01  0.22089527564E+01 -0.17077474329E+02  0.17414681924E+02  0.12700000000E+01 0. -1.
         -4    1    1    2    0  501 -0.22668579106E+01 -0.22089527564E+01 -0.90171398271E+01  0.96405304693E+01  0.12700000000E+01 0.  1.
<mgrwt>
<rscale>  0 0.34104277E+01</rscale>
<asrwt>0</asrwt>
<pdfrwt beam="1">0</pdfrwt>
<pdfrwt beam="2">0</pdfrwt>
<totfact> 0.10897252E+12</totfact>
</mgrwt>
</event>
<event>
 4    1  0.3168498E+006  0.2345164E+01  0.7546771E-02  0.2780995E+00
         22   -1    0    0    0    0  0.00000000000E+00  0.00000000000E+00  0.58924984401E+00  0.58924984401E+00  0.00000000000E+00 0. -1.
         22   -1    0    0    0    0 -0.00000000000E+00 -0.00000000000E+00 -0.13354324696E+02  0.13354324696E+02  0.00000000000E+00 0.  1.
          4    1    1    2  501    0  0.17426417576E+01  0.92200527145E+00 -0.10208034960E+02  0.10473956834E+02  0.12700000000E+01 0.  1.
         -4    1    1    2    0  501 -0.17426417576E+01 -0.92200527145E+00 -0.25570398915E+01  0.34696177056E+01  0.12700000000E+01 0. -1.
<mgrwt>
<rscale>  0 0.23451640E+01</rscale>
<asrwt>0</asrwt>
<pdfrwt beam="1">0</pdfrwt>
<pdfrwt beam="2">0</pdfrwt>
<totfact> 0.20356213E+12</totfact>
</mgrwt>
</event>
<event>
 4    1  0.3168498E+006  0.3647647E+01  0.7546771E-02  0.2350172E+00
         22   -1    0    0    0    0  0.00000000000E+00  0.00000000000E+00  0.11841476328E+02  0.11841476328E+02  0.00000000000E+00 0. -1.
         22   -1    0    0    0    0 -0.00000000000E+00 -0.00000000000E+00 -0.11238204458E+01  0.11238204458E+01  0.00000000000E+00 0.  1.
          4    1    1    2  501    0  0.20511513455E+00 -0.34132621740E+01  0.52724564614E+01  0.64112501140E+01  0.12700000000E+01 0.  1.
         -4    1    1    2    0  501 -0.20511513455E+00  0.34132621740E+01  0.54451994209E+01  0.65540466599E+01  0.12700000000E+01 0. -1.
<mgrwt>
<rscale>  0 0.36476473E+01</rscale>
<asrwt>0</asrwt>
<pdfrwt beam="1">0</pdfrwt>
<pdfrwt beam="2">0</pdfrwt>
<totfact> 0.11308588E+12</totfact>
</mgrwt>
</event>
<event>
 4    1  0.3168498E+006  0.2183159E+01  0.7546771E-02  0.2867174E+00
         22   -1    0    0    0    0  0.00000000000E+00  0.00000000000E+00  0.92925604061E+01  0.92925604061E+01  0.00000000000E+00 0.  1.
         22   -1    0    0    0    0 -0.00000000000E+00 -0.00000000000E+00 -0.60579532211E+00  0.60579532211E+00  0.00000000000E+00 0. -1.
          4    1    1    2  501    0 -0.92174989761E+00 -0.15177815611E+01  0.24053565223E+01  0.32483724756E+01  0.12700000000E+01 0. -1.
         -4    1    1    2    0  501  0.92174989761E+00  0.15177815611E+01  0.62814085617E+01  0.66499832526E+01  0.12700000000E+01 0.  1.
<mgrwt>
<rscale>  0 0.21831591E+01</rscale>
<asrwt>0</asrwt>
<pdfrwt beam="1">0</pdfrwt>
<pdfrwt beam="2">0</pdfrwt>
<totfact> 0.30659077E+12</totfact>
</mgrwt>
</event>
<event>
 4    1  0.3168498E+006  0.2074628E+01  0.7546771E-02  0.2932110E+00
         22   -1    0    0    0    0  0.00000000000E+00  0.00000000000E+00  0.26797079787E+02  0.26797079787E+02  0.00000000000E+00 0. -1.
         22   -1    0    0    0    0 -0.00000000000E+00 -0.00000000000E+00 -0.17327353206E+00  0.17327353206E+00  0.00000000000E+00 0. -1.
          4    1    1    2  501    0  0.90432182548E+00  0.13687160437E+01  0.96674004076E+01  0.98875028300E+01  0.12700000000E+01 0. -1.
         -4    1    1    2    0  501 -0.90432182548E+00 -0.13687160437E+01  0.16956405847E+02  0.17082850489E+02  0.12700000000E+01 0. -1.
<mgrwt>
<rscale>  0 0.20746281E+01</rscale>
<asrwt>0</asrwt>
<pdfrwt beam="1">0</pdfrwt>
<pdfrwt beam="2">0</pdfrwt>
<totfact> 0.33803930E+12</totfact>
</mgrwt>
</event>
<event>
 4    1  0.3168498E+006  0.2167634E+01  0.7546771E-02  0.2876079E+00
         22   -1    0    0    0    0  0.00000000000E+00  0.00000000000E+00  0.32127195384E+01  0.32127195384E+01  0.00000000000E+00 0. -1.
         22   -1    0    0    0    0 -0.00000000000E+00 -0.00000000000E+00 -0.15900531328E+01  0.15900531328E+01  0.00000000000E+00 0. -1.
          4    1    1    2  501    0  0.14021680237E+01  0.10581405022E+01  0.13121612929E+00  0.21716017502E+01  0.12700000000E+01 0. -1.
         -4    1    1    2    0  501 -0.14021680237E+01 -0.10581405022E+01  0.14914502762E+01  0.26311709210E+01  0.12700000000E+01 0. -1.
<mgrwt>
<rscale>  0 0.21676338E+01</rscale>
<asrwt>0</asrwt>
<pdfrwt beam="1">0</pdfrwt>
<pdfrwt beam="2">0</pdfrwt>
<totfact> 0.35964564E+12</totfact>
</mgrwt>
</event>
<event>
 4    1  0.3168498E+006  0.3506337E+01  0.7546771E-02  0.2382924E+00
         22   -1    0    0    0    0  0.00000000000E+00  0.00000000000E+00  0.25984085605E+01  0.25984085605E+01  0.00000000000E+00 0. -1.
         22   -1    0    0    0    0 -0.00000000000E+00 -0.00000000000E+00 -0.61392147571E+01  0.61392147571E+01  0.00000000000E+00 0.  1.
          4    1    1    2  501    0 -0.19083808340E+00  0.32626798633E+01 -0.38624071534E+01  0.52165686120E+01  0.12700000000E+01 0.  1.
         -4    1    1    2    0  501  0.19083808340E+00 -0.32626798633E+01  0.32160095684E+00  0.35210547056E+01  0.12700000000E+01 0. -1.
<mgrwt>
<rscale>  0 0.35063370E+01</rscale>
<asrwt>0</asrwt>
<pdfrwt beam="1">0</pdfrwt>
<pdfrwt beam="2">0</pdfrwt>
<totfact> 0.94837916E+11</totfact>
</mgrwt>
</event>
<event>
 4    1  0.3168498E+006  0.2360403E+01  0.7546771E-02  0.2773467E+00
         22   -1    0    0    0    0  0.00000000000E+00  0.00000000000E+00  0.71202302416E+00  0.71202302416E+00  0.00000000000E+00 0.  1.
         22   -1    0    0    0    0 -0.00000000000E+00 -0.00000000000E+00 -0.93659326922E+01  0.93659326922E+01  0.00000000000E+00 0. -1.
          4    1    1    2  501    0  0.17983669756E+01  0.85116362574E+00 -0.63709223102E+01  0.67941264618E+01  0.12700000000E+01 0.  1.
         -4    1    1    2    0  501 -0.17983669756E+01 -0.85116362574E+00 -0.22829873579E+01  0.32838292546E+01  0.12700000000E+01 0.  1.
<mgrwt>
<rscale>  0 0.23604032E+01</rscale>
<asrwt>0</asrwt>
<pdfrwt beam="1">0</pdfrwt>
<pdfrwt beam="2">0</pdfrwt>
<totfact> 0.25285861E+12</totfact>
</mgrwt>
</event>
<event>
 4    1  0.3168498E+006  0.2769731E+01  0.7546771E-02  0.2600370E+00
         22   -1    0    0    0    0  0.00000000000E+00  0.00000000000E+00  0.92108314488E+01  0.92108314488E+01  0.00000000000E+00 0.  1.
         22   -1    0    0    0    0 -0.00000000000E+00 -0.00000000000E+00 -0.84539775505E+00  0.84539775505E+00  0.00000000000E+00 0. -1.
          4    1    1    2  501    0  0.61960798314E+00 -0.23821407763E+01  0.35705888859E+01  0.45189062530E+01  0.12700000000E+01 0. -1.
         -4    1    1    2    0  501 -0.61960798314E+00  0.23821407763E+01  0.47948448078E+01  0.55373229508E+01  0.12700000000E+01 0.  1.
<mgrwt>
<rscale>  0 0.27697308E+01</rscale>
<asrwt>0</asrwt>
<pdfrwt beam="1">0</pdfrwt>
<pdfrwt beam="2">0</pdfrwt>
<totfact> 0.21225785E+12</totfact>
</mgrwt>
</event>
<event>
 4    1  0.3168498E+006  0.2199317E+01  0.7546771E-02  0.2858035E+00
         22   -1    0    0    0    0  0.00000000000E+00  0.00000000000E+00  0.45748442437E+00  0.45748442437E+00  0.00000000000E+00 0.  1.
         22   -1    0    0    0    0 -0.00000000000E+00 -0.00000000000E+00 -0.29689564095E+02  0.29689564095E+02  0.00000000000E+00 0. -1.
          4    1    1    2  501    0 -0.16910039181E+01 -0.60382311911E+00 -0.26711362817E+02  0.26801751811E+02  0.12700000000E+01 0. -1.
         -4    1    1    2    0  501  0.16910039181E+01  0.60382311911E+00 -0.25207168542E+01  0.33452967087E+01  0.12700000000E+01 0.  1.
<mgrwt>
<rscale>  0 0.21993173E+01</rscale>
<asrwt>0</asrwt>
<pdfrwt beam="1">0</pdfrwt>
<pdfrwt beam="2">0</pdfrwt>
<totfact> 0.10000483E+12</totfact>
</mgrwt>
</event>
<event>
 4    1  0.3168498E+006  0.2390177E+01  0.7546771E-02  0.2759021E+00
         22   -1    0    0    0    0  0.00000000000E+00  0.00000000000E+00  0.44967647176E+00  0.44967647176E+00  0.00000000000E+00 0.  1.
         22   -1    0    0    0    0 -0.00000000000E+00 -0.00000000000E+00 -0.13452496830E+02  0.13452496830E+02  0.00000000000E+00 0. -1.
          4    1    1    2  501    0 -0.13094123767E+01  0.15445021518E+01 -0.81404136351E+01  0.84840604559E+01  0.12700000000E+01 0.  1.
         -4    1    1    2    0  501  0.13094123767E+01 -0.15445021518E+01 -0.48624067234E+01  0.54181128460E+01  0.12700000000E+01 0.  1.
<mgrwt>
<rscale>  0 0.23901773E+01</rscale>
<asrwt>0</asrwt>
<pdfrwt beam="1">0</pdfrwt>
<pdfrwt beam="2">0</pdfrwt>
<totfact> 0.27380062E+12</totfact>
</mgrwt>
</event>
<event>
 4    1  0.3168498E+006  0.2890459E+01  0.7546771E-02  0.2557972E+00
         22   -1    0    0    0    0  0.00000000000E+00  0.00000000000E+00  0.27803931037E+02  0.27803931037E+02  0.00000000000E+00 0.  1.
         22   -1    0    0    0    0 -0.00000000000E+00 -0.00000000000E+00 -0.30907423738E+00  0.30907423738E+00  0.00000000000E+00 0. -1.
          4    1    1    2  501    0  0.21676957873E+01 -0.14293165929E+01  0.11404579385E+02  0.11765168163E+02  0.12700000000E+01 0.  1.
         -4    1    1    2    0  501 -0.21676957873E+01  0.14293165929E+01  0.16090277415E+02  0.16347837112E+02  0.12700000000E+01 0. -1.
<mgrwt>
<rscale>  0 0.28904586E+01</rscale>
<asrwt>0</asrwt>
<pdfrwt beam="1">0</pdfrwt>
<pdfrwt beam="2">0</pdfrwt>
<totfact> 0.16897583E+12</totfact>
</mgrwt>
</event>
<event>
 4    1  0.3168498E+006  0.2179050E+01  0.7546771E-02  0.2869519E+00
         22   -1    0    0    0    0  0.00000000000E+00  0.00000000000E+00  0.25114244587E+00  0.25114244587E+00  0.00000000000E+00 0. -1.
         22   -1    0    0    0    0 -0.00000000000E+00 -0.00000000000E+00 -0.27814286100E+02  0.27814286100E+02  0.00000000000E+00 0. -1.
          4    1    1    2  501    0  0.30734024598E+00 -0.17438180051E+01 -0.21722828883E+02  0.21831847241E+02  0.12700000000E+01 0. -1.
         -4    1    1    2    0  501 -0.30734024598E+00  0.17438180051E+01 -0.58403147706E+01  0.62335813046E+01  0.12700000000E+01 0. -1.
<mgrwt>
<rscale>  0 0.21790501E+01</rscale>
<asrwt>0</asrwt>
<pdfrwt beam="1">0</pdfrwt>
<pdfrwt beam="2">0</pdfrwt>
<totfact> 0.21308990E+12</totfact>
</mgrwt>
</event>
<event>
 4    1  0.3168498E+006  0.3438275E+01  0.7546771E-02  0.2399531E+00
         22   -1    0    0    0    0  0.00000000000E+00  0.00000000000E+00  0.34284271049E+00  0.34284271049E+00  0.00000000000E+00 0.  1.
         22   -1    0    0    0    0 -0.00000000000E+00 -0.00000000000E+00 -0.57173488199E+02  0.57173488199E+02  0.00000000000E+00 0. -1.
          4    1    1    2  501    0 -0.31863972031E+01  0.23602218752E+00 -0.46532896279E+02  0.46659748925E+02  0.12700000000E+01 0. -1.
         -4    1    1    2    0  501  0.31863972031E+01 -0.23602218752E+00 -0.10297749209E+02  0.10856581985E+02  0.12700000000E+01 0.  1.
<mgrwt>
<rscale>  0 0.34382748E+01</rscale>
<asrwt>0</asrwt>
<pdfrwt beam="1">0</pdfrwt>
<pdfrwt beam="2">0</pdfrwt>
<totfact> 0.58977474E+11</totfact>
</mgrwt>
</event>
<event>
 4    1  0.3168498E+006  0.2189651E+01  0.7546771E-02  0.2863487E+00
         22   -1    0    0    0    0  0.00000000000E+00  0.00000000000E+00  0.18453725182E+00  0.18453725182E+00  0.00000000000E+00 0. -1.
         22   -1    0    0    0    0 -0.00000000000E+00 -0.00000000000E+00 -0.26021690578E+02  0.26021690578E+02  0.00000000000E+00 0.  1.
          4    1    1    2  501    0 -0.57217027693E+00  0.16894651630E+01 -0.13432949213E+02  0.13610242317E+02  0.12700000000E+01 0.  1.
         -4    1    1    2    0  501  0.57217027693E+00 -0.16894651630E+01 -0.12404204113E+02  0.12595985513E+02  0.12700000000E+01 0. -1.
<mgrwt>
<rscale>  0 0.21896510E+01</rscale>
<asrwt>0</asrwt>
<pdfrwt beam="1">0</pdfrwt>
<pdfrwt beam="2">0</pdfrwt>
<totfact> 0.32707135E+12</totfact>
</mgrwt>
</event>
<event>
 4    1  0.3168498E+006  0.2017064E+01  0.7546771E-02  0.2969302E+00
         22   -1    0    0    0    0  0.00000000000E+00  0.00000000000E+00  0.27760698020E+02  0.27760698020E+02  0.00000000000E+00 0.  1.
         22   -1    0    0    0    0 -0.00000000000E+00 -0.00000000000E+00 -0.23407976931E+00  0.23407976931E+00  0.00000000000E+00 0.  1.
          4    1    1    2  501    0  0.12577660435E+01 -0.93470410832E+00  0.52042978851E+01  0.55815108768E+01  0.12700000000E+01 0.  1.
         -4    1    1    2    0  501 -0.12577660435E+01  0.93470410832E+00  0.22322320365E+02  0.22413266912E+02  0.12700000000E+01 0.  1.
<mgrwt>
<rscale>  0 0.20170640E+01</rscale>
<asrwt>0</asrwt>
<pdfrwt beam="1">0</pdfrwt>
<pdfrwt beam="2">0</pdfrwt>
<totfact> 0.23108395E+12</totfact>
</mgrwt>
</event>
<event>
 4    1  0.3168498E+006  0.2047734E+01  0.7546771E-02  0.2949232E+00
         22   -1    0    0    0    0  0.00000000000E+00  0.00000000000E+00  0.16230491303E+01  0.16230491303E+01  0.00000000000E+00 0. -1.
         22   -1    0    0    0    0 -0.00000000000E+00 -0.00000000000E+00 -0.31025969993E+01  0.31025969993E+01  0.00000000000E+00 0.  1.
          4    1    1    2  501    0  0.13829866015E+01 -0.81710559559E+00  0.22666796096E+00  0.20602407283E+01  0.12700000000E+01 0. -1.
         -4    1    1    2    0  501 -0.13829866015E+01  0.81710559559E+00 -0.17062158300E+01  0.26654054012E+01  0.12700000000E+01 0.  1.
<mgrwt>
<rscale>  0 0.20477337E+01</rscale>
<asrwt>0</asrwt>
<pdfrwt beam="1">0</pdfrwt>
<pdfrwt beam="2">0</pdfrwt>
<totfact> 0.36584774E+12</totfact>
</mgrwt>
</event>
<event>
 4    1  0.3168498E+006  0.3203095E+01  0.7546771E-02  0.2461651E+00
         22   -1    0    0    0    0  0.00000000000E+00  0.00000000000E+00  0.61401626632E+00  0.61401626632E+00  0.00000000000E+00 0.  1.
         22   -1    0    0    0    0 -0.00000000000E+00 -0.00000000000E+00 -0.21553756531E+02  0.21553756531E+02  0.00000000000E+00 0.  1.
          4    1    1    2  501    0  0.16251041192E+01 -0.24507042551E+01 -0.15724603942E+02  0.16047522671E+02  0.12700000000E+01 0.  1.
         -4    1    1    2    0  501 -0.16251041192E+01  0.24507042551E+01 -0.52151363225E+01  0.61202501262E+01  0.12700000000E+01 0.  1.
<mgrwt>
<rscale>  0 0.32030946E+01</rscale>
<asrwt>0</asrwt>
<pdfrwt beam="1">0</pdfrwt>
<pdfrwt beam="2">0</pdfrwt>
<totfact> 0.10744091E+12</totfact>
</mgrwt>
</event>
<event>
 4    1  0.3168498E+006  0.2595056E+01  0.7546771E-02  0.2668050E+00
         22   -1    0    0    0    0  0.00000000000E+00  0.00000000000E+00  0.50639043357E+00  0.50639043357E+00  0.00000000000E+00 0.  1.
         22   -1    0    0    0    0 -0.00000000000E+00 -0.00000000000E+00 -0.24432808982E+02  0.24432808982E+02  0.00000000000E+00 0. -1.
          4    1    1    2  501    0 -0.87765806468E+00 -0.20859367672E+01 -0.20380925135E+02  0.20545472135E+02  0.12700000000E+01 0. -1.
         -4    1    1    2    0  501  0.87765806468E+00  0.20859367672E+01 -0.35454934137E+01  0.43937272812E+01  0.12700000000E+01 0.  1.
<mgrwt>
<rscale>  0 0.25950560E+01</rscale>
<asrwt>0</asrwt>
<pdfrwt beam="1">0</pdfrwt>
<pdfrwt beam="2">0</pdfrwt>
<totfact> 0.11414465E+12</totfact>
</mgrwt>
</event>
<event>
 4    1  0.3168498E+006  0.2354879E+01  0.7546771E-02  0.2776186E+00
         22   -1    0    0    0    0  0.00000000000E+00  0.00000000000E+00  0.50321623931E+01  0.50321623931E+01  0.00000000000E+00 0. -1.
         22   -1    0    0    0    0 -0.00000000000E+00 -0.00000000000E+00 -0.12380786778E+01  0.12380786778E+01  0.00000000000E+00 0.  1.
          4    1    1    2  501    0 -0.36531733030E+00  0.19491278298E+01  0.85766986618E+00  0.25062030341E+01  0.12700000000E+01 0.  1.
         -4    1    1    2    0  501  0.36531733030E+00 -0.19491278298E+01  0.29364138491E+01  0.37640380367E+01  0.12700000000E+01 0. -1.
<mgrwt>
<rscale>  0 0.23548792E+01</rscale>
<asrwt>0</asrwt>
<pdfrwt beam="1">0</pdfrwt>
<pdfrwt beam="2">0</pdfrwt>
<totfact> 0.28273670E+12</totfact>
</mgrwt>
</event>
<event>
 4    1  0.3168498E+006  0.2299454E+01  0.7546771E-02  0.2804141E+00
         22   -1    0    0    0    0  0.00000000000E+00  0.00000000000E+00  0.61163510198E+01  0.61163510198E+01  0.00000000000E+00 0.  1.
         22   -1    0    0    0    0 -0.00000000000E+00 -0.00000000000E+00 -0.27120865108E+01  0.27120865108E+01  0.00000000000E+00 0.  1.
          4    1    1    2  501    0 -0.18890521823E+01  0.32568388823E+00 -0.19412634729E+01  0.30093175329E+01  0.12700000000E+01 0.  1.
         -4    1    1    2    0  501  0.18890521823E+01 -0.32568388823E+00  0.53455279819E+01  0.58191199977E+01  0.12700000000E+01 0.  1.
<mgrwt>
<rscale>  0 0.22994539E+01</rscale>
<asrwt>0</asrwt>
<pdfrwt beam="1">0</pdfrwt>
<pdfrwt beam="2">0</pdfrwt>
<totfact> 0.90621101E+11</totfact>
</mgrwt>
</event>
<event>
 4    1  0.3168498E+006  0.2590068E+01  0.7546771E-02  0.2670106E+00
         22   -1    0    0    0    0  0.00000000000E+00  0.00000000000E+00  0.15591782510E+02  0.15591782510E+02  0.00000000000E+00 0. -1.
         22   -1    0    0    0    0 -0.00000000000E+00 -0.00000000000E+00 -0.52487446075E+00  0.52487446075E+00  0.00000000000E+00 0.  1.
          4    1    1    2  501    0 -0.20108281960E+01  0.10257310685E+01  0.41120392024E+01  0.48597654944E+01  0.12700000000E+01 0.  1.
         -4    1    1    2    0  501  0.20108281960E+01 -0.10257310685E+01  0.10954868847E+02  0.11256891476E+02  0.12700000000E+01 0. -1.
<mgrwt>
<rscale>  0 0.25900684E+01</rscale>
<asrwt>0</asrwt>
<pdfrwt beam="1">0</pdfrwt>
<pdfrwt beam="2">0</pdfrwt>
<totfact> 0.19181531E+12</totfact>
</mgrwt>
</event>
<event>
 4    1  0.3168498E+006  0.3408603E+01  0.7546771E-02  0.2406953E+00
         22   -1    0    0    0    0  0.00000000000E+00  0.00000000000E+00  0.56396765932E+01  0.56396765932E+01  0.00000000000E+00 0. -1.
         22   -1    0    0    0    0 -0.00000000000E+00 -0.00000000000E+00 -0.22801320346E+01  0.22801320346E+01  0.00000000000E+00 0.  1.
          4    1    1    2  501    0 -0.23487275877E+01  0.21187617330E+01  0.44978801278E+00  0.34381509302E+01  0.12700000000E+01 0. -1.
         -4    1    1    2    0  501  0.23487275877E+01 -0.21187617330E+01  0.29097565458E+01  0.44816576976E+01  0.12700000000E+01 0. -1.
<mgrwt>
<rscale>  0 0.34086027E+01</rscale>
<asrwt>0</asrwt>
<pdfrwt beam="1">0</pdfrwt>
<pdfrwt beam="2">0</pdfrwt>
<totfact> 0.12212366E+12</totfact>
</mgrwt>
</event>
<event>
 4    1  0.3168498E+006  0.2551252E+01  0.7546771E-02  0.2686357E+00
         22   -1    0    0    0    0  0.00000000000E+00  0.00000000000E+00  0.66360824480E+01  0.66360824480E+01  0.00000000000E+00 0. -1.
         22   -1    0    0    0    0 -0.00000000000E+00 -0.00000000000E+00 -0.17587624629E+01  0.17587624629E+01  0.00000000000E+00 0.  1.
          4    1    1    2  501    0  0.33952256755E+00  0.21864841130E+01 -0.35291442998E+00  0.25755459509E+01  0.12700000000E+01 0.  1.
         -4    1    1    2    0  501 -0.33952256755E+00 -0.21864841130E+01  0.52302344150E+01  0.58192989601E+01  0.12700000000E+01 0.  1.
<mgrwt>
<rscale>  0 0.25512523E+01</rscale>
<asrwt>0</asrwt>
<pdfrwt beam="1">0</pdfrwt>
<pdfrwt beam="2">0</pdfrwt>
<totfact> 0.13587549E+12</totfact>
</mgrwt>
</event>
<event>
 4    1  0.3168498E+006  0.3181247E+01  0.7546771E-02  0.2467832E+00
         22   -1    0    0    0    0  0.00000000000E+00  0.00000000000E+00  0.15541843698E+01  0.15541843698E+01  0.00000000000E+00 0.  1.
         22   -1    0    0    0    0 -0.00000000000E+00 -0.00000000000E+00 -0.44693895019E+02  0.44693895019E+02  0.00000000000E+00 0. -1.
          4    1    1    2  501    0  0.13496966924E+01 -0.25856825021E+01 -0.42943088431E+02  0.43060761479E+02  0.12700000000E+01 0. -1.
         -4    1    1    2    0  501 -0.13496966924E+01  0.25856825021E+01 -0.19662221859E+00  0.31873179101E+01  0.12700000000E+01 0.  1.
<mgrwt>
<rscale>  0 0.31812474E+01</rscale>
<asrwt>0</asrwt>
<pdfrwt beam="1">0</pdfrwt>
<pdfrwt beam="2">0</pdfrwt>
<totfact> 0.14653876E+11</totfact>
</mgrwt>
</event>
<event>
 4    1  0.3168498E+006  0.2009195E+01  0.7546771E-02  0.2974548E+00
         22   -1    0    0    0    0  0.00000000000E+00  0.00000000000E+00  0.12136717494E+01  0.12136717494E+01  0.00000000000E+00 0.  1.
         22   -1    0    0    0    0 -0.00000000000E+00 -0.00000000000E+00 -0.36142428030E+01  0.36142428030E+01  0.00000000000E+00 0. -1.
          4    1    1    2  501    0  0.11533895610E+01 -0.10457805586E+01 -0.18818089824E+01  0.27528293631E+01  0.12700000000E+01 0.  1.
         -4    1    1    2    0  501 -0.11533895610E+01  0.10457805586E+01 -0.51876207120E+00  0.20750851893E+01  0.12700000000E+01 0. -1.
<mgrwt>
<rscale>  0 0.20091950E+01</rscale>
<asrwt>0</asrwt>
<pdfrwt beam="1">0</pdfrwt>
<pdfrwt beam="2">0</pdfrwt>
<totfact> 0.42726877E+12</totfact>
</mgrwt>
</event>
<event>
 4    1  0.3168498E+006  0.2228005E+01  0.7546771E-02  0.2842123E+00
         22   -1    0    0    0    0  0.00000000000E+00  0.00000000000E+00  0.32338934194E+02  0.32338934194E+02  0.00000000000E+00 0.  1.
         22   -1    0    0    0    0 -0.00000000000E+00 -0.00000000000E+00 -0.16581045326E+00  0.16581045326E+00  0.00000000000E+00 0. -1.
          4    1    1    2  501    0  0.10503206021E+01 -0.14993112165E+01  0.11658046622E+02  0.11869037810E+02  0.12700000000E+01 0. -1.
         -4    1    1    2    0  501 -0.10503206021E+01  0.14993112165E+01  0.20515077119E+02  0.20635706838E+02  0.12700000000E+01 0.  1.
<mgrwt>
<rscale>  0 0.22280053E+01</rscale>
<asrwt>0</asrwt>
<pdfrwt beam="1">0</pdfrwt>
<pdfrwt beam="2">0</pdfrwt>
<totfact> 0.27947528E+12</totfact>
</mgrwt>
</event>
<event>
 4    1  0.3168498E+006  0.7211821E+01  0.7546771E-02  0.1925487E+00
         22   -1    0    0    0    0  0.00000000000E+00  0.00000000000E+00  0.38268910345E+02  0.38268910345E+02  0.00000000000E+00 0.  1.
         22   -1    0    0    0    0 -0.00000000000E+00 -0.00000000000E+00 -0.27729441860E+01  0.27729441860E+01  0.00000000000E+00 0. -1.
          4    1    1    2  501    0  0.70596709649E+01 -0.74733729209E+00  0.30948383296E+01  0.78478271800E+01  0.12700000000E+01 0. -1.
         -4    1    1    2    0  501 -0.70596709649E+01  0.74733729209E+00  0.32401127829E+02  0.33194027351E+02  0.12700000000E+01 0.  1.
<mgrwt>
<rscale>  0 0.72118213E+01</rscale>
<asrwt>0</asrwt>
<pdfrwt beam="1">0</pdfrwt>
<pdfrwt beam="2">0</pdfrwt>
<totfact> 0.91695149E+10</totfact>
</mgrwt>
</event>
<event>
 4    1  0.3168498E+006  0.3178476E+01  0.7546771E-02  0.2468621E+00
         22   -1    0    0    0    0  0.00000000000E+00  0.00000000000E+00  0.83391721981E+01  0.83391721981E+01  0.00000000000E+00 0. -1.
         22   -1    0    0    0    0 -0.00000000000E+00 -0.00000000000E+00 -0.17295887217E+01  0.17295887217E+01  0.00000000000E+00 0.  1.
          4    1    1    2  501    0 -0.17955471190E+01  0.22947372439E+01  0.54937898903E+00  0.32256047105E+01  0.12700000000E+01 0.  1.
         -4    1    1    2    0  501  0.17955471190E+01 -0.22947372439E+01  0.60602044874E+01  0.68431562092E+01  0.12700000000E+01 0. -1.
<mgrwt>
<rscale>  0 0.31784758E+01</rscale>
<asrwt>0</asrwt>
<pdfrwt beam="1">0</pdfrwt>
<pdfrwt beam="2">0</pdfrwt>
<totfact> 0.10534766E+12</totfact>
</mgrwt>
</event>
<event>
 4    1  0.3168498E+006  0.6532094E+01  0.7546771E-02  0.1975017E+00
         22   -1    0    0    0    0  0.00000000000E+00  0.00000000000E+00  0.69867968609E+01  0.69867968609E+01  0.00000000000E+00 0.  1.
         22   -1    0    0    0    0 -0.00000000000E+00 -0.00000000000E+00 -0.10768255419E+02  0.10768255419E+02  0.00000000000E+00 0. -1.
          4    1    1    2  501    0 -0.49698900808E+01  0.40441994648E+01 -0.77315177885E+01  0.10121493172E+02  0.12700000000E+01 0. -1.
         -4    1    1    2    0  501  0.49698900808E+01 -0.40441994648E+01  0.39500592303E+01  0.76335591076E+01  0.12700000000E+01 0. -1.
<mgrwt>
<rscale>  0 0.65320944E+01</rscale>
<asrwt>0</asrwt>
<pdfrwt beam="1">0</pdfrwt>
<pdfrwt beam="2">0</pdfrwt>
<totfact> 0.15032548E+11</totfact>
</mgrwt>
</event>
<event>
 4    1  0.3168498E+006  0.2715869E+01  0.7546771E-02  0.2620388E+00
         22   -1    0    0    0    0  0.00000000000E+00  0.00000000000E+00  0.19673595429E+02  0.19673595429E+02  0.00000000000E+00 0. -1.
         22   -1    0    0    0    0 -0.00000000000E+00 -0.00000000000E+00 -0.50367586281E+00  0.50367586281E+00  0.00000000000E+00 0.  1.
          4    1    1    2  501    0  0.70364910010E+00 -0.22951960784E+01  0.44840575278E+01  0.52423963039E+01  0.12700000000E+01 0.  1.
         -4    1    1    2    0  501 -0.70364910010E+00  0.22951960784E+01  0.14685862039E+02  0.14934874988E+02  0.12700000000E+01 0. -1.
<mgrwt>
<rscale>  0 0.27158695E+01</rscale>
<asrwt>0</asrwt>
<pdfrwt beam="1">0</pdfrwt>
<pdfrwt beam="2">0</pdfrwt>
<totfact> 0.15064948E+12</totfact>
</mgrwt>
</event>
<event>
 4    1  0.3168498E+006  0.5149390E+01  0.7546771E-02  0.2105583E+00
         22   -1    0    0    0    0  0.00000000000E+00  0.00000000000E+00  0.17114945044E+01  0.17114945044E+01  0.00000000000E+00 0.  1.
         22   -1    0    0    0    0 -0.00000000000E+00 -0.00000000000E+00 -0.32331725680E+02  0.32331725680E+02  0.00000000000E+00 0. -1.
          4    1    1    2  501    0  0.10567903809E+01 -0.48771412392E+01 -0.30260933577E+01  0.59727258087E+01  0.12700000000E+01 0.  1.
         -4    1    1    2    0  501 -0.10567903809E+01  0.48771412392E+01 -0.27594137818E+02  0.28070494376E+02  0.12700000000E+01 0. -1.
<mgrwt>
<rscale>  0 0.51493895E+01</rscale>
<asrwt>0</asrwt>
<pdfrwt beam="1">0</pdfrwt>
<pdfrwt beam="2">0</pdfrwt>
<totfact> 0.19934323E+11</totfact>
</mgrwt>
</event>
<event>
 4    1  0.3168498E+006  0.2393632E+01  0.7546771E-02  0.2757366E+00
         22   -1    0    0    0    0  0.00000000000E+00  0.00000000000E+00  0.69230243168E+01  0.69230243168E+01  0.00000000000E+00 0. -1.
         22   -1    0    0    0    0 -0.00000000000E+00 -0.00000000000E+00 -0.82785605799E+00  0.82785605799E+00  0.00000000000E+00 0.  1.
          4    1    1    2  501    0 -0.16135240320E+01 -0.12300865343E+01  0.29790005339E+01  0.38215071457E+01  0.12700000000E+01 0.  1.
         -4    1    1    2    0  501  0.16135240320E+01  0.12300865343E+01  0.31161677250E+01  0.39293732291E+01  0.12700000000E+01 0. -1.
<mgrwt>
<rscale>  0 0.23936317E+01</rscale>
<asrwt>0</asrwt>
<pdfrwt beam="1">0</pdfrwt>
<pdfrwt beam="2">0</pdfrwt>
<totfact> 0.30633557E+12</totfact>
</mgrwt>
</event>
<event>
 4    1  0.3168498E+006  0.2335202E+01  0.7546771E-02  0.2785967E+00
         22   -1    0    0    0    0  0.00000000000E+00  0.00000000000E+00  0.29999577405E+01  0.29999577405E+01  0.00000000000E+00 0. -1.
         22   -1    0    0    0    0 -0.00000000000E+00 -0.00000000000E+00 -0.24528039885E+01  0.24528039885E+01  0.00000000000E+00 0.  1.
          4    1    1    2  501    0 -0.93061914290E+00 -0.17245914754E+01 -0.11136932903E+01  0.25871761616E+01  0.12700000000E+01 0. -1.
         -4    1    1    2    0  501  0.93061914290E+00  0.17245914754E+01  0.16608470423E+01  0.28655855674E+01  0.12700000000E+01 0. -1.
<mgrwt>
<rscale>  0 0.23352019E+01</rscale>
<asrwt>0</asrwt>
<pdfrwt beam="1">0</pdfrwt>
<pdfrwt beam="2">0</pdfrwt>
<totfact> 0.23595765E+12</totfact>
</mgrwt>
</event>
<event>
 4    1  0.3168498E+006  0.2310063E+01  0.7546771E-02  0.2798691E+00
         22   -1    0    0    0    0  0.00000000000E+00  0.00000000000E+00  0.21382060064E+02  0.21382060064E+02  0.00000000000E+00 0. -1.
         22   -1    0    0    0    0 -0.00000000000E+00 -0.00000000000E+00 -0.33613003095E+00  0.33613003095E+00  0.00000000000E+00 0.  1.
          4    1    1    2  501    0  0.81721197370E+00 -0.17480440317E+01  0.50124757805E+01  0.55191762788E+01  0.12700000000E+01 0. -1.
         -4    1    1    2    0  501 -0.81721197370E+00  0.17480440317E+01  0.16033454252E+02  0.16199013816E+02  0.12700000000E+01 0. -1.
<mgrwt>
<rscale>  0 0.23100635E+01</rscale>
<asrwt>0</asrwt>
<pdfrwt beam="1">0</pdfrwt>
<pdfrwt beam="2">0</pdfrwt>
<totfact> 0.21408625E+12</totfact>
</mgrwt>
</event>
<event>
 4    1  0.3168498E+006  0.3822473E+01  0.7546771E-02  0.2312570E+00
         22   -1    0    0    0    0  0.00000000000E+00  0.00000000000E+00  0.81443279154E+01  0.81443279154E+01  0.00000000000E+00 0. -1.
         22   -1    0    0    0    0 -0.00000000000E+00 -0.00000000000E+00 -0.18908191137E+01  0.18908191137E+01  0.00000000000E+00 0.  1.
          4    1    1    2  501    0  0.12801195968E+01  0.33704140335E+01  0.19916216467E+01  0.43102034433E+01  0.12700000000E+01 0.  1.
         -4    1    1    2    0  501 -0.12801195968E+01 -0.33704140335E+01  0.42618871550E+01  0.57249435859E+01  0.12700000000E+01 0. -1.
<mgrwt>
<rscale>  0 0.38224726E+01</rscale>
<asrwt>0</asrwt>
<pdfrwt beam="1">0</pdfrwt>
<pdfrwt beam="2">0</pdfrwt>
<totfact> 0.97784127E+11</totfact>
</mgrwt>
</event>
<event>
 4    1  0.3168498E+006  0.2014907E+01  0.7546771E-02  0.2970736E+00
         22   -1    0    0    0    0  0.00000000000E+00  0.00000000000E+00  0.23443821289E+02  0.23443821289E+02  0.00000000000E+00 0.  1.
         22   -1    0    0    0    0 -0.00000000000E+00 -0.00000000000E+00 -0.22084519119E+00  0.22084519119E+00  0.00000000000E+00 0.  1.
          4    1    1    2  501    0 -0.15272363156E+01 -0.33837759334E+00  0.61141000161E+01  0.64375514884E+01  0.12700000000E+01 0.  1.
         -4    1    1    2    0  501  0.15272363156E+01  0.33837759334E+00  0.17108876081E+02  0.17227114991E+02  0.12700000000E+01 0.  1.
<mgrwt>
<rscale>  0 0.20149070E+01</rscale>
<asrwt>0</asrwt>
<pdfrwt beam="1">0</pdfrwt>
<pdfrwt beam="2">0</pdfrwt>
<totfact> 0.30528327E+12</totfact>
</mgrwt>
</event>
<event>
 4    1  0.3168498E+006  0.2279670E+01  0.7546771E-02  0.2814431E+00
         22   -1    0    0    0    0  0.00000000000E+00  0.00000000000E+00  0.57998838360E+01  0.57998838360E+01  0.00000000000E+00 0. -1.
         22   -1    0    0    0    0 -0.00000000000E+00 -0.00000000000E+00 -0.11818944682E+01  0.11818944682E+01  0.00000000000E+00 0. -1.
          4    1    1    2  501    0  0.79787171537E+00 -0.17167980568E+01  0.59217955163E+00  0.23553283133E+01  0.12700000000E+01 0. -1.
         -4    1    1    2    0  501 -0.79787171537E+00  0.17167980568E+01  0.40258098162E+01  0.46264499908E+01  0.12700000000E+01 0. -1.
<mgrwt>
<rscale>  0 0.22796699E+01</rscale>
<asrwt>0</asrwt>
<pdfrwt beam="1">0</pdfrwt>
<pdfrwt beam="2">0</pdfrwt>
<totfact> 0.25194993E+12</totfact>
</mgrwt>
</event>
<event>
 4    1  0.3168498E+006  0.2165889E+01  0.7546771E-02  0.2877087E+00
         22   -1    0    0    0    0  0.00000000000E+00  0.00000000000E+00  0.88341053501E+01  0.88341053501E+01  0.00000000000E+00 0.  1.
         22   -1    0    0    0    0 -0.00000000000E+00 -0.00000000000E+00 -0.74714283243E+00  0.74714283243E+00  0.00000000000E+00 0.  1.
          4    1    1    2  501    0 -0.15185656409E+01  0.87871118407E+00  0.14669113543E+01  0.26158944689E+01  0.12700000000E+01 0.  1.
         -4    1    1    2    0  501  0.15185656409E+01 -0.87871118407E+00  0.66200511633E+01  0.69653537136E+01  0.12700000000E+01 0.  1.
<mgrwt>
<rscale>  0 0.21658890E+01</rscale>
<asrwt>0</asrwt>
<pdfrwt beam="1">0</pdfrwt>
<pdfrwt beam="2">0</pdfrwt>
<totfact> 0.25689207E+12</totfact>
</mgrwt>
</event>
<event>
 4    1  0.3168498E+006  0.2643628E+01  0.7546771E-02  0.2648407E+00
         22   -1    0    0    0    0  0.00000000000E+00  0.00000000000E+00  0.49308290037E+01  0.49308290037E+01  0.00000000000E+00 0. -1.
         22   -1    0    0    0    0 -0.00000000000E+00 -0.00000000000E+00 -0.87075170244E+01  0.87075170244E+01  0.00000000000E+00 0.  1.
          4    1    1    2  501    0  0.47046008494E+00  0.22703601345E+01 -0.81278892243E+01  0.85470083113E+01  0.12700000000E+01 0.  1.
         -4    1    1    2    0  501 -0.47046008494E+00 -0.22703601345E+01  0.43512012036E+01  0.50913377167E+01  0.12700000000E+01 0. -1.
<mgrwt>
<rscale>  0 0.26436278E+01</rscale>
<asrwt>0</asrwt>
<pdfrwt beam="1">0</pdfrwt>
<pdfrwt beam="2">0</pdfrwt>
<totfact> 0.29421578E+11</totfact>
</mgrwt>
</event>
<event>
 4    1  0.3168498E+006  0.3218697E+01  0.7546771E-02  0.2457283E+00
         22   -1    0    0    0    0  0.00000000000E+00  0.00000000000E+00  0.14440048567E+01  0.14440048567E+01  0.00000000000E+00 0.  1.
         22   -1    0    0    0    0 -0.00000000000E+00 -0.00000000000E+00 -0.81486217372E+01  0.81486217372E+01  0.00000000000E+00 0. -1.
          4    1    1    2  501    0 -0.23020448297E+00  0.29485783666E+01 -0.50106453017E+01  0.59553820052E+01  0.12700000000E+01 0.  1.
         -4    1    1    2    0  501  0.23020448297E+00 -0.29485783666E+01 -0.16939715788E+01  0.36372445886E+01  0.12700000000E+01 0.  1.
<mgrwt>
<rscale>  0 0.32186967E+01</rscale>
<asrwt>0</asrwt>
<pdfrwt beam="1">0</pdfrwt>
<pdfrwt beam="2">0</pdfrwt>
<totfact> 0.13334354E+12</totfact>
</mgrwt>
</event>
<event>
 4    1  0.3168498E+006  0.4653684E+01  0.7546771E-02  0.2167416E+00
         22   -1    0    0    0    0  0.00000000000E+00  0.00000000000E+00  0.45500710257E+01  0.45500710257E+01  0.00000000000E+00 0.  1.
         22   -1    0    0    0    0 -0.00000000000E+00 -0.00000000000E+00 -0.93955113589E+01  0.93955113589E+01  0.00000000000E+00 0. -1.
          4    1    1    2  501    0 -0.43852176708E+01  0.90207526263E+00 -0.73206366778E+01  0.86745890490E+01  0.12700000000E+01 0. -1.
         -4    1    1    2    0  501  0.43852176708E+01 -0.90207526263E+00  0.24751963446E+01  0.52709933356E+01  0.12700000000E+01 0.  1.
<mgrwt>
<rscale>  0 0.46536839E+01</rscale>
<asrwt>0</asrwt>
<pdfrwt beam="1">0</pdfrwt>
<pdfrwt beam="2">0</pdfrwt>
<totfact> 0.29518151E+11</totfact>
</mgrwt>
</event>
<event>
 4    1  0.3168498E+006  0.3350398E+01  0.7546771E-02  0.2421845E+00
         22   -1    0    0    0    0  0.00000000000E+00  0.00000000000E+00  0.11325858183E+01  0.11325858183E+01  0.00000000000E+00 0. -1.
         22   -1    0    0    0    0 -0.00000000000E+00 -0.00000000000E+00 -0.21759381482E+02  0.21759381482E+02  0.00000000000E+00 0.  1.
          4    1    1    2  501    0  0.30230204698E+01 -0.68819670627E+00 -0.18759524529E+02  0.19056361878E+02  0.12700000000E+01 0.  1.
         -4    1    1    2    0  501 -0.30230204698E+01  0.68819670627E+00 -0.18672711352E+01  0.38356054229E+01  0.12700000000E+01 0. -1.
<mgrwt>
<rscale>  0 0.33503981E+01</rscale>
<asrwt>0</asrwt>
<pdfrwt beam="1">0</pdfrwt>
<pdfrwt beam="2">0</pdfrwt>
<totfact> 0.52880828E+11</totfact>
</mgrwt>
</event>
<event>
 4    1  0.3168498E+006  0.2213173E+01  0.7546771E-02  0.2850301E+00
         22   -1    0    0    0    0  0.00000000000E+00  0.00000000000E+00  0.46173088720E+01  0.46173088720E+01  0.00000000000E+00 0.  1.
         22   -1    0    0    0    0 -0.00000000000E+00 -0.00000000000E+00 -0.12838405551E+01  0.12838405551E+01  0.00000000000E+00 0. -1.
          4    1    1    2  501    0  0.15752242194E+01  0.89660725998E+00  0.43696661307E+00  0.22558979899E+01  0.12700000000E+01 0. -1.
         -4    1    1    2    0  501 -0.15752242194E+01 -0.89660725998E+00  0.28965017038E+01  0.36452514371E+01  0.12700000000E+01 0.  1.
<mgrwt>
<rscale>  0 0.22131733E+01</rscale>
<asrwt>0</asrwt>
<pdfrwt beam="1">0</pdfrwt>
<pdfrwt beam="2">0</pdfrwt>
<totfact> 0.30025579E+12</totfact>
</mgrwt>
</event>
<event>
 4    1  0.3168498E+006  0.2010802E+01  0.7546771E-02  0.2973473E+00
         22   -1    0    0    0    0  0.00000000000E+00  0.00000000000E+00  0.26504980384E+01  0.26504980384E+01  0.00000000000E+00 0. -1.
         22   -1    0    0    0    0 -0.00000000000E+00 -0.00000000000E+00 -0.33250783826E+02  0.33250783826E+02  0.00000000000E+00 0.  1.
          4    1    1    2  501    0  0.13050938063E+01 -0.85273290801E+00 -0.32834175257E+02  0.32895689506E+02  0.12700000000E+01 0.  1.
         -4    1    1    2    0  501 -0.13050938063E+01  0.85273290801E+00  0.22338894702E+01  0.30055923577E+01  0.12700000000E+01 0. -1.
<mgrwt>
<rscale>  0 0.20108016E+01</rscale>
<asrwt>0</asrwt>
<pdfrwt beam="1">0</pdfrwt>
<pdfrwt beam="2">0</pdfrwt>
<totfact> 0.11581453E+11</totfact>
</mgrwt>
</event>
<event>
 4    1  0.3168498E+006  0.3227497E+01  0.7546771E-02  0.2454835E+00
         22   -1    0    0    0    0  0.00000000000E+00  0.00000000000E+00  0.10116759229E+01  0.10116759229E+01  0.00000000000E+00 0.  1.
         22   -1    0    0    0    0 -0.00000000000E+00 -0.00000000000E+00 -0.11010885734E+02  0.11010885734E+02  0.00000000000E+00 0. -1.
          4    1    1    2  501    0 -0.19090854267E+01  0.22713933514E+01 -0.65307563019E+01  0.72847452116E+01  0.12700000000E+01 0. -1.
         -4    1    1    2    0  501  0.19090854267E+01 -0.22713933514E+01 -0.34684535089E+01  0.47378164450E+01  0.12700000000E+01 0.  1.
<mgrwt>
<rscale>  0 0.32274967E+01</rscale>
<asrwt>0</asrwt>
<pdfrwt beam="1">0</pdfrwt>
<pdfrwt beam="2">0</pdfrwt>
<totfact> 0.13932841E+12</totfact>
</mgrwt>
</event>
<event>
 4    1  0.3168498E+006  0.3699840E+01  0.7546771E-02  0.2338626E+00
         22   -1    0    0    0    0  0.00000000000E+00  0.00000000000E+00  0.47820871458E+02  0.47820871458E+02  0.00000000000E+00 0. -1.
         22   -1    0    0    0    0 -0.00000000000E+00 -0.00000000000E+00 -0.34963330380E+00  0.34963330380E+00  0.00000000000E+00 0.  1.
          4    1    1    2  501    0  0.32017769635E+01  0.13507555421E+01  0.13480855226E+02  0.13979351698E+02  0.12700000000E+01 0. -1.
         -4    1    1    2    0  501 -0.32017769635E+01 -0.13507555421E+01  0.33990382927E+02  0.34191153064E+02  0.12700000000E+01 0. -1.
<mgrwt>
<rscale>  0 0.36998400E+01</rscale>
<asrwt>0</asrwt>
<pdfrwt beam="1">0</pdfrwt>
<pdfrwt beam="2">0</pdfrwt>
<totfact> 0.73079713E+11</totfact>
</mgrwt>
</event>
<event>
 4    1  0.3168498E+006  0.2007342E+01  0.7546771E-02  0.2975789E+00
         22   -1    0    0    0    0  0.00000000000E+00  0.00000000000E+00  0.70445558889E+00  0.70445558889E+00  0.00000000000E+00 0.  1.
         22   -1    0    0    0    0 -0.00000000000E+00 -0.00000000000E+00 -0.77180526689E+01  0.77180526689E+01  0.00000000000E+00 0.  1.
          4    1    1    2  501    0 -0.15518510612E+01  0.90996749111E-01 -0.56495455420E+01  0.59955639397E+01  0.12700000000E+01 0.  1.
         -4    1    1    2    0  501  0.15518510612E+01 -0.90996749111E-01 -0.13640515380E+01  0.24269443180E+01  0.12700000000E+01 0.  1.
<mgrwt>
<rscale>  0 0.20073421E+01</rscale>
<asrwt>0</asrwt>
<pdfrwt beam="1">0</pdfrwt>
<pdfrwt beam="2">0</pdfrwt>
<totfact> 0.32306876E+12</totfact>
</mgrwt>
</event>
<event>
 4    1  0.3168498E+006  0.2410608E+01  0.7546771E-02  0.2749302E+00
         22   -1    0    0    0    0  0.00000000000E+00  0.00000000000E+00  0.32263606466E+01  0.32263606466E+01  0.00000000000E+00 0.  1.
         22   -1    0    0    0    0 -0.00000000000E+00 -0.00000000000E+00 -0.19503478412E+01  0.19503478412E+01  0.00000000000E+00 0. -1.
          4    1    1    2  501    0 -0.19265301747E+01  0.69757724108E+00 -0.77982366639E-01  0.24118693519E+01  0.12700000000E+01 0. -1.
         -4    1    1    2    0  501  0.19265301747E+01 -0.69757724108E+00  0.13539951720E+01  0.27648391359E+01  0.12700000000E+01 0.  1.
<mgrwt>
<rscale>  0 0.24106083E+01</rscale>
<asrwt>0</asrwt>
<pdfrwt beam="1">0</pdfrwt>
<pdfrwt beam="2">0</pdfrwt>
<totfact> 0.28271180E+12</totfact>
</mgrwt>
</event>
<event>
 4    1  0.3168498E+006  0.2727860E+01  0.7546771E-02  0.2615869E+00
         22   -1    0    0    0    0  0.00000000000E+00  0.00000000000E+00  0.31969336292E+01  0.31969336292E+01  0.00000000000E+00 0.  1.
         22   -1    0    0    0    0 -0.00000000000E+00 -0.00000000000E+00 -0.25698206880E+01  0.25698206880E+01  0.00000000000E+00 0. -1.
          4    1    1    2  501    0  0.18353252609E+01  0.15684064735E+01 -0.57165259908E+00  0.27871139865E+01  0.12700000000E+01 0. -1.
         -4    1    1    2    0  501 -0.18353252609E+01 -0.15684064735E+01  0.11987655403E+01  0.29796403307E+01  0.12700000000E+01 0.  1.
<mgrwt>
<rscale>  0 0.27278595E+01</rscale>
<asrwt>0</asrwt>
<pdfrwt beam="1">0</pdfrwt>
<pdfrwt beam="2">0</pdfrwt>
<totfact> 0.20749758E+12</totfact>
</mgrwt>
</event>
<event>
 4    1  0.3168498E+006  0.2334797E+01  0.7546771E-02  0.2786170E+00
         22   -1    0    0    0    0  0.00000000000E+00  0.00000000000E+00  0.46377600645E+01  0.46377600645E+01  0.00000000000E+00 0. -1.
         22   -1    0    0    0    0 -0.00000000000E+00 -0.00000000000E+00 -0.17285746203E+01  0.17285746203E+01  0.00000000000E+00 0.  1.
          4    1    1    2  501    0 -0.18912484912E+01 -0.51142345681E+00 -0.34611056654E+00  0.23603108549E+01  0.12700000000E+01 0.  1.
         -4    1    1    2    0  501  0.18912484912E+01  0.51142345681E+00  0.32552960108E+01  0.40060238298E+01  0.12700000000E+01 0. -1.
<mgrwt>
<rscale>  0 0.23347965E+01</rscale>
<asrwt>0</asrwt>
<pdfrwt beam="1">0</pdfrwt>
<pdfrwt beam="2">0</pdfrwt>
<totfact> 0.21213583E+12</totfact>
</mgrwt>
</event>
<event>
 4    1  0.3168498E+006  0.2192724E+01  0.7546771E-02  0.2861749E+00
         22   -1    0    0    0    0  0.00000000000E+00  0.00000000000E+00  0.16519237330E+01  0.16519237330E+01  0.00000000000E+00 0. -1.
         22   -1    0    0    0    0 -0.00000000000E+00 -0.00000000000E+00 -0.55426387104E+01  0.55426387104E+01  0.00000000000E+00 0.  1.
          4    1    1    2  501    0  0.11426979999E+01  0.13745476467E+01 -0.44242899920E+01  0.49378519506E+01  0.12700000000E+01 0.  1.
         -4    1    1    2    0  501 -0.11426979999E+01 -0.13745476467E+01  0.53357501459E+00  0.22567104928E+01  0.12700000000E+01 0. -1.
<mgrwt>
<rscale>  0 0.21927243E+01</rscale>
<asrwt>0</asrwt>
<pdfrwt beam="1">0</pdfrwt>
<pdfrwt beam="2">0</pdfrwt>
<totfact> 0.18098126E+12</totfact>
</mgrwt>
</event>
<event>
 4    1  0.3168498E+006  0.2046033E+01  0.7546771E-02  0.2950329E+00
         22   -1    0    0    0    0  0.00000000000E+00  0.00000000000E+00  0.17362195405E+02  0.17362195405E+02  0.00000000000E+00 0. -1.
         22   -1    0    0    0    0 -0.00000000000E+00 -0.00000000000E+00 -0.40363112701E+00  0.40363112701E+00  0.00000000000E+00 0. -1.
          4    1    1    2  501    0 -0.13070923784E+01  0.92997973747E+00  0.28427256496E+01  0.35024765405E+01  0.12700000000E+01 0. -1.
         -4    1    1    2    0  501  0.13070923784E+01 -0.92997973747E+00  0.14115838629E+02  0.14263349992E+02  0.12700000000E+01 0. -1.
<mgrwt>
<rscale>  0 0.20460334E+01</rscale>
<asrwt>0</asrwt>
<pdfrwt beam="1">0</pdfrwt>
<pdfrwt beam="2">0</pdfrwt>
<totfact> 0.22583211E+12</totfact>
</mgrwt>
</event>
<event>
 4    1  0.3168498E+006  0.2215626E+01  0.7546771E-02  0.2848941E+00
         22   -1    0    0    0    0  0.00000000000E+00  0.00000000000E+00  0.99305162007E+00  0.99305162007E+00  0.00000000000E+00 0.  1.
         22   -1    0    0    0    0 -0.00000000000E+00 -0.00000000000E+00 -0.55634566847E+01  0.55634566847E+01  0.00000000000E+00 0. -1.
          4    1    1    2  501    0  0.67128500444E-01  0.18142740864E+01 -0.33796760171E+01  0.40411887702E+01  0.12700000000E+01 0. -1.
         -4    1    1    2    0  501 -0.67128500444E-01 -0.18142740864E+01 -0.11907290476E+01  0.25153195346E+01  0.12700000000E+01 0.  1.
<mgrwt>
<rscale>  0 0.22156256E+01</rscale>
<asrwt>0</asrwt>
<pdfrwt beam="1">0</pdfrwt>
<pdfrwt beam="2">0</pdfrwt>
<totfact> 0.32303818E+12</totfact>
</mgrwt>
</event>
<event>
 4    1  0.3168498E+006  0.2797072E+01  0.7546771E-02  0.2590477E+00
         22   -1    0    0    0    0  0.00000000000E+00  0.00000000000E+00  0.35667412583E+02  0.35667412583E+02  0.00000000000E+00 0.  1.
         22   -1    0    0    0    0 -0.00000000000E+00 -0.00000000000E+00 -0.18322743737E+01  0.18322743737E+01  0.00000000000E+00 0. -1.
          4    1    1    2  501    0  0.60351310373E-01  0.24913986975E+01 -0.67420078868E+00  0.28771785579E+01  0.12700000000E+01 0. -1.
         -4    1    1    2    0  501 -0.60351310373E-01 -0.24913986975E+01  0.34509338998E+02  0.34622508399E+02  0.12700000000E+01 0.  1.
<mgrwt>
<rscale>  0 0.27970716E+01</rscale>
<asrwt>0</asrwt>
<pdfrwt beam="1">0</pdfrwt>
<pdfrwt beam="2">0</pdfrwt>
<totfact> 0.16242332E+11</totfact>
</mgrwt>
</event>
<event>
 4    1  0.3168498E+006  0.2834710E+01  0.7546771E-02  0.2577143E+00
         22   -1    0    0    0    0  0.00000000000E+00  0.00000000000E+00  0.30112381664E+02  0.30112381664E+02  0.00000000000E+00 0.  1.
         22   -1    0    0    0    0 -0.00000000000E+00 -0.00000000000E+00 -0.32771690674E+00  0.32771690674E+00  0.00000000000E+00 0. -1.
          4    1    1    2  501    0 -0.21019898701E+01 -0.14157399005E+01  0.21451464375E+02  0.21637950566E+02  0.12700000000E+01 0.  1.
         -4    1    1    2    0  501  0.21019898701E+01  0.14157399005E+01  0.83332003822E+01  0.88021480043E+01  0.12700000000E+01 0. -1.
<mgrwt>
<rscale>  0 0.28347100E+01</rscale>
<asrwt>0</asrwt>
<pdfrwt beam="1">0</pdfrwt>
<pdfrwt beam="2">0</pdfrwt>
<totfact> 0.14296525E+12</totfact>
</mgrwt>
</event>
<event>
 4    1  0.3168498E+006  0.2150077E+01  0.7546771E-02  0.2886297E+00
         22   -1    0    0    0    0  0.00000000000E+00  0.00000000000E+00  0.69720609054E+02  0.69720609054E+02  0.00000000000E+00 0.  1.
         22   -1    0    0    0    0 -0.00000000000E+00 -0.00000000000E+00 -0.66323523305E-01  0.66323523305E-01  0.00000000000E+00 0. -1.
          4    1    1    2  501    0  0.11055898350E+01 -0.13370126254E+01  0.34245512801E+02  0.34312941853E+02  0.12700000000E+01 0.  1.
         -4    1    1    2    0  501 -0.11055898350E+01  0.13370126254E+01  0.35408772730E+02  0.35473990724E+02  0.12700000000E+01 0.  1.
<mgrwt>
<rscale>  0 0.21500771E+01</rscale>
<asrwt>0</asrwt>
<pdfrwt beam="1">0</pdfrwt>
<pdfrwt beam="2">0</pdfrwt>
<totfact> 0.28073096E+12</totfact>
</mgrwt>
</event>
<event>
 4    1  0.3168498E+006  0.5664989E+01  0.7546771E-02  0.2051102E+00
         22   -1    0    0    0    0  0.00000000000E+00  0.00000000000E+00  0.10045920001E+02  0.10045920001E+02  0.00000000000E+00 0.  1.
         22   -1    0    0    0    0 -0.00000000000E+00 -0.00000000000E+00 -0.16026671609E+02  0.16026671609E+02  0.00000000000E+00 0. -1.
          4    1    1    2  501    0 -0.53642805954E+01 -0.13052563142E+01 -0.14655300191E+02  0.15712094833E+02  0.12700000000E+01 0. -1.
         -4    1    1    2    0  501  0.53642805954E+01  0.13052563142E+01  0.86745485829E+01  0.10360496777E+02  0.12700000000E+01 0.  1.
<mgrwt>
<rscale>  0 0.56649890E+01</rscale>
<asrwt>0</asrwt>
<pdfrwt beam="1">0</pdfrwt>
<pdfrwt beam="2">0</pdfrwt>
<totfact> 0.59686366E+10</totfact>
</mgrwt>
</event>
<event>
 4    1  0.3168498E+006  0.6421991E+01  0.7546771E-02  0.1983790E+00
         22   -1    0    0    0    0  0.00000000000E+00  0.00000000000E+00  0.40703548401E+02  0.40703548401E+02  0.00000000000E+00 0.  1.
         22   -1    0    0    0    0 -0.00000000000E+00 -0.00000000000E+00 -0.12762290467E+01  0.12762290467E+01  0.00000000000E+00 0. -1.
          4    1    1    2  501    0 -0.53983982941E+01 -0.32382652426E+01  0.29242164215E+02  0.29939040297E+02  0.12700000000E+01 0. -1.
         -4    1    1    2    0  501  0.53983982941E+01  0.32382652426E+01  0.10185155139E+02  0.12040737151E+02  0.12700000000E+01 0.  1.
<mgrwt>
<rscale>  0 0.64219908E+01</rscale>
<asrwt>0</asrwt>
<pdfrwt beam="1">0</pdfrwt>
<pdfrwt beam="2">0</pdfrwt>
<totfact> 0.20760932E+11</totfact>
</mgrwt>
</event>
<event>
 4    1  0.3168498E+006  0.3871622E+01  0.7546771E-02  0.2302527E+00
         22   -1    0    0    0    0  0.00000000000E+00  0.00000000000E+00  0.15351257067E+01  0.15351257067E+01  0.00000000000E+00 0. -1.
         22   -1    0    0    0    0 -0.00000000000E+00 -0.00000000000E+00 -0.98241162798E+01  0.98241162798E+01  0.00000000000E+00 0.  1.
          4    1    1    2  501    0 -0.29970016414E+01 -0.20963159242E+01 -0.37013887580E+01  0.53562802419E+01  0.12700000000E+01 0.  1.
         -4    1    1    2    0  501  0.29970016414E+01  0.20963159242E+01 -0.45876018151E+01  0.60029617446E+01  0.12700000000E+01 0. -1.
<mgrwt>
<rscale>  0 0.38716223E+01</rscale>
<asrwt>0</asrwt>
<pdfrwt beam="1">0</pdfrwt>
<pdfrwt beam="2">0</pdfrwt>
<totfact> 0.99186896E+11</totfact>
</mgrwt>
</event>
<event>
 4    1  0.3168498E+006  0.2143946E+01  0.7546771E-02  0.2889903E+00
         22   -1    0    0    0    0  0.00000000000E+00  0.00000000000E+00  0.12173213375E+01  0.12173213375E+01  0.00000000000E+00 0.  1.
         22   -1    0    0    0    0 -0.00000000000E+00 -0.00000000000E+00 -0.71877901024E+01  0.71877901024E+01  0.00000000000E+00 0. -1.
          4    1    1    2  501    0 -0.13810557432E+01 -0.10374442947E+01 -0.58806582783E+01  0.62592848966E+01  0.12700000000E+01 0. -1.
         -4    1    1    2    0  501  0.13810557432E+01  0.10374442947E+01 -0.89810486586E-01  0.21458265433E+01  0.12700000000E+01 0.  1.
<mgrwt>
<rscale>  0 0.21439463E+01</rscale>
<asrwt>0</asrwt>
<pdfrwt beam="1">0</pdfrwt>
<pdfrwt beam="2">0</pdfrwt>
<totfact> 0.18855447E+12</totfact>
</mgrwt>
</event>
<event>
 4    1  0.3168498E+006  0.3763613E+01  0.7546771E-02  0.2324894E+00
         22   -1    0    0    0    0  0.00000000000E+00  0.00000000000E+00  0.21216612823E+02  0.21216612823E+02  0.00000000000E+00 0.  1.
         22   -1    0    0    0    0 -0.00000000000E+00 -0.00000000000E+00 -0.96519165236E+01  0.96519165236E+01  0.00000000000E+00 0. -1.
          4    1    1    2  501    0  0.34013189151E+01 -0.99141949956E+00 -0.91085548613E+01  0.98554834812E+01  0.12700000000E+01 0. -1.
         -4    1    1    2    0  501 -0.34013189151E+01  0.99141949956E+00  0.20673251161E+02  0.21013045865E+02  0.12700000000E+01 0.  1.
<mgrwt>
<rscale>  0 0.37636130E+01</rscale>
<asrwt>0</asrwt>
<pdfrwt beam="1">0</pdfrwt>
<pdfrwt beam="2">0</pdfrwt>
<totfact> 0.44214054E+10</totfact>
</mgrwt>
</event>
<event>
 4    1  0.3168498E+006  0.2926482E+01  0.7546771E-02  0.2545935E+00
         22   -1    0    0    0    0  0.00000000000E+00  0.00000000000E+00  0.23965639812E+02  0.23965639812E+02  0.00000000000E+00 0. -1.
         22   -1    0    0    0    0 -0.00000000000E+00 -0.00000000000E+00 -0.68233323806E+00  0.68233323806E+00  0.00000000000E+00 0.  1.
          4    1    1    2  501    0  0.17397647054E+01  0.19810645095E+01  0.31365711377E+01  0.42897991006E+01  0.12700000000E+01 0.  1.
         -4    1    1    2    0  501 -0.17397647054E+01 -0.19810645095E+01  0.20146735436E+02  0.20358173950E+02  0.12700000000E+01 0. -1.
<mgrwt>
<rscale>  0 0.29264822E+01</rscale>
<asrwt>0</asrwt>
<pdfrwt beam="1">0</pdfrwt>
<pdfrwt beam="2">0</pdfrwt>
<totfact> 0.83446951E+11</totfact>
</mgrwt>
</event>
<event>
 4    1  0.3168498E+006  0.2018502E+01  0.7546771E-02  0.2968347E+00
         22   -1    0    0    0    0  0.00000000000E+00  0.00000000000E+00  0.98144273012E+00  0.98144273012E+00  0.00000000000E+00 0.  1.
         22   -1    0    0    0    0 -0.00000000000E+00 -0.00000000000E+00 -0.45106520426E+01  0.45106520426E+01  0.00000000000E+00 0.  1.
          4    1    1    2  501    0  0.14225361337E+01 -0.66169668294E+00 -0.25395909490E+01  0.32440520557E+01  0.12700000000E+01 0.  1.
         -4    1    1    2    0  501 -0.14225361337E+01  0.66169668294E+00 -0.98961836342E+00  0.22480427169E+01  0.12700000000E+01 0.  1.
<mgrwt>
<rscale>  0 0.20185023E+01</rscale>
<asrwt>0</asrwt>
<pdfrwt beam="1">0</pdfrwt>
<pdfrwt beam="2">0</pdfrwt>
<totfact> 0.41969998E+12</totfact>
</mgrwt>
</event>
<event>
 4    1  0.3168498E+006  0.2196125E+01  0.7546771E-02  0.2859831E+00
         22   -1    0    0    0    0  0.00000000000E+00  0.00000000000E+00  0.97424878902E+01  0.97424878902E+01  0.00000000000E+00 0. -1.
         22   -1    0    0    0    0 -0.00000000000E+00 -0.00000000000E+00 -0.16679160695E+01  0.16679160695E+01  0.00000000000E+00 0.  1.
          4    1    1    2  501    0 -0.53207260462E+00  0.17108375440E+01 -0.74691194892E+00  0.23196645917E+01  0.12700000000E+01 0. -1.
         -4    1    1    2    0  501  0.53207260462E+00 -0.17108375440E+01  0.88214837696E+01  0.90907393680E+01  0.12700000000E+01 0. -1.
<mgrwt>
<rscale>  0 0.21961253E+01</rscale>
<asrwt>0</asrwt>
<pdfrwt beam="1">0</pdfrwt>
<pdfrwt beam="2">0</pdfrwt>
<totfact> 0.91053400E+11</totfact>
</mgrwt>
</event>
<event>
 4    1  0.3168498E+006  0.2046911E+01  0.7546771E-02  0.2949763E+00
         22   -1    0    0    0    0  0.00000000000E+00  0.00000000000E+00  0.29778052162E+02  0.29778052162E+02  0.00000000000E+00 0. -1.
         22   -1    0    0    0    0 -0.00000000000E+00 -0.00000000000E+00 -0.14175861996E+00  0.14175861996E+00  0.00000000000E+00 0.  1.
          4    1    1    2  501    0  0.13117529880E+01  0.92533643998E+00  0.16109458630E+02  0.16238980904E+02  0.12700000000E+01 0. -1.
         -4    1    1    2    0  501 -0.13117529880E+01 -0.92533643998E+00  0.13526834911E+02  0.13680829878E+02  0.12700000000E+01 0. -1.
<mgrwt>
<rscale>  0 0.20469107E+01</rscale>
<asrwt>0</asrwt>
<pdfrwt beam="1">0</pdfrwt>
<pdfrwt beam="2">0</pdfrwt>
<totfact> 0.36963032E+12</totfact>
</mgrwt>
</event>
<event>
 4    1  0.3168498E+006  0.2586453E+01  0.7546771E-02  0.2671601E+00
         22   -1    0    0    0    0  0.00000000000E+00  0.00000000000E+00  0.92387013736E+01  0.92387013736E+01  0.00000000000E+00 0.  1.
         22   -1    0    0    0    0 -0.00000000000E+00 -0.00000000000E+00 -0.78046700567E+00  0.78046700567E+00  0.00000000000E+00 0. -1.
          4    1    1    2  501    0 -0.14954503050E+00  0.22482162055E+01  0.28828275869E+01  0.38730394677E+01  0.12700000000E+01 0. -1.
         -4    1    1    2    0  501  0.14954503050E+00 -0.22482162055E+01  0.55754067810E+01  0.61461289115E+01  0.12700000000E+01 0.  1.
<mgrwt>
<rscale>  0 0.25864531E+01</rscale>
<asrwt>0</asrwt>
<pdfrwt beam="1">0</pdfrwt>
<pdfrwt beam="2">0</pdfrwt>
<totfact> 0.23161568E+12</totfact>
</mgrwt>
</event>
<event>
 4    1  0.3168498E+006  0.2317755E+01  0.7546771E-02  0.2794770E+00
         22   -1    0    0    0    0  0.00000000000E+00  0.00000000000E+00  0.80226024402E+00  0.80226024402E+00  0.00000000000E+00 0.  1.
         22   -1    0    0    0    0 -0.00000000000E+00 -0.00000000000E+00 -0.92981441224E+01  0.92981441224E+01  0.00000000000E+00 0. -1.
          4    1    1    2  501    0  0.19147642761E+01  0.30457207766E+00 -0.69195387404E+01  0.72973969855E+01  0.12700000000E+01 0. -1.
         -4    1    1    2    0  501 -0.19147642761E+01 -0.30457207766E+00 -0.15763451380E+01  0.28030073810E+01  0.12700000000E+01 0.  1.
<mgrwt>
<rscale>  0 0.23177546E+01</rscale>
<asrwt>0</asrwt>
<pdfrwt beam="1">0</pdfrwt>
<pdfrwt beam="2">0</pdfrwt>
<totfact> 0.22273535E+12</totfact>
</mgrwt>
</event>
<event>
 4    1  0.3168498E+006  0.2033240E+01  0.7546771E-02  0.2958643E+00
         22   -1    0    0    0    0  0.00000000000E+00  0.00000000000E+00  0.12958126698E+01  0.12958126698E+01  0.00000000000E+00 0.  1.
         22   -1    0    0    0    0 -0.00000000000E+00 -0.00000000000E+00 -0.32999461942E+01  0.32999461942E+01  0.00000000000E+00 0. -1.
          4    1    1    2  501    0  0.15076026795E+01 -0.49829733711E+00 -0.58325659014E+00  0.21152433253E+01  0.12700000000E+01 0.  1.
         -4    1    1    2    0  501 -0.15076026795E+01  0.49829733711E+00 -0.14208769343E+01  0.24805155387E+01  0.12700000000E+01 0. -1.
<mgrwt>
<rscale>  0 0.20332403E+01</rscale>
<asrwt>0</asrwt>
<pdfrwt beam="1">0</pdfrwt>
<pdfrwt beam="2">0</pdfrwt>
<totfact> 0.44097057E+12</totfact>
</mgrwt>
</event>
<event>
 4    1  0.3168498E+006  0.2360574E+01  0.7546771E-02  0.2773384E+00
         22   -1    0    0    0    0  0.00000000000E+00  0.00000000000E+00  0.59806295071E+01  0.59806295071E+01  0.00000000000E+00 0. -1.
         22   -1    0    0    0    0 -0.00000000000E+00 -0.00000000000E+00 -0.12566888219E+01  0.12566888219E+01  0.00000000000E+00 0.  1.
          4    1    1    2  501    0 -0.16467075878E+01  0.11170333069E+01  0.42021087886E+01  0.48197538900E+01  0.12700000000E+01 0.  1.
         -4    1    1    2    0  501  0.16467075878E+01 -0.11170333069E+01  0.52183189661E+00  0.24175644390E+01  0.12700000000E+01 0. -1.
<mgrwt>
<rscale>  0 0.23605739E+01</rscale>
<asrwt>0</asrwt>
<pdfrwt beam="1">0</pdfrwt>
<pdfrwt beam="2">0</pdfrwt>
<totfact> 0.22642350E+12</totfact>
</mgrwt>
</event>
<event>
 4    1  0.3168498E+006  0.3419364E+01  0.7546771E-02  0.2404248E+00
         22   -1    0    0    0    0  0.00000000000E+00  0.00000000000E+00  0.43711430431E+02  0.43711430431E+02  0.00000000000E+00 0. -1.
         22   -1    0    0    0    0 -0.00000000000E+00 -0.00000000000E+00 -0.47344541767E+00  0.47344541767E+00  0.00000000000E+00 0.  1.
          4    1    1    2  501    0  0.28410998801E+01  0.14167916860E+01  0.70475316727E+01  0.78332464463E+01  0.12700000000E+01 0.  1.
         -4    1    1    2    0  501 -0.28410998801E+01 -0.14167916860E+01  0.36190453341E+02  0.36351629403E+02  0.12700000000E+01 0. -1.
<mgrwt>
<rscale>  0 0.34193636E+01</rscale>
<asrwt>0</asrwt>
<pdfrwt beam="1">0</pdfrwt>
<pdfrwt beam="2">0</pdfrwt>
<totfact> 0.58436919E+11</totfact>
</mgrwt>
</event>
<event>
 4    1  0.3168498E+006  0.2162549E+01  0.7546771E-02  0.2879022E+00
         22   -1    0    0    0    0  0.00000000000E+00  0.00000000000E+00  0.50164699410E+00  0.50164699410E+00  0.00000000000E+00 0.  1.
         22   -1    0    0    0    0 -0.00000000000E+00 -0.00000000000E+00 -0.21420365572E+02  0.21420365572E+02  0.00000000000E+00 0. -1.
          4    1    1    2  501    0 -0.16446619156E+01 -0.59900320227E+00 -0.18696773029E+02  0.18821422352E+02  0.12700000000E+01 0. -1.
         -4    1    1    2    0  501  0.16446619156E+01  0.59900320227E+00 -0.22219455484E+01  0.31005902136E+01  0.12700000000E+01 0.  1.
<mgrwt>
<rscale>  0 0.21625489E+01</rscale>
<asrwt>0</asrwt>
<pdfrwt beam="1">0</pdfrwt>
<pdfrwt beam="2">0</pdfrwt>
<totfact> 0.13607897E+12</totfact>
</mgrwt>
</event>
<event>
 4    1  0.3168498E+006  0.2301280E+01  0.7546771E-02  0.2803199E+00
         22   -1    0    0    0    0  0.00000000000E+00  0.00000000000E+00  0.56975480568E+02  0.56975480568E+02  0.00000000000E+00 0. -1.
         22   -1    0    0    0    0 -0.00000000000E+00 -0.00000000000E+00 -0.92955195162E-01  0.92955195162E-01  0.00000000000E+00 0.  1.
          4    1    1    2  501    0  0.18838853928E+01 -0.36601334774E+00  0.28647611919E+02  0.28739894895E+02  0.12700000000E+01 0.  1.
         -4    1    1    2    0  501 -0.18838853928E+01  0.36601334774E+00  0.28234913454E+02  0.28328540868E+02  0.12700000000E+01 0. -1.
<mgrwt>
<rscale>  0 0.23012801E+01</rscale>
<asrwt>0</asrwt>
<pdfrwt beam="1">0</pdfrwt>
<pdfrwt beam="2">0</pdfrwt>
<totfact> 0.25366512E+12</totfact>
</mgrwt>
</event>
<event>
 4    1  0.3168498E+006  0.2687835E+01  0.7546771E-02  0.2631097E+00
         22   -1    0    0    0    0  0.00000000000E+00  0.00000000000E+00  0.20762316417E+02  0.20762316417E+02  0.00000000000E+00 0.  1.
         22   -1    0    0    0    0 -0.00000000000E+00 -0.00000000000E+00 -0.42475620938E+00  0.42475620938E+00  0.00000000000E+00 0. -1.
          4    1    1    2  501    0 -0.17990250063E+01  0.15411246847E+01  0.56643391809E+01  0.62697045084E+01  0.12700000000E+01 0. -1.
         -4    1    1    2    0  501  0.17990250063E+01 -0.15411246847E+01  0.14673221027E+02  0.14917368118E+02  0.12700000000E+01 0. -1.
<mgrwt>
<rscale>  0 0.26878349E+01</rscale>
<asrwt>0</asrwt>
<pdfrwt beam="1">0</pdfrwt>
<pdfrwt beam="2">0</pdfrwt>
<totfact> 0.17071209E+12</totfact>
</mgrwt>
</event>
<event>
 4    1  0.3168498E+006  0.3385699E+01  0.7546771E-02  0.2412759E+00
         22   -1    0    0    0    0  0.00000000000E+00  0.00000000000E+00  0.75282679305E+01  0.75282679305E+01  0.00000000000E+00 0.  1.
         22   -1    0    0    0    0 -0.00000000000E+00 -0.00000000000E+00 -0.20047074722E+01  0.20047074722E+01  0.00000000000E+00 0. -1.
          4    1    1    2  501    0  0.87078310885E+00  0.30152603974E+01  0.42445089742E+00  0.34122012032E+01  0.12700000000E+01 0. -1.
         -4    1    1    2    0  501 -0.87078310885E+00 -0.30152603974E+01  0.50991095609E+01  0.61207741995E+01  0.12700000000E+01 0.  1.
<mgrwt>
<rscale>  0 0.33856991E+01</rscale>
<asrwt>0</asrwt>
<pdfrwt beam="1">0</pdfrwt>
<pdfrwt beam="2">0</pdfrwt>
<totfact> 0.10043730E+12</totfact>
</mgrwt>
</event>
<event>
 4    1  0.3168498E+006  0.2239829E+01  0.7546771E-02  0.2835678E+00
         22   -1    0    0    0    0  0.00000000000E+00  0.00000000000E+00  0.30757282331E+01  0.30757282331E+01  0.00000000000E+00 0. -1.
         22   -1    0    0    0    0 -0.00000000000E+00 -0.00000000000E+00 -0.17944591933E+01  0.17944591933E+01  0.00000000000E+00 0. -1.
          4    1    1    2  501    0  0.17610287608E+01 -0.55019063037E+00  0.13753439554E+01  0.26283841085E+01  0.12700000000E+01 0. -1.
         -4    1    1    2    0  501 -0.17610287608E+01  0.55019063037E+00 -0.94074915663E-01  0.22418033179E+01  0.12700000000E+01 0. -1.
<mgrwt>
<rscale>  0 0.22398286E+01</rscale>
<asrwt>0</asrwt>
<pdfrwt beam="1">0</pdfrwt>
<pdfrwt beam="2">0</pdfrwt>
<totfact> 0.32918211E+12</totfact>
</mgrwt>
</event>
<event>
 4    1  0.3168498E+006  0.2316392E+01  0.7546771E-02  0.2795463E+00
         22   -1    0    0    0    0  0.00000000000E+00  0.00000000000E+00  0.15782978419E+02  0.15782978419E+02  0.00000000000E+00 0. -1.
         22   -1    0    0    0    0 -0.00000000000E+00 -0.00000000000E+00 -0.49813576343E+00  0.49813576343E+00  0.00000000000E+00 0.  1.
          4    1    1    2  501    0 -0.98959503417E-01  0.19346781888E+01  0.30552782108E+01  0.38341097562E+01  0.12700000000E+01 0.  1.
         -4    1    1    2    0  501  0.98959503417E-01 -0.19346781888E+01  0.12229564445E+02  0.12447004426E+02  0.12700000000E+01 0. -1.
<mgrwt>
<rscale>  0 0.23163922E+01</rscale>
<asrwt>0</asrwt>
<pdfrwt beam="1">0</pdfrwt>
<pdfrwt beam="2">0</pdfrwt>
<totfact> 0.20044520E+12</totfact>
</mgrwt>
</event>
<event>
 4    1  0.3168498E+006  0.2362104E+01  0.7546771E-02  0.2772633E+00
         22   -1    0    0    0    0  0.00000000000E+00  0.00000000000E+00  0.88614380576E+01  0.88614380576E+01  0.00000000000E+00 0.  1.
         22   -1    0    0    0    0 -0.00000000000E+00 -0.00000000000E+00 -0.63398368800E+00  0.63398368800E+00  0.00000000000E+00 0. -1.
          4    1    1    2  501    0  0.19905588369E+01 -0.65651807256E-01  0.45066149772E+01  0.50881345497E+01  0.12700000000E+01 0.  1.
         -4    1    1    2    0  501 -0.19905588369E+01  0.65651807256E-01  0.37208393923E+01  0.44072871958E+01  0.12700000000E+01 0. -1.
<mgrwt>
<rscale>  0 0.23621039E+01</rscale>
<asrwt>0</asrwt>
<pdfrwt beam="1">0</pdfrwt>
<pdfrwt beam="2">0</pdfrwt>
<totfact> 0.30838206E+12</totfact>
</mgrwt>
</event>
<event>
 4    1  0.3168498E+006  0.2302527E+01  0.7546771E-02  0.2802557E+00
         22   -1    0    0    0    0  0.00000000000E+00  0.00000000000E+00  0.26883233660E+01  0.26883233660E+01  0.00000000000E+00 0.  1.
         22   -1    0    0    0    0 -0.00000000000E+00 -0.00000000000E+00 -0.22845625517E+01  0.22845625517E+01  0.00000000000E+00 0. -1.
          4    1    1    2  501    0 -0.28117659685E+00 -0.18999128823E+01 -0.71767815398E+00  0.24117817421E+01  0.12700000000E+01 0. -1.
         -4    1    1    2    0  501  0.28117659685E+00  0.18999128823E+01  0.11214389683E+01  0.25611041756E+01  0.12700000000E+01 0.  1.
<mgrwt>
<rscale>  0 0.23025267E+01</rscale>
<asrwt>0</asrwt>
<pdfrwt beam="1">0</pdfrwt>
<pdfrwt beam="2">0</pdfrwt>
<totfact> 0.29124315E+12</totfact>
</mgrwt>
</event>
<event>
 4    1  0.3168498E+006  0.3067229E+01  0.7546771E-02  0.2501353E+00
         22   -1    0    0    0    0  0.00000000000E+00  0.00000000000E+00  0.17349957927E+02  0.17349957927E+02  0.00000000000E+00 0. -1.
         22   -1    0    0    0    0 -0.00000000000E+00 -0.00000000000E+00 -0.54529796149E+00  0.54529796149E+00  0.00000000000E+00 0.  1.
          4    1    1    2  501    0 -0.23909680810E+01 -0.14416194238E+01  0.77326197711E+01  0.83187320820E+01  0.12700000000E+01 0. -1.
         -4    1    1    2    0  501  0.23909680810E+01  0.14416194238E+01  0.90720401946E+01  0.95765238067E+01  0.12700000000E+01 0.  1.
<mgrwt>
<rscale>  0 0.30672292E+01</rscale>
<asrwt>0</asrwt>
<pdfrwt beam="1">0</pdfrwt>
<pdfrwt beam="2">0</pdfrwt>
<totfact> 0.16099581E+12</totfact>
</mgrwt>
</event>
<event>
 4    1  0.3168498E+006  0.5499549E+01  0.7546771E-02  0.2067707E+00
         22   -1    0    0    0    0  0.00000000000E+00  0.00000000000E+00  0.13051635239E+02  0.13051635239E+02  0.00000000000E+00 0.  1.
         22   -1    0    0    0    0 -0.00000000000E+00 -0.00000000000E+00 -0.95493030107E+01  0.95493030107E+01  0.00000000000E+00 0. -1.
          4    1    1    2  501    0 -0.40408797457E+01 -0.35076238174E+01 -0.80830292504E+01  0.97765226858E+01  0.12700000000E+01 0. -1.
         -4    1    1    2    0  501  0.40408797457E+01  0.35076238174E+01  0.11585361479E+02  0.12824415564E+02  0.12700000000E+01 0.  1.
<mgrwt>
<rscale>  0 0.54995485E+01</rscale>
<asrwt>0</asrwt>
<pdfrwt beam="1">0</pdfrwt>
<pdfrwt beam="2">0</pdfrwt>
<totfact> 0.81675594E+10</totfact>
</mgrwt>
</event>
<event>
 4    1  0.3168498E+006  0.4105085E+01  0.7546771E-02  0.2257646E+00
         22   -1    0    0    0    0  0.00000000000E+00  0.00000000000E+00  0.16519689401E+01  0.16519689401E+01  0.00000000000E+00 0.  1.
         22   -1    0    0    0    0 -0.00000000000E+00 -0.00000000000E+00 -0.41029527948E+02  0.41029527948E+02  0.00000000000E+00 0. -1.
          4    1    1    2  501    0 -0.37775928788E+01  0.98418283785E+00 -0.38187335504E+02  0.38407347170E+02  0.12700000000E+01 0. -1.
         -4    1    1    2    0  501  0.37775928788E+01 -0.98418283785E+00 -0.11902235041E+01  0.42741497173E+01  0.12700000000E+01 0.  1.
<mgrwt>
<rscale>  0 0.41050851E+01</rscale>
<asrwt>0</asrwt>
<pdfrwt beam="1">0</pdfrwt>
<pdfrwt beam="2">0</pdfrwt>
<totfact> 0.15271067E+11</totfact>
</mgrwt>
</event>
<event>
 4    1  0.3168498E+006  0.2121182E+01  0.7546771E-02  0.2903469E+00
         22   -1    0    0    0    0  0.00000000000E+00  0.00000000000E+00  0.10987467350E+02  0.10987467350E+02  0.00000000000E+00 0. -1.
         22   -1    0    0    0    0 -0.00000000000E+00 -0.00000000000E+00 -0.40957461291E+00  0.40957461291E+00  0.00000000000E+00 0. -1.
          4    1    1    2  501    0 -0.15039416674E+01 -0.79036219059E+00  0.53637166654E+01  0.57679172496E+01  0.12700000000E+01 0. -1.
         -4    1    1    2    0  501  0.15039416674E+01  0.79036219059E+00  0.52141760715E+01  0.56291247131E+01  0.12700000000E+01 0. -1.
<mgrwt>
<rscale>  0 0.21211820E+01</rscale>
<asrwt>0</asrwt>
<pdfrwt beam="1">0</pdfrwt>
<pdfrwt beam="2">0</pdfrwt>
<totfact> 0.38937352E+12</totfact>
</mgrwt>
</event>
<event>
 4    1  0.3168498E+006  0.2817530E+01  0.7546771E-02  0.2583189E+00
         22   -1    0    0    0    0  0.00000000000E+00  0.00000000000E+00  0.15776087274E+01  0.15776087274E+01  0.00000000000E+00 0. -1.
         22   -1    0    0    0    0 -0.00000000000E+00 -0.00000000000E+00 -0.25916730440E+02  0.25916730440E+02  0.00000000000E+00 0.  1.
          4    1    1    2  501    0 -0.64149149123E+00 -0.24318848819E+01 -0.24510208780E+02  0.24671619522E+02  0.12700000000E+01 0.  1.
         -4    1    1    2    0  501  0.64149149123E+00  0.24318848819E+01  0.17108706712E+00  0.28227196454E+01  0.12700000000E+01 0. -1.
<mgrwt>
<rscale>  0 0.28175300E+01</rscale>
<asrwt>0</asrwt>
<pdfrwt beam="1">0</pdfrwt>
<pdfrwt beam="2">0</pdfrwt>
<totfact> 0.29008897E+11</totfact>
</mgrwt>
</event>
<event>
 4    1  0.3168498E+006  0.2150238E+01  0.7546771E-02  0.2886202E+00
         22   -1    0    0    0    0  0.00000000000E+00  0.00000000000E+00  0.17394661875E+02  0.17394661875E+02  0.00000000000E+00 0.  1.
         22   -1    0    0    0    0 -0.00000000000E+00 -0.00000000000E+00 -0.17875823957E+01  0.17875823957E+01  0.00000000000E+00 0.  1.
          4    1    1    2  501    0 -0.17962040747E+00  0.17257929480E+01 -0.10458326436E+01  0.23910856757E+01  0.12700000000E+01 0.  1.
         -4    1    1    2    0  501  0.17962040747E+00 -0.17257929480E+01  0.16652912123E+02  0.16791158595E+02  0.12700000000E+01 0.  1.
<mgrwt>
<rscale>  0 0.21502383E+01</rscale>
<asrwt>0</asrwt>
<pdfrwt beam="1">0</pdfrwt>
<pdfrwt beam="2">0</pdfrwt>
<totfact> 0.41354524E+11</totfact>
</mgrwt>
</event>
<event>
 4    1  0.3168498E+006  0.2628523E+01  0.7546771E-02  0.2654444E+00
         22   -1    0    0    0    0  0.00000000000E+00  0.00000000000E+00  0.21449791968E+02  0.21449791968E+02  0.00000000000E+00 0.  1.
         22   -1    0    0    0    0 -0.00000000000E+00 -0.00000000000E+00 -0.11417328611E+01  0.11417328611E+01  0.00000000000E+00 0. -1.
          4    1    1    2  501    0  0.22989709406E+01  0.10471673526E+00  0.58338768258E+00  0.26924847573E+01  0.12700000000E+01 0. -1.
         -4    1    1    2    0  501 -0.22989709406E+01 -0.10471673526E+00  0.19724671425E+02  0.19899040072E+02  0.12700000000E+01 0.  1.
<mgrwt>
<rscale>  0 0.26285230E+01</rscale>
<asrwt>0</asrwt>
<pdfrwt beam="1">0</pdfrwt>
<pdfrwt beam="2">0</pdfrwt>
<totfact> 0.53343505E+11</totfact>
</mgrwt>
</event>
<event>
 4    1  0.3168498E+006  0.2934445E+01  0.7546771E-02  0.2543311E+00
         22   -1    0    0    0    0  0.00000000000E+00  0.00000000000E+00  0.21724780185E+01  0.21724780185E+01  0.00000000000E+00 0. -1.
         22   -1    0    0    0    0 -0.00000000000E+00 -0.00000000000E+00 -0.44379544127E+01  0.44379544127E+01  0.00000000000E+00 0.  1.
          4    1    1    2  501    0  0.19116860149E+01 -0.18285304920E+01 -0.22132557777E+01  0.36755228631E+01  0.12700000000E+01 0.  1.
         -4    1    1    2    0  501 -0.19116860149E+01  0.18285304920E+01 -0.52220616541E-01  0.29349095681E+01  0.12700000000E+01 0. -1.
<mgrwt>
<rscale>  0 0.29344450E+01</rscale>
<asrwt>0</asrwt>
<pdfrwt beam="1">0</pdfrwt>
<pdfrwt beam="2">0</pdfrwt>
<totfact> 0.17155012E+12</totfact>
</mgrwt>
</event>
<event>
 4    1  0.3168498E+006  0.2208534E+01  0.7546771E-02  0.2852880E+00
         22   -1    0    0    0    0  0.00000000000E+00  0.00000000000E+00  0.25233323741E+01  0.25233323741E+01  0.00000000000E+00 0. -1.
         22   -1    0    0    0    0 -0.00000000000E+00 -0.00000000000E+00 -0.56707913358E+01  0.56707913358E+01  0.00000000000E+00 0.  1.
          4    1    1    2  501    0 -0.18062464635E+01 -0.46876800435E-01 -0.49000010333E+01  0.53747217460E+01  0.12700000000E+01 0.  1.
         -4    1    1    2    0  501  0.18062464635E+01  0.46876800435E-01  0.17525420716E+01  0.28194019639E+01  0.12700000000E+01 0. -1.
<mgrwt>
<rscale>  0 0.22085343E+01</rscale>
<asrwt>0</asrwt>
<pdfrwt beam="1">0</pdfrwt>
<pdfrwt beam="2">0</pdfrwt>
<totfact> 0.10784076E+12</totfact>
</mgrwt>
</event>
<event>
 4    1  0.3168498E+006  0.3031776E+01  0.7546771E-02  0.2512233E+00
         22   -1    0    0    0    0  0.00000000000E+00  0.00000000000E+00  0.61635633563E+01  0.61635633563E+01  0.00000000000E+00 0.  1.
         22   -1    0    0    0    0 -0.00000000000E+00 -0.00000000000E+00 -0.26540167050E+01  0.26540167050E+01  0.00000000000E+00 0. -1.
          4    1    1    2  501    0 -0.13859986293E+01  0.23786069221E+01 -0.11633680740E+01  0.32473201822E+01  0.12700000000E+01 0. -1.
         -4    1    1    2    0  501  0.13859986293E+01 -0.23786069221E+01  0.46729147253E+01  0.55702598790E+01  0.12700000000E+01 0.  1.
<mgrwt>
<rscale>  0 0.30317756E+01</rscale>
<asrwt>0</asrwt>
<pdfrwt beam="1">0</pdfrwt>
<pdfrwt beam="2">0</pdfrwt>
<totfact> 0.92092201E+11</totfact>
</mgrwt>
</event>
<event>
 4    1  0.3168498E+006  0.2551356E+01  0.7546771E-02  0.2686313E+00
         22   -1    0    0    0    0  0.00000000000E+00  0.00000000000E+00  0.13583156910E+01  0.13583156910E+01  0.00000000000E+00 0. -1.
         22   -1    0    0    0    0 -0.00000000000E+00 -0.00000000000E+00 -0.50856133669E+01  0.50856133669E+01  0.00000000000E+00 0.  1.
          4    1    1    2  501    0  0.51678899771E-01 -0.22122034780E+01 -0.26374645574E+01  0.36695550450E+01  0.12700000000E+01 0.  1.
         -4    1    1    2    0  501 -0.51678899771E-01  0.22122034780E+01 -0.10898331185E+01  0.27743740128E+01  0.12700000000E+01 0. -1.
<mgrwt>
<rscale>  0 0.25513555E+01</rscale>
<asrwt>0</asrwt>
<pdfrwt beam="1">0</pdfrwt>
<pdfrwt beam="2">0</pdfrwt>
<totfact> 0.25105532E+12</totfact>
</mgrwt>
</event>
<event>
 4    1  0.3168498E+006  0.2451610E+01  0.7546771E-02  0.2730256E+00
         22   -1    0    0    0    0  0.00000000000E+00  0.00000000000E+00  0.36894137333E+01  0.36894137333E+01  0.00000000000E+00 0. -1.
         22   -1    0    0    0    0 -0.00000000000E+00 -0.00000000000E+00 -0.33845055340E+01  0.33845055340E+01  0.00000000000E+00 0.  1.
          4    1    1    2  501    0 -0.97141893845E+00  0.18584502417E+01 -0.23948001111E+01  0.34271649548E+01  0.12700000000E+01 0.  1.
         -4    1    1    2    0  501  0.97141893845E+00 -0.18584502417E+01  0.26997083104E+01  0.36467543126E+01  0.12700000000E+01 0. -1.
<mgrwt>
<rscale>  0 0.24516101E+01</rscale>
<asrwt>0</asrwt>
<pdfrwt beam="1">0</pdfrwt>
<pdfrwt beam="2">0</pdfrwt>
<totfact> 0.12718020E+12</totfact>
</mgrwt>
</event>
<event>
 4    1  0.3168498E+006  0.2533109E+01  0.7546771E-02  0.2694111E+00
         22   -1    0    0    0    0  0.00000000000E+00  0.00000000000E+00  0.16681346450E+01  0.16681346450E+01  0.00000000000E+00 0. -1.
         22   -1    0    0    0    0 -0.00000000000E+00 -0.00000000000E+00 -0.38540012838E+01  0.38540012838E+01  0.00000000000E+00 0.  1.
          4    1    1    2  501    0  0.18073972361E+01  0.12397800508E+01 -0.97190012589E+00  0.27131585280E+01  0.12700000000E+01 0.  1.
         -4    1    1    2    0  501 -0.18073972361E+01 -0.12397800508E+01 -0.12139665130E+01  0.28089774008E+01  0.12700000000E+01 0. -1.
<mgrwt>
<rscale>  0 0.25331086E+01</rscale>
<asrwt>0</asrwt>
<pdfrwt beam="1">0</pdfrwt>
<pdfrwt beam="2">0</pdfrwt>
<totfact> 0.27491590E+12</totfact>
</mgrwt>
</event>
<event>
 4    1  0.3168498E+006  0.2700673E+01  0.7546771E-02  0.2626168E+00
         22   -1    0    0    0    0  0.00000000000E+00  0.00000000000E+00  0.76035803408E+01  0.76035803408E+01  0.00000000000E+00 0. -1.
         22   -1    0    0    0    0 -0.00000000000E+00 -0.00000000000E+00 -0.17407708663E+01  0.17407708663E+01  0.00000000000E+00 0.  1.
          4    1    1    2  501    0  0.18164430472E+01 -0.15431353371E+01 -0.19915780478E+00  0.27080058795E+01  0.12700000000E+01 0.  1.
         -4    1    1    2    0  501 -0.18164430472E+01  0.15431353371E+01  0.60619672793E+01  0.66363453276E+01  0.12700000000E+01 0. -1.
<mgrwt>
<rscale>  0 0.27006725E+01</rscale>
<asrwt>0</asrwt>
<pdfrwt beam="1">0</pdfrwt>
<pdfrwt beam="2">0</pdfrwt>
<totfact> 0.11683290E+12</totfact>
</mgrwt>
</event>
<event>
 4    1  0.3168498E+006  0.2048249E+01  0.7546771E-02  0.2948900E+00
         22   -1    0    0    0    0  0.00000000000E+00  0.00000000000E+00  0.26911471029E+01  0.26911471029E+01  0.00000000000E+00 0. -1.
         22   -1    0    0    0    0 -0.00000000000E+00 -0.00000000000E+00 -0.16315769085E+01  0.16315769085E+01  0.00000000000E+00 0. -1.
          4    1    1    2  501    0 -0.10259628704E+01 -0.12368606484E+01  0.73730728172E-01  0.20495756378E+01  0.12700000000E+01 0. -1.
         -4    1    1    2    0  501  0.10259628704E+01  0.12368606484E+01  0.98583946620E+00  0.22731483735E+01  0.12700000000E+01 0. -1.
<mgrwt>
<rscale>  0 0.20482490E+01</rscale>
<asrwt>0</asrwt>
<pdfrwt beam="1">0</pdfrwt>
<pdfrwt beam="2">0</pdfrwt>
<totfact> 0.42933209E+12</totfact>
</mgrwt>
</event>
<event>
 4    1  0.3168498E+006  0.3962737E+01  0.7546771E-02  0.2284475E+00
         22   -1    0    0    0    0  0.00000000000E+00  0.00000000000E+00  0.93011484451E+00  0.93011484451E+00  0.00000000000E+00 0.  1.
         22   -1    0    0    0    0 -0.00000000000E+00 -0.00000000000E+00 -0.17680901163E+02  0.17680901163E+02  0.00000000000E+00 0. -1.
          4    1    1    2  501    0  0.22443071477E+01  0.30088978636E+01 -0.10351989362E+02  0.11084537188E+02  0.12700000000E+01 0. -1.
         -4    1    1    2    0  501 -0.22443071477E+01 -0.30088978636E+01 -0.63987969565E+01  0.75264788193E+01  0.12700000000E+01 0.  1.
<mgrwt>
<rscale>  0 0.39627365E+01</rscale>
<asrwt>0</asrwt>
<pdfrwt beam="1">0</pdfrwt>
<pdfrwt beam="2">0</pdfrwt>
<totfact> 0.85768079E+11</totfact>
</mgrwt>
</event>
<event>
 4    1  0.3168498E+006  0.2139175E+01  0.7546771E-02  0.2892723E+00
         22   -1    0    0    0    0  0.00000000000E+00  0.00000000000E+00  0.11320105207E+01  0.11320105207E+01  0.00000000000E+00 0.  1.
         22   -1    0    0    0    0 -0.00000000000E+00 -0.00000000000E+00 -0.47277698516E+02  0.47277698516E+02  0.00000000000E+00 0.  1.
          4    1    1    2  501    0  0.69020786458E+00  0.15769538513E+01 -0.46219774440E+02  0.46269251341E+02  0.12700000000E+01 0.  1.
         -4    1    1    2    0  501 -0.69020786458E+00 -0.15769538513E+01  0.74086445057E-01  0.21404576957E+01  0.12700000000E+01 0.  1.
<mgrwt>
<rscale>  0 0.21391752E+01</rscale>
<asrwt>0</asrwt>
<pdfrwt beam="1">0</pdfrwt>
<pdfrwt beam="2">0</pdfrwt>
<totfact> 0.19585296E+11</totfact>
</mgrwt>
</event>
<event>
 4    1  0.3168498E+006  0.2039182E+01  0.7546771E-02  0.2954769E+00
         22   -1    0    0    0    0  0.00000000000E+00  0.00000000000E+00  0.55212184321E+01  0.55212184321E+01  0.00000000000E+00 0.  1.
         22   -1    0    0    0    0 -0.00000000000E+00 -0.00000000000E+00 -0.10996754908E+01  0.10996754908E+01  0.00000000000E+00 0. -1.
          4    1    1    2  501    0  0.78966281110E+00 -0.13862889370E+01  0.35242519681E+00  0.20694124507E+01  0.12700000000E+01 0. -1.
         -4    1    1    2    0  501 -0.78966281110E+00  0.13862889370E+01  0.40691177445E+01  0.45514814721E+01  0.12700000000E+01 0.  1.
<mgrwt>
<rscale>  0 0.20391823E+01</rscale>
<asrwt>0</asrwt>
<pdfrwt beam="1">0</pdfrwt>
<pdfrwt beam="2">0</pdfrwt>
<totfact> 0.29009766E+12</totfact>
</mgrwt>
</event>
<event>
 4    1  0.3168498E+006  0.2283708E+01  0.7546771E-02  0.2812317E+00
         22   -1    0    0    0    0  0.00000000000E+00  0.00000000000E+00  0.16199659464E+01  0.16199659464E+01  0.00000000000E+00 0.  1.
         22   -1    0    0    0    0 -0.00000000000E+00 -0.00000000000E+00 -0.32948739664E+01  0.32948739664E+01  0.00000000000E+00 0. -1.
          4    1    1    2  501    0  0.18179305175E+01 -0.54548312869E+00 -0.46553364049E+00  0.23306747479E+01  0.12700000000E+01 0.  1.
         -4    1    1    2    0  501 -0.18179305175E+01  0.54548312869E+00 -0.12093743794E+01  0.25841651649E+01  0.12700000000E+01 0. -1.
<mgrwt>
<rscale>  0 0.22837082E+01</rscale>
<asrwt>0</asrwt>
<pdfrwt beam="1">0</pdfrwt>
<pdfrwt beam="2">0</pdfrwt>
<totfact> 0.34176056E+12</totfact>
</mgrwt>
</event>
<event>
 4    1  0.3168498E+006  0.2479280E+01  0.7546771E-02  0.2717736E+00
         22   -1    0    0    0    0  0.00000000000E+00  0.00000000000E+00  0.12065591573E+02  0.12065591573E+02  0.00000000000E+00 0. -1.
         22   -1    0    0    0    0 -0.00000000000E+00 -0.00000000000E+00 -0.54295878732E+00  0.54295878732E+00  0.00000000000E+00 0. -1.
          4    1    1    2  501    0 -0.65705759112E+00  0.20253896502E+01  0.41951983780E+01  0.48730398464E+01  0.12700000000E+01 0. -1.
         -4    1    1    2    0  501  0.65705759112E+00 -0.20253896502E+01  0.73274344073E+01  0.77355105136E+01  0.12700000000E+01 0. -1.
<mgrwt>
<rscale>  0 0.24792797E+01</rscale>
<asrwt>0</asrwt>
<pdfrwt beam="1">0</pdfrwt>
<pdfrwt beam="2">0</pdfrwt>
<totfact> 0.25279218E+12</totfact>
</mgrwt>
</event>
<event>
 4    1  0.3168498E+006  0.2148402E+01  0.7546771E-02  0.2887280E+00
         22   -1    0    0    0    0  0.00000000000E+00  0.00000000000E+00  0.49700728368E+00  0.49700728368E+00  0.00000000000E+00 0.  1.
         22   -1    0    0    0    0 -0.00000000000E+00 -0.00000000000E+00 -0.93086061422E+01  0.93086061422E+01  0.00000000000E+00 0. -1.
          4    1    1    2  501    0  0.11992829819E+01 -0.12507811230E+01 -0.46428130947E+01  0.51157938309E+01  0.12700000000E+01 0. -1.
         -4    1    1    2    0  501 -0.11992829819E+01  0.12507811230E+01 -0.41687857638E+01  0.46898195949E+01  0.12700000000E+01 0.  1.
<mgrwt>
<rscale>  0 0.21484025E+01</rscale>
<asrwt>0</asrwt>
<pdfrwt beam="1">0</pdfrwt>
<pdfrwt beam="2">0</pdfrwt>
<totfact> 0.38270114E+12</totfact>
</mgrwt>
</event>
<event>
 4    1  0.3168498E+006  0.2313443E+01  0.7546771E-02  0.2796965E+00
         22   -1    0    0    0    0  0.00000000000E+00  0.00000000000E+00  0.52114320238E+02  0.52114320238E+02  0.00000000000E+00 0. -1.
         22   -1    0    0    0    0 -0.00000000000E+00 -0.00000000000E+00 -0.12106199835E+00  0.12106199835E+00  0.00000000000E+00 0.  1.
          4    1    1    2  501    0 -0.18685683738E+01  0.49756399797E+00  0.15824338924E+02  0.15992552019E+02  0.12700000000E+01 0.  1.
         -4    1    1    2    0  501  0.18685683738E+01 -0.49756399797E+00  0.36168919315E+02  0.36242830217E+02  0.12700000000E+01 0. -1.
<mgrwt>
<rscale>  0 0.23134428E+01</rscale>
<asrwt>0</asrwt>
<pdfrwt beam="1">0</pdfrwt>
<pdfrwt beam="2">0</pdfrwt>
<totfact> 0.21310907E+12</totfact>
</mgrwt>
</event>
<event>
 4    1  0.3168498E+006  0.2133179E+01  0.7546771E-02  0.2896285E+00
         22   -1    0    0    0    0  0.00000000000E+00  0.00000000000E+00  0.52037281595E+01  0.52037281595E+01  0.00000000000E+00 0.  1.
         22   -1    0    0    0    0 -0.00000000000E+00 -0.00000000000E+00 -0.12019419196E+01  0.12019419196E+01  0.00000000000E+00 0. -1.
          4    1    1    2  501    0 -0.62937613937E+00 -0.15941893603E+01  0.36727005451E+01  0.42472559771E+01  0.12700000000E+01 0.  1.
         -4    1    1    2    0  501  0.62937613937E+00  0.15941893603E+01  0.32908569479E+00  0.21584141020E+01  0.12700000000E+01 0. -1.
<mgrwt>
<rscale>  0 0.21331793E+01</rscale>
<asrwt>0</asrwt>
<pdfrwt beam="1">0</pdfrwt>
<pdfrwt beam="2">0</pdfrwt>
<totfact> 0.28109855E+12</totfact>
</mgrwt>
</event>
<event>
 4    1  0.3168498E+006  0.2901652E+01  0.7546771E-02  0.2554203E+00
         22   -1    0    0    0    0  0.00000000000E+00  0.00000000000E+00  0.17361982466E+01  0.17361982466E+01  0.00000000000E+00 0.  1.
         22   -1    0    0    0    0 -0.00000000000E+00 -0.00000000000E+00 -0.74871532545E+01  0.74871532545E+01  0.00000000000E+00 0.  1.
          4    1    1    2  501    0  0.16791128746E+01  0.19968131380E+01 -0.56127277311E+01  0.63184092410E+01  0.12700000000E+01 0.  1.
         -4    1    1    2    0  501 -0.16791128746E+01 -0.19968131380E+01 -0.13822727686E+00  0.29049422600E+01  0.12700000000E+01 0.  1.
<mgrwt>
<rscale>  0 0.29016517E+01</rscale>
<asrwt>0</asrwt>
<pdfrwt beam="1">0</pdfrwt>
<pdfrwt beam="2">0</pdfrwt>
<totfact> 0.11937735E+12</totfact>
</mgrwt>
</event>
<event>
 4    1  0.3168498E+006  0.2739527E+01  0.7546771E-02  0.2611507E+00
         22   -1    0    0    0    0  0.00000000000E+00  0.00000000000E+00  0.16142670495E+02  0.16142670495E+02  0.00000000000E+00 0.  1.
         22   -1    0    0    0    0 -0.00000000000E+00 -0.00000000000E+00 -0.47269185102E+00  0.47269185102E+00  0.00000000000E+00 0. -1.
          4    1    1    2  501    0  0.24019443223E+01 -0.35039033635E+00  0.67695640344E+01  0.73028766339E+01  0.12700000000E+01 0. -1.
         -4    1    1    2    0  501 -0.24019443223E+01  0.35039033635E+00  0.89004146097E+01  0.93124857122E+01  0.12700000000E+01 0. -1.
<mgrwt>
<rscale>  0 0.27395273E+01</rscale>
<asrwt>0</asrwt>
<pdfrwt beam="1">0</pdfrwt>
<pdfrwt beam="2">0</pdfrwt>
<totfact> 0.20684073E+12</totfact>
</mgrwt>
</event>
<event>
 4    1  0.3168498E+006  0.2072771E+01  0.7546771E-02  0.2933278E+00
         22   -1    0    0    0    0  0.00000000000E+00  0.00000000000E+00  0.12463393758E+02  0.12463393758E+02  0.00000000000E+00 0.  1.
         22   -1    0    0    0    0 -0.00000000000E+00 -0.00000000000E+00 -0.89085369793E+00  0.89085369793E+00  0.00000000000E+00 0. -1.
          4    1    1    2  501    0  0.69474983812E+00  0.14835098859E+01  0.55826752493E+00  0.21466349360E+01  0.12700000000E+01 0. -1.
         -4    1    1    2    0  501 -0.69474983812E+00 -0.14835098859E+01  0.11014272535E+02  0.11207612520E+02  0.12700000000E+01 0.  1.
<mgrwt>
<rscale>  0 0.20727708E+01</rscale>
<asrwt>0</asrwt>
<pdfrwt beam="1">0</pdfrwt>
<pdfrwt beam="2">0</pdfrwt>
<totfact> 0.13850271E+12</totfact>
</mgrwt>
</event>
<event>
 4    1  0.3168498E+006  0.2559929E+01  0.7546771E-02  0.2682685E+00
         22   -1    0    0    0    0  0.00000000000E+00  0.00000000000E+00  0.26776686943E+01  0.26776686943E+01  0.00000000000E+00 0.  1.
         22   -1    0    0    0    0 -0.00000000000E+00 -0.00000000000E+00 -0.96776601371E+01  0.96776601371E+01  0.00000000000E+00 0. -1.
          4    1    1    2  501    0 -0.73650580023E+00 -0.20971156518E+01 -0.88396989150E+01  0.92029077882E+01  0.12700000000E+01 0. -1.
         -4    1    1    2    0  501  0.73650580023E+00  0.20971156518E+01  0.18397074722E+01  0.31524210432E+01  0.12700000000E+01 0.  1.
<mgrwt>
<rscale>  0 0.25599287E+01</rscale>
<asrwt>0</asrwt>
<pdfrwt beam="1">0</pdfrwt>
<pdfrwt beam="2">0</pdfrwt>
<totfact> 0.53036301E+11</totfact>
</mgrwt>
</event>
<event>
 4    1  0.3168498E+006  0.3203515E+01  0.7546771E-02  0.2461533E+00
         22   -1    0    0    0    0  0.00000000000E+00  0.00000000000E+00  0.86657422525E+00  0.86657422525E+00  0.00000000000E+00 0. -1.
         22   -1    0    0    0    0 -0.00000000000E+00 -0.00000000000E+00 -0.24951392624E+02  0.24951392624E+02  0.00000000000E+00 0. -1.
          4    1    1    2  501    0  0.14876795974E+01  0.25370100189E+01 -0.21399172453E+02  0.21637631388E+02  0.12700000000E+01 0. -1.
         -4    1    1    2    0  501 -0.14876795974E+01 -0.25370100189E+01 -0.26856459458E+01  0.41803354610E+01  0.12700000000E+01 0. -1.
<mgrwt>
<rscale>  0 0.32035153E+01</rscale>
<asrwt>0</asrwt>
<pdfrwt beam="1">0</pdfrwt>
<pdfrwt beam="2">0</pdfrwt>
<totfact> 0.60442268E+11</totfact>
</mgrwt>
</event>
<event>
 4    1  0.3168498E+006  0.2882802E+01  0.7546771E-02  0.2560565E+00
         22   -1    0    0    0    0  0.00000000000E+00  0.00000000000E+00  0.60284847535E+00  0.60284847535E+00  0.00000000000E+00 0. -1.
         22   -1    0    0    0    0 -0.00000000000E+00 -0.00000000000E+00 -0.23403548741E+02  0.23403548741E+02  0.00000000000E+00 0.  1.
          4    1    1    2  501    0 -0.25770157003E+01  0.23798726434E+00 -0.19095203753E+02  0.19311586010E+02  0.12700000000E+01 0.  1.
         -4    1    1    2    0  501  0.25770157003E+01 -0.23798726434E+00 -0.37054965128E+01  0.46948112064E+01  0.12700000000E+01 0. -1.
<mgrwt>
<rscale>  0 0.28828021E+01</rscale>
<asrwt>0</asrwt>
<pdfrwt beam="1">0</pdfrwt>
<pdfrwt beam="2">0</pdfrwt>
<totfact> 0.98933842E+11</totfact>
</mgrwt>
</event>
<event>
 4    1  0.3168498E+006  0.2045449E+01  0.7546771E-02  0.2950707E+00
         22   -1    0    0    0    0  0.00000000000E+00  0.00000000000E+00  0.86518964353E+00  0.86518964353E+00  0.00000000000E+00 0.  1.
         22   -1    0    0    0    0 -0.00000000000E+00 -0.00000000000E+00 -0.55069735190E+01  0.55069735190E+01  0.00000000000E+00 0. -1.
          4    1    1    2  501    0  0.12019985895E+01 -0.10612069569E+01 -0.34332036331E+01  0.39963418273E+01  0.12700000000E+01 0. -1.
         -4    1    1    2    0  501 -0.12019985895E+01  0.10612069569E+01 -0.12085802423E+01  0.23758213352E+01  0.12700000000E+01 0.  1.
<mgrwt>
<rscale>  0 0.20454488E+01</rscale>
<asrwt>0</asrwt>
<pdfrwt beam="1">0</pdfrwt>
<pdfrwt beam="2">0</pdfrwt>
<totfact> 0.38261841E+12</totfact>
</mgrwt>
</event>
<event>
 4    1  0.3168498E+006  0.2630895E+01  0.7546771E-02  0.2653492E+00
         22   -1    0    0    0    0  0.00000000000E+00  0.00000000000E+00  0.40189534462E+01  0.40189534462E+01  0.00000000000E+00 0.  1.
         22   -1    0    0    0    0 -0.00000000000E+00 -0.00000000000E+00 -0.18274408351E+01  0.18274408351E+01  0.00000000000E+00 0. -1.
          4    1    1    2  501    0 -0.19372794126E+01  0.12472595638E+01  0.39439277231E+00  0.26602920142E+01  0.12700000000E+01 0.  1.
         -4    1    1    2    0  501  0.19372794126E+01 -0.12472595638E+01  0.17971198388E+01  0.31861022672E+01  0.12700000000E+01 0.  1.
<mgrwt>
<rscale>  0 0.26308949E+01</rscale>
<asrwt>0</asrwt>
<pdfrwt beam="1">0</pdfrwt>
<pdfrwt beam="2">0</pdfrwt>
<totfact> 0.23554550E+12</totfact>
</mgrwt>
</event>
<event>
 4    1  0.3168498E+006  0.2527261E+01  0.7546771E-02  0.2696632E+00
         22   -1    0    0    0    0  0.00000000000E+00  0.00000000000E+00  0.21750224506E+01  0.21750224506E+01  0.00000000000E+00 0.  1.
         22   -1    0    0    0    0 -0.00000000000E+00 -0.00000000000E+00 -0.52653275443E+01  0.52653275443E+01  0.00000000000E+00 0.  1.
          4    1    1    2  501    0  0.13800024607E+01  0.16940308051E+01  0.92893645855E+00  0.26925768520E+01  0.12700000000E+01 0.  1.
         -4    1    1    2    0  501 -0.13800024607E+01 -0.16940308051E+01 -0.40192415523E+01  0.47477731428E+01  0.12700000000E+01 0.  1.
<mgrwt>
<rscale>  0 0.25272608E+01</rscale>
<asrwt>0</asrwt>
<pdfrwt beam="1">0</pdfrwt>
<pdfrwt beam="2">0</pdfrwt>
<totfact> 0.13995035E+12</totfact>
</mgrwt>
</event>
<event>
 4    1  0.3168498E+006  0.2638961E+01  0.7546771E-02  0.2650266E+00
         22   -1    0    0    0    0  0.00000000000E+00  0.00000000000E+00  0.47287160575E+01  0.47287160575E+01  0.00000000000E+00 0.  1.
         22   -1    0    0    0    0 -0.00000000000E+00 -0.00000000000E+00 -0.15548999098E+01  0.15548999098E+01  0.00000000000E+00 0. -1.
          4    1    1    2  501    0  0.18253229576E+01  0.14210597402E+01  0.23091603392E+01  0.35066132032E+01  0.12700000000E+01 0.  1.
         -4    1    1    2    0  501 -0.18253229576E+01 -0.14210597402E+01  0.86465580856E+00  0.27770027642E+01  0.12700000000E+01 0. -1.
<mgrwt>
<rscale>  0 0.26389609E+01</rscale>
<asrwt>0</asrwt>
<pdfrwt beam="1">0</pdfrwt>
<pdfrwt beam="2">0</pdfrwt>
<totfact> 0.23424124E+12</totfact>
</mgrwt>
</event>
<event>
 4    1  0.3168498E+006  0.2243168E+01  0.7546771E-02  0.2833870E+00
         22   -1    0    0    0    0  0.00000000000E+00  0.00000000000E+00  0.39197756482E+01  0.39197756482E+01  0.00000000000E+00 0.  1.
         22   -1    0    0    0    0 -0.00000000000E+00 -0.00000000000E+00 -0.17633676045E+01  0.17633676045E+01  0.00000000000E+00 0. -1.
          4    1    1    2  501    0  0.18410368646E+01  0.17170923258E+00 -0.40383325913E+00  0.22792283998E+01  0.12700000000E+01 0. -1.
         -4    1    1    2    0  501 -0.18410368646E+01 -0.17170923258E+00  0.25602413028E+01  0.34039148529E+01  0.12700000000E+01 0.  1.
<mgrwt>
<rscale>  0 0.22431676E+01</rscale>
<asrwt>0</asrwt>
<pdfrwt beam="1">0</pdfrwt>
<pdfrwt beam="2">0</pdfrwt>
<totfact> 0.25276986E+12</totfact>
</mgrwt>
</event>
<event>
 4    1  0.3168498E+006  0.2936460E+01  0.7546771E-02  0.2542648E+00
         22   -1    0    0    0    0  0.00000000000E+00  0.00000000000E+00  0.51199231188E+01  0.51199231188E+01  0.00000000000E+00 0. -1.
         22   -1    0    0    0    0 -0.00000000000E+00 -0.00000000000E+00 -0.16938103606E+01  0.16938103606E+01  0.00000000000E+00 0.  1.
          4    1    1    2  501    0  0.18517741752E+01  0.18923082412E+01  0.14559754464E+01  0.32776001245E+01  0.12700000000E+01 0. -1.
         -4    1    1    2    0  501 -0.18517741752E+01 -0.18923082412E+01  0.19701373119E+01  0.35361333549E+01  0.12700000000E+01 0.  1.
<mgrwt>
<rscale>  0 0.29364601E+01</rscale>
<asrwt>0</asrwt>
<pdfrwt beam="1">0</pdfrwt>
<pdfrwt beam="2">0</pdfrwt>
<totfact> 0.19319115E+12</totfact>
</mgrwt>
</event>
<event>
 4    1  0.3168498E+006  0.2665121E+01  0.7546771E-02  0.2639925E+00
         22   -1    0    0    0    0  0.00000000000E+00  0.00000000000E+00  0.13470532283E+02  0.13470532283E+02  0.00000000000E+00 0. -1.
         22   -1    0    0    0    0 -0.00000000000E+00 -0.00000000000E+00 -0.73449176231E+00  0.73449176231E+00  0.00000000000E+00 0.  1.
          4    1    1    2  501    0  0.20536600517E+01 -0.11280302181E+01  0.25956384785E+01  0.37202433915E+01  0.12700000000E+01 0.  1.
         -4    1    1    2    0  501 -0.20536600517E+01  0.11280302181E+01  0.10140402042E+02  0.10484780654E+02  0.12700000000E+01 0. -1.
<mgrwt>
<rscale>  0 0.26651213E+01</rscale>
<asrwt>0</asrwt>
<pdfrwt beam="1">0</pdfrwt>
<pdfrwt beam="2">0</pdfrwt>
<totfact> 0.15688823E+12</totfact>
</mgrwt>
</event>
<event>
 4    1  0.3168498E+006  0.2599474E+01  0.7546771E-02  0.2666236E+00
         22   -1    0    0    0    0  0.00000000000E+00  0.00000000000E+00  0.16008028157E+01  0.16008028157E+01  0.00000000000E+00 0. -1.
         22   -1    0    0    0    0 -0.00000000000E+00 -0.00000000000E+00 -0.44632720895E+01  0.44632720895E+01  0.00000000000E+00 0. -1.
          4    1    1    2  501    0 -0.21078856771E+01  0.83736725976E+00 -0.72507275278E+00  0.26987027350E+01  0.12700000000E+01 0. -1.
         -4    1    1    2    0  501  0.21078856771E+01 -0.83736725976E+00 -0.21373965211E+01  0.33653721702E+01  0.12700000000E+01 0. -1.
<mgrwt>
<rscale>  0 0.25994742E+01</rscale>
<asrwt>0</asrwt>
<pdfrwt beam="1">0</pdfrwt>
<pdfrwt beam="2">0</pdfrwt>
<totfact> 0.24251847E+12</totfact>
</mgrwt>
</event>
<event>
 4    1  0.3168498E+006  0.2600517E+01  0.7546771E-02  0.2665808E+00
         22   -1    0    0    0    0  0.00000000000E+00  0.00000000000E+00  0.85684293711E+01  0.85684293711E+01  0.00000000000E+00 0. -1.
         22   -1    0    0    0    0 -0.00000000000E+00 -0.00000000000E+00 -0.17204858265E+01  0.17204858265E+01  0.00000000000E+00 0.  1.
          4    1    1    2  501    0  0.20959422079E+01  0.86995169058E+00 -0.36082299451E+00  0.26254300441E+01  0.12700000000E+01 0.  1.
         -4    1    1    2    0  501 -0.20959422079E+01 -0.86995169058E+00  0.72087665392E+01  0.76634851536E+01  0.12700000000E+01 0. -1.
<mgrwt>
<rscale>  0 0.26005172E+01</rscale>
<asrwt>0</asrwt>
<pdfrwt beam="1">0</pdfrwt>
<pdfrwt beam="2">0</pdfrwt>
<totfact> 0.10258511E+12</totfact>
</mgrwt>
</event>
<event>
 4    1  0.3168498E+006  0.2148123E+01  0.7546771E-02  0.2887444E+00
         22   -1    0    0    0    0  0.00000000000E+00  0.00000000000E+00  0.15038160735E+00  0.15038160735E+00  0.00000000000E+00 0.  1.
         22   -1    0    0    0    0 -0.00000000000E+00 -0.00000000000E+00 -0.33309797822E+02  0.33309797822E+02  0.00000000000E+00 0.  1.
          4    1    1    2  501    0  0.81690604130E+00  0.15278075722E+01 -0.21276222885E+02  0.21384388972E+02  0.12700000000E+01 0.  1.
         -4    1    1    2    0  501 -0.81690604130E+00 -0.15278075722E+01 -0.11883193330E+02  0.12075790458E+02  0.12700000000E+01 0.  1.
<mgrwt>
<rscale>  0 0.21481228E+01</rscale>
<asrwt>0</asrwt>
<pdfrwt beam="1">0</pdfrwt>
<pdfrwt beam="2">0</pdfrwt>
<totfact> 0.29995937E+12</totfact>
</mgrwt>
</event>
<event>
 4    1  0.3168498E+006  0.3015908E+01  0.7546771E-02  0.2517177E+00
         22   -1    0    0    0    0  0.00000000000E+00  0.00000000000E+00  0.15281237663E+01  0.15281237663E+01  0.00000000000E+00 0. -1.
         22   -1    0    0    0    0 -0.00000000000E+00 -0.00000000000E+00 -0.16587585536E+02  0.16587585536E+02  0.00000000000E+00 0.  1.
          4    1    1    2  501    0 -0.23167416903E+01 -0.14544790358E+01 -0.14782608312E+02  0.15087120661E+02  0.12700000000E+01 0.  1.
         -4    1    1    2    0  501  0.23167416903E+01  0.14544790358E+01 -0.27685345810E+00  0.30285886420E+01  0.12700000000E+01 0. -1.
<mgrwt>
<rscale>  0 0.30159080E+01</rscale>
<asrwt>0</asrwt>
<pdfrwt beam="1">0</pdfrwt>
<pdfrwt beam="2">0</pdfrwt>
<totfact> 0.52554463E+11</totfact>
</mgrwt>
</event>
<event>
 4    1  0.3168498E+006  0.2104353E+01  0.7546771E-02  0.2913681E+00
         22   -1    0    0    0    0  0.00000000000E+00  0.00000000000E+00  0.38912245870E+02  0.38912245870E+02  0.00000000000E+00 0.  1.
         22   -1    0    0    0    0 -0.00000000000E+00 -0.00000000000E+00 -0.10419090273E+01  0.10419090273E+01  0.00000000000E+00 0. -1.
          4    1    1    2  501    0 -0.16705166757E+01 -0.15740418718E+00  0.80625027124E-01  0.21058970623E+01  0.12700000000E+01 0. -1.
         -4    1    1    2    0  501  0.16705166757E+01  0.15740418718E+00  0.37789711816E+02  0.37848257835E+02  0.12700000000E+01 0.  1.
<mgrwt>
<rscale>  0 0.21043531E+01</rscale>
<asrwt>0</asrwt>
<pdfrwt beam="1">0</pdfrwt>
<pdfrwt beam="2">0</pdfrwt>
<totfact> 0.27759919E+11</totfact>
</mgrwt>
</event>
<event>
 4    1  0.3168498E+006  0.2128472E+01  0.7546771E-02  0.2899094E+00
         22   -1    0    0    0    0  0.00000000000E+00  0.00000000000E+00  0.80970804648E+00  0.80970804648E+00  0.00000000000E+00 0.  1.
         22   -1    0    0    0    0 -0.00000000000E+00 -0.00000000000E+00 -0.56072815614E+01  0.56072815614E+01  0.00000000000E+00 0.  1.
          4    1    1    2  501    0  0.14790261015E+01 -0.85438567750E+00 -0.25483667118E+01  0.33203261877E+01  0.12700000000E+01 0.  1.
         -4    1    1    2    0  501 -0.14790261015E+01  0.85438567750E+00 -0.22492068031E+01  0.30966634202E+01  0.12700000000E+01 0.  1.
<mgrwt>
<rscale>  0 0.21284720E+01</rscale>
<asrwt>0</asrwt>
<pdfrwt beam="1">0</pdfrwt>
<pdfrwt beam="2">0</pdfrwt>
<totfact> 0.40386311E+12</totfact>
</mgrwt>
</event>
<event>
 4    1  0.3168498E+006  0.2041841E+01  0.7546771E-02  0.2953043E+00
         22   -1    0    0    0    0  0.00000000000E+00  0.00000000000E+00  0.20654343711E+01  0.20654343711E+01  0.00000000000E+00 0.  1.
         22   -1    0    0    0    0 -0.00000000000E+00 -0.00000000000E+00 -0.20424104162E+01  0.20424104162E+01  0.00000000000E+00 0. -1.
          4    1    1    2  501    0  0.33688759633E+00 -0.15629206602E+01 -0.21064108077E+00  0.20526772536E+01  0.12700000000E+01 0. -1.
         -4    1    1    2    0  501 -0.33688759633E+00  0.15629206602E+01  0.23366503563E+00  0.20551675337E+01  0.12700000000E+01 0.  1.
<mgrwt>
<rscale>  0 0.20418409E+01</rscale>
<asrwt>0</asrwt>
<pdfrwt beam="1">0</pdfrwt>
<pdfrwt beam="2">0</pdfrwt>
<totfact> 0.45042404E+12</totfact>
</mgrwt>
</event>
<event>
 4    1  0.3168498E+006  0.2341619E+01  0.7546771E-02  0.2782759E+00
         22   -1    0    0    0    0  0.00000000000E+00  0.00000000000E+00  0.70460053329E+01  0.70460053329E+01  0.00000000000E+00 0.  1.
         22   -1    0    0    0    0 -0.00000000000E+00 -0.00000000000E+00 -0.80855832023E+00  0.80855832023E+00  0.00000000000E+00 0. -1.
          4    1    1    2  501    0 -0.93854645216E+00  0.17289917173E+01  0.23577051968E+01  0.33229438148E+01  0.12700000000E+01 0. -1.
         -4    1    1    2    0  501  0.93854645216E+00 -0.17289917173E+01  0.38797418158E+01  0.45316198383E+01  0.12700000000E+01 0.  1.
<mgrwt>
<rscale>  0 0.23416195E+01</rscale>
<asrwt>0</asrwt>
<pdfrwt beam="1">0</pdfrwt>
<pdfrwt beam="2">0</pdfrwt>
<totfact> 0.30810994E+12</totfact>
</mgrwt>
</event>
<event>
 4    1  0.3168498E+006  0.2723706E+01  0.7546771E-02  0.2617431E+00
         22   -1    0    0    0    0  0.00000000000E+00  0.00000000000E+00  0.65368654890E+01  0.65368654890E+01  0.00000000000E+00 0.  1.
         22   -1    0    0    0    0 -0.00000000000E+00 -0.00000000000E+00 -0.12078961545E+01  0.12078961545E+01  0.00000000000E+00 0. -1.
          4    1    1    2  501    0  0.10742714125E+01 -0.21567599295E+01  0.17124207245E+01  0.32172903504E+01  0.12700000000E+01 0. -1.
         -4    1    1    2    0  501 -0.10742714125E+01  0.21567599295E+01  0.36165486100E+01  0.45274712930E+01  0.12700000000E+01 0. -1.
<mgrwt>
<rscale>  0 0.27237056E+01</rscale>
<asrwt>0</asrwt>
<pdfrwt beam="1">0</pdfrwt>
<pdfrwt beam="2">0</pdfrwt>
<totfact> 0.21311445E+12</totfact>
</mgrwt>
</event>
<event>
 4    1  0.3168498E+006  0.3549376E+01  0.7546771E-02  0.2372709E+00
         22   -1    0    0    0    0  0.00000000000E+00  0.00000000000E+00  0.18406729713E+02  0.18406729713E+02  0.00000000000E+00 0.  1.
         22   -1    0    0    0    0 -0.00000000000E+00 -0.00000000000E+00 -0.21240940936E+01  0.21240940936E+01  0.00000000000E+00 0. -1.
          4    1    1    2  501    0  0.12181333587E+00  0.33121486829E+01 -0.30992357213E+00  0.35628808578E+01  0.12700000000E+01 0. -1.
         -4    1    1    2    0  501 -0.12181333587E+00 -0.33121486829E+01  0.16592559192E+02  0.16967942949E+02  0.12700000000E+01 0.  1.
<mgrwt>
<rscale>  0 0.35493756E+01</rscale>
<asrwt>0</asrwt>
<pdfrwt beam="1">0</pdfrwt>
<pdfrwt beam="2">0</pdfrwt>
<totfact> 0.31582238E+11</totfact>
</mgrwt>
</event>
<event>
 4    1  0.3168498E+006  0.3719882E+01  0.7546771E-02  0.2334266E+00
         22   -1    0    0    0    0  0.00000000000E+00  0.00000000000E+00  0.82346761801E-01  0.82346761801E-01  0.00000000000E+00 0.  1.
         22   -1    0    0    0    0 -0.00000000000E+00 -0.00000000000E+00 -0.17268517402E+03  0.17268517402E+03  0.00000000000E+00 0. -1.
          4    1    1    2  501    0 -0.50333988204E+00  0.34599525293E+01 -0.10046982237E+03  0.10053866286E+03  0.12700000000E+01 0.  1.
         -4    1    1    2    0  501  0.50333988204E+00 -0.34599525293E+01 -0.72133004893E+02  0.72228857927E+02  0.12700000000E+01 0. -1.
<mgrwt>
<rscale>  0 0.37198821E+01</rscale>
<asrwt>0</asrwt>
<pdfrwt beam="1">0</pdfrwt>
<pdfrwt beam="2">0</pdfrwt>
<totfact> 0.60545815E+11</totfact>
</mgrwt>
</event>
<event>
 4    1  0.3168498E+006  0.2912553E+01  0.7546771E-02  0.2550558E+00
         22   -1    0    0    0    0  0.00000000000E+00  0.00000000000E+00  0.14927379570E+02  0.14927379570E+02  0.00000000000E+00 0. -1.
         22   -1    0    0    0    0 -0.00000000000E+00 -0.00000000000E+00 -0.64936454855E+00  0.64936454855E+00  0.00000000000E+00 0. -1.
          4    1    1    2  501    0  0.65464179374E+00 -0.25380127305E+01  0.43868993930E+01  0.52657241460E+01  0.12700000000E+01 0. -1.
         -4    1    1    2    0  501 -0.65464179374E+00  0.25380127305E+01  0.98911156288E+01  0.10311019973E+02  0.12700000000E+01 0. -1.
<mgrwt>
<rscale>  0 0.29125529E+01</rscale>
<asrwt>0</asrwt>
<pdfrwt beam="1">0</pdfrwt>
<pdfrwt beam="2">0</pdfrwt>
<totfact> 0.15905803E+12</totfact>
</mgrwt>
</event>
<event>
 4    1  0.3168498E+006  0.4435668E+01  0.7546771E-02  0.2201024E+00
         22   -1    0    0    0    0  0.00000000000E+00  0.00000000000E+00  0.27445416959E+01  0.27445416959E+01  0.00000000000E+00 0. -1.
         22   -1    0    0    0    0 -0.00000000000E+00 -0.00000000000E+00 -0.73011908439E+01  0.73011908439E+01  0.00000000000E+00 0.  1.
          4    1    1    2  501    0 -0.41445777684E+01 -0.94059901594E+00 -0.16020307817E+01  0.47161058102E+01  0.12700000000E+01 0. -1.
         -4    1    1    2    0  501  0.41445777684E+01  0.94059901594E+00 -0.29546183662E+01  0.53296267296E+01  0.12700000000E+01 0.  1.
<mgrwt>
<rscale>  0 0.44356681E+01</rscale>
<asrwt>0</asrwt>
<pdfrwt beam="1">0</pdfrwt>
<pdfrwt beam="2">0</pdfrwt>
<totfact> 0.72340346E+11</totfact>
</mgrwt>
</event>
<event>
 4    1  0.3168498E+006  0.3792510E+01  0.7546771E-02  0.2318802E+00
         22   -1    0    0    0    0  0.00000000000E+00  0.00000000000E+00  0.73879815703E+01  0.73879815703E+01  0.00000000000E+00 0. -1.
         22   -1    0    0    0    0 -0.00000000000E+00 -0.00000000000E+00 -0.48706235239E+01  0.48706235239E+01  0.00000000000E+00 0.  1.
          4    1    1    2  501    0  0.29843596460E+01  0.19656633300E+01 -0.34902121991E+01  0.51540970129E+01  0.12700000000E+01 0.  1.
         -4    1    1    2    0  501 -0.29843596460E+01 -0.19656633300E+01  0.60075702455E+01  0.71045080813E+01  0.12700000000E+01 0. -1.
<mgrwt>
<rscale>  0 0.37925104E+01</rscale>
<asrwt>0</asrwt>
<pdfrwt beam="1">0</pdfrwt>
<pdfrwt beam="2">0</pdfrwt>
<totfact> 0.36369779E+11</totfact>
</mgrwt>
</event>
<event>
 4    1  0.3168498E+006  0.3651930E+01  0.7546771E-02  0.2349214E+00
         22   -1    0    0    0    0  0.00000000000E+00  0.00000000000E+00  0.18810801245E+01  0.18810801245E+01  0.00000000000E+00 0. -1.
         22   -1    0    0    0    0 -0.00000000000E+00 -0.00000000000E+00 -0.99270216187E+01  0.99270216187E+01  0.00000000000E+00 0.  1.
          4    1    1    2  501    0 -0.23939882192E+00 -0.34156085673E+01 -0.71793028157E+01  0.80547490712E+01  0.12700000000E+01 0.  1.
         -4    1    1    2    0  501  0.23939882192E+00  0.34156085673E+01 -0.86663867860E+00  0.37533526720E+01  0.12700000000E+01 0. -1.
<mgrwt>
<rscale>  0 0.36519301E+01</rscale>
<asrwt>0</asrwt>
<pdfrwt beam="1">0</pdfrwt>
<pdfrwt beam="2">0</pdfrwt>
<totfact> 0.77475186E+11</totfact>
</mgrwt>
</event>
<event>
 4    1  0.3168498E+006  0.2172932E+01  0.7546771E-02  0.2873026E+00
         22   -1    0    0    0    0  0.00000000000E+00  0.00000000000E+00  0.29140126583E+02  0.29140126583E+02  0.00000000000E+00 0. -1.
         22   -1    0    0    0    0 -0.00000000000E+00 -0.00000000000E+00 -0.46121760174E+00  0.46121760174E+00  0.00000000000E+00 0.  1.
          4    1    1    2  501    0 -0.26620368889E+00 -0.17429485558E+01  0.24188352002E+01  0.32515223816E+01  0.12700000000E+01 0.  1.
         -4    1    1    2    0  501  0.26620368889E+00  0.17429485558E+01  0.26260073781E+02  0.26349821803E+02  0.12700000000E+01 0. -1.
<mgrwt>
<rscale>  0 0.21729321E+01</rscale>
<asrwt>0</asrwt>
<pdfrwt beam="1">0</pdfrwt>
<pdfrwt beam="2">0</pdfrwt>
<totfact> 0.10147616E+12</totfact>
</mgrwt>
</event>
<event>
 4    1  0.3168498E+006  0.2350781E+01  0.7546771E-02  0.2778210E+00
         22   -1    0    0    0    0  0.00000000000E+00  0.00000000000E+00  0.30814189432E+01  0.30814189432E+01  0.00000000000E+00 0. -1.
         22   -1    0    0    0    0 -0.00000000000E+00 -0.00000000000E+00 -0.18454038511E+01  0.18454038511E+01  0.00000000000E+00 0.  1.
          4    1    1    2  501    0  0.52035436684E+00 -0.19085339960E+01  0.20441625648E+00  0.23596518147E+01  0.12700000000E+01 0.  1.
         -4    1    1    2    0  501 -0.52035436684E+00  0.19085339960E+01  0.10315988355E+01  0.25671709796E+01  0.12700000000E+01 0. -1.
<mgrwt>
<rscale>  0 0.23507809E+01</rscale>
<asrwt>0</asrwt>
<pdfrwt beam="1">0</pdfrwt>
<pdfrwt beam="2">0</pdfrwt>
<totfact> 0.31802459E+12</totfact>
</mgrwt>
</event>
<event>
 4    1  0.3168498E+006  0.2535252E+01  0.7546771E-02  0.2693190E+00
         22   -1    0    0    0    0  0.00000000000E+00  0.00000000000E+00  0.10708536280E+02  0.10708536280E+02  0.00000000000E+00 0.  1.
         22   -1    0    0    0    0 -0.00000000000E+00 -0.00000000000E+00 -0.62996563748E+00  0.62996563748E+00  0.00000000000E+00 0. -1.
          4    1    1    2  501    0  0.10414443855E+01  0.19313199787E+01  0.62711455228E+01  0.67642271869E+01  0.12700000000E+01 0.  1.
         -4    1    1    2    0  501 -0.10414443855E+01 -0.19313199787E+01  0.38074251196E+01  0.45742747305E+01  0.12700000000E+01 0.  1.
<mgrwt>
<rscale>  0 0.25352521E+01</rscale>
<asrwt>0</asrwt>
<pdfrwt beam="1">0</pdfrwt>
<pdfrwt beam="2">0</pdfrwt>
<totfact> 0.24703090E+12</totfact>
</mgrwt>
</event>
<event>
 4    1  0.3168498E+006  0.2398794E+01  0.7546771E-02  0.2754903E+00
         22   -1    0    0    0    0  0.00000000000E+00  0.00000000000E+00  0.98761801391E+01  0.98761801391E+01  0.00000000000E+00 0. -1.
         22   -1    0    0    0    0 -0.00000000000E+00 -0.00000000000E+00 -0.60474379543E+00  0.60474379543E+00  0.00000000000E+00 0. -1.
          4    1    1    2  501    0 -0.19740947870E+01  0.49423101192E+00  0.36337356814E+01  0.43541072016E+01  0.12700000000E+01 0. -1.
         -4    1    1    2    0  501  0.19740947870E+01 -0.49423101192E+00  0.56377006623E+01  0.61268167329E+01  0.12700000000E+01 0. -1.
<mgrwt>
<rscale>  0 0.23987944E+01</rscale>
<asrwt>0</asrwt>
<pdfrwt beam="1">0</pdfrwt>
<pdfrwt beam="2">0</pdfrwt>
<totfact> 0.28539445E+12</totfact>
</mgrwt>
</event>
<event>
 4    1  0.3168498E+006  0.2513961E+01  0.7546771E-02  0.2702407E+00
         22   -1    0    0    0    0  0.00000000000E+00  0.00000000000E+00  0.16817654652E+02  0.16817654652E+02  0.00000000000E+00 0. -1.
         22   -1    0    0    0    0 -0.00000000000E+00 -0.00000000000E+00 -0.38701191927E+00  0.38701191927E+00  0.00000000000E+00 0.  1.
          4    1    1    2  501    0 -0.16545580001E+01 -0.14034022462E+01  0.67508531739E+01  0.72037503161E+01  0.12700000000E+01 0.  1.
         -4    1    1    2    0  501  0.16545580001E+01  0.14034022462E+01  0.96797895591E+01  0.10000916255E+02  0.12700000000E+01 0. -1.
<mgrwt>
<rscale>  0 0.25139610E+01</rscale>
<asrwt>0</asrwt>
<pdfrwt beam="1">0</pdfrwt>
<pdfrwt beam="2">0</pdfrwt>
<totfact> 0.24632258E+12</totfact>
</mgrwt>
</event>
<event>
 4    1  0.3168498E+006  0.7284133E+01  0.7546771E-02  0.1920637E+00
         22   -1    0    0    0    0  0.00000000000E+00  0.00000000000E+00  0.73826265116E+02  0.73826265116E+02  0.00000000000E+00 0. -1.
         22   -1    0    0    0    0 -0.00000000000E+00 -0.00000000000E+00 -0.12616999967E+01  0.12616999967E+01  0.00000000000E+00 0.  1.
          4    1    1    2  501    0 -0.67862453548E+01  0.23221908693E+01  0.11652303352E+02  0.13741716409E+02  0.12700000000E+01 0.  1.
         -4    1    1    2    0  501  0.67862453548E+01 -0.23221908693E+01  0.60912261768E+02  0.61346248704E+02  0.12700000000E+01 0. -1.
<mgrwt>
<rscale>  0 0.72841332E+01</rscale>
<asrwt>0</asrwt>
<pdfrwt beam="1">0</pdfrwt>
<pdfrwt beam="2">0</pdfrwt>
<totfact> 0.95318877E+10</totfact>
</mgrwt>
</event>
<event>
 4    1  0.3168498E+006  0.2283692E+01  0.7546771E-02  0.2812325E+00
         22   -1    0    0    0    0  0.00000000000E+00  0.00000000000E+00  0.99120664707E+01  0.99120664707E+01  0.00000000000E+00 0.  1.
         22   -1    0    0    0    0 -0.00000000000E+00 -0.00000000000E+00 -0.65940322302E+00  0.65940322302E+00  0.00000000000E+00 0. -1.
          4    1    1    2  501    0 -0.18274810691E+01 -0.51250499391E+00  0.22502229883E+01  0.32060492703E+01  0.12700000000E+01 0. -1.
         -4    1    1    2    0  501  0.18274810691E+01  0.51250499391E+00  0.70024402594E+01  0.73654204234E+01  0.12700000000E+01 0.  1.
<mgrwt>
<rscale>  0 0.22836918E+01</rscale>
<asrwt>0</asrwt>
<pdfrwt beam="1">0</pdfrwt>
<pdfrwt beam="2">0</pdfrwt>
<totfact> 0.25759923E+12</totfact>
</mgrwt>
</event>
<event>
 4    1  0.3168498E+006  0.2699051E+01  0.7546771E-02  0.2626788E+00
         22   -1    0    0    0    0  0.00000000000E+00  0.00000000000E+00  0.17717250989E+02  0.17717250989E+02  0.00000000000E+00 0.  1.
         22   -1    0    0    0    0 -0.00000000000E+00 -0.00000000000E+00 -0.42597517480E+00  0.42597517480E+00  0.00000000000E+00 0. -1.
          4    1    1    2  501    0  0.23639283588E+01  0.28951596404E+00  0.69546624523E+01  0.74600406570E+01  0.12700000000E+01 0. -1.
         -4    1    1    2    0  501 -0.23639283588E+01 -0.28951596404E+00  0.10336613361E+02  0.10683185506E+02  0.12700000000E+01 0.  1.
<mgrwt>
<rscale>  0 0.26990511E+01</rscale>
<asrwt>0</asrwt>
<pdfrwt beam="1">0</pdfrwt>
<pdfrwt beam="2">0</pdfrwt>
<totfact> 0.20729163E+12</totfact>
</mgrwt>
</event>
<event>
 4    1  0.3168498E+006  0.2307004E+01  0.7546771E-02  0.2800258E+00
         22   -1    0    0    0    0  0.00000000000E+00  0.00000000000E+00  0.22729712127E+02  0.22729712127E+02  0.00000000000E+00 0. -1.
         22   -1    0    0    0    0 -0.00000000000E+00 -0.00000000000E+00 -0.56178061306E+00  0.56178061306E+00  0.00000000000E+00 0. -1.
          4    1    1    2  501    0  0.29043981564E+00 -0.19039466824E+01  0.21904578554E+01  0.31812535064E+01  0.12700000000E+01 0. -1.
         -4    1    1    2    0  501 -0.29043981564E+00  0.19039466824E+01  0.19977473659E+02  0.20110239234E+02  0.12700000000E+01 0. -1.
<mgrwt>
<rscale>  0 0.23070042E+01</rscale>
<asrwt>0</asrwt>
<pdfrwt beam="1">0</pdfrwt>
<pdfrwt beam="2">0</pdfrwt>
<totfact> 0.11115831E+12</totfact>
</mgrwt>
</event>
<event>
 4    1  0.3168498E+006  0.2086616E+01  0.7546771E-02  0.2924616E+00
         22   -1    0    0    0    0  0.00000000000E+00  0.00000000000E+00  0.86235762671E+00  0.86235762671E+00  0.00000000000E+00 0. -1.
         22   -1    0    0    0    0 -0.00000000000E+00 -0.00000000000E+00 -0.58868374960E+01  0.58868374960E+01  0.00000000000E+00 0. -1.
          4    1    1    2  501    0  0.11120763277E+01  0.12265207621E+01 -0.37854026652E+01  0.43224113960E+01  0.12700000000E+01 0. -1.
         -4    1    1    2    0  501 -0.11120763277E+01 -0.12265207621E+01 -0.12390772041E+01  0.24267837267E+01  0.12700000000E+01 0. -1.
<mgrwt>
<rscale>  0 0.20866161E+01</rscale>
<asrwt>0</asrwt>
<pdfrwt beam="1">0</pdfrwt>
<pdfrwt beam="2">0</pdfrwt>
<totfact> 0.35478327E+12</totfact>
</mgrwt>
</event>
<event>
 4    1  0.3168498E+006  0.5234645E+01  0.7546771E-02  0.2095995E+00
         22   -1    0    0    0    0  0.00000000000E+00  0.00000000000E+00  0.17156113865E+02  0.17156113865E+02  0.00000000000E+00 0.  1.
         22   -1    0    0    0    0 -0.00000000000E+00 -0.00000000000E+00 -0.25898442168E+01  0.25898442168E+01  0.00000000000E+00 0. -1.
          4    1    1    2  501    0 -0.37286171257E+01 -0.34476118219E+01  0.11707433333E+01  0.53639680179E+01  0.12700000000E+01 0. -1.
         -4    1    1    2    0  501  0.37286171257E+01  0.34476118219E+01  0.13395526315E+02  0.14381990064E+02  0.12700000000E+01 0.  1.
<mgrwt>
<rscale>  0 0.52346454E+01</rscale>
<asrwt>0</asrwt>
<pdfrwt beam="1">0</pdfrwt>
<pdfrwt beam="2">0</pdfrwt>
<totfact> 0.27373398E+11</totfact>
</mgrwt>
</event>
<event>
 4    1  0.3168498E+006  0.2048040E+01  0.7546771E-02  0.2949035E+00
         22   -1    0    0    0    0  0.00000000000E+00  0.00000000000E+00  0.39581708111E+01  0.39581708111E+01  0.00000000000E+00 0.  1.
         22   -1    0    0    0    0 -0.00000000000E+00 -0.00000000000E+00 -0.11138190401E+01  0.11138190401E+01  0.00000000000E+00 0. -1.
          4    1    1    2  501    0 -0.49098131704E+00 -0.15298710555E+01  0.86316316893E+00  0.22225028136E+01  0.12700000000E+01 0. -1.
         -4    1    1    2    0  501  0.49098131704E+00  0.15298710555E+01  0.19811886021E+01  0.28494870376E+01  0.12700000000E+01 0. -1.
<mgrwt>
<rscale>  0 0.20480401E+01</rscale>
<asrwt>0</asrwt>
<pdfrwt beam="1">0</pdfrwt>
<pdfrwt beam="2">0</pdfrwt>
<totfact> 0.42365870E+12</totfact>
</mgrwt>
</event>
<event>
 4    1  0.3168498E+006  0.2299205E+01  0.7546771E-02  0.2804269E+00
         22   -1    0    0    0    0  0.00000000000E+00  0.00000000000E+00  0.10029074975E+01  0.10029074975E+01  0.00000000000E+00 0.  1.
         22   -1    0    0    0    0 -0.00000000000E+00 -0.00000000000E+00 -0.65462657366E+01  0.65462657366E+01  0.00000000000E+00 0. -1.
          4    1    1    2  501    0  0.15967591226E+01  0.10600955937E+01 -0.44376601391E+01  0.49979165532E+01  0.12700000000E+01 0. -1.
         -4    1    1    2    0  501 -0.15967591226E+01 -0.10600955937E+01 -0.11056981000E+01  0.25512566809E+01  0.12700000000E+01 0.  1.
<mgrwt>
<rscale>  0 0.22992047E+01</rscale>
<asrwt>0</asrwt>
<pdfrwt beam="1">0</pdfrwt>
<pdfrwt beam="2">0</pdfrwt>
<totfact> 0.26317604E+12</totfact>
</mgrwt>
</event>
<event>
 4    1  0.3168498E+006  0.2571792E+01  0.7546771E-02  0.2677701E+00
         22   -1    0    0    0    0  0.00000000000E+00  0.00000000000E+00  0.10145453037E+01  0.10145453037E+01  0.00000000000E+00 0.  1.
         22   -1    0    0    0    0 -0.00000000000E+00 -0.00000000000E+00 -0.65301359974E+01  0.65301359974E+01  0.00000000000E+00 0. -1.
          4    1    1    2  501    0  0.46407293684E+00  0.21876588749E+01 -0.29115345847E+01  0.38847327683E+01  0.12700000000E+01 0. -1.
         -4    1    1    2    0  501 -0.46407293684E+00 -0.21876588749E+01 -0.26040561090E+01  0.36599485327E+01  0.12700000000E+01 0.  1.
<mgrwt>
<rscale>  0 0.25717922E+01</rscale>
<asrwt>0</asrwt>
<pdfrwt beam="1">0</pdfrwt>
<pdfrwt beam="2">0</pdfrwt>
<totfact> 0.26050383E+12</totfact>
</mgrwt>
</event>
<event>
 4    1  0.3168498E+006  0.2324880E+01  0.7546771E-02  0.2791160E+00
         22   -1    0    0    0    0  0.00000000000E+00  0.00000000000E+00  0.37853567147E+01  0.37853567147E+01  0.00000000000E+00 0.  1.
         22   -1    0    0    0    0 -0.00000000000E+00 -0.00000000000E+00 -0.17416744513E+01  0.17416744513E+01  0.00000000000E+00 0. -1.
          4    1    1    2  501    0 -0.19366703037E+01  0.20365653989E+00  0.21948332072E+01  0.31972426650E+01  0.12700000000E+01 0.  1.
         -4    1    1    2    0  501  0.19366703037E+01 -0.20365653989E+00 -0.15115094373E+00  0.23297885010E+01  0.12700000000E+01 0. -1.
<mgrwt>
<rscale>  0 0.23248802E+01</rscale>
<asrwt>0</asrwt>
<pdfrwt beam="1">0</pdfrwt>
<pdfrwt beam="2">0</pdfrwt>
<totfact> 0.26714739E+12</totfact>
</mgrwt>
</event>
<event>
 4    1  0.3168498E+006  0.2518372E+01  0.7546771E-02  0.2700486E+00
         22   -1    0    0    0    0  0.00000000000E+00  0.00000000000E+00  0.74574279143E+01  0.74574279143E+01  0.00000000000E+00 0. -1.
         22   -1    0    0    0    0 -0.00000000000E+00 -0.00000000000E+00 -0.85373252633E+00  0.85373252633E+00  0.00000000000E+00 0.  1.
          4    1    1    2  501    0 -0.21701983603E+01 -0.13977210561E+00  0.35593789487E+01  0.43602036265E+01  0.12700000000E+01 0. -1.
         -4    1    1    2    0  501  0.21701983603E+01  0.13977210561E+00  0.30443164393E+01  0.39509568142E+01  0.12700000000E+01 0.  1.
<mgrwt>
<rscale>  0 0.25183719E+01</rscale>
<asrwt>0</asrwt>
<pdfrwt beam="1">0</pdfrwt>
<pdfrwt beam="2">0</pdfrwt>
<totfact> 0.27059718E+12</totfact>
</mgrwt>
</event>
<event>
 4    1  0.3168498E+006  0.2577012E+01  0.7546771E-02  0.2675522E+00
         22   -1    0    0    0    0  0.00000000000E+00  0.00000000000E+00  0.22732548921E+00  0.22732548921E+00  0.00000000000E+00 0. -1.
         22   -1    0    0    0    0 -0.00000000000E+00 -0.00000000000E+00 -0.29626975546E+02  0.29626975546E+02  0.00000000000E+00 0. -1.
          4    1    1    2  501    0  0.43877000527E+00  0.21989930719E+01 -0.16463100300E+02  0.16663572880E+02  0.12700000000E+01 0. -1.
         -4    1    1    2    0  501 -0.43877000527E+00 -0.21989930719E+01 -0.12936549757E+02  0.13190728155E+02  0.12700000000E+01 0. -1.
<mgrwt>
<rscale>  0 0.25770118E+01</rscale>
<asrwt>0</asrwt>
<pdfrwt beam="1">0</pdfrwt>
<pdfrwt beam="2">0</pdfrwt>
<totfact> 0.21984203E+12</totfact>
</mgrwt>
</event>
<event>
 4    1  0.3168498E+006  0.2013689E+01  0.7546771E-02  0.2971547E+00
         22   -1    0    0    0    0  0.00000000000E+00  0.00000000000E+00  0.11390635986E+01  0.11390635986E+01  0.00000000000E+00 0.  1.
         22   -1    0    0    0    0 -0.00000000000E+00 -0.00000000000E+00 -0.46187632314E+01  0.46187632314E+01  0.00000000000E+00 0.  1.
          4    1    1    2  501    0 -0.47935306037E+00 -0.14873679757E+01 -0.31182884141E+01  0.37119624844E+01  0.12700000000E+01 0.  1.
         -4    1    1    2    0  501  0.47935306037E+00  0.14873679757E+01 -0.36141121867E+00  0.20458643456E+01  0.12700000000E+01 0.  1.
<mgrwt>
<rscale>  0 0.20136889E+01</rscale>
<asrwt>0</asrwt>
<pdfrwt beam="1">0</pdfrwt>
<pdfrwt beam="2">0</pdfrwt>
<totfact> 0.34423178E+12</totfact>
</mgrwt>
</event>
<event>
 4    1  0.3168498E+006  0.2004369E+01  0.7546771E-02  0.2977785E+00
         22   -1    0    0    0    0  0.00000000000E+00  0.00000000000E+00  0.49567123890E+00  0.49567123890E+00  0.00000000000E+00 0. -1.
         22   -1    0    0    0    0 -0.00000000000E+00 -0.00000000000E+00 -0.82200241444E+01  0.82200241444E+01  0.00000000000E+00 0. -1.
          4    1    1    2  501    0 -0.70482425214E+00  0.13812372603E+01 -0.43773243705E+01  0.48144015454E+01  0.12700000000E+01 0. -1.
         -4    1    1    2    0  501  0.70482425214E+00 -0.13812372603E+01 -0.33470285350E+01  0.39012938379E+01  0.12700000000E+01 0. -1.
<mgrwt>
<rscale>  0 0.20043686E+01</rscale>
<asrwt>0</asrwt>
<pdfrwt beam="1">0</pdfrwt>
<pdfrwt beam="2">0</pdfrwt>
<totfact> 0.44591411E+12</totfact>
</mgrwt>
</event>
<event>
 4    1  0.3168498E+006  0.2131929E+01  0.7546771E-02  0.2897030E+00
         22   -1    0    0    0    0  0.00000000000E+00  0.00000000000E+00  0.25310856039E+00  0.25310856039E+00  0.00000000000E+00 0.  1.
         22   -1    0    0    0    0 -0.00000000000E+00 -0.00000000000E+00 -0.19935138264E+02  0.19935138264E+02  0.00000000000E+00 0. -1.
          4    1    1    2  501    0  0.15952040192E+01  0.62253188627E+00 -0.13020560141E+02  0.13193942102E+02  0.12700000000E+01 0.  1.
         -4    1    1    2    0  501 -0.15952040192E+01 -0.62253188627E+00 -0.66614695624E+01  0.69943047219E+01  0.12700000000E+01 0. -1.
<mgrwt>
<rscale>  0 0.21319291E+01</rscale>
<asrwt>0</asrwt>
<pdfrwt beam="1">0</pdfrwt>
<pdfrwt beam="2">0</pdfrwt>
<totfact> 0.32111886E+12</totfact>
</mgrwt>
</event>
<event>
 4    1  0.3168498E+006  0.3247087E+01  0.7546771E-02  0.2449429E+00
         22   -1    0    0    0    0  0.00000000000E+00  0.00000000000E+00  0.19966339497E+02  0.19966339497E+02  0.00000000000E+00 0. -1.
         22   -1    0    0    0    0 -0.00000000000E+00 -0.00000000000E+00 -0.21547871327E+01  0.21547871327E+01  0.00000000000E+00 0.  1.
          4    1    1    2  501    0  0.15815998145E+01 -0.25355897386E+01 -0.70440166314E+00  0.33226126766E+01  0.12700000000E+01 0.  1.
         -4    1    1    2    0  501 -0.15815998145E+01  0.25355897386E+01  0.18515954027E+02  0.18798513953E+02  0.12700000000E+01 0. -1.
<mgrwt>
<rscale>  0 0.32470869E+01</rscale>
<asrwt>0</asrwt>
<pdfrwt beam="1">0</pdfrwt>
<pdfrwt beam="2">0</pdfrwt>
<totfact> 0.28071398E+11</totfact>
</mgrwt>
</event>
<event>
 4    1  0.3168498E+006  0.4032955E+01  0.7546771E-02  0.2271039E+00
         22   -1    0    0    0    0  0.00000000000E+00  0.00000000000E+00  0.12894492809E+02  0.12894492809E+02  0.00000000000E+00 0. -1.
         22   -1    0    0    0    0 -0.00000000000E+00 -0.00000000000E+00 -0.17183821383E+01  0.17183821383E+01  0.00000000000E+00 0.  1.
          4    1    1    2  501    0  0.90079128141E+00 -0.37202685120E+01  0.18200648312E+01  0.44246309139E+01  0.12700000000E+01 0.  1.
         -4    1    1    2    0  501 -0.90079128141E+00  0.37202685120E+01  0.93560458400E+01  0.10188244034E+02  0.12700000000E+01 0. -1.
<mgrwt>
<rscale>  0 0.40329546E+01</rscale>
<asrwt>0</asrwt>
<pdfrwt beam="1">0</pdfrwt>
<pdfrwt beam="2">0</pdfrwt>
<totfact> 0.62567387E+11</totfact>
</mgrwt>
</event>
<event>
 4    1  0.3168498E+006  0.3221123E+01  0.7546771E-02  0.2456607E+00
         22   -1    0    0    0    0  0.00000000000E+00  0.00000000000E+00  0.31451396801E+00  0.31451396801E+00  0.00000000000E+00 0. -1.
         22   -1    0    0    0    0 -0.00000000000E+00 -0.00000000000E+00 -0.34621488322E+02  0.34621488322E+02  0.00000000000E+00 0. -1.
          4    1    1    2  501    0  0.20143781477E+01  0.21691049675E+01 -0.20946100284E+02  0.21192327686E+02  0.12700000000E+01 0. -1.
         -4    1    1    2    0  501 -0.20143781477E+01 -0.21691049675E+01 -0.13360874070E+02  0.13743674603E+02  0.12700000000E+01 0. -1.
<mgrwt>
<rscale>  0 0.32211234E+01</rscale>
<asrwt>0</asrwt>
<pdfrwt beam="1">0</pdfrwt>
<pdfrwt beam="2">0</pdfrwt>
<totfact> 0.12522842E+12</totfact>
</mgrwt>
</event>
<event>
 4    1  0.3168498E+006  0.3624939E+01  0.7546771E-02  0.2355286E+00
         22   -1    0    0    0    0  0.00000000000E+00  0.00000000000E+00  0.72884654877E+01  0.72884654877E+01  0.00000000000E+00 0. -1.
         22   -1    0    0    0    0 -0.00000000000E+00 -0.00000000000E+00 -0.18284951650E+01  0.18284951650E+01  0.00000000000E+00 0.  1.
          4    1    1    2  501    0  0.21994091094E+01 -0.25864812599E+01  0.21903854973E+01  0.42353245879E+01  0.12700000000E+01 0. -1.
         -4    1    1    2    0  501 -0.21994091094E+01  0.25864812599E+01  0.32695848255E+01  0.48816360648E+01  0.12700000000E+01 0.  1.
<mgrwt>
<rscale>  0 0.36249394E+01</rscale>
<asrwt>0</asrwt>
<pdfrwt beam="1">0</pdfrwt>
<pdfrwt beam="2">0</pdfrwt>
<totfact> 0.11613116E+12</totfact>
</mgrwt>
</event>
<event>
 4    1  0.3168498E+006  0.2264584E+01  0.7546771E-02  0.2822392E+00
         22   -1    0    0    0    0  0.00000000000E+00  0.00000000000E+00  0.28138474955E+00  0.28138474955E+00  0.00000000000E+00 0.  1.
         22   -1    0    0    0    0 -0.00000000000E+00 -0.00000000000E+00 -0.27180913338E+02  0.27180913338E+02  0.00000000000E+00 0. -1.
          4    1    1    2  501    0 -0.14433883519E+01 -0.11966912688E+01 -0.21331483081E+02  0.21451352180E+02  0.12700000000E+01 0. -1.
         -4    1    1    2    0  501  0.14433883519E+01  0.11966912688E+01 -0.55680455073E+01  0.60109459071E+01  0.12700000000E+01 0.  1.
<mgrwt>
<rscale>  0 0.22645838E+01</rscale>
<asrwt>0</asrwt>
<pdfrwt beam="1">0</pdfrwt>
<pdfrwt beam="2">0</pdfrwt>
<totfact> 0.19318586E+12</totfact>
</mgrwt>
</event>
<event>
 4    1  0.3168498E+006  0.3103403E+01  0.7546771E-02  0.2490480E+00
         22   -1    0    0    0    0  0.00000000000E+00  0.00000000000E+00  0.36628296446E+02  0.36628296446E+02  0.00000000000E+00 0.  1.
         22   -1    0    0    0    0 -0.00000000000E+00 -0.00000000000E+00 -0.52511695848E+00  0.52511695848E+00  0.00000000000E+00 0. -1.
          4    1    1    2  501    0 -0.38161695729E+00 -0.28058112266E+01  0.49254652652E+01  0.58216248780E+01  0.12700000000E+01 0. -1.
         -4    1    1    2    0  501  0.38161695729E+00  0.28058112266E+01  0.31177714223E+02  0.31331788527E+02  0.12700000000E+01 0.  1.
<mgrwt>
<rscale>  0 0.31034027E+01</rscale>
<asrwt>0</asrwt>
<pdfrwt beam="1">0</pdfrwt>
<pdfrwt beam="2">0</pdfrwt>
<totfact> 0.65394284E+11</totfact>
</mgrwt>
</event>
<event>
 4    1  0.3168498E+006  0.2950115E+01  0.7546771E-02  0.2538183E+00
         22   -1    0    0    0    0  0.00000000000E+00  0.00000000000E+00  0.18199802500E+00  0.18199802500E+00  0.00000000000E+00 0. -1.
         22   -1    0    0    0    0 -0.00000000000E+00 -0.00000000000E+00 -0.54970597807E+02  0.54970597807E+02  0.00000000000E+00 0. -1.
          4    1    1    2  501    0  0.21796352036E+01  0.15295318851E+01 -0.37340028240E+02  0.37456386456E+02  0.12700000000E+01 0. -1.
         -4    1    1    2    0  501 -0.21796352036E+01 -0.15295318851E+01 -0.17448571542E+02  0.17696209376E+02  0.12700000000E+01 0. -1.
<mgrwt>
<rscale>  0 0.29501148E+01</rscale>
<asrwt>0</asrwt>
<pdfrwt beam="1">0</pdfrwt>
<pdfrwt beam="2">0</pdfrwt>
<totfact> 0.12619891E+12</totfact>
</mgrwt>
</event>
<event>
 4    1  0.3168498E+006  0.2419109E+01  0.7546771E-02  0.2745303E+00
         22   -1    0    0    0    0  0.00000000000E+00  0.00000000000E+00  0.17834727489E+00  0.17834727489E+00  0.00000000000E+00 0. -1.
         22   -1    0    0    0    0 -0.00000000000E+00 -0.00000000000E+00 -0.36972109289E+02  0.36972109289E+02  0.00000000000E+00 0.  1.
          4    1    1    2  501    0 -0.78654025126E+00 -0.19027728413E+01 -0.24627092605E+02  0.24745621435E+02  0.12700000000E+01 0. -1.
         -4    1    1    2    0  501  0.78654025126E+00  0.19027728413E+01 -0.12166669409E+02  0.12404835128E+02  0.12700000000E+01 0. -1.
<mgrwt>
<rscale>  0 0.24191094E+01</rscale>
<asrwt>0</asrwt>
<pdfrwt beam="1">0</pdfrwt>
<pdfrwt beam="2">0</pdfrwt>
<totfact> 0.21694751E+12</totfact>
</mgrwt>
</event>
<event>
 4    1  0.3168498E+006  0.2399200E+01  0.7546771E-02  0.2754710E+00
         22   -1    0    0    0    0  0.00000000000E+00  0.00000000000E+00  0.76168270834E+01  0.76168270834E+01  0.00000000000E+00 0. -1.
         22   -1    0    0    0    0 -0.00000000000E+00 -0.00000000000E+00 -0.77368003470E+00  0.77368003470E+00  0.00000000000E+00 0. -1.
          4    1    1    2  501    0  0.61187481362E+00  0.19413572636E+01  0.40608346941E+01  0.47166234983E+01  0.12700000000E+01 0. -1.
         -4    1    1    2    0  501 -0.61187481362E+00 -0.19413572636E+01  0.27823123546E+01  0.36738836197E+01  0.12700000000E+01 0. -1.
<mgrwt>
<rscale>  0 0.23991996E+01</rscale>
<asrwt>0</asrwt>
<pdfrwt beam="1">0</pdfrwt>
<pdfrwt beam="2">0</pdfrwt>
<totfact> 0.29509554E+12</totfact>
</mgrwt>
</event>
<event>
 4    1  0.3168498E+006  0.2688530E+01  0.7546771E-02  0.2630829E+00
         22   -1    0    0    0    0  0.00000000000E+00  0.00000000000E+00  0.78337366440E+00  0.78337366440E+00  0.00000000000E+00 0. -1.
         22   -1    0    0    0    0 -0.00000000000E+00 -0.00000000000E+00 -0.10666829731E+02  0.10666829731E+02  0.00000000000E+00 0. -1.
          4    1    1    2  501    0 -0.22128657946E+01 -0.84765381166E+00 -0.70451212803E+01  0.75406847079E+01  0.12700000000E+01 0. -1.
         -4    1    1    2    0  501  0.22128657946E+01  0.84765381166E+00 -0.28383347864E+01  0.39095186877E+01  0.12700000000E+01 0. -1.
<mgrwt>
<rscale>  0 0.26885297E+01</rscale>
<asrwt>0</asrwt>
<pdfrwt beam="1">0</pdfrwt>
<pdfrwt beam="2">0</pdfrwt>
<totfact> 0.19380465E+12</totfact>
</mgrwt>
</event>
<event>
 4    1  0.3168498E+006  0.2328518E+01  0.7546771E-02  0.2789325E+00
         22   -1    0    0    0    0  0.00000000000E+00  0.00000000000E+00  0.92972714908E+00  0.92972714908E+00  0.00000000000E+00 0.  1.
         22   -1    0    0    0    0 -0.00000000000E+00 -0.00000000000E+00 -0.25067262863E+02  0.25067262863E+02  0.00000000000E+00 0.  1.
          4    1    1    2  501    0  0.15416169230E+00 -0.19455919266E+01 -0.23455282298E+02  0.23570580423E+02  0.12700000000E+01 0.  1.
         -4    1    1    2    0  501 -0.15416169230E+00  0.19455919266E+01 -0.68225341571E+00  0.24264095894E+01  0.12700000000E+01 0.  1.
<mgrwt>
<rscale>  0 0.23285175E+01</rscale>
<asrwt>0</asrwt>
<pdfrwt beam="1">0</pdfrwt>
<pdfrwt beam="2">0</pdfrwt>
<totfact> 0.55457477E+11</totfact>
</mgrwt>
</event>
<event>
 4    1  0.3168498E+006  0.2265703E+01  0.7546771E-02  0.2821798E+00
         22   -1    0    0    0    0  0.00000000000E+00  0.00000000000E+00  0.12581019785E+01  0.12581019785E+01  0.00000000000E+00 0. -1.
         22   -1    0    0    0    0 -0.00000000000E+00 -0.00000000000E+00 -0.56440340223E+01  0.56440340223E+01  0.00000000000E+00 0. -1.
          4    1    1    2  501    0 -0.97239833181E+00  0.16046660161E+01 -0.40094960117E+01  0.46053740138E+01  0.12700000000E+01 0. -1.
         -4    1    1    2    0  501  0.97239833181E+00 -0.16046660161E+01 -0.37643603207E+00  0.22967619871E+01  0.12700000000E+01 0. -1.
<mgrwt>
<rscale>  0 0.22657033E+01</rscale>
<asrwt>0</asrwt>
<pdfrwt beam="1">0</pdfrwt>
<pdfrwt beam="2">0</pdfrwt>
<totfact> 0.24225559E+12</totfact>
</mgrwt>
</event>
<event>
 4    1  0.3168498E+006  0.3001517E+01  0.7546771E-02  0.2521701E+00
         22   -1    0    0    0    0  0.00000000000E+00  0.00000000000E+00  0.51121262658E+01  0.51121262658E+01  0.00000000000E+00 0. -1.
         22   -1    0    0    0    0 -0.00000000000E+00 -0.00000000000E+00 -0.38041670547E+01  0.38041670547E+01  0.00000000000E+00 0.  1.
          4    1    1    2  501    0 -0.22146365219E+01 -0.15784762697E+01 -0.26121863509E+01  0.39790224666E+01  0.12700000000E+01 0.  1.
         -4    1    1    2    0  501  0.22146365219E+01  0.15784762697E+01  0.39201455620E+01  0.49372708540E+01  0.12700000000E+01 0. -1.
<mgrwt>
<rscale>  0 0.30015167E+01</rscale>
<asrwt>0</asrwt>
<pdfrwt beam="1">0</pdfrwt>
<pdfrwt beam="2">0</pdfrwt>
<totfact> 0.75475766E+11</totfact>
</mgrwt>
</event>
<event>
 4    1  0.3168498E+006  0.2206242E+01  0.7546771E-02  0.2854158E+00
         22   -1    0    0    0    0  0.00000000000E+00  0.00000000000E+00  0.23384671575E+00  0.23384671575E+00  0.00000000000E+00 0. -1.
         22   -1    0    0    0    0 -0.00000000000E+00 -0.00000000000E+00 -0.23743005569E+02  0.23743005569E+02  0.00000000000E+00 0.  1.
          4    1    1    2  501    0 -0.17001268035E+01  0.60346548107E+00 -0.75445428145E+01  0.78605106714E+01  0.12700000000E+01 0.  1.
         -4    1    1    2    0  501  0.17001268035E+01 -0.60346548107E+00 -0.15964616039E+02  0.16116341613E+02  0.12700000000E+01 0. -1.
<mgrwt>
<rscale>  0 0.22062415E+01</rscale>
<asrwt>0</asrwt>
<pdfrwt beam="1">0</pdfrwt>
<pdfrwt beam="2">0</pdfrwt>
<totfact> 0.28186833E+12</totfact>
</mgrwt>
</event>
<event>
 4    1  0.3168498E+006  0.2435805E+01  0.7546771E-02  0.2737526E+00
         22   -1    0    0    0    0  0.00000000000E+00  0.00000000000E+00  0.25769094692E+01  0.25769094692E+01  0.00000000000E+00 0. -1.
         22   -1    0    0    0    0 -0.00000000000E+00 -0.00000000000E+00 -0.56346746923E+01  0.56346746923E+01  0.00000000000E+00 0.  1.
          4    1    1    2  501    0 -0.12104081140E+01  0.16897220146E+01 -0.46862935359E+01  0.52815239651E+01  0.12700000000E+01 0.  1.
         -4    1    1    2    0  501  0.12104081140E+01 -0.16897220146E+01  0.16285283128E+01  0.29300601964E+01  0.12700000000E+01 0. -1.
<mgrwt>
<rscale>  0 0.24358055E+01</rscale>
<asrwt>0</asrwt>
<pdfrwt beam="1">0</pdfrwt>
<pdfrwt beam="2">0</pdfrwt>
<totfact> 0.10604154E+12</totfact>
</mgrwt>
</event>
<event>
 4    1  0.3168498E+006  0.2174386E+01  0.7546771E-02  0.2872191E+00
         22   -1    0    0    0    0  0.00000000000E+00  0.00000000000E+00  0.40823629591E+01  0.40823629591E+01  0.00000000000E+00 0. -1.
         22   -1    0    0    0    0 -0.00000000000E+00 -0.00000000000E+00 -0.22670147369E+01  0.22670147369E+01  0.00000000000E+00 0.  1.
          4    1    1    2  501    0  0.81572549681E+00 -0.15651339398E+01 -0.13126430905E+01  0.25398787803E+01  0.12700000000E+01 0.  1.
         -4    1    1    2    0  501 -0.81572549681E+00  0.15651339398E+01  0.31279913127E+01  0.38094989156E+01  0.12700000000E+01 0. -1.
<mgrwt>
<rscale>  0 0.21743855E+01</rscale>
<asrwt>0</asrwt>
<pdfrwt beam="1">0</pdfrwt>
<pdfrwt beam="2">0</pdfrwt>
<totfact> 0.18015907E+12</totfact>
</mgrwt>
</event>
<event>
 4    1  0.3168498E+006  0.2250597E+01  0.7546771E-02  0.2829864E+00
         22   -1    0    0    0    0  0.00000000000E+00  0.00000000000E+00  0.64309612578E-01  0.64309612578E-01  0.00000000000E+00 0. -1.
         22   -1    0    0    0    0 -0.00000000000E+00 -0.00000000000E+00 -0.99598119709E+02  0.99598119709E+02  0.00000000000E+00 0. -1.
          4    1    1    2  501    0  0.15132662970E+00  0.18518608350E+01 -0.72558709980E+02  0.72593605657E+02  0.12700000000E+01 0. -1.
         -4    1    1    2    0  501 -0.15132662970E+00 -0.18518608350E+01 -0.26975100117E+02  0.27068823665E+02  0.12700000000E+01 0. -1.
<mgrwt>
<rscale>  0 0.22505973E+01</rscale>
<asrwt>0</asrwt>
<pdfrwt beam="1">0</pdfrwt>
<pdfrwt beam="2">0</pdfrwt>
<totfact> 0.17750508E+12</totfact>
</mgrwt>
</event>
<event>
 4    1  0.3168498E+006  0.2053945E+01  0.7546771E-02  0.2945239E+00
         22   -1    0    0    0    0  0.00000000000E+00  0.00000000000E+00  0.12782584511E+00  0.12782584511E+00  0.00000000000E+00 0. -1.
         22   -1    0    0    0    0 -0.00000000000E+00 -0.00000000000E+00 -0.40404929836E+02  0.40404929836E+02  0.00000000000E+00 0. -1.
          4    1    1    2  501    0 -0.50537234255E+00  0.15330980217E+01 -0.28812542800E+02  0.28885659303E+02  0.12700000000E+01 0. -1.
         -4    1    1    2    0  501  0.50537234255E+00 -0.15330980217E+01 -0.11464561191E+02  0.11647096378E+02  0.12700000000E+01 0. -1.
<mgrwt>
<rscale>  0 0.20539452E+01</rscale>
<asrwt>0</asrwt>
<pdfrwt beam="1">0</pdfrwt>
<pdfrwt beam="2">0</pdfrwt>
<totfact> 0.28004417E+12</totfact>
</mgrwt>
</event>
<event>
 4    1  0.3168498E+006  0.2409526E+01  0.7546771E-02  0.2749813E+00
         22   -1    0    0    0    0  0.00000000000E+00  0.00000000000E+00  0.16344225225E+02  0.16344225225E+02  0.00000000000E+00 0. -1.
         22   -1    0    0    0    0 -0.00000000000E+00 -0.00000000000E+00 -0.15452838728E+01  0.15452838728E+01  0.00000000000E+00 0.  1.
          4    1    1    2  501    0  0.15687676822E+01 -0.13160096575E+01 -0.45016009235E+00  0.24512155287E+01  0.12700000000E+01 0.  1.
         -4    1    1    2    0  501 -0.15687676822E+01  0.13160096575E+01  0.15249101444E+02  0.15438293569E+02  0.12700000000E+01 0. -1.
<mgrwt>
<rscale>  0 0.24095256E+01</rscale>
<asrwt>0</asrwt>
<pdfrwt beam="1">0</pdfrwt>
<pdfrwt beam="2">0</pdfrwt>
<totfact> 0.52837672E+11</totfact>
</mgrwt>
</event>
<event>
 4    1  0.3168498E+006  0.2400347E+01  0.7546771E-02  0.2754163E+00
         22   -1    0    0    0    0  0.00000000000E+00  0.00000000000E+00  0.36750848751E+00  0.36750848751E+00  0.00000000000E+00 0. -1.
         22   -1    0    0    0    0 -0.00000000000E+00 -0.00000000000E+00 -0.16073251994E+02  0.16073251994E+02  0.00000000000E+00 0.  1.
          4    1    1    2  501    0  0.63780616997E-01  0.20358536084E+01 -0.91425209498E+01  0.94523730988E+01  0.12700000000E+01 0.  1.
         -4    1    1    2    0  501 -0.63780616997E-01 -0.20358536084E+01 -0.65632225564E+01  0.69883873824E+01  0.12700000000E+01 0. -1.
<mgrwt>
<rscale>  0 0.24003475E+01</rscale>
<asrwt>0</asrwt>
<pdfrwt beam="1">0</pdfrwt>
<pdfrwt beam="2">0</pdfrwt>
<totfact> 0.27608991E+12</totfact>
</mgrwt>
</event>
<event>
 4    1  0.3168498E+006  0.2142829E+01  0.7546771E-02  0.2890562E+00
         22   -1    0    0    0    0  0.00000000000E+00  0.00000000000E+00  0.76635138566E+01  0.76635138566E+01  0.00000000000E+00 0.  1.
         22   -1    0    0    0    0 -0.00000000000E+00 -0.00000000000E+00 -0.62656741855E+00  0.62656741855E+00  0.00000000000E+00 0. -1.
          4    1    1    2  501    0 -0.20817395737E+00  0.17133242788E+01  0.43852991413E+01  0.48808365103E+01  0.12700000000E+01 0. -1.
         -4    1    1    2    0  501  0.20817395737E+00 -0.17133242788E+01  0.26516472967E+01  0.34092447649E+01  0.12700000000E+01 0. -1.
<mgrwt>
<rscale>  0 0.21428291E+01</rscale>
<asrwt>0</asrwt>
<pdfrwt beam="1">0</pdfrwt>
<pdfrwt beam="2">0</pdfrwt>
<totfact> 0.37215350E+12</totfact>
</mgrwt>
</event>
<event>
 4    1  0.3168498E+006  0.2065155E+01  0.7546771E-02  0.2938092E+00
         22   -1    0    0    0    0  0.00000000000E+00  0.00000000000E+00  0.11495538399E+01  0.11495538399E+01  0.00000000000E+00 0. -1.
         22   -1    0    0    0    0 -0.00000000000E+00 -0.00000000000E+00 -0.44871846913E+01  0.44871846913E+01  0.00000000000E+00 0.  1.
          4    1    1    2  501    0 -0.36736544090E+00  0.15865074801E+01 -0.28417357668E+01  0.35128799467E+01  0.12700000000E+01 0. -1.
         -4    1    1    2    0  501  0.36736544090E+00 -0.15865074801E+01 -0.49589508460E+00  0.21238585844E+01  0.12700000000E+01 0. -1.
<mgrwt>
<rscale>  0 0.20651546E+01</rscale>
<asrwt>0</asrwt>
<pdfrwt beam="1">0</pdfrwt>
<pdfrwt beam="2">0</pdfrwt>
<totfact> 0.35247089E+12</totfact>
</mgrwt>
</event>
<event>
 4    1  0.3168498E+006  0.2208734E+01  0.7546771E-02  0.2852769E+00
         22   -1    0    0    0    0  0.00000000000E+00  0.00000000000E+00  0.40636485504E+01  0.40636485504E+01  0.00000000000E+00 0. -1.
         22   -1    0    0    0    0 -0.00000000000E+00 -0.00000000000E+00 -0.16710022483E+01  0.16710022483E+01  0.00000000000E+00 0.  1.
          4    1    1    2  501    0 -0.36044070267E-01  0.18067387095E+01 -0.32513025430E+00  0.22325352453E+01  0.12700000000E+01 0.  1.
         -4    1    1    2    0  501  0.36044070267E-01 -0.18067387095E+01  0.27177765564E+01  0.35021155534E+01  0.12700000000E+01 0. -1.
<mgrwt>
<rscale>  0 0.22087336E+01</rscale>
<asrwt>0</asrwt>
<pdfrwt beam="1">0</pdfrwt>
<pdfrwt beam="2">0</pdfrwt>
<totfact> 0.25778651E+12</totfact>
</mgrwt>
</event>
<event>
 4    1  0.3168498E+006  0.2408989E+01  0.7546771E-02  0.2750066E+00
         22   -1    0    0    0    0  0.00000000000E+00  0.00000000000E+00  0.87230989700E+01  0.87230989700E+01  0.00000000000E+00 0.  1.
         22   -1    0    0    0    0 -0.00000000000E+00 -0.00000000000E+00 -0.18690949133E+01  0.18690949133E+01  0.00000000000E+00 0. -1.
          4    1    1    2  501    0 -0.49506279407E+00  0.19862634824E+01 -0.82331796059E+00  0.25457969785E+01  0.12700000000E+01 0. -1.
         -4    1    1    2    0  501  0.49506279407E+00 -0.19862634824E+01  0.76773220173E+01  0.80463969048E+01  0.12700000000E+01 0.  1.
<mgrwt>
<rscale>  0 0.24089894E+01</rscale>
<asrwt>0</asrwt>
<pdfrwt beam="1">0</pdfrwt>
<pdfrwt beam="2">0</pdfrwt>
<totfact> 0.91236398E+11</totfact>
</mgrwt>
</event>
<event>
 4    1  0.3168498E+006  0.2277258E+01  0.7546771E-02  0.2815697E+00
         22   -1    0    0    0    0  0.00000000000E+00  0.00000000000E+00  0.57594233546E+01  0.57594233546E+01  0.00000000000E+00 0. -1.
         22   -1    0    0    0    0 -0.00000000000E+00 -0.00000000000E+00 -0.18467199714E+01  0.18467199714E+01  0.00000000000E+00 0.  1.
          4    1    1    2  501    0 -0.15967926742E+01  0.10115609779E+01 -0.76602552084E+00  0.24026438677E+01  0.12700000000E+01 0.  1.
         -4    1    1    2    0  501  0.15967926742E+01 -0.10115609779E+01  0.46787289040E+01  0.52034994584E+01  0.12700000000E+01 0. -1.
<mgrwt>
<rscale>  0 0.22772577E+01</rscale>
<asrwt>0</asrwt>
<pdfrwt beam="1">0</pdfrwt>
<pdfrwt beam="2">0</pdfrwt>
<totfact> 0.15204316E+12</totfact>
</mgrwt>
</event>
<event>
 4    1  0.3168498E+006  0.4078394E+01  0.7546771E-02  0.2262555E+00
         22   -1    0    0    0    0  0.00000000000E+00  0.00000000000E+00  0.11321864022E+01  0.11321864022E+01  0.00000000000E+00 0.  1.
         22   -1    0    0    0    0 -0.00000000000E+00 -0.00000000000E+00 -0.14729353341E+02  0.14729353341E+02  0.00000000000E+00 0. -1.
          4    1    1    2  501    0  0.10804065162E+01 -0.37219774311E+01 -0.72016706656E+01  0.82763128635E+01  0.12700000000E+01 0. -1.
         -4    1    1    2    0  501 -0.10804065162E+01  0.37219774311E+01 -0.63954962734E+01  0.75852268800E+01  0.12700000000E+01 0.  1.
<mgrwt>
<rscale>  0 0.40783936E+01</rscale>
<asrwt>0</asrwt>
<pdfrwt beam="1">0</pdfrwt>
<pdfrwt beam="2">0</pdfrwt>
<totfact> 0.85843495E+11</totfact>
</mgrwt>
</event>
<event>
 4    1  0.3168498E+006  0.3658010E+01  0.7546771E-02  0.2347857E+00
         22   -1    0    0    0    0  0.00000000000E+00  0.00000000000E+00  0.20971047762E+02  0.20971047762E+02  0.00000000000E+00 0.  1.
         22   -1    0    0    0    0 -0.00000000000E+00 -0.00000000000E+00 -0.65107617217E+00  0.65107617217E+00  0.00000000000E+00 0. -1.
          4    1    1    2  501    0  0.22821720799E+01 -0.25612164473E+01  0.86320917082E+01  0.93751824703E+01  0.12700000000E+01 0.  1.
         -4    1    1    2    0  501 -0.22821720799E+01  0.25612164473E+01  0.11687879881E+02  0.12246941464E+02  0.12700000000E+01 0. -1.
<mgrwt>
<rscale>  0 0.36580103E+01</rscale>
<asrwt>0</asrwt>
<pdfrwt beam="1">0</pdfrwt>
<pdfrwt beam="2">0</pdfrwt>
<totfact> 0.10404341E+12</totfact>
</mgrwt>
</event>
<event>
 4    1  0.3168498E+006  0.2439601E+01  0.7546771E-02  0.2735772E+00
         22   -1    0    0    0    0  0.00000000000E+00  0.00000000000E+00  0.27522247752E+01  0.27522247752E+01  0.00000000000E+00 0. -1.
         22   -1    0    0    0    0 -0.00000000000E+00 -0.00000000000E+00 -0.16696497235E+02  0.16696497235E+02  0.00000000000E+00 0.  1.
          4    1    1    2  501    0 -0.20633140521E+01  0.28546378391E+00 -0.16044931196E+02  0.16229339837E+02  0.12700000000E+01 0.  1.
         -4    1    1    2    0  501  0.20633140521E+01 -0.28546378391E+00  0.21006587366E+01  0.32193821732E+01  0.12700000000E+01 0. -1.
<mgrwt>
<rscale>  0 0.24396013E+01</rscale>
<asrwt>0</asrwt>
<pdfrwt beam="1">0</pdfrwt>
<pdfrwt beam="2">0</pdfrwt>
<totfact> 0.26371536E+11</totfact>
</mgrwt>
</event>
<event>
 4    1  0.3168498E+006  0.2217750E+01  0.7546771E-02  0.2847766E+00
         22   -1    0    0    0    0  0.00000000000E+00  0.00000000000E+00  0.36961118683E+01  0.36961118683E+01  0.00000000000E+00 0.  1.
         22   -1    0    0    0    0 -0.00000000000E+00 -0.00000000000E+00 -0.39542863219E+01  0.39542863219E+01  0.00000000000E+00 0. -1.
          4    1    1    2  501    0 -0.93748441642E+00 -0.15577673944E+01 -0.32448735177E+01  0.39303460957E+01  0.12700000000E+01 0. -1.
         -4    1    1    2    0  501  0.93748441642E+00  0.15577673944E+01  0.29866990641E+01  0.37200520945E+01  0.12700000000E+01 0.  1.
<mgrwt>
<rscale>  0 0.22177503E+01</rscale>
<asrwt>0</asrwt>
<pdfrwt beam="1">0</pdfrwt>
<pdfrwt beam="2">0</pdfrwt>
<totfact> 0.10571801E+12</totfact>
</mgrwt>
</event>
<event>
 4    1  0.3168498E+006  0.2283134E+01  0.7546771E-02  0.2812617E+00
         22   -1    0    0    0    0  0.00000000000E+00  0.00000000000E+00  0.35436513335E+01  0.35436513335E+01  0.00000000000E+00 0.  1.
         22   -1    0    0    0    0 -0.00000000000E+00 -0.00000000000E+00 -0.21962293064E+01  0.21962293064E+01  0.00000000000E+00 0.  1.
          4    1    1    2  501    0 -0.12081562476E+01  0.14629280492E+01 -0.97548636769E+00  0.24827955311E+01  0.12700000000E+01 0.  1.
         -4    1    1    2    0  501  0.12081562476E+01 -0.14629280492E+01  0.23229083948E+01  0.32570851089E+01  0.12700000000E+01 0.  1.
<mgrwt>
<rscale>  0 0.22831338E+01</rscale>
<asrwt>0</asrwt>
<pdfrwt beam="1">0</pdfrwt>
<pdfrwt beam="2">0</pdfrwt>
<totfact> 0.22073802E+12</totfact>
</mgrwt>
</event>
<event>
 4    1  0.3168498E+006  0.5841721E+01  0.7546771E-02  0.2034180E+00
         22   -1    0    0    0    0  0.00000000000E+00  0.00000000000E+00  0.36291026945E+01  0.36291026945E+01  0.00000000000E+00 0.  1.
         22   -1    0    0    0    0 -0.00000000000E+00 -0.00000000000E+00 -0.28529601997E+02  0.28529601997E+02  0.00000000000E+00 0. -1.
          4    1    1    2  501    0  0.13486244156E+01 -0.55402179272E+01 -0.25615699280E+02  0.26273365831E+02  0.12700000000E+01 0. -1.
         -4    1    1    2    0  501 -0.13486244156E+01  0.55402179272E+01  0.71519997735E+00  0.58853388605E+01  0.12700000000E+01 0.  1.
<mgrwt>
<rscale>  0 0.58417209E+01</rscale>
<asrwt>0</asrwt>
<pdfrwt beam="1">0</pdfrwt>
<pdfrwt beam="2">0</pdfrwt>
<totfact> 0.97535976E+10</totfact>
</mgrwt>
</event>
<event>
 4    1  0.3168498E+006  0.2167126E+01  0.7546771E-02  0.2876372E+00
         22   -1    0    0    0    0  0.00000000000E+00  0.00000000000E+00  0.82236435560E+01  0.82236435560E+01  0.00000000000E+00 0. -1.
         22   -1    0    0    0    0 -0.00000000000E+00 -0.00000000000E+00 -0.66108641216E+00  0.66108641216E+00  0.00000000000E+00 0. -1.
          4    1    1    2  501    0  0.98532069079E-01 -0.17532333261E+01  0.21422022840E+01  0.30472063091E+01  0.12700000000E+01 0. -1.
         -4    1    1    2    0  501 -0.98532069079E-01  0.17532333261E+01  0.54203548598E+01  0.58375236591E+01  0.12700000000E+01 0. -1.
<mgrwt>
<rscale>  0 0.21671261E+01</rscale>
<asrwt>0</asrwt>
<pdfrwt beam="1">0</pdfrwt>
<pdfrwt beam="2">0</pdfrwt>
<totfact> 0.32175451E+12</totfact>
</mgrwt>
</event>
<event>
 4    1  0.3168498E+006  0.2356352E+01  0.7546771E-02  0.2775460E+00
         22   -1    0    0    0    0  0.00000000000E+00  0.00000000000E+00  0.33995987924E+02  0.33995987924E+02  0.00000000000E+00 0.  1.
         22   -1    0    0    0    0 -0.00000000000E+00 -0.00000000000E+00 -0.91864461846E+01  0.91864461846E+01  0.00000000000E+00 0. -1.
          4    1    1    2  501    0 -0.14996178122E+01 -0.13002466016E+01 -0.89936512654E+01  0.92972123721E+01  0.12700000000E+01 0. -1.
         -4    1    1    2    0  501  0.14996178122E+01  0.13002466016E+01  0.33803193004E+02  0.33885221736E+02  0.12700000000E+01 0.  1.
<mgrwt>
<rscale>  0 0.23563520E+01</rscale>
<asrwt>0</asrwt>
<pdfrwt beam="1">0</pdfrwt>
<pdfrwt beam="2">0</pdfrwt>
<totfact> 0.25829479E+10</totfact>
</mgrwt>
</event>
<event>
 4    1  0.3168498E+006  0.2775570E+01  0.7546771E-02  0.2598242E+00
         22   -1    0    0    0    0  0.00000000000E+00  0.00000000000E+00  0.49857561736E+00  0.49857561736E+00  0.00000000000E+00 0.  1.
         22   -1    0    0    0    0 -0.00000000000E+00 -0.00000000000E+00 -0.32589658300E+02  0.32589658300E+02  0.00000000000E+00 0. -1.
          4    1    1    2  501    0 -0.17992523629E+01 -0.16892534900E+01 -0.28042871562E+02  0.28179894107E+02  0.12700000000E+01 0. -1.
         -4    1    1    2    0  501  0.17992523629E+01  0.16892534900E+01 -0.40482111198E+01  0.49083398099E+01  0.12700000000E+01 0.  1.
<mgrwt>
<rscale>  0 0.27755696E+01</rscale>
<asrwt>0</asrwt>
<pdfrwt beam="1">0</pdfrwt>
<pdfrwt beam="2">0</pdfrwt>
<totfact> 0.80575028E+11</totfact>
</mgrwt>
</event>
<event>
 4    1  0.3168498E+006  0.4010090E+01  0.7546771E-02  0.2275370E+00
         22   -1    0    0    0    0  0.00000000000E+00  0.00000000000E+00  0.47950247923E+01  0.47950247923E+01  0.00000000000E+00 0.  1.
         22   -1    0    0    0    0 -0.00000000000E+00 -0.00000000000E+00 -0.38626216759E+01  0.38626216759E+01  0.00000000000E+00 0. -1.
          4    1    1    2  501    0  0.22377351998E+01 -0.30757869647E+01 -0.11051614220E+01  0.41595920527E+01  0.12700000000E+01 0. -1.
         -4    1    1    2    0  501 -0.22377351998E+01  0.30757869647E+01  0.20375645384E+01  0.44980544155E+01  0.12700000000E+01 0.  1.
<mgrwt>
<rscale>  0 0.40100903E+01</rscale>
<asrwt>0</asrwt>
<pdfrwt beam="1">0</pdfrwt>
<pdfrwt beam="2">0</pdfrwt>
<totfact> 0.79973317E+11</totfact>
</mgrwt>
</event>
<event>
 4    1  0.3168498E+006  0.2272754E+01  0.7546771E-02  0.2818068E+00
         22   -1    0    0    0    0  0.00000000000E+00  0.00000000000E+00  0.19979309428E+02  0.19979309428E+02  0.00000000000E+00 0.  1.
         22   -1    0    0    0    0 -0.00000000000E+00 -0.00000000000E+00 -0.27316013413E+00  0.27316013413E+00  0.00000000000E+00 0. -1.
          4    1    1    2  501    0  0.14190571027E+01  0.12404790884E+01  0.12195922975E+02  0.12405883630E+02  0.12700000000E+01 0. -1.
         -4    1    1    2    0  501 -0.14190571027E+01 -0.12404790884E+01  0.75102263189E+01  0.78465859321E+01  0.12700000000E+01 0.  1.
<mgrwt>
<rscale>  0 0.22727542E+01</rscale>
<asrwt>0</asrwt>
<pdfrwt beam="1">0</pdfrwt>
<pdfrwt beam="2">0</pdfrwt>
<totfact> 0.29404882E+12</totfact>
</mgrwt>
</event>
<event>
 4    1  0.3168498E+006  0.2059366E+01  0.7546771E-02  0.2941773E+00
         22   -1    0    0    0    0  0.00000000000E+00  0.00000000000E+00  0.92285205140E-01  0.92285205140E-01  0.00000000000E+00 0. -1.
         22   -1    0    0    0    0 -0.00000000000E+00 -0.00000000000E+00 -0.46504683024E+02  0.46504683024E+02  0.00000000000E+00 0.  1.
          4    1    1    2  501    0  0.42097546461E-01  0.16205912398E+01 -0.20673735726E+02  0.20776052008E+02  0.12700000000E+01 0.  1.
         -4    1    1    2    0  501 -0.42097546461E-01 -0.16205912398E+01 -0.25738662093E+02  0.25820916221E+02  0.12700000000E+01 0. -1.
<mgrwt>
<rscale>  0 0.20593660E+01</rscale>
<asrwt>0</asrwt>
<pdfrwt beam="1">0</pdfrwt>
<pdfrwt beam="2">0</pdfrwt>
<totfact> 0.33441955E+12</totfact>
</mgrwt>
</event>
<event>
 4    1  0.3168498E+006  0.2469227E+01  0.7546771E-02  0.2722254E+00
         22   -1    0    0    0    0  0.00000000000E+00  0.00000000000E+00  0.49745770032E+01  0.49745770032E+01  0.00000000000E+00 0. -1.
         22   -1    0    0    0    0 -0.00000000000E+00 -0.00000000000E+00 -0.12534851006E+01  0.12534851006E+01  0.00000000000E+00 0. -1.
          4    1    1    2  501    0  0.16822983493E+01  0.12860996888E+01  0.13964843033E+01  0.28367672719E+01  0.12700000000E+01 0. -1.
         -4    1    1    2    0  501 -0.16822983493E+01 -0.12860996888E+01  0.23246075994E+01  0.33912948319E+01  0.12700000000E+01 0. -1.
<mgrwt>
<rscale>  0 0.24692266E+01</rscale>
<asrwt>0</asrwt>
<pdfrwt beam="1">0</pdfrwt>
<pdfrwt beam="2">0</pdfrwt>
<totfact> 0.28258405E+12</totfact>
</mgrwt>
</event>
<event>
 4    1  0.3168498E+006  0.2156867E+01  0.7546771E-02  0.2882326E+00
         22   -1    0    0    0    0  0.00000000000E+00  0.00000000000E+00  0.25937730900E+01  0.25937730900E+01  0.00000000000E+00 0.  1.
         22   -1    0    0    0    0 -0.00000000000E+00 -0.00000000000E+00 -0.49255432264E+01  0.49255432264E+01  0.00000000000E+00 0. -1.
          4    1    1    2  501    0  0.12191903809E+01  0.12460946860E+01 -0.41638827068E+01  0.46893492456E+01  0.12700000000E+01 0. -1.
         -4    1    1    2    0  501 -0.12191903809E+01 -0.12460946860E+01  0.18321125704E+01  0.28299670708E+01  0.12700000000E+01 0.  1.
<mgrwt>
<rscale>  0 0.21568674E+01</rscale>
<asrwt>0</asrwt>
<pdfrwt beam="1">0</pdfrwt>
<pdfrwt beam="2">0</pdfrwt>
<totfact> 0.12343181E+12</totfact>
</mgrwt>
</event>
<event>
 4    1  0.3168498E+006  0.3807100E+01  0.7546771E-02  0.2315757E+00
         22   -1    0    0    0    0  0.00000000000E+00  0.00000000000E+00  0.44202097745E+02  0.44202097745E+02  0.00000000000E+00 0.  1.
         22   -1    0    0    0    0 -0.00000000000E+00 -0.00000000000E+00 -0.36224653581E+00  0.36224653581E+00  0.00000000000E+00 0. -1.
          4    1    1    2  501    0  0.33084227526E+01 -0.13912042350E+01  0.15059098192E+02  0.15532882820E+02  0.12700000000E+01 0. -1.
         -4    1    1    2    0  501 -0.33084227526E+01  0.13912042350E+01  0.28780753017E+02  0.29031461461E+02  0.12700000000E+01 0.  1.
<mgrwt>
<rscale>  0 0.38071000E+01</rscale>
<asrwt>0</asrwt>
<pdfrwt beam="1">0</pdfrwt>
<pdfrwt beam="2">0</pdfrwt>
<totfact> 0.77855827E+11</totfact>
</mgrwt>
</event>
<event>
 4    1  0.3168498E+006  0.2723561E+01  0.7546771E-02  0.2617485E+00
         22   -1    0    0    0    0  0.00000000000E+00  0.00000000000E+00  0.14382016277E+02  0.14382016277E+02  0.00000000000E+00 0.  1.
         22   -1    0    0    0    0 -0.00000000000E+00 -0.00000000000E+00 -0.79841341279E+00  0.79841341279E+00  0.00000000000E+00 0. -1.
          4    1    1    2  501    0 -0.77166516611E+00  0.22824151024E+01  0.22757277637E+01  0.35491862001E+01  0.12700000000E+01 0. -1.
         -4    1    1    2    0  501  0.77166516611E+00 -0.22824151024E+01  0.11307875101E+02  0.11631243490E+02  0.12700000000E+01 0.  1.
<mgrwt>
<rscale>  0 0.27235612E+01</rscale>
<asrwt>0</asrwt>
<pdfrwt beam="1">0</pdfrwt>
<pdfrwt beam="2">0</pdfrwt>
<totfact> 0.13167774E+12</totfact>
</mgrwt>
</event>
<event>
 4    1  0.3168498E+006  0.3053911E+01  0.7546771E-02  0.2505413E+00
         22   -1    0    0    0    0  0.00000000000E+00  0.00000000000E+00  0.36477615379E+00  0.36477615379E+00  0.00000000000E+00 0. -1.
         22   -1    0    0    0    0 -0.00000000000E+00 -0.00000000000E+00 -0.26668207344E+02  0.26668207344E+02  0.00000000000E+00 0.  1.
          4    1    1    2  501    0 -0.27768612408E+01 -0.50151166696E-01 -0.15897870811E+02  0.16188535135E+02  0.12700000000E+01 0.  1.
         -4    1    1    2    0  501  0.27768612408E+01  0.50151166696E-01 -0.10405560379E+02  0.10844448363E+02  0.12700000000E+01 0. -1.
<mgrwt>
<rscale>  0 0.30539112E+01</rscale>
<asrwt>0</asrwt>
<pdfrwt beam="1">0</pdfrwt>
<pdfrwt beam="2">0</pdfrwt>
<totfact> 0.14790095E+12</totfact>
</mgrwt>
</event>
<event>
 4    1  0.3168498E+006  0.2703311E+01  0.7546771E-02  0.2625160E+00
         22   -1    0    0    0    0  0.00000000000E+00  0.00000000000E+00  0.33819470544E+02  0.33819470544E+02  0.00000000000E+00 0.  1.
         22   -1    0    0    0    0 -0.00000000000E+00 -0.00000000000E+00 -0.21821243084E+00  0.21821243084E+00  0.00000000000E+00 0. -1.
          4    1    1    2  501    0 -0.85004013284E+00  0.22298934482E+01  0.15120357152E+02  0.15360113717E+02  0.12700000000E+01 0. -1.
         -4    1    1    2    0  501  0.85004013284E+00 -0.22298934482E+01  0.18480900962E+02  0.18677569258E+02  0.12700000000E+01 0.  1.
<mgrwt>
<rscale>  0 0.27033115E+01</rscale>
<asrwt>0</asrwt>
<pdfrwt beam="1">0</pdfrwt>
<pdfrwt beam="2">0</pdfrwt>
<totfact> 0.19430016E+12</totfact>
</mgrwt>
</event>
<event>
 4    1  0.3168498E+006  0.2432322E+01  0.7546771E-02  0.2739141E+00
         22   -1    0    0    0    0  0.00000000000E+00  0.00000000000E+00  0.85293336551E+00  0.85293336551E+00  0.00000000000E+00 0.  1.
         22   -1    0    0    0    0 -0.00000000000E+00 -0.00000000000E+00 -0.15115944029E+02  0.15115944029E+02  0.00000000000E+00 0.  1.
          4    1    1    2  501    0 -0.17138383517E+01 -0.11687800866E+01 -0.13004969955E+02  0.13230473624E+02  0.12700000000E+01 0.  1.
         -4    1    1    2    0  501  0.17138383517E+01  0.11687800866E+01 -0.12580407088E+01  0.27384037708E+01  0.12700000000E+01 0.  1.
<mgrwt>
<rscale>  0 0.24323217E+01</rscale>
<asrwt>0</asrwt>
<pdfrwt beam="1">0</pdfrwt>
<pdfrwt beam="2">0</pdfrwt>
<totfact> 0.11488708E+12</totfact>
</mgrwt>
</event>
<event>
 4    1  0.3168498E+006  0.2009092E+01  0.7546771E-02  0.2974617E+00
         22   -1    0    0    0    0  0.00000000000E+00  0.00000000000E+00  0.35845796066E+01  0.35845796066E+01  0.00000000000E+00 0. -1.
         22   -1    0    0    0    0 -0.00000000000E+00 -0.00000000000E+00 -0.11580860981E+01  0.11580860981E+01  0.00000000000E+00 0.  1.
          4    1    1    2  501    0 -0.14849784024E+01 -0.46732032850E+00  0.81889937078E+00  0.21695726133E+01  0.12700000000E+01 0. -1.
         -4    1    1    2    0  501  0.14849784024E+01  0.46732032850E+00  0.16075941377E+01  0.25730930913E+01  0.12700000000E+01 0. -1.
<mgrwt>
<rscale>  0 0.20090916E+01</rscale>
<asrwt>0</asrwt>
<pdfrwt beam="1">0</pdfrwt>
<pdfrwt beam="2">0</pdfrwt>
<totfact> 0.45522248E+12</totfact>
</mgrwt>
</event>
<event>
 4    1  0.3168498E+006  0.2006840E+01  0.7546771E-02  0.2976125E+00
         22   -1    0    0    0    0  0.00000000000E+00  0.00000000000E+00  0.11417405928E+01  0.11417405928E+01  0.00000000000E+00 0. -1.
         22   -1    0    0    0    0 -0.00000000000E+00 -0.00000000000E+00 -0.52225828855E+01  0.52225828855E+01  0.00000000000E+00 0. -1.
          4    1    1    2  501    0  0.15489713296E+01  0.12327409342E+00 -0.38533642126E+01  0.43446316803E+01  0.12700000000E+01 0. -1.
         -4    1    1    2    0  501 -0.15489713296E+01 -0.12327409342E+00 -0.22747808016E+00  0.20196917980E+01  0.12700000000E+01 0. -1.
<mgrwt>
<rscale>  0 0.20068405E+01</rscale>
<asrwt>0</asrwt>
<pdfrwt beam="1">0</pdfrwt>
<pdfrwt beam="2">0</pdfrwt>
<totfact> 0.29684946E+12</totfact>
</mgrwt>
</event>
<event>
 4    1  0.3168498E+006  0.3993920E+01  0.7546771E-02  0.2278458E+00
         22   -1    0    0    0    0  0.00000000000E+00  0.00000000000E+00  0.97898507438E+01  0.97898507438E+01  0.00000000000E+00 0.  1.
         22   -1    0    0    0    0 -0.00000000000E+00 -0.00000000000E+00 -0.21378635616E+01  0.21378635616E+01  0.00000000000E+00 0. -1.
          4    1    1    2  501    0  0.20243887974E+01 -0.32000546883E+01  0.91745298416E+00  0.40979409451E+01  0.12700000000E+01 0. -1.
         -4    1    1    2    0  501 -0.20243887974E+01  0.32000546883E+01  0.67345341980E+01  0.78297733604E+01  0.12700000000E+01 0.  1.
<mgrwt>
<rscale>  0 0.39939204E+01</rscale>
<asrwt>0</asrwt>
<pdfrwt beam="1">0</pdfrwt>
<pdfrwt beam="2">0</pdfrwt>
<totfact> 0.67943812E+11</totfact>
</mgrwt>
</event>
<event>
 4    1  0.3168498E+006  0.2187129E+01  0.7546771E-02  0.2864917E+00
         22   -1    0    0    0    0  0.00000000000E+00  0.00000000000E+00  0.13154922575E+01  0.13154922575E+01  0.00000000000E+00 0. -1.
         22   -1    0    0    0    0 -0.00000000000E+00 -0.00000000000E+00 -0.89521775601E+01  0.89521775601E+01  0.00000000000E+00 0. -1.
          4    1    1    2  501    0  0.17582811569E+01 -0.28121431929E+00 -0.77744196951E+01  0.80762080035E+01  0.12700000000E+01 0. -1.
         -4    1    1    2    0  501 -0.17582811569E+01  0.28121431929E+00  0.13773439250E+00  0.21914618142E+01  0.12700000000E+01 0. -1.
<mgrwt>
<rscale>  0 0.21871292E+01</rscale>
<asrwt>0</asrwt>
<pdfrwt beam="1">0</pdfrwt>
<pdfrwt beam="2">0</pdfrwt>
<totfact> 0.13251395E+12</totfact>
</mgrwt>
</event>
<event>
 4    1  0.3168498E+006  0.2324948E+01  0.7546771E-02  0.2791125E+00
         22   -1    0    0    0    0  0.00000000000E+00  0.00000000000E+00  0.12295013546E+01  0.12295013546E+01  0.00000000000E+00 0.  1.
         22   -1    0    0    0    0 -0.00000000000E+00 -0.00000000000E+00 -0.49600898091E+01  0.49600898091E+01  0.00000000000E+00 0. -1.
          4    1    1    2  501    0 -0.17032609691E+00  0.19399675145E+01 -0.82200273370E+00  0.24659832584E+01  0.12700000000E+01 0.  1.
         -4    1    1    2    0  501  0.17032609691E+00 -0.19399675145E+01 -0.29085857208E+01  0.37236079052E+01  0.12700000000E+01 0.  1.
<mgrwt>
<rscale>  0 0.23249484E+01</rscale>
<asrwt>0</asrwt>
<pdfrwt beam="1">0</pdfrwt>
<pdfrwt beam="2">0</pdfrwt>
<totfact> 0.28990739E+12</totfact>
</mgrwt>
</event>
<event>
 4    1  0.3168498E+006  0.2034557E+01  0.7546771E-02  0.2957782E+00
         22   -1    0    0    0    0  0.00000000000E+00  0.00000000000E+00  0.19817493875E+01  0.19817493875E+01  0.00000000000E+00 0.  1.
         22   -1    0    0    0    0 -0.00000000000E+00 -0.00000000000E+00 -0.20946524762E+01  0.20946524762E+01  0.00000000000E+00 0.  1.
          4    1    1    2  501    0 -0.14857603303E+01 -0.56483529563E+00 -0.16444477576E+00  0.20411919935E+01  0.12700000000E+01 0.  1.
         -4    1    1    2    0  501  0.14857603303E+01  0.56483529563E+00  0.51541687147E-01  0.20352098702E+01  0.12700000000E+01 0.  1.
<mgrwt>
<rscale>  0 0.20345571E+01</rscale>
<asrwt>0</asrwt>
<pdfrwt beam="1">0</pdfrwt>
<pdfrwt beam="2">0</pdfrwt>
<totfact> 0.45889295E+12</totfact>
</mgrwt>
</event>
<event>
 4    1  0.3168498E+006  0.3213284E+01  0.7546771E-02  0.2458794E+00
         22   -1    0    0    0    0  0.00000000000E+00  0.00000000000E+00  0.42070829903E+00  0.42070829903E+00  0.00000000000E+00 0. -1.
         22   -1    0    0    0    0 -0.00000000000E+00 -0.00000000000E+00 -0.29336166556E+02  0.29336166556E+02  0.00000000000E+00 0.  1.
          4    1    1    2  501    0 -0.29484342108E+01  0.13794761128E+00 -0.20472149994E+02  0.20722792264E+02  0.12700000000E+01 0.  1.
         -4    1    1    2    0  501  0.29484342108E+01 -0.13794761128E+00 -0.84433082632E+01  0.90340825913E+01  0.12700000000E+01 0. -1.
<mgrwt>
<rscale>  0 0.32132840E+01</rscale>
<asrwt>0</asrwt>
<pdfrwt beam="1">0</pdfrwt>
<pdfrwt beam="2">0</pdfrwt>
<totfact> 0.11160809E+12</totfact>
</mgrwt>
</event>
<event>
 4    1  0.3168498E+006  0.3513267E+01  0.7546771E-02  0.2381264E+00
         22   -1    0    0    0    0  0.00000000000E+00  0.00000000000E+00  0.44464498387E+01  0.44464498387E+01  0.00000000000E+00 0. -1.
         22   -1    0    0    0    0 -0.00000000000E+00 -0.00000000000E+00 -0.28161215493E+01  0.28161215493E+01  0.00000000000E+00 0.  1.
          4    1    1    2  501    0 -0.11275993358E+01 -0.30754946236E+01  0.12489597561E+01  0.37286657016E+01  0.12700000000E+01 0. -1.
         -4    1    1    2    0  501  0.11275993358E+01  0.30754946236E+01  0.38136853332E+00  0.35339056864E+01  0.12700000000E+01 0.  1.
<mgrwt>
<rscale>  0 0.35132673E+01</rscale>
<asrwt>0</asrwt>
<pdfrwt beam="1">0</pdfrwt>
<pdfrwt beam="2">0</pdfrwt>
<totfact> 0.12657760E+12</totfact>
</mgrwt>
</event>
<event>
 4    1  0.3168498E+006  0.3025924E+01  0.7546771E-02  0.2514051E+00
         22   -1    0    0    0    0  0.00000000000E+00  0.00000000000E+00  0.15084617070E+01  0.15084617070E+01  0.00000000000E+00 0.  1.
         22   -1    0    0    0    0 -0.00000000000E+00 -0.00000000000E+00 -0.37992841770E+02  0.37992841770E+02  0.00000000000E+00 0. -1.
          4    1    1    2  501    0  0.19517376347E+01 -0.19323657937E+01 -0.36346499687E+02  0.36472239537E+02  0.12700000000E+01 0. -1.
         -4    1    1    2    0  501 -0.19517376347E+01  0.19323657937E+01 -0.13788037630E+00  0.30290639402E+01  0.12700000000E+01 0.  1.
<mgrwt>
<rscale>  0 0.30259242E+01</rscale>
<asrwt>0</asrwt>
<pdfrwt beam="1">0</pdfrwt>
<pdfrwt beam="2">0</pdfrwt>
<totfact> 0.18733845E+11</totfact>
</mgrwt>
</event>
<event>
 4    1  0.3168498E+006  0.2854818E+01  0.7546771E-02  0.2570150E+00
         22   -1    0    0    0    0  0.00000000000E+00  0.00000000000E+00  0.29548877606E+01  0.29548877606E+01  0.00000000000E+00 0. -1.
         22   -1    0    0    0    0 -0.00000000000E+00 -0.00000000000E+00 -0.52143419294E+01  0.52143419294E+01  0.00000000000E+00 0. -1.
          4    1    1    2  501    0  0.21283027731E+01 -0.14168319529E+01 -0.39331179315E+01  0.48599796440E+01  0.12700000000E+01 0. -1.
         -4    1    1    2    0  501 -0.21283027731E+01  0.14168319529E+01  0.16736637628E+01  0.33092500461E+01  0.12700000000E+01 0. -1.
<mgrwt>
<rscale>  0 0.28548179E+01</rscale>
<asrwt>0</asrwt>
<pdfrwt beam="1">0</pdfrwt>
<pdfrwt beam="2">0</pdfrwt>
<totfact> 0.99115900E+11</totfact>
</mgrwt>
</event>
<event>
 4    1  0.3168498E+006  0.2419988E+01  0.7546771E-02  0.2744891E+00
         22   -1    0    0    0    0  0.00000000000E+00  0.00000000000E+00  0.23479917872E+01  0.23479917872E+01  0.00000000000E+00 0.  1.
         22   -1    0    0    0    0 -0.00000000000E+00 -0.00000000000E+00 -0.49115223567E+01  0.49115223567E+01  0.00000000000E+00 0.  1.
          4    1    1    2  501    0  0.90441239125E+00  0.18508052887E+01 -0.38282291244E+01  0.45289822498E+01  0.12700000000E+01 0.  1.
         -4    1    1    2    0  501 -0.90441239125E+00 -0.18508052887E+01  0.12646985548E+01  0.27305318941E+01  0.12700000000E+01 0.  1.
<mgrwt>
<rscale>  0 0.24199880E+01</rscale>
<asrwt>0</asrwt>
<pdfrwt beam="1">0</pdfrwt>
<pdfrwt beam="2">0</pdfrwt>
<totfact> 0.13905513E+12</totfact>
</mgrwt>
</event>
<event>
 4    1  0.3168498E+006  0.2083111E+01  0.7546771E-02  0.2926798E+00
         22   -1    0    0    0    0  0.00000000000E+00  0.00000000000E+00  0.35072000919E+01  0.35072000919E+01  0.00000000000E+00 0. -1.
         22   -1    0    0    0    0 -0.00000000000E+00 -0.00000000000E+00 -0.17442271479E+01  0.17442271479E+01  0.00000000000E+00 0. -1.
          4    1    1    2  501    0  0.16366621052E+01  0.21860548547E+00 -0.53408478768E+00  0.21504877971E+01  0.12700000000E+01 0. -1.
         -4    1    1    2    0  501 -0.16366621052E+01 -0.21860548547E+00  0.22970577317E+01  0.31009394428E+01  0.12700000000E+01 0. -1.
<mgrwt>
<rscale>  0 0.20831109E+01</rscale>
<asrwt>0</asrwt>
<pdfrwt beam="1">0</pdfrwt>
<pdfrwt beam="2">0</pdfrwt>
<totfact> 0.29167918E+12</totfact>
</mgrwt>
</event>
<event>
 4    1  0.3168498E+006  0.2215222E+01  0.7546771E-02  0.2849165E+00
         22   -1    0    0    0    0  0.00000000000E+00  0.00000000000E+00  0.38258364840E+02  0.38258364840E+02  0.00000000000E+00 0.  1.
         22   -1    0    0    0    0 -0.00000000000E+00 -0.00000000000E+00 -0.13053452027E+00  0.13053452027E+00  0.00000000000E+00 0. -1.
          4    1    1    2  501    0 -0.11864102006E+01  0.13735856583E+01  0.21594880020E+02  0.21708202362E+02  0.12700000000E+01 0.  1.
         -4    1    1    2    0  501  0.11864102006E+01 -0.13735856583E+01  0.16532950300E+02  0.16680696998E+02  0.12700000000E+01 0. -1.
<mgrwt>
<rscale>  0 0.22152216E+01</rscale>
<asrwt>0</asrwt>
<pdfrwt beam="1">0</pdfrwt>
<pdfrwt beam="2">0</pdfrwt>
<totfact> 0.29367993E+12</totfact>
</mgrwt>
</event>
<event>
 4    1  0.3168498E+006  0.2118986E+01  0.7546771E-02  0.2904793E+00
         22   -1    0    0    0    0  0.00000000000E+00  0.00000000000E+00  0.54076980488E+00  0.54076980488E+00  0.00000000000E+00 0.  1.
         22   -1    0    0    0    0 -0.00000000000E+00 -0.00000000000E+00 -0.83050153304E+01  0.83050153304E+01  0.00000000000E+00 0. -1.
          4    1    1    2  501    0 -0.13838904823E+01 -0.98084049484E+00 -0.39481396579E+01  0.44808378347E+01  0.12700000000E+01 0.  1.
         -4    1    1    2    0  501  0.13838904823E+01  0.98084049484E+00 -0.38161058677E+01  0.43649473005E+01  0.12700000000E+01 0. -1.
<mgrwt>
<rscale>  0 0.21189858E+01</rscale>
<asrwt>0</asrwt>
<pdfrwt beam="1">0</pdfrwt>
<pdfrwt beam="2">0</pdfrwt>
<totfact> 0.39917703E+12</totfact>
</mgrwt>
</event>
<event>
 4    1  0.3168498E+006  0.2662256E+01  0.7546771E-02  0.2641049E+00
         22   -1    0    0    0    0  0.00000000000E+00  0.00000000000E+00  0.19784456908E+02  0.19784456908E+02  0.00000000000E+00 0.  1.
         22   -1    0    0    0    0 -0.00000000000E+00 -0.00000000000E+00 -0.38918268068E+00  0.38918268068E+00  0.00000000000E+00 0. -1.
          4    1    1    2  501    0  0.15349066154E+01  0.17660030105E+01  0.12541764144E+02  0.12821211050E+02  0.12700000000E+01 0.  1.
         -4    1    1    2    0  501 -0.15349066154E+01 -0.17660030105E+01  0.68535100833E+01  0.73524285384E+01  0.12700000000E+01 0. -1.
<mgrwt>
<rscale>  0 0.26622556E+01</rscale>
<asrwt>0</asrwt>
<pdfrwt beam="1">0</pdfrwt>
<pdfrwt beam="2">0</pdfrwt>
<totfact> 0.20006675E+12</totfact>
</mgrwt>
</event>
<event>
 4    1  0.3168498E+006  0.2783027E+01  0.7546771E-02  0.2595537E+00
         22   -1    0    0    0    0  0.00000000000E+00  0.00000000000E+00  0.92808007605E+00  0.92808007605E+00  0.00000000000E+00 0. -1.
         22   -1    0    0    0    0 -0.00000000000E+00 -0.00000000000E+00 -0.86304280601E+01  0.86304280601E+01  0.00000000000E+00 0.  1.
          4    1    1    2  501    0 -0.79483930765E+00 -0.23453294439E+01 -0.47196437666E+01  0.54790762916E+01  0.12700000000E+01 0.  1.
         -4    1    1    2    0  501  0.79483930765E+00  0.23453294439E+01 -0.29827042174E+01  0.40794318445E+01  0.12700000000E+01 0. -1.
<mgrwt>
<rscale>  0 0.27830271E+01</rscale>
<asrwt>0</asrwt>
<pdfrwt beam="1">0</pdfrwt>
<pdfrwt beam="2">0</pdfrwt>
<totfact> 0.20642924E+12</totfact>
</mgrwt>
</event>
<event>
 4    1  0.3168498E+006  0.2551209E+01  0.7546771E-02  0.2686375E+00
         22   -1    0    0    0    0  0.00000000000E+00  0.00000000000E+00  0.75902535302E+01  0.75902535302E+01  0.00000000000E+00 0. -1.
         22   -1    0    0    0    0 -0.00000000000E+00 -0.00000000000E+00 -0.86459181298E+00  0.86459181298E+00  0.00000000000E+00 0.  1.
          4    1    1    2  501    0 -0.19490357087E+01 -0.10473907564E+01  0.37456089880E+01  0.45319150788E+01  0.12700000000E+01 0.  1.
         -4    1    1    2    0  501  0.19490357087E+01  0.10473907564E+01  0.29800527292E+01  0.39229302644E+01  0.12700000000E+01 0.  1.
<mgrwt>
<rscale>  0 0.25512090E+01</rscale>
<asrwt>0</asrwt>
<pdfrwt beam="1">0</pdfrwt>
<pdfrwt beam="2">0</pdfrwt>
<totfact> 0.26114367E+12</totfact>
</mgrwt>
</event>
<event>
 4    1  0.3168498E+006  0.2240543E+01  0.7546771E-02  0.2835291E+00
         22   -1    0    0    0    0  0.00000000000E+00  0.00000000000E+00  0.59620806321E+01  0.59620806321E+01  0.00000000000E+00 0. -1.
         22   -1    0    0    0    0 -0.00000000000E+00 -0.00000000000E+00 -0.93070083477E+00  0.93070083477E+00  0.00000000000E+00 0.  1.
          4    1    1    2  501    0 -0.18313498919E+01  0.23084846040E+00  0.14516960804E+01  0.26697293773E+01  0.12700000000E+01 0.  1.
         -4    1    1    2    0  501  0.18313498919E+01 -0.23084846040E+00  0.35796837170E+01  0.42230520896E+01  0.12700000000E+01 0. -1.
<mgrwt>
<rscale>  0 0.22405431E+01</rscale>
<asrwt>0</asrwt>
<pdfrwt beam="1">0</pdfrwt>
<pdfrwt beam="2">0</pdfrwt>
<totfact> 0.32037776E+12</totfact>
</mgrwt>
</event>
<event>
 4    1  0.3168498E+006  0.2368740E+01  0.7546771E-02  0.2769388E+00
         22   -1    0    0    0    0  0.00000000000E+00  0.00000000000E+00  0.14020456988E+01  0.14020456988E+01  0.00000000000E+00 0.  1.
         22   -1    0    0    0    0 -0.00000000000E+00 -0.00000000000E+00 -0.60665513384E+01  0.60665513384E+01  0.00000000000E+00 0. -1.
          4    1    1    2  501    0 -0.70756683077E+00 -0.18701283204E+01 -0.45107406995E+01  0.50948711871E+01  0.12700000000E+01 0. -1.
         -4    1    1    2    0  501  0.70756683077E+00  0.18701283204E+01 -0.15376494019E+00  0.23737258501E+01  0.12700000000E+01 0.  1.
<mgrwt>
<rscale>  0 0.23687403E+01</rscale>
<asrwt>0</asrwt>
<pdfrwt beam="1">0</pdfrwt>
<pdfrwt beam="2">0</pdfrwt>
<totfact> 0.19632762E+12</totfact>
</mgrwt>
</event>
<event>
 4    1  0.3168498E+006  0.2002316E+01  0.7546771E-02  0.2979167E+00
         22   -1    0    0    0    0  0.00000000000E+00  0.00000000000E+00  0.29324145903E+02  0.29324145903E+02  0.00000000000E+00 0.  1.
         22   -1    0    0    0    0 -0.00000000000E+00 -0.00000000000E+00 -0.16696835770E+00  0.16696835770E+00  0.00000000000E+00 0.  1.
          4    1    1    2  501    0  0.62442824210E+00  0.14164955955E+01  0.83026733221E+01  0.85407057493E+01  0.12700000000E+01 0.  1.
         -4    1    1    2    0  501 -0.62442824210E+00 -0.14164955955E+01  0.20854504223E+02  0.20950408512E+02  0.12700000000E+01 0.  1.
<mgrwt>
<rscale>  0 0.20023163E+01</rscale>
<asrwt>0</asrwt>
<pdfrwt beam="1">0</pdfrwt>
<pdfrwt beam="2">0</pdfrwt>
<totfact> 0.31419235E+12</totfact>
</mgrwt>
</event>
<event>
 4    1  0.3168498E+006  0.2498254E+01  0.7546771E-02  0.2709300E+00
         22   -1    0    0    0    0  0.00000000000E+00  0.00000000000E+00  0.15603186666E+02  0.15603186666E+02  0.00000000000E+00 0. -1.
         22   -1    0    0    0    0 -0.00000000000E+00 -0.00000000000E+00 -0.56354177887E+00  0.56354177887E+00  0.00000000000E+00 0.  1.
          4    1    1    2  501    0  0.21272124255E+01  0.32146899288E+00  0.31652710818E+01  0.40323958186E+01  0.12700000000E+01 0.  1.
         -4    1    1    2    0  501 -0.21272124255E+01 -0.32146899288E+00  0.11874373806E+02  0.12134332627E+02  0.12700000000E+01 0. -1.
<mgrwt>
<rscale>  0 0.24982544E+01</rscale>
<asrwt>0</asrwt>
<pdfrwt beam="1">0</pdfrwt>
<pdfrwt beam="2">0</pdfrwt>
<totfact> 0.17684165E+12</totfact>
</mgrwt>
</event>
<event>
 4    1  0.3168498E+006  0.2002610E+01  0.7546771E-02  0.2978969E+00
         22   -1    0    0    0    0  0.00000000000E+00  0.00000000000E+00  0.14046516387E+00  0.14046516387E+00  0.00000000000E+00 0.  1.
         22   -1    0    0    0    0 -0.00000000000E+00 -0.00000000000E+00 -0.29172581250E+02  0.29172581250E+02  0.00000000000E+00 0. -1.
          4    1    1    2  501    0  0.88502351841E+00  0.12705424770E+01 -0.12376948705E+02  0.12537914662E+02  0.12700000000E+01 0. -1.
         -4    1    1    2    0  501 -0.88502351841E+00 -0.12705424770E+01 -0.16655167381E+02  0.16775131752E+02  0.12700000000E+01 0.  1.
<mgrwt>
<rscale>  0 0.20026095E+01</rscale>
<asrwt>0</asrwt>
<pdfrwt beam="1">0</pdfrwt>
<pdfrwt beam="2">0</pdfrwt>
<totfact> 0.38330098E+12</totfact>
</mgrwt>
</event>
<event>
 4    1  0.3168498E+006  0.3318251E+01  0.7546771E-02  0.2430266E+00
         22   -1    0    0    0    0  0.00000000000E+00  0.00000000000E+00  0.28497019096E+00  0.28497019096E+00  0.00000000000E+00 0. -1.
         22   -1    0    0    0    0 -0.00000000000E+00 -0.00000000000E+00 -0.50738720921E+02  0.50738720921E+02  0.00000000000E+00 0.  1.
          4    1    1    2  501    0 -0.14593154195E+01  0.26959763834E+01 -0.37685517022E+02  0.37831322782E+02  0.12700000000E+01 0.  1.
         -4    1    1    2    0  501  0.14593154195E+01 -0.26959763834E+01 -0.12768233708E+02  0.13192368331E+02  0.12700000000E+01 0. -1.
<mgrwt>
<rscale>  0 0.33182511E+01</rscale>
<asrwt>0</asrwt>
<pdfrwt beam="1">0</pdfrwt>
<pdfrwt beam="2">0</pdfrwt>
<totfact> 0.85027040E+11</totfact>
</mgrwt>
</event>
<event>
 4    1  0.3168498E+006  0.2303786E+01  0.7546771E-02  0.2801910E+00
         22   -1    0    0    0    0  0.00000000000E+00  0.00000000000E+00  0.89904280566E-01  0.89904280566E-01  0.00000000000E+00 0.  1.
         22   -1    0    0    0    0 -0.00000000000E+00 -0.00000000000E+00 -0.10818731191E+03  0.10818731191E+03  0.00000000000E+00 0. -1.
          4    1    1    2  501    0  0.13174741184E+01  0.13995679241E+01 -0.90540427152E+02  0.90569732125E+02  0.12700000000E+01 0. -1.
         -4    1    1    2    0  501 -0.13174741184E+01 -0.13995679241E+01 -0.17556980473E+02  0.17707484061E+02  0.12700000000E+01 0.  1.
<mgrwt>
<rscale>  0 0.23037857E+01</rscale>
<asrwt>0</asrwt>
<pdfrwt beam="1">0</pdfrwt>
<pdfrwt beam="2">0</pdfrwt>
<totfact> 0.10909085E+12</totfact>
</mgrwt>
</event>
<event>
 4    1  0.3168498E+006  0.2004159E+01  0.7546771E-02  0.2977926E+00
         22   -1    0    0    0    0  0.00000000000E+00  0.00000000000E+00  0.17196211675E+01  0.17196211675E+01  0.00000000000E+00 0. -1.
         22   -1    0    0    0    0 -0.00000000000E+00 -0.00000000000E+00 -0.23770260533E+01  0.23770260533E+01  0.00000000000E+00 0.  1.
          4    1    1    2  501    0  0.71790599469E+00 -0.13741778298E+01 -0.58877557919E-01  0.20050237635E+01  0.12700000000E+01 0.  1.
         -4    1    1    2    0  501 -0.71790599469E+00  0.13741778298E+01 -0.59852732790E+00  0.20916234574E+01  0.12700000000E+01 0. -1.
<mgrwt>
<rscale>  0 0.20041591E+01</rscale>
<asrwt>0</asrwt>
<pdfrwt beam="1">0</pdfrwt>
<pdfrwt beam="2">0</pdfrwt>
<totfact> 0.46685525E+12</totfact>
</mgrwt>
</event>
<event>
 4    1  0.3168498E+006  0.4088308E+01  0.7546771E-02  0.2260725E+00
         22   -1    0    0    0    0  0.00000000000E+00  0.00000000000E+00  0.94363373308E+01  0.94363373308E+01  0.00000000000E+00 0. -1.
         22   -1    0    0    0    0 -0.00000000000E+00 -0.00000000000E+00 -0.39990683285E+01  0.39990683285E+01  0.00000000000E+00 0.  1.
          4    1    1    2  501    0 -0.36738077037E+01  0.12666885355E+01 -0.22953121491E+01  0.46885734240E+01  0.12700000000E+01 0.  1.
         -4    1    1    2    0  501  0.36738077037E+01 -0.12666885355E+01  0.77325811514E+01  0.87468322353E+01  0.12700000000E+01 0. -1.
<mgrwt>
<rscale>  0 0.40883081E+01</rscale>
<asrwt>0</asrwt>
<pdfrwt beam="1">0</pdfrwt>
<pdfrwt beam="2">0</pdfrwt>
<totfact> 0.34189711E+11</totfact>
</mgrwt>
</event>
<event>
 4    1  0.3168498E+006  0.2100619E+01  0.7546771E-02  0.2915968E+00
         22   -1    0    0    0    0  0.00000000000E+00  0.00000000000E+00  0.53598889206E+00  0.53598889206E+00  0.00000000000E+00 0. -1.
         22   -1    0    0    0    0 -0.00000000000E+00 -0.00000000000E+00 -0.82336545497E+01  0.82336545497E+01  0.00000000000E+00 0.  1.
          4    1    1    2  501    0  0.15974492370E+01 -0.49785193608E+00 -0.38000262974E+01  0.43419811694E+01  0.12700000000E+01 0.  1.
         -4    1    1    2    0  501 -0.15974492370E+01  0.49785193608E+00 -0.38976393603E+01  0.44276622723E+01  0.12700000000E+01 0. -1.
<mgrwt>
<rscale>  0 0.21006191E+01</rscale>
<asrwt>0</asrwt>
<pdfrwt beam="1">0</pdfrwt>
<pdfrwt beam="2">0</pdfrwt>
<totfact> 0.40740939E+12</totfact>
</mgrwt>
</event>
<event>
 4    1  0.3168498E+006  0.2785697E+01  0.7546771E-02  0.2594571E+00
         22   -1    0    0    0    0  0.00000000000E+00  0.00000000000E+00  0.12523460042E+01  0.12523460042E+01  0.00000000000E+00 0.  1.
         22   -1    0    0    0    0 -0.00000000000E+00 -0.00000000000E+00 -0.14620141495E+02  0.14620141495E+02  0.00000000000E+00 0. -1.
          4    1    1    2  501    0 -0.10406340392E+01  0.22503970192E+01 -0.12707971798E+02  0.13009713800E+02  0.12700000000E+01 0. -1.
         -4    1    1    2    0  501  0.10406340392E+01 -0.22503970192E+01 -0.65982369323E+00  0.28627736993E+01  0.12700000000E+01 0.  1.
<mgrwt>
<rscale>  0 0.27856967E+01</rscale>
<asrwt>0</asrwt>
<pdfrwt beam="1">0</pdfrwt>
<pdfrwt beam="2">0</pdfrwt>
<totfact> 0.77177684E+11</totfact>
</mgrwt>
</event>
<event>
 4    1  0.3168498E+006  0.2253649E+01  0.7546771E-02  0.2828226E+00
         22   -1    0    0    0    0  0.00000000000E+00  0.00000000000E+00  0.14718147483E+01  0.14718147483E+01  0.00000000000E+00 0. -1.
         22   -1    0    0    0    0 -0.00000000000E+00 -0.00000000000E+00 -0.47133887310E+01  0.47133887310E+01  0.00000000000E+00 0.  1.
          4    1    1    2  501    0  0.47132422037E+00  0.18010798723E+01 -0.32214086295E+01  0.39314639494E+01  0.12700000000E+01 0.  1.
         -4    1    1    2    0  501 -0.47132422037E+00 -0.18010798723E+01 -0.20165353258E-01  0.22537395299E+01  0.12700000000E+01 0. -1.
<mgrwt>
<rscale>  0 0.22536493E+01</rscale>
<asrwt>0</asrwt>
<pdfrwt beam="1">0</pdfrwt>
<pdfrwt beam="2">0</pdfrwt>
<totfact> 0.25047247E+12</totfact>
</mgrwt>
</event>
<event>
 4    1  0.3168498E+006  0.2585558E+01  0.7546771E-02  0.2671971E+00
         22   -1    0    0    0    0  0.00000000000E+00  0.00000000000E+00  0.52119633338E+01  0.52119633338E+01  0.00000000000E+00 0. -1.
         22   -1    0    0    0    0 -0.00000000000E+00 -0.00000000000E+00 -0.19784256079E+01  0.19784256079E+01  0.00000000000E+00 0. -1.
          4    1    1    2  501    0 -0.98820173680E+00  0.20237758030E+01 -0.51528385347E+00  0.26364044877E+01  0.12700000000E+01 0. -1.
         -4    1    1    2    0  501  0.98820173680E+00 -0.20237758030E+01  0.37488215794E+01  0.45539844540E+01  0.12700000000E+01 0. -1.
<mgrwt>
<rscale>  0 0.25855582E+01</rscale>
<asrwt>0</asrwt>
<pdfrwt beam="1">0</pdfrwt>
<pdfrwt beam="2">0</pdfrwt>
<totfact> 0.15808136E+12</totfact>
</mgrwt>
</event>
<event>
 4    1  0.3168498E+006  0.2456495E+01  0.7546771E-02  0.2728026E+00
         22   -1    0    0    0    0  0.00000000000E+00  0.00000000000E+00  0.14768532838E+02  0.14768532838E+02  0.00000000000E+00 0.  1.
         22   -1    0    0    0    0 -0.00000000000E+00 -0.00000000000E+00 -0.52276036647E+00  0.52276036647E+00  0.00000000000E+00 0. -1.
          4    1    1    2  501    0  0.95954084881E+00  0.18710288909E+01  0.35499305980E+01  0.43169867966E+01  0.12700000000E+01 0. -1.
         -4    1    1    2    0  501 -0.95954084881E+00 -0.18710288909E+01  0.10695841873E+02  0.10974306408E+02  0.12700000000E+01 0.  1.
<mgrwt>
<rscale>  0 0.24564950E+01</rscale>
<asrwt>0</asrwt>
<pdfrwt beam="1">0</pdfrwt>
<pdfrwt beam="2">0</pdfrwt>
<totfact> 0.20599903E+12</totfact>
</mgrwt>
</event>
<event>
 4    1  0.3168498E+006  0.2746260E+01  0.7546771E-02  0.2609005E+00
         22   -1    0    0    0    0  0.00000000000E+00  0.00000000000E+00  0.15499553977E+01  0.15499553977E+01  0.00000000000E+00 0.  1.
         22   -1    0    0    0    0 -0.00000000000E+00 -0.00000000000E+00 -0.16081430739E+02  0.16081430739E+02  0.00000000000E+00 0. -1.
          4    1    1    2  501    0  0.83126040193E+00 -0.22886784668E+01 -0.14627873848E+02  0.14883434963E+02  0.12700000000E+01 0. -1.
         -4    1    1    2    0  501 -0.83126040193E+00  0.22886784668E+01  0.96398507033E-01  0.27479511736E+01  0.12700000000E+01 0.  1.
<mgrwt>
<rscale>  0 0.27462598E+01</rscale>
<asrwt>0</asrwt>
<pdfrwt beam="1">0</pdfrwt>
<pdfrwt beam="2">0</pdfrwt>
<totfact> 0.53720243E+11</totfact>
</mgrwt>
</event>
<event>
 4    1  0.3168498E+006  0.3484251E+01  0.7546771E-02  0.2388251E+00
         22   -1    0    0    0    0  0.00000000000E+00  0.00000000000E+00  0.24118267262E+02  0.24118267262E+02  0.00000000000E+00 0.  1.
         22   -1    0    0    0    0 -0.00000000000E+00 -0.00000000000E+00 -0.81810897313E+00  0.81810897313E+00  0.00000000000E+00 0. -1.
          4    1    1    2  501    0 -0.18260368023E+01 -0.26819194448E+01  0.39164248486E+01  0.52419830128E+01  0.12700000000E+01 0. -1.
         -4    1    1    2    0  501  0.18260368023E+01  0.26819194448E+01  0.19383733441E+02  0.19694393223E+02  0.12700000000E+01 0.  1.
<mgrwt>
<rscale>  0 0.34842506E+01</rscale>
<asrwt>0</asrwt>
<pdfrwt beam="1">0</pdfrwt>
<pdfrwt beam="2">0</pdfrwt>
<totfact> 0.67357301E+11</totfact>
</mgrwt>
</event>
<event>
 4    1  0.3168498E+006  0.2605532E+01  0.7546771E-02  0.2663757E+00
         22   -1    0    0    0    0  0.00000000000E+00  0.00000000000E+00  0.24233980943E+02  0.24233980943E+02  0.00000000000E+00 0. -1.
         22   -1    0    0    0    0 -0.00000000000E+00 -0.00000000000E+00 -0.30436458725E+00  0.30436458725E+00  0.00000000000E+00 0.  1.
          4    1    1    2  501    0 -0.49232953123E+00  0.22211497451E+01  0.15426498053E+02  0.15644987591E+02  0.12700000000E+01 0.  1.
         -4    1    1    2    0  501  0.49232953123E+00 -0.22211497451E+01  0.85031183031E+01  0.88933579392E+01  0.12700000000E+01 0. -1.
<mgrwt>
<rscale>  0 0.26055315E+01</rscale>
<asrwt>0</asrwt>
<pdfrwt beam="1">0</pdfrwt>
<pdfrwt beam="2">0</pdfrwt>
<totfact> 0.20451933E+12</totfact>
</mgrwt>
</event>
<event>
 4    1  0.3168498E+006  0.2049720E+01  0.7546771E-02  0.2947953E+00
         22   -1    0    0    0    0  0.00000000000E+00  0.00000000000E+00  0.19982749105E+01  0.19982749105E+01  0.00000000000E+00 0. -1.
         22   -1    0    0    0    0 -0.00000000000E+00 -0.00000000000E+00 -0.73279729543E+01  0.73279729543E+01  0.00000000000E+00 0. -1.
          4    1    1    2  501    0 -0.16088339204E+01  0.10214084900E-01 -0.66026003848E+01  0.69134421783E+01  0.12700000000E+01 0. -1.
         -4    1    1    2    0  501  0.16088339204E+01 -0.10214084900E-01  0.12729023410E+01  0.24128056865E+01  0.12700000000E+01 0. -1.
<mgrwt>
<rscale>  0 0.20497197E+01</rscale>
<asrwt>0</asrwt>
<pdfrwt beam="1">0</pdfrwt>
<pdfrwt beam="2">0</pdfrwt>
<totfact> 0.10411131E+12</totfact>
</mgrwt>
</event>
<event>
 4    1  0.3168498E+006  0.2364363E+01  0.7546771E-02  0.2771526E+00
         22   -1    0    0    0    0  0.00000000000E+00  0.00000000000E+00  0.18299824688E+02  0.18299824688E+02  0.00000000000E+00 0.  1.
         22   -1    0    0    0    0 -0.00000000000E+00 -0.00000000000E+00 -0.36596898233E+00  0.36596898233E+00  0.00000000000E+00 0. -1.
          4    1    1    2  501    0  0.16467557421E+01  0.11249480051E+01  0.51725900939E+01  0.56873456698E+01  0.12700000000E+01 0. -1.
         -4    1    1    2    0  501 -0.16467557421E+01 -0.11249480051E+01  0.12761265612E+02  0.12978448001E+02  0.12700000000E+01 0.  1.
<mgrwt>
<rscale>  0 0.23643630E+01</rscale>
<asrwt>0</asrwt>
<pdfrwt beam="1">0</pdfrwt>
<pdfrwt beam="2">0</pdfrwt>
<totfact> 0.23623636E+12</totfact>
</mgrwt>
</event>
<event>
 4    1  0.3168498E+006  0.2503917E+01  0.7546771E-02  0.2706806E+00
         22   -1    0    0    0    0  0.00000000000E+00  0.00000000000E+00  0.40179062331E+01  0.40179062331E+01  0.00000000000E+00 0.  1.
         22   -1    0    0    0    0 -0.00000000000E+00 -0.00000000000E+00 -0.22151784438E+01  0.22151784438E+01  0.00000000000E+00 0.  1.
          4    1    1    2  501    0 -0.46806865743E+00 -0.21065637004E+01 -0.79301710138E+00  0.26264948154E+01  0.12700000000E+01 0.  1.
         -4    1    1    2    0  501  0.46806865743E+00  0.21065637004E+01  0.25957448907E+01  0.36065898616E+01  0.12700000000E+01 0.  1.
<mgrwt>
<rscale>  0 0.25039167E+01</rscale>
<asrwt>0</asrwt>
<pdfrwt beam="1">0</pdfrwt>
<pdfrwt beam="2">0</pdfrwt>
<totfact> 0.18856804E+12</totfact>
</mgrwt>
</event>
<event>
 4    1  0.3168498E+006  0.2294046E+01  0.7546771E-02  0.2806937E+00
         22   -1    0    0    0    0  0.00000000000E+00  0.00000000000E+00  0.13299770882E+01  0.13299770882E+01  0.00000000000E+00 0. -1.
         22   -1    0    0    0    0 -0.00000000000E+00 -0.00000000000E+00 -0.41676219012E+01  0.41676219012E+01  0.00000000000E+00 0. -1.
          4    1    1    2  501    0  0.65814742649E+00 -0.17934846383E+01 -0.80079441219E+00  0.24297977022E+01  0.12700000000E+01 0. -1.
         -4    1    1    2    0  501 -0.65814742649E+00  0.17934846383E+01 -0.20368504008E+01  0.30678012873E+01  0.12700000000E+01 0. -1.
<mgrwt>
<rscale>  0 0.22940456E+01</rscale>
<asrwt>0</asrwt>
<pdfrwt beam="1">0</pdfrwt>
<pdfrwt beam="2">0</pdfrwt>
<totfact> 0.32538548E+12</totfact>
</mgrwt>
</event>
<event>
 4    1  0.3168498E+006  0.3318075E+01  0.7546771E-02  0.2430312E+00
         22   -1    0    0    0    0  0.00000000000E+00  0.00000000000E+00  0.87157841585E+00  0.87157841585E+00  0.00000000000E+00 0.  1.
         22   -1    0    0    0    0 -0.00000000000E+00 -0.00000000000E+00 -0.12794264220E+02  0.12794264220E+02  0.00000000000E+00 0. -1.
          4    1    1    2  501    0 -0.27777767349E+01  0.12964103720E+01 -0.67312674531E+01  0.75046375640E+01  0.12700000000E+01 0.  1.
         -4    1    1    2    0  501  0.27777767349E+01 -0.12964103720E+01 -0.51914183512E+01  0.61612050720E+01  0.12700000000E+01 0. -1.
<mgrwt>
<rscale>  0 0.33180753E+01</rscale>
<asrwt>0</asrwt>
<pdfrwt beam="1">0</pdfrwt>
<pdfrwt beam="2">0</pdfrwt>
<totfact> 0.13753873E+12</totfact>
</mgrwt>
</event>
<event>
 4    1  0.3168498E+006  0.2979371E+01  0.7546771E-02  0.2528739E+00
         22   -1    0    0    0    0  0.00000000000E+00  0.00000000000E+00  0.79951502184E+01  0.79951502184E+01  0.00000000000E+00 0.  1.
         22   -1    0    0    0    0 -0.00000000000E+00 -0.00000000000E+00 -0.11443831479E+01  0.11443831479E+01  0.00000000000E+00 0. -1.
          4    1    1    2  501    0 -0.26224306058E+01  0.62177722557E+00  0.26362151517E+01  0.39782256757E+01  0.12700000000E+01 0. -1.
         -4    1    1    2    0  501  0.26224306058E+01 -0.62177722557E+00  0.42145519188E+01  0.51613076906E+01  0.12700000000E+01 0.  1.
<mgrwt>
<rscale>  0 0.29793706E+01</rscale>
<asrwt>0</asrwt>
<pdfrwt beam="1">0</pdfrwt>
<pdfrwt beam="2">0</pdfrwt>
<totfact> 0.17813946E+12</totfact>
</mgrwt>
</event>
<event>
 4    1  0.3168498E+006  0.2427594E+01  0.7546771E-02  0.2741338E+00
         22   -1    0    0    0    0  0.00000000000E+00  0.00000000000E+00  0.33196021090E+02  0.33196021090E+02  0.00000000000E+00 0.  1.
         22   -1    0    0    0    0 -0.00000000000E+00 -0.00000000000E+00 -0.22490581544E+00  0.22490581544E+00  0.00000000000E+00 0. -1.
          4    1    1    2  501    0 -0.10099967505E+01 -0.18056079186E+01  0.88158814791E+01  0.91440133226E+01  0.12700000000E+01 0. -1.
         -4    1    1    2    0  501  0.10099967505E+01  0.18056079186E+01  0.24155233796E+02  0.24276913583E+02  0.12700000000E+01 0.  1.
<mgrwt>
<rscale>  0 0.24275942E+01</rscale>
<asrwt>0</asrwt>
<pdfrwt beam="1">0</pdfrwt>
<pdfrwt beam="2">0</pdfrwt>
<totfact> 0.19238687E+12</totfact>
</mgrwt>
</event>
<event>
 4    1  0.3168498E+006  0.2097674E+01  0.7546771E-02  0.2917777E+00
         22   -1    0    0    0    0  0.00000000000E+00  0.00000000000E+00  0.14914243598E+01  0.14914243598E+01  0.00000000000E+00 0. -1.
         22   -1    0    0    0    0 -0.00000000000E+00 -0.00000000000E+00 -0.60655941250E+01  0.60655941250E+01  0.00000000000E+00 0.  1.
          4    1    1    2  501    0 -0.14194999270E+01  0.87883864863E+00 -0.49949637004E+01  0.54175547788E+01  0.12700000000E+01 0.  1.
         -4    1    1    2    0  501  0.14194999270E+01 -0.87883864863E+00  0.42079393514E+00  0.21394637059E+01  0.12700000000E+01 0. -1.
<mgrwt>
<rscale>  0 0.20976743E+01</rscale>
<asrwt>0</asrwt>
<pdfrwt beam="1">0</pdfrwt>
<pdfrwt beam="2">0</pdfrwt>
<totfact> 0.18288609E+12</totfact>
</mgrwt>
</event>
<event>
 4    1  0.3168498E+006  0.2485569E+01  0.7546771E-02  0.2714927E+00
         22   -1    0    0    0    0  0.00000000000E+00  0.00000000000E+00  0.37732652136E+00  0.37732652136E+00  0.00000000000E+00 0.  1.
         22   -1    0    0    0    0 -0.00000000000E+00 -0.00000000000E+00 -0.18732400706E+02  0.18732400706E+02  0.00000000000E+00 0. -1.
          4    1    1    2  501    0 -0.20520403735E+01  0.59521728056E+00 -0.12568379499E+02  0.12811799894E+02  0.12700000000E+01 0.  1.
         -4    1    1    2    0  501  0.20520403735E+01 -0.59521728056E+00 -0.57866946861E+01  0.62979273333E+01  0.12700000000E+01 0. -1.
<mgrwt>
<rscale>  0 0.24855690E+01</rscale>
<asrwt>0</asrwt>
<pdfrwt beam="1">0</pdfrwt>
<pdfrwt beam="2">0</pdfrwt>
<totfact> 0.22172852E+12</totfact>
</mgrwt>
</event>
<event>
 4    1  0.3168498E+006  0.2059925E+01  0.7546771E-02  0.2941416E+00
         22   -1    0    0    0    0  0.00000000000E+00  0.00000000000E+00  0.14558563944E+02  0.14558563944E+02  0.00000000000E+00 0. -1.
         22   -1    0    0    0    0 -0.00000000000E+00 -0.00000000000E+00 -0.49458857294E+00  0.49458857294E+00  0.00000000000E+00 0.  1.
          4    1    1    2  501    0 -0.70486824080E+00  0.14606687713E+01  0.22085462356E+01  0.30200941990E+01  0.12700000000E+01 0.  1.
         -4    1    1    2    0  501  0.70486824080E+00 -0.14606687713E+01  0.11855429135E+02  0.12033058318E+02  0.12700000000E+01 0. -1.
<mgrwt>
<rscale>  0 0.20599254E+01</rscale>
<asrwt>0</asrwt>
<pdfrwt beam="1">0</pdfrwt>
<pdfrwt beam="2">0</pdfrwt>
<totfact> 0.22317834E+12</totfact>
</mgrwt>
</event>
<event>
 4    1  0.3168498E+006  0.2521929E+01  0.7546771E-02  0.2698940E+00
         22   -1    0    0    0    0  0.00000000000E+00  0.00000000000E+00  0.74913041941E+00  0.74913041941E+00  0.00000000000E+00 0. -1.
         22   -1    0    0    0    0 -0.00000000000E+00 -0.00000000000E+00 -0.12671260785E+02  0.12671260785E+02  0.00000000000E+00 0.  1.
          4    1    1    2  501    0  0.21628647768E+01  0.26314065933E+00 -0.98156553974E+01  0.10134456963E+02  0.12700000000E+01 0. -1.
         -4    1    1    2    0  501 -0.21628647768E+01 -0.26314065933E+00 -0.21064749683E+01  0.32859342418E+01  0.12700000000E+01 0.  1.
<mgrwt>
<rscale>  0 0.25219292E+01</rscale>
<asrwt>0</asrwt>
<pdfrwt beam="1">0</pdfrwt>
<pdfrwt beam="2">0</pdfrwt>
<totfact> 0.16532968E+12</totfact>
</mgrwt>
</event>
<event>
 4    1  0.3168498E+006  0.3719825E+01  0.7546771E-02  0.2334279E+00
         22   -1    0    0    0    0  0.00000000000E+00  0.00000000000E+00  0.16749020008E+00  0.16749020008E+00  0.00000000000E+00 0.  1.
         22   -1    0    0    0    0 -0.00000000000E+00 -0.00000000000E+00 -0.82902369408E+02  0.82902369408E+02  0.00000000000E+00 0. -1.
          4    1    1    2  501    0  0.20415747063E+01 -0.28383392758E+01 -0.38919352514E+02  0.39096714661E+02  0.12700000000E+01 0. -1.
         -4    1    1    2    0  501 -0.20415747063E+01  0.28383392758E+01 -0.43815526693E+02  0.43973144947E+02  0.12700000000E+01 0.  1.
<mgrwt>
<rscale>  0 0.37198249E+01</rscale>
<asrwt>0</asrwt>
<pdfrwt beam="1">0</pdfrwt>
<pdfrwt beam="2">0</pdfrwt>
<totfact> 0.79403043E+11</totfact>
</mgrwt>
</event>
<event>
 4    1  0.3168498E+006  0.5116016E+01  0.7546771E-02  0.2109405E+00
         22   -1    0    0    0    0  0.00000000000E+00  0.00000000000E+00  0.12012973344E+02  0.12012973344E+02  0.00000000000E+00 0. -1.
         22   -1    0    0    0    0 -0.00000000000E+00 -0.00000000000E+00 -0.58985361147E+01  0.58985361147E+01  0.00000000000E+00 0.  1.
          4    1    1    2  501    0  0.47584831090E+01  0.13847608658E+01 -0.40547087446E+01  0.65279619452E+01  0.12700000000E+01 0.  1.
         -4    1    1    2    0  501 -0.47584831090E+01 -0.13847608658E+01  0.10169145974E+02  0.11383547513E+02  0.12700000000E+01 0. -1.
<mgrwt>
<rscale>  0 0.51160164E+01</rscale>
<asrwt>0</asrwt>
<pdfrwt beam="1">0</pdfrwt>
<pdfrwt beam="2">0</pdfrwt>
<totfact> 0.16104465E+11</totfact>
</mgrwt>
</event>
<event>
 4    1  0.3168498E+006  0.2045495E+01  0.7546771E-02  0.2950677E+00
         22   -1    0    0    0    0  0.00000000000E+00  0.00000000000E+00  0.80960359503E+00  0.80960359503E+00  0.00000000000E+00 0.  1.
         22   -1    0    0    0    0 -0.00000000000E+00 -0.00000000000E+00 -0.52061782401E+01  0.52061782401E+01  0.00000000000E+00 0. -1.
          4    1    1    2  501    0 -0.11664408120E+01 -0.11002563924E+01 -0.24557958600E+01  0.31960884848E+01  0.12700000000E+01 0.  1.
         -4    1    1    2    0  501  0.11664408120E+01  0.11002563924E+01 -0.19407787851E+01  0.28196933503E+01  0.12700000000E+01 0. -1.
<mgrwt>
<rscale>  0 0.20454946E+01</rscale>
<asrwt>0</asrwt>
<pdfrwt beam="1">0</pdfrwt>
<pdfrwt beam="2">0</pdfrwt>
<totfact> 0.44110091E+12</totfact>
</mgrwt>
</event>
<event>
 4    1  0.3168498E+006  0.2614394E+01  0.7546771E-02  0.2660149E+00
         22   -1    0    0    0    0  0.00000000000E+00  0.00000000000E+00  0.51523800159E+01  0.51523800159E+01  0.00000000000E+00 0.  1.
         22   -1    0    0    0    0 -0.00000000000E+00 -0.00000000000E+00 -0.16276838794E+01  0.16276838794E+01  0.00000000000E+00 0. -1.
          4    1    1    2  501    0 -0.20857897170E+01  0.93361455139E+00  0.30428787716E+00  0.26320421703E+01  0.12700000000E+01 0. -1.
         -4    1    1    2    0  501  0.20857897170E+01 -0.93361455139E+00  0.32204082593E+01  0.41480217250E+01  0.12700000000E+01 0.  1.
<mgrwt>
<rscale>  0 0.26143938E+01</rscale>
<asrwt>0</asrwt>
<pdfrwt beam="1">0</pdfrwt>
<pdfrwt beam="2">0</pdfrwt>
<totfact> 0.20075689E+12</totfact>
</mgrwt>
</event>
<event>
 4    1  0.3168498E+006  0.3483511E+01  0.7546771E-02  0.2388430E+00
         22   -1    0    0    0    0  0.00000000000E+00  0.00000000000E+00  0.27858486821E+01  0.27858486821E+01  0.00000000000E+00 0.  1.
         22   -1    0    0    0    0 -0.00000000000E+00 -0.00000000000E+00 -0.67809267834E+01  0.67809267834E+01  0.00000000000E+00 0. -1.
          4    1    1    2  501    0 -0.14618558232E+01 -0.28956740191E+01 -0.48580935163E+01  0.59779530850E+01  0.12700000000E+01 0. -1.
         -4    1    1    2    0  501  0.14618558232E+01  0.28956740191E+01  0.86301541496E+00  0.35888223805E+01  0.12700000000E+01 0.  1.
<mgrwt>
<rscale>  0 0.34835112E+01</rscale>
<asrwt>0</asrwt>
<pdfrwt beam="1">0</pdfrwt>
<pdfrwt beam="2">0</pdfrwt>
<totfact> 0.77664697E+11</totfact>
</mgrwt>
</event>
<event>
 4    1  0.3168498E+006  0.2257899E+01  0.7546771E-02  0.2825952E+00
         22   -1    0    0    0    0  0.00000000000E+00  0.00000000000E+00  0.47634900642E+00  0.47634900642E+00  0.00000000000E+00 0. -1.
         22   -1    0    0    0    0 -0.00000000000E+00 -0.00000000000E+00 -0.22415983851E+02  0.22415983851E+02  0.00000000000E+00 0.  1.
          4    1    1    2  501    0 -0.14749524300E+01 -0.11444312224E+01 -0.19243995927E+02  0.19376002858E+02  0.12700000000E+01 0.  1.
         -4    1    1    2    0  501  0.14749524300E+01  0.11444312224E+01 -0.26956389168E+01  0.35163299992E+01  0.12700000000E+01 0. -1.
<mgrwt>
<rscale>  0 0.22578989E+01</rscale>
<asrwt>0</asrwt>
<pdfrwt beam="1">0</pdfrwt>
<pdfrwt beam="2">0</pdfrwt>
<totfact> 0.13628646E+12</totfact>
</mgrwt>
</event>
<event>
 4    1  0.3168498E+006  0.2136617E+01  0.7546771E-02  0.2894241E+00
         22   -1    0    0    0    0  0.00000000000E+00  0.00000000000E+00  0.46366476863E+00  0.46366476863E+00  0.00000000000E+00 0. -1.
         22   -1    0    0    0    0 -0.00000000000E+00 -0.00000000000E+00 -0.10864738871E+02  0.10864738871E+02  0.00000000000E+00 0.  1.
          4    1    1    2  501    0 -0.17150058960E+01  0.10481054517E+00 -0.34658849816E+01  0.40715462885E+01  0.12700000000E+01 0. -1.
         -4    1    1    2    0  501  0.17150058960E+01 -0.10481054517E+00 -0.69351891206E+01  0.72568573509E+01  0.12700000000E+01 0.  1.
<mgrwt>
<rscale>  0 0.21366166E+01</rscale>
<asrwt>0</asrwt>
<pdfrwt beam="1">0</pdfrwt>
<pdfrwt beam="2">0</pdfrwt>
<totfact> 0.34322802E+12</totfact>
</mgrwt>
</event>
<event>
 4    1  0.3168498E+006  0.2344553E+01  0.7546771E-02  0.2781299E+00
         22   -1    0    0    0    0  0.00000000000E+00  0.00000000000E+00  0.29115021327E+01  0.29115021327E+01  0.00000000000E+00 0. -1.
         22   -1    0    0    0    0 -0.00000000000E+00 -0.00000000000E+00 -0.18901293558E+01  0.18901293558E+01  0.00000000000E+00 0.  1.
          4    1    1    2  501    0  0.37945974296E+00  0.19339182722E+01  0.43019268009E+00  0.23836936301E+01  0.12700000000E+01 0.  1.
         -4    1    1    2    0  501 -0.37945974296E+00 -0.19339182722E+01  0.59118009677E+00  0.24179378584E+01  0.12700000000E+01 0.  1.
<mgrwt>
<rscale>  0 0.23445532E+01</rscale>
<asrwt>0</asrwt>
<pdfrwt beam="1">0</pdfrwt>
<pdfrwt beam="2">0</pdfrwt>
<totfact> 0.33053387E+12</totfact>
</mgrwt>
</event>
<event>
 4    1  0.3168498E+006  0.2364591E+01  0.7546771E-02  0.2771415E+00
         22   -1    0    0    0    0  0.00000000000E+00  0.00000000000E+00  0.11104108647E+02  0.11104108647E+02  0.00000000000E+00 0.  1.
         22   -1    0    0    0    0 -0.00000000000E+00 -0.00000000000E+00 -0.56744195045E+00  0.56744195045E+00  0.00000000000E+00 0. -1.
          4    1    1    2  501    0  0.18543517203E+01 -0.73469175620E+00  0.33098652597E+01  0.40677389686E+01  0.12700000000E+01 0. -1.
         -4    1    1    2    0  501 -0.18543517203E+01  0.73469175620E+00  0.72268014367E+01  0.76038116287E+01  0.12700000000E+01 0.  1.
<mgrwt>
<rscale>  0 0.23645914E+01</rscale>
<asrwt>0</asrwt>
<pdfrwt beam="1">0</pdfrwt>
<pdfrwt beam="2">0</pdfrwt>
<totfact> 0.26607717E+12</totfact>
</mgrwt>
</event>
<event>
 4    1  0.3168498E+006  0.3182762E+01  0.7546771E-02  0.2467401E+00
         22   -1    0    0    0    0  0.00000000000E+00  0.00000000000E+00  0.10884122057E+01  0.10884122057E+01  0.00000000000E+00 0.  1.
         22   -1    0    0    0    0 -0.00000000000E+00 -0.00000000000E+00 -0.11171612027E+02  0.11171612027E+02  0.00000000000E+00 0. -1.
          4    1    1    2  501    0 -0.65086191271E+00 -0.28448993432E+01 -0.75458903351E+01  0.81896541106E+01  0.12700000000E+01 0.  1.
         -4    1    1    2    0  501  0.65086191271E+00  0.28448993432E+01 -0.25373094862E+01  0.40703701222E+01  0.12700000000E+01 0. -1.
<mgrwt>
<rscale>  0 0.31827619E+01</rscale>
<asrwt>0</asrwt>
<pdfrwt beam="1">0</pdfrwt>
<pdfrwt beam="2">0</pdfrwt>
<totfact> 0.12592108E+12</totfact>
</mgrwt>
</event>
<event>
 4    1  0.3168498E+006  0.2657235E+01  0.7546771E-02  0.2643023E+00
         22   -1    0    0    0    0  0.00000000000E+00  0.00000000000E+00  0.32521800773E+02  0.32521800773E+02  0.00000000000E+00 0. -1.
         22   -1    0    0    0    0 -0.00000000000E+00 -0.00000000000E+00 -0.34351927918E+00  0.34351927918E+00  0.00000000000E+00 0.  1.
          4    1    1    2  501    0  0.16814037027E+01  0.16189130060E+01  0.61209334984E+01  0.66728348267E+01  0.12700000000E+01 0.  1.
         -4    1    1    2    0  501 -0.16814037027E+01 -0.16189130060E+01  0.26057347995E+02  0.26192485225E+02  0.12700000000E+01 0. -1.
<mgrwt>
<rscale>  0 0.26572350E+01</rscale>
<asrwt>0</asrwt>
<pdfrwt beam="1">0</pdfrwt>
<pdfrwt beam="2">0</pdfrwt>
<totfact> 0.12289967E+12</totfact>
</mgrwt>
</event>
<event>
 4    1  0.3168498E+006  0.2334037E+01  0.7546771E-02  0.2786550E+00
         22   -1    0    0    0    0  0.00000000000E+00  0.00000000000E+00  0.33001913884E+01  0.33001913884E+01  0.00000000000E+00 0. -1.
         22   -1    0    0    0    0 -0.00000000000E+00 -0.00000000000E+00 -0.20480527163E+01  0.20480527163E+01  0.00000000000E+00 0. -1.
          4    1    1    2  501    0  0.49285107869E+00 -0.18952377607E+01 -0.55175843704E+00  0.23983673047E+01  0.12700000000E+01 0. -1.
         -4    1    1    2    0  501 -0.49285107869E+00  0.18952377607E+01  0.18038971091E+01  0.29498768001E+01  0.12700000000E+01 0. -1.
<mgrwt>
<rscale>  0 0.23340369E+01</rscale>
<asrwt>0</asrwt>
<pdfrwt beam="1">0</pdfrwt>
<pdfrwt beam="2">0</pdfrwt>
<totfact> 0.26017539E+12</totfact>
</mgrwt>
</event>
<event>
 4    1  0.3168498E+006  0.3807859E+01  0.7546771E-02  0.2315599E+00
         22   -1    0    0    0    0  0.00000000000E+00  0.00000000000E+00  0.33307163601E+02  0.33307163601E+02  0.00000000000E+00 0.  1.
         22   -1    0    0    0    0 -0.00000000000E+00 -0.00000000000E+00 -0.48089293836E+00  0.48089293836E+00  0.00000000000E+00 0. -1.
          4    1    1    2  501    0 -0.27635995427E+01 -0.22911583194E+01  0.11213307926E+02  0.11842215313E+02  0.12700000000E+01 0. -1.
         -4    1    1    2    0  501  0.27635995427E+01  0.22911583194E+01  0.21612962736E+02  0.21945841226E+02  0.12700000000E+01 0.  1.
<mgrwt>
<rscale>  0 0.38078588E+01</rscale>
<asrwt>0</asrwt>
<pdfrwt beam="1">0</pdfrwt>
<pdfrwt beam="2">0</pdfrwt>
<totfact> 0.81618732E+11</totfact>
</mgrwt>
</event>
<event>
 4    1  0.3168498E+006  0.2935187E+01  0.7546771E-02  0.2543067E+00
         22   -1    0    0    0    0  0.00000000000E+00  0.00000000000E+00  0.31439292364E+01  0.31439292364E+01  0.00000000000E+00 0.  1.
         22   -1    0    0    0    0 -0.00000000000E+00 -0.00000000000E+00 -0.41750709822E+01  0.41750709822E+01  0.00000000000E+00 0. -1.
          4    1    1    2  501    0  0.21796832161E+01 -0.15004686574E+01 -0.26608329871E+01  0.39617366519E+01  0.12700000000E+01 0. -1.
         -4    1    1    2    0  501 -0.21796832161E+01  0.15004686574E+01  0.16296912412E+01  0.33572635667E+01  0.12700000000E+01 0.  1.
<mgrwt>
<rscale>  0 0.29351874E+01</rscale>
<asrwt>0</asrwt>
<pdfrwt beam="1">0</pdfrwt>
<pdfrwt beam="2">0</pdfrwt>
<totfact> 0.11988034E+12</totfact>
</mgrwt>
</event>
<event>
 4    1  0.3168498E+006  0.2007471E+01  0.7546771E-02  0.2975702E+00
         22   -1    0    0    0    0  0.00000000000E+00  0.00000000000E+00  0.71388700096E-01  0.71388700096E-01  0.00000000000E+00 0. -1.
         22   -1    0    0    0    0 -0.00000000000E+00 -0.00000000000E+00 -0.10643528976E+03  0.10643528976E+03  0.00000000000E+00 0. -1.
          4    1    1    2  501    0 -0.25926070259E+00 -0.15329136269E+01 -0.89676011807E+02  0.89698478437E+02  0.12700000000E+01 0. -1.
         -4    1    1    2    0  501  0.25926070259E+00  0.15329136269E+01 -0.16687889251E+02  0.16808200021E+02  0.12700000000E+01 0. -1.
<mgrwt>
<rscale>  0 0.20074711E+01</rscale>
<asrwt>0</asrwt>
<pdfrwt beam="1">0</pdfrwt>
<pdfrwt beam="2">0</pdfrwt>
<totfact> 0.14401996E+12</totfact>
</mgrwt>
</event>
<event>
 4    1  0.3168498E+006  0.2189288E+01  0.7546771E-02  0.2863693E+00
         22   -1    0    0    0    0  0.00000000000E+00  0.00000000000E+00  0.45685330145E+00  0.45685330145E+00  0.00000000000E+00 0.  1.
         22   -1    0    0    0    0 -0.00000000000E+00 -0.00000000000E+00 -0.11058073974E+02  0.11058073974E+02  0.00000000000E+00 0.  1.
          4    1    1    2  501    0  0.17065602590E+01 -0.51743049024E+00 -0.39971471615E+01  0.45574299402E+01  0.12700000000E+01 0.  1.
         -4    1    1    2    0  501 -0.17065602590E+01  0.51743049024E+00 -0.66040735113E+01  0.69574973354E+01  0.12700000000E+01 0.  1.
<mgrwt>
<rscale>  0 0.21892881E+01</rscale>
<asrwt>0</asrwt>
<pdfrwt beam="1">0</pdfrwt>
<pdfrwt beam="2">0</pdfrwt>
<totfact> 0.34160932E+12</totfact>
</mgrwt>
</event>
<event>
 4    1  0.3168498E+006  0.3473550E+01  0.7546771E-02  0.2390853E+00
         22   -1    0    0    0    0  0.00000000000E+00  0.00000000000E+00  0.79285730580E+01  0.79285730580E+01  0.00000000000E+00 0. -1.
         22   -1    0    0    0    0 -0.00000000000E+00 -0.00000000000E+00 -0.17349836618E+01  0.17349836618E+01  0.00000000000E+00 0.  1.
          4    1    1    2  501    0  0.26323078579E+01  0.18771262039E+01  0.14030178776E+01  0.37461989548E+01  0.12700000000E+01 0.  1.
         -4    1    1    2    0  501 -0.26323078579E+01 -0.18771262039E+01  0.47905715186E+01  0.59173577650E+01  0.12700000000E+01 0. -1.
<mgrwt>
<rscale>  0 0.34735497E+01</rscale>
<asrwt>0</asrwt>
<pdfrwt beam="1">0</pdfrwt>
<pdfrwt beam="2">0</pdfrwt>
<totfact> 0.11153840E+12</totfact>
</mgrwt>
</event>
<event>
 4    1  0.3168498E+006  0.3567107E+01  0.7546771E-02  0.2368563E+00
         22   -1    0    0    0    0  0.00000000000E+00  0.00000000000E+00  0.86686323202E+01  0.86686323202E+01  0.00000000000E+00 0. -1.
         22   -1    0    0    0    0 -0.00000000000E+00 -0.00000000000E+00 -0.15298270261E+01  0.15298270261E+01  0.00000000000E+00 0. -1.
          4    1    1    2  501    0  0.29768282972E+01  0.14999476530E+01  0.25430426984E+01  0.43807894081E+01  0.12700000000E+01 0. -1.
         -4    1    1    2    0  501 -0.29768282972E+01 -0.14999476530E+01  0.45957625957E+01  0.58176699381E+01  0.12700000000E+01 0. -1.
<mgrwt>
<rscale>  0 0.35671066E+01</rscale>
<asrwt>0</asrwt>
<pdfrwt beam="1">0</pdfrwt>
<pdfrwt beam="2">0</pdfrwt>
<totfact> 0.11582323E+12</totfact>
</mgrwt>
</event>
<event>
 4    1  0.3168498E+006  0.2055351E+01  0.7546771E-02  0.2944338E+00
         22   -1    0    0    0    0  0.00000000000E+00  0.00000000000E+00  0.66011678349E+01  0.66011678349E+01  0.00000000000E+00 0. -1.
         22   -1    0    0    0    0 -0.00000000000E+00 -0.00000000000E+00 -0.73240832340E+00  0.73240832340E+00  0.00000000000E+00 0.  1.
          4    1    1    2  501    0  0.72899833089E+00 -0.14422654577E+01  0.16316207447E+01  0.26242435999E+01  0.12700000000E+01 0.  1.
         -4    1    1    2    0  501 -0.72899833089E+00  0.14422654577E+01  0.42371387668E+01  0.47093325584E+01  0.12700000000E+01 0. -1.
<mgrwt>
<rscale>  0 0.20553511E+01</rscale>
<asrwt>0</asrwt>
<pdfrwt beam="1">0</pdfrwt>
<pdfrwt beam="2">0</pdfrwt>
<totfact> 0.37270636E+12</totfact>
</mgrwt>
</event>
<event>
 4    1  0.3168498E+006  0.2181360E+01  0.7546771E-02  0.2868200E+00
         22   -1    0    0    0    0  0.00000000000E+00  0.00000000000E+00  0.32403207069E+00  0.32403207069E+00  0.00000000000E+00 0.  1.
         22   -1    0    0    0    0 -0.00000000000E+00 -0.00000000000E+00 -0.16093498601E+02  0.16093498601E+02  0.00000000000E+00 0.  1.
          4    1    1    2  501    0 -0.35606967911E+00  0.17374256860E+01 -0.10313398217E+02  0.10541561384E+02  0.12700000000E+01 0.  1.
         -4    1    1    2    0  501  0.35606967911E+00 -0.17374256860E+01 -0.54560683141E+01  0.58759692884E+01  0.12700000000E+01 0.  1.
<mgrwt>
<rscale>  0 0.21813605E+01</rscale>
<asrwt>0</asrwt>
<pdfrwt beam="1">0</pdfrwt>
<pdfrwt beam="2">0</pdfrwt>
<totfact> 0.31752885E+12</totfact>
</mgrwt>
</event>
<event>
 4    1  0.3168498E+006  0.2420762E+01  0.7546771E-02  0.2744529E+00
         22   -1    0    0    0    0  0.00000000000E+00  0.00000000000E+00  0.76162453360E+01  0.76162453360E+01  0.00000000000E+00 0.  1.
         22   -1    0    0    0    0 -0.00000000000E+00 -0.00000000000E+00 -0.29847533753E+01  0.29847533753E+01  0.00000000000E+00 0. -1.
          4    1    1    2  501    0 -0.15493595602E+01  0.13589233435E+01 -0.22507402667E+01  0.33054378603E+01  0.12700000000E+01 0. -1.
         -4    1    1    2    0  501  0.15493595602E+01 -0.13589233435E+01  0.68822322274E+01  0.72955608511E+01  0.12700000000E+01 0.  1.
<mgrwt>
<rscale>  0 0.24207618E+01</rscale>
<asrwt>0</asrwt>
<pdfrwt beam="1">0</pdfrwt>
<pdfrwt beam="2">0</pdfrwt>
<totfact> 0.62352451E+11</totfact>
</mgrwt>
</event>
<event>
 4    1  0.3168498E+006  0.2051795E+01  0.7546771E-02  0.2946619E+00
         22   -1    0    0    0    0  0.00000000000E+00  0.00000000000E+00  0.88139137129E+00  0.88139137129E+00  0.00000000000E+00 0. -1.
         22   -1    0    0    0    0 -0.00000000000E+00 -0.00000000000E+00 -0.60454500471E+01  0.60454500471E+01  0.00000000000E+00 0. -1.
          4    1    1    2  501    0 -0.99259720897E+00 -0.12695321083E+01 -0.41688708675E+01  0.46464336112E+01  0.12700000000E+01 0. -1.
         -4    1    1    2    0  501  0.99259720897E+00  0.12695321083E+01 -0.99518780835E+00  0.22804078072E+01  0.12700000000E+01 0. -1.
<mgrwt>
<rscale>  0 0.20517946E+01</rscale>
<asrwt>0</asrwt>
<pdfrwt beam="1">0</pdfrwt>
<pdfrwt beam="2">0</pdfrwt>
<totfact> 0.33528499E+12</totfact>
</mgrwt>
</event>
<event>
 4    1  0.3168498E+006  0.3429138E+01  0.7546771E-02  0.2401805E+00
         22   -1    0    0    0    0  0.00000000000E+00  0.00000000000E+00  0.14427734904E+01  0.14427734904E+01  0.00000000000E+00 0.  1.
         22   -1    0    0    0    0 -0.00000000000E+00 -0.00000000000E+00 -0.86353910354E+01  0.86353910354E+01  0.00000000000E+00 0. -1.
          4    1    1    2  501    0  0.16628870935E+01 -0.27167795764E+01 -0.47906769118E+01  0.58914828376E+01  0.12700000000E+01 0. -1.
         -4    1    1    2    0  501 -0.16628870935E+01  0.27167795764E+01 -0.24019406332E+01  0.41866816882E+01  0.12700000000E+01 0. -1.
<mgrwt>
<rscale>  0 0.34291376E+01</rscale>
<asrwt>0</asrwt>
<pdfrwt beam="1">0</pdfrwt>
<pdfrwt beam="2">0</pdfrwt>
<totfact> 0.12447342E+12</totfact>
</mgrwt>
</event>
<event>
 4    1  0.3168498E+006  0.2229572E+01  0.7546771E-02  0.2841265E+00
         22   -1    0    0    0    0  0.00000000000E+00  0.00000000000E+00  0.13465777561E+01  0.13465777561E+01  0.00000000000E+00 0.  1.
         22   -1    0    0    0    0 -0.00000000000E+00 -0.00000000000E+00 -0.90414654022E+01  0.90414654022E+01  0.00000000000E+00 0.  1.
          4    1    1    2  501    0  0.74366294370E+00  0.16748309345E+01 -0.78428116322E+01  0.81535690058E+01  0.12700000000E+01 0.  1.
         -4    1    1    2    0  501 -0.74366294370E+00 -0.16748309345E+01  0.14792398614E+00  0.22344741526E+01  0.12700000000E+01 0.  1.
<mgrwt>
<rscale>  0 0.22295724E+01</rscale>
<asrwt>0</asrwt>
<pdfrwt beam="1">0</pdfrwt>
<pdfrwt beam="2">0</pdfrwt>
<totfact> 0.12747416E+12</totfact>
</mgrwt>
</event>
<event>
 4    1  0.3168498E+006  0.2377583E+01  0.7546771E-02  0.2765090E+00
         22   -1    0    0    0    0  0.00000000000E+00  0.00000000000E+00  0.24213824176E+02  0.24213824176E+02  0.00000000000E+00 0. -1.
         22   -1    0    0    0    0 -0.00000000000E+00 -0.00000000000E+00 -0.25452238516E+00  0.25452238516E+00  0.00000000000E+00 0.  1.
          4    1    1    2  501    0 -0.18234332111E+01 -0.84563181948E+00  0.84600784472E+01  0.87878227783E+01  0.12700000000E+01 0.  1.
         -4    1    1    2    0  501  0.18234332111E+01  0.84563181948E+00  0.15499223344E+02  0.15680523783E+02  0.12700000000E+01 0. -1.
<mgrwt>
<rscale>  0 0.23775832E+01</rscale>
<asrwt>0</asrwt>
<pdfrwt beam="1">0</pdfrwt>
<pdfrwt beam="2">0</pdfrwt>
<totfact> 0.25013827E+12</totfact>
</mgrwt>
</event>
<event>
 4    1  0.3168498E+006  0.2372612E+01  0.7546771E-02  0.2767502E+00
         22   -1    0    0    0    0  0.00000000000E+00  0.00000000000E+00  0.70336414546E+00  0.70336414546E+00  0.00000000000E+00 0. -1.
         22   -1    0    0    0    0 -0.00000000000E+00 -0.00000000000E+00 -0.84171902342E+01  0.84171902342E+01  0.00000000000E+00 0.  1.
          4    1    1    2  501    0  0.14632343202E+01 -0.13694284381E+01 -0.48680488414E+01  0.54154582859E+01  0.12700000000E+01 0.  1.
         -4    1    1    2    0  501 -0.14632343202E+01  0.13694284381E+01 -0.28457772473E+01  0.37050960938E+01  0.12700000000E+01 0. -1.
<mgrwt>
<rscale>  0 0.23726123E+01</rscale>
<asrwt>0</asrwt>
<pdfrwt beam="1">0</pdfrwt>
<pdfrwt beam="2">0</pdfrwt>
<totfact> 0.29163430E+12</totfact>
</mgrwt>
</event>
<event>
 4    1  0.3168498E+006  0.2450560E+01  0.7546771E-02  0.2730736E+00
         22   -1    0    0    0    0  0.00000000000E+00  0.00000000000E+00  0.57316695532E+02  0.57316695532E+02  0.00000000000E+00 0. -1.
         22   -1    0    0    0    0 -0.00000000000E+00 -0.00000000000E+00 -0.15205694695E+00  0.15205694695E+00  0.00000000000E+00 0.  1.
          4    1    1    2  501    0  0.13586309526E+01 -0.15957649075E+01  0.44605745187E+02  0.44673009160E+02  0.12700000000E+01 0. -1.
         -4    1    1    2    0  501 -0.13586309526E+01  0.15957649075E+01  0.12558893397E+02  0.12795743319E+02  0.12700000000E+01 0.  1.
<mgrwt>
<rscale>  0 0.24505599E+01</rscale>
<asrwt>0</asrwt>
<pdfrwt beam="1">0</pdfrwt>
<pdfrwt beam="2">0</pdfrwt>
<totfact> 0.14580662E+12</totfact>
</mgrwt>
</event>
<event>
 4    1  0.3168498E+006  0.2689417E+01  0.7546771E-02  0.2630488E+00
         22   -1    0    0    0    0  0.00000000000E+00  0.00000000000E+00  0.21503634679E+01  0.21503634679E+01  0.00000000000E+00 0. -1.
         22   -1    0    0    0    0 -0.00000000000E+00 -0.00000000000E+00 -0.59440151157E+01  0.59440151157E+01  0.00000000000E+00 0.  1.
          4    1    1    2  501    0 -0.40629915150E+00  0.23355906289E+01 -0.45634287565E+01  0.52969656032E+01  0.12700000000E+01 0.  1.
         -4    1    1    2    0  501  0.40629915150E+00 -0.23355906289E+01  0.76977710868E+00  0.27974129805E+01  0.12700000000E+01 0. -1.
<mgrwt>
<rscale>  0 0.26894168E+01</rscale>
<asrwt>0</asrwt>
<pdfrwt beam="1">0</pdfrwt>
<pdfrwt beam="2">0</pdfrwt>
<totfact> 0.12279242E+12</totfact>
</mgrwt>
</event>
<event>
 4    1  0.3168498E+006  0.2257274E+01  0.7546771E-02  0.2826286E+00
         22   -1    0    0    0    0  0.00000000000E+00  0.00000000000E+00  0.79133575312E+01  0.79133575312E+01  0.00000000000E+00 0. -1.
         22   -1    0    0    0    0 -0.00000000000E+00 -0.00000000000E+00 -0.64815963561E+00  0.64815963561E+00  0.00000000000E+00 0.  1.
          4    1    1    2  501    0  0.16802218834E+01 -0.81193626405E+00  0.39802701377E+01  0.45757880680E+01  0.12700000000E+01 0. -1.
         -4    1    1    2    0  501 -0.16802218834E+01  0.81193626405E+00  0.32849277579E+01  0.39857290988E+01  0.12700000000E+01 0. -1.
<mgrwt>
<rscale>  0 0.22572740E+01</rscale>
<asrwt>0</asrwt>
<pdfrwt beam="1">0</pdfrwt>
<pdfrwt beam="2">0</pdfrwt>
<totfact> 0.34461221E+12</totfact>
</mgrwt>
</event>
<event>
 4    1  0.3168498E+006  0.2632799E+01  0.7546771E-02  0.2652729E+00
         22   -1    0    0    0    0  0.00000000000E+00  0.00000000000E+00  0.27917401288E+01  0.27917401288E+01  0.00000000000E+00 0. -1.
         22   -1    0    0    0    0 -0.00000000000E+00 -0.00000000000E+00 -0.33657117257E+01  0.33657117257E+01  0.00000000000E+00 0. -1.
          4    1    1    2  501    0 -0.95598144658E-01 -0.23042550898E+01 -0.18637434504E+01  0.32257046010E+01  0.12700000000E+01 0. -1.
         -4    1    1    2    0  501  0.95598144658E-01  0.23042550898E+01  0.12897718535E+01  0.29317472535E+01  0.12700000000E+01 0. -1.
<mgrwt>
<rscale>  0 0.26327990E+01</rscale>
<asrwt>0</asrwt>
<pdfrwt beam="1">0</pdfrwt>
<pdfrwt beam="2">0</pdfrwt>
<totfact> 0.17739580E+12</totfact>
</mgrwt>
</event>
<event>
 4    1  0.3168498E+006  0.2253651E+01  0.7546771E-02  0.2828225E+00
         22   -1    0    0    0    0  0.00000000000E+00  0.00000000000E+00  0.60140271020E+01  0.60140271020E+01  0.00000000000E+00 0.  1.
         22   -1    0    0    0    0 -0.00000000000E+00 -0.00000000000E+00 -0.78044556009E+01  0.78044556009E+01  0.00000000000E+00 0.  1.
          4    1    1    2  501    0  0.57191841872E+00  0.17717082453E+01 -0.74199330401E+01  0.77546339116E+01  0.12700000000E+01 0.  1.
         -4    1    1    2    0  501 -0.57191841872E+00 -0.17717082453E+01  0.56295045411E+01  0.60638487912E+01  0.12700000000E+01 0.  1.
<mgrwt>
<rscale>  0 0.22536505E+01</rscale>
<asrwt>0</asrwt>
<pdfrwt beam="1">0</pdfrwt>
<pdfrwt beam="2">0</pdfrwt>
<totfact> 0.26513376E+11</totfact>
</mgrwt>
</event>
<event>
 4    1  0.3168498E+006  0.2367450E+01  0.7546771E-02  0.2770017E+00
         22   -1    0    0    0    0  0.00000000000E+00  0.00000000000E+00  0.81129026564E+01  0.81129026564E+01  0.00000000000E+00 0.  1.
         22   -1    0    0    0    0 -0.00000000000E+00 -0.00000000000E+00 -0.75875350891E+00  0.75875350891E+00  0.00000000000E+00 0. -1.
          4    1    1    2  501    0  0.66802786319E+00  0.18829916868E+01  0.23501002240E+01  0.33358342257E+01  0.12700000000E+01 0.  1.
         -4    1    1    2    0  501 -0.66802786319E+00 -0.18829916868E+01  0.50040489235E+01  0.55358219396E+01  0.12700000000E+01 0. -1.
<mgrwt>
<rscale>  0 0.23674499E+01</rscale>
<asrwt>0</asrwt>
<pdfrwt beam="1">0</pdfrwt>
<pdfrwt beam="2">0</pdfrwt>
<totfact> 0.27968995E+12</totfact>
</mgrwt>
</event>
<event>
 4    1  0.3168498E+006  0.2525259E+01  0.7546771E-02  0.2697498E+00
         22   -1    0    0    0    0  0.00000000000E+00  0.00000000000E+00  0.38413567296E+02  0.38413567296E+02  0.00000000000E+00 0.  1.
         22   -1    0    0    0    0 -0.00000000000E+00 -0.00000000000E+00 -0.53469175024E+00  0.53469175024E+00  0.00000000000E+00 0. -1.
          4    1    1    2  501    0  0.14948693559E+01  0.15904083001E+01  0.27685554229E+01  0.37472432643E+01  0.12700000000E+01 0. -1.
         -4    1    1    2    0  501 -0.14948693559E+01 -0.15904083001E+01  0.35110320122E+02  0.35201015782E+02  0.12700000000E+01 0.  1.
<mgrwt>
<rscale>  0 0.25252590E+01</rscale>
<asrwt>0</asrwt>
<pdfrwt beam="1">0</pdfrwt>
<pdfrwt beam="2">0</pdfrwt>
<totfact> 0.60249136E+11</totfact>
</mgrwt>
</event>
<event>
 4    1  0.3168498E+006  0.9298298E+01  0.7546771E-02  0.1809372E+00
         22   -1    0    0    0    0  0.00000000000E+00  0.00000000000E+00  0.92243046756E+01  0.92243046756E+01  0.00000000000E+00 0. -1.
         22   -1    0    0    0    0 -0.00000000000E+00 -0.00000000000E+00 -0.16938786499E+02  0.16938786499E+02  0.00000000000E+00 0.  1.
          4    1    1    2  501    0  0.31213361326E+00 -0.92058686328E+01 -0.12599994949E+02  0.15659444990E+02  0.12700000000E+01 0.  1.
         -4    1    1    2    0  501 -0.31213361326E+00  0.92058686328E+01  0.48855131256E+01  0.10503646185E+02  0.12700000000E+01 0. -1.
<mgrwt>
<rscale>  0 0.92982979E+01</rscale>
<asrwt>0</asrwt>
<pdfrwt beam="1">0</pdfrwt>
<pdfrwt beam="2">0</pdfrwt>
<totfact> 0.61798649E+10</totfact>
</mgrwt>
</event>
<event>
 4    1  0.3168498E+006  0.3068142E+01  0.7546771E-02  0.2501076E+00
         22   -1    0    0    0    0  0.00000000000E+00  0.00000000000E+00  0.57921997618E+01  0.57921997618E+01  0.00000000000E+00 0.  1.
         22   -1    0    0    0    0 -0.00000000000E+00 -0.00000000000E+00 -0.19875363705E+01  0.19875363705E+01  0.00000000000E+00 0. -1.
          4    1    1    2  501    0  0.11127936732E+01 -0.25616959260E+01  0.24147570402E+00  0.30776299797E+01  0.12700000000E+01 0. -1.
         -4    1    1    2    0  501 -0.11127936732E+01  0.25616959260E+01  0.35631876872E+01  0.47021061526E+01  0.12700000000E+01 0.  1.
<mgrwt>
<rscale>  0 0.30681421E+01</rscale>
<asrwt>0</asrwt>
<pdfrwt beam="1">0</pdfrwt>
<pdfrwt beam="2">0</pdfrwt>
<totfact> 0.13872422E+12</totfact>
</mgrwt>
</event>
<event>
 4    1  0.3168498E+006  0.2231076E+01  0.7546771E-02  0.2840443E+00
         22   -1    0    0    0    0  0.00000000000E+00  0.00000000000E+00  0.14722846408E+02  0.14722846408E+02  0.00000000000E+00 0. -1.
         22   -1    0    0    0    0 -0.00000000000E+00 -0.00000000000E+00 -0.35688297485E+00  0.35688297485E+00  0.00000000000E+00 0. -1.
          4    1    1    2  501    0 -0.93571002411E-01  0.18319509414E+01  0.54529379704E+01  0.58917087753E+01  0.12700000000E+01 0. -1.
         -4    1    1    2    0  501  0.93571002411E-01 -0.18319509414E+01  0.89130254627E+01  0.91880206074E+01  0.12700000000E+01 0. -1.
<mgrwt>
<rscale>  0 0.22310759E+01</rscale>
<asrwt>0</asrwt>
<pdfrwt beam="1">0</pdfrwt>
<pdfrwt beam="2">0</pdfrwt>
<totfact> 0.31791775E+12</totfact>
</mgrwt>
</event>
<event>
 4    1  0.3168498E+006  0.2647222E+01  0.7546771E-02  0.2646980E+00
         22   -1    0    0    0    0  0.00000000000E+00  0.00000000000E+00  0.25846023117E+00  0.25846023117E+00  0.00000000000E+00 0.  1.
         22   -1    0    0    0    0 -0.00000000000E+00 -0.00000000000E+00 -0.53501700632E+02  0.53501700632E+02  0.00000000000E+00 0.  1.
          4    1    1    2  501    0  0.21734945918E+01  0.81902837382E+00 -0.45499398066E+02  0.45576342663E+02  0.12700000000E+01 0.  1.
         -4    1    1    2    0  501 -0.21734945918E+01 -0.81902837382E+00 -0.77438423348E+01  0.81838181996E+01  0.12700000000E+01 0.  1.
<mgrwt>
<rscale>  0 0.26472224E+01</rscale>
<asrwt>0</asrwt>
<pdfrwt beam="1">0</pdfrwt>
<pdfrwt beam="2">0</pdfrwt>
<totfact> 0.88422851E+11</totfact>
</mgrwt>
</event>
<event>
 4    1  0.3168498E+006  0.2684998E+01  0.7546771E-02  0.2632192E+00
         22   -1    0    0    0    0  0.00000000000E+00  0.00000000000E+00  0.38728595151E+00  0.38728595151E+00  0.00000000000E+00 0. -1.
         22   -1    0    0    0    0 -0.00000000000E+00 -0.00000000000E+00 -0.21351442506E+02  0.21351442506E+02  0.00000000000E+00 0. -1.
          4    1    1    2  501    0  0.23636140756E+01  0.98190902429E-01 -0.14373490732E+02  0.14622121897E+02  0.12700000000E+01 0. -1.
         -4    1    1    2    0  501 -0.23636140756E+01 -0.98190902429E-01 -0.65906658225E+01  0.71166065604E+01  0.12700000000E+01 0. -1.
<mgrwt>
<rscale>  0 0.26849978E+01</rscale>
<asrwt>0</asrwt>
<pdfrwt beam="1">0</pdfrwt>
<pdfrwt beam="2">0</pdfrwt>
<totfact> 0.18290608E+12</totfact>
</mgrwt>
</event>
<event>
 4    1  0.3168498E+006  0.4008629E+01  0.7546771E-02  0.2275648E+00
         22   -1    0    0    0    0  0.00000000000E+00  0.00000000000E+00  0.62050013758E+01  0.62050013758E+01  0.00000000000E+00 0. -1.
         22   -1    0    0    0    0 -0.00000000000E+00 -0.00000000000E+00 -0.26394700301E+01  0.26394700301E+01  0.00000000000E+00 0. -1.
          4    1    1    2  501    0  0.37976037964E+01  0.18549955812E+00  0.11755281523E+01  0.41774359501E+01  0.12700000000E+01 0. -1.
         -4    1    1    2    0  501 -0.37976037964E+01 -0.18549955812E+00  0.23900031934E+01  0.46670354557E+01  0.12700000000E+01 0. -1.
<mgrwt>
<rscale>  0 0.40086288E+01</rscale>
<asrwt>0</asrwt>
<pdfrwt beam="1">0</pdfrwt>
<pdfrwt beam="2">0</pdfrwt>
<totfact> 0.91947232E+11</totfact>
</mgrwt>
</event>
<event>
 4    1  0.3168498E+006  0.2316203E+01  0.7546771E-02  0.2795559E+00
         22   -1    0    0    0    0  0.00000000000E+00  0.00000000000E+00  0.66145842365E+01  0.66145842365E+01  0.00000000000E+00 0.  1.
         22   -1    0    0    0    0 -0.00000000000E+00 -0.00000000000E+00 -0.89537535244E+00  0.89537535244E+00  0.00000000000E+00 0. -1.
          4    1    1    2  501    0  0.11011028115E+01  0.15935716447E+01  0.17072959480E+01  0.28774393899E+01  0.12700000000E+01 0.  1.
         -4    1    1    2    0  501 -0.11011028115E+01 -0.15935716447E+01  0.40119129360E+01  0.46325201990E+01  0.12700000000E+01 0. -1.
<mgrwt>
<rscale>  0 0.23162034E+01</rscale>
<asrwt>0</asrwt>
<pdfrwt beam="1">0</pdfrwt>
<pdfrwt beam="2">0</pdfrwt>
<totfact> 0.29584205E+12</totfact>
</mgrwt>
</event>
<event>
 4    1  0.3168498E+006  0.2412672E+01  0.7546771E-02  0.2748328E+00
         22   -1    0    0    0    0  0.00000000000E+00  0.00000000000E+00  0.70521168016E+01  0.70521168016E+01  0.00000000000E+00 0.  1.
         22   -1    0    0    0    0 -0.00000000000E+00 -0.00000000000E+00 -0.11516701943E+01  0.11516701943E+01  0.00000000000E+00 0. -1.
          4    1    1    2  501    0 -0.11966869281E+01 -0.16661414491E+01  0.76702593637E+00  0.25316626393E+01  0.12700000000E+01 0. -1.
         -4    1    1    2    0  501  0.11966869281E+01  0.16661414491E+01  0.51334206710E+01  0.56721243566E+01  0.12700000000E+01 0.  1.
<mgrwt>
<rscale>  0 0.24126722E+01</rscale>
<asrwt>0</asrwt>
<pdfrwt beam="1">0</pdfrwt>
<pdfrwt beam="2">0</pdfrwt>
<totfact> 0.20556064E+12</totfact>
</mgrwt>
</event>
<event>
 4    1  0.3168498E+006  0.2034065E+01  0.7546771E-02  0.2958103E+00
         22   -1    0    0    0    0  0.00000000000E+00  0.00000000000E+00  0.26030284932E+02  0.26030284932E+02  0.00000000000E+00 0. -1.
         22   -1    0    0    0    0 -0.00000000000E+00 -0.00000000000E+00 -0.67165997942E+00  0.67165997942E+00  0.00000000000E+00 0. -1.
          4    1    1    2  501    0 -0.11222832569E+01 -0.11247233569E+01  0.10145597389E+01  0.22730494500E+01  0.12700000000E+01 0. -1.
         -4    1    1    2    0  501  0.11222832569E+01  0.11247233569E+01  0.24344065214E+02  0.24428895462E+02  0.12700000000E+01 0. -1.
<mgrwt>
<rscale>  0 0.20340655E+01</rscale>
<asrwt>0</asrwt>
<pdfrwt beam="1">0</pdfrwt>
<pdfrwt beam="2">0</pdfrwt>
<totfact> 0.76534450E+11</totfact>
</mgrwt>
</event>
<event>
 4    1  0.3168498E+006  0.2188259E+01  0.7546771E-02  0.2864276E+00
         22   -1    0    0    0    0  0.00000000000E+00  0.00000000000E+00  0.27082264632E+01  0.27082264632E+01  0.00000000000E+00 0. -1.
         22   -1    0    0    0    0 -0.00000000000E+00 -0.00000000000E+00 -0.17749584009E+01  0.17749584009E+01  0.00000000000E+00 0.  1.
          4    1    1    2  501    0 -0.17740465968E+01  0.16833191643E+00  0.32752643118E+00  0.22126342953E+01  0.12700000000E+01 0. -1.
         -4    1    1    2    0  501  0.17740465968E+01 -0.16833191643E+00  0.60574163115E+00  0.22705505688E+01  0.12700000000E+01 0.  1.
<mgrwt>
<rscale>  0 0.21882589E+01</rscale>
<asrwt>0</asrwt>
<pdfrwt beam="1">0</pdfrwt>
<pdfrwt beam="2">0</pdfrwt>
<totfact> 0.38673157E+12</totfact>
</mgrwt>
</event>
<event>
 4    1  0.3168498E+006  0.2263693E+01  0.7546771E-02  0.2822866E+00
         22   -1    0    0    0    0  0.00000000000E+00  0.00000000000E+00  0.50801603811E-01  0.50801603811E-01  0.00000000000E+00 0.  1.
         22   -1    0    0    0    0 -0.00000000000E+00 -0.00000000000E+00 -0.12109502405E+03  0.12109502405E+03  0.00000000000E+00 0. -1.
          4    1    1    2  501    0 -0.13704255275E+01  0.12780212823E+01 -0.85277576153E+02  0.85307615716E+02  0.12700000000E+01 0. -1.
         -4    1    1    2    0  501  0.13704255275E+01 -0.12780212823E+01 -0.35766646296E+02  0.35838209941E+02  0.12700000000E+01 0.  1.
<mgrwt>
<rscale>  0 0.22636927E+01</rscale>
<asrwt>0</asrwt>
<pdfrwt beam="1">0</pdfrwt>
<pdfrwt beam="2">0</pdfrwt>
<totfact> 0.17422190E+12</totfact>
</mgrwt>
</event>
<event>
 4    1  0.3168498E+006  0.2217079E+01  0.7546771E-02  0.2848137E+00
         22   -1    0    0    0    0  0.00000000000E+00  0.00000000000E+00  0.51860077205E+01  0.51860077205E+01  0.00000000000E+00 0. -1.
         22   -1    0    0    0    0 -0.00000000000E+00 -0.00000000000E+00 -0.94808837190E+00  0.94808837190E+00  0.00000000000E+00 0. -1.
          4    1    1    2  501    0  0.16548016598E+01  0.75111392730E+00  0.20680827666E+01  0.30318982494E+01  0.12700000000E+01 0. -1.
         -4    1    1    2    0  501 -0.16548016598E+01 -0.75111392730E+00  0.21698365820E+01  0.31021978430E+01  0.12700000000E+01 0. -1.
<mgrwt>
<rscale>  0 0.22170793E+01</rscale>
<asrwt>0</asrwt>
<pdfrwt beam="1">0</pdfrwt>
<pdfrwt beam="2">0</pdfrwt>
<totfact> 0.37018808E+12</totfact>
</mgrwt>
</event>
<event>
 4    1  0.3168498E+006  0.2044873E+01  0.7546771E-02  0.2951079E+00
         22   -1    0    0    0    0  0.00000000000E+00  0.00000000000E+00  0.23456775788E+01  0.23456775788E+01  0.00000000000E+00 0.  1.
         22   -1    0    0    0    0 -0.00000000000E+00 -0.00000000000E+00 -0.18920353523E+01  0.18920353523E+01  0.00000000000E+00 0. -1.
          4    1    1    2  501    0  0.33810720604E+00 -0.15666175848E+01 -0.28266129179E+00  0.20643169683E+01  0.12700000000E+01 0. -1.
         -4    1    1    2    0  501 -0.33810720604E+00  0.15666175848E+01  0.73630351829E+00  0.21733959627E+01  0.12700000000E+01 0.  1.
<mgrwt>
<rscale>  0 0.20448734E+01</rscale>
<asrwt>0</asrwt>
<pdfrwt beam="1">0</pdfrwt>
<pdfrwt beam="2">0</pdfrwt>
<totfact> 0.42458071E+12</totfact>
</mgrwt>
</event>
<event>
 4    1  0.3168498E+006  0.2171563E+01  0.7546771E-02  0.2873814E+00
         22   -1    0    0    0    0  0.00000000000E+00  0.00000000000E+00  0.14022418291E+01  0.14022418291E+01  0.00000000000E+00 0.  1.
         22   -1    0    0    0    0 -0.00000000000E+00 -0.00000000000E+00 -0.44899251533E+01  0.44899251533E+01  0.00000000000E+00 0. -1.
          4    1    1    2  501    0  0.17430459298E+01 -0.25411911850E+00 -0.30198214346E+01  0.37195439420E+01  0.12700000000E+01 0. -1.
         -4    1    1    2    0  501 -0.17430459298E+01  0.25411911850E+00 -0.67861889595E-01  0.21726230404E+01  0.12700000000E+01 0.  1.
<mgrwt>
<rscale>  0 0.21715629E+01</rscale>
<asrwt>0</asrwt>
<pdfrwt beam="1">0</pdfrwt>
<pdfrwt beam="2">0</pdfrwt>
<totfact> 0.28044501E+12</totfact>
</mgrwt>
</event>
<event>
 4    1  0.3168498E+006  0.2318559E+01  0.7546771E-02  0.2794362E+00
         22   -1    0    0    0    0  0.00000000000E+00  0.00000000000E+00  0.93437056991E+01  0.93437056991E+01  0.00000000000E+00 0.  1.
         22   -1    0    0    0    0 -0.00000000000E+00 -0.00000000000E+00 -0.59867783649E+00  0.59867783649E+00  0.00000000000E+00 0. -1.
          4    1    1    2  501    0  0.17181156082E+01 -0.90049610023E+00  0.33907954218E+01  0.41077010677E+01  0.12700000000E+01 0. -1.
         -4    1    1    2    0  501 -0.17181156082E+01  0.90049610023E+00  0.53542324409E+01  0.58346824678E+01  0.12700000000E+01 0.  1.
<mgrwt>
<rscale>  0 0.23185587E+01</rscale>
<asrwt>0</asrwt>
<pdfrwt beam="1">0</pdfrwt>
<pdfrwt beam="2">0</pdfrwt>
<totfact> 0.30867593E+12</totfact>
</mgrwt>
</event>
<event>
 4    1  0.3168498E+006  0.8551227E+01  0.7546771E-02  0.1846012E+00
         22   -1    0    0    0    0  0.00000000000E+00  0.00000000000E+00  0.39050765380E+02  0.39050765380E+02  0.00000000000E+00 0.  1.
         22   -1    0    0    0    0 -0.00000000000E+00 -0.00000000000E+00 -0.43617794653E+01  0.43617794653E+01  0.00000000000E+00 0. -1.
          4    1    1    2  501    0 -0.78048655259E+01  0.32549425537E+01  0.94659522840E+00  0.86034597362E+01  0.12700000000E+01 0. -1.
         -4    1    1    2    0  501  0.78048655259E+01 -0.32549425537E+01  0.33742390687E+02  0.34809085109E+02  0.12700000000E+01 0.  1.
<mgrwt>
<rscale>  0 0.85512266E+01</rscale>
<asrwt>0</asrwt>
<pdfrwt beam="1">0</pdfrwt>
<pdfrwt beam="2">0</pdfrwt>
<totfact> 0.52517411E+10</totfact>
</mgrwt>
</event>
<event>
 4    1  0.3168498E+006  0.2117179E+01  0.7546771E-02  0.2905884E+00
         22   -1    0    0    0    0  0.00000000000E+00  0.00000000000E+00  0.29364839598E+02  0.29364839598E+02  0.00000000000E+00 0. -1.
         22   -1    0    0    0    0 -0.00000000000E+00 -0.00000000000E+00 -0.15920486326E+00  0.15920486326E+00  0.00000000000E+00 0. -1.
          4    1    1    2  501    0  0.14182465623E+01  0.92635002854E+00  0.17598920390E+02  0.17725813002E+02  0.12700000000E+01 0. -1.
         -4    1    1    2    0  501 -0.14182465623E+01 -0.92635002854E+00  0.11606714345E+02  0.11798231459E+02  0.12700000000E+01 0. -1.
<mgrwt>
<rscale>  0 0.21171792E+01</rscale>
<asrwt>0</asrwt>
<pdfrwt beam="1">0</pdfrwt>
<pdfrwt beam="2">0</pdfrwt>
<totfact> 0.33071984E+12</totfact>
</mgrwt>
</event>
<event>
 4    1  0.3168498E+006  0.2179949E+01  0.7546771E-02  0.2869006E+00
         22   -1    0    0    0    0  0.00000000000E+00  0.00000000000E+00  0.17471684563E+02  0.17471684563E+02  0.00000000000E+00 0. -1.
         22   -1    0    0    0    0 -0.00000000000E+00 -0.00000000000E+00 -0.35603205875E+00  0.35603205875E+00  0.00000000000E+00 0.  1.
          4    1    1    2  501    0  0.11692206946E+01 -0.13312400321E+01  0.42270914248E+01  0.47560991336E+01  0.12700000000E+01 0.  1.
         -4    1    1    2    0  501 -0.11692206946E+01  0.13312400321E+01  0.12888561079E+02  0.13071617488E+02  0.12700000000E+01 0. -1.
<mgrwt>
<rscale>  0 0.21799489E+01</rscale>
<asrwt>0</asrwt>
<pdfrwt beam="1">0</pdfrwt>
<pdfrwt beam="2">0</pdfrwt>
<totfact> 0.25805747E+12</totfact>
</mgrwt>
</event>
<event>
 4    1  0.3168498E+006  0.2271393E+01  0.7546771E-02  0.2818786E+00
         22   -1    0    0    0    0  0.00000000000E+00  0.00000000000E+00  0.63409772028E+00  0.63409772028E+00  0.00000000000E+00 0. -1.
         22   -1    0    0    0    0 -0.00000000000E+00 -0.00000000000E+00 -0.10141665780E+02  0.10141665780E+02  0.00000000000E+00 0.  1.
          4    1    1    2  501    0  0.18039668931E+01  0.54039915044E+00 -0.71496198133E+01  0.75017525464E+01  0.12700000000E+01 0.  1.
         -4    1    1    2    0  501 -0.18039668931E+01 -0.54039915044E+00 -0.23579482464E+01  0.32740109539E+01  0.12700000000E+01 0. -1.
<mgrwt>
<rscale>  0 0.22713934E+01</rscale>
<asrwt>0</asrwt>
<pdfrwt beam="1">0</pdfrwt>
<pdfrwt beam="2">0</pdfrwt>
<totfact> 0.26191890E+12</totfact>
</mgrwt>
</event>
<event>
 4    1  0.3168498E+006  0.2001734E+01  0.7546771E-02  0.2979559E+00
         22   -1    0    0    0    0  0.00000000000E+00  0.00000000000E+00  0.32805872597E+02  0.32805872597E+02  0.00000000000E+00 0. -1.
         22   -1    0    0    0    0 -0.00000000000E+00 -0.00000000000E+00 -0.14315934576E+00  0.14315934576E+00  0.00000000000E+00 0. -1.
          4    1    1    2  501    0  0.74635015435E+00 -0.13553595436E+01  0.10018828162E+02  0.10216841771E+02  0.12700000000E+01 0. -1.
         -4    1    1    2    0  501 -0.74635015435E+00  0.13553595436E+01  0.22643885090E+02  0.22732190172E+02  0.12700000000E+01 0. -1.
<mgrwt>
<rscale>  0 0.20017338E+01</rscale>
<asrwt>0</asrwt>
<pdfrwt beam="1">0</pdfrwt>
<pdfrwt beam="2">0</pdfrwt>
<totfact> 0.32306211E+12</totfact>
</mgrwt>
</event>
<event>
 4    1  0.3168498E+006  0.2509746E+01  0.7546771E-02  0.2704249E+00
         22   -1    0    0    0    0  0.00000000000E+00  0.00000000000E+00  0.16047081865E+02  0.16047081865E+02  0.00000000000E+00 0. -1.
         22   -1    0    0    0    0 -0.00000000000E+00 -0.00000000000E+00 -0.27533603056E+01  0.27533603056E+01  0.00000000000E+00 0.  1.
          4    1    1    2  501    0 -0.19968356135E+01 -0.83580531334E+00 -0.20575568823E+01  0.32453602748E+01  0.12700000000E+01 0.  1.
         -4    1    1    2    0  501  0.19968356135E+01  0.83580531334E+00  0.15351278442E+02  0.15555081896E+02  0.12700000000E+01 0. -1.
<mgrwt>
<rscale>  0 0.25097456E+01</rscale>
<asrwt>0</asrwt>
<pdfrwt beam="1">0</pdfrwt>
<pdfrwt beam="2">0</pdfrwt>
<totfact> 0.27683046E+11</totfact>
</mgrwt>
</event>
<event>
 4    1  0.3168498E+006  0.2681702E+01  0.7546771E-02  0.2633467E+00
         22   -1    0    0    0    0  0.00000000000E+00  0.00000000000E+00  0.48157174818E+00  0.48157174818E+00  0.00000000000E+00 0. -1.
         22   -1    0    0    0    0 -0.00000000000E+00 -0.00000000000E+00 -0.33691269168E+02  0.33691269168E+02  0.00000000000E+00 0.  1.
          4    1    1    2  501    0 -0.45902759382E+00  0.23168770290E+01 -0.29354069049E+02  0.29476310747E+02  0.12700000000E+01 0.  1.
         -4    1    1    2    0  501  0.45902759382E+00 -0.23168770290E+01 -0.38556283707E+01  0.46965301694E+01  0.12700000000E+01 0. -1.
<mgrwt>
<rscale>  0 0.26817020E+01</rscale>
<asrwt>0</asrwt>
<pdfrwt beam="1">0</pdfrwt>
<pdfrwt beam="2">0</pdfrwt>
<totfact> 0.80297305E+11</totfact>
</mgrwt>
</event>
<event>
 4    1  0.3168498E+006  0.3187825E+01  0.7546771E-02  0.2465963E+00
         22   -1    0    0    0    0  0.00000000000E+00  0.00000000000E+00  0.79266404857E+01  0.79266404857E+01  0.00000000000E+00 0.  1.
         22   -1    0    0    0    0 -0.00000000000E+00 -0.00000000000E+00 -0.15373443633E+01  0.15373443633E+01  0.00000000000E+00 0. -1.
          4    1    1    2  501    0  0.13451146853E+01 -0.25961505259E+01  0.12662718083E+01  0.34301130247E+01  0.12700000000E+01 0. -1.
         -4    1    1    2    0  501 -0.13451146853E+01  0.25961505259E+01  0.51230243141E+01  0.60338718244E+01  0.12700000000E+01 0. -1.
<mgrwt>
<rscale>  0 0.31878254E+01</rscale>
<asrwt>0</asrwt>
<pdfrwt beam="1">0</pdfrwt>
<pdfrwt beam="2">0</pdfrwt>
<totfact> 0.12825941E+12</totfact>
</mgrwt>
</event>
<event>
 4    1  0.3168498E+006  0.2269173E+01  0.7546771E-02  0.2819960E+00
         22   -1    0    0    0    0  0.00000000000E+00  0.00000000000E+00  0.36000861558E+01  0.36000861558E+01  0.00000000000E+00 0. -1.
         22   -1    0    0    0    0 -0.00000000000E+00 -0.00000000000E+00 -0.26723530021E+01  0.26723530021E+01  0.00000000000E+00 0.  1.
          4    1    1    2  501    0 -0.11634886148E+01  0.14773423414E+01 -0.16742549464E+01  0.28199779744E+01  0.12700000000E+01 0.  1.
         -4    1    1    2    0  501  0.11634886148E+01 -0.14773423414E+01  0.26019881001E+01  0.34524611835E+01  0.12700000000E+01 0. -1.
<mgrwt>
<rscale>  0 0.22691730E+01</rscale>
<asrwt>0</asrwt>
<pdfrwt beam="1">0</pdfrwt>
<pdfrwt beam="2">0</pdfrwt>
<totfact> 0.17249345E+12</totfact>
</mgrwt>
</event>
<event>
 4    1  0.3168498E+006  0.3442661E+01  0.7546771E-02  0.2398444E+00
         22   -1    0    0    0    0  0.00000000000E+00  0.00000000000E+00  0.56813468702E+02  0.56813468702E+02  0.00000000000E+00 0.  1.
         22   -1    0    0    0    0 -0.00000000000E+00 -0.00000000000E+00 -0.42989191226E+00  0.42989191226E+00  0.00000000000E+00 0. -1.
          4    1    1    2  501    0  0.29247772168E+01  0.12979573641E+01  0.76571312542E+01  0.83954496086E+01  0.12700000000E+01 0. -1.
         -4    1    1    2    0  501 -0.29247772168E+01 -0.12979573641E+01  0.48726445536E+02  0.48847911006E+02  0.12700000000E+01 0.  1.
<mgrwt>
<rscale>  0 0.34426610E+01</rscale>
<asrwt>0</asrwt>
<pdfrwt beam="1">0</pdfrwt>
<pdfrwt beam="2">0</pdfrwt>
<totfact> 0.46110212E+11</totfact>
</mgrwt>
</event>
<event>
 4    1  0.3168498E+006  0.2931279E+01  0.7546771E-02  0.2544353E+00
         22   -1    0    0    0    0  0.00000000000E+00  0.00000000000E+00  0.41644050506E+02  0.41644050506E+02  0.00000000000E+00 0.  1.
         22   -1    0    0    0    0 -0.00000000000E+00 -0.00000000000E+00 -0.27816540975E+00  0.27816540975E+00  0.00000000000E+00 0. -1.
          4    1    1    2  501    0 -0.21106105025E+01  0.15889689588E+01  0.10030891024E+02  0.10450415005E+02  0.12700000000E+01 0. -1.
         -4    1    1    2    0  501  0.21106105025E+01 -0.15889689588E+01  0.31334994073E+02  0.31471800911E+02  0.12700000000E+01 0.  1.
<mgrwt>
<rscale>  0 0.29312794E+01</rscale>
<asrwt>0</asrwt>
<pdfrwt beam="1">0</pdfrwt>
<pdfrwt beam="2">0</pdfrwt>
<totfact> 0.11317623E+12</totfact>
</mgrwt>
</event>
<event>
 4    1  0.3168498E+006  0.2087165E+01  0.7546771E-02  0.2924275E+00
         22   -1    0    0    0    0  0.00000000000E+00  0.00000000000E+00  0.37345943830E+00  0.37345943830E+00  0.00000000000E+00 0.  1.
         22   -1    0    0    0    0 -0.00000000000E+00 -0.00000000000E+00 -0.11692661215E+02  0.11692661215E+02  0.00000000000E+00 0.  1.
          4    1    1    2  501    0 -0.63844941994E+00 -0.15283130769E+01 -0.53640988614E+01  0.57558505121E+01  0.12700000000E+01 0. -1.
         -4    1    1    2    0  501  0.63844941994E+00  0.15283130769E+01 -0.59551029155E+01  0.63102701413E+01  0.12700000000E+01 0. -1.
<mgrwt>
<rscale>  0 0.20871652E+01</rscale>
<asrwt>0</asrwt>
<pdfrwt beam="1">0</pdfrwt>
<pdfrwt beam="2">0</pdfrwt>
<totfact> 0.40050270E+12</totfact>
</mgrwt>
</event>
<event>
 4    1  0.3168498E+006  0.2736758E+01  0.7546771E-02  0.2612539E+00
         22   -1    0    0    0    0  0.00000000000E+00  0.00000000000E+00  0.17573391700E+02  0.17573391700E+02  0.00000000000E+00 0. -1.
         22   -1    0    0    0    0 -0.00000000000E+00 -0.00000000000E+00 -0.10043271900E+01  0.10043271900E+01  0.00000000000E+00 0.  1.
          4    1    1    2  501    0 -0.21163232017E+01  0.11824221188E+01  0.12370326666E+01  0.30033474290E+01  0.12700000000E+01 0.  1.
         -4    1    1    2    0  501  0.21163232017E+01 -0.11824221188E+01  0.15332031843E+02  0.15574371461E+02  0.12700000000E+01 0. -1.
<mgrwt>
<rscale>  0 0.27367583E+01</rscale>
<asrwt>0</asrwt>
<pdfrwt beam="1">0</pdfrwt>
<pdfrwt beam="2">0</pdfrwt>
<totfact> 0.79168667E+11</totfact>
</mgrwt>
</event>
<event>
 4    1  0.3168498E+006  0.2141209E+01  0.7546771E-02  0.2891520E+00
         22   -1    0    0    0    0  0.00000000000E+00  0.00000000000E+00  0.11670387601E+02  0.11670387601E+02  0.00000000000E+00 0. -1.
         22   -1    0    0    0    0 -0.00000000000E+00 -0.00000000000E+00 -0.76202822176E+00  0.76202822176E+00  0.00000000000E+00 0.  1.
          4    1    1    2  501    0 -0.12255204643E+01 -0.12124248596E+01  0.11274986390E+01  0.24199230628E+01  0.12700000000E+01 0.  1.
         -4    1    1    2    0  501  0.12255204643E+01  0.12124248596E+01  0.97808607404E+01  0.10012492760E+02  0.12700000000E+01 0. -1.
<mgrwt>
<rscale>  0 0.21412086E+01</rscale>
<asrwt>0</asrwt>
<pdfrwt beam="1">0</pdfrwt>
<pdfrwt beam="2">0</pdfrwt>
<totfact> 0.17926503E+12</totfact>
</mgrwt>
</event>
<event>
 4    1  0.3168498E+006  0.2382950E+01  0.7546771E-02  0.2762496E+00
         22   -1    0    0    0    0  0.00000000000E+00  0.00000000000E+00  0.16832893905E+00  0.16832893905E+00  0.00000000000E+00 0. -1.
         22   -1    0    0    0    0 -0.00000000000E+00 -0.00000000000E+00 -0.50400527584E+02  0.50400527584E+02  0.00000000000E+00 0.  1.
          4    1    1    2  501    0 -0.13723202616E+01 -0.14772566760E+01 -0.39655781956E+02  0.39727314190E+02  0.12700000000E+01 0.  1.
         -4    1    1    2    0  501  0.13723202616E+01  0.14772566760E+01 -0.10576416689E+02  0.10841542334E+02  0.12700000000E+01 0. -1.
<mgrwt>
<rscale>  0 0.23829499E+01</rscale>
<asrwt>0</asrwt>
<pdfrwt beam="1">0</pdfrwt>
<pdfrwt beam="2">0</pdfrwt>
<totfact> 0.15442616E+12</totfact>
</mgrwt>
</event>
<event>
 4    1  0.3168498E+006  0.2445884E+01  0.7546771E-02  0.2732880E+00
         22   -1    0    0    0    0  0.00000000000E+00  0.00000000000E+00  0.30197119222E+01  0.30197119222E+01  0.00000000000E+00 0. -1.
         22   -1    0    0    0    0 -0.00000000000E+00 -0.00000000000E+00 -0.23582845761E+01  0.23582845761E+01  0.00000000000E+00 0.  1.
          4    1    1    2  501    0  0.72226327195E+00  0.19615770442E+01 -0.74468591011E+00  0.25567373426E+01  0.12700000000E+01 0.  1.
         -4    1    1    2    0  501 -0.72226327195E+00 -0.19615770442E+01  0.14061132562E+01  0.28212591557E+01  0.12700000000E+01 0. -1.
<mgrwt>
<rscale>  0 0.24458840E+01</rscale>
<asrwt>0</asrwt>
<pdfrwt beam="1">0</pdfrwt>
<pdfrwt beam="2">0</pdfrwt>
<totfact> 0.24510009E+12</totfact>
</mgrwt>
</event>
<event>
 4    1  0.3168498E+006  0.2629153E+01  0.7546771E-02  0.2654191E+00
         22   -1    0    0    0    0  0.00000000000E+00  0.00000000000E+00  0.26667988753E+00  0.26667988753E+00  0.00000000000E+00 0.  1.
         22   -1    0    0    0    0 -0.00000000000E+00 -0.00000000000E+00 -0.27732682588E+02  0.27732682588E+02  0.00000000000E+00 0. -1.
          4    1    1    2  501    0 -0.22304710389E+01 -0.56968960427E+00 -0.17311790316E+02  0.17510297863E+02  0.12700000000E+01 0. -1.
         -4    1    1    2    0  501  0.22304710389E+01  0.56968960427E+00 -0.10154212385E+02  0.10489064613E+02  0.12700000000E+01 0.  1.
<mgrwt>
<rscale>  0 0.26291533E+01</rscale>
<asrwt>0</asrwt>
<pdfrwt beam="1">0</pdfrwt>
<pdfrwt beam="2">0</pdfrwt>
<totfact> 0.20000124E+12</totfact>
</mgrwt>
</event>
<event>
 4    1  0.3168498E+006  0.2103338E+01  0.7546771E-02  0.2914302E+00
         22   -1    0    0    0    0  0.00000000000E+00  0.00000000000E+00  0.10010642278E+01  0.10010642278E+01  0.00000000000E+00 0.  1.
         22   -1    0    0    0    0 -0.00000000000E+00 -0.00000000000E+00 -0.45824886375E+01  0.45824886375E+01  0.00000000000E+00 0. -1.
          4    1    1    2  501    0  0.12246427774E+01  0.11451548834E+01 -0.23175048135E+01  0.31296738169E+01  0.12700000000E+01 0. -1.
         -4    1    1    2    0  501 -0.12246427774E+01 -0.11451548834E+01 -0.12639195961E+01  0.24538790485E+01  0.12700000000E+01 0.  1.
<mgrwt>
<rscale>  0 0.21033377E+01</rscale>
<asrwt>0</asrwt>
<pdfrwt beam="1">0</pdfrwt>
<pdfrwt beam="2">0</pdfrwt>
<totfact> 0.40274635E+12</totfact>
</mgrwt>
</event>
<event>
 4    1  0.3168498E+006  0.2514218E+01  0.7546771E-02  0.2702295E+00
         22   -1    0    0    0    0  0.00000000000E+00  0.00000000000E+00  0.48099194583E+02  0.48099194583E+02  0.00000000000E+00 0.  1.
         22   -1    0    0    0    0 -0.00000000000E+00 -0.00000000000E+00 -0.16717665611E+00  0.16717665611E+00  0.00000000000E+00 0.  1.
          4    1    1    2  501    0  0.21399405184E+01 -0.35923015678E+00  0.12805263141E+02  0.13049753095E+02  0.12700000000E+01 0.  1.
         -4    1    1    2    0  501 -0.21399405184E+01  0.35923015678E+00  0.35126754786E+02  0.35216618144E+02  0.12700000000E+01 0.  1.
<mgrwt>
<rscale>  0 0.25142179E+01</rscale>
<asrwt>0</asrwt>
<pdfrwt beam="1">0</pdfrwt>
<pdfrwt beam="2">0</pdfrwt>
<totfact> 0.16549633E+12</totfact>
</mgrwt>
</event>
<event>
 4    1  0.3168498E+006  0.2254468E+01  0.7546771E-02  0.2827787E+00
         22   -1    0    0    0    0  0.00000000000E+00  0.00000000000E+00  0.16729961615E+00  0.16729961615E+00  0.00000000000E+00 0. -1.
         22   -1    0    0    0    0 -0.00000000000E+00 -0.00000000000E+00 -0.31453157490E+02  0.31453157490E+02  0.00000000000E+00 0.  1.
          4    1    1    2  501    0 -0.16570573880E+01  0.85081634626E+00 -0.12723090935E+02  0.12921287497E+02  0.12700000000E+01 0. -1.
         -4    1    1    2    0  501  0.16570573880E+01 -0.85081634626E+00 -0.18562766939E+02  0.18699169610E+02  0.12700000000E+01 0.  1.
<mgrwt>
<rscale>  0 0.22544684E+01</rscale>
<asrwt>0</asrwt>
<pdfrwt beam="1">0</pdfrwt>
<pdfrwt beam="2">0</pdfrwt>
<totfact> 0.28671510E+12</totfact>
</mgrwt>
</event>
<event>
 4    1  0.3168498E+006  0.2157914E+01  0.7546771E-02  0.2881716E+00
         22   -1    0    0    0    0  0.00000000000E+00  0.00000000000E+00  0.10858927312E+02  0.10858927312E+02  0.00000000000E+00 0. -1.
         22   -1    0    0    0    0 -0.00000000000E+00 -0.00000000000E+00 -0.78343764602E+00  0.78343764602E+00  0.00000000000E+00 0.  1.
          4    1    1    2  501    0 -0.14065146286E+01  0.10321857123E+01  0.11213589999E+01  0.24318792634E+01  0.12700000000E+01 0.  1.
         -4    1    1    2    0  501  0.14065146286E+01 -0.10321857123E+01  0.89541306661E+01  0.92104856946E+01  0.12700000000E+01 0. -1.
<mgrwt>
<rscale>  0 0.21579135E+01</rscale>
<asrwt>0</asrwt>
<pdfrwt beam="1">0</pdfrwt>
<pdfrwt beam="2">0</pdfrwt>
<totfact> 0.18962022E+12</totfact>
</mgrwt>
</event>
<event>
 4    1  0.3168498E+006  0.3728294E+01  0.7546771E-02  0.2332449E+00
         22   -1    0    0    0    0  0.00000000000E+00  0.00000000000E+00  0.78112316996E+01  0.78112316996E+01  0.00000000000E+00 0.  1.
         22   -1    0    0    0    0 -0.00000000000E+00 -0.00000000000E+00 -0.24351062958E+01  0.24351062958E+01  0.00000000000E+00 0. -1.
          4    1    1    2  501    0  0.94313824711E+00 -0.33760577503E+01  0.29802376539E-01  0.37284130496E+01  0.12700000000E+01 0.  1.
         -4    1    1    2    0  501 -0.94313824711E+00  0.33760577503E+01  0.53463230273E+01  0.65179249458E+01  0.12700000000E+01 0.  1.
<mgrwt>
<rscale>  0 0.37282939E+01</rscale>
<asrwt>0</asrwt>
<pdfrwt beam="1">0</pdfrwt>
<pdfrwt beam="2">0</pdfrwt>
<totfact> 0.76681701E+11</totfact>
</mgrwt>
</event>
<event>
 4    1  0.3168498E+006  0.2311443E+01  0.7546771E-02  0.2797986E+00
         22   -1    0    0    0    0  0.00000000000E+00  0.00000000000E+00  0.19938298250E+01  0.19938298250E+01  0.00000000000E+00 0.  1.
         22   -1    0    0    0    0 -0.00000000000E+00 -0.00000000000E+00 -0.33226815046E+01  0.33226815046E+01  0.00000000000E+00 0. -1.
          4    1    1    2  501    0 -0.42836689921E+00  0.18831808898E+01 -0.18338393707E+01  0.29505483053E+01  0.12700000000E+01 0. -1.
         -4    1    1    2    0  501  0.42836689921E+00 -0.18831808898E+01  0.50498769121E+00  0.23659630243E+01  0.12700000000E+01 0.  1.
<mgrwt>
<rscale>  0 0.23114429E+01</rscale>
<asrwt>0</asrwt>
<pdfrwt beam="1">0</pdfrwt>
<pdfrwt beam="2">0</pdfrwt>
<totfact> 0.26625741E+12</totfact>
</mgrwt>
</event>
<event>
 4    1  0.3168498E+006  0.5016934E+01  0.7546771E-02  0.2120988E+00
         22   -1    0    0    0    0  0.00000000000E+00  0.00000000000E+00  0.12791085164E+01  0.12791085164E+01  0.00000000000E+00 0.  1.
         22   -1    0    0    0    0 -0.00000000000E+00 -0.00000000000E+00 -0.21402312994E+02  0.21402312994E+02  0.00000000000E+00 0. -1.
          4    1    1    2  501    0 -0.20112865316E+01  0.44171774695E+01 -0.13281066695E+02  0.14197054725E+02  0.12700000000E+01 0. -1.
         -4    1    1    2    0  501  0.20112865316E+01 -0.44171774695E+01 -0.68421377819E+01  0.84843667846E+01  0.12700000000E+01 0.  1.
<mgrwt>
<rscale>  0 0.50169344E+01</rscale>
<asrwt>0</asrwt>
<pdfrwt beam="1">0</pdfrwt>
<pdfrwt beam="2">0</pdfrwt>
<totfact> 0.46962896E+11</totfact>
</mgrwt>
</event>
<event>
 4    1  0.3168498E+006  0.2524599E+01  0.7546771E-02  0.2697784E+00
         22   -1    0    0    0    0  0.00000000000E+00  0.00000000000E+00  0.15914591530E+01  0.15914591530E+01  0.00000000000E+00 0. -1.
         22   -1    0    0    0    0 -0.00000000000E+00 -0.00000000000E+00 -0.67804616445E+01  0.67804616445E+01  0.00000000000E+00 0. -1.
          4    1    1    2  501    0 -0.11733281434E+01 -0.18395651599E+01 -0.52726992662E+01  0.58459350374E+01  0.12700000000E+01 0. -1.
         -4    1    1    2    0  501  0.11733281434E+01  0.18395651599E+01  0.83696774675E-01  0.25259857600E+01  0.12700000000E+01 0. -1.
<mgrwt>
<rscale>  0 0.25245988E+01</rscale>
<asrwt>0</asrwt>
<pdfrwt beam="1">0</pdfrwt>
<pdfrwt beam="2">0</pdfrwt>
<totfact> 0.14860545E+12</totfact>
</mgrwt>
</event>
<event>
 4    1  0.3168498E+006  0.2315808E+01  0.7546771E-02  0.2795760E+00
         22   -1    0    0    0    0  0.00000000000E+00  0.00000000000E+00  0.43664271495E+02  0.43664271495E+02  0.00000000000E+00 0.  1.
         22   -1    0    0    0    0 -0.00000000000E+00 -0.00000000000E+00 -0.12332777675E+00  0.12332777675E+00  0.00000000000E+00 0. -1.
          4    1    1    2  501    0 -0.47990949633E+00 -0.18761011568E+01  0.20369528543E+02  0.20500747833E+02  0.12700000000E+01 0.  1.
         -4    1    1    2    0  501  0.47990949633E+00  0.18761011568E+01  0.23171415176E+02  0.23286851438E+02  0.12700000000E+01 0. -1.
<mgrwt>
<rscale>  0 0.23158084E+01</rscale>
<asrwt>0</asrwt>
<pdfrwt beam="1">0</pdfrwt>
<pdfrwt beam="2">0</pdfrwt>
<totfact> 0.26341926E+12</totfact>
</mgrwt>
</event>
<event>
 4    1  0.3168498E+006  0.6702007E+01  0.7546771E-02  0.1961916E+00
         22   -1    0    0    0    0  0.00000000000E+00  0.00000000000E+00  0.41947401210E+01  0.41947401210E+01  0.00000000000E+00 0. -1.
         22   -1    0    0    0    0 -0.00000000000E+00 -0.00000000000E+00 -0.10792136979E+02  0.10792136979E+02  0.00000000000E+00 0.  1.
          4    1    1    2  501    0 -0.19027851422E-01  0.65805500458E+01 -0.26367071704E+01  0.72020223318E+01  0.12700000000E+01 0. -1.
         -4    1    1    2    0  501  0.19027851422E-01 -0.65805500458E+01 -0.39606896881E+01  0.77848547687E+01  0.12700000000E+01 0.  1.
<mgrwt>
<rscale>  0 0.67020072E+01</rscale>
<asrwt>0</asrwt>
<pdfrwt beam="1">0</pdfrwt>
<pdfrwt beam="2">0</pdfrwt>
<totfact> 0.27469009E+11</totfact>
</mgrwt>
</event>
<event>
 4    1  0.3168498E+006  0.2387421E+01  0.7546771E-02  0.2760344E+00
         22   -1    0    0    0    0  0.00000000000E+00  0.00000000000E+00  0.16322863691E+01  0.16322863691E+01  0.00000000000E+00 0. -1.
         22   -1    0    0    0    0 -0.00000000000E+00 -0.00000000000E+00 -0.35572607806E+01  0.35572607806E+01  0.00000000000E+00 0.  1.
          4    1    1    2  501    0 -0.14132521128E+01 -0.14455439311E+01 -0.61076137673E+00  0.24643068499E+01  0.12700000000E+01 0.  1.
         -4    1    1    2    0  501  0.14132521128E+01  0.14455439311E+01 -0.13142130348E+01  0.27252402999E+01  0.12700000000E+01 0. -1.
<mgrwt>
<rscale>  0 0.23874209E+01</rscale>
<asrwt>0</asrwt>
<pdfrwt beam="1">0</pdfrwt>
<pdfrwt beam="2">0</pdfrwt>
<totfact> 0.30969514E+12</totfact>
</mgrwt>
</event>
<event>
 4    1  0.3168498E+006  0.3567878E+01  0.7546771E-02  0.2368383E+00
         22   -1    0    0    0    0  0.00000000000E+00  0.00000000000E+00  0.65768694735E+01  0.65768694735E+01  0.00000000000E+00 0. -1.
         22   -1    0    0    0    0 -0.00000000000E+00 -0.00000000000E+00 -0.48557034333E+01  0.48557034333E+01  0.00000000000E+00 0. -1.
          4    1    1    2  501    0 -0.64560392815E-01 -0.33335697869E+01 -0.35723576624E+01  0.50489102623E+01  0.12700000000E+01 0. -1.
         -4    1    1    2    0  501  0.64560392815E-01  0.33335697869E+01  0.52935237027E+01  0.63836626445E+01  0.12700000000E+01 0. -1.
<mgrwt>
<rscale>  0 0.35678783E+01</rscale>
<asrwt>0</asrwt>
<pdfrwt beam="1">0</pdfrwt>
<pdfrwt beam="2">0</pdfrwt>
<totfact> 0.41949028E+11</totfact>
</mgrwt>
</event>
<event>
 4    1  0.3168498E+006  0.3856038E+01  0.7546771E-02  0.2305688E+00
         22   -1    0    0    0    0  0.00000000000E+00  0.00000000000E+00  0.39523967763E+01  0.39523967763E+01  0.00000000000E+00 0. -1.
         22   -1    0    0    0    0 -0.00000000000E+00 -0.00000000000E+00 -0.51220033702E+01  0.51220033702E+01  0.00000000000E+00 0.  1.
          4    1    1    2  501    0  0.87446546734E-02 -0.36408857179E+01 -0.29227446097E+01  0.48385391735E+01  0.12700000000E+01 0.  1.
         -4    1    1    2    0  501 -0.87446546734E-02  0.36408857179E+01  0.17531380158E+01  0.42358609730E+01  0.12700000000E+01 0. -1.
<mgrwt>
<rscale>  0 0.38560375E+01</rscale>
<asrwt>0</asrwt>
<pdfrwt beam="1">0</pdfrwt>
<pdfrwt beam="2">0</pdfrwt>
<totfact> 0.71994354E+11</totfact>
</mgrwt>
</event>
<event>
 4    1  0.3168498E+006  0.2928394E+01  0.7546771E-02  0.2545304E+00
         22   -1    0    0    0    0  0.00000000000E+00  0.00000000000E+00  0.21552789909E+02  0.21552789909E+02  0.00000000000E+00 0. -1.
         22   -1    0    0    0    0 -0.00000000000E+00 -0.00000000000E+00 -0.40054199092E+01  0.40054199092E+01  0.00000000000E+00 0.  1.
          4    1    1    2  501    0  0.23434193199E+01  0.12128377183E+01 -0.33541086472E+01  0.44525873666E+01  0.12700000000E+01 0.  1.
         -4    1    1    2    0  501 -0.23434193199E+01 -0.12128377183E+01  0.20901478647E+02  0.21105622452E+02  0.12700000000E+01 0. -1.
<mgrwt>
<rscale>  0 0.29283937E+01</rscale>
<asrwt>0</asrwt>
<pdfrwt beam="1">0</pdfrwt>
<pdfrwt beam="2">0</pdfrwt>
<totfact> 0.12370042E+11</totfact>
</mgrwt>
</event>
<event>
 4    1  0.3168498E+006  0.2276451E+01  0.7546771E-02  0.2816121E+00
         22   -1    0    0    0    0  0.00000000000E+00  0.00000000000E+00  0.17067398116E+01  0.17067398116E+01  0.00000000000E+00 0. -1.
         22   -1    0    0    0    0 -0.00000000000E+00 -0.00000000000E+00 -0.32734654615E+01  0.32734654615E+01  0.00000000000E+00 0. -1.
          4    1    1    2  501    0  0.18332868375E+01 -0.45649565988E+00 -0.14535709279E+01  0.27009437903E+01  0.12700000000E+01 0. -1.
         -4    1    1    2    0  501 -0.18332868375E+01  0.45649565988E+00 -0.11315472198E+00  0.22792614828E+01  0.12700000000E+01 0. -1.
<mgrwt>
<rscale>  0 0.22764509E+01</rscale>
<asrwt>0</asrwt>
<pdfrwt beam="1">0</pdfrwt>
<pdfrwt beam="2">0</pdfrwt>
<totfact> 0.32427036E+12</totfact>
</mgrwt>
</event>
<event>
 4    1  0.3168498E+006  0.3412148E+01  0.7546771E-02  0.2406060E+00
         22   -1    0    0    0    0  0.00000000000E+00  0.00000000000E+00  0.40588262379E+02  0.40588262379E+02  0.00000000000E+00 0. -1.
         22   -1    0    0    0    0 -0.00000000000E+00 -0.00000000000E+00 -0.30589723272E+00  0.30589723272E+00  0.00000000000E+00 0.  1.
          4    1    1    2  501    0 -0.29865036349E+00 -0.31528811789E+01  0.15038987994E+02  0.15421216283E+02  0.12700000000E+01 0. -1.
         -4    1    1    2    0  501  0.29865036349E+00  0.31528811789E+01  0.25243377153E+02  0.25472943329E+02  0.12700000000E+01 0.  1.
<mgrwt>
<rscale>  0 0.34121477E+01</rscale>
<asrwt>0</asrwt>
<pdfrwt beam="1">0</pdfrwt>
<pdfrwt beam="2">0</pdfrwt>
<totfact> 0.10519635E+12</totfact>
</mgrwt>
</event>
<event>
 4    1  0.3168498E+006  0.2145687E+01  0.7546771E-02  0.2888877E+00
         22   -1    0    0    0    0  0.00000000000E+00  0.00000000000E+00  0.28618018424E+02  0.28618018424E+02  0.00000000000E+00 0.  1.
         22   -1    0    0    0    0 -0.00000000000E+00 -0.00000000000E+00 -0.16275665070E+00  0.16275665070E+00  0.00000000000E+00 0.  1.
          4    1    1    2  501    0 -0.12287925193E+01 -0.12170213277E+01  0.15774230688E+02  0.15919495148E+02  0.12700000000E+01 0.  1.
         -4    1    1    2    0  501  0.12287925193E+01  0.12170213277E+01  0.12681031086E+02  0.12861279927E+02  0.12700000000E+01 0.  1.
<mgrwt>
<rscale>  0 0.21456868E+01</rscale>
<asrwt>0</asrwt>
<pdfrwt beam="1">0</pdfrwt>
<pdfrwt beam="2">0</pdfrwt>
<totfact> 0.33345023E+12</totfact>
</mgrwt>
</event>
<event>
 4    1  0.3168498E+006  0.2100382E+01  0.7546771E-02  0.2916113E+00
         22   -1    0    0    0    0  0.00000000000E+00  0.00000000000E+00  0.48545783978E-01  0.48545783978E-01  0.00000000000E+00 0.  1.
         22   -1    0    0    0    0 -0.00000000000E+00 -0.00000000000E+00 -0.10731344009E+03  0.10731344009E+03  0.00000000000E+00 0. -1.
          4    1    1    2  501    0 -0.16213788047E+01 -0.41211248434E+00 -0.74642234590E+02  0.74671780416E+02  0.12700000000E+01 0.  1.
         -4    1    1    2    0  501  0.16213788047E+01  0.41211248434E+00 -0.32622659716E+02  0.32690205458E+02  0.12700000000E+01 0. -1.
<mgrwt>
<rscale>  0 0.21003823E+01</rscale>
<asrwt>0</asrwt>
<pdfrwt beam="1">0</pdfrwt>
<pdfrwt beam="2">0</pdfrwt>
<totfact> 0.21767950E+12</totfact>
</mgrwt>
</event>
