<event>
 4    2  0.2093759E+006  0.2023557E+01  0.7546771E-02  0.2965003E+00
         22   -1    0    0    0    0  0.00000000000E+00  0.00000000000E+00  0.27288499965E+02  0.27288499965E+02  0.00000000000E+00 0. -1.
         22   -1    0    0    0    0 -0.00000000000E+00 -0.00000000000E+00 -0.15038129956E+00  0.15038129956E+00  0.00000000000E+00 0.  1.
          4    1    1    2  501    0  0.14481291546E+01  0.14134019241E+01  0.14207870405E+02  0.14351249579E+02  0.00000000000E+00 0.  1.
         -4    1    1    2    0  501 -0.14481291546E+01 -0.14134019241E+01  0.12930248261E+02  0.13087631686E+02  0.00000000000E+00 0. -1.
<mgrwt>
<rscale>  0 0.20235570E+01</rscale>
<asrwt>0</asrwt>
<pdfrwt beam="1">0</pdfrwt>
<pdfrwt beam="2">0</pdfrwt>
<totfact> 0.38675734E+12</totfact>
</mgrwt>
</event>
<event>
 4    2  0.2093759E+006  0.2710870E+01  0.7546771E-02  0.2622283E+00
         22   -1    0    0    0    0  0.00000000000E+00  0.00000000000E+00  0.63153925498E+01  0.63153925498E+01  0.00000000000E+00 0. -1.
         22   -1    0    0    0    0 -0.00000000000E+00 -0.00000000000E+00 -0.12586354344E+01  0.12586354344E+01  0.00000000000E+00 0.  1.
          4    1    1    2  501    0 -0.25463245745E+01  0.93008010587E+00  0.14879613060E+01  0.30923852752E+01  0.00000000000E+00 0. -1.
         -4    1    1    2    0  501  0.25463245745E+01 -0.93008010587E+00  0.35687958094E+01  0.44816427090E+01  0.00000000000E+00 0.  1.
<mgrwt>
<rscale>  0 0.27108703E+01</rscale>
<asrwt>0</asrwt>
<pdfrwt beam="1">0</pdfrwt>
<pdfrwt beam="2">0</pdfrwt>
<totfact> 0.21182856E+12</totfact>
</mgrwt>
</event>
<event>
 4    2  0.2093759E+006  0.2607255E+01  0.7546771E-02  0.2663053E+00
         22   -1    0    0    0    0  0.00000000000E+00  0.00000000000E+00  0.44086825360E+02  0.44086825360E+02  0.00000000000E+00 0.  1.
         22   -1    0    0    0    0 -0.00000000000E+00 -0.00000000000E+00 -0.33788338252E+00  0.33788338252E+00  0.00000000000E+00 0. -1.
          4    1    1    2  501    0  0.26067378881E+01 -0.51940747491E-01  0.54966146645E+01  0.60836299220E+01  0.00000000000E+00 0. -1.
         -4    1    1    2    0  501 -0.26067378881E+01  0.51940747491E-01  0.38252327313E+02  0.38341078821E+02  0.00000000000E+00 0.  1.
<mgrwt>
<rscale>  0 0.26072553E+01</rscale>
<asrwt>0</asrwt>
<pdfrwt beam="1">0</pdfrwt>
<pdfrwt beam="2">0</pdfrwt>
<totfact> 0.84476296E+11</totfact>
</mgrwt>
</event>
<event>
 4    2  0.2093759E+006  0.2048502E+01  0.7546771E-02  0.2948737E+00
         22   -1    0    0    0    0  0.00000000000E+00  0.00000000000E+00  0.40733460826E+00  0.40733460826E+00  0.00000000000E+00 0. -1.
         22   -1    0    0    0    0 -0.00000000000E+00 -0.00000000000E+00 -0.11418487778E+02  0.11418487778E+02  0.00000000000E+00 0.  1.
          4    1    1    2  501    0 -0.17039928953E+01 -0.11370004641E+01 -0.73545203784E+01  0.76344830760E+01  0.00000000000E+00 0.  1.
         -4    1    1    2    0  501  0.17039928953E+01  0.11370004641E+01 -0.36566327913E+01  0.41913393101E+01  0.00000000000E+00 0. -1.
<mgrwt>
<rscale>  0 0.20485023E+01</rscale>
<asrwt>0</asrwt>
<pdfrwt beam="1">0</pdfrwt>
<pdfrwt beam="2">0</pdfrwt>
<totfact> 0.37386650E+12</totfact>
</mgrwt>
</event>
<event>
 4    2  0.2093759E+006  0.2289948E+01  0.7546771E-02  0.2809064E+00
         22   -1    0    0    0    0  0.00000000000E+00  0.00000000000E+00  0.20292345197E+00  0.20292345197E+00  0.00000000000E+00 0. -1.
         22   -1    0    0    0    0 -0.00000000000E+00 -0.00000000000E+00 -0.29732721811E+02  0.29732721811E+02  0.00000000000E+00 0.  1.
          4    1    1    2  501    0  0.26654735603E-01 -0.22897924576E+01 -0.20179675873E+02  0.20309189504E+02  0.00000000000E+00 0.  1.
         -4    1    1    2    0  501 -0.26654735603E-01  0.22897924576E+01 -0.93501224863E+01  0.96264557591E+01  0.00000000000E+00 0. -1.
<mgrwt>
<rscale>  0 0.22899476E+01</rscale>
<asrwt>0</asrwt>
<pdfrwt beam="1">0</pdfrwt>
<pdfrwt beam="2">0</pdfrwt>
<totfact> 0.24842061E+12</totfact>
</mgrwt>
</event>
<event>
 4    2  0.2093759E+006  0.2156318E+01  0.7546771E-02  0.2882646E+00
         22   -1    0    0    0    0  0.00000000000E+00  0.00000000000E+00  0.31067757079E+01  0.31067757079E+01  0.00000000000E+00 0.  1.
         22   -1    0    0    0    0 -0.00000000000E+00 -0.00000000000E+00 -0.21788971044E+01  0.21788971044E+01  0.00000000000E+00 0. -1.
          4    1    1    2  501    0  0.10117682410E+01  0.19042143090E+01 -0.10149230917E+01  0.23832280609E+01  0.00000000000E+00 0. -1.
         -4    1    1    2    0  501 -0.10117682410E+01 -0.19042143090E+01  0.19428016952E+01  0.29024447514E+01  0.00000000000E+00 0.  1.
<mgrwt>
<rscale>  0 0.21563180E+01</rscale>
<asrwt>0</asrwt>
<pdfrwt beam="1">0</pdfrwt>
<pdfrwt beam="2">0</pdfrwt>
<totfact> 0.25988142E+12</totfact>
</mgrwt>
</event>
<event>
 4    2  0.2093759E+006  0.2356541E+01  0.7546771E-02  0.2775367E+00
         22   -1    0    0    0    0  0.00000000000E+00  0.00000000000E+00  0.11130818819E+01  0.11130818819E+01  0.00000000000E+00 0.  1.
         22   -1    0    0    0    0 -0.00000000000E+00 -0.00000000000E+00 -0.12493806840E+02  0.12493806840E+02  0.00000000000E+00 0. -1.
          4    1    1    2  501    0  0.96938050032E+00 -0.21479259133E+01 -0.10963245246E+02  0.11213653758E+02  0.00000000000E+00 0. -1.
         -4    1    1    2    0  501 -0.96938050032E+00  0.21479259133E+01 -0.41747971261E+00  0.23932349642E+01  0.00000000000E+00 0.  1.
<mgrwt>
<rscale>  0 0.23565407E+01</rscale>
<asrwt>0</asrwt>
<pdfrwt beam="1">0</pdfrwt>
<pdfrwt beam="2">0</pdfrwt>
<totfact> 0.10708985E+12</totfact>
</mgrwt>
</event>
<event>
 4    2  0.2093759E+006  0.2355949E+01  0.7546771E-02  0.2775658E+00
         22   -1    0    0    0    0  0.00000000000E+00  0.00000000000E+00  0.43134733671E+00  0.43134733671E+00  0.00000000000E+00 0. -1.
         22   -1    0    0    0    0 -0.00000000000E+00 -0.00000000000E+00 -0.21254099850E+02  0.21254099850E+02  0.00000000000E+00 0.  1.
          4    1    1    2  501    0  0.20272205667E+01  0.12003636117E+01 -0.17222235978E+02  0.17382632370E+02  0.00000000000E+00 0.  1.
         -4    1    1    2    0  501 -0.20272205667E+01 -0.12003636117E+01 -0.36005165351E+01  0.43028148166E+01  0.00000000000E+00 0. -1.
<mgrwt>
<rscale>  0 0.23559491E+01</rscale>
<asrwt>0</asrwt>
<pdfrwt beam="1">0</pdfrwt>
<pdfrwt beam="2">0</pdfrwt>
<totfact> 0.16293274E+12</totfact>
</mgrwt>
</event>
<event>
 4    2  0.2093759E+006  0.3164350E+01  0.7546771E-02  0.2472664E+00
         22   -1    0    0    0    0  0.00000000000E+00  0.00000000000E+00  0.10481522131E+01  0.10481522131E+01  0.00000000000E+00 0.  1.
         22   -1    0    0    0    0 -0.00000000000E+00 -0.00000000000E+00 -0.10286818187E+02  0.10286818187E+02  0.00000000000E+00 0. -1.
          4    1    1    2  501    0  0.53396789231E+00 -0.31189723129E+01 -0.61329378071E+01  0.69011619417E+01  0.00000000000E+00 0. -1.
         -4    1    1    2    0  501 -0.53396789231E+00  0.31189723129E+01 -0.31057281665E+01  0.44338084581E+01  0.00000000000E+00 0.  1.
<mgrwt>
<rscale>  0 0.31643499E+01</rscale>
<asrwt>0</asrwt>
<pdfrwt beam="1">0</pdfrwt>
<pdfrwt beam="2">0</pdfrwt>
<totfact> 0.14531748E+12</totfact>
</mgrwt>
</event>
<event>
 4    2  0.2093759E+006  0.2330412E+01  0.7546771E-02  0.2788371E+00
         22   -1    0    0    0    0  0.00000000000E+00  0.00000000000E+00  0.22885995415E+01  0.22885995415E+01  0.00000000000E+00 0. -1.
         22   -1    0    0    0    0 -0.00000000000E+00 -0.00000000000E+00 -0.24211885390E+01  0.24211885390E+01  0.00000000000E+00 0.  1.
          4    1    1    2  501    0 -0.15691397427E+01  0.17229687094E+01  0.26596709567E+00  0.23455402793E+01  0.00000000000E+00 0. -1.
         -4    1    1    2    0  501  0.15691397427E+01 -0.17229687094E+01 -0.39855609321E+00  0.23642478012E+01  0.00000000000E+00 0.  1.
<mgrwt>
<rscale>  0 0.23304121E+01</rscale>
<asrwt>0</asrwt>
<pdfrwt beam="1">0</pdfrwt>
<pdfrwt beam="2">0</pdfrwt>
<totfact> 0.32829358E+12</totfact>
</mgrwt>
</event>
<event>
 4    2  0.2093759E+006  0.2550048E+01  0.7546771E-02  0.2686869E+00
         22   -1    0    0    0    0  0.00000000000E+00  0.00000000000E+00  0.21421480828E+02  0.21421480828E+02  0.00000000000E+00 0. -1.
         22   -1    0    0    0    0 -0.00000000000E+00 -0.00000000000E+00 -0.34613704264E+00  0.34613704264E+00  0.00000000000E+00 0.  1.
          4    1    1    2  501    0  0.24540547812E+01 -0.69307920524E+00  0.67205559963E+01  0.71880885187E+01  0.00000000000E+00 0.  1.
         -4    1    1    2    0  501 -0.24540547812E+01  0.69307920524E+00  0.14354787789E+02  0.14579529352E+02  0.00000000000E+00 0. -1.
<mgrwt>
<rscale>  0 0.25500478E+01</rscale>
<asrwt>0</asrwt>
<pdfrwt beam="1">0</pdfrwt>
<pdfrwt beam="2">0</pdfrwt>
<totfact> 0.20667582E+12</totfact>
</mgrwt>
</event>
<event>
 4    2  0.2093759E+006  0.4208005E+01  0.7546771E-02  0.2239214E+00
         22   -1    0    0    0    0  0.00000000000E+00  0.00000000000E+00  0.13104842043E+02  0.13104842043E+02  0.00000000000E+00 0. -1.
         22   -1    0    0    0    0 -0.00000000000E+00 -0.00000000000E+00 -0.16810552830E+01  0.16810552830E+01  0.00000000000E+00 0.  1.
          4    1    1    2  501    0 -0.15554605410E+00  0.42051295093E+01  0.24370834849E+01  0.48627856911E+01  0.00000000000E+00 0. -1.
         -4    1    1    2    0  501  0.15554605410E+00 -0.42051295093E+01  0.89867032747E+01  0.99231116346E+01  0.00000000000E+00 0.  1.
<mgrwt>
<rscale>  0 0.42080053E+01</rscale>
<asrwt>0</asrwt>
<pdfrwt beam="1">0</pdfrwt>
<pdfrwt beam="2">0</pdfrwt>
<totfact> 0.62914934E+11</totfact>
</mgrwt>
</event>
<event>
 4    2  0.2093759E+006  0.2455795E+01  0.7546771E-02  0.2728345E+00
         22   -1    0    0    0    0  0.00000000000E+00  0.00000000000E+00  0.10518599749E+01  0.10518599749E+01  0.00000000000E+00 0. -1.
         22   -1    0    0    0    0 -0.00000000000E+00 -0.00000000000E+00 -0.63142223457E+01  0.63142223457E+01  0.00000000000E+00 0.  1.
          4    1    1    2  501    0  0.21501948117E+01  0.11864191716E+01 -0.37480425307E+01  0.44809319333E+01  0.00000000000E+00 0. -1.
         -4    1    1    2    0  501 -0.21501948117E+01 -0.11864191716E+01 -0.15143198402E+01  0.28851503873E+01  0.00000000000E+00 0.  1.
<mgrwt>
<rscale>  0 0.24557948E+01</rscale>
<asrwt>0</asrwt>
<pdfrwt beam="1">0</pdfrwt>
<pdfrwt beam="2">0</pdfrwt>
<totfact> 0.26019894E+12</totfact>
</mgrwt>
</event>
<event>
 4    2  0.2093759E+006  0.2132553E+01  0.7546771E-02  0.2896658E+00
         22   -1    0    0    0    0  0.00000000000E+00  0.00000000000E+00  0.32748462490E+01  0.32748462490E+01  0.00000000000E+00 0.  1.
         22   -1    0    0    0    0 -0.00000000000E+00 -0.00000000000E+00 -0.13932468529E+01  0.13932468529E+01  0.00000000000E+00 0. -1.
          4    1    1    2  501    0  0.16953453036E+01  0.12936723708E+01  0.10741147656E+01  0.23877827437E+01  0.00000000000E+00 0.  1.
         -4    1    1    2    0  501 -0.16953453036E+01 -0.12936723708E+01  0.80748463052E+00  0.22803103583E+01  0.00000000000E+00 0. -1.
<mgrwt>
<rscale>  0 0.21325534E+01</rscale>
<asrwt>0</asrwt>
<pdfrwt beam="1">0</pdfrwt>
<pdfrwt beam="2">0</pdfrwt>
<totfact> 0.40940496E+12</totfact>
</mgrwt>
</event>
<event>
 4    2  0.2093759E+006  0.2223335E+01  0.7546771E-02  0.2844687E+00
         22   -1    0    0    0    0  0.00000000000E+00  0.00000000000E+00  0.87520275035E+01  0.87520275035E+01  0.00000000000E+00 0. -1.
         22   -1    0    0    0    0 -0.00000000000E+00 -0.00000000000E+00 -0.56572172045E+00  0.56572172045E+00  0.00000000000E+00 0.  1.
          4    1    1    2  501    0  0.31054165154E+00  0.22015407519E+01  0.42803565411E+01  0.48233463403E+01  0.00000000000E+00 0.  1.
         -4    1    1    2    0  501 -0.31054165154E+00 -0.22015407519E+01  0.39059492419E+01  0.44944028836E+01  0.00000000000E+00 0. -1.
<mgrwt>
<rscale>  0 0.22233348E+01</rscale>
<asrwt>0</asrwt>
<pdfrwt beam="1">0</pdfrwt>
<pdfrwt beam="2">0</pdfrwt>
<totfact> 0.35612790E+12</totfact>
</mgrwt>
</event>
<event>
 4    2  0.2093759E+006  0.2107592E+01  0.7546771E-02  0.2911703E+00
         22   -1    0    0    0    0  0.00000000000E+00  0.00000000000E+00  0.21962376473E+01  0.21962376473E+01  0.00000000000E+00 0. -1.
         22   -1    0    0    0    0 -0.00000000000E+00 -0.00000000000E+00 -0.30681751943E+01  0.30681751943E+01  0.00000000000E+00 0.  1.
          4    1    1    2  501    0  0.26073661244E+00  0.20914019967E+01 -0.19726119986E+01  0.28867185506E+01  0.00000000000E+00 0.  1.
         -4    1    1    2    0  501 -0.26073661244E+00 -0.20914019967E+01  0.11006744516E+01  0.23776942910E+01  0.00000000000E+00 0. -1.
<mgrwt>
<rscale>  0 0.21075924E+01</rscale>
<asrwt>0</asrwt>
<pdfrwt beam="1">0</pdfrwt>
<pdfrwt beam="2">0</pdfrwt>
<totfact> 0.26129129E+12</totfact>
</mgrwt>
</event>
<event>
 4    2  0.2093759E+006  0.4563498E+01  0.7546771E-02  0.2180992E+00
         22   -1    0    0    0    0  0.00000000000E+00  0.00000000000E+00  0.18196426329E+02  0.18196426329E+02  0.00000000000E+00 0.  1.
         22   -1    0    0    0    0 -0.00000000000E+00 -0.00000000000E+00 -0.12026618991E+01  0.12026618991E+01  0.00000000000E+00 0. -1.
          4    1    1    2  501    0  0.31158709251E+01 -0.33341959259E+01  0.63635449154E+01  0.78307226987E+01  0.00000000000E+00 0. -1.
         -4    1    1    2    0  501 -0.31158709251E+01  0.33341959259E+01  0.10630219515E+02  0.11568365530E+02  0.00000000000E+00 0.  1.
<mgrwt>
<rscale>  0 0.45634980E+01</rscale>
<asrwt>0</asrwt>
<pdfrwt beam="1">0</pdfrwt>
<pdfrwt beam="2">0</pdfrwt>
<totfact> 0.61696856E+11</totfact>
</mgrwt>
</event>
<event>
 4    2  0.2093759E+006  0.2377891E+01  0.7546771E-02  0.2764941E+00
         22   -1    0    0    0    0  0.00000000000E+00  0.00000000000E+00  0.18231469799E+01  0.18231469799E+01  0.00000000000E+00 0. -1.
         22   -1    0    0    0    0 -0.00000000000E+00 -0.00000000000E+00 -0.19137781503E+02  0.19137781503E+02  0.00000000000E+00 0.  1.
          4    1    1    2  501    0  0.97639973893E+00  0.21681812863E+01 -0.18251046998E+02  0.18405300407E+02  0.00000000000E+00 0.  1.
         -4    1    1    2    0  501 -0.97639973893E+00 -0.21681812863E+01  0.93641247490E+00  0.25556280761E+01  0.00000000000E+00 0. -1.
<mgrwt>
<rscale>  0 0.23778912E+01</rscale>
<asrwt>0</asrwt>
<pdfrwt beam="1">0</pdfrwt>
<pdfrwt beam="2">0</pdfrwt>
<totfact> 0.35906110E+11</totfact>
</mgrwt>
</event>
<event>
 4    2  0.2093759E+006  0.3274272E+01  0.7546771E-02  0.2442022E+00
         22   -1    0    0    0    0  0.00000000000E+00  0.00000000000E+00  0.76435500327E+01  0.76435500327E+01  0.00000000000E+00 0. -1.
         22   -1    0    0    0    0 -0.00000000000E+00 -0.00000000000E+00 -0.21097909337E+01  0.21097909337E+01  0.00000000000E+00 0.  1.
          4    1    1    2  501    0 -0.10450011173E+01  0.31030360403E+01 -0.56513691018E-01  0.32747601133E+01  0.00000000000E+00 0.  1.
         -4    1    1    2    0  501  0.10450011173E+01 -0.31030360403E+01  0.55902727900E+01  0.64785808530E+01  0.00000000000E+00 0. -1.
<mgrwt>
<rscale>  0 0.32742724E+01</rscale>
<asrwt>0</asrwt>
<pdfrwt beam="1">0</pdfrwt>
<pdfrwt beam="2">0</pdfrwt>
<totfact> 0.92956947E+11</totfact>
</mgrwt>
</event>
<event>
 4    2  0.2093759E+006  0.3181241E+01  0.7546771E-02  0.2467833E+00
         22   -1    0    0    0    0  0.00000000000E+00  0.00000000000E+00  0.55866291912E+01  0.55866291912E+01  0.00000000000E+00 0. -1.
         22   -1    0    0    0    0 -0.00000000000E+00 -0.00000000000E+00 -0.25740122887E+01  0.25740122887E+01  0.00000000000E+00 0.  1.
          4    1    1    2  501    0 -0.14636975880E+01 -0.28245153039E+01 -0.71447583177E+00  0.32604866271E+01  0.00000000000E+00 0.  1.
         -4    1    1    2    0  501  0.14636975880E+01  0.28245153039E+01  0.37270927343E+01  0.49001548528E+01  0.00000000000E+00 0. -1.
<mgrwt>
<rscale>  0 0.31812415E+01</rscale>
<asrwt>0</asrwt>
<pdfrwt beam="1">0</pdfrwt>
<pdfrwt beam="2">0</pdfrwt>
<totfact> 0.10726944E+12</totfact>
</mgrwt>
</event>
<event>
 4    2  0.2093759E+006  0.2114011E+01  0.7546771E-02  0.2907801E+00
         22   -1    0    0    0    0  0.00000000000E+00  0.00000000000E+00  0.82083626906E+01  0.82083626906E+01  0.00000000000E+00 0. -1.
         22   -1    0    0    0    0 -0.00000000000E+00 -0.00000000000E+00 -0.71568636217E+00  0.71568636217E+00  0.00000000000E+00 0.  1.
          4    1    1    2  501    0 -0.51154534229E+00  0.20511858058E+01  0.15637652201E+01  0.26295253394E+01  0.00000000000E+00 0.  1.
         -4    1    1    2    0  501  0.51154534229E+00 -0.20511858058E+01  0.59289111084E+01  0.62945237134E+01  0.00000000000E+00 0. -1.
<mgrwt>
<rscale>  0 0.21140108E+01</rscale>
<asrwt>0</asrwt>
<pdfrwt beam="1">0</pdfrwt>
<pdfrwt beam="2">0</pdfrwt>
<totfact> 0.29469977E+12</totfact>
</mgrwt>
</event>
<event>
 4    2  0.2093759E+006  0.2349526E+01  0.7546771E-02  0.2778831E+00
         22   -1    0    0    0    0  0.00000000000E+00  0.00000000000E+00  0.22693231127E+01  0.22693231127E+01  0.00000000000E+00 0.  1.
         22   -1    0    0    0    0 -0.00000000000E+00 -0.00000000000E+00 -0.31799674780E+01  0.31799674780E+01  0.00000000000E+00 0. -1.
          4    1    1    2  501    0  0.13245114237E+01  0.19406033526E+01 -0.17762419027E+01  0.29453874415E+01  0.00000000000E+00 0.  1.
         -4    1    1    2    0  501 -0.13245114237E+01 -0.19406033526E+01  0.86559753741E+00  0.25039031492E+01  0.00000000000E+00 0. -1.
<mgrwt>
<rscale>  0 0.23495259E+01</rscale>
<asrwt>0</asrwt>
<pdfrwt beam="1">0</pdfrwt>
<pdfrwt beam="2">0</pdfrwt>
<totfact> 0.24125428E+12</totfact>
</mgrwt>
</event>
<event>
 4    2  0.2093759E+006  0.2072630E+01  0.7546771E-02  0.2933367E+00
         22   -1    0    0    0    0  0.00000000000E+00  0.00000000000E+00  0.30239967584E+02  0.30239967584E+02  0.00000000000E+00 0. -1.
         22   -1    0    0    0    0 -0.00000000000E+00 -0.00000000000E+00 -0.28250174374E+00  0.28250174374E+00  0.00000000000E+00 0.  1.
          4    1    1    2  501    0  0.72124981985E+00  0.19430885542E+01  0.42182419772E+01  0.46999318942E+01  0.00000000000E+00 0.  1.
         -4    1    1    2    0  501 -0.72124981985E+00 -0.19430885542E+01  0.25739223863E+02  0.25822537434E+02  0.00000000000E+00 0. -1.
<mgrwt>
<rscale>  0 0.20726298E+01</rscale>
<asrwt>0</asrwt>
<pdfrwt beam="1">0</pdfrwt>
<pdfrwt beam="2">0</pdfrwt>
<totfact> 0.16793950E+12</totfact>
</mgrwt>
</event>
<event>
 4    2  0.2093759E+006  0.4099203E+01  0.7546771E-02  0.2258723E+00
         22   -1    0    0    0    0  0.00000000000E+00  0.00000000000E+00  0.17642237124E+02  0.17642237124E+02  0.00000000000E+00 0.  1.
         22   -1    0    0    0    0 -0.00000000000E+00 -0.00000000000E+00 -0.19531309655E+01  0.19531309655E+01  0.00000000000E+00 0. -1.
          4    1    1    2  501    0 -0.29927635394E+01 -0.28012193066E+01  0.83154790854E+00  0.41826947212E+01  0.00000000000E+00 0. -1.
         -4    1    1    2    0  501  0.29927635394E+01  0.28012193066E+01  0.14857558250E+02  0.15412673368E+02  0.00000000000E+00 0.  1.
<mgrwt>
<rscale>  0 0.40992028E+01</rscale>
<asrwt>0</asrwt>
<pdfrwt beam="1">0</pdfrwt>
<pdfrwt beam="2">0</pdfrwt>
<totfact> 0.36685934E+11</totfact>
</mgrwt>
</event>
<event>
 4    2  0.2093759E+006  0.2159569E+01  0.7546771E-02  0.2880753E+00
         22   -1    0    0    0    0  0.00000000000E+00  0.00000000000E+00  0.39336744909E+00  0.39336744909E+00  0.00000000000E+00 0.  1.
         22   -1    0    0    0    0 -0.00000000000E+00 -0.00000000000E+00 -0.14842604611E+02  0.14842604611E+02  0.00000000000E+00 0. -1.
          4    1    1    2  501    0  0.20873753552E+01 -0.55371508904E+00 -0.10641887772E+02  0.10858798811E+02  0.00000000000E+00 0. -1.
         -4    1    1    2    0  501 -0.20873753552E+01  0.55371508904E+00 -0.38073493903E+01  0.43771732491E+01  0.00000000000E+00 0.  1.
<mgrwt>
<rscale>  0 0.21595685E+01</rscale>
<asrwt>0</asrwt>
<pdfrwt beam="1">0</pdfrwt>
<pdfrwt beam="2">0</pdfrwt>
<totfact> 0.28212478E+12</totfact>
</mgrwt>
</event>
<event>
 4    2  0.2093759E+006  0.2073042E+01  0.7546771E-02  0.2933107E+00
         22   -1    0    0    0    0  0.00000000000E+00  0.00000000000E+00  0.32038256661E+00  0.32038256661E+00  0.00000000000E+00 0. -1.
         22   -1    0    0    0    0 -0.00000000000E+00 -0.00000000000E+00 -0.45099750112E+02  0.45099750112E+02  0.00000000000E+00 0.  1.
          4    1    1    2  501    0  0.31273467597E+00  0.20493172481E+01 -0.41425242684E+02  0.41477080847E+02  0.00000000000E+00 0.  1.
         -4    1    1    2    0  501 -0.31273467597E+00 -0.20493172481E+01 -0.33541248615E+01  0.39430518317E+01  0.00000000000E+00 0. -1.
<mgrwt>
<rscale>  0 0.20730422E+01</rscale>
<asrwt>0</asrwt>
<pdfrwt beam="1">0</pdfrwt>
<pdfrwt beam="2">0</pdfrwt>
<totfact> 0.87040104E+11</totfact>
</mgrwt>
</event>
<event>
 4    2  0.2093759E+006  0.2161416E+01  0.7546771E-02  0.2879679E+00
         22   -1    0    0    0    0  0.00000000000E+00  0.00000000000E+00  0.41950574296E+00  0.41950574296E+00  0.00000000000E+00 0.  1.
         22   -1    0    0    0    0 -0.00000000000E+00 -0.00000000000E+00 -0.14769473022E+02  0.14769473022E+02  0.00000000000E+00 0. -1.
          4    1    1    2  501    0 -0.24268041755E+00  0.21477492361E+01 -0.34082739812E+01  0.40358458961E+01  0.00000000000E+00 0.  1.
         -4    1    1    2    0  501  0.24268041755E+00 -0.21477492361E+01 -0.10941693297E+02  0.11153132868E+02  0.00000000000E+00 0. -1.
<mgrwt>
<rscale>  0 0.21614163E+01</rscale>
<asrwt>0</asrwt>
<pdfrwt beam="1">0</pdfrwt>
<pdfrwt beam="2">0</pdfrwt>
<totfact> 0.26401201E+12</totfact>
</mgrwt>
</event>
<event>
 4    2  0.2093759E+006  0.2463169E+01  0.7546771E-02  0.2724994E+00
         22   -1    0    0    0    0  0.00000000000E+00  0.00000000000E+00  0.40654051295E+00  0.40654051295E+00  0.00000000000E+00 0. -1.
         22   -1    0    0    0    0 -0.00000000000E+00 -0.00000000000E+00 -0.16730582672E+02  0.16730582672E+02  0.00000000000E+00 0.  1.
          4    1    1    2  501    0  0.11046180686E+01  0.22015952348E+01 -0.10977703461E+02  0.11250652245E+02  0.00000000000E+00 0.  1.
         -4    1    1    2    0  501 -0.11046180686E+01 -0.22015952348E+01 -0.53463386987E+01  0.58864709408E+01  0.00000000000E+00 0. -1.
<mgrwt>
<rscale>  0 0.24631692E+01</rscale>
<asrwt>0</asrwt>
<pdfrwt beam="1">0</pdfrwt>
<pdfrwt beam="2">0</pdfrwt>
<totfact> 0.23454593E+12</totfact>
</mgrwt>
</event>
<event>
 4    2  0.2093759E+006  0.3528328E+01  0.7546771E-02  0.2377677E+00
         22   -1    0    0    0    0  0.00000000000E+00  0.00000000000E+00  0.21297605049E+01  0.21297605049E+01  0.00000000000E+00 0.  1.
         22   -1    0    0    0    0 -0.00000000000E+00 -0.00000000000E+00 -0.59432584154E+01  0.59432584154E+01  0.00000000000E+00 0. -1.
          4    1    1    2  501    0  0.35087024513E+01 -0.37162137975E+00 -0.13885362870E+01  0.37917183917E+01  0.00000000000E+00 0.  1.
         -4    1    1    2    0  501 -0.35087024513E+01  0.37162137975E+00 -0.24249616235E+01  0.42813005287E+01  0.00000000000E+00 0. -1.
<mgrwt>
<rscale>  0 0.35283276E+01</rscale>
<asrwt>0</asrwt>
<pdfrwt beam="1">0</pdfrwt>
<pdfrwt beam="2">0</pdfrwt>
<totfact> 0.12419113E+12</totfact>
</mgrwt>
</event>
<event>
 4    2  0.2093759E+006  0.6137585E+01  0.7546771E-02  0.2007565E+00
         22   -1    0    0    0    0  0.00000000000E+00  0.00000000000E+00  0.36362276681E+02  0.36362276681E+02  0.00000000000E+00 0.  1.
         22   -1    0    0    0    0 -0.00000000000E+00 -0.00000000000E+00 -0.18452418055E+01  0.18452418055E+01  0.00000000000E+00 0. -1.
          4    1    1    2  501    0 -0.46609006306E+01 -0.39932392083E+01  0.46070349587E+01  0.76742898807E+01  0.00000000000E+00 0. -1.
         -4    1    1    2    0  501  0.46609006306E+01  0.39932392083E+01  0.29909999917E+02  0.30533228606E+02  0.00000000000E+00 0.  1.
<mgrwt>
<rscale>  0 0.61375854E+01</rscale>
<asrwt>0</asrwt>
<pdfrwt beam="1">0</pdfrwt>
<pdfrwt beam="2">0</pdfrwt>
<totfact> 0.15715111E+11</totfact>
</mgrwt>
</event>
<event>
 4    2  0.2093759E+006  0.2668203E+01  0.7546771E-02  0.2638719E+00
         22   -1    0    0    0    0  0.00000000000E+00  0.00000000000E+00  0.15708042780E+02  0.15708042780E+02  0.00000000000E+00 0. -1.
         22   -1    0    0    0    0 -0.00000000000E+00 -0.00000000000E+00 -0.15856776351E+01  0.15856776351E+01  0.00000000000E+00 0.  1.
          4    1    1    2  501    0  0.15658025462E+00 -0.26636043220E+01 -0.24618027861E+00  0.26795354243E+01  0.00000000000E+00 0.  1.
         -4    1    1    2    0  501 -0.15658025462E+00  0.26636043220E+01  0.14368545424E+02  0.14614184991E+02  0.00000000000E+00 0. -1.
<mgrwt>
<rscale>  0 0.26682026E+01</rscale>
<asrwt>0</asrwt>
<pdfrwt beam="1">0</pdfrwt>
<pdfrwt beam="2">0</pdfrwt>
<totfact> 0.53867558E+11</totfact>
</mgrwt>
</event>
<event>
 4    2  0.2093759E+006  0.2238385E+01  0.7546771E-02  0.2836462E+00
         22   -1    0    0    0    0  0.00000000000E+00  0.00000000000E+00  0.80655450212E+01  0.80655450212E+01  0.00000000000E+00 0.  1.
         22   -1    0    0    0    0 -0.00000000000E+00 -0.00000000000E+00 -0.81751769529E+00  0.81751769529E+00  0.00000000000E+00 0. -1.
          4    1    1    2  501    0  0.13609312509E+01 -0.17771417897E+01  0.58005052102E+01  0.62174132486E+01  0.00000000000E+00 0.  1.
         -4    1    1    2    0  501 -0.13609312509E+01  0.17771417897E+01  0.14475221157E+01  0.26656494679E+01  0.00000000000E+00 0. -1.
<mgrwt>
<rscale>  0 0.22383849E+01</rscale>
<asrwt>0</asrwt>
<pdfrwt beam="1">0</pdfrwt>
<pdfrwt beam="2">0</pdfrwt>
<totfact> 0.25874959E+12</totfact>
</mgrwt>
</event>
<event>
 4    2  0.2093759E+006  0.4158160E+01  0.7546771E-02  0.2248044E+00
         22   -1    0    0    0    0  0.00000000000E+00  0.00000000000E+00  0.89884412118E+01  0.89884412118E+01  0.00000000000E+00 0. -1.
         22   -1    0    0    0    0 -0.00000000000E+00 -0.00000000000E+00 -0.26587443806E+01  0.26587443806E+01  0.00000000000E+00 0.  1.
          4    1    1    2  501    0  0.13321171843E+01  0.39390047904E+01  0.10263978895E+00  0.41594266261E+01  0.00000000000E+00 0.  1.
         -4    1    1    2    0  501 -0.13321171843E+01 -0.39390047904E+01  0.62270570423E+01  0.74877589664E+01  0.00000000000E+00 0. -1.
<mgrwt>
<rscale>  0 0.41581600E+01</rscale>
<asrwt>0</asrwt>
<pdfrwt beam="1">0</pdfrwt>
<pdfrwt beam="2">0</pdfrwt>
<totfact> 0.58469293E+11</totfact>
</mgrwt>
</event>
<event>
 4    2  0.2093759E+006  0.2317376E+01  0.7546771E-02  0.2794963E+00
         22   -1    0    0    0    0  0.00000000000E+00  0.00000000000E+00  0.45167788389E+01  0.45167788389E+01  0.00000000000E+00 0.  1.
         22   -1    0    0    0    0 -0.00000000000E+00 -0.00000000000E+00 -0.19826436470E+01  0.19826436470E+01  0.00000000000E+00 0. -1.
          4    1    1    2  501    0 -0.12630231890E+01 -0.19429373177E+01 -0.78905194625E+00  0.24480269546E+01  0.00000000000E+00 0. -1.
         -4    1    1    2    0  501  0.12630231890E+01  0.19429373177E+01  0.33231871382E+01  0.40513955314E+01  0.00000000000E+00 0.  1.
<mgrwt>
<rscale>  0 0.23173763E+01</rscale>
<asrwt>0</asrwt>
<pdfrwt beam="1">0</pdfrwt>
<pdfrwt beam="2">0</pdfrwt>
<totfact> 0.18678815E+12</totfact>
</mgrwt>
</event>
<event>
 4    2  0.2093759E+006  0.2897594E+01  0.7546771E-02  0.2555566E+00
         22   -1    0    0    0    0  0.00000000000E+00  0.00000000000E+00  0.29818278457E+01  0.29818278457E+01  0.00000000000E+00 0.  1.
         22   -1    0    0    0    0 -0.00000000000E+00 -0.00000000000E+00 -0.37127515511E+01  0.37127515511E+01  0.00000000000E+00 0. -1.
          4    1    1    2  501    0  0.18584605005E+01  0.22230999352E+01 -0.20107600928E+01  0.35269257016E+01  0.00000000000E+00 0. -1.
         -4    1    1    2    0  501 -0.18584605005E+01 -0.22230999352E+01  0.12798363875E+01  0.31676536952E+01  0.00000000000E+00 0.  1.
<mgrwt>
<rscale>  0 0.28975936E+01</rscale>
<asrwt>0</asrwt>
<pdfrwt beam="1">0</pdfrwt>
<pdfrwt beam="2">0</pdfrwt>
<totfact> 0.14640947E+12</totfact>
</mgrwt>
</event>
<event>
 4    2  0.2093759E+006  0.2268309E+01  0.7546771E-02  0.2820417E+00
         22   -1    0    0    0    0  0.00000000000E+00  0.00000000000E+00  0.12244663578E+02  0.12244663578E+02  0.00000000000E+00 0.  1.
         22   -1    0    0    0    0 -0.00000000000E+00 -0.00000000000E+00 -0.43350108587E+00  0.43350108587E+00  0.00000000000E+00 0. -1.
          4    1    1    2  501    0 -0.47611762504E+00  0.22177776386E+01  0.47952544256E+01  0.53046857262E+01  0.00000000000E+00 0. -1.
         -4    1    1    2    0  501  0.47611762504E+00 -0.22177776386E+01  0.70159080668E+01  0.73734789380E+01  0.00000000000E+00 0.  1.
<mgrwt>
<rscale>  0 0.22683090E+01</rscale>
<asrwt>0</asrwt>
<pdfrwt beam="1">0</pdfrwt>
<pdfrwt beam="2">0</pdfrwt>
<totfact> 0.32011953E+12</totfact>
</mgrwt>
</event>
<event>
 4    2  0.2093759E+006  0.4392303E+01  0.7546771E-02  0.2208041E+00
         22   -1    0    0    0    0  0.00000000000E+00  0.00000000000E+00  0.87271856216E+01  0.87271856216E+01  0.00000000000E+00 0.  1.
         22   -1    0    0    0    0 -0.00000000000E+00 -0.00000000000E+00 -0.76212134088E+01  0.76212134088E+01  0.00000000000E+00 0. -1.
          4    1    1    2  501    0  0.17635499937E+01 -0.40227122093E+01 -0.63344312220E+01  0.77082644613E+01  0.00000000000E+00 0. -1.
         -4    1    1    2    0  501 -0.17635499937E+01  0.40227122093E+01  0.74404034348E+01  0.86401345691E+01  0.00000000000E+00 0.  1.
<mgrwt>
<rscale>  0 0.43923026E+01</rscale>
<asrwt>0</asrwt>
<pdfrwt beam="1">0</pdfrwt>
<pdfrwt beam="2">0</pdfrwt>
<totfact> 0.17467039E+11</totfact>
</mgrwt>
</event>
<event>
 4    2  0.2093759E+006  0.2570733E+01  0.7546771E-02  0.2678144E+00
         22   -1    0    0    0    0  0.00000000000E+00  0.00000000000E+00  0.39148636167E+01  0.39148636167E+01  0.00000000000E+00 0.  1.
         22   -1    0    0    0    0 -0.00000000000E+00 -0.00000000000E+00 -0.26534802409E+01  0.26534802409E+01  0.00000000000E+00 0. -1.
          4    1    1    2  501    0  0.18634163283E+01 -0.17709735511E+01 -0.13502328716E+01  0.29037555921E+01  0.00000000000E+00 0. -1.
         -4    1    1    2    0  501 -0.18634163283E+01  0.17709735511E+01  0.26116162474E+01  0.36645882654E+01  0.00000000000E+00 0.  1.
<mgrwt>
<rscale>  0 0.25707329E+01</rscale>
<asrwt>0</asrwt>
<pdfrwt beam="1">0</pdfrwt>
<pdfrwt beam="2">0</pdfrwt>
<totfact> 0.15761779E+12</totfact>
</mgrwt>
</event>
<event>
 4    2  0.2093759E+006  0.2256418E+01  0.7546771E-02  0.2826744E+00
         22   -1    0    0    0    0  0.00000000000E+00  0.00000000000E+00  0.62316305546E+00  0.62316305546E+00  0.00000000000E+00 0. -1.
         22   -1    0    0    0    0 -0.00000000000E+00 -0.00000000000E+00 -0.85972942043E+01  0.85972942043E+01  0.00000000000E+00 0.  1.
          4    1    1    2  501    0 -0.48728921212E+00  0.22031735029E+01 -0.50145056902E+01  0.54987900103E+01  0.00000000000E+00 0.  1.
         -4    1    1    2    0  501  0.48728921212E+00 -0.22031735029E+01 -0.29596254586E+01  0.37216672494E+01  0.00000000000E+00 0. -1.
<mgrwt>
<rscale>  0 0.22564185E+01</rscale>
<asrwt>0</asrwt>
<pdfrwt beam="1">0</pdfrwt>
<pdfrwt beam="2">0</pdfrwt>
<totfact> 0.32613053E+12</totfact>
</mgrwt>
</event>
<event>
 4    2  0.2093759E+006  0.2043695E+01  0.7546771E-02  0.2951841E+00
         22   -1    0    0    0    0  0.00000000000E+00  0.00000000000E+00  0.29705188356E+01  0.29705188356E+01  0.00000000000E+00 0.  1.
         22   -1    0    0    0    0 -0.00000000000E+00 -0.00000000000E+00 -0.23868553588E+02  0.23868553588E+02  0.00000000000E+00 0. -1.
          4    1    1    2  501    0  0.47741892505E-01  0.20431376139E+01 -0.23467295915E+02  0.23556117425E+02  0.00000000000E+00 0. -1.
         -4    1    1    2    0  501 -0.47741892505E-01 -0.20431376139E+01  0.25692611627E+01  0.32829549981E+01  0.00000000000E+00 0.  1.
<mgrwt>
<rscale>  0 0.20436953E+01</rscale>
<asrwt>0</asrwt>
<pdfrwt beam="1">0</pdfrwt>
<pdfrwt beam="2">0</pdfrwt>
<totfact> 0.15448088E+11</totfact>
</mgrwt>
</event>
<event>
 4    2  0.2093759E+006  0.2152578E+01  0.7546771E-02  0.2884831E+00
         22   -1    0    0    0    0  0.00000000000E+00  0.00000000000E+00  0.19338442015E+02  0.19338442015E+02  0.00000000000E+00 0.  1.
         22   -1    0    0    0    0 -0.00000000000E+00 -0.00000000000E+00 -0.33241477928E+00  0.33241477928E+00  0.00000000000E+00 0. -1.
          4    1    1    2  501    0 -0.76441717726E+00 -0.20122773338E+01  0.43060553705E+01  0.48141153437E+01  0.00000000000E+00 0. -1.
         -4    1    1    2    0  501  0.76441717726E+00  0.20122773338E+01  0.14699971865E+02  0.14856741450E+02  0.00000000000E+00 0.  1.
<mgrwt>
<rscale>  0 0.21525784E+01</rscale>
<asrwt>0</asrwt>
<pdfrwt beam="1">0</pdfrwt>
<pdfrwt beam="2">0</pdfrwt>
<totfact> 0.24572152E+12</totfact>
</mgrwt>
</event>
<event>
 4    2  0.2093759E+006  0.2476203E+01  0.7546771E-02  0.2719115E+00
         22   -1    0    0    0    0  0.00000000000E+00  0.00000000000E+00  0.11560591445E+01  0.11560591445E+01  0.00000000000E+00 0. -1.
         22   -1    0    0    0    0 -0.00000000000E+00 -0.00000000000E+00 -0.53239311083E+01  0.53239311083E+01  0.00000000000E+00 0.  1.
          4    1    1    2  501    0  0.20691402473E+01 -0.13602349335E+01 -0.22828525360E+01  0.33679364808E+01  0.00000000000E+00 0. -1.
         -4    1    1    2    0  501 -0.20691402473E+01  0.13602349335E+01 -0.18850194277E+01  0.31120537721E+01  0.00000000000E+00 0.  1.
<mgrwt>
<rscale>  0 0.24762028E+01</rscale>
<asrwt>0</asrwt>
<pdfrwt beam="1">0</pdfrwt>
<pdfrwt beam="2">0</pdfrwt>
<totfact> 0.28607594E+12</totfact>
</mgrwt>
</event>
<event>
 4    2  0.2093759E+006  0.3263660E+01  0.7546771E-02  0.2444901E+00
         22   -1    0    0    0    0  0.00000000000E+00  0.00000000000E+00  0.24807342707E+02  0.24807342707E+02  0.00000000000E+00 0. -1.
         22   -1    0    0    0    0 -0.00000000000E+00 -0.00000000000E+00 -0.70239521424E+00  0.70239521424E+00  0.00000000000E+00 0.  1.
          4    1    1    2  501    0  0.25553101088E+01 -0.20302373539E+01  0.20004693622E+02  0.20269169701E+02  0.00000000000E+00 0. -1.
         -4    1    1    2    0  501 -0.25553101088E+01  0.20302373539E+01  0.41002538710E+01  0.52405682203E+01  0.00000000000E+00 0.  1.
<mgrwt>
<rscale>  0 0.32636595E+01</rscale>
<asrwt>0</asrwt>
<pdfrwt beam="1">0</pdfrwt>
<pdfrwt beam="2">0</pdfrwt>
<totfact> 0.77311883E+11</totfact>
</mgrwt>
</event>
<event>
 4    2  0.2093759E+006  0.2211395E+01  0.7546771E-02  0.2851288E+00
         22   -1    0    0    0    0  0.00000000000E+00  0.00000000000E+00  0.52503483346E+00  0.52503483346E+00  0.00000000000E+00 0. -1.
         22   -1    0    0    0    0 -0.00000000000E+00 -0.00000000000E+00 -0.53599325951E+02  0.53599325951E+02  0.00000000000E+00 0.  1.
          4    1    1    2  501    0  0.16300124134E+00  0.22053797855E+01 -0.51135845586E+02  0.51183639702E+02  0.00000000000E+00 0.  1.
         -4    1    1    2    0  501 -0.16300124134E+00 -0.22053797855E+01 -0.19384455315E+01  0.29407210819E+01  0.00000000000E+00 0. -1.
<mgrwt>
<rscale>  0 0.22113954E+01</rscale>
<asrwt>0</asrwt>
<pdfrwt beam="1">0</pdfrwt>
<pdfrwt beam="2">0</pdfrwt>
<totfact> 0.39755732E+11</totfact>
</mgrwt>
</event>
<event>
 4    2  0.2093759E+006  0.2571753E+01  0.7546771E-02  0.2677718E+00
         22   -1    0    0    0    0  0.00000000000E+00  0.00000000000E+00  0.12833833905E+00  0.12833833905E+00  0.00000000000E+00 0. -1.
         22   -1    0    0    0    0 -0.00000000000E+00 -0.00000000000E+00 -0.56227237924E+02  0.56227237924E+02  0.00000000000E+00 0.  1.
          4    1    1    2  501    0 -0.25019274312E+01  0.59520728592E+00 -0.36189458658E+02  0.36280722575E+02  0.00000000000E+00 0.  1.
         -4    1    1    2    0  501  0.25019274312E+01 -0.59520728592E+00 -0.19909440927E+02  0.20074853688E+02  0.00000000000E+00 0. -1.
<mgrwt>
<rscale>  0 0.25717528E+01</rscale>
<asrwt>0</asrwt>
<pdfrwt beam="1">0</pdfrwt>
<pdfrwt beam="2">0</pdfrwt>
<totfact> 0.18059544E+12</totfact>
</mgrwt>
</event>
<event>
 4    2  0.2093759E+006  0.2795957E+01  0.7546771E-02  0.2590877E+00
         22   -1    0    0    0    0  0.00000000000E+00  0.00000000000E+00  0.78935766677E+01  0.78935766677E+01  0.00000000000E+00 0.  1.
         22   -1    0    0    0    0 -0.00000000000E+00 -0.00000000000E+00 -0.20087794217E+01  0.20087794217E+01  0.00000000000E+00 0. -1.
          4    1    1    2  501    0  0.23634733946E+01  0.14937767503E+01 -0.58300339271E+00  0.28560932097E+01  0.00000000000E+00 0. -1.
         -4    1    1    2    0  501 -0.23634733946E+01 -0.14937767503E+01  0.64678006387E+01  0.70462628796E+01  0.00000000000E+00 0.  1.
<mgrwt>
<rscale>  0 0.27959570E+01</rscale>
<asrwt>0</asrwt>
<pdfrwt beam="1">0</pdfrwt>
<pdfrwt beam="2">0</pdfrwt>
<totfact> 0.94662380E+11</totfact>
</mgrwt>
</event>
<event>
 4    2  0.2093759E+006  0.5488098E+01  0.7546771E-02  0.2068886E+00
         22   -1    0    0    0    0  0.00000000000E+00  0.00000000000E+00  0.32645825794E+01  0.32645825794E+01  0.00000000000E+00 0. -1.
         22   -1    0    0    0    0 -0.00000000000E+00 -0.00000000000E+00 -0.13846116890E+02  0.13846116890E+02  0.00000000000E+00 0.  1.
          4    1    1    2  501    0  0.29442368516E+01 -0.46314893550E+01 -0.34882584621E+00  0.54991730064E+01  0.00000000000E+00 0. -1.
         -4    1    1    2    0  501 -0.29442368516E+01  0.46314893550E+01 -0.10232708465E+02  0.11611526463E+02  0.00000000000E+00 0.  1.
<mgrwt>
<rscale>  0 0.54880984E+01</rscale>
<asrwt>0</asrwt>
<pdfrwt beam="1">0</pdfrwt>
<pdfrwt beam="2">0</pdfrwt>
<totfact> 0.27204874E+11</totfact>
</mgrwt>
</event>
<event>
 4    2  0.2093759E+006  0.3265289E+01  0.7546771E-02  0.2444458E+00
         22   -1    0    0    0    0  0.00000000000E+00  0.00000000000E+00  0.52041980907E+01  0.52041980907E+01  0.00000000000E+00 0.  1.
         22   -1    0    0    0    0 -0.00000000000E+00 -0.00000000000E+00 -0.20509804120E+01  0.20509804120E+01  0.00000000000E+00 0. -1.
          4    1    1    2  501    0  0.61738967732E+00  0.32063913382E+01  0.14570568506E+01  0.35756300274E+01  0.00000000000E+00 0.  1.
         -4    1    1    2    0  501 -0.61738967732E+00 -0.32063913382E+01  0.16961608281E+01  0.36795484753E+01  0.00000000000E+00 0. -1.
<mgrwt>
<rscale>  0 0.32652895E+01</rscale>
<asrwt>0</asrwt>
<pdfrwt beam="1">0</pdfrwt>
<pdfrwt beam="2">0</pdfrwt>
<totfact> 0.15189693E+12</totfact>
</mgrwt>
</event>
<event>
 4    2  0.2093759E+006  0.2267944E+01  0.7546771E-02  0.2820610E+00
         22   -1    0    0    0    0  0.00000000000E+00  0.00000000000E+00  0.50862584082E+01  0.50862584082E+01  0.00000000000E+00 0. -1.
         22   -1    0    0    0    0 -0.00000000000E+00 -0.00000000000E+00 -0.12116862890E+01  0.12116862890E+01  0.00000000000E+00 0.  1.
          4    1    1    2  501    0  0.44189085244E+00  0.22244776210E+01  0.65659940293E+00  0.23610783527E+01  0.00000000000E+00 0.  1.
         -4    1    1    2    0  501 -0.44189085244E+00 -0.22244776210E+01  0.32179727162E+01  0.39368663444E+01  0.00000000000E+00 0. -1.
<mgrwt>
<rscale>  0 0.22679436E+01</rscale>
<asrwt>0</asrwt>
<pdfrwt beam="1">0</pdfrwt>
<pdfrwt beam="2">0</pdfrwt>
<totfact> 0.28615590E+12</totfact>
</mgrwt>
</event>
<event>
 4    2  0.2093759E+006  0.3267913E+01  0.7546771E-02  0.2443745E+00
         22   -1    0    0    0    0  0.00000000000E+00  0.00000000000E+00  0.27975835298E+01  0.27975835298E+01  0.00000000000E+00 0. -1.
         22   -1    0    0    0    0 -0.00000000000E+00 -0.00000000000E+00 -0.61617901590E+01  0.61617901590E+01  0.00000000000E+00 0.  1.
          4    1    1    2  501    0 -0.34676089086E+00  0.32494638151E+01 -0.44453330912E+01  0.55172678467E+01  0.00000000000E+00 0. -1.
         -4    1    1    2    0  501  0.34676089086E+00 -0.32494638151E+01  0.10811264620E+01  0.34421058421E+01  0.00000000000E+00 0.  1.
<mgrwt>
<rscale>  0 0.32679134E+01</rscale>
<asrwt>0</asrwt>
<pdfrwt beam="1">0</pdfrwt>
<pdfrwt beam="2">0</pdfrwt>
<totfact> 0.86637700E+11</totfact>
</mgrwt>
</event>
<event>
 4    2  0.2093759E+006  0.2207652E+01  0.7546771E-02  0.2853371E+00
         22   -1    0    0    0    0  0.00000000000E+00  0.00000000000E+00  0.53991572560E+02  0.53991572560E+02  0.00000000000E+00 0.  1.
         22   -1    0    0    0    0 -0.00000000000E+00 -0.00000000000E+00 -0.23391982206E+01  0.23391982206E+01  0.00000000000E+00 0. -1.
          4    1    1    2  501    0 -0.16945080083E+01  0.14150518477E+01 -0.17904086528E+01  0.28424095880E+01  0.00000000000E+00 0. -1.
         -4    1    1    2    0  501  0.16945080083E+01 -0.14150518477E+01  0.53442782992E+02  0.53488361192E+02  0.00000000000E+00 0.  1.
<mgrwt>
<rscale>  0 0.22076524E+01</rscale>
<asrwt>0</asrwt>
<pdfrwt beam="1">0</pdfrwt>
<pdfrwt beam="2">0</pdfrwt>
<totfact> 0.71199554E+10</totfact>
</mgrwt>
</event>
<event>
 4    2  0.2093759E+006  0.2169687E+01  0.7546771E-02  0.2874894E+00
         22   -1    0    0    0    0  0.00000000000E+00  0.00000000000E+00  0.49293337225E+00  0.49293337225E+00  0.00000000000E+00 0. -1.
         22   -1    0    0    0    0 -0.00000000000E+00 -0.00000000000E+00 -0.10334959517E+02  0.10334959517E+02  0.00000000000E+00 0.  1.
          4    1    1    2  501    0 -0.11456761571E+01 -0.18425444248E+01 -0.64130043942E+01  0.67700937345E+01  0.00000000000E+00 0.  1.
         -4    1    1    2    0  501  0.11456761571E+01  0.18425444248E+01 -0.34290217507E+01  0.40577991549E+01  0.00000000000E+00 0. -1.
<mgrwt>
<rscale>  0 0.21696875E+01</rscale>
<asrwt>0</asrwt>
<pdfrwt beam="1">0</pdfrwt>
<pdfrwt beam="2">0</pdfrwt>
<totfact> 0.34035498E+12</totfact>
</mgrwt>
</event>
<event>
 4    2  0.2093759E+006  0.7009142E+01  0.7546771E-02  0.1939484E+00
         22   -1    0    0    0    0  0.00000000000E+00  0.00000000000E+00  0.14959816666E+02  0.14959816666E+02  0.00000000000E+00 0.  1.
         22   -1    0    0    0    0 -0.00000000000E+00 -0.00000000000E+00 -0.38627483695E+01  0.38627483695E+01  0.00000000000E+00 0. -1.
          4    1    1    2  501    0 -0.53663272201E+01 -0.45089477850E+01  0.19056573132E+01  0.72635809183E+01  0.00000000000E+00 0. -1.
         -4    1    1    2    0  501  0.53663272201E+01  0.45089477850E+01  0.91914109834E+01  0.11558984117E+02  0.00000000000E+00 0.  1.
<mgrwt>
<rscale>  0 0.70091425E+01</rscale>
<asrwt>0</asrwt>
<pdfrwt beam="1">0</pdfrwt>
<pdfrwt beam="2">0</pdfrwt>
<totfact> 0.20307463E+11</totfact>
</mgrwt>
</event>
<event>
 4    2  0.2093759E+006  0.3076667E+01  0.7546771E-02  0.2498494E+00
         22   -1    0    0    0    0  0.00000000000E+00  0.00000000000E+00  0.42065377671E+00  0.42065377671E+00  0.00000000000E+00 0. -1.
         22   -1    0    0    0    0 -0.00000000000E+00 -0.00000000000E+00 -0.23728481347E+02  0.23728481347E+02  0.00000000000E+00 0.  1.
          4    1    1    2  501    0 -0.26614329662E+01 -0.15435850981E+01 -0.14398194456E+02  0.14723242985E+02  0.00000000000E+00 0.  1.
         -4    1    1    2    0  501  0.26614329662E+01  0.15435850981E+01 -0.89096331142E+01  0.94258921392E+01  0.00000000000E+00 0. -1.
<mgrwt>
<rscale>  0 0.30766671E+01</rscale>
<asrwt>0</asrwt>
<pdfrwt beam="1">0</pdfrwt>
<pdfrwt beam="2">0</pdfrwt>
<totfact> 0.14598930E+12</totfact>
</mgrwt>
</event>
<event>
 4    2  0.2093759E+006  0.2139206E+01  0.7546771E-02  0.2892705E+00
         22   -1    0    0    0    0  0.00000000000E+00  0.00000000000E+00  0.28287585367E+00  0.28287585367E+00  0.00000000000E+00 0. -1.
         22   -1    0    0    0    0 -0.00000000000E+00 -0.00000000000E+00 -0.20122456142E+02  0.20122456142E+02  0.00000000000E+00 0.  1.
          4    1    1    2  501    0 -0.42186221637E+00 -0.20971971121E+01 -0.14437291440E+02  0.14594916497E+02  0.00000000000E+00 0.  1.
         -4    1    1    2    0  501  0.42186221637E+00  0.20971971121E+01 -0.54022888492E+01  0.58104154986E+01  0.00000000000E+00 0. -1.
<mgrwt>
<rscale>  0 0.21392063E+01</rscale>
<asrwt>0</asrwt>
<pdfrwt beam="1">0</pdfrwt>
<pdfrwt beam="2">0</pdfrwt>
<totfact> 0.28024495E+12</totfact>
</mgrwt>
</event>
<event>
 4    2  0.2093759E+006  0.3373134E+01  0.7546771E-02  0.2415974E+00
         22   -1    0    0    0    0  0.00000000000E+00  0.00000000000E+00  0.79234103627E+01  0.79234103627E+01  0.00000000000E+00 0.  1.
         22   -1    0    0    0    0 -0.00000000000E+00 -0.00000000000E+00 -0.18247439847E+01  0.18247439847E+01  0.00000000000E+00 0. -1.
          4    1    1    2  501    0 -0.16523834772E+01 -0.29406902665E+01  0.79964490226E+00  0.34666211747E+01  0.00000000000E+00 0. -1.
         -4    1    1    2    0  501  0.16523834772E+01  0.29406902665E+01  0.52990214758E+01  0.62815331727E+01  0.00000000000E+00 0.  1.
<mgrwt>
<rscale>  0 0.33731336E+01</rscale>
<asrwt>0</asrwt>
<pdfrwt beam="1">0</pdfrwt>
<pdfrwt beam="2">0</pdfrwt>
<totfact> 0.10531020E+12</totfact>
</mgrwt>
</event>
<event>
 4    2  0.2093759E+006  0.3100262E+01  0.7546771E-02  0.2491416E+00
         22   -1    0    0    0    0  0.00000000000E+00  0.00000000000E+00  0.16304838969E+01  0.16304838969E+01  0.00000000000E+00 0. -1.
         22   -1    0    0    0    0 -0.00000000000E+00 -0.00000000000E+00 -0.22270098010E+02  0.22270098010E+02  0.00000000000E+00 0.  1.
          4    1    1    2  501    0 -0.23431557553E+01  0.20300844837E+01 -0.20567120608E+02  0.20799472878E+02  0.00000000000E+00 0.  1.
         -4    1    1    2    0  501  0.23431557553E+01 -0.20300844837E+01 -0.72493505897E-01  0.31011090295E+01  0.00000000000E+00 0. -1.
<mgrwt>
<rscale>  0 0.31002616E+01</rscale>
<asrwt>0</asrwt>
<pdfrwt beam="1">0</pdfrwt>
<pdfrwt beam="2">0</pdfrwt>
<totfact> 0.33801402E+11</totfact>
</mgrwt>
</event>
<event>
 4    2  0.2093759E+006  0.9183124E+01  0.7546771E-02  0.1814729E+00
         22   -1    0    0    0    0  0.00000000000E+00  0.00000000000E+00  0.19033751891E+02  0.19033751891E+02  0.00000000000E+00 0.  1.
         22   -1    0    0    0    0 -0.00000000000E+00 -0.00000000000E+00 -0.48794665863E+01  0.48794665863E+01  0.00000000000E+00 0. -1.
          4    1    1    2  501    0 -0.48687332106E+01  0.77862187765E+01  0.34504532079E+01  0.98099639781E+01  0.00000000000E+00 0. -1.
         -4    1    1    2    0  501  0.48687332106E+01 -0.77862187765E+01  0.10703832097E+02  0.14103254499E+02  0.00000000000E+00 0.  1.
<mgrwt>
<rscale>  0 0.91831240E+01</rscale>
<asrwt>0</asrwt>
<pdfrwt beam="1">0</pdfrwt>
<pdfrwt beam="2">0</pdfrwt>
<totfact> 0.11444059E+11</totfact>
</mgrwt>
</event>
<event>
 4    2  0.2093759E+006  0.2554267E+01  0.7546771E-02  0.2685079E+00
         22   -1    0    0    0    0  0.00000000000E+00  0.00000000000E+00  0.25044909219E+01  0.25044909219E+01  0.00000000000E+00 0.  1.
         22   -1    0    0    0    0 -0.00000000000E+00 -0.00000000000E+00 -0.63803948997E+01  0.63803948997E+01  0.00000000000E+00 0. -1.
          4    1    1    2  501    0  0.75366415464E+00  0.24405467776E+01 -0.53552074423E+01  0.59331715787E+01  0.00000000000E+00 0. -1.
         -4    1    1    2    0  501 -0.75366415464E+00 -0.24405467776E+01  0.14793034645E+01  0.29517142429E+01  0.00000000000E+00 0.  1.
<mgrwt>
<rscale>  0 0.25542667E+01</rscale>
<asrwt>0</asrwt>
<pdfrwt beam="1">0</pdfrwt>
<pdfrwt beam="2">0</pdfrwt>
<totfact> 0.94543310E+11</totfact>
</mgrwt>
</event>
<event>
 4    2  0.2093759E+006  0.2460498E+01  0.7546771E-02  0.2726206E+00
         22   -1    0    0    0    0  0.00000000000E+00  0.00000000000E+00  0.15935263806E+01  0.15935263806E+01  0.00000000000E+00 0.  1.
         22   -1    0    0    0    0 -0.00000000000E+00 -0.00000000000E+00 -0.52995218554E+01  0.52995218554E+01  0.00000000000E+00 0. -1.
          4    1    1    2  501    0  0.90819753242E+00 -0.22867505716E+01 -0.36868399341E+01  0.44324755650E+01  0.00000000000E+00 0. -1.
         -4    1    1    2    0  501 -0.90819753242E+00  0.22867505716E+01 -0.19155540664E-01  0.24605726710E+01  0.00000000000E+00 0.  1.
<mgrwt>
<rscale>  0 0.24604981E+01</rscale>
<asrwt>0</asrwt>
<pdfrwt beam="1">0</pdfrwt>
<pdfrwt beam="2">0</pdfrwt>
<totfact> 0.19896726E+12</totfact>
</mgrwt>
</event>
<event>
 4    2  0.2093759E+006  0.2912470E+01  0.7546771E-02  0.2550585E+00
         22   -1    0    0    0    0  0.00000000000E+00  0.00000000000E+00  0.43280991997E+01  0.43280991997E+01  0.00000000000E+00 0.  1.
         22   -1    0    0    0    0 -0.00000000000E+00 -0.00000000000E+00 -0.20317749256E+01  0.20317749256E+01  0.00000000000E+00 0. -1.
          4    1    1    2  501    0  0.27027185395E+01 -0.10852625782E+01  0.54991508452E+00  0.29639313365E+01  0.00000000000E+00 0. -1.
         -4    1    1    2    0  501 -0.27027185395E+01  0.10852625782E+01  0.17464091896E+01  0.33959427888E+01  0.00000000000E+00 0.  1.
<mgrwt>
<rscale>  0 0.29124701E+01</rscale>
<asrwt>0</asrwt>
<pdfrwt beam="1">0</pdfrwt>
<pdfrwt beam="2">0</pdfrwt>
<totfact> 0.19095290E+12</totfact>
</mgrwt>
</event>
<event>
 4    2  0.2093759E+006  0.6504487E+01  0.7546771E-02  0.1977195E+00
         22   -1    0    0    0    0  0.00000000000E+00  0.00000000000E+00  0.93338806633E+01  0.93338806633E+01  0.00000000000E+00 0.  1.
         22   -1    0    0    0    0 -0.00000000000E+00 -0.00000000000E+00 -0.64407540226E+01  0.64407540226E+01  0.00000000000E+00 0. -1.
          4    1    1    2  501    0  0.23756774089E+01  0.60551219767E+01 -0.28463111589E+01  0.70999882054E+01  0.00000000000E+00 0. -1.
         -4    1    1    2    0  501 -0.23756774089E+01 -0.60551219767E+01  0.57394377997E+01  0.86746464804E+01  0.00000000000E+00 0.  1.
<mgrwt>
<rscale>  0 0.65044866E+01</rscale>
<asrwt>0</asrwt>
<pdfrwt beam="1">0</pdfrwt>
<pdfrwt beam="2">0</pdfrwt>
<totfact> 0.19698483E+11</totfact>
</mgrwt>
</event>
<event>
 4    2  0.2093759E+006  0.2134878E+01  0.7546771E-02  0.2895274E+00
         22   -1    0    0    0    0  0.00000000000E+00  0.00000000000E+00  0.30979109145E+01  0.30979109145E+01  0.00000000000E+00 0. -1.
         22   -1    0    0    0    0 -0.00000000000E+00 -0.00000000000E+00 -0.40298953354E+01  0.40298953354E+01  0.00000000000E+00 0.  1.
          4    1    1    2  501    0  0.21013265974E+01  0.37700098385E+00 -0.33057855951E+01  0.39352155737E+01  0.00000000000E+00 0.  1.
         -4    1    1    2    0  501 -0.21013265974E+01 -0.37700098385E+00  0.23738011742E+01  0.31925906762E+01  0.00000000000E+00 0. -1.
<mgrwt>
<rscale>  0 0.21348778E+01</rscale>
<asrwt>0</asrwt>
<pdfrwt beam="1">0</pdfrwt>
<pdfrwt beam="2">0</pdfrwt>
<totfact> 0.12714581E+12</totfact>
</mgrwt>
</event>
<event>
 4    2  0.2093759E+006  0.5007666E+01  0.7546771E-02  0.2122090E+00
         22   -1    0    0    0    0  0.00000000000E+00  0.00000000000E+00  0.89519384209E+00  0.89519384209E+00  0.00000000000E+00 0.  1.
         22   -1    0    0    0    0 -0.00000000000E+00 -0.00000000000E+00 -0.37378873858E+02  0.37378873858E+02  0.00000000000E+00 0. -1.
          4    1    1    2  501    0  0.23545165758E+00 -0.50021274608E+01 -0.27821380909E+02  0.28268462149E+02  0.00000000000E+00 0. -1.
         -4    1    1    2    0  501 -0.23545165758E+00  0.50021274608E+01 -0.86622991074E+01  0.10005605551E+02  0.00000000000E+00 0.  1.
<mgrwt>
<rscale>  0 0.50076658E+01</rscale>
<asrwt>0</asrwt>
<pdfrwt beam="1">0</pdfrwt>
<pdfrwt beam="2">0</pdfrwt>
<totfact> 0.34776114E+11</totfact>
</mgrwt>
</event>
<event>
 4    2  0.2093759E+006  0.4197694E+01  0.7546771E-02  0.2241026E+00
         22   -1    0    0    0    0  0.00000000000E+00  0.00000000000E+00  0.10619255130E+03  0.10619255130E+03  0.00000000000E+00 0.  1.
         22   -1    0    0    0    0 -0.00000000000E+00 -0.00000000000E+00 -0.16329324389E+02  0.16329324389E+02  0.00000000000E+00 0. -1.
          4    1    1    2  501    0  0.32158736050E+01  0.26979240295E+01 -0.16017277049E+02  0.16558194382E+02  0.00000000000E+00 0. -1.
         -4    1    1    2    0  501 -0.32158736050E+01 -0.26979240295E+01  0.10588050396E+03  0.10596368131E+03  0.00000000000E+00 0.  1.
<mgrwt>
<rscale>  0 0.41976943E+01</rscale>
<asrwt>0</asrwt>
<pdfrwt beam="1">0</pdfrwt>
<pdfrwt beam="2">0</pdfrwt>
<totfact> 0.27736420E+09</totfact>
</mgrwt>
</event>
<event>
 4    2  0.2093759E+006  0.2265228E+01  0.7546771E-02  0.2822050E+00
         22   -1    0    0    0    0  0.00000000000E+00  0.00000000000E+00  0.74222394537E+00  0.74222394537E+00  0.00000000000E+00 0.  1.
         22   -1    0    0    0    0 -0.00000000000E+00 -0.00000000000E+00 -0.98908367619E+01  0.98908367619E+01  0.00000000000E+00 0. -1.
          4    1    1    2  501    0 -0.82887708423E+00 -0.21081318153E+01 -0.16573066063E+01  0.28067636450E+01  0.00000000000E+00 0.  1.
         -4    1    1    2    0  501  0.82887708423E+00  0.21081318153E+01 -0.74913062102E+01  0.78262970622E+01  0.00000000000E+00 0. -1.
<mgrwt>
<rscale>  0 0.22652278E+01</rscale>
<asrwt>0</asrwt>
<pdfrwt beam="1">0</pdfrwt>
<pdfrwt beam="2">0</pdfrwt>
<totfact> 0.22581042E+12</totfact>
</mgrwt>
</event>
<event>
 4    2  0.2093759E+006  0.3116797E+01  0.7546771E-02  0.2486512E+00
         22   -1    0    0    0    0  0.00000000000E+00  0.00000000000E+00  0.53467649774E+01  0.53467649774E+01  0.00000000000E+00 0.  1.
         22   -1    0    0    0    0 -0.00000000000E+00 -0.00000000000E+00 -0.28968992376E+01  0.28968992376E+01  0.00000000000E+00 0. -1.
          4    1    1    2  501    0 -0.30535431963E+01  0.62473702991E+00 -0.12918146398E+01  0.33739009280E+01  0.00000000000E+00 0. -1.
         -4    1    1    2    0  501  0.30535431963E+01 -0.62473702991E+00  0.37416803796E+01  0.48697632870E+01  0.00000000000E+00 0.  1.
<mgrwt>
<rscale>  0 0.31167968E+01</rscale>
<asrwt>0</asrwt>
<pdfrwt beam="1">0</pdfrwt>
<pdfrwt beam="2">0</pdfrwt>
<totfact> 0.98464354E+11</totfact>
</mgrwt>
</event>
<event>
 4    2  0.2093759E+006  0.2104712E+01  0.7546771E-02  0.2913462E+00
         22   -1    0    0    0    0  0.00000000000E+00  0.00000000000E+00  0.57060016956E+01  0.57060016956E+01  0.00000000000E+00 0. -1.
         22   -1    0    0    0    0 -0.00000000000E+00 -0.00000000000E+00 -0.10073303063E+01  0.10073303063E+01  0.00000000000E+00 0.  1.
          4    1    1    2  501    0 -0.18226615383E+01  0.10524807044E+01  0.74196200272E+00  0.22316626828E+01  0.00000000000E+00 0.  1.
         -4    1    1    2    0  501  0.18226615383E+01 -0.10524807044E+01  0.39567093865E+01  0.44816693191E+01  0.00000000000E+00 0. -1.
<mgrwt>
<rscale>  0 0.21047116E+01</rscale>
<asrwt>0</asrwt>
<pdfrwt beam="1">0</pdfrwt>
<pdfrwt beam="2">0</pdfrwt>
<totfact> 0.30839560E+12</totfact>
</mgrwt>
</event>
<event>
 4    2  0.2093759E+006  0.2700093E+01  0.7546771E-02  0.2626389E+00
         22   -1    0    0    0    0  0.00000000000E+00  0.00000000000E+00  0.20593333065E+00  0.20593333065E+00  0.00000000000E+00 0. -1.
         22   -1    0    0    0    0 -0.00000000000E+00 -0.00000000000E+00 -0.39321543156E+02  0.39321543156E+02  0.00000000000E+00 0.  1.
          4    1    1    2  501    0  0.25412885462E+01  0.91233547373E+00 -0.25797417530E+02  0.25938335620E+02  0.00000000000E+00 0.  1.
         -4    1    1    2    0  501 -0.25412885462E+01 -0.91233547373E+00 -0.13318192295E+02  0.13589140867E+02  0.00000000000E+00 0. -1.
<mgrwt>
<rscale>  0 0.27000932E+01</rscale>
<asrwt>0</asrwt>
<pdfrwt beam="1">0</pdfrwt>
<pdfrwt beam="2">0</pdfrwt>
<totfact> 0.17065080E+12</totfact>
</mgrwt>
</event>
<event>
 4    2  0.2093759E+006  0.2263663E+01  0.7546771E-02  0.2822881E+00
         22   -1    0    0    0    0  0.00000000000E+00  0.00000000000E+00  0.24421255561E+00  0.24421255561E+00  0.00000000000E+00 0.  1.
         22   -1    0    0    0    0 -0.00000000000E+00 -0.00000000000E+00 -0.21696706593E+02  0.21696706593E+02  0.00000000000E+00 0. -1.
          4    1    1    2  501    0  0.26817084050E+00 -0.22477220048E+01 -0.87357345122E+01  0.90242577134E+01  0.00000000000E+00 0. -1.
         -4    1    1    2    0  501 -0.26817084050E+00  0.22477220048E+01 -0.12716759525E+02  0.12916661435E+02  0.00000000000E+00 0.  1.
<mgrwt>
<rscale>  0 0.22636629E+01</rscale>
<asrwt>0</asrwt>
<pdfrwt beam="1">0</pdfrwt>
<pdfrwt beam="2">0</pdfrwt>
<totfact> 0.30068610E+12</totfact>
</mgrwt>
</event>
<event>
 4    2  0.2093759E+006  0.4489430E+01  0.7546771E-02  0.2192483E+00
         22   -1    0    0    0    0  0.00000000000E+00  0.00000000000E+00  0.49511116199E+01  0.49511116199E+01  0.00000000000E+00 0. -1.
         22   -1    0    0    0    0 -0.00000000000E+00 -0.00000000000E+00 -0.56853715779E+01  0.56853715779E+01  0.00000000000E+00 0.  1.
          4    1    1    2  501    0 -0.41646917351E+01 -0.16764024167E+01 -0.32012443041E+01  0.55138867784E+01  0.00000000000E+00 0.  1.
         -4    1    1    2    0  501  0.41646917351E+01  0.16764024167E+01  0.24669843461E+01  0.51225964193E+01  0.00000000000E+00 0. -1.
<mgrwt>
<rscale>  0 0.44894301E+01</rscale>
<asrwt>0</asrwt>
<pdfrwt beam="1">0</pdfrwt>
<pdfrwt beam="2">0</pdfrwt>
<totfact> 0.48760887E+11</totfact>
</mgrwt>
</event>
<event>
 4    2  0.2093759E+006  0.2827188E+01  0.7546771E-02  0.2579782E+00
         22   -1    0    0    0    0  0.00000000000E+00  0.00000000000E+00  0.58447756638E+00  0.58447756638E+00  0.00000000000E+00 0.  1.
         22   -1    0    0    0    0 -0.00000000000E+00 -0.00000000000E+00 -0.26663132296E+02  0.26663132296E+02  0.00000000000E+00 0. -1.
          4    1    1    2  501    0  0.24076177760E+01 -0.14820156138E+01 -0.22547754088E+02  0.22724308747E+02  0.00000000000E+00 0. -1.
         -4    1    1    2    0  501 -0.24076177760E+01  0.14820156138E+01 -0.35309006412E+01  0.45233011146E+01  0.00000000000E+00 0.  1.
<mgrwt>
<rscale>  0 0.28271883E+01</rscale>
<asrwt>0</asrwt>
<pdfrwt beam="1">0</pdfrwt>
<pdfrwt beam="2">0</pdfrwt>
<totfact> 0.86922524E+11</totfact>
</mgrwt>
</event>
<event>
 4    2  0.2093759E+006  0.2040674E+01  0.7546771E-02  0.2953799E+00
         22   -1    0    0    0    0  0.00000000000E+00  0.00000000000E+00  0.44120813893E+02  0.44120813893E+02  0.00000000000E+00 0. -1.
         22   -1    0    0    0    0 -0.00000000000E+00 -0.00000000000E+00 -0.29202173684E+00  0.29202173684E+00  0.00000000000E+00 0.  1.
          4    1    1    2  501    0 -0.54148178953E+00  0.19675235919E+01  0.36458266372E+01  0.41780861027E+01  0.00000000000E+00 0.  1.
         -4    1    1    2    0  501  0.54148178953E+00 -0.19675235919E+01  0.40182965519E+02  0.40234749527E+02  0.00000000000E+00 0. -1.
<mgrwt>
<rscale>  0 0.20406743E+01</rscale>
<asrwt>0</asrwt>
<pdfrwt beam="1">0</pdfrwt>
<pdfrwt beam="2">0</pdfrwt>
<totfact> 0.99385626E+11</totfact>
</mgrwt>
</event>
<event>
 4    2  0.2093759E+006  0.4022372E+01  0.7546771E-02  0.2273038E+00
         22   -1    0    0    0    0  0.00000000000E+00  0.00000000000E+00  0.27226209332E+01  0.27226209332E+01  0.00000000000E+00 0.  1.
         22   -1    0    0    0    0 -0.00000000000E+00 -0.00000000000E+00 -0.68008678645E+01  0.68008678645E+01  0.00000000000E+00 0. -1.
          4    1    1    2  501    0 -0.30715541765E+01 -0.25971202957E+01 -0.37307028680E+01  0.54861300366E+01  0.00000000000E+00 0.  1.
         -4    1    1    2    0  501  0.30715541765E+01  0.25971202957E+01 -0.34754406333E+00  0.40373587610E+01  0.00000000000E+00 0. -1.
<mgrwt>
<rscale>  0 0.40223723E+01</rscale>
<asrwt>0</asrwt>
<pdfrwt beam="1">0</pdfrwt>
<pdfrwt beam="2">0</pdfrwt>
<totfact> 0.79492107E+11</totfact>
</mgrwt>
</event>
<event>
 4    2  0.2093759E+006  0.2145131E+01  0.7546771E-02  0.2889205E+00
         22   -1    0    0    0    0  0.00000000000E+00  0.00000000000E+00  0.64133299509E+02  0.64133299509E+02  0.00000000000E+00 0.  1.
         22   -1    0    0    0    0 -0.00000000000E+00 -0.00000000000E+00 -0.29320472525E+00  0.29320472525E+00  0.00000000000E+00 0. -1.
          4    1    1    2  501    0  0.93499105001E+00 -0.19306416372E+01  0.39243531717E+01  0.44723744489E+01  0.00000000000E+00 0. -1.
         -4    1    1    2    0  501 -0.93499105001E+00  0.19306416372E+01  0.59915741612E+02  0.59954129786E+02  0.00000000000E+00 0.  1.
<mgrwt>
<rscale>  0 0.21451306E+01</rscale>
<asrwt>0</asrwt>
<pdfrwt beam="1">0</pdfrwt>
<pdfrwt beam="2">0</pdfrwt>
<totfact> 0.60260010E+11</totfact>
</mgrwt>
</event>
<event>
 4    2  0.2093759E+006  0.2426776E+01  0.7546771E-02  0.2741719E+00
         22   -1    0    0    0    0  0.00000000000E+00  0.00000000000E+00  0.34355998518E+01  0.34355998518E+01  0.00000000000E+00 0.  1.
         22   -1    0    0    0    0 -0.00000000000E+00 -0.00000000000E+00 -0.17158574095E+01  0.17158574095E+01  0.00000000000E+00 0. -1.
          4    1    1    2  501    0  0.21006888077E+01 -0.12150513414E+01  0.94035852800E+00  0.26025981999E+01  0.00000000000E+00 0. -1.
         -4    1    1    2    0  501 -0.21006888077E+01  0.12150513414E+01  0.77938391426E+00  0.25488590614E+01  0.00000000000E+00 0.  1.
<mgrwt>
<rscale>  0 0.24267763E+01</rscale>
<asrwt>0</asrwt>
<pdfrwt beam="1">0</pdfrwt>
<pdfrwt beam="2">0</pdfrwt>
<totfact> 0.30454557E+12</totfact>
</mgrwt>
</event>
<event>
 4    2  0.2093759E+006  0.2436788E+01  0.7546771E-02  0.2737071E+00
         22   -1    0    0    0    0  0.00000000000E+00  0.00000000000E+00  0.53021331554E+01  0.53021331554E+01  0.00000000000E+00 0.  1.
         22   -1    0    0    0    0 -0.00000000000E+00 -0.00000000000E+00 -0.14239503913E+01  0.14239503913E+01  0.00000000000E+00 0. -1.
          4    1    1    2  501    0 -0.30936779619E+00  0.24170702491E+01  0.38510540590E+00  0.24670312515E+01  0.00000000000E+00 0. -1.
         -4    1    1    2    0  501  0.30936779619E+00 -0.24170702491E+01  0.34930773582E+01  0.42590522952E+01  0.00000000000E+00 0.  1.
<mgrwt>
<rscale>  0 0.24367883E+01</rscale>
<asrwt>0</asrwt>
<pdfrwt beam="1">0</pdfrwt>
<pdfrwt beam="2">0</pdfrwt>
<totfact> 0.22633756E+12</totfact>
</mgrwt>
</event>
<event>
 4    2  0.2093759E+006  0.2471674E+01  0.7546771E-02  0.2721151E+00
         22   -1    0    0    0    0  0.00000000000E+00  0.00000000000E+00  0.35158592359E+00  0.35158592359E+00  0.00000000000E+00 0.  1.
         22   -1    0    0    0    0 -0.00000000000E+00 -0.00000000000E+00 -0.19067891395E+02  0.19067891395E+02  0.00000000000E+00 0. -1.
          4    1    1    2  501    0 -0.24267488513E+01 -0.46910710752E+00 -0.12250411657E+02  0.12497269991E+02  0.00000000000E+00 0. -1.
         -4    1    1    2    0  501  0.24267488513E+01  0.46910710752E+00 -0.64658938151E+01  0.69222073281E+01  0.00000000000E+00 0.  1.
<mgrwt>
<rscale>  0 0.24716738E+01</rscale>
<asrwt>0</asrwt>
<pdfrwt beam="1">0</pdfrwt>
<pdfrwt beam="2">0</pdfrwt>
<totfact> 0.23481708E+12</totfact>
</mgrwt>
</event>
<event>
 4    2  0.2093759E+006  0.4087244E+01  0.7546771E-02  0.2260921E+00
         22   -1    0    0    0    0  0.00000000000E+00  0.00000000000E+00  0.27122948575E+02  0.27122948575E+02  0.00000000000E+00 0.  1.
         22   -1    0    0    0    0 -0.00000000000E+00 -0.00000000000E+00 -0.73070838991E+00  0.73070838991E+00  0.00000000000E+00 0. -1.
          4    1    1    2  501    0  0.39512283818E+01  0.10456386622E+01  0.76762456333E+01  0.86965690338E+01  0.00000000000E+00 0. -1.
         -4    1    1    2    0  501 -0.39512283818E+01 -0.10456386622E+01  0.18715994552E+02  0.19157087931E+02  0.00000000000E+00 0.  1.
<mgrwt>
<rscale>  0 0.40872443E+01</rscale>
<asrwt>0</asrwt>
<pdfrwt beam="1">0</pdfrwt>
<pdfrwt beam="2">0</pdfrwt>
<totfact> 0.66035037E+11</totfact>
</mgrwt>
</event>
<event>
 4    2  0.2093759E+006  0.3109318E+01  0.7546771E-02  0.2488724E+00
         22   -1    0    0    0    0  0.00000000000E+00  0.00000000000E+00  0.40527718984E+02  0.40527718984E+02  0.00000000000E+00 0.  1.
         22   -1    0    0    0    0 -0.00000000000E+00 -0.00000000000E+00 -0.44901945827E+00  0.44901945827E+00  0.00000000000E+00 0. -1.
          4    1    1    2  501    0 -0.27748339876E+01  0.14029086675E+01  0.60121771483E+01  0.67686136284E+01  0.00000000000E+00 0. -1.
         -4    1    1    2    0  501  0.27748339876E+01 -0.14029086675E+01  0.34066522377E+02  0.34208124814E+02  0.00000000000E+00 0.  1.
<mgrwt>
<rscale>  0 0.31093177E+01</rscale>
<asrwt>0</asrwt>
<pdfrwt beam="1">0</pdfrwt>
<pdfrwt beam="2">0</pdfrwt>
<totfact> 0.68455333E+11</totfact>
</mgrwt>
</event>
<event>
 4    2  0.2093759E+006  0.3151319E+01  0.7546771E-02  0.2476422E+00
         22   -1    0    0    0    0  0.00000000000E+00  0.00000000000E+00  0.16927190168E+02  0.16927190168E+02  0.00000000000E+00 0. -1.
         22   -1    0    0    0    0 -0.00000000000E+00 -0.00000000000E+00 -0.65287990655E+00  0.65287990655E+00  0.00000000000E+00 0.  1.
          4    1    1    2  501    0 -0.83765497235E+00  0.30379507566E+01  0.53381152196E+01  0.61988938328E+01  0.00000000000E+00 0.  1.
         -4    1    1    2    0  501  0.83765497235E+00 -0.30379507566E+01  0.10936195041E+02  0.11381176241E+02  0.00000000000E+00 0. -1.
<mgrwt>
<rscale>  0 0.31513189E+01</rscale>
<asrwt>0</asrwt>
<pdfrwt beam="1">0</pdfrwt>
<pdfrwt beam="2">0</pdfrwt>
<totfact> 0.13537388E+12</totfact>
</mgrwt>
</event>
<event>
 4    2  0.2093759E+006  0.2196586E+01  0.7546771E-02  0.2859571E+00
         22   -1    0    0    0    0  0.00000000000E+00  0.00000000000E+00  0.22156184674E+01  0.22156184674E+01  0.00000000000E+00 0.  1.
         22   -1    0    0    0    0 -0.00000000000E+00 -0.00000000000E+00 -0.28805156613E+01  0.28805156613E+01  0.00000000000E+00 0. -1.
          4    1    1    2  501    0 -0.27937443478E+00 -0.21787473355E+01  0.92616144708E+00  0.23838550822E+01  0.00000000000E+00 0.  1.
         -4    1    1    2    0  501  0.27937443478E+00  0.21787473355E+01 -0.15910586410E+01  0.27122790465E+01  0.00000000000E+00 0. -1.
<mgrwt>
<rscale>  0 0.21965860E+01</rscale>
<asrwt>0</asrwt>
<pdfrwt beam="1">0</pdfrwt>
<pdfrwt beam="2">0</pdfrwt>
<totfact> 0.27843337E+12</totfact>
</mgrwt>
</event>
<event>
 4    2  0.2093759E+006  0.2364539E+01  0.7546771E-02  0.2771440E+00
         22   -1    0    0    0    0  0.00000000000E+00  0.00000000000E+00  0.75874281521E+01  0.75874281521E+01  0.00000000000E+00 0.  1.
         22   -1    0    0    0    0 -0.00000000000E+00 -0.00000000000E+00 -0.23242524556E+01  0.23242524556E+01  0.00000000000E+00 0. -1.
          4    1    1    2  501    0 -0.89184190948E-01  0.23628561440E+01 -0.14639857338E+01  0.27810604463E+01  0.00000000000E+00 0. -1.
         -4    1    1    2    0  501  0.89184190948E-01 -0.23628561440E+01  0.67271614302E+01  0.71306201614E+01  0.00000000000E+00 0.  1.
<mgrwt>
<rscale>  0 0.23645386E+01</rscale>
<asrwt>0</asrwt>
<pdfrwt beam="1">0</pdfrwt>
<pdfrwt beam="2">0</pdfrwt>
<totfact> 0.83816858E+11</totfact>
</mgrwt>
</event>
<event>
 4    2  0.2093759E+006  0.7864325E+01  0.7546771E-02  0.1884212E+00
         22   -1    0    0    0    0  0.00000000000E+00  0.00000000000E+00  0.63138573315E+01  0.63138573315E+01  0.00000000000E+00 0.  1.
         22   -1    0    0    0    0 -0.00000000000E+00 -0.00000000000E+00 -0.17864174392E+02  0.17864174392E+02  0.00000000000E+00 0. -1.
          4    1    1    2  501    0 -0.48214382731E+01  0.62129971569E+01 -0.13899715108E+02  0.15970274912E+02  0.00000000000E+00 0. -1.
         -4    1    1    2    0  501  0.48214382731E+01 -0.62129971569E+01  0.23493980472E+01  0.82077568115E+01  0.00000000000E+00 0.  1.
<mgrwt>
<rscale>  0 0.78643246E+01</rscale>
<asrwt>0</asrwt>
<pdfrwt beam="1">0</pdfrwt>
<pdfrwt beam="2">0</pdfrwt>
<totfact> 0.91173053E+10</totfact>
</mgrwt>
</event>
<event>
 4    2  0.2093759E+006  0.2866309E+01  0.7546771E-02  0.2566194E+00
         22   -1    0    0    0    0  0.00000000000E+00  0.00000000000E+00  0.28135272784E+00  0.28135272784E+00  0.00000000000E+00 0.  1.
         22   -1    0    0    0    0 -0.00000000000E+00 -0.00000000000E+00 -0.45999515868E+02  0.45999515868E+02  0.00000000000E+00 0. -1.
          4    1    1    2  501    0 -0.27379029083E+01  0.84830162678E+00 -0.36843125127E+02  0.36954453007E+02  0.00000000000E+00 0. -1.
         -4    1    1    2    0  501  0.27379029083E+01 -0.84830162678E+00 -0.88750380135E+01  0.93264155883E+01  0.00000000000E+00 0.  1.
<mgrwt>
<rscale>  0 0.28663091E+01</rscale>
<asrwt>0</asrwt>
<pdfrwt beam="1">0</pdfrwt>
<pdfrwt beam="2">0</pdfrwt>
<totfact> 0.98127558E+11</totfact>
</mgrwt>
</event>
<event>
 4    2  0.2093759E+006  0.4336352E+01  0.7546771E-02  0.2217268E+00
         22   -1    0    0    0    0  0.00000000000E+00  0.00000000000E+00  0.15199300293E+01  0.15199300293E+01  0.00000000000E+00 0.  1.
         22   -1    0    0    0    0 -0.00000000000E+00 -0.00000000000E+00 -0.17825566954E+02  0.17825566954E+02  0.00000000000E+00 0. -1.
          4    1    1    2  501    0 -0.16541042681E+01  0.40084768451E+01 -0.13503202592E+02  0.14182398520E+02  0.00000000000E+00 0. -1.
         -4    1    1    2    0  501  0.16541042681E+01 -0.40084768451E+01 -0.28024343325E+01  0.51630984627E+01  0.00000000000E+00 0.  1.
<mgrwt>
<rscale>  0 0.43363519E+01</rscale>
<asrwt>0</asrwt>
<pdfrwt beam="1">0</pdfrwt>
<pdfrwt beam="2">0</pdfrwt>
<totfact> 0.48372356E+11</totfact>
</mgrwt>
</event>
<event>
 4    2  0.2093759E+006  0.2150520E+01  0.7546771E-02  0.2886037E+00
         22   -1    0    0    0    0  0.00000000000E+00  0.00000000000E+00  0.29542997205E+01  0.29542997205E+01  0.00000000000E+00 0. -1.
         22   -1    0    0    0    0 -0.00000000000E+00 -0.00000000000E+00 -0.26259813173E+01  0.26259813173E+01  0.00000000000E+00 0.  1.
          4    1    1    2  501    0 -0.39257056407E+00  0.21143848113E+01 -0.16089975014E+01  0.26858160282E+01  0.00000000000E+00 0.  1.
         -4    1    1    2    0  501  0.39257056407E+00 -0.21143848113E+01  0.19373159046E+01  0.28944650097E+01  0.00000000000E+00 0. -1.
<mgrwt>
<rscale>  0 0.21505197E+01</rscale>
<asrwt>0</asrwt>
<pdfrwt beam="1">0</pdfrwt>
<pdfrwt beam="2">0</pdfrwt>
<totfact> 0.22188266E+12</totfact>
</mgrwt>
</event>
<event>
 4    2  0.2093759E+006  0.3960377E+01  0.7546771E-02  0.2284933E+00
         22   -1    0    0    0    0  0.00000000000E+00  0.00000000000E+00  0.11639204139E+02  0.11639204139E+02  0.00000000000E+00 0.  1.
         22   -1    0    0    0    0 -0.00000000000E+00 -0.00000000000E+00 -0.19862891158E+01  0.19862891158E+01  0.00000000000E+00 0. -1.
          4    1    1    2  501    0  0.38056341536E+01 -0.10962361416E+01  0.96316459616E+00  0.40758153821E+01  0.00000000000E+00 0. -1.
         -4    1    1    2    0  501 -0.38056341536E+01  0.10962361416E+01  0.86897504265E+01  0.95496778723E+01  0.00000000000E+00 0.  1.
<mgrwt>
<rscale>  0 0.39603769E+01</rscale>
<asrwt>0</asrwt>
<pdfrwt beam="1">0</pdfrwt>
<pdfrwt beam="2">0</pdfrwt>
<totfact> 0.59968262E+11</totfact>
</mgrwt>
</event>
<event>
 4    2  0.2093759E+006  0.2115099E+01  0.7546771E-02  0.2907142E+00
         22   -1    0    0    0    0  0.00000000000E+00  0.00000000000E+00  0.11876799589E+02  0.11876799589E+02  0.00000000000E+00 0.  1.
         22   -1    0    0    0    0 -0.00000000000E+00 -0.00000000000E+00 -0.67052112353E+00  0.67052112353E+00  0.00000000000E+00 0. -1.
          4    1    1    2  501    0  0.12831954349E+01 -0.16813846504E+01  0.14499876817E+01  0.25643925487E+01  0.00000000000E+00 0. -1.
         -4    1    1    2    0  501 -0.12831954349E+01  0.16813846504E+01  0.97562907839E+01  0.99829281640E+01  0.00000000000E+00 0.  1.
<mgrwt>
<rscale>  0 0.21150993E+01</rscale>
<asrwt>0</asrwt>
<pdfrwt beam="1">0</pdfrwt>
<pdfrwt beam="2">0</pdfrwt>
<totfact> 0.20290950E+12</totfact>
</mgrwt>
</event>
<event>
 4    2  0.2093759E+006  0.2181076E+01  0.7546771E-02  0.2868362E+00
         22   -1    0    0    0    0  0.00000000000E+00  0.00000000000E+00  0.57282911530E+00  0.57282911530E+00  0.00000000000E+00 0. -1.
         22   -1    0    0    0    0 -0.00000000000E+00 -0.00000000000E+00 -0.10890203171E+02  0.10890203171E+02  0.00000000000E+00 0.  1.
          4    1    1    2  501    0 -0.14243936127E+01  0.16517254721E+01 -0.79514608138E+01  0.82451696934E+01  0.00000000000E+00 0.  1.
         -4    1    1    2    0  501  0.14243936127E+01 -0.16517254721E+01 -0.23659132421E+01  0.32178625931E+01  0.00000000000E+00 0. -1.
<mgrwt>
<rscale>  0 0.21810764E+01</rscale>
<asrwt>0</asrwt>
<pdfrwt beam="1">0</pdfrwt>
<pdfrwt beam="2">0</pdfrwt>
<totfact> 0.26953601E+12</totfact>
</mgrwt>
</event>
<event>
 4    2  0.2093759E+006  0.2773083E+01  0.7546771E-02  0.2599147E+00
         22   -1    0    0    0    0  0.00000000000E+00  0.00000000000E+00  0.28010554834E+01  0.28010554834E+01  0.00000000000E+00 0.  1.
         22   -1    0    0    0    0 -0.00000000000E+00 -0.00000000000E+00 -0.42728921620E+01  0.42728921620E+01  0.00000000000E+00 0. -1.
          4    1    1    2  501    0  0.27711180377E+01 -0.10436922069E+00 -0.28506821870E+01  0.39769808957E+01  0.00000000000E+00 0. -1.
         -4    1    1    2    0  501 -0.27711180377E+01  0.10436922069E+00  0.13788455084E+01  0.30969667497E+01  0.00000000000E+00 0.  1.
<mgrwt>
<rscale>  0 0.27730828E+01</rscale>
<asrwt>0</asrwt>
<pdfrwt beam="1">0</pdfrwt>
<pdfrwt beam="2">0</pdfrwt>
<totfact> 0.13349460E+12</totfact>
</mgrwt>
</event>
<event>
 4    2  0.2093759E+006  0.3082722E+01  0.7546771E-02  0.2496668E+00
         22   -1    0    0    0    0  0.00000000000E+00  0.00000000000E+00  0.16919961009E+00  0.16919961009E+00  0.00000000000E+00 0.  1.
         22   -1    0    0    0    0 -0.00000000000E+00 -0.00000000000E+00 -0.66864130648E+02  0.66864130648E+02  0.00000000000E+00 0. -1.
          4    1    1    2  501    0  0.25894878436E+01 -0.16726413837E+01 -0.19940552204E+02  0.20177432907E+02  0.00000000000E+00 0.  1.
         -4    1    1    2    0  501 -0.25894878436E+01  0.16726413837E+01 -0.46754378834E+02  0.46855897351E+02  0.00000000000E+00 0. -1.
<mgrwt>
<rscale>  0 0.30827223E+01</rscale>
<asrwt>0</asrwt>
<pdfrwt beam="1">0</pdfrwt>
<pdfrwt beam="2">0</pdfrwt>
<totfact> 0.10528587E+12</totfact>
</mgrwt>
</event>
<event>
 4    2  0.2093759E+006  0.3510265E+01  0.7546771E-02  0.2381982E+00
         22   -1    0    0    0    0  0.00000000000E+00  0.00000000000E+00  0.14309498568E+01  0.14309498568E+01  0.00000000000E+00 0.  1.
         22   -1    0    0    0    0 -0.00000000000E+00 -0.00000000000E+00 -0.13266848123E+02  0.13266848123E+02  0.00000000000E+00 0. -1.
          4    1    1    2  501    0  0.14061281549E+01 -0.32163275810E+01 -0.10271425218E+02  0.10854682653E+02  0.00000000000E+00 0. -1.
         -4    1    1    2    0  501 -0.14061281549E+01  0.32163275810E+01 -0.15644730488E+01  0.38431153270E+01  0.00000000000E+00 0.  1.
<mgrwt>
<rscale>  0 0.35102649E+01</rscale>
<asrwt>0</asrwt>
<pdfrwt beam="1">0</pdfrwt>
<pdfrwt beam="2">0</pdfrwt>
<totfact> 0.74605493E+11</totfact>
</mgrwt>
</event>
<event>
 4    2  0.2093759E+006  0.2562522E+01  0.7546771E-02  0.2681592E+00
         22   -1    0    0    0    0  0.00000000000E+00  0.00000000000E+00  0.44340047959E+01  0.44340047959E+01  0.00000000000E+00 0.  1.
         22   -1    0    0    0    0 -0.00000000000E+00 -0.00000000000E+00 -0.16097107276E+01  0.16097107276E+01  0.00000000000E+00 0. -1.
          4    1    1    2  501    0  0.81101947535E+00  0.24307954117E+01  0.55747479181E+00  0.26224601172E+01  0.00000000000E+00 0. -1.
         -4    1    1    2    0  501 -0.81101947535E+00 -0.24307954117E+01  0.22668192765E+01  0.34212554063E+01  0.00000000000E+00 0.  1.
<mgrwt>
<rscale>  0 0.25625220E+01</rscale>
<asrwt>0</asrwt>
<pdfrwt beam="1">0</pdfrwt>
<pdfrwt beam="2">0</pdfrwt>
<totfact> 0.24285047E+12</totfact>
</mgrwt>
</event>
<event>
 4    2  0.2093759E+006  0.2644022E+01  0.7546771E-02  0.2648250E+00
         22   -1    0    0    0    0  0.00000000000E+00  0.00000000000E+00  0.34230264410E+00  0.34230264410E+00  0.00000000000E+00 0. -1.
         22   -1    0    0    0    0 -0.00000000000E+00 -0.00000000000E+00 -0.20538725546E+02  0.20538725546E+02  0.00000000000E+00 0.  1.
          4    1    1    2  501    0 -0.26371968332E+01 -0.18985950028E+00 -0.10881843367E+02  0.11198453859E+02  0.00000000000E+00 0. -1.
         -4    1    1    2    0  501  0.26371968332E+01  0.18985950028E+00 -0.93145795356E+01  0.96825743319E+01  0.00000000000E+00 0.  1.
<mgrwt>
<rscale>  0 0.26440223E+01</rscale>
<asrwt>0</asrwt>
<pdfrwt beam="1">0</pdfrwt>
<pdfrwt beam="2">0</pdfrwt>
<totfact> 0.22058197E+12</totfact>
</mgrwt>
</event>
<event>
 4    2  0.2093759E+006  0.2789840E+01  0.7546771E-02  0.2593077E+00
         22   -1    0    0    0    0  0.00000000000E+00  0.00000000000E+00  0.32447272749E+01  0.32447272749E+01  0.00000000000E+00 0.  1.
         22   -1    0    0    0    0 -0.00000000000E+00 -0.00000000000E+00 -0.30834876334E+01  0.30834876334E+01  0.00000000000E+00 0. -1.
          4    1    1    2  501    0 -0.27538180028E+01 -0.44686961951E+00 -0.14104582324E+01  0.31261155569E+01  0.00000000000E+00 0. -1.
         -4    1    1    2    0  501  0.27538180028E+01  0.44686961951E+00  0.15716978739E+01  0.32020993514E+01  0.00000000000E+00 0.  1.
<mgrwt>
<rscale>  0 0.27898398E+01</rscale>
<asrwt>0</asrwt>
<pdfrwt beam="1">0</pdfrwt>
<pdfrwt beam="2">0</pdfrwt>
<totfact> 0.16487795E+12</totfact>
</mgrwt>
</event>
<event>
 4    2  0.2093759E+006  0.3588577E+01  0.7546771E-02  0.2363591E+00
         22   -1    0    0    0    0  0.00000000000E+00  0.00000000000E+00  0.85792957380E+00  0.85792957380E+00  0.00000000000E+00 0. -1.
         22   -1    0    0    0    0 -0.00000000000E+00 -0.00000000000E+00 -0.22718968665E+02  0.22718968665E+02  0.00000000000E+00 0.  1.
          4    1    1    2  501    0  0.19631289596E+01 -0.30039984544E+01 -0.17797229698E+02  0.18155419768E+02  0.00000000000E+00 0.  1.
         -4    1    1    2    0  501 -0.19631289596E+01  0.30039984544E+01 -0.40638093932E+01  0.54214784709E+01  0.00000000000E+00 0. -1.
<mgrwt>
<rscale>  0 0.35885766E+01</rscale>
<asrwt>0</asrwt>
<pdfrwt beam="1">0</pdfrwt>
<pdfrwt beam="2">0</pdfrwt>
<totfact> 0.68788131E+11</totfact>
</mgrwt>
</event>
<event>
 4    2  0.2093759E+006  0.2476521E+01  0.7546771E-02  0.2718973E+00
         22   -1    0    0    0    0  0.00000000000E+00  0.00000000000E+00  0.14677219968E+02  0.14677219968E+02  0.00000000000E+00 0. -1.
         22   -1    0    0    0    0 -0.00000000000E+00 -0.00000000000E+00 -0.23859299256E+01  0.23859299256E+01  0.00000000000E+00 0.  1.
          4    1    1    2  501    0  0.23297775341E+01 -0.83981693862E+00 -0.16028905811E+01  0.29499854345E+01  0.00000000000E+00 0.  1.
         -4    1    1    2    0  501 -0.23297775341E+01  0.83981693862E+00  0.13894180623E+02  0.14113164459E+02  0.00000000000E+00 0. -1.
<mgrwt>
<rscale>  0 0.24765209E+01</rscale>
<asrwt>0</asrwt>
<pdfrwt beam="1">0</pdfrwt>
<pdfrwt beam="2">0</pdfrwt>
<totfact> 0.36504592E+11</totfact>
</mgrwt>
</event>
<event>
 4    2  0.2093759E+006  0.3731469E+01  0.7546771E-02  0.2331765E+00
         22   -1    0    0    0    0  0.00000000000E+00  0.00000000000E+00  0.69878255050E+00  0.69878255050E+00  0.00000000000E+00 0.  1.
         22   -1    0    0    0    0 -0.00000000000E+00 -0.00000000000E+00 -0.23314097991E+02  0.23314097991E+02  0.00000000000E+00 0. -1.
          4    1    1    2  501    0  0.70490044991E+00  0.36642840009E+01 -0.15884755632E+02  0.16317148139E+02  0.00000000000E+00 0. -1.
         -4    1    1    2    0  501 -0.70490044991E+00 -0.36642840009E+01 -0.67305598083E+01  0.76957324029E+01  0.00000000000E+00 0.  1.
<mgrwt>
<rscale>  0 0.37314691E+01</rscale>
<asrwt>0</asrwt>
<pdfrwt beam="1">0</pdfrwt>
<pdfrwt beam="2">0</pdfrwt>
<totfact> 0.84086747E+11</totfact>
</mgrwt>
</event>
<event>
 4    2  0.2093759E+006  0.2987115E+01  0.7546771E-02  0.2526268E+00
         22   -1    0    0    0    0  0.00000000000E+00  0.00000000000E+00  0.79209048060E+00  0.79209048060E+00  0.00000000000E+00 0. -1.
         22   -1    0    0    0    0 -0.00000000000E+00 -0.00000000000E+00 -0.15729048678E+02  0.15729048678E+02  0.00000000000E+00 0.  1.
          4    1    1    2  501    0  0.11964385608E+01 -0.27370400097E+01 -0.11869222560E+02  0.12239334027E+02  0.00000000000E+00 0.  1.
         -4    1    1    2    0  501 -0.11964385608E+01  0.27370400097E+01 -0.30677356373E+01  0.42818051316E+01  0.00000000000E+00 0. -1.
<mgrwt>
<rscale>  0 0.29871145E+01</rscale>
<asrwt>0</asrwt>
<pdfrwt beam="1">0</pdfrwt>
<pdfrwt beam="2">0</pdfrwt>
<totfact> 0.11901139E+12</totfact>
</mgrwt>
</event>
<event>
 4    2  0.2093759E+006  0.2645396E+01  0.7546771E-02  0.2647705E+00
         22   -1    0    0    0    0  0.00000000000E+00  0.00000000000E+00  0.19719351962E+00  0.19719351962E+00  0.00000000000E+00 0.  1.
         22   -1    0    0    0    0 -0.00000000000E+00 -0.00000000000E+00 -0.68015420672E+02  0.68015420672E+02  0.00000000000E+00 0. -1.
          4    1    1    2  501    0 -0.19856083289E+01 -0.17479928912E+01 -0.57494983082E+02  0.57555809430E+02  0.00000000000E+00 0. -1.
         -4    1    1    2    0  501  0.19856083289E+01  0.17479928912E+01 -0.10323244070E+02  0.10656804761E+02  0.00000000000E+00 0.  1.
<mgrwt>
<rscale>  0 0.26453959E+01</rscale>
<asrwt>0</asrwt>
<pdfrwt beam="1">0</pdfrwt>
<pdfrwt beam="2">0</pdfrwt>
<totfact> 0.86744028E+11</totfact>
</mgrwt>
</event>
<event>
 4    2  0.2093759E+006  0.5008721E+01  0.7546771E-02  0.2121964E+00
         22   -1    0    0    0    0  0.00000000000E+00  0.00000000000E+00  0.13918925049E+01  0.13918925049E+01  0.00000000000E+00 0.  1.
         22   -1    0    0    0    0 -0.00000000000E+00 -0.00000000000E+00 -0.25145295689E+02  0.25145295689E+02  0.00000000000E+00 0. -1.
          4    1    1    2  501    0 -0.29225903835E+01 -0.40676472370E+01 -0.18937926261E+02  0.19589087260E+02  0.00000000000E+00 0.  1.
         -4    1    1    2    0  501  0.29225903835E+01  0.40676472370E+01 -0.48154769223E+01  0.69481009336E+01  0.00000000000E+00 0. -1.
<mgrwt>
<rscale>  0 0.50087213E+01</rscale>
<asrwt>0</asrwt>
<pdfrwt beam="1">0</pdfrwt>
<pdfrwt beam="2">0</pdfrwt>
<totfact> 0.34808239E+11</totfact>
</mgrwt>
</event>
<event>
 4    2  0.2093759E+006  0.2539950E+01  0.7546771E-02  0.2691175E+00
         22   -1    0    0    0    0  0.00000000000E+00  0.00000000000E+00  0.64581600118E+00  0.64581600118E+00  0.00000000000E+00 0.  1.
         22   -1    0    0    0    0 -0.00000000000E+00 -0.00000000000E+00 -0.14534502525E+02  0.14534502525E+02  0.00000000000E+00 0. -1.
          4    1    1    2  501    0  0.17735545134E-01  0.25398876406E+01 -0.11188783949E+02  0.11473457632E+02  0.00000000000E+00 0. -1.
         -4    1    1    2    0  501 -0.17735545134E-01 -0.25398876406E+01 -0.26999025753E+01  0.37068608947E+01  0.00000000000E+00 0.  1.
<mgrwt>
<rscale>  0 0.25399496E+01</rscale>
<asrwt>0</asrwt>
<pdfrwt beam="1">0</pdfrwt>
<pdfrwt beam="2">0</pdfrwt>
<totfact> 0.16538252E+12</totfact>
</mgrwt>
</event>
<event>
 4    2  0.2093759E+006  0.2115852E+01  0.7546771E-02  0.2906687E+00
         22   -1    0    0    0    0  0.00000000000E+00  0.00000000000E+00  0.33262138278E+02  0.33262138278E+02  0.00000000000E+00 0. -1.
         22   -1    0    0    0    0 -0.00000000000E+00 -0.00000000000E+00 -0.20015869629E+00  0.20015869629E+00  0.00000000000E+00 0.  1.
          4    1    1    2  501    0 -0.16525212309E+01  0.13213634154E+01  0.69550991242E+01  0.72698164710E+01  0.00000000000E+00 0. -1.
         -4    1    1    2    0  501  0.16525212309E+01 -0.13213634154E+01  0.26106880457E+02  0.26192480503E+02  0.00000000000E+00 0.  1.
<mgrwt>
<rscale>  0 0.21158515E+01</rscale>
<asrwt>0</asrwt>
<pdfrwt beam="1">0</pdfrwt>
<pdfrwt beam="2">0</pdfrwt>
<totfact> 0.21855313E+12</totfact>
</mgrwt>
</event>
<event>
 4    2  0.2093759E+006  0.2299926E+01  0.7546771E-02  0.2803897E+00
         22   -1    0    0    0    0  0.00000000000E+00  0.00000000000E+00  0.46200435658E+02  0.46200435658E+02  0.00000000000E+00 0.  1.
         22   -1    0    0    0    0 -0.00000000000E+00 -0.00000000000E+00 -0.12262409507E+00  0.12262409507E+00  0.00000000000E+00 0. -1.
          4    1    1    2  501    0 -0.16485388990E+01  0.16037392005E+01  0.17074948545E+02  0.17229147621E+02  0.00000000000E+00 0. -1.
         -4    1    1    2    0  501  0.16485388990E+01 -0.16037392005E+01  0.29002863018E+02  0.29093912132E+02  0.00000000000E+00 0.  1.
<mgrwt>
<rscale>  0 0.22999261E+01</rscale>
<asrwt>0</asrwt>
<pdfrwt beam="1">0</pdfrwt>
<pdfrwt beam="2">0</pdfrwt>
<totfact> 0.24621853E+12</totfact>
</mgrwt>
</event>
<event>
 4    2  0.2093759E+006  0.5114234E+01  0.7546771E-02  0.2109610E+00
         22   -1    0    0    0    0  0.00000000000E+00  0.00000000000E+00  0.54505469507E+01  0.54505469507E+01  0.00000000000E+00 0.  1.
         22   -1    0    0    0    0 -0.00000000000E+00 -0.00000000000E+00 -0.50809311374E+01  0.50809311374E+01  0.00000000000E+00 0. -1.
          4    1    1    2  501    0 -0.45638428166E+01  0.23079710754E+01 -0.10563042217E+01  0.52221806124E+01  0.00000000000E+00 0.  1.
         -4    1    1    2    0  501  0.45638428166E+01 -0.23079710754E+01  0.14259200350E+01  0.53092974757E+01  0.00000000000E+00 0. -1.
<mgrwt>
<rscale>  0 0.51142342E+01</rscale>
<asrwt>0</asrwt>
<pdfrwt beam="1">0</pdfrwt>
<pdfrwt beam="2">0</pdfrwt>
<totfact> 0.49718617E+11</totfact>
</mgrwt>
</event>
<event>
 4    2  0.2093759E+006  0.2120114E+01  0.7546771E-02  0.2904113E+00
         22   -1    0    0    0    0  0.00000000000E+00  0.00000000000E+00  0.32034863730E+02  0.32034863730E+02  0.00000000000E+00 0. -1.
         22   -1    0    0    0    0 -0.00000000000E+00 -0.00000000000E+00 -0.14080236743E+00  0.14080236743E+00  0.00000000000E+00 0.  1.
          4    1    1    2  501    0  0.21200828713E+01 -0.11476005621E-01  0.14997841628E+02  0.15146951395E+02  0.00000000000E+00 0.  1.
         -4    1    1    2    0  501 -0.21200828713E+01  0.11476005621E-01  0.16896219735E+02  0.17028714703E+02  0.00000000000E+00 0. -1.
<mgrwt>
<rscale>  0 0.21201139E+01</rscale>
<asrwt>0</asrwt>
<pdfrwt beam="1">0</pdfrwt>
<pdfrwt beam="2">0</pdfrwt>
<totfact> 0.33926693E+12</totfact>
</mgrwt>
</event>
<event>
 4    2  0.2093759E+006  0.2243239E+01  0.7546771E-02  0.2833831E+00
         22   -1    0    0    0    0  0.00000000000E+00  0.00000000000E+00  0.22566416528E+01  0.22566416528E+01  0.00000000000E+00 0.  1.
         22   -1    0    0    0    0 -0.00000000000E+00 -0.00000000000E+00 -0.51991198350E+01  0.51991198350E+01  0.00000000000E+00 0. -1.
          4    1    1    2  501    0  0.19485514542E+01 -0.11114264675E+01 -0.42884353024E+01  0.48397106221E+01  0.00000000000E+00 0. -1.
         -4    1    1    2    0  501 -0.19485514542E+01  0.11114264675E+01  0.13459571202E+01  0.26160508657E+01  0.00000000000E+00 0.  1.
<mgrwt>
<rscale>  0 0.22432391E+01</rscale>
<asrwt>0</asrwt>
<pdfrwt beam="1">0</pdfrwt>
<pdfrwt beam="2">0</pdfrwt>
<totfact> 0.13611792E+12</totfact>
</mgrwt>
</event>
<event>
 4    2  0.2093759E+006  0.4290532E+01  0.7546771E-02  0.2224976E+00
         22   -1    0    0    0    0  0.00000000000E+00  0.00000000000E+00  0.46226558346E+02  0.46226558346E+02  0.00000000000E+00 0.  1.
         22   -1    0    0    0    0 -0.00000000000E+00 -0.00000000000E+00 -0.39895965782E+00  0.39895965782E+00  0.00000000000E+00 0. -1.
          4    1    1    2  501    0  0.30237802487E+00  0.42798637014E+01  0.21914797778E+02  0.22330853711E+02  0.00000000000E+00 0. -1.
         -4    1    1    2    0  501 -0.30237802487E+00 -0.42798637014E+01  0.23912800910E+02  0.24294664293E+02  0.00000000000E+00 0.  1.
<mgrwt>
<rscale>  0 0.42905321E+01</rscale>
<asrwt>0</asrwt>
<pdfrwt beam="1">0</pdfrwt>
<pdfrwt beam="2">0</pdfrwt>
<totfact> 0.65868072E+11</totfact>
</mgrwt>
</event>
<event>
 4    2  0.2093759E+006  0.2287998E+01  0.7546771E-02  0.2810079E+00
         22   -1    0    0    0    0  0.00000000000E+00  0.00000000000E+00  0.34763708840E+01  0.34763708840E+01  0.00000000000E+00 0. -1.
         22   -1    0    0    0    0 -0.00000000000E+00 -0.00000000000E+00 -0.20091446947E+01  0.20091446947E+01  0.00000000000E+00 0.  1.
          4    1    1    2  501    0  0.15545813061E+01  0.16787526757E+01 -0.63912599578E+00  0.23755874267E+01  0.00000000000E+00 0.  1.
         -4    1    1    2    0  501 -0.15545813061E+01 -0.16787526757E+01  0.21063521850E+01  0.31099281520E+01  0.00000000000E+00 0. -1.
<mgrwt>
<rscale>  0 0.22879977E+01</rscale>
<asrwt>0</asrwt>
<pdfrwt beam="1">0</pdfrwt>
<pdfrwt beam="2">0</pdfrwt>
<totfact> 0.25028955E+12</totfact>
</mgrwt>
</event>
<event>
 4    2  0.2093759E+006  0.2387142E+01  0.7546771E-02  0.2760478E+00
         22   -1    0    0    0    0  0.00000000000E+00  0.00000000000E+00  0.10368853305E+02  0.10368853305E+02  0.00000000000E+00 0. -1.
         22   -1    0    0    0    0 -0.00000000000E+00 -0.00000000000E+00 -0.10341054325E+01  0.10341054325E+01  0.00000000000E+00 0.  1.
          4    1    1    2  501    0  0.20485318539E+01  0.12255464824E+01  0.76466329920E+00  0.25066226079E+01  0.00000000000E+00 0.  1.
         -4    1    1    2    0  501 -0.20485318539E+01 -0.12255464824E+01  0.85700845736E+01  0.88963361298E+01  0.00000000000E+00 0. -1.
<mgrwt>
<rscale>  0 0.23871420E+01</rscale>
<asrwt>0</asrwt>
<pdfrwt beam="1">0</pdfrwt>
<pdfrwt beam="2">0</pdfrwt>
<totfact> 0.14615588E+12</totfact>
</mgrwt>
</event>
<event>
 4    2  0.2093759E+006  0.2840571E+01  0.7546771E-02  0.2575095E+00
         22   -1    0    0    0    0  0.00000000000E+00  0.00000000000E+00  0.76358614318E+00  0.76358614318E+00  0.00000000000E+00 0. -1.
         22   -1    0    0    0    0 -0.00000000000E+00 -0.00000000000E+00 -0.36590066168E+02  0.36590066168E+02  0.00000000000E+00 0.  1.
          4    1    1    2  501    0 -0.27407236952E+01  0.74651159691E+00 -0.33663958572E+02  0.33783589991E+02  0.00000000000E+00 0.  1.
         -4    1    1    2    0  501  0.27407236952E+01 -0.74651159691E+00 -0.21625214532E+01  0.35700623206E+01  0.00000000000E+00 0. -1.
<mgrwt>
<rscale>  0 0.28405714E+01</rscale>
<asrwt>0</asrwt>
<pdfrwt beam="1">0</pdfrwt>
<pdfrwt beam="2">0</pdfrwt>
<totfact> 0.42838948E+11</totfact>
</mgrwt>
</event>
<event>
 4    2  0.2093759E+006  0.2026741E+01  0.7546771E-02  0.2962905E+00
         22   -1    0    0    0    0  0.00000000000E+00  0.00000000000E+00  0.23988882877E+00  0.23988882877E+00  0.00000000000E+00 0. -1.
         22   -1    0    0    0    0 -0.00000000000E+00 -0.00000000000E+00 -0.17197305395E+02  0.17197305395E+02  0.00000000000E+00 0.  1.
          4    1    1    2  501    0  0.20188301240E+01 -0.17889857561E+00 -0.90507838632E+01  0.92749322536E+01  0.00000000000E+00 0.  1.
         -4    1    1    2    0  501 -0.20188301240E+01  0.17889857561E+00 -0.79066327032E+01  0.81622619704E+01  0.00000000000E+00 0. -1.
<mgrwt>
<rscale>  0 0.20267412E+01</rscale>
<asrwt>0</asrwt>
<pdfrwt beam="1">0</pdfrwt>
<pdfrwt beam="2">0</pdfrwt>
<totfact> 0.40965446E+12</totfact>
</mgrwt>
</event>
<event>
 4    2  0.2093759E+006  0.2254255E+01  0.7546771E-02  0.2827902E+00
         22   -1    0    0    0    0  0.00000000000E+00  0.00000000000E+00  0.23764521176E+02  0.23764521176E+02  0.00000000000E+00 0.  1.
         22   -1    0    0    0    0 -0.00000000000E+00 -0.00000000000E+00 -0.58200273917E+00  0.58200273917E+00  0.00000000000E+00 0. -1.
          4    1    1    2  501    0  0.49322749177E+00  0.21996345971E+01  0.19091978363E+01  0.29540992024E+01  0.00000000000E+00 0. -1.
         -4    1    1    2    0  501 -0.49322749177E+00 -0.21996345971E+01  0.21273320600E+02  0.21392424713E+02  0.00000000000E+00 0.  1.
<mgrwt>
<rscale>  0 0.22542550E+01</rscale>
<asrwt>0</asrwt>
<pdfrwt beam="1">0</pdfrwt>
<pdfrwt beam="2">0</pdfrwt>
<totfact> 0.10098692E+12</totfact>
</mgrwt>
</event>
<event>
 4    2  0.2093759E+006  0.6832407E+01  0.7546771E-02  0.1952204E+00
         22   -1    0    0    0    0  0.00000000000E+00  0.00000000000E+00  0.12769342084E+02  0.12769342084E+02  0.00000000000E+00 0.  1.
         22   -1    0    0    0    0 -0.00000000000E+00 -0.00000000000E+00 -0.58673256130E+01  0.58673256130E+01  0.00000000000E+00 0. -1.
          4    1    1    2  501    0 -0.34240549985E+01 -0.59124975592E+01 -0.22699277113E+01  0.71996077556E+01  0.00000000000E+00 0. -1.
         -4    1    1    2    0  501  0.34240549985E+01  0.59124975592E+01  0.91719441819E+01  0.11437059941E+02  0.00000000000E+00 0.  1.
<mgrwt>
<rscale>  0 0.68324066E+01</rscale>
<asrwt>0</asrwt>
<pdfrwt beam="1">0</pdfrwt>
<pdfrwt beam="2">0</pdfrwt>
<totfact> 0.15042246E+11</totfact>
</mgrwt>
</event>
<event>
 4    2  0.2093759E+006  0.2385927E+01  0.7546771E-02  0.2761062E+00
         22   -1    0    0    0    0  0.00000000000E+00  0.00000000000E+00  0.14024982945E+02  0.14024982945E+02  0.00000000000E+00 0. -1.
         22   -1    0    0    0    0 -0.00000000000E+00 -0.00000000000E+00 -0.24518569251E+01  0.24518569251E+01  0.00000000000E+00 0.  1.
          4    1    1    2  501    0 -0.15005804829E+01  0.18549677493E+01 -0.17391094664E+01  0.29524818158E+01  0.00000000000E+00 0.  1.
         -4    1    1    2    0  501  0.15005804829E+01 -0.18549677493E+01  0.13312235486E+02  0.13524358054E+02  0.00000000000E+00 0. -1.
<mgrwt>
<rscale>  0 0.23859269E+01</rscale>
<asrwt>0</asrwt>
<pdfrwt beam="1">0</pdfrwt>
<pdfrwt beam="2">0</pdfrwt>
<totfact> 0.37396604E+11</totfact>
</mgrwt>
</event>
<event>
 4    2  0.2093759E+006  0.2269281E+01  0.7546771E-02  0.2819903E+00
         22   -1    0    0    0    0  0.00000000000E+00  0.00000000000E+00  0.60221694759E+01  0.60221694759E+01  0.00000000000E+00 0. -1.
         22   -1    0    0    0    0 -0.00000000000E+00 -0.00000000000E+00 -0.31500750741E+01  0.31500750741E+01  0.00000000000E+00 0.  1.
          4    1    1    2  501    0  0.19845611184E+01  0.11005241110E+01 -0.24784223781E+01  0.33603889114E+01  0.00000000000E+00 0.  1.
         -4    1    1    2    0  501 -0.19845611184E+01 -0.11005241110E+01  0.53505167799E+01  0.58118556386E+01  0.00000000000E+00 0. -1.
<mgrwt>
<rscale>  0 0.22692810E+01</rscale>
<asrwt>0</asrwt>
<pdfrwt beam="1">0</pdfrwt>
<pdfrwt beam="2">0</pdfrwt>
<totfact> 0.77508047E+11</totfact>
</mgrwt>
</event>
<event>
 4    2  0.2093759E+006  0.2095155E+01  0.7546771E-02  0.2919329E+00
         22   -1    0    0    0    0  0.00000000000E+00  0.00000000000E+00  0.87725677093E+01  0.87725677093E+01  0.00000000000E+00 0. -1.
         22   -1    0    0    0    0 -0.00000000000E+00 -0.00000000000E+00 -0.50173482023E+00  0.50173482023E+00  0.00000000000E+00 0.  1.
          4    1    1    2  501    0  0.20949045466E+01  0.32370914676E-01  0.38950142056E+01  0.44227602916E+01  0.00000000000E+00 0. -1.
         -4    1    1    2    0  501 -0.20949045466E+01 -0.32370914676E-01  0.43758186834E+01  0.48515422379E+01  0.00000000000E+00 0.  1.
<mgrwt>
<rscale>  0 0.20951546E+01</rscale>
<asrwt>0</asrwt>
<pdfrwt beam="1">0</pdfrwt>
<pdfrwt beam="2">0</pdfrwt>
<totfact> 0.40671269E+12</totfact>
</mgrwt>
</event>
<event>
 4    2  0.2093759E+006  0.2608212E+01  0.7546771E-02  0.2662663E+00
         22   -1    0    0    0    0  0.00000000000E+00  0.00000000000E+00  0.22878357881E+01  0.22878357881E+01  0.00000000000E+00 0.  1.
         22   -1    0    0    0    0 -0.00000000000E+00 -0.00000000000E+00 -0.57415550660E+01  0.57415550660E+01  0.00000000000E+00 0. -1.
          4    1    1    2  501    0  0.25465112371E+01  0.56395816617E+00 -0.45144504187E+01  0.52137348299E+01  0.00000000000E+00 0. -1.
         -4    1    1    2    0  501 -0.25465112371E+01 -0.56395816617E+00  0.10607311408E+01  0.28156560242E+01  0.00000000000E+00 0.  1.
<mgrwt>
<rscale>  0 0.26082117E+01</rscale>
<asrwt>0</asrwt>
<pdfrwt beam="1">0</pdfrwt>
<pdfrwt beam="2">0</pdfrwt>
<totfact> 0.11908314E+12</totfact>
</mgrwt>
</event>
<event>
 4    2  0.2093759E+006  0.2390027E+01  0.7546771E-02  0.2759093E+00
         22   -1    0    0    0    0  0.00000000000E+00  0.00000000000E+00  0.91552165011E+00  0.91552165011E+00  0.00000000000E+00 0.  1.
         22   -1    0    0    0    0 -0.00000000000E+00 -0.00000000000E+00 -0.73494510031E+01  0.73494510031E+01  0.00000000000E+00 0. -1.
          4    1    1    2  501    0  0.88698890592E+00  0.22193426241E+01 -0.48230603808E+01  0.53827634575E+01  0.00000000000E+00 0. -1.
         -4    1    1    2    0  501 -0.88698890592E+00 -0.22193426241E+01 -0.16108689722E+01  0.28822091957E+01  0.00000000000E+00 0.  1.
<mgrwt>
<rscale>  0 0.23900274E+01</rscale>
<asrwt>0</asrwt>
<pdfrwt beam="1">0</pdfrwt>
<pdfrwt beam="2">0</pdfrwt>
<totfact> 0.25428912E+12</totfact>
</mgrwt>
</event>
<event>
 4    2  0.2093759E+006  0.3030255E+01  0.7546771E-02  0.2512705E+00
         22   -1    0    0    0    0  0.00000000000E+00  0.00000000000E+00  0.17628567644E+00  0.17628567644E+00  0.00000000000E+00 0. -1.
         22   -1    0    0    0    0 -0.00000000000E+00 -0.00000000000E+00 -0.53847139281E+02  0.53847139281E+02  0.00000000000E+00 0.  1.
          4    1    1    2  501    0  0.30299111193E+01  0.45663893147E-01 -0.21953782834E+02  0.22161927427E+02  0.00000000000E+00 0. -1.
         -4    1    1    2    0  501 -0.30299111193E+01 -0.45663893147E-01 -0.31717070771E+02  0.31861497530E+02  0.00000000000E+00 0.  1.
<mgrwt>
<rscale>  0 0.30302552E+01</rscale>
<asrwt>0</asrwt>
<pdfrwt beam="1">0</pdfrwt>
<pdfrwt beam="2">0</pdfrwt>
<totfact> 0.13439793E+12</totfact>
</mgrwt>
</event>
<event>
 4    2  0.2093759E+006  0.2134958E+01  0.7546771E-02  0.2895226E+00
         22   -1    0    0    0    0  0.00000000000E+00  0.00000000000E+00  0.17052413424E+01  0.17052413424E+01  0.00000000000E+00 0.  1.
         22   -1    0    0    0    0 -0.00000000000E+00 -0.00000000000E+00 -0.45956741274E+01  0.45956741274E+01  0.00000000000E+00 0. -1.
          4    1    1    2  501    0 -0.14991079538E+01 -0.15201053620E+01 -0.34829912526E+01  0.40852506697E+01  0.00000000000E+00 0. -1.
         -4    1    1    2    0  501  0.14991079538E+01  0.15201053620E+01  0.59255846758E+00  0.22156648001E+01  0.00000000000E+00 0.  1.
<mgrwt>
<rscale>  0 0.21349578E+01</rscale>
<asrwt>0</asrwt>
<pdfrwt beam="1">0</pdfrwt>
<pdfrwt beam="2">0</pdfrwt>
<totfact> 0.21781350E+12</totfact>
</mgrwt>
</event>
<event>
 4    2  0.2093759E+006  0.2656062E+01  0.7546771E-02  0.2643485E+00
         22   -1    0    0    0    0  0.00000000000E+00  0.00000000000E+00  0.10407973430E+02  0.10407973430E+02  0.00000000000E+00 0.  1.
         22   -1    0    0    0    0 -0.00000000000E+00 -0.00000000000E+00 -0.17792120394E+01  0.17792120394E+01  0.00000000000E+00 0. -1.
          4    1    1    2  501    0  0.20242842348E+01 -0.17195758473E+01 -0.47999170284E+00  0.26990849918E+01  0.00000000000E+00 0. -1.
         -4    1    1    2    0  501 -0.20242842348E+01  0.17195758473E+01  0.91087530930E+01  0.94881004773E+01  0.00000000000E+00 0.  1.
<mgrwt>
<rscale>  0 0.26560625E+01</rscale>
<asrwt>0</asrwt>
<pdfrwt beam="1">0</pdfrwt>
<pdfrwt beam="2">0</pdfrwt>
<totfact> 0.78017687E+11</totfact>
</mgrwt>
</event>
<event>
 4    2  0.2093759E+006  0.2228361E+01  0.7546771E-02  0.2841928E+00
         22   -1    0    0    0    0  0.00000000000E+00  0.00000000000E+00  0.20197444290E+00  0.20197444290E+00  0.00000000000E+00 0.  1.
         22   -1    0    0    0    0 -0.00000000000E+00 -0.00000000000E+00 -0.35204505256E+02  0.35204505256E+02  0.00000000000E+00 0. -1.
          4    1    1    2  501    0  0.96396257707E+00 -0.20090714402E+01 -0.27224274415E+02  0.27315320048E+02  0.00000000000E+00 0. -1.
         -4    1    1    2    0  501 -0.96396257707E+00  0.20090714402E+01 -0.77782563978E+01  0.80911596506E+01  0.00000000000E+00 0.  1.
<mgrwt>
<rscale>  0 0.22283608E+01</rscale>
<asrwt>0</asrwt>
<pdfrwt beam="1">0</pdfrwt>
<pdfrwt beam="2">0</pdfrwt>
<totfact> 0.20115442E+12</totfact>
</mgrwt>
</event>
<event>
 4    2  0.2093759E+006  0.2251481E+01  0.7546771E-02  0.2829389E+00
         22   -1    0    0    0    0  0.00000000000E+00  0.00000000000E+00  0.23830957453E+01  0.23830957453E+01  0.00000000000E+00 0.  1.
         22   -1    0    0    0    0 -0.00000000000E+00 -0.00000000000E+00 -0.22022201223E+01  0.22022201223E+01  0.00000000000E+00 0. -1.
          4    1    1    2  501    0  0.19790981908E+01  0.10734698219E+01 -0.33289794131E+00  0.22759587313E+01  0.00000000000E+00 0. -1.
         -4    1    1    2    0  501 -0.19790981908E+01 -0.10734698219E+01  0.51377356429E+00  0.23093571363E+01  0.00000000000E+00 0.  1.
<mgrwt>
<rscale>  0 0.22514811E+01</rscale>
<asrwt>0</asrwt>
<pdfrwt beam="1">0</pdfrwt>
<pdfrwt beam="2">0</pdfrwt>
<totfact> 0.34966318E+12</totfact>
</mgrwt>
</event>
<event>
 4    2  0.2093759E+006  0.3382581E+01  0.7546771E-02  0.2413555E+00
         22   -1    0    0    0    0  0.00000000000E+00  0.00000000000E+00  0.26134404886E+01  0.26134404886E+01  0.00000000000E+00 0.  1.
         22   -1    0    0    0    0 -0.00000000000E+00 -0.00000000000E+00 -0.44623161168E+01  0.44623161168E+01  0.00000000000E+00 0. -1.
          4    1    1    2  501    0  0.26039462571E+01 -0.21590089541E+01 -0.43835786027E+00  0.34108669554E+01  0.00000000000E+00 0. -1.
         -4    1    1    2    0  501 -0.26039462571E+01  0.21590089541E+01 -0.14105177680E+01  0.36648896501E+01  0.00000000000E+00 0.  1.
<mgrwt>
<rscale>  0 0.33825812E+01</rscale>
<asrwt>0</asrwt>
<pdfrwt beam="1">0</pdfrwt>
<pdfrwt beam="2">0</pdfrwt>
<totfact> 0.13751016E+12</totfact>
</mgrwt>
</event>
<event>
 4    2  0.2093759E+006  0.2166911E+01  0.7546771E-02  0.2876496E+00
         22   -1    0    0    0    0  0.00000000000E+00  0.00000000000E+00  0.31284180788E+01  0.31284180788E+01  0.00000000000E+00 0. -1.
         22   -1    0    0    0    0 -0.00000000000E+00 -0.00000000000E+00 -0.16344539123E+01  0.16344539123E+01  0.00000000000E+00 0.  1.
          4    1    1    2  501    0  0.63672525533E+00 -0.20712522438E+01  0.66293376770E-01  0.21679252109E+01  0.00000000000E+00 0. -1.
         -4    1    1    2    0  501 -0.63672525533E+00  0.20712522438E+01  0.14276707898E+01  0.25949467802E+01  0.00000000000E+00 0.  1.
<mgrwt>
<rscale>  0 0.21669114E+01</rscale>
<asrwt>0</asrwt>
<pdfrwt beam="1">0</pdfrwt>
<pdfrwt beam="2">0</pdfrwt>
<totfact> 0.35941876E+12</totfact>
</mgrwt>
</event>
<event>
 4    2  0.2093759E+006  0.6489293E+01  0.7546771E-02  0.1978400E+00
         22   -1    0    0    0    0  0.00000000000E+00  0.00000000000E+00  0.26329357498E+01  0.26329357498E+01  0.00000000000E+00 0.  1.
         22   -1    0    0    0    0 -0.00000000000E+00 -0.00000000000E+00 -0.16687778606E+02  0.16687778606E+02  0.00000000000E+00 0. -1.
          4    1    1    2  501    0  0.60385649162E+01  0.23762691640E+01 -0.50575655884E+01  0.82273866487E+01  0.00000000000E+00 0. -1.
         -4    1    1    2    0  501 -0.60385649162E+01 -0.23762691640E+01 -0.89972772682E+01  0.11093327708E+02  0.00000000000E+00 0.  1.
<mgrwt>
<rscale>  0 0.64892928E+01</rscale>
<asrwt>0</asrwt>
<pdfrwt beam="1">0</pdfrwt>
<pdfrwt beam="2">0</pdfrwt>
<totfact> 0.27787905E+11</totfact>
</mgrwt>
</event>
<event>
 4    2  0.2093759E+006  0.2256717E+01  0.7546771E-02  0.2826584E+00
         22   -1    0    0    0    0  0.00000000000E+00  0.00000000000E+00  0.96381058091E+00  0.96381058091E+00  0.00000000000E+00 0.  1.
         22   -1    0    0    0    0 -0.00000000000E+00 -0.00000000000E+00 -0.62516280810E+02  0.62516280810E+02  0.00000000000E+00 0. -1.
          4    1    1    2  501    0  0.14382176452E+01 -0.17390525251E+01 -0.61145306575E+02  0.61186937248E+02  0.00000000000E+00 0. -1.
         -4    1    1    2    0  501 -0.14382176452E+01  0.17390525251E+01 -0.40716365391E+00  0.22931541424E+01  0.00000000000E+00 0.  1.
<mgrwt>
<rscale>  0 0.22567175E+01</rscale>
<asrwt>0</asrwt>
<pdfrwt beam="1">0</pdfrwt>
<pdfrwt beam="2">0</pdfrwt>
<totfact> 0.16243160E+11</totfact>
</mgrwt>
</event>
<event>
 4    2  0.2093759E+006  0.2762911E+01  0.7546771E-02  0.2602865E+00
         22   -1    0    0    0    0  0.00000000000E+00  0.00000000000E+00  0.18417116306E+02  0.18417116306E+02  0.00000000000E+00 0. -1.
         22   -1    0    0    0    0 -0.00000000000E+00 -0.00000000000E+00 -0.65953497836E+01  0.65953497836E+01  0.00000000000E+00 0.  1.
          4    1    1    2  501    0  0.20041701060E+01 -0.19018362844E+01 -0.61959930733E+01  0.67840997362E+01  0.00000000000E+00 0.  1.
         -4    1    1    2    0  501 -0.20041701060E+01  0.19018362844E+01  0.18017759596E+02  0.18228366354E+02  0.00000000000E+00 0. -1.
<mgrwt>
<rscale>  0 0.27629113E+01</rscale>
<asrwt>0</asrwt>
<pdfrwt beam="1">0</pdfrwt>
<pdfrwt beam="2">0</pdfrwt>
<totfact> 0.83334872E+10</totfact>
</mgrwt>
</event>
<event>
 4    2  0.2093759E+006  0.2123729E+01  0.7546771E-02  0.2901937E+00
         22   -1    0    0    0    0  0.00000000000E+00  0.00000000000E+00  0.42999474207E+01  0.42999474207E+01  0.00000000000E+00 0.  1.
         22   -1    0    0    0    0 -0.00000000000E+00 -0.00000000000E+00 -0.24297281464E+01  0.24297281464E+01  0.00000000000E+00 0. -1.
          4    1    1    2  501    0 -0.21169083949E+01 -0.17007049090E+00 -0.16015063742E+01  0.26598961992E+01  0.00000000000E+00 0. -1.
         -4    1    1    2    0  501  0.21169083949E+01  0.17007049090E+00  0.34717256485E+01  0.40697793678E+01  0.00000000000E+00 0.  1.
<mgrwt>
<rscale>  0 0.21237291E+01</rscale>
<asrwt>0</asrwt>
<pdfrwt beam="1">0</pdfrwt>
<pdfrwt beam="2">0</pdfrwt>
<totfact> 0.15635597E+12</totfact>
</mgrwt>
</event>
<event>
 4    2  0.2093759E+006  0.3550613E+01  0.7546771E-02  0.2372418E+00
         22   -1    0    0    0    0  0.00000000000E+00  0.00000000000E+00  0.16194121294E+02  0.16194121294E+02  0.00000000000E+00 0.  1.
         22   -1    0    0    0    0 -0.00000000000E+00 -0.00000000000E+00 -0.12772143359E+01  0.12772143359E+01  0.00000000000E+00 0. -1.
          4    1    1    2  501    0  0.32673889754E+01 -0.13896133436E+01  0.19996515501E+01  0.40749800347E+01  0.00000000000E+00 0. -1.
         -4    1    1    2    0  501 -0.32673889754E+01  0.13896133436E+01  0.12917255408E+02  0.13396355595E+02  0.00000000000E+00 0.  1.
<mgrwt>
<rscale>  0 0.35506135E+01</rscale>
<asrwt>0</asrwt>
<pdfrwt beam="1">0</pdfrwt>
<pdfrwt beam="2">0</pdfrwt>
<totfact> 0.66526802E+11</totfact>
</mgrwt>
</event>
<event>
 4    2  0.2093759E+006  0.5213954E+01  0.7546771E-02  0.2098299E+00
         22   -1    0    0    0    0  0.00000000000E+00  0.00000000000E+00  0.89584380244E+01  0.89584380244E+01  0.00000000000E+00 0. -1.
         22   -1    0    0    0    0 -0.00000000000E+00 -0.00000000000E+00 -0.91386309321E+01  0.91386309321E+01  0.00000000000E+00 0.  1.
          4    1    1    2  501    0  0.43497408289E+01  0.28749035542E+01 -0.74852276222E+01  0.91221679595E+01  0.00000000000E+00 0.  1.
         -4    1    1    2    0  501 -0.43497408289E+01 -0.28749035542E+01  0.73050347146E+01  0.89749009970E+01  0.00000000000E+00 0. -1.
<mgrwt>
<rscale>  0 0.52139539E+01</rscale>
<asrwt>0</asrwt>
<pdfrwt beam="1">0</pdfrwt>
<pdfrwt beam="2">0</pdfrwt>
<totfact> 0.13603424E+11</totfact>
</mgrwt>
</event>
<event>
 4    2  0.2093759E+006  0.2136827E+01  0.7546771E-02  0.2894116E+00
         22   -1    0    0    0    0  0.00000000000E+00  0.00000000000E+00  0.46026644439E+01  0.46026644439E+01  0.00000000000E+00 0.  1.
         22   -1    0    0    0    0 -0.00000000000E+00 -0.00000000000E+00 -0.11254826348E+01  0.11254826348E+01  0.00000000000E+00 0. -1.
          4    1    1    2  501    0 -0.11673644762E+01 -0.17897737842E+01  0.75239978943E+00  0.22654216963E+01  0.00000000000E+00 0. -1.
         -4    1    1    2    0  501  0.11673644762E+01  0.17897737842E+01  0.27247820197E+01  0.34627253824E+01  0.00000000000E+00 0.  1.
<mgrwt>
<rscale>  0 0.21368271E+01</rscale>
<asrwt>0</asrwt>
<pdfrwt beam="1">0</pdfrwt>
<pdfrwt beam="2">0</pdfrwt>
<totfact> 0.35044550E+12</totfact>
</mgrwt>
</event>
<event>
 4    2  0.2093759E+006  0.2343245E+01  0.7546771E-02  0.2781950E+00
         22   -1    0    0    0    0  0.00000000000E+00  0.00000000000E+00  0.23739316063E+00  0.23739316063E+00  0.00000000000E+00 0.  1.
         22   -1    0    0    0    0 -0.00000000000E+00 -0.00000000000E+00 -0.28519726075E+02  0.28519726075E+02  0.00000000000E+00 0. -1.
          4    1    1    2  501    0  0.11609279255E+01 -0.20354473237E+01 -0.78902490150E+01  0.82308461883E+01  0.00000000000E+00 0.  1.
         -4    1    1    2    0  501 -0.11609279255E+01  0.20354473237E+01 -0.20392083899E+02  0.20526273047E+02  0.00000000000E+00 0. -1.
<mgrwt>
<rscale>  0 0.23432455E+01</rscale>
<asrwt>0</asrwt>
<pdfrwt beam="1">0</pdfrwt>
<pdfrwt beam="2">0</pdfrwt>
<totfact> 0.21984131E+12</totfact>
</mgrwt>
</event>
<event>
 4    2  0.2093759E+006  0.3065870E+01  0.7546771E-02  0.2501766E+00
         22   -1    0    0    0    0  0.00000000000E+00  0.00000000000E+00  0.93931618941E+02  0.93931618941E+02  0.00000000000E+00 0. -1.
         22   -1    0    0    0    0 -0.00000000000E+00 -0.00000000000E+00 -0.10016449053E+00  0.10016449053E+00  0.00000000000E+00 0.  1.
          4    1    1    2  501    0  0.23083932791E+01  0.20176418194E+01  0.48374270226E+02  0.48471327380E+02  0.00000000000E+00 0.  1.
         -4    1    1    2    0  501 -0.23083932791E+01 -0.20176418194E+01  0.45457184224E+02  0.45560456052E+02  0.00000000000E+00 0. -1.
<mgrwt>
<rscale>  0 0.30658699E+01</rscale>
<asrwt>0</asrwt>
<pdfrwt beam="1">0</pdfrwt>
<pdfrwt beam="2">0</pdfrwt>
<totfact> 0.11813265E+12</totfact>
</mgrwt>
</event>
<event>
 4    2  0.2093759E+006  0.3909920E+01  0.7546771E-02  0.2294851E+00
         22   -1    0    0    0    0  0.00000000000E+00  0.00000000000E+00  0.35902275393E+02  0.35902275393E+02  0.00000000000E+00 0.  1.
         22   -1    0    0    0    0 -0.00000000000E+00 -0.00000000000E+00 -0.46279404051E+00  0.46279404051E+00  0.00000000000E+00 0. -1.
          4    1    1    2  501    0  0.29616267070E+01 -0.25526930065E+01  0.12579543814E+02  0.13173169585E+02  0.00000000000E+00 0. -1.
         -4    1    1    2    0  501 -0.29616267070E+01  0.25526930065E+01  0.22859937538E+02  0.23191899848E+02  0.00000000000E+00 0.  1.
<mgrwt>
<rscale>  0 0.39099200E+01</rscale>
<asrwt>0</asrwt>
<pdfrwt beam="1">0</pdfrwt>
<pdfrwt beam="2">0</pdfrwt>
<totfact> 0.77392761E+11</totfact>
</mgrwt>
</event>
<event>
 4    2  0.2093759E+006  0.2669856E+01  0.7546771E-02  0.2638074E+00
         22   -1    0    0    0    0  0.00000000000E+00  0.00000000000E+00  0.30889538021E+02  0.30889538021E+02  0.00000000000E+00 0. -1.
         22   -1    0    0    0    0 -0.00000000000E+00 -0.00000000000E+00 -0.23910438470E+00  0.23910438470E+00  0.00000000000E+00 0.  1.
          4    1    1    2  501    0 -0.26687551840E+01  0.76667700015E-01  0.12417975922E+02  0.12701742328E+02  0.00000000000E+00 0. -1.
         -4    1    1    2    0  501  0.26687551840E+01 -0.76667700015E-01  0.18232457715E+02  0.18426900078E+02  0.00000000000E+00 0.  1.
<mgrwt>
<rscale>  0 0.26698562E+01</rscale>
<asrwt>0</asrwt>
<pdfrwt beam="1">0</pdfrwt>
<pdfrwt beam="2">0</pdfrwt>
<totfact> 0.19700820E+12</totfact>
</mgrwt>
</event>
<event>
 4    2  0.2093759E+006  0.2126428E+01  0.7546771E-02  0.2900318E+00
         22   -1    0    0    0    0  0.00000000000E+00  0.00000000000E+00  0.82150993321E+00  0.82150993321E+00  0.00000000000E+00 0. -1.
         22   -1    0    0    0    0 -0.00000000000E+00 -0.00000000000E+00 -0.56157483888E+01  0.56157483888E+01  0.00000000000E+00 0.  1.
          4    1    1    2  501    0  0.19516110177E+01 -0.84433947446E+00 -0.28508952282E+01  0.35565852042E+01  0.00000000000E+00 0.  1.
         -4    1    1    2    0  501 -0.19516110177E+01  0.84433947446E+00 -0.19433432274E+01  0.28806731179E+01  0.00000000000E+00 0. -1.
<mgrwt>
<rscale>  0 0.21264277E+01</rscale>
<asrwt>0</asrwt>
<pdfrwt beam="1">0</pdfrwt>
<pdfrwt beam="2">0</pdfrwt>
<totfact> 0.39655559E+12</totfact>
</mgrwt>
</event>
<event>
 4    2  0.2093759E+006  0.2868094E+01  0.7546771E-02  0.2565582E+00
         22   -1    0    0    0    0  0.00000000000E+00  0.00000000000E+00  0.23765287199E+00  0.23765287199E+00  0.00000000000E+00 0.  1.
         22   -1    0    0    0    0 -0.00000000000E+00 -0.00000000000E+00 -0.35392045288E+02  0.35392045288E+02  0.00000000000E+00 0. -1.
          4    1    1    2  501    0  0.25795481776E+01 -0.12537513128E+01 -0.20219690910E+02  0.20422092490E+02  0.00000000000E+00 0.  1.
         -4    1    1    2    0  501 -0.25795481776E+01  0.12537513128E+01 -0.14934701506E+02  0.15207605671E+02  0.00000000000E+00 0. -1.
<mgrwt>
<rscale>  0 0.28680936E+01</rscale>
<asrwt>0</asrwt>
<pdfrwt beam="1">0</pdfrwt>
<pdfrwt beam="2">0</pdfrwt>
<totfact> 0.16660531E+12</totfact>
</mgrwt>
</event>
<event>
 4    2  0.2093759E+006  0.2027708E+01  0.7546771E-02  0.2962269E+00
         22   -1    0    0    0    0  0.00000000000E+00  0.00000000000E+00  0.15870211776E+02  0.15870211776E+02  0.00000000000E+00 0.  1.
         22   -1    0    0    0    0 -0.00000000000E+00 -0.00000000000E+00 -0.29909974621E+00  0.29909974621E+00  0.00000000000E+00 0. -1.
          4    1    1    2  501    0  0.96703345436E+00  0.17822587990E+01  0.48281615683E+01  0.52366730143E+01  0.00000000000E+00 0. -1.
         -4    1    1    2    0  501 -0.96703345436E+00 -0.17822587990E+01  0.10742950462E+02  0.10932638508E+02  0.00000000000E+00 0.  1.
<mgrwt>
<rscale>  0 0.20277081E+01</rscale>
<asrwt>0</asrwt>
<pdfrwt beam="1">0</pdfrwt>
<pdfrwt beam="2">0</pdfrwt>
<totfact> 0.35339281E+12</totfact>
</mgrwt>
</event>
<event>
 4    2  0.2093759E+006  0.3533612E+01  0.7546771E-02  0.2376425E+00
         22   -1    0    0    0    0  0.00000000000E+00  0.00000000000E+00  0.13816826779E+03  0.13816826779E+03  0.00000000000E+00 0.  1.
         22   -1    0    0    0    0 -0.00000000000E+00 -0.00000000000E+00 -0.13554493844E+01  0.13554493844E+01  0.00000000000E+00 0. -1.
          4    1    1    2  501    0 -0.15380773273E+01  0.31813099498E+01  0.10102581523E+01  0.36751920216E+01  0.00000000000E+00 0. -1.
         -4    1    1    2    0  501  0.15380773273E+01 -0.31813099498E+01  0.13580256025E+03  0.13584852515E+03  0.00000000000E+00 0.  1.
<mgrwt>
<rscale>  0 0.35336122E+01</rscale>
<asrwt>0</asrwt>
<pdfrwt beam="1">0</pdfrwt>
<pdfrwt beam="2">0</pdfrwt>
<totfact> 0.36246321E+10</totfact>
</mgrwt>
</event>
<event>
 4    2  0.2093759E+006  0.2568463E+01  0.7546771E-02  0.2679096E+00
         22   -1    0    0    0    0  0.00000000000E+00  0.00000000000E+00  0.19589862047E+01  0.19589862047E+01  0.00000000000E+00 0. -1.
         22   -1    0    0    0    0 -0.00000000000E+00 -0.00000000000E+00 -0.13178907600E+02  0.13178907600E+02  0.00000000000E+00 0.  1.
          4    1    1    2  501    0  0.12762729607E+01  0.22289296949E+01 -0.12140666513E+02  0.12409382887E+02  0.00000000000E+00 0.  1.
         -4    1    1    2    0  501 -0.12762729607E+01 -0.22289296949E+01  0.92074511790E+00  0.27285109176E+01  0.00000000000E+00 0. -1.
<mgrwt>
<rscale>  0 0.25684626E+01</rscale>
<asrwt>0</asrwt>
<pdfrwt beam="1">0</pdfrwt>
<pdfrwt beam="2">0</pdfrwt>
<totfact> 0.52359122E+11</totfact>
</mgrwt>
</event>
<event>
 4    2  0.2093759E+006  0.2138403E+01  0.7546771E-02  0.2893181E+00
         22   -1    0    0    0    0  0.00000000000E+00  0.00000000000E+00  0.11161105718E+01  0.11161105718E+01  0.00000000000E+00 0.  1.
         22   -1    0    0    0    0 -0.00000000000E+00 -0.00000000000E+00 -0.54200031444E+01  0.54200031444E+01  0.00000000000E+00 0. -1.
          4    1    1    2  501    0  0.17698979685E+01 -0.12000954043E+01 -0.37665317550E+01  0.43312272233E+01  0.00000000000E+00 0. -1.
         -4    1    1    2    0  501 -0.17698979685E+01  0.12000954043E+01 -0.53736081755E+00  0.22048864929E+01  0.00000000000E+00 0.  1.
<mgrwt>
<rscale>  0 0.21384031E+01</rscale>
<asrwt>0</asrwt>
<pdfrwt beam="1">0</pdfrwt>
<pdfrwt beam="2">0</pdfrwt>
<totfact> 0.29155799E+12</totfact>
</mgrwt>
</event>
<event>
 4    2  0.2093759E+006  0.2802686E+01  0.7546771E-02  0.2588467E+00
         22   -1    0    0    0    0  0.00000000000E+00  0.00000000000E+00  0.10664720993E+02  0.10664720993E+02  0.00000000000E+00 0. -1.
         22   -1    0    0    0    0 -0.00000000000E+00 -0.00000000000E+00 -0.73725884017E+00  0.73725884017E+00  0.00000000000E+00 0.  1.
          4    1    1    2  501    0  0.14165947531E+01 -0.24183275250E+01  0.51411049851E+01  0.58554256190E+01  0.00000000000E+00 0. -1.
         -4    1    1    2    0  501 -0.14165947531E+01  0.24183275250E+01  0.47863571679E+01  0.55465542142E+01  0.00000000000E+00 0.  1.
<mgrwt>
<rscale>  0 0.28026860E+01</rscale>
<asrwt>0</asrwt>
<pdfrwt beam="1">0</pdfrwt>
<pdfrwt beam="2">0</pdfrwt>
<totfact> 0.20769191E+12</totfact>
</mgrwt>
</event>
<event>
 4    2  0.2093759E+006  0.2216709E+01  0.7546771E-02  0.2848342E+00
         22   -1    0    0    0    0  0.00000000000E+00  0.00000000000E+00  0.12423136053E+02  0.12423136053E+02  0.00000000000E+00 0. -1.
         22   -1    0    0    0    0 -0.00000000000E+00 -0.00000000000E+00 -0.44114201323E+00  0.44114201323E+00  0.00000000000E+00 0.  1.
          4    1    1    2  501    0  0.13786519518E+01 -0.17358327648E+01  0.39228679858E+01  0.45058506218E+01  0.00000000000E+00 0.  1.
         -4    1    1    2    0  501 -0.13786519518E+01  0.17358327648E+01  0.80591260538E+01  0.83584274443E+01  0.00000000000E+00 0. -1.
<mgrwt>
<rscale>  0 0.22167085E+01</rscale>
<asrwt>0</asrwt>
<pdfrwt beam="1">0</pdfrwt>
<pdfrwt beam="2">0</pdfrwt>
<totfact> 0.30837893E+12</totfact>
</mgrwt>
</event>
<event>
 4    2  0.2093759E+006  0.2456537E+01  0.7546771E-02  0.2728007E+00
         22   -1    0    0    0    0  0.00000000000E+00  0.00000000000E+00  0.23118579005E+01  0.23118579005E+01  0.00000000000E+00 0.  1.
         22   -1    0    0    0    0 -0.00000000000E+00 -0.00000000000E+00 -0.28164872537E+01  0.28164872537E+01  0.00000000000E+00 0. -1.
          4    1    1    2  501    0 -0.24555240147E+01  0.70528244363E-01 -0.94614977690E+00  0.26324459767E+01  0.00000000000E+00 0. -1.
         -4    1    1    2    0  501  0.24555240147E+01 -0.70528244363E-01  0.44152042370E+00  0.24958991776E+01  0.00000000000E+00 0.  1.
<mgrwt>
<rscale>  0 0.24565367E+01</rscale>
<asrwt>0</asrwt>
<pdfrwt beam="1">0</pdfrwt>
<pdfrwt beam="2">0</pdfrwt>
<totfact> 0.27207920E+12</totfact>
</mgrwt>
</event>
<event>
 4    2  0.2093759E+006  0.3835140E+01  0.7546771E-02  0.2309961E+00
         22   -1    0    0    0    0  0.00000000000E+00  0.00000000000E+00  0.39112677054E+00  0.39112677054E+00  0.00000000000E+00 0. -1.
         22   -1    0    0    0    0 -0.00000000000E+00 -0.00000000000E+00 -0.40790680624E+02  0.40790680624E+02  0.00000000000E+00 0.  1.
          4    1    1    2  501    0  0.14883867459E+01  0.35345441885E+01 -0.25954180470E+02  0.26236001632E+02  0.00000000000E+00 0.  1.
         -4    1    1    2    0  501 -0.14883867459E+01 -0.35345441885E+01 -0.14445373383E+02  0.14945805762E+02  0.00000000000E+00 0. -1.
<mgrwt>
<rscale>  0 0.38351399E+01</rscale>
<asrwt>0</asrwt>
<pdfrwt beam="1">0</pdfrwt>
<pdfrwt beam="2">0</pdfrwt>
<totfact> 0.79301776E+11</totfact>
</mgrwt>
</event>
<event>
 4    2  0.2093759E+006  0.3388089E+01  0.7546771E-02  0.2412150E+00
         22   -1    0    0    0    0  0.00000000000E+00  0.00000000000E+00  0.60738611663E+01  0.60738611663E+01  0.00000000000E+00 0.  1.
         22   -1    0    0    0    0 -0.00000000000E+00 -0.00000000000E+00 -0.20888105334E+01  0.20888105334E+01  0.00000000000E+00 0. -1.
          4    1    1    2  501    0  0.33173095796E+01  0.68891642176E+00  0.73315568340E+00  0.34665063017E+01  0.00000000000E+00 0. -1.
         -4    1    1    2    0  501 -0.33173095796E+01 -0.68891642176E+00  0.32518949495E+01  0.46961653981E+01  0.00000000000E+00 0.  1.
<mgrwt>
<rscale>  0 0.33880892E+01</rscale>
<asrwt>0</asrwt>
<pdfrwt beam="1">0</pdfrwt>
<pdfrwt beam="2">0</pdfrwt>
<totfact> 0.12377208E+12</totfact>
</mgrwt>
</event>
<event>
 4    2  0.2093759E+006  0.2142353E+01  0.7546771E-02  0.2890843E+00
         22   -1    0    0    0    0  0.00000000000E+00  0.00000000000E+00  0.41909642619E+00  0.41909642619E+00  0.00000000000E+00 0.  1.
         22   -1    0    0    0    0 -0.00000000000E+00 -0.00000000000E+00 -0.11340850441E+02  0.11340850441E+02  0.00000000000E+00 0. -1.
          4    1    1    2  501    0 -0.84285350981E+00  0.19695877139E+01 -0.65505554060E+01  0.68919847598E+01  0.00000000000E+00 0. -1.
         -4    1    1    2    0  501  0.84285350981E+00 -0.19695877139E+01 -0.43711986085E+01  0.48679621071E+01  0.00000000000E+00 0.  1.
<mgrwt>
<rscale>  0 0.21423533E+01</rscale>
<asrwt>0</asrwt>
<pdfrwt beam="1">0</pdfrwt>
<pdfrwt beam="2">0</pdfrwt>
<totfact> 0.36510020E+12</totfact>
</mgrwt>
</event>
<event>
 4    2  0.2093759E+006  0.2222351E+01  0.7546771E-02  0.2845228E+00
         22   -1    0    0    0    0  0.00000000000E+00  0.00000000000E+00  0.46411425408E+02  0.46411425408E+02  0.00000000000E+00 0.  1.
         22   -1    0    0    0    0 -0.00000000000E+00 -0.00000000000E+00 -0.25599291848E+00  0.25599291848E+00  0.00000000000E+00 0. -1.
          4    1    1    2  501    0 -0.37420365100E+00  0.21906200370E+01  0.52414313057E+01  0.56931051853E+01  0.00000000000E+00 0. -1.
         -4    1    1    2    0  501  0.37420365100E+00 -0.21906200370E+01  0.40914001183E+02  0.40974313141E+02  0.00000000000E+00 0.  1.
<mgrwt>
<rscale>  0 0.22223511E+01</rscale>
<asrwt>0</asrwt>
<pdfrwt beam="1">0</pdfrwt>
<pdfrwt beam="2">0</pdfrwt>
<totfact> 0.10779945E+12</totfact>
</mgrwt>
</event>
<event>
 4    2  0.2093759E+006  0.2252461E+01  0.7546771E-02  0.2828864E+00
         22   -1    0    0    0    0  0.00000000000E+00  0.00000000000E+00  0.18660694248E+02  0.18660694248E+02  0.00000000000E+00 0.  1.
         22   -1    0    0    0    0 -0.00000000000E+00 -0.00000000000E+00 -0.29979733449E+00  0.29979733449E+00  0.00000000000E+00 0. -1.
          4    1    1    2  501    0  0.18505003409E+01  0.12842225496E+01  0.62877908227E+01  0.66790637442E+01  0.00000000000E+00 0. -1.
         -4    1    1    2    0  501 -0.18505003409E+01 -0.12842225496E+01  0.12073106091E+02  0.12281427838E+02  0.00000000000E+00 0.  1.
<mgrwt>
<rscale>  0 0.22524607E+01</rscale>
<asrwt>0</asrwt>
<pdfrwt beam="1">0</pdfrwt>
<pdfrwt beam="2">0</pdfrwt>
<totfact> 0.28843607E+12</totfact>
</mgrwt>
</event>
<event>
 4    2  0.2093759E+006  0.4960788E+01  0.7546771E-02  0.2127713E+00
         22   -1    0    0    0    0  0.00000000000E+00  0.00000000000E+00  0.23240496956E+01  0.23240496956E+01  0.00000000000E+00 0.  1.
         22   -1    0    0    0    0 -0.00000000000E+00 -0.00000000000E+00 -0.11931238932E+02  0.11931238932E+02  0.00000000000E+00 0. -1.
          4    1    1    2  501    0  0.42433239940E+01  0.25697506265E+01 -0.71942356245E+01  0.87387895627E+01  0.00000000000E+00 0.  1.
         -4    1    1    2    0  501 -0.42433239940E+01 -0.25697506265E+01 -0.24129536120E+01  0.55164990650E+01  0.00000000000E+00 0. -1.
<mgrwt>
<rscale>  0 0.49607879E+01</rscale>
<asrwt>0</asrwt>
<pdfrwt beam="1">0</pdfrwt>
<pdfrwt beam="2">0</pdfrwt>
<totfact> 0.48500239E+11</totfact>
</mgrwt>
</event>
<event>
 4    2  0.2093759E+006  0.2823117E+01  0.7546771E-02  0.2581215E+00
         22   -1    0    0    0    0  0.00000000000E+00  0.00000000000E+00  0.22478026338E+02  0.22478026338E+02  0.00000000000E+00 0.  1.
         22   -1    0    0    0    0 -0.00000000000E+00 -0.00000000000E+00 -0.56648943883E+00  0.56648943883E+00  0.00000000000E+00 0. -1.
          4    1    1    2  501    0 -0.25678515947E+01 -0.11730849810E+01  0.39083660787E+01  0.48213396054E+01  0.00000000000E+00 0. -1.
         -4    1    1    2    0  501  0.25678515947E+01  0.11730849810E+01  0.18003170821E+02  0.18223176172E+02  0.00000000000E+00 0.  1.
<mgrwt>
<rscale>  0 0.28231171E+01</rscale>
<asrwt>0</asrwt>
<pdfrwt beam="1">0</pdfrwt>
<pdfrwt beam="2">0</pdfrwt>
<totfact> 0.11166748E+12</totfact>
</mgrwt>
</event>
<event>
 4    2  0.2093759E+006  0.2015242E+01  0.7546771E-02  0.2970513E+00
         22   -1    0    0    0    0  0.00000000000E+00  0.00000000000E+00  0.33122322676E+02  0.33122322676E+02  0.00000000000E+00 0. -1.
         22   -1    0    0    0    0 -0.00000000000E+00 -0.00000000000E+00 -0.27656326138E+00  0.27656326138E+00  0.00000000000E+00 0.  1.
          4    1    1    2  501    0 -0.18934897083E+01 -0.68985308605E+00  0.39635092995E+01  0.44464150192E+01  0.00000000000E+00 0.  1.
         -4    1    1    2    0  501  0.18934897083E+01  0.68985308605E+00  0.28882250115E+02  0.28952470918E+02  0.00000000000E+00 0. -1.
<mgrwt>
<rscale>  0 0.20152421E+01</rscale>
<asrwt>0</asrwt>
<pdfrwt beam="1">0</pdfrwt>
<pdfrwt beam="2">0</pdfrwt>
<totfact> 0.15308282E+12</totfact>
</mgrwt>
</event>
<event>
 4    2  0.2093759E+006  0.3175973E+01  0.7546771E-02  0.2469335E+00
         22   -1    0    0    0    0  0.00000000000E+00  0.00000000000E+00  0.15010562275E+00  0.15010562275E+00  0.00000000000E+00 0. -1.
         22   -1    0    0    0    0 -0.00000000000E+00 -0.00000000000E+00 -0.67204616503E+02  0.67204616503E+02  0.00000000000E+00 0.  1.
          4    1    1    2  501    0 -0.29858321398E+01 -0.10824088104E+01 -0.33193898889E+02  0.33345490338E+02  0.00000000000E+00 0. -1.
         -4    1    1    2    0  501  0.29858321398E+01  0.10824088104E+01 -0.33860611992E+02  0.34009231788E+02  0.00000000000E+00 0.  1.
<mgrwt>
<rscale>  0 0.31759727E+01</rscale>
<asrwt>0</asrwt>
<pdfrwt beam="1">0</pdfrwt>
<pdfrwt beam="2">0</pdfrwt>
<totfact> 0.11946693E+12</totfact>
</mgrwt>
</event>
<event>
 4    2  0.2093759E+006  0.2034643E+01  0.7546771E-02  0.2957726E+00
         22   -1    0    0    0    0  0.00000000000E+00  0.00000000000E+00  0.45051603740E+00  0.45051603740E+00  0.00000000000E+00 0.  1.
         22   -1    0    0    0    0 -0.00000000000E+00 -0.00000000000E+00 -0.16505785061E+02  0.16505785061E+02  0.00000000000E+00 0. -1.
          4    1    1    2  501    0 -0.16699557909E+01  0.11623340644E+01 -0.13672380907E+02  0.13822943698E+02  0.00000000000E+00 0. -1.
         -4    1    1    2    0  501  0.16699557909E+01 -0.11623340644E+01 -0.23828881170E+01  0.31333574005E+01  0.00000000000E+00 0.  1.
<mgrwt>
<rscale>  0 0.20346432E+01</rscale>
<asrwt>0</asrwt>
<pdfrwt beam="1">0</pdfrwt>
<pdfrwt beam="2">0</pdfrwt>
<totfact> 0.21241947E+12</totfact>
</mgrwt>
</event>
<event>
 4    2  0.2093759E+006  0.2044573E+01  0.7546771E-02  0.2951273E+00
         22   -1    0    0    0    0  0.00000000000E+00  0.00000000000E+00  0.31387616032E+00  0.31387616032E+00  0.00000000000E+00 0.  1.
         22   -1    0    0    0    0 -0.00000000000E+00 -0.00000000000E+00 -0.14279981613E+02  0.14279981613E+02  0.00000000000E+00 0. -1.
          4    1    1    2  501    0  0.11667138898E+01 -0.16790050727E+01 -0.88767238533E+01  0.91091440708E+01  0.00000000000E+00 0. -1.
         -4    1    1    2    0  501 -0.11667138898E+01  0.16790050727E+01 -0.50893815993E+01  0.54847137024E+01  0.00000000000E+00 0.  1.
<mgrwt>
<rscale>  0 0.20445731E+01</rscale>
<asrwt>0</asrwt>
<pdfrwt beam="1">0</pdfrwt>
<pdfrwt beam="2">0</pdfrwt>
<totfact> 0.38125204E+12</totfact>
</mgrwt>
</event>
<event>
 4    2  0.2093759E+006  0.2270157E+01  0.7546771E-02  0.2819439E+00
         22   -1    0    0    0    0  0.00000000000E+00  0.00000000000E+00  0.17679740466E+01  0.17679740466E+01  0.00000000000E+00 0.  1.
         22   -1    0    0    0    0 -0.00000000000E+00 -0.00000000000E+00 -0.65143989153E+01  0.65143989153E+01  0.00000000000E+00 0. -1.
          4    1    1    2  501    0  0.16556589210E+01 -0.15531919649E+01 -0.54514612147E+01  0.59052553813E+01  0.00000000000E+00 0. -1.
         -4    1    1    2    0  501 -0.16556589210E+01  0.15531919649E+01  0.70503634600E+00  0.23771175805E+01  0.00000000000E+00 0.  1.
<mgrwt>
<rscale>  0 0.22701568E+01</rscale>
<asrwt>0</asrwt>
<pdfrwt beam="1">0</pdfrwt>
<pdfrwt beam="2">0</pdfrwt>
<totfact> 0.13807129E+12</totfact>
</mgrwt>
</event>
<event>
 4    2  0.2093759E+006  0.2082732E+01  0.7546771E-02  0.2927035E+00
         22   -1    0    0    0    0  0.00000000000E+00  0.00000000000E+00  0.28726305248E+01  0.28726305248E+01  0.00000000000E+00 0. -1.
         22   -1    0    0    0    0 -0.00000000000E+00 -0.00000000000E+00 -0.15380729557E+01  0.15380729557E+01  0.00000000000E+00 0.  1.
          4    1    1    2  501    0  0.20396340885E+01  0.42150261007E+00  0.36951958784E+00  0.21152579963E+01  0.00000000000E+00 0.  1.
         -4    1    1    2    0  501 -0.20396340885E+01 -0.42150261007E+00  0.96503798126E+00  0.22954454841E+01  0.00000000000E+00 0. -1.
<mgrwt>
<rscale>  0 0.20827318E+01</rscale>
<asrwt>0</asrwt>
<pdfrwt beam="1">0</pdfrwt>
<pdfrwt beam="2">0</pdfrwt>
<totfact> 0.42586515E+12</totfact>
</mgrwt>
</event>
<event>
 4    2  0.2093759E+006  0.2450193E+01  0.7546771E-02  0.2730904E+00
         22   -1    0    0    0    0  0.00000000000E+00  0.00000000000E+00  0.59562246763E+01  0.59562246763E+01  0.00000000000E+00 0.  1.
         22   -1    0    0    0    0 -0.00000000000E+00 -0.00000000000E+00 -0.10093810263E+01  0.10093810263E+01  0.00000000000E+00 0. -1.
          4    1    1    2  501    0 -0.21916181496E+01  0.10955623216E+01  0.26055531297E+01  0.35766400470E+01  0.00000000000E+00 0. -1.
         -4    1    1    2    0  501  0.21916181496E+01 -0.10955623216E+01  0.23412905202E+01  0.33889656556E+01  0.00000000000E+00 0.  1.
<mgrwt>
<rscale>  0 0.24501932E+01</rscale>
<asrwt>0</asrwt>
<pdfrwt beam="1">0</pdfrwt>
<pdfrwt beam="2">0</pdfrwt>
<totfact> 0.29238533E+12</totfact>
</mgrwt>
</event>
<event>
 4    2  0.2093759E+006  0.2066687E+01  0.7546771E-02  0.2937120E+00
         22   -1    0    0    0    0  0.00000000000E+00  0.00000000000E+00  0.64833579222E+01  0.64833579222E+01  0.00000000000E+00 0.  1.
         22   -1    0    0    0    0 -0.00000000000E+00 -0.00000000000E+00 -0.20723488359E+01  0.20723488359E+01  0.00000000000E+00 0. -1.
          4    1    1    2  501    0  0.72154896057E+00  0.19366366707E+01 -0.13275542238E+01  0.24563376629E+01  0.00000000000E+00 0. -1.
         -4    1    1    2    0  501 -0.72154896057E+00 -0.19366366707E+01  0.57385633100E+01  0.60993690953E+01  0.00000000000E+00 0.  1.
<mgrwt>
<rscale>  0 0.20666868E+01</rscale>
<asrwt>0</asrwt>
<pdfrwt beam="1">0</pdfrwt>
<pdfrwt beam="2">0</pdfrwt>
<totfact> 0.11555323E+12</totfact>
</mgrwt>
</event>
<event>
 4    2  0.2093759E+006  0.3237605E+01  0.7546771E-02  0.2452039E+00
         22   -1    0    0    0    0  0.00000000000E+00  0.00000000000E+00  0.17709100431E+02  0.17709100431E+02  0.00000000000E+00 0. -1.
         22   -1    0    0    0    0 -0.00000000000E+00 -0.00000000000E+00 -0.15135662664E+01  0.15135662664E+01  0.00000000000E+00 0.  1.
          4    1    1    2  501    0  0.31711384361E+01 -0.65266023767E+00  0.59763582274E+00  0.32923020736E+01  0.00000000000E+00 0.  1.
         -4    1    1    2    0  501 -0.31711384361E+01  0.65266023767E+00  0.15597898342E+02  0.15930364624E+02  0.00000000000E+00 0. -1.
<mgrwt>
<rscale>  0 0.32376047E+01</rscale>
<asrwt>0</asrwt>
<pdfrwt beam="1">0</pdfrwt>
<pdfrwt beam="2">0</pdfrwt>
<totfact> 0.49002955E+11</totfact>
</mgrwt>
</event>
<event>
 4    2  0.2093759E+006  0.3893671E+01  0.7546771E-02  0.2298092E+00
         22   -1    0    0    0    0  0.00000000000E+00  0.00000000000E+00  0.48169030174E+01  0.48169030174E+01  0.00000000000E+00 0.  1.
         22   -1    0    0    0    0 -0.00000000000E+00 -0.00000000000E+00 -0.60407103149E+01  0.60407103149E+01  0.00000000000E+00 0. -1.
          4    1    1    2  501    0 -0.25391977730E+01 -0.29518040925E+01 -0.43690544237E+01  0.58522909435E+01  0.00000000000E+00 0. -1.
         -4    1    1    2    0  501  0.25391977730E+01  0.29518040925E+01  0.31452471261E+01  0.50053223887E+01  0.00000000000E+00 0.  1.
<mgrwt>
<rscale>  0 0.38936709E+01</rscale>
<asrwt>0</asrwt>
<pdfrwt beam="1">0</pdfrwt>
<pdfrwt beam="2">0</pdfrwt>
<totfact> 0.46867633E+11</totfact>
</mgrwt>
</event>
<event>
 4    2  0.2093759E+006  0.2004862E+01  0.7546771E-02  0.2977454E+00
         22   -1    0    0    0    0  0.00000000000E+00  0.00000000000E+00  0.39291727084E+01  0.39291727084E+01  0.00000000000E+00 0. -1.
         22   -1    0    0    0    0 -0.00000000000E+00 -0.00000000000E+00 -0.10481958464E+01  0.10481958464E+01  0.00000000000E+00 0.  1.
          4    1    1    2  501    0 -0.18592864191E+01  0.75001730474E+00  0.10545034987E+01  0.22652703093E+01  0.00000000000E+00 0. -1.
         -4    1    1    2    0  501  0.18592864191E+01 -0.75001730474E+00  0.18264733634E+01  0.27120982454E+01  0.00000000000E+00 0.  1.
<mgrwt>
<rscale>  0 0.20048621E+01</rscale>
<asrwt>0</asrwt>
<pdfrwt beam="1">0</pdfrwt>
<pdfrwt beam="2">0</pdfrwt>
<totfact> 0.45806144E+12</totfact>
</mgrwt>
</event>
<event>
 4    2  0.2093759E+006  0.2678311E+01  0.7546771E-02  0.2634782E+00
         22   -1    0    0    0    0  0.00000000000E+00  0.00000000000E+00  0.25315058334E+01  0.25315058334E+01  0.00000000000E+00 0. -1.
         22   -1    0    0    0    0 -0.00000000000E+00 -0.00000000000E+00 -0.72714022963E+01  0.72714022963E+01  0.00000000000E+00 0.  1.
          4    1    1    2  501    0 -0.55094612331E+00 -0.26210314717E+01 -0.61990633299E+01  0.67529055802E+01  0.00000000000E+00 0.  1.
         -4    1    1    2    0  501  0.55094612331E+00  0.26210314717E+01  0.14591668669E+01  0.30500025495E+01  0.00000000000E+00 0. -1.
<mgrwt>
<rscale>  0 0.26783106E+01</rscale>
<asrwt>0</asrwt>
<pdfrwt beam="1">0</pdfrwt>
<pdfrwt beam="2">0</pdfrwt>
<totfact> 0.79866783E+11</totfact>
</mgrwt>
</event>
<event>
 4    2  0.2093759E+006  0.3127749E+01  0.7546771E-02  0.2483289E+00
         22   -1    0    0    0    0  0.00000000000E+00  0.00000000000E+00  0.13270539237E+01  0.13270539237E+01  0.00000000000E+00 0. -1.
         22   -1    0    0    0    0 -0.00000000000E+00 -0.00000000000E+00 -0.73987138215E+01  0.73987138215E+01  0.00000000000E+00 0.  1.
          4    1    1    2  501    0  0.24228447612E+01  0.19780394611E+01 -0.32988176498E+01  0.45458788736E+01  0.00000000000E+00 0. -1.
         -4    1    1    2    0  501 -0.24228447612E+01 -0.19780394611E+01 -0.27728422480E+01  0.41798888716E+01  0.00000000000E+00 0.  1.
<mgrwt>
<rscale>  0 0.31277495E+01</rscale>
<asrwt>0</asrwt>
<pdfrwt beam="1">0</pdfrwt>
<pdfrwt beam="2">0</pdfrwt>
<totfact> 0.16498079E+12</totfact>
</mgrwt>
</event>
<event>
 4    2  0.2093759E+006  0.2202425E+01  0.7546771E-02  0.2856293E+00
         22   -1    0    0    0    0  0.00000000000E+00  0.00000000000E+00  0.10283867343E+02  0.10283867343E+02  0.00000000000E+00 0. -1.
         22   -1    0    0    0    0 -0.00000000000E+00 -0.00000000000E+00 -0.61227555999E+00  0.61227555999E+00  0.00000000000E+00 0.  1.
          4    1    1    2  501    0 -0.12278069388E+01 -0.18284323730E+01  0.74465026784E+01  0.77653768074E+01  0.00000000000E+00 0. -1.
         -4    1    1    2    0  501  0.12278069388E+01  0.18284323730E+01  0.22250891045E+01  0.31307660955E+01  0.00000000000E+00 0.  1.
<mgrwt>
<rscale>  0 0.22024248E+01</rscale>
<asrwt>0</asrwt>
<pdfrwt beam="1">0</pdfrwt>
<pdfrwt beam="2">0</pdfrwt>
<totfact> 0.26795729E+12</totfact>
</mgrwt>
</event>
<event>
 4    2  0.2093759E+006  0.2914699E+01  0.7546771E-02  0.2549843E+00
         22   -1    0    0    0    0  0.00000000000E+00  0.00000000000E+00  0.19822657718E+01  0.19822657718E+01  0.00000000000E+00 0. -1.
         22   -1    0    0    0    0 -0.00000000000E+00 -0.00000000000E+00 -0.44948497766E+01  0.44948497766E+01  0.00000000000E+00 0.  1.
          4    1    1    2  501    0 -0.29027579356E+01 -0.26356365237E+00 -0.55776288198E+00  0.29675863701E+01  0.00000000000E+00 0. -1.
         -4    1    1    2    0  501  0.29027579356E+01  0.26356365237E+00 -0.19548211228E+01  0.35095291784E+01  0.00000000000E+00 0.  1.
<mgrwt>
<rscale>  0 0.29146989E+01</rscale>
<asrwt>0</asrwt>
<pdfrwt beam="1">0</pdfrwt>
<pdfrwt beam="2">0</pdfrwt>
<totfact> 0.18791309E+12</totfact>
</mgrwt>
</event>
<event>
 4    2  0.2093759E+006  0.3828345E+01  0.7546771E-02  0.2311359E+00
         22   -1    0    0    0    0  0.00000000000E+00  0.00000000000E+00  0.13730672347E+01  0.13730672347E+01  0.00000000000E+00 0.  1.
         22   -1    0    0    0    0 -0.00000000000E+00 -0.00000000000E+00 -0.16726799194E+02  0.16726799194E+02  0.00000000000E+00 0. -1.
          4    1    1    2  501    0  0.37247037588E+01 -0.88476260669E+00 -0.13120819226E+02  0.13667923036E+02  0.00000000000E+00 0. -1.
         -4    1    1    2    0  501 -0.37247037588E+01  0.88476260669E+00 -0.22329127334E+01  0.44319433927E+01  0.00000000000E+00 0.  1.
<mgrwt>
<rscale>  0 0.38283447E+01</rscale>
<asrwt>0</asrwt>
<pdfrwt beam="1">0</pdfrwt>
<pdfrwt beam="2">0</pdfrwt>
<totfact> 0.58824032E+11</totfact>
</mgrwt>
</event>
<event>
 4    2  0.2093759E+006  0.3034396E+01  0.7546771E-02  0.2511421E+00
         22   -1    0    0    0    0  0.00000000000E+00  0.00000000000E+00  0.32440287627E+02  0.32440287627E+02  0.00000000000E+00 0.  1.
         22   -1    0    0    0    0 -0.00000000000E+00 -0.00000000000E+00 -0.32493255450E+00  0.32493255450E+00  0.00000000000E+00 0. -1.
          4    1    1    2  501    0  0.52543307697E+00 -0.29885584130E+01  0.10231076576E+02  0.10671573886E+02  0.00000000000E+00 0.  1.
         -4    1    1    2    0  501 -0.52543307697E+00  0.29885584130E+01  0.21884278496E+02  0.22093646295E+02  0.00000000000E+00 0. -1.
<mgrwt>
<rscale>  0 0.30343964E+01</rscale>
<asrwt>0</asrwt>
<pdfrwt beam="1">0</pdfrwt>
<pdfrwt beam="2">0</pdfrwt>
<totfact> 0.13124348E+12</totfact>
</mgrwt>
</event>
<event>
 4    2  0.2093759E+006  0.3795159E+01  0.7546771E-02  0.2318248E+00
         22   -1    0    0    0    0  0.00000000000E+00  0.00000000000E+00  0.45390004690E+01  0.45390004690E+01  0.00000000000E+00 0. -1.
         22   -1    0    0    0    0 -0.00000000000E+00 -0.00000000000E+00 -0.42601313447E+01  0.42601313447E+01  0.00000000000E+00 0.  1.
          4    1    1    2  501    0 -0.20942425694E+01 -0.31650243478E+01  0.23617008542E+01  0.44699957479E+01  0.00000000000E+00 0. -1.
         -4    1    1    2    0  501  0.20942425694E+01  0.31650243478E+01 -0.20828317299E+01  0.43291360658E+01  0.00000000000E+00 0.  1.
<mgrwt>
<rscale>  0 0.37951589E+01</rscale>
<asrwt>0</asrwt>
<pdfrwt beam="1">0</pdfrwt>
<pdfrwt beam="2">0</pdfrwt>
<totfact> 0.76037307E+11</totfact>
</mgrwt>
</event>
<event>
 4    2  0.2093759E+006  0.2814800E+01  0.7546771E-02  0.2584156E+00
         22   -1    0    0    0    0  0.00000000000E+00  0.00000000000E+00  0.28921589730E+01  0.28921589730E+01  0.00000000000E+00 0.  1.
         22   -1    0    0    0    0 -0.00000000000E+00 -0.00000000000E+00 -0.45966587109E+01  0.45966587109E+01  0.00000000000E+00 0. -1.
          4    1    1    2  501    0  0.24356325136E+01  0.14109553242E+01 -0.32322960408E+01  0.42861215992E+01  0.00000000000E+00 0. -1.
         -4    1    1    2    0  501 -0.24356325136E+01 -0.14109553242E+01  0.15277963029E+01  0.32026960847E+01  0.00000000000E+00 0.  1.
<mgrwt>
<rscale>  0 0.28148003E+01</rscale>
<asrwt>0</asrwt>
<pdfrwt beam="1">0</pdfrwt>
<pdfrwt beam="2">0</pdfrwt>
<totfact> 0.11798214E+12</totfact>
</mgrwt>
</event>
<event>
 4    2  0.2093759E+006  0.2095691E+01  0.7546771E-02  0.2918999E+00
         22   -1    0    0    0    0  0.00000000000E+00  0.00000000000E+00  0.38923922787E+01  0.38923922787E+01  0.00000000000E+00 0. -1.
         22   -1    0    0    0    0 -0.00000000000E+00 -0.00000000000E+00 -0.15036516233E+01  0.15036516233E+01  0.00000000000E+00 0.  1.
          4    1    1    2  501    0 -0.17375127992E+01 -0.11717381281E+01 -0.15357098538E+00  0.21013103093E+01  0.00000000000E+00 0.  1.
         -4    1    1    2    0  501  0.17375127992E+01  0.11717381281E+01  0.25423116408E+01  0.32947335928E+01  0.00000000000E+00 0. -1.
<mgrwt>
<rscale>  0 0.20956910E+01</rscale>
<asrwt>0</asrwt>
<pdfrwt beam="1">0</pdfrwt>
<pdfrwt beam="2">0</pdfrwt>
<totfact> 0.30622543E+12</totfact>
</mgrwt>
</event>
<event>
 4    2  0.2093759E+006  0.4195413E+01  0.7546771E-02  0.2241428E+00
         22   -1    0    0    0    0  0.00000000000E+00  0.00000000000E+00  0.10926723247E+02  0.10926723247E+02  0.00000000000E+00 0.  1.
         22   -1    0    0    0    0 -0.00000000000E+00 -0.00000000000E+00 -0.22286478112E+01  0.22286478112E+01  0.00000000000E+00 0. -1.
          4    1    1    2  501    0  0.23291947582E+01  0.34894612766E+01  0.88589887500E+00  0.42879254937E+01  0.00000000000E+00 0. -1.
         -4    1    1    2    0  501 -0.23291947582E+01 -0.34894612766E+01  0.78121765611E+01  0.88674455648E+01  0.00000000000E+00 0.  1.
<mgrwt>
<rscale>  0 0.41954128E+01</rscale>
<asrwt>0</asrwt>
<pdfrwt beam="1">0</pdfrwt>
<pdfrwt beam="2">0</pdfrwt>
<totfact> 0.56670384E+11</totfact>
</mgrwt>
</event>
<event>
 4    2  0.2093759E+006  0.2757567E+01  0.7546771E-02  0.2604828E+00
         22   -1    0    0    0    0  0.00000000000E+00  0.00000000000E+00  0.99238784910E+01  0.99238784910E+01  0.00000000000E+00 0.  1.
         22   -1    0    0    0    0 -0.00000000000E+00 -0.00000000000E+00 -0.28232174397E+01  0.28232174397E+01  0.00000000000E+00 0. -1.
          4    1    1    2  501    0 -0.94848369543E+00  0.25893156307E+01 -0.18899682497E+01  0.33430759400E+01  0.00000000000E+00 0. -1.
         -4    1    1    2    0  501  0.94848369543E+00 -0.25893156307E+01  0.89906293010E+01  0.94040199906E+01  0.00000000000E+00 0.  1.
<mgrwt>
<rscale>  0 0.27575672E+01</rscale>
<asrwt>0</asrwt>
<pdfrwt beam="1">0</pdfrwt>
<pdfrwt beam="2">0</pdfrwt>
<totfact> 0.48370177E+11</totfact>
</mgrwt>
</event>
<event>
 4    2  0.2093759E+006  0.2860133E+01  0.7546771E-02  0.2568317E+00
         22   -1    0    0    0    0  0.00000000000E+00  0.00000000000E+00  0.19000748301E+01  0.19000748301E+01  0.00000000000E+00 0.  1.
         22   -1    0    0    0    0 -0.00000000000E+00 -0.00000000000E+00 -0.44532181503E+01  0.44532181503E+01  0.00000000000E+00 0. -1.
          4    1    1    2  501    0  0.32281815674E+00  0.28418561946E+01 -0.69758456734E+00  0.29439739166E+01  0.00000000000E+00 0. -1.
         -4    1    1    2    0  501 -0.32281815674E+00 -0.28418561946E+01 -0.18555587529E+01  0.34093190638E+01  0.00000000000E+00 0.  1.
<mgrwt>
<rscale>  0 0.28601325E+01</rscale>
<asrwt>0</asrwt>
<pdfrwt beam="1">0</pdfrwt>
<pdfrwt beam="2">0</pdfrwt>
<totfact> 0.19952603E+12</totfact>
</mgrwt>
</event>
<event>
 4    2  0.2093759E+006  0.2199704E+01  0.7546771E-02  0.2857818E+00
         22   -1    0    0    0    0  0.00000000000E+00  0.00000000000E+00  0.96399484927E+00  0.96399484927E+00  0.00000000000E+00 0.  1.
         22   -1    0    0    0    0 -0.00000000000E+00 -0.00000000000E+00 -0.69765807068E+01  0.69765807068E+01  0.00000000000E+00 0. -1.
          4    1    1    2  501    0  0.19504939548E+01  0.10169910154E+01 -0.90341701276E+00  0.23779948890E+01  0.00000000000E+00 0.  1.
         -4    1    1    2    0  501 -0.19504939548E+01 -0.10169910154E+01 -0.51091688448E+01  0.55625806671E+01  0.00000000000E+00 0. -1.
<mgrwt>
<rscale>  0 0.21997039E+01</rscale>
<asrwt>0</asrwt>
<pdfrwt beam="1">0</pdfrwt>
<pdfrwt beam="2">0</pdfrwt>
<totfact> 0.25516653E+12</totfact>
</mgrwt>
</event>
<event>
 4    2  0.2093759E+006  0.2322347E+01  0.7546771E-02  0.2792441E+00
         22   -1    0    0    0    0  0.00000000000E+00  0.00000000000E+00  0.19652217860E+01  0.19652217860E+01  0.00000000000E+00 0. -1.
         22   -1    0    0    0    0 -0.00000000000E+00 -0.00000000000E+00 -0.24016868306E+02  0.24016868306E+02  0.00000000000E+00 0.  1.
          4    1    1    2  501    0 -0.22056758586E+01 -0.72683560857E+00 -0.23252126068E+02  0.23367812536E+02  0.00000000000E+00 0.  1.
         -4    1    1    2    0  501  0.22056758586E+01  0.72683560857E+00  0.12004795486E+01  0.26142775563E+01  0.00000000000E+00 0. -1.
<mgrwt>
<rscale>  0 0.23223471E+01</rscale>
<asrwt>0</asrwt>
<pdfrwt beam="1">0</pdfrwt>
<pdfrwt beam="2">0</pdfrwt>
<totfact> 0.24778356E+11</totfact>
</mgrwt>
</event>
<event>
 4    2  0.2093759E+006  0.2091080E+01  0.7546771E-02  0.2921847E+00
         22   -1    0    0    0    0  0.00000000000E+00  0.00000000000E+00  0.39856627063E+00  0.39856627063E+00  0.00000000000E+00 0.  1.
         22   -1    0    0    0    0 -0.00000000000E+00 -0.00000000000E+00 -0.12203419960E+02  0.12203419960E+02  0.00000000000E+00 0. -1.
          4    1    1    2  501    0 -0.15126476741E+01  0.14437840249E+01 -0.79049244958E+01  0.81768237465E+01  0.00000000000E+00 0. -1.
         -4    1    1    2    0  501  0.15126476741E+01 -0.14437840249E+01 -0.38999291937E+01  0.44251624843E+01  0.00000000000E+00 0.  1.
<mgrwt>
<rscale>  0 0.20910799E+01</rscale>
<asrwt>0</asrwt>
<pdfrwt beam="1">0</pdfrwt>
<pdfrwt beam="2">0</pdfrwt>
<totfact> 0.35332820E+12</totfact>
</mgrwt>
</event>
<event>
 4    2  0.2093759E+006  0.4420859E+01  0.7546771E-02  0.2203407E+00
         22   -1    0    0    0    0  0.00000000000E+00  0.00000000000E+00  0.37659952438E+01  0.37659952438E+01  0.00000000000E+00 0. -1.
         22   -1    0    0    0    0 -0.00000000000E+00 -0.00000000000E+00 -0.81108214169E+01  0.81108214169E+01  0.00000000000E+00 0.  1.
          4    1    1    2  501    0 -0.23050054608E+01  0.37723918380E+01 -0.57362698562E+01  0.72421531478E+01  0.00000000000E+00 0.  1.
         -4    1    1    2    0  501  0.23050054608E+01 -0.37723918380E+01  0.13914436831E+01  0.46346635128E+01  0.00000000000E+00 0. -1.
<mgrwt>
<rscale>  0 0.44208586E+01</rscale>
<asrwt>0</asrwt>
<pdfrwt beam="1">0</pdfrwt>
<pdfrwt beam="2">0</pdfrwt>
<totfact> 0.44033471E+11</totfact>
</mgrwt>
</event>
<event>
 4    2  0.2093759E+006  0.2159728E+01  0.7546771E-02  0.2880660E+00
         22   -1    0    0    0    0  0.00000000000E+00  0.00000000000E+00  0.16907277474E+01  0.16907277474E+01  0.00000000000E+00 0. -1.
         22   -1    0    0    0    0 -0.00000000000E+00 -0.00000000000E+00 -0.29552851300E+01  0.29552851300E+01  0.00000000000E+00 0.  1.
          4    1    1    2  501    0  0.11246263828E+01  0.18438115762E+01 -0.33335619632E-01  0.21599853919E+01  0.00000000000E+00 0. -1.
         -4    1    1    2    0  501 -0.11246263828E+01 -0.18438115762E+01 -0.12312217629E+01  0.24860274856E+01  0.00000000000E+00 0.  1.
<mgrwt>
<rscale>  0 0.21597281E+01</rscale>
<asrwt>0</asrwt>
<pdfrwt beam="1">0</pdfrwt>
<pdfrwt beam="2">0</pdfrwt>
<totfact> 0.36943951E+12</totfact>
</mgrwt>
</event>
<event>
 4    2  0.2093759E+006  0.2002202E+01  0.7546771E-02  0.2979244E+00
         22   -1    0    0    0    0  0.00000000000E+00  0.00000000000E+00  0.77499705292E+00  0.77499705292E+00  0.00000000000E+00 0. -1.
         22   -1    0    0    0    0 -0.00000000000E+00 -0.00000000000E+00 -0.51819545978E+01  0.51819545978E+01  0.00000000000E+00 0.  1.
          4    1    1    2  501    0  0.15389770431E+01 -0.12807661143E+01 -0.20774754374E+01  0.28852584584E+01  0.00000000000E+00 0. -1.
         -4    1    1    2    0  501 -0.15389770431E+01  0.12807661143E+01 -0.23294821075E+01  0.30716931923E+01  0.00000000000E+00 0.  1.
<mgrwt>
<rscale>  0 0.20022018E+01</rscale>
<asrwt>0</asrwt>
<pdfrwt beam="1">0</pdfrwt>
<pdfrwt beam="2">0</pdfrwt>
<totfact> 0.46613478E+12</totfact>
</mgrwt>
</event>
<event>
 4    2  0.2093759E+006  0.2226370E+01  0.7546771E-02  0.2843019E+00
         22   -1    0    0    0    0  0.00000000000E+00  0.00000000000E+00  0.14437153919E+02  0.14437153919E+02  0.00000000000E+00 0.  1.
         22   -1    0    0    0    0 -0.00000000000E+00 -0.00000000000E+00 -0.10155963214E+02  0.10155963214E+02  0.00000000000E+00 0. -1.
          4    1    1    2  501    0 -0.26250703199E+00  0.22108400670E+01 -0.99463283819E+01  0.10192456624E+02  0.00000000000E+00 0. -1.
         -4    1    1    2    0  501  0.26250703199E+00 -0.22108400670E+01  0.14227519087E+02  0.14400660510E+02  0.00000000000E+00 0.  1.
<mgrwt>
<rscale>  0 0.22263701E+01</rscale>
<asrwt>0</asrwt>
<pdfrwt beam="1">0</pdfrwt>
<pdfrwt beam="2">0</pdfrwt>
<totfact> 0.66983051E+10</totfact>
</mgrwt>
</event>
<event>
 4    2  0.2093759E+006  0.2037614E+01  0.7546771E-02  0.2955789E+00
         22   -1    0    0    0    0  0.00000000000E+00  0.00000000000E+00  0.79986887160E+00  0.79986887160E+00  0.00000000000E+00 0. -1.
         22   -1    0    0    0    0 -0.00000000000E+00 -0.00000000000E+00 -0.53368477319E+01  0.53368477319E+01  0.00000000000E+00 0.  1.
          4    1    1    2  501    0 -0.17500705404E+01  0.10436118259E+01 -0.27762656525E+01  0.34437658911E+01  0.00000000000E+00 0.  1.
         -4    1    1    2    0  501  0.17500705404E+01 -0.10436118259E+01 -0.17607132078E+01  0.26929507124E+01  0.00000000000E+00 0. -1.
<mgrwt>
<rscale>  0 0.20376144E+01</rscale>
<asrwt>0</asrwt>
<pdfrwt beam="1">0</pdfrwt>
<pdfrwt beam="2">0</pdfrwt>
<totfact> 0.43425789E+12</totfact>
</mgrwt>
</event>
<event>
 4    2  0.2093759E+006  0.4401794E+01  0.7546771E-02  0.2206495E+00
         22   -1    0    0    0    0  0.00000000000E+00  0.00000000000E+00  0.42348747760E+02  0.42348747760E+02  0.00000000000E+00 0. -1.
         22   -1    0    0    0    0 -0.00000000000E+00 -0.00000000000E+00 -0.46313179355E+00  0.46313179355E+00  0.00000000000E+00 0.  1.
          4    1    1    2  501    0  0.25391194169E+01  0.35956447282E+01  0.18588426698E+02  0.19102497102E+02  0.00000000000E+00 0. -1.
         -4    1    1    2    0  501 -0.25391194169E+01 -0.35956447282E+01  0.23297189269E+02  0.23709382452E+02  0.00000000000E+00 0.  1.
<mgrwt>
<rscale>  0 0.44017938E+01</rscale>
<asrwt>0</asrwt>
<pdfrwt beam="1">0</pdfrwt>
<pdfrwt beam="2">0</pdfrwt>
<totfact> 0.62434017E+11</totfact>
</mgrwt>
</event>
<event>
 4    2  0.2093759E+006  0.2128306E+01  0.7546771E-02  0.2899194E+00
         22   -1    0    0    0    0  0.00000000000E+00  0.00000000000E+00  0.34338358911E+01  0.34338358911E+01  0.00000000000E+00 0. -1.
         22   -1    0    0    0    0 -0.00000000000E+00 -0.00000000000E+00 -0.14053009806E+01  0.14053009806E+01  0.00000000000E+00 0.  1.
          4    1    1    2  501    0  0.21006972663E+01 -0.34169486562E+00  0.41512850458E+00  0.21684132588E+01  0.00000000000E+00 0.  1.
         -4    1    1    2    0  501 -0.21006972663E+01  0.34169486562E+00  0.16134064059E+01  0.26707236129E+01  0.00000000000E+00 0. -1.
<mgrwt>
<rscale>  0 0.21283055E+01</rscale>
<asrwt>0</asrwt>
<pdfrwt beam="1">0</pdfrwt>
<pdfrwt beam="2">0</pdfrwt>
<totfact> 0.38347404E+12</totfact>
</mgrwt>
</event>
<event>
 4    2  0.2093759E+006  0.5363934E+01  0.7546771E-02  0.2081915E+00
         22   -1    0    0    0    0  0.00000000000E+00  0.00000000000E+00  0.38420826217E+01  0.38420826217E+01  0.00000000000E+00 0. -1.
         22   -1    0    0    0    0 -0.00000000000E+00 -0.00000000000E+00 -0.86182691906E+01  0.86182691906E+01  0.00000000000E+00 0.  1.
          4    1    1    2  501    0  0.48412002483E+01 -0.23096684046E+01 -0.46437215152E+01  0.70947824135E+01  0.00000000000E+00 0.  1.
         -4    1    1    2    0  501 -0.48412002483E+01  0.23096684046E+01 -0.13246505374E+00  0.53655693988E+01  0.00000000000E+00 0. -1.
<mgrwt>
<rscale>  0 0.53639340E+01</rscale>
<asrwt>0</asrwt>
<pdfrwt beam="1">0</pdfrwt>
<pdfrwt beam="2">0</pdfrwt>
<totfact> 0.39981869E+11</totfact>
</mgrwt>
</event>
<event>
 4    2  0.2093759E+006  0.2068666E+01  0.7546771E-02  0.2935868E+00
         22   -1    0    0    0    0  0.00000000000E+00  0.00000000000E+00  0.44459777072E+00  0.44459777072E+00  0.00000000000E+00 0. -1.
         22   -1    0    0    0    0 -0.00000000000E+00 -0.00000000000E+00 -0.10707610062E+02  0.10707610062E+02  0.00000000000E+00 0.  1.
          4    1    1    2  501    0 -0.33550970934E-01 -0.20683936535E+01 -0.69043254476E+01  0.72075715647E+01  0.00000000000E+00 0.  1.
         -4    1    1    2    0  501  0.33550970934E-01  0.20683936535E+01 -0.33586868440E+01  0.39446362683E+01  0.00000000000E+00 0. -1.
<mgrwt>
<rscale>  0 0.20686657E+01</rscale>
<asrwt>0</asrwt>
<pdfrwt beam="1">0</pdfrwt>
<pdfrwt beam="2">0</pdfrwt>
<totfact> 0.36628721E+12</totfact>
</mgrwt>
</event>
<event>
 4    2  0.2093759E+006  0.2182264E+01  0.7546771E-02  0.2867684E+00
         22   -1    0    0    0    0  0.00000000000E+00  0.00000000000E+00  0.12049405043E+01  0.12049405043E+01  0.00000000000E+00 0. -1.
         22   -1    0    0    0    0 -0.00000000000E+00 -0.00000000000E+00 -0.39526757306E+01  0.39526757306E+01  0.00000000000E+00 0.  1.
          4    1    1    2  501    0  0.68926186210E+00 -0.20705540943E+01 -0.13992914955E+01  0.25923527656E+01  0.00000000000E+00 0. -1.
         -4    1    1    2    0  501 -0.68926186210E+00  0.20705540943E+01 -0.13484437308E+01  0.25652634693E+01  0.00000000000E+00 0.  1.
<mgrwt>
<rscale>  0 0.21822640E+01</rscale>
<asrwt>0</asrwt>
<pdfrwt beam="1">0</pdfrwt>
<pdfrwt beam="2">0</pdfrwt>
<totfact> 0.38782748E+12</totfact>
</mgrwt>
</event>
<event>
 4    2  0.2093759E+006  0.5842079E+01  0.7546771E-02  0.2034146E+00
         22   -1    0    0    0    0  0.00000000000E+00  0.00000000000E+00  0.50540681314E+00  0.50540681314E+00  0.00000000000E+00 0. -1.
         22   -1    0    0    0    0 -0.00000000000E+00 -0.00000000000E+00 -0.68677271080E+02  0.68677271080E+02  0.00000000000E+00 0.  1.
          4    1    1    2  501    0 -0.55500994304E+01  0.18238105559E+01 -0.29614143237E+02  0.30184886422E+02  0.00000000000E+00 0.  1.
         -4    1    1    2    0  501  0.55500994304E+01 -0.18238105559E+01 -0.38557721030E+02  0.38997791471E+02  0.00000000000E+00 0. -1.
<mgrwt>
<rscale>  0 0.58420791E+01</rscale>
<asrwt>0</asrwt>
<pdfrwt beam="1">0</pdfrwt>
<pdfrwt beam="2">0</pdfrwt>
<totfact> 0.29777705E+11</totfact>
</mgrwt>
</event>
<event>
 4    2  0.2093759E+006  0.2162803E+01  0.7546771E-02  0.2878874E+00
         22   -1    0    0    0    0  0.00000000000E+00  0.00000000000E+00  0.63791273883E+01  0.63791273883E+01  0.00000000000E+00 0. -1.
         22   -1    0    0    0    0 -0.00000000000E+00 -0.00000000000E+00 -0.74494488400E+00  0.74494488400E+00  0.00000000000E+00 0.  1.
          4    1    1    2  501    0  0.11905946900E+01  0.18056025677E+01  0.32627366576E+01  0.39144816828E+01  0.00000000000E+00 0. -1.
         -4    1    1    2    0  501 -0.11905946900E+01 -0.18056025677E+01  0.23714458466E+01  0.32095905894E+01  0.00000000000E+00 0.  1.
<mgrwt>
<rscale>  0 0.21628029E+01</rscale>
<asrwt>0</asrwt>
<pdfrwt beam="1">0</pdfrwt>
<pdfrwt beam="2">0</pdfrwt>
<totfact> 0.38083512E+12</totfact>
</mgrwt>
</event>
<event>
 4    2  0.2093759E+006  0.2794180E+01  0.7546771E-02  0.2591515E+00
         22   -1    0    0    0    0  0.00000000000E+00  0.00000000000E+00  0.33637606840E+01  0.33637606840E+01  0.00000000000E+00 0.  1.
         22   -1    0    0    0    0 -0.00000000000E+00 -0.00000000000E+00 -0.41608606267E+01  0.41608606267E+01  0.00000000000E+00 0. -1.
          4    1    1    2  501    0 -0.12461545629E+00 -0.27914001386E+01 -0.29003355541E+01  0.40273303902E+01  0.00000000000E+00 0. -1.
         -4    1    1    2    0  501  0.12461545629E+00  0.27914001386E+01  0.21032356114E+01  0.34972909205E+01  0.00000000000E+00 0.  1.
<mgrwt>
<rscale>  0 0.27941803E+01</rscale>
<asrwt>0</asrwt>
<pdfrwt beam="1">0</pdfrwt>
<pdfrwt beam="2">0</pdfrwt>
<totfact> 0.11120735E+12</totfact>
</mgrwt>
</event>
<event>
 4    2  0.2093759E+006  0.2068146E+01  0.7546771E-02  0.2936197E+00
         22   -1    0    0    0    0  0.00000000000E+00  0.00000000000E+00  0.16986780785E+02  0.16986780785E+02  0.00000000000E+00 0. -1.
         22   -1    0    0    0    0 -0.00000000000E+00 -0.00000000000E+00 -0.86657242531E+00  0.86657242531E+00  0.00000000000E+00 0.  1.
          4    1    1    2  501    0  0.86742509478E+00 -0.18774452730E+01  0.54135701678E+00  0.21378247046E+01  0.00000000000E+00 0.  1.
         -4    1    1    2    0  501 -0.86742509478E+00  0.18774452730E+01  0.15578851343E+02  0.15715528506E+02  0.00000000000E+00 0. -1.
<mgrwt>
<rscale>  0 0.20681458E+01</rscale>
<asrwt>0</asrwt>
<pdfrwt beam="1">0</pdfrwt>
<pdfrwt beam="2">0</pdfrwt>
<totfact> 0.97689456E+11</totfact>
</mgrwt>
</event>
<event>
 4    2  0.2093759E+006  0.2077184E+01  0.7546771E-02  0.2930505E+00
         22   -1    0    0    0    0  0.00000000000E+00  0.00000000000E+00  0.32502330160E+02  0.32502330160E+02  0.00000000000E+00 0.  1.
         22   -1    0    0    0    0 -0.00000000000E+00 -0.00000000000E+00 -0.20823135135E+00  0.20823135135E+00  0.00000000000E+00 0. -1.
          4    1    1    2  501    0 -0.18021695781E+01 -0.10328976521E+01  0.63000472471E+01  0.66336481716E+01  0.00000000000E+00 0. -1.
         -4    1    1    2    0  501  0.18021695781E+01  0.10328976521E+01  0.25994051562E+02  0.26076913340E+02  0.00000000000E+00 0.  1.
<mgrwt>
<rscale>  0 0.20771839E+01</rscale>
<asrwt>0</asrwt>
<pdfrwt beam="1">0</pdfrwt>
<pdfrwt beam="2">0</pdfrwt>
<totfact> 0.21540267E+12</totfact>
</mgrwt>
</event>
<event>
 4    2  0.2093759E+006  0.2413898E+01  0.7546771E-02  0.2747751E+00
         22   -1    0    0    0    0  0.00000000000E+00  0.00000000000E+00  0.29487680419E+01  0.29487680419E+01  0.00000000000E+00 0. -1.
         22   -1    0    0    0    0 -0.00000000000E+00 -0.00000000000E+00 -0.23516317304E+01  0.23516317304E+01  0.00000000000E+00 0.  1.
          4    1    1    2  501    0  0.60415020683E+00 -0.23370719562E+01 -0.76055928865E+00  0.25308799324E+01  0.00000000000E+00 0.  1.
         -4    1    1    2    0  501 -0.60415020683E+00  0.23370719562E+01  0.13576956001E+01  0.27695198399E+01  0.00000000000E+00 0. -1.
<mgrwt>
<rscale>  0 0.24138978E+01</rscale>
<asrwt>0</asrwt>
<pdfrwt beam="1">0</pdfrwt>
<pdfrwt beam="2">0</pdfrwt>
<totfact> 0.25282920E+12</totfact>
</mgrwt>
</event>
<event>
 4    2  0.2093759E+006  0.3842991E+01  0.7546771E-02  0.2308351E+00
         22   -1    0    0    0    0  0.00000000000E+00  0.00000000000E+00  0.87038840423E+00  0.87038840423E+00  0.00000000000E+00 0. -1.
         22   -1    0    0    0    0 -0.00000000000E+00 -0.00000000000E+00 -0.18601501098E+02  0.18601501098E+02  0.00000000000E+00 0.  1.
          4    1    1    2  501    0 -0.37695404184E+01 -0.74775936169E+00 -0.11750849853E+02  0.12363294516E+02  0.00000000000E+00 0.  1.
         -4    1    1    2    0  501  0.37695404184E+01  0.74775936169E+00 -0.59802628406E+01  0.71085949858E+01  0.00000000000E+00 0. -1.
<mgrwt>
<rscale>  0 0.38429909E+01</rscale>
<asrwt>0</asrwt>
<pdfrwt beam="1">0</pdfrwt>
<pdfrwt beam="2">0</pdfrwt>
<totfact> 0.86860183E+11</totfact>
</mgrwt>
</event>
<event>
 4    2  0.2093759E+006  0.2258114E+01  0.7546771E-02  0.2825837E+00
         22   -1    0    0    0    0  0.00000000000E+00  0.00000000000E+00  0.25362121480E+01  0.25362121480E+01  0.00000000000E+00 0. -1.
         22   -1    0    0    0    0 -0.00000000000E+00 -0.00000000000E+00 -0.20291714038E+01  0.20291714038E+01  0.00000000000E+00 0.  1.
          4    1    1    2  501    0 -0.22572437777E+01  0.62686572448E-01  0.47242944710E+00  0.23070042612E+01  0.00000000000E+00 0. -1.
         -4    1    1    2    0  501  0.22572437777E+01 -0.62686572448E-01  0.34611297181E-01  0.22583792906E+01  0.00000000000E+00 0.  1.
<mgrwt>
<rscale>  0 0.22581141E+01</rscale>
<asrwt>0</asrwt>
<pdfrwt beam="1">0</pdfrwt>
<pdfrwt beam="2">0</pdfrwt>
<totfact> 0.35759593E+12</totfact>
</mgrwt>
</event>
<event>
 4    2  0.2093759E+006  0.2171634E+01  0.7546771E-02  0.2873773E+00
         22   -1    0    0    0    0  0.00000000000E+00  0.00000000000E+00  0.35507652524E+02  0.35507652524E+02  0.00000000000E+00 0. -1.
         22   -1    0    0    0    0 -0.00000000000E+00 -0.00000000000E+00 -0.19733946531E+00  0.19733946531E+00  0.00000000000E+00 0.  1.
          4    1    1    2  501    0  0.29937579708E+00  0.21508996122E+01  0.74469416120E+01  0.77571215269E+01  0.00000000000E+00 0.  1.
         -4    1    1    2    0  501 -0.29937579708E+00 -0.21508996122E+01  0.27863371447E+02  0.27947870463E+02  0.00000000000E+00 0. -1.
<mgrwt>
<rscale>  0 0.21716342E+01</rscale>
<asrwt>0</asrwt>
<pdfrwt beam="1">0</pdfrwt>
<pdfrwt beam="2">0</pdfrwt>
<totfact> 0.20416330E+12</totfact>
</mgrwt>
</event>
<event>
 4    2  0.2093759E+006  0.2132034E+01  0.7546771E-02  0.2896967E+00
         22   -1    0    0    0    0  0.00000000000E+00  0.00000000000E+00  0.20566735477E+02  0.20566735477E+02  0.00000000000E+00 0.  1.
         22   -1    0    0    0    0 -0.00000000000E+00 -0.00000000000E+00 -0.91946990644E+00  0.91946990644E+00  0.00000000000E+00 0. -1.
          4    1    1    2  501    0  0.80233692746E+00  0.19753037425E+01  0.46031062195E+00  0.21811591618E+01  0.00000000000E+00 0. -1.
         -4    1    1    2    0  501 -0.80233692746E+00 -0.19753037425E+01  0.19186954949E+02  0.19305046222E+02  0.00000000000E+00 0.  1.
<mgrwt>
<rscale>  0 0.21320341E+01</rscale>
<asrwt>0</asrwt>
<pdfrwt beam="1">0</pdfrwt>
<pdfrwt beam="2">0</pdfrwt>
<totfact> 0.71993641E+11</totfact>
</mgrwt>
</event>
<event>
 4    2  0.2093759E+006  0.2028769E+01  0.7546771E-02  0.2961572E+00
         22   -1    0    0    0    0  0.00000000000E+00  0.00000000000E+00  0.33707848277E+01  0.33707848277E+01  0.00000000000E+00 0. -1.
         22   -1    0    0    0    0 -0.00000000000E+00 -0.00000000000E+00 -0.12445975333E+01  0.12445975333E+01  0.00000000000E+00 0.  1.
          4    1    1    2  501    0 -0.19959676731E+01  0.36334227316E+00  0.74568793278E+00  0.21614705764E+01  0.00000000000E+00 0.  1.
         -4    1    1    2    0  501  0.19959676731E+01 -0.36334227316E+00  0.13804993616E+01  0.24539117846E+01  0.00000000000E+00 0. -1.
<mgrwt>
<rscale>  0 0.20287692E+01</rscale>
<asrwt>0</asrwt>
<pdfrwt beam="1">0</pdfrwt>
<pdfrwt beam="2">0</pdfrwt>
<totfact> 0.45049709E+12</totfact>
</mgrwt>
</event>
<event>
 4    2  0.2093759E+006  0.3214075E+01  0.7546771E-02  0.2458573E+00
         22   -1    0    0    0    0  0.00000000000E+00  0.00000000000E+00  0.72200811094E+01  0.72200811094E+01  0.00000000000E+00 0. -1.
         22   -1    0    0    0    0 -0.00000000000E+00 -0.00000000000E+00 -0.15987173624E+01  0.15987173624E+01  0.00000000000E+00 0.  1.
          4    1    1    2  501    0  0.38121032551E+00  0.31913875894E+01  0.13815244764E+01  0.34984119164E+01  0.00000000000E+00 0.  1.
         -4    1    1    2    0  501 -0.38121032551E+00 -0.31913875894E+01  0.42398392706E+01  0.53203865554E+01  0.00000000000E+00 0. -1.
<mgrwt>
<rscale>  0 0.32140747E+01</rscale>
<asrwt>0</asrwt>
<pdfrwt beam="1">0</pdfrwt>
<pdfrwt beam="2">0</pdfrwt>
<totfact> 0.13713055E+12</totfact>
</mgrwt>
</event>
<event>
 4    2  0.2093759E+006  0.2417089E+01  0.7546771E-02  0.2746251E+00
         22   -1    0    0    0    0  0.00000000000E+00  0.00000000000E+00  0.50408239339E+01  0.50408239339E+01  0.00000000000E+00 0.  1.
         22   -1    0    0    0    0 -0.00000000000E+00 -0.00000000000E+00 -0.41849919086E+01  0.41849919086E+01  0.00000000000E+00 0. -1.
          4    1    1    2  501    0  0.24156635321E+01 -0.82987960122E-01 -0.34945692626E+01  0.42490389069E+01  0.00000000000E+00 0. -1.
         -4    1    1    2    0  501 -0.24156635321E+01  0.82987960122E-01  0.43504012878E+01  0.49767769356E+01  0.00000000000E+00 0.  1.
<mgrwt>
<rscale>  0 0.24170886E+01</rscale>
<asrwt>0</asrwt>
<pdfrwt beam="1">0</pdfrwt>
<pdfrwt beam="2">0</pdfrwt>
<totfact> 0.68590604E+11</totfact>
</mgrwt>
</event>
<event>
 4    2  0.2093759E+006  0.2051204E+01  0.7546771E-02  0.2946998E+00
         22   -1    0    0    0    0  0.00000000000E+00  0.00000000000E+00  0.12762391525E+01  0.12762391525E+01  0.00000000000E+00 0. -1.
         22   -1    0    0    0    0 -0.00000000000E+00 -0.00000000000E+00 -0.49631246885E+01  0.49631246885E+01  0.00000000000E+00 0.  1.
          4    1    1    2  501    0  0.18916515502E+01 -0.79315439503E+00 -0.36511131889E+01  0.41878475378E+01  0.00000000000E+00 0.  1.
         -4    1    1    2    0  501 -0.18916515502E+01  0.79315439503E+00 -0.35772347117E-01  0.20515163033E+01  0.00000000000E+00 0. -1.
<mgrwt>
<rscale>  0 0.20512044E+01</rscale>
<asrwt>0</asrwt>
<pdfrwt beam="1">0</pdfrwt>
<pdfrwt beam="2">0</pdfrwt>
<totfact> 0.27754909E+12</totfact>
</mgrwt>
</event>
<event>
 4    2  0.2093759E+006  0.3197171E+01  0.7546771E-02  0.2463319E+00
         22   -1    0    0    0    0  0.00000000000E+00  0.00000000000E+00  0.17876074595E+01  0.17876074595E+01  0.00000000000E+00 0.  1.
         22   -1    0    0    0    0 -0.00000000000E+00 -0.00000000000E+00 -0.27503132323E+02  0.27503132323E+02  0.00000000000E+00 0. -1.
          4    1    1    2  501    0 -0.31971605636E+01 -0.82788173866E-02 -0.25892051039E+02  0.26088698918E+02  0.00000000000E+00 0. -1.
         -4    1    1    2    0  501  0.31971605636E+01  0.82788173866E-02  0.17652617569E+00  0.32020408646E+01  0.00000000000E+00 0.  1.
<mgrwt>
<rscale>  0 0.31971713E+01</rscale>
<asrwt>0</asrwt>
<pdfrwt beam="1">0</pdfrwt>
<pdfrwt beam="2">0</pdfrwt>
<totfact> 0.23296054E+11</totfact>
</mgrwt>
</event>
<event>
 4    2  0.2093759E+006  0.5009700E+01  0.7546771E-02  0.2121848E+00
         22   -1    0    0    0    0  0.00000000000E+00  0.00000000000E+00  0.10836414773E+01  0.10836414773E+01  0.00000000000E+00 0. -1.
         22   -1    0    0    0    0 -0.00000000000E+00 -0.00000000000E+00 -0.34873752102E+02  0.34873752102E+02  0.00000000000E+00 0.  1.
          4    1    1    2  501    0 -0.16357814327E+01 -0.47351145931E+01 -0.27314814043E+02  0.27770418746E+02  0.00000000000E+00 0.  1.
         -4    1    1    2    0  501  0.16357814327E+01  0.47351145931E+01 -0.64752965818E+01  0.81869748337E+01  0.00000000000E+00 0. -1.
<mgrwt>
<rscale>  0 0.50096997E+01</rscale>
<asrwt>0</asrwt>
<pdfrwt beam="1">0</pdfrwt>
<pdfrwt beam="2">0</pdfrwt>
<totfact> 0.30577024E+11</totfact>
</mgrwt>
</event>
<event>
 4    2  0.2093759E+006  0.2710283E+01  0.7546771E-02  0.2622506E+00
         22   -1    0    0    0    0  0.00000000000E+00  0.00000000000E+00  0.28005742581E+01  0.28005742581E+01  0.00000000000E+00 0. -1.
         22   -1    0    0    0    0 -0.00000000000E+00 -0.00000000000E+00 -0.43644986454E+01  0.43644986454E+01  0.00000000000E+00 0.  1.
          4    1    1    2  501    0 -0.25027287945E+01 -0.10401840300E+01 -0.30450276670E+01  0.40764969922E+01  0.00000000000E+00 0.  1.
         -4    1    1    2    0  501  0.25027287945E+01  0.10401840300E+01  0.14811032797E+01  0.30885759113E+01  0.00000000000E+00 0. -1.
<mgrwt>
<rscale>  0 0.27102831E+01</rscale>
<asrwt>0</asrwt>
<pdfrwt beam="1">0</pdfrwt>
<pdfrwt beam="2">0</pdfrwt>
<totfact> 0.13022268E+12</totfact>
</mgrwt>
</event>
<event>
 4    2  0.2093759E+006  0.2424127E+01  0.7546771E-02  0.2742955E+00
         22   -1    0    0    0    0  0.00000000000E+00  0.00000000000E+00  0.35379828463E+01  0.35379828463E+01  0.00000000000E+00 0. -1.
         22   -1    0    0    0    0 -0.00000000000E+00 -0.00000000000E+00 -0.24670686113E+01  0.24670686113E+01  0.00000000000E+00 0.  1.
          4    1    1    2  501    0  0.24174959215E+01  0.17917860610E+00 -0.11808586988E+01  0.26964455807E+01  0.00000000000E+00 0.  1.
         -4    1    1    2    0  501 -0.24174959215E+01 -0.17917860610E+00  0.22517729339E+01  0.33086058769E+01  0.00000000000E+00 0. -1.
<mgrwt>
<rscale>  0 0.24241270E+01</rscale>
<asrwt>0</asrwt>
<pdfrwt beam="1">0</pdfrwt>
<pdfrwt beam="2">0</pdfrwt>
<totfact> 0.19321903E+12</totfact>
</mgrwt>
</event>
<event>
 4    2  0.2093759E+006  0.2084682E+01  0.7546771E-02  0.2925819E+00
         22   -1    0    0    0    0  0.00000000000E+00  0.00000000000E+00  0.86259834169E+00  0.86259834169E+00  0.00000000000E+00 0. -1.
         22   -1    0    0    0    0 -0.00000000000E+00 -0.00000000000E+00 -0.58612807468E+01  0.58612807468E+01  0.00000000000E+00 0.  1.
          4    1    1    2  501    0 -0.17507159612E+01  0.11317652750E+01 -0.12394637583E+01  0.24253184167E+01  0.00000000000E+00 0. -1.
         -4    1    1    2    0  501  0.17507159612E+01 -0.11317652750E+01 -0.37592186469E+01  0.42985606718E+01  0.00000000000E+00 0.  1.
<mgrwt>
<rscale>  0 0.20846820E+01</rscale>
<asrwt>0</asrwt>
<pdfrwt beam="1">0</pdfrwt>
<pdfrwt beam="2">0</pdfrwt>
<totfact> 0.35651077E+12</totfact>
</mgrwt>
</event>
<event>
 4    2  0.2093759E+006  0.2277249E+01  0.7546771E-02  0.2815702E+00
         22   -1    0    0    0    0  0.00000000000E+00  0.00000000000E+00  0.73770972910E+00  0.73770972910E+00  0.00000000000E+00 0. -1.
         22   -1    0    0    0    0 -0.00000000000E+00 -0.00000000000E+00 -0.10223953181E+02  0.10223953181E+02  0.00000000000E+00 0.  1.
          4    1    1    2  501    0  0.11423934007E+01 -0.19699741338E+01 -0.78066598146E+01  0.81320230097E+01  0.00000000000E+00 0.  1.
         -4    1    1    2    0  501 -0.11423934007E+01  0.19699741338E+01 -0.16795836368E+01  0.28296398999E+01  0.00000000000E+00 0. -1.
<mgrwt>
<rscale>  0 0.22772485E+01</rscale>
<asrwt>0</asrwt>
<pdfrwt beam="1">0</pdfrwt>
<pdfrwt beam="2">0</pdfrwt>
<totfact> 0.21843971E+12</totfact>
</mgrwt>
</event>
<event>
 4    2  0.2093759E+006  0.7706351E+01  0.7546771E-02  0.1893716E+00
         22   -1    0    0    0    0  0.00000000000E+00  0.00000000000E+00  0.50612213559E+01  0.50612213559E+01  0.00000000000E+00 0. -1.
         22   -1    0    0    0    0 -0.00000000000E+00 -0.00000000000E+00 -0.14006895886E+02  0.14006895886E+02  0.00000000000E+00 0.  1.
          4    1    1    2  501    0 -0.56977996479E+01  0.51887301063E+01 -0.83135042457E+01  0.11335880812E+02  0.00000000000E+00 0.  1.
         -4    1    1    2    0  501  0.56977996479E+01 -0.51887301063E+01 -0.63217028489E+00  0.77322364302E+01  0.00000000000E+00 0. -1.
<mgrwt>
<rscale>  0 0.77063507E+01</rscale>
<asrwt>0</asrwt>
<pdfrwt beam="1">0</pdfrwt>
<pdfrwt beam="2">0</pdfrwt>
<totfact> 0.16006598E+11</totfact>
</mgrwt>
</event>
<event>
 4    2  0.2093759E+006  0.2082026E+01  0.7546771E-02  0.2927475E+00
         22   -1    0    0    0    0  0.00000000000E+00  0.00000000000E+00  0.20285713693E+01  0.20285713693E+01  0.00000000000E+00 0.  1.
         22   -1    0    0    0    0 -0.00000000000E+00 -0.00000000000E+00 -0.21765957032E+01  0.21765957032E+01  0.00000000000E+00 0. -1.
          4    1    1    2  501    0  0.61331801498E+00  0.19896417633E+01 -0.35799512342E+00  0.21125799020E+01  0.00000000000E+00 0.  1.
         -4    1    1    2    0  501 -0.61331801498E+00 -0.19896417633E+01  0.20997078944E+00  0.20925871705E+01  0.00000000000E+00 0. -1.
<mgrwt>
<rscale>  0 0.20820263E+01</rscale>
<asrwt>0</asrwt>
<pdfrwt beam="1">0</pdfrwt>
<pdfrwt beam="2">0</pdfrwt>
<totfact> 0.42722971E+12</totfact>
</mgrwt>
</event>
<event>
 4    2  0.2093759E+006  0.2026193E+01  0.7546771E-02  0.2963266E+00
         22   -1    0    0    0    0  0.00000000000E+00  0.00000000000E+00  0.15121487520E+02  0.15121487520E+02  0.00000000000E+00 0.  1.
         22   -1    0    0    0    0 -0.00000000000E+00 -0.00000000000E+00 -0.27457353209E+00  0.27457353209E+00  0.00000000000E+00 0. -1.
          4    1    1    2  501    0 -0.20353545470E+00  0.20159438930E+01  0.66087580510E+01  0.69123902840E+01  0.00000000000E+00 0. -1.
         -4    1    1    2    0  501  0.20353545470E+00 -0.20159438930E+01  0.82381559369E+01  0.84836707681E+01  0.00000000000E+00 0.  1.
<mgrwt>
<rscale>  0 0.20261926E+01</rscale>
<asrwt>0</asrwt>
<pdfrwt beam="1">0</pdfrwt>
<pdfrwt beam="2">0</pdfrwt>
<totfact> 0.41281917E+12</totfact>
</mgrwt>
</event>
<event>
 4    2  0.2093759E+006  0.2138029E+01  0.7546771E-02  0.2893403E+00
         22   -1    0    0    0    0  0.00000000000E+00  0.00000000000E+00  0.83793994531E+00  0.83793994531E+00  0.00000000000E+00 0.  1.
         22   -1    0    0    0    0 -0.00000000000E+00 -0.00000000000E+00 -0.84046883522E+01  0.84046883522E+01  0.00000000000E+00 0. -1.
          4    1    1    2  501    0  0.12005209811E+01 -0.17691568527E+01 -0.65210045818E+01  0.68625554534E+01  0.00000000000E+00 0. -1.
         -4    1    1    2    0  501 -0.12005209811E+01  0.17691568527E+01 -0.10457438251E+01  0.23800728441E+01  0.00000000000E+00 0.  1.
<mgrwt>
<rscale>  0 0.21380287E+01</rscale>
<asrwt>0</asrwt>
<pdfrwt beam="1">0</pdfrwt>
<pdfrwt beam="2">0</pdfrwt>
<totfact> 0.23942036E+12</totfact>
</mgrwt>
</event>
<event>
 4    2  0.2093759E+006  0.3593475E+01  0.7546771E-02  0.2362463E+00
         22   -1    0    0    0    0  0.00000000000E+00  0.00000000000E+00  0.15330479041E+01  0.15330479041E+01  0.00000000000E+00 0. -1.
         22   -1    0    0    0    0 -0.00000000000E+00 -0.00000000000E+00 -0.15711140155E+02  0.15711140155E+02  0.00000000000E+00 0.  1.
          4    1    1    2  501    0 -0.72405678148E+00 -0.35197732408E+01 -0.12961415784E+02  0.13450329402E+02  0.00000000000E+00 0.  1.
         -4    1    1    2    0  501  0.72405678148E+00  0.35197732408E+01 -0.12166764673E+01  0.37938586578E+01  0.00000000000E+00 0. -1.
<mgrwt>
<rscale>  0 0.35934749E+01</rscale>
<asrwt>0</asrwt>
<pdfrwt beam="1">0</pdfrwt>
<pdfrwt beam="2">0</pdfrwt>
<totfact> 0.55989928E+11</totfact>
</mgrwt>
</event>
<event>
 4    2  0.2093759E+006  0.2222462E+01  0.7546771E-02  0.2845167E+00
         22   -1    0    0    0    0  0.00000000000E+00  0.00000000000E+00  0.47292430436E+02  0.47292430436E+02  0.00000000000E+00 0.  1.
         22   -1    0    0    0    0 -0.00000000000E+00 -0.00000000000E+00 -0.35970312687E+00  0.35970312687E+00  0.00000000000E+00 0. -1.
          4    1    1    2  501    0 -0.76146047668E+00 -0.20879453587E+01  0.33952164543E+01  0.40579345300E+01  0.00000000000E+00 0. -1.
         -4    1    1    2    0  501  0.76146047668E+00  0.20879453587E+01  0.43537510855E+02  0.43594199033E+02  0.00000000000E+00 0.  1.
<mgrwt>
<rscale>  0 0.22224621E+01</rscale>
<asrwt>0</asrwt>
<pdfrwt beam="1">0</pdfrwt>
<pdfrwt beam="2">0</pdfrwt>
<totfact> 0.71819981E+11</totfact>
</mgrwt>
</event>
<event>
 4    2  0.2093759E+006  0.2353778E+01  0.7546771E-02  0.2776729E+00
         22   -1    0    0    0    0  0.00000000000E+00  0.00000000000E+00  0.14928900314E+02  0.14928900314E+02  0.00000000000E+00 0. -1.
         22   -1    0    0    0    0 -0.00000000000E+00 -0.00000000000E+00 -0.37289740502E+00  0.37289740502E+00  0.00000000000E+00 0.  1.
          4    1    1    2  501    0  0.21212144488E+01  0.10201568352E+01  0.78076359646E+01  0.81547194963E+01  0.00000000000E+00 0. -1.
         -4    1    1    2    0  501 -0.21212144488E+01 -0.10201568352E+01  0.67483669439E+01  0.71470782223E+01  0.00000000000E+00 0.  1.
<mgrwt>
<rscale>  0 0.23537780E+01</rscale>
<asrwt>0</asrwt>
<pdfrwt beam="1">0</pdfrwt>
<pdfrwt beam="2">0</pdfrwt>
<totfact> 0.29748709E+12</totfact>
</mgrwt>
</event>
<event>
 4    2  0.2093759E+006  0.3144755E+01  0.7546771E-02  0.2478325E+00
         22   -1    0    0    0    0  0.00000000000E+00  0.00000000000E+00  0.15431271690E+02  0.15431271690E+02  0.00000000000E+00 0. -1.
         22   -1    0    0    0    0 -0.00000000000E+00 -0.00000000000E+00 -0.24858657638E+01  0.24858657638E+01  0.00000000000E+00 0.  1.
          4    1    1    2  501    0  0.94899332037E+00  0.29981489464E+01 -0.12451611268E+01  0.33822938457E+01  0.00000000000E+00 0.  1.
         -4    1    1    2    0  501 -0.94899332037E+00 -0.29981489464E+01  0.14190567053E+02  0.14534843608E+02  0.00000000000E+00 0. -1.
<mgrwt>
<rscale>  0 0.31447552E+01</rscale>
<asrwt>0</asrwt>
<pdfrwt beam="1">0</pdfrwt>
<pdfrwt beam="2">0</pdfrwt>
<totfact> 0.32723910E+11</totfact>
</mgrwt>
</event>
<event>
 4    2  0.2093759E+006  0.2005720E+01  0.7546771E-02  0.2976877E+00
         22   -1    0    0    0    0  0.00000000000E+00  0.00000000000E+00  0.10426517167E+01  0.10426517167E+01  0.00000000000E+00 0.  1.
         22   -1    0    0    0    0 -0.00000000000E+00 -0.00000000000E+00 -0.39216754068E+01  0.39216754068E+01  0.00000000000E+00 0. -1.
          4    1    1    2  501    0  0.85074907573E+00 -0.18163529807E+01 -0.11240885251E+01  0.22992362107E+01  0.00000000000E+00 0.  1.
         -4    1    1    2    0  501 -0.85074907573E+00  0.18163529807E+01 -0.17549351649E+01  0.26650909128E+01  0.00000000000E+00 0. -1.
<mgrwt>
<rscale>  0 0.20057199E+01</rscale>
<asrwt>0</asrwt>
<pdfrwt beam="1">0</pdfrwt>
<pdfrwt beam="2">0</pdfrwt>
<totfact> 0.46188269E+12</totfact>
</mgrwt>
</event>
<event>
 4    2  0.2093759E+006  0.2369430E+01  0.7546771E-02  0.2769051E+00
         22   -1    0    0    0    0  0.00000000000E+00  0.00000000000E+00  0.94205455077E+01  0.94205455077E+01  0.00000000000E+00 0.  1.
         22   -1    0    0    0    0 -0.00000000000E+00 -0.00000000000E+00 -0.35282152121E+01  0.35282152121E+01  0.00000000000E+00 0. -1.
          4    1    1    2  501    0  0.23450359142E+01  0.33912241201E+00 -0.29561462196E+01  0.37885350626E+01  0.00000000000E+00 0. -1.
         -4    1    1    2    0  501 -0.23450359142E+01 -0.33912241201E+00  0.88484765152E+01  0.91602256571E+01  0.00000000000E+00 0.  1.
<mgrwt>
<rscale>  0 0.23694298E+01</rscale>
<asrwt>0</asrwt>
<pdfrwt beam="1">0</pdfrwt>
<pdfrwt beam="2">0</pdfrwt>
<totfact> 0.39688827E+11</totfact>
</mgrwt>
</event>
<event>
 4    2  0.2093759E+006  0.2122188E+01  0.7546771E-02  0.2902864E+00
         22   -1    0    0    0    0  0.00000000000E+00  0.00000000000E+00  0.98234951067E+00  0.98234951067E+00  0.00000000000E+00 0. -1.
         22   -1    0    0    0    0 -0.00000000000E+00 -0.00000000000E+00 -0.78767914032E+01  0.78767914032E+01  0.00000000000E+00 0.  1.
          4    1    1    2  501    0 -0.18794199917E+01  0.98562802384E+00 -0.63109327491E+01  0.66581945203E+01  0.00000000000E+00 0.  1.
         -4    1    1    2    0  501  0.18794199917E+01 -0.98562802384E+00 -0.58350914341E+00  0.22009463935E+01  0.00000000000E+00 0. -1.
<mgrwt>
<rscale>  0 0.21221880E+01</rscale>
<asrwt>0</asrwt>
<pdfrwt beam="1">0</pdfrwt>
<pdfrwt beam="2">0</pdfrwt>
<totfact> 0.21592494E+12</totfact>
</mgrwt>
</event>
<event>
 4    2  0.2093759E+006  0.2344010E+01  0.7546771E-02  0.2781569E+00
         22   -1    0    0    0    0  0.00000000000E+00  0.00000000000E+00  0.13706972728E+02  0.13706972728E+02  0.00000000000E+00 0. -1.
         22   -1    0    0    0    0 -0.00000000000E+00 -0.00000000000E+00 -0.98358439308E+00  0.98358439308E+00  0.00000000000E+00 0.  1.
          4    1    1    2  501    0  0.19819572577E+01 -0.12514911961E+01  0.70790924869E+00  0.24485751550E+01  0.00000000000E+00 0.  1.
         -4    1    1    2    0  501 -0.19819572577E+01  0.12514911961E+01  0.12015479087E+02  0.12241981966E+02  0.00000000000E+00 0. -1.
<mgrwt>
<rscale>  0 0.23440104E+01</rscale>
<asrwt>0</asrwt>
<pdfrwt beam="1">0</pdfrwt>
<pdfrwt beam="2">0</pdfrwt>
<totfact> 0.11012669E+12</totfact>
</mgrwt>
</event>
<event>
 4    2  0.2093759E+006  0.2123684E+01  0.7546771E-02  0.2901964E+00
         22   -1    0    0    0    0  0.00000000000E+00  0.00000000000E+00  0.10787717626E+01  0.10787717626E+01  0.00000000000E+00 0. -1.
         22   -1    0    0    0    0 -0.00000000000E+00 -0.00000000000E+00 -0.51616617944E+01  0.51616617944E+01  0.00000000000E+00 0.  1.
          4    1    1    2  501    0  0.18242187621E+01  0.10873176597E+01 -0.34016784349E+01  0.40101683206E+01  0.00000000000E+00 0.  1.
         -4    1    1    2    0  501 -0.18242187621E+01 -0.10873176597E+01 -0.68121159690E+00  0.22302652364E+01  0.00000000000E+00 0. -1.
<mgrwt>
<rscale>  0 0.21236840E+01</rscale>
<asrwt>0</asrwt>
<pdfrwt beam="1">0</pdfrwt>
<pdfrwt beam="2">0</pdfrwt>
<totfact> 0.32120367E+12</totfact>
</mgrwt>
</event>
<event>
 4    2  0.2093759E+006  0.3379310E+01  0.7546771E-02  0.2414391E+00
         22   -1    0    0    0    0  0.00000000000E+00  0.00000000000E+00  0.20714909041E+01  0.20714909041E+01  0.00000000000E+00 0.  1.
         22   -1    0    0    0    0 -0.00000000000E+00 -0.00000000000E+00 -0.83404556741E+01  0.83404556741E+01  0.00000000000E+00 0. -1.
          4    1    1    2  501    0 -0.27932202110E+01  0.19020144057E+01 -0.61657163570E+01  0.70310593897E+01  0.00000000000E+00 0.  1.
         -4    1    1    2    0  501  0.27932202110E+01 -0.19020144057E+01 -0.10324841306E+00  0.33808871885E+01  0.00000000000E+00 0. -1.
<mgrwt>
<rscale>  0 0.33793103E+01</rscale>
<asrwt>0</asrwt>
<pdfrwt beam="1">0</pdfrwt>
<pdfrwt beam="2">0</pdfrwt>
<totfact> 0.85501882E+11</totfact>
</mgrwt>
</event>
<event>
 4    2  0.2093759E+006  0.2234808E+01  0.7546771E-02  0.2838407E+00
         22   -1    0    0    0    0  0.00000000000E+00  0.00000000000E+00  0.22265447109E+01  0.22265447109E+01  0.00000000000E+00 0. -1.
         22   -1    0    0    0    0 -0.00000000000E+00 -0.00000000000E+00 -0.23180527790E+01  0.23180527790E+01  0.00000000000E+00 0.  1.
          4    1    1    2  501    0  0.22115135411E+01  0.32183051899E+00  0.36283967244E+00  0.22640714771E+01  0.00000000000E+00 0.  1.
         -4    1    1    2    0  501 -0.22115135411E+01 -0.32183051899E+00 -0.45434774056E+00  0.22805260128E+01  0.00000000000E+00 0. -1.
<mgrwt>
<rscale>  0 0.22348081E+01</rscale>
<asrwt>0</asrwt>
<pdfrwt beam="1">0</pdfrwt>
<pdfrwt beam="2">0</pdfrwt>
<totfact> 0.35651223E+12</totfact>
</mgrwt>
</event>
<event>
 4    2  0.2093759E+006  0.3853423E+01  0.7546771E-02  0.2306220E+00
         22   -1    0    0    0    0  0.00000000000E+00  0.00000000000E+00  0.30396161339E+00  0.30396161339E+00  0.00000000000E+00 0.  1.
         22   -1    0    0    0    0 -0.00000000000E+00 -0.00000000000E+00 -0.50869205100E+02  0.50869205100E+02  0.00000000000E+00 0. -1.
          4    1    1    2  501    0  0.25401600166E+01  0.28976645098E+01 -0.30378886544E+02  0.30622305925E+02  0.00000000000E+00 0. -1.
         -4    1    1    2    0  501 -0.25401600166E+01 -0.28976645098E+01 -0.20186356942E+02  0.20550860788E+02  0.00000000000E+00 0.  1.
<mgrwt>
<rscale>  0 0.38534235E+01</rscale>
<asrwt>0</asrwt>
<pdfrwt beam="1">0</pdfrwt>
<pdfrwt beam="2">0</pdfrwt>
<totfact> 0.78827398E+11</totfact>
</mgrwt>
</event>
<event>
 4    2  0.2093759E+006  0.3430824E+01  0.7546771E-02  0.2401384E+00
         22   -1    0    0    0    0  0.00000000000E+00  0.00000000000E+00  0.21246632525E+01  0.21246632525E+01  0.00000000000E+00 0. -1.
         22   -1    0    0    0    0 -0.00000000000E+00 -0.00000000000E+00 -0.57276914919E+01  0.57276914919E+01  0.00000000000E+00 0.  1.
          4    1    1    2  501    0 -0.32672055684E+01 -0.10468620860E+01 -0.25123134795E+01  0.42523254194E+01  0.00000000000E+00 0. -1.
         -4    1    1    2    0  501  0.32672055684E+01  0.10468620860E+01 -0.10907147599E+01  0.36000293249E+01  0.00000000000E+00 0.  1.
<mgrwt>
<rscale>  0 0.34308239E+01</rscale>
<asrwt>0</asrwt>
<pdfrwt beam="1">0</pdfrwt>
<pdfrwt beam="2">0</pdfrwt>
<totfact> 0.13013077E+12</totfact>
</mgrwt>
</event>
<event>
 4    2  0.2093759E+006  0.2409933E+01  0.7546771E-02  0.2749620E+00
         22   -1    0    0    0    0  0.00000000000E+00  0.00000000000E+00  0.88976841689E+01  0.88976841689E+01  0.00000000000E+00 0. -1.
         22   -1    0    0    0    0 -0.00000000000E+00 -0.00000000000E+00 -0.65496522651E+00  0.65496522651E+00  0.00000000000E+00 0.  1.
          4    1    1    2  501    0  0.24097221415E+01  0.31892038767E-01  0.38422804364E+01  0.45355150593E+01  0.00000000000E+00 0.  1.
         -4    1    1    2    0  501 -0.24097221415E+01 -0.31892038767E-01  0.44004385060E+01  0.50171343361E+01  0.00000000000E+00 0. -1.
<mgrwt>
<rscale>  0 0.24099332E+01</rscale>
<asrwt>0</asrwt>
<pdfrwt beam="1">0</pdfrwt>
<pdfrwt beam="2">0</pdfrwt>
<totfact> 0.29574971E+12</totfact>
</mgrwt>
</event>
<event>
 4    2  0.2093759E+006  0.2223415E+01  0.7546771E-02  0.2844643E+00
         22   -1    0    0    0    0  0.00000000000E+00  0.00000000000E+00  0.54362407689E+01  0.54362407689E+01  0.00000000000E+00 0.  1.
         22   -1    0    0    0    0 -0.00000000000E+00 -0.00000000000E+00 -0.20483348502E+01  0.20483348502E+01  0.00000000000E+00 0. -1.
          4    1    1    2  501    0 -0.16668866483E+01 -0.14714156423E+01 -0.10966055856E+01  0.24791367250E+01  0.00000000000E+00 0. -1.
         -4    1    1    2    0  501  0.16668866483E+01  0.14714156423E+01  0.44845115043E+01  0.50054388942E+01  0.00000000000E+00 0.  1.
<mgrwt>
<rscale>  0 0.22234152E+01</rscale>
<asrwt>0</asrwt>
<pdfrwt beam="1">0</pdfrwt>
<pdfrwt beam="2">0</pdfrwt>
<totfact> 0.14444451E+12</totfact>
</mgrwt>
</event>
<event>
 4    2  0.2093759E+006  0.2459139E+01  0.7546771E-02  0.2726823E+00
         22   -1    0    0    0    0  0.00000000000E+00  0.00000000000E+00  0.63840964411E+01  0.63840964411E+01  0.00000000000E+00 0. -1.
         22   -1    0    0    0    0 -0.00000000000E+00 -0.00000000000E+00 -0.16938874836E+01  0.16938874836E+01  0.00000000000E+00 0.  1.
          4    1    1    2  501    0  0.20560600366E+01  0.13490661777E+01 -0.33643608361E+00  0.24820458626E+01  0.00000000000E+00 0.  1.
         -4    1    1    2    0  501 -0.20560600366E+01 -0.13490661777E+01  0.50266450411E+01  0.55959380621E+01  0.00000000000E+00 0. -1.
<mgrwt>
<rscale>  0 0.24591386E+01</rscale>
<asrwt>0</asrwt>
<pdfrwt beam="1">0</pdfrwt>
<pdfrwt beam="2">0</pdfrwt>
<totfact> 0.14860586E+12</totfact>
</mgrwt>
</event>
<event>
 4    2  0.2093759E+006  0.2091378E+01  0.7546771E-02  0.2921663E+00
         22   -1    0    0    0    0  0.00000000000E+00  0.00000000000E+00  0.45490385285E+00  0.45490385285E+00  0.00000000000E+00 0.  1.
         22   -1    0    0    0    0 -0.00000000000E+00 -0.00000000000E+00 -0.34623382463E+02  0.34623382463E+02  0.00000000000E+00 0. -1.
          4    1    1    2  501    0  0.20819554731E+01  0.19829980429E+00 -0.31990447225E+02  0.32058736329E+02  0.00000000000E+00 0. -1.
         -4    1    1    2    0  501 -0.20819554731E+01 -0.19829980429E+00 -0.21780313854E+01  0.30195499864E+01  0.00000000000E+00 0.  1.
<mgrwt>
<rscale>  0 0.20913779E+01</rscale>
<asrwt>0</asrwt>
<pdfrwt beam="1">0</pdfrwt>
<pdfrwt beam="2">0</pdfrwt>
<totfact> 0.82669960E+11</totfact>
</mgrwt>
</event>
<event>
 4    2  0.2093759E+006  0.2948088E+01  0.7546771E-02  0.2538843E+00
         22   -1    0    0    0    0  0.00000000000E+00  0.00000000000E+00  0.37537494127E+00  0.37537494127E+00  0.00000000000E+00 0.  1.
         22   -1    0    0    0    0 -0.00000000000E+00 -0.00000000000E+00 -0.28251718788E+02  0.28251718788E+02  0.00000000000E+00 0. -1.
          4    1    1    2  501    0 -0.11653156146E+01  0.27080001254E+01 -0.78577157104E+01  0.83925515397E+01  0.00000000000E+00 0. -1.
         -4    1    1    2    0  501  0.11653156146E+01 -0.27080001254E+01 -0.20018628136E+02  0.20234542190E+02  0.00000000000E+00 0.  1.
<mgrwt>
<rscale>  0 0.29480884E+01</rscale>
<asrwt>0</asrwt>
<pdfrwt beam="1">0</pdfrwt>
<pdfrwt beam="2">0</pdfrwt>
<totfact> 0.13311337E+12</totfact>
</mgrwt>
</event>
<event>
 4    2  0.2093759E+006  0.2965174E+01  0.7546771E-02  0.2533301E+00
         22   -1    0    0    0    0  0.00000000000E+00  0.00000000000E+00  0.23313804259E+01  0.23313804259E+01  0.00000000000E+00 0. -1.
         22   -1    0    0    0    0 -0.00000000000E+00 -0.00000000000E+00 -0.40386682075E+01  0.40386682075E+01  0.00000000000E+00 0.  1.
          4    1    1    2  501    0  0.12419276090E+01  0.26925587736E+01 -0.16731944293E+01  0.34046786241E+01  0.00000000000E+00 0.  1.
         -4    1    1    2    0  501 -0.12419276090E+01 -0.26925587736E+01 -0.34093352317E-01  0.29653700093E+01  0.00000000000E+00 0. -1.
<mgrwt>
<rscale>  0 0.29651740E+01</rscale>
<asrwt>0</asrwt>
<pdfrwt beam="1">0</pdfrwt>
<pdfrwt beam="2">0</pdfrwt>
<totfact> 0.17663218E+12</totfact>
</mgrwt>
</event>
<event>
 4    2  0.2093759E+006  0.2599265E+01  0.7546771E-02  0.2666321E+00
         22   -1    0    0    0    0  0.00000000000E+00  0.00000000000E+00  0.50924358910E+01  0.50924358910E+01  0.00000000000E+00 0.  1.
         22   -1    0    0    0    0 -0.00000000000E+00 -0.00000000000E+00 -0.14147068484E+01  0.14147068484E+01  0.00000000000E+00 0. -1.
          4    1    1    2  501    0  0.24044267381E-01  0.25991539028E+01  0.26503183446E+01  0.37121915986E+01  0.00000000000E+00 0. -1.
         -4    1    1    2    0  501 -0.24044267381E-01 -0.25991539028E+01  0.10274106980E+01  0.27949511408E+01  0.00000000000E+00 0.  1.
<mgrwt>
<rscale>  0 0.25992651E+01</rscale>
<asrwt>0</asrwt>
<pdfrwt beam="1">0</pdfrwt>
<pdfrwt beam="2">0</pdfrwt>
<totfact> 0.23921343E+12</totfact>
</mgrwt>
</event>
<event>
 4    2  0.2093759E+006  0.3402967E+01  0.7546771E-02  0.2408375E+00
         22   -1    0    0    0    0  0.00000000000E+00  0.00000000000E+00  0.41225455133E+00  0.41225455133E+00  0.00000000000E+00 0.  1.
         22   -1    0    0    0    0 -0.00000000000E+00 -0.00000000000E+00 -0.28433590299E+02  0.28433590299E+02  0.00000000000E+00 0. -1.
          4    1    1    2  501    0  0.29737419718E+01  0.16544013732E+01 -0.15596389814E+02  0.15963319218E+02  0.00000000000E+00 0. -1.
         -4    1    1    2    0  501 -0.29737419718E+01 -0.16544013732E+01 -0.12424945933E+02  0.12882525632E+02  0.00000000000E+00 0.  1.
<mgrwt>
<rscale>  0 0.34029671E+01</rscale>
<asrwt>0</asrwt>
<pdfrwt beam="1">0</pdfrwt>
<pdfrwt beam="2">0</pdfrwt>
<totfact> 0.11881811E+12</totfact>
</mgrwt>
</event>
<event>
 4    2  0.2093759E+006  0.5007613E+01  0.7546771E-02  0.2122096E+00
         22   -1    0    0    0    0  0.00000000000E+00  0.00000000000E+00  0.12444620535E+01  0.12444620535E+01  0.00000000000E+00 0.  1.
         22   -1    0    0    0    0 -0.00000000000E+00 -0.00000000000E+00 -0.22101926950E+02  0.22101926950E+02  0.00000000000E+00 0. -1.
          4    1    1    2  501    0  0.26724053506E+01 -0.42349072815E+01 -0.69599151129E+01  0.85741826677E+01  0.00000000000E+00 0. -1.
         -4    1    1    2    0  501 -0.26724053506E+01  0.42349072815E+01 -0.13897549784E+02  0.14772206336E+02  0.00000000000E+00 0.  1.
<mgrwt>
<rscale>  0 0.50076132E+01</rscale>
<asrwt>0</asrwt>
<pdfrwt beam="1">0</pdfrwt>
<pdfrwt beam="2">0</pdfrwt>
<totfact> 0.46552058E+11</totfact>
</mgrwt>
</event>
<event>
 4    2  0.2093759E+006  0.2559444E+01  0.7546771E-02  0.2682889E+00
         22   -1    0    0    0    0  0.00000000000E+00  0.00000000000E+00  0.38596944908E+01  0.38596944908E+01  0.00000000000E+00 0.  1.
         22   -1    0    0    0    0 -0.00000000000E+00 -0.00000000000E+00 -0.17375981207E+01  0.17375981207E+01  0.00000000000E+00 0. -1.
          4    1    1    2  501    0  0.10920711597E+01  0.23147649303E+01  0.63443050487E+00  0.26369031393E+01  0.00000000000E+00 0. -1.
         -4    1    1    2    0  501 -0.10920711597E+01 -0.23147649303E+01  0.14876658652E+01  0.29603894722E+01  0.00000000000E+00 0.  1.
<mgrwt>
<rscale>  0 0.25594445E+01</rscale>
<asrwt>0</asrwt>
<pdfrwt beam="1">0</pdfrwt>
<pdfrwt beam="2">0</pdfrwt>
<totfact> 0.26182308E+12</totfact>
</mgrwt>
</event>
<event>
 4    2  0.2093759E+006  0.2172692E+01  0.7546771E-02  0.2873164E+00
         22   -1    0    0    0    0  0.00000000000E+00  0.00000000000E+00  0.28784531438E+01  0.28784531438E+01  0.00000000000E+00 0.  1.
         22   -1    0    0    0    0 -0.00000000000E+00 -0.00000000000E+00 -0.75170352414E+01  0.75170352414E+01  0.00000000000E+00 0. -1.
          4    1    1    2  501    0  0.12207775496E+01  0.17973019109E+01 -0.69152026814E+01  0.72484908849E+01  0.00000000000E+00 0. -1.
         -4    1    1    2    0  501 -0.12207775496E+01 -0.17973019109E+01  0.22766205838E+01  0.31469975003E+01  0.00000000000E+00 0.  1.
<mgrwt>
<rscale>  0 0.21726923E+01</rscale>
<asrwt>0</asrwt>
<pdfrwt beam="1">0</pdfrwt>
<pdfrwt beam="2">0</pdfrwt>
<totfact> 0.66077263E+11</totfact>
</mgrwt>
</event>
<event>
 4    2  0.2093759E+006  0.4071372E+01  0.7546771E-02  0.2263856E+00
         22   -1    0    0    0    0  0.00000000000E+00  0.00000000000E+00  0.13886190545E+01  0.13886190545E+01  0.00000000000E+00 0.  1.
         22   -1    0    0    0    0 -0.00000000000E+00 -0.00000000000E+00 -0.11939079786E+02  0.11939079786E+02  0.00000000000E+00 0. -1.
          4    1    1    2  501    0  0.61226590028E+00  0.40250715924E+01 -0.51892052973E+01  0.65957503344E+01  0.00000000000E+00 0. -1.
         -4    1    1    2    0  501 -0.61226590028E+00 -0.40250715924E+01 -0.53612554343E+01  0.67319485061E+01  0.00000000000E+00 0.  1.
<mgrwt>
<rscale>  0 0.40713721E+01</rscale>
<asrwt>0</asrwt>
<pdfrwt beam="1">0</pdfrwt>
<pdfrwt beam="2">0</pdfrwt>
<totfact> 0.87842948E+11</totfact>
</mgrwt>
</event>
<event>
 4    2  0.2093759E+006  0.4723899E+01  0.7546771E-02  0.2157477E+00
         22   -1    0    0    0    0  0.00000000000E+00  0.00000000000E+00  0.10060268510E+02  0.10060268510E+02  0.00000000000E+00 0. -1.
         22   -1    0    0    0    0 -0.00000000000E+00 -0.00000000000E+00 -0.27011442542E+01  0.27011442542E+01  0.00000000000E+00 0.  1.
          4    1    1    2  501    0  0.40107858329E+01 -0.24957603657E+01  0.98142420536E+00  0.48247711107E+01  0.00000000000E+00 0.  1.
         -4    1    1    2    0  501 -0.40107858329E+01  0.24957603657E+01  0.63777000500E+01  0.79366416530E+01  0.00000000000E+00 0. -1.
<mgrwt>
<rscale>  0 0.47238991E+01</rscale>
<asrwt>0</asrwt>
<pdfrwt beam="1">0</pdfrwt>
<pdfrwt beam="2">0</pdfrwt>
<totfact> 0.50094188E+11</totfact>
</mgrwt>
</event>
<event>
 4    2  0.2093759E+006  0.3086750E+01  0.7546771E-02  0.2495457E+00
         22   -1    0    0    0    0  0.00000000000E+00  0.00000000000E+00  0.33307119421E+01  0.33307119421E+01  0.00000000000E+00 0. -1.
         22   -1    0    0    0    0 -0.00000000000E+00 -0.00000000000E+00 -0.43574788777E+02  0.43574788777E+02  0.00000000000E+00 0.  1.
          4    1    1    2  501    0  0.19197009220E+00 -0.30807751327E+01 -0.42791892192E+02  0.42903077574E+02  0.00000000000E+00 0.  1.
         -4    1    1    2    0  501 -0.19197009220E+00  0.30807751327E+01  0.25478153576E+01  0.40024231449E+01  0.00000000000E+00 0. -1.
<mgrwt>
<rscale>  0 0.30867504E+01</rscale>
<asrwt>0</asrwt>
<pdfrwt beam="1">0</pdfrwt>
<pdfrwt beam="2">0</pdfrwt>
<totfact> 0.62523018E+10</totfact>
</mgrwt>
</event>
<event>
 4    2  0.2093759E+006  0.2279973E+01  0.7546771E-02  0.2814272E+00
         22   -1    0    0    0    0  0.00000000000E+00  0.00000000000E+00  0.12613297282E+00  0.12613297282E+00  0.00000000000E+00 0. -1.
         22   -1    0    0    0    0 -0.00000000000E+00 -0.00000000000E+00 -0.43502093677E+02  0.43502093677E+02  0.00000000000E+00 0.  1.
          4    1    1    2  501    0 -0.15149105171E+01 -0.17039135951E+01 -0.16683644476E+02  0.16838713383E+02  0.00000000000E+00 0. -1.
         -4    1    1    2    0  501  0.15149105171E+01  0.17039135951E+01 -0.26692316229E+02  0.26789513267E+02  0.00000000000E+00 0.  1.
<mgrwt>
<rscale>  0 0.22799727E+01</rscale>
<asrwt>0</asrwt>
<pdfrwt beam="1">0</pdfrwt>
<pdfrwt beam="2">0</pdfrwt>
<totfact> 0.25817583E+12</totfact>
</mgrwt>
</event>
<event>
 4    2  0.2093759E+006  0.5656106E+01  0.7546771E-02  0.2051974E+00
         22   -1    0    0    0    0  0.00000000000E+00  0.00000000000E+00  0.81968868515E+02  0.81968868515E+02  0.00000000000E+00 0. -1.
         22   -1    0    0    0    0 -0.00000000000E+00 -0.00000000000E+00 -0.65588229838E+00  0.65588229838E+00  0.00000000000E+00 0.  1.
          4    1    1    2  501    0 -0.90672606027E+00 -0.55829547675E+01  0.14367383059E+02  0.15440635740E+02  0.00000000000E+00 0.  1.
         -4    1    1    2    0  501  0.90672606027E+00  0.55829547675E+01  0.66945603158E+02  0.67184115074E+02  0.00000000000E+00 0. -1.
<mgrwt>
<rscale>  0 0.56561061E+01</rscale>
<asrwt>0</asrwt>
<pdfrwt beam="1">0</pdfrwt>
<pdfrwt beam="2">0</pdfrwt>
<totfact> 0.17412419E+11</totfact>
</mgrwt>
</event>
<event>
 4    2  0.2093759E+006  0.2130399E+01  0.7546771E-02  0.2897943E+00
         22   -1    0    0    0    0  0.00000000000E+00  0.00000000000E+00  0.57052833247E+01  0.57052833247E+01  0.00000000000E+00 0. -1.
         22   -1    0    0    0    0 -0.00000000000E+00 -0.00000000000E+00 -0.26423546692E+01  0.26423546692E+01  0.00000000000E+00 0.  1.
          4    1    1    2  501    0  0.10256714158E+01  0.18672435804E+01 -0.19579572078E+01  0.28934748780E+01  0.00000000000E+00 0.  1.
         -4    1    1    2    0  501 -0.10256714158E+01 -0.18672435804E+01  0.50208858634E+01  0.54541631159E+01  0.00000000000E+00 0. -1.
<mgrwt>
<rscale>  0 0.21303991E+01</rscale>
<asrwt>0</asrwt>
<pdfrwt beam="1">0</pdfrwt>
<pdfrwt beam="2">0</pdfrwt>
<totfact> 0.10147158E+12</totfact>
</mgrwt>
</event>
<event>
 4    2  0.2093759E+006  0.2484208E+01  0.7546771E-02  0.2715534E+00
         22   -1    0    0    0    0  0.00000000000E+00  0.00000000000E+00  0.97842380305E+01  0.97842380305E+01  0.00000000000E+00 0. -1.
         22   -1    0    0    0    0 -0.00000000000E+00 -0.00000000000E+00 -0.12145285332E+01  0.12145285332E+01  0.00000000000E+00 0.  1.
          4    1    1    2  501    0 -0.24841674789E+01  0.14142248570E-01  0.47210103126E+00  0.25286691065E+01  0.00000000000E+00 0. -1.
         -4    1    1    2    0  501  0.24841674789E+01 -0.14142248570E-01  0.80976084660E+01  0.84700974572E+01  0.00000000000E+00 0.  1.
<mgrwt>
<rscale>  0 0.24842077E+01</rscale>
<asrwt>0</asrwt>
<pdfrwt beam="1">0</pdfrwt>
<pdfrwt beam="2">0</pdfrwt>
<totfact> 0.13044477E+12</totfact>
</mgrwt>
</event>
<event>
 4    2  0.2093759E+006  0.2498501E+01  0.7546771E-02  0.2709191E+00
         22   -1    0    0    0    0  0.00000000000E+00  0.00000000000E+00  0.22711505030E+02  0.22711505030E+02  0.00000000000E+00 0.  1.
         22   -1    0    0    0    0 -0.00000000000E+00 -0.00000000000E+00 -0.33944713614E+00  0.33944713614E+00  0.00000000000E+00 0. -1.
          4    1    1    2  501    0 -0.19152325524E+01  0.16044910937E+01  0.16213416780E+02  0.16404797807E+02  0.00000000000E+00 0. -1.
         -4    1    1    2    0  501  0.19152325524E+01 -0.16044910937E+01  0.61586411139E+01  0.66461543594E+01  0.00000000000E+00 0.  1.
<mgrwt>
<rscale>  0 0.24985010E+01</rscale>
<asrwt>0</asrwt>
<pdfrwt beam="1">0</pdfrwt>
<pdfrwt beam="2">0</pdfrwt>
<totfact> 0.19632882E+12</totfact>
</mgrwt>
</event>
<event>
 4    2  0.2093759E+006  0.3524231E+01  0.7546771E-02  0.2378650E+00
         22   -1    0    0    0    0  0.00000000000E+00  0.00000000000E+00  0.35657443743E+02  0.35657443743E+02  0.00000000000E+00 0. -1.
         22   -1    0    0    0    0 -0.00000000000E+00 -0.00000000000E+00 -0.44663070420E+00  0.44663070420E+00  0.00000000000E+00 0.  1.
          4    1    1    2  501    0  0.24806965650E+01 -0.25032672326E+01  0.91360143277E+01  0.97921887278E+01  0.00000000000E+00 0.  1.
         -4    1    1    2    0  501 -0.24806965650E+01  0.25032672326E+01  0.26074798711E+02  0.26311885719E+02  0.00000000000E+00 0. -1.
<mgrwt>
<rscale>  0 0.35242307E+01</rscale>
<asrwt>0</asrwt>
<pdfrwt beam="1">0</pdfrwt>
<pdfrwt beam="2">0</pdfrwt>
<totfact> 0.81271533E+11</totfact>
</mgrwt>
</event>
<event>
 4    2  0.2093759E+006  0.2504962E+01  0.7546771E-02  0.2706347E+00
         22   -1    0    0    0    0  0.00000000000E+00  0.00000000000E+00  0.53451692476E+00  0.53451692476E+00  0.00000000000E+00 0. -1.
         22   -1    0    0    0    0 -0.00000000000E+00 -0.00000000000E+00 -0.11740158365E+02  0.11740158365E+02  0.00000000000E+00 0.  1.
          4    1    1    2  501    0 -0.18182704134E+01 -0.17229994472E+01 -0.56564385552E+01  0.61862857613E+01  0.00000000000E+00 0. -1.
         -4    1    1    2    0  501  0.18182704134E+01  0.17229994472E+01 -0.55492028849E+01  0.60883895283E+01  0.00000000000E+00 0.  1.
<mgrwt>
<rscale>  0 0.25049620E+01</rscale>
<asrwt>0</asrwt>
<pdfrwt beam="1">0</pdfrwt>
<pdfrwt beam="2">0</pdfrwt>
<totfact> 0.26603116E+12</totfact>
</mgrwt>
</event>
<event>
 4    2  0.2093759E+006  0.2214215E+01  0.7546771E-02  0.2849723E+00
         22   -1    0    0    0    0  0.00000000000E+00  0.00000000000E+00  0.38282987448E+01  0.38282987448E+01  0.00000000000E+00 0.  1.
         22   -1    0    0    0    0 -0.00000000000E+00 -0.00000000000E+00 -0.13667707566E+01  0.13667707566E+01  0.00000000000E+00 0. -1.
          4    1    1    2  501    0  0.20031534292E+01  0.94346415382E+00  0.57877125845E+00  0.22886075330E+01  0.00000000000E+00 0. -1.
         -4    1    1    2    0  501 -0.20031534292E+01 -0.94346415382E+00  0.18827567298E+01  0.29064619684E+01  0.00000000000E+00 0.  1.
<mgrwt>
<rscale>  0 0.22142150E+01</rscale>
<asrwt>0</asrwt>
<pdfrwt beam="1">0</pdfrwt>
<pdfrwt beam="2">0</pdfrwt>
<totfact> 0.34848475E+12</totfact>
</mgrwt>
</event>
<event>
 4    2  0.2093759E+006  0.2502172E+01  0.7546771E-02  0.2707573E+00
         22   -1    0    0    0    0  0.00000000000E+00  0.00000000000E+00  0.86243434602E+01  0.86243434602E+01  0.00000000000E+00 0. -1.
         22   -1    0    0    0    0 -0.00000000000E+00 -0.00000000000E+00 -0.91240792982E+00  0.91240792982E+00  0.00000000000E+00 0.  1.
          4    1    1    2  501    0  0.25018952871E+01  0.37245004005E-01  0.60115419907E+01  0.65114901769E+01  0.00000000000E+00 0. -1.
         -4    1    1    2    0  501 -0.25018952871E+01 -0.37245004005E-01  0.17003935397E+01  0.30252612131E+01  0.00000000000E+00 0.  1.
<mgrwt>
<rscale>  0 0.25021725E+01</rscale>
<asrwt>0</asrwt>
<pdfrwt beam="1">0</pdfrwt>
<pdfrwt beam="2">0</pdfrwt>
<totfact> 0.21065300E+12</totfact>
</mgrwt>
</event>
<event>
 4    2  0.2093759E+006  0.2702762E+01  0.7546771E-02  0.2625370E+00
         22   -1    0    0    0    0  0.00000000000E+00  0.00000000000E+00  0.43784577085E+00  0.43784577085E+00  0.00000000000E+00 0. -1.
         22   -1    0    0    0    0 -0.00000000000E+00 -0.00000000000E+00 -0.20096722183E+02  0.20096722183E+02  0.00000000000E+00 0.  1.
          4    1    1    2  501    0  0.24844457510E+01 -0.10641660531E+01 -0.14060581945E+02  0.14317991643E+02  0.00000000000E+00 0.  1.
         -4    1    1    2    0  501 -0.24844457510E+01  0.10641660531E+01 -0.55982944670E+01  0.62165763100E+01  0.00000000000E+00 0. -1.
<mgrwt>
<rscale>  0 0.27027616E+01</rscale>
<asrwt>0</asrwt>
<pdfrwt beam="1">0</pdfrwt>
<pdfrwt beam="2">0</pdfrwt>
<totfact> 0.17182062E+12</totfact>
</mgrwt>
</event>
<event>
 4    2  0.2093759E+006  0.2360433E+01  0.7546771E-02  0.2773453E+00
         22   -1    0    0    0    0  0.00000000000E+00  0.00000000000E+00  0.35863220562E+00  0.35863220562E+00  0.00000000000E+00 0.  1.
         22   -1    0    0    0    0 -0.00000000000E+00 -0.00000000000E+00 -0.15903397535E+02  0.15903397535E+02  0.00000000000E+00 0. -1.
          4    1    1    2  501    0 -0.14674313749E+01 -0.18488612389E+01 -0.90085540295E+01  0.93126627998E+01  0.00000000000E+00 0. -1.
         -4    1    1    2    0  501  0.14674313749E+01  0.18488612389E+01 -0.65362112996E+01  0.69493669405E+01  0.00000000000E+00 0.  1.
<mgrwt>
<rscale>  0 0.23604327E+01</rscale>
<asrwt>0</asrwt>
<pdfrwt beam="1">0</pdfrwt>
<pdfrwt beam="2">0</pdfrwt>
<totfact> 0.28752659E+12</totfact>
</mgrwt>
</event>
<event>
 4    2  0.2093759E+006  0.2189170E+01  0.7546771E-02  0.2863759E+00
         22   -1    0    0    0    0  0.00000000000E+00  0.00000000000E+00  0.92054014391E+01  0.92054014391E+01  0.00000000000E+00 0.  1.
         22   -1    0    0    0    0 -0.00000000000E+00 -0.00000000000E+00 -0.58759969358E+00  0.58759969358E+00  0.00000000000E+00 0. -1.
          4    1    1    2  501    0 -0.10292391062E+00  0.21867495467E+01  0.26556683940E+01  0.34416626114E+01  0.00000000000E+00 0.  1.
         -4    1    1    2    0  501  0.10292391062E+00 -0.21867495467E+01  0.59621333514E+01  0.63513385213E+01  0.00000000000E+00 0. -1.
<mgrwt>
<rscale>  0 0.21891704E+01</rscale>
<asrwt>0</asrwt>
<pdfrwt beam="1">0</pdfrwt>
<pdfrwt beam="2">0</pdfrwt>
<totfact> 0.32099449E+12</totfact>
</mgrwt>
</event>
<event>
 4    2  0.2093759E+006  0.4051063E+01  0.7546771E-02  0.2267639E+00
         22   -1    0    0    0    0  0.00000000000E+00  0.00000000000E+00  0.81184761777E+01  0.81184761777E+01  0.00000000000E+00 0.  1.
         22   -1    0    0    0    0 -0.00000000000E+00 -0.00000000000E+00 -0.60791403489E+01  0.60791403489E+01  0.00000000000E+00 0. -1.
          4    1    1    2  501    0 -0.95113764241E+00 -0.39378227605E+01 -0.47800076345E+01  0.62657468744E+01  0.00000000000E+00 0. -1.
         -4    1    1    2    0  501  0.95113764241E+00  0.39378227605E+01  0.68193434634E+01  0.79318696522E+01  0.00000000000E+00 0.  1.
<mgrwt>
<rscale>  0 0.40510629E+01</rscale>
<asrwt>0</asrwt>
<pdfrwt beam="1">0</pdfrwt>
<pdfrwt beam="2">0</pdfrwt>
<totfact> 0.24965842E+11</totfact>
</mgrwt>
</event>
<event>
 4    2  0.2093759E+006  0.3186807E+01  0.7546771E-02  0.2466252E+00
         22   -1    0    0    0    0  0.00000000000E+00  0.00000000000E+00  0.28607951859E+01  0.28607951859E+01  0.00000000000E+00 0. -1.
         22   -1    0    0    0    0 -0.00000000000E+00 -0.00000000000E+00 -0.36738486647E+01  0.36738486647E+01  0.00000000000E+00 0.  1.
          4    1    1    2  501    0 -0.15577858237E+01 -0.27801151531E+01  0.19344341227E+00  0.31926724371E+01  0.00000000000E+00 0. -1.
         -4    1    1    2    0  501  0.15577858237E+01  0.27801151531E+01 -0.10064968911E+01  0.33419714135E+01  0.00000000000E+00 0.  1.
<mgrwt>
<rscale>  0 0.31868067E+01</rscale>
<asrwt>0</asrwt>
<pdfrwt beam="1">0</pdfrwt>
<pdfrwt beam="2">0</pdfrwt>
<totfact> 0.15557946E+12</totfact>
</mgrwt>
</event>
<event>
 4    2  0.2093759E+006  0.2015422E+01  0.7546771E-02  0.2970393E+00
         22   -1    0    0    0    0  0.00000000000E+00  0.00000000000E+00  0.26981195761E+00  0.26981195761E+00  0.00000000000E+00 0. -1.
         22   -1    0    0    0    0 -0.00000000000E+00 -0.00000000000E+00 -0.24001785520E+02  0.24001785520E+02  0.00000000000E+00 0.  1.
          4    1    1    2  501    0  0.20020027729E+01  0.23218635617E+00 -0.19275480024E+02  0.19380558706E+02  0.00000000000E+00 0.  1.
         -4    1    1    2    0  501 -0.20020027729E+01 -0.23218635617E+00 -0.44564935388E+01  0.48910387719E+01  0.00000000000E+00 0. -1.
<mgrwt>
<rscale>  0 0.20154219E+01</rscale>
<asrwt>0</asrwt>
<pdfrwt beam="1">0</pdfrwt>
<pdfrwt beam="2">0</pdfrwt>
<totfact> 0.23691498E+12</totfact>
</mgrwt>
</event>
<event>
 4    2  0.2093759E+006  0.2515407E+01  0.7546771E-02  0.2701777E+00
         22   -1    0    0    0    0  0.00000000000E+00  0.00000000000E+00  0.60088644826E+01  0.60088644826E+01  0.00000000000E+00 0. -1.
         22   -1    0    0    0    0 -0.00000000000E+00 -0.00000000000E+00 -0.16890336861E+01  0.16890336861E+01  0.00000000000E+00 0.  1.
          4    1    1    2  501    0 -0.10139655781E+01 -0.23019869040E+01 -0.20201300275E+00  0.25235053305E+01  0.00000000000E+00 0.  1.
         -4    1    1    2    0  501  0.10139655781E+01  0.23019869040E+01  0.45218437992E+01  0.51743928383E+01  0.00000000000E+00 0. -1.
<mgrwt>
<rscale>  0 0.25154065E+01</rscale>
<asrwt>0</asrwt>
<pdfrwt beam="1">0</pdfrwt>
<pdfrwt beam="2">0</pdfrwt>
<totfact> 0.16025867E+12</totfact>
</mgrwt>
</event>
<event>
 4    2  0.2093759E+006  0.2050640E+01  0.7546771E-02  0.2947361E+00
         22   -1    0    0    0    0  0.00000000000E+00  0.00000000000E+00  0.12002454886E+00  0.12002454886E+00  0.00000000000E+00 0. -1.
         22   -1    0    0    0    0 -0.00000000000E+00 -0.00000000000E+00 -0.55621668149E+02  0.55621668149E+02  0.00000000000E+00 0.  1.
          4    1    1    2  501    0 -0.73610107231E+00 -0.19139696626E+01 -0.44706513367E+02  0.44753518991E+02  0.00000000000E+00 0.  1.
         -4    1    1    2    0  501  0.73610107231E+00  0.19139696626E+01 -0.10795130232E+02  0.10988173706E+02  0.00000000000E+00 0. -1.
<mgrwt>
<rscale>  0 0.20506401E+01</rscale>
<asrwt>0</asrwt>
<pdfrwt beam="1">0</pdfrwt>
<pdfrwt beam="2">0</pdfrwt>
<totfact> 0.19732788E+12</totfact>
</mgrwt>
</event>
<event>
 4    2  0.2093759E+006  0.3284669E+01  0.7546771E-02  0.2439218E+00
         22   -1    0    0    0    0  0.00000000000E+00  0.00000000000E+00  0.70103343083E+02  0.70103343083E+02  0.00000000000E+00 0.  1.
         22   -1    0    0    0    0 -0.00000000000E+00 -0.00000000000E+00 -0.19537237587E+00  0.19537237587E+00  0.00000000000E+00 0. -1.
          4    1    1    2  501    0 -0.22302245351E+01 -0.24114626599E+01  0.18759985402E+02  0.19045369672E+02  0.00000000000E+00 0. -1.
         -4    1    1    2    0  501  0.22302245351E+01  0.24114626599E+01  0.51147985305E+02  0.51253345787E+02  0.00000000000E+00 0.  1.
<mgrwt>
<rscale>  0 0.32846695E+01</rscale>
<asrwt>0</asrwt>
<pdfrwt beam="1">0</pdfrwt>
<pdfrwt beam="2">0</pdfrwt>
<totfact> 0.84129799E+11</totfact>
</mgrwt>
</event>
<event>
 4    2  0.2093759E+006  0.2027392E+01  0.7546771E-02  0.2962477E+00
         22   -1    0    0    0    0  0.00000000000E+00  0.00000000000E+00  0.78512701003E+00  0.78512701003E+00  0.00000000000E+00 0. -1.
         22   -1    0    0    0    0 -0.00000000000E+00 -0.00000000000E+00 -0.99393044245E+01  0.99393044245E+01  0.00000000000E+00 0.  1.
          4    1    1    2  501    0 -0.20029857762E+01  0.31363237832E+00 -0.82660454664E+01  0.85110413547E+01  0.00000000000E+00 0.  1.
         -4    1    1    2    0  501  0.20029857762E+01 -0.31363237832E+00 -0.88813194808E+00  0.22133900799E+01  0.00000000000E+00 0. -1.
<mgrwt>
<rscale>  0 0.20273917E+01</rscale>
<asrwt>0</asrwt>
<pdfrwt beam="1">0</pdfrwt>
<pdfrwt beam="2">0</pdfrwt>
<totfact> 0.21057441E+12</totfact>
</mgrwt>
</event>
<event>
 4    2  0.2093759E+006  0.2572465E+01  0.7546771E-02  0.2677420E+00
         22   -1    0    0    0    0  0.00000000000E+00  0.00000000000E+00  0.20999362250E+01  0.20999362250E+01  0.00000000000E+00 0. -1.
         22   -1    0    0    0    0 -0.00000000000E+00 -0.00000000000E+00 -0.47169586544E+01  0.47169586544E+01  0.00000000000E+00 0.  1.
          4    1    1    2  501    0  0.18003999778E+00  0.25661565446E+01 -0.32721931732E+01  0.41623096923E+01  0.00000000000E+00 0.  1.
         -4    1    1    2    0  501 -0.18003999778E+00 -0.25661565446E+01  0.65517074379E+00  0.26545851871E+01  0.00000000000E+00 0. -1.
<mgrwt>
<rscale>  0 0.25724645E+01</rscale>
<asrwt>0</asrwt>
<pdfrwt beam="1">0</pdfrwt>
<pdfrwt beam="2">0</pdfrwt>
<totfact> 0.16603801E+12</totfact>
</mgrwt>
</event>
<event>
 4    2  0.2093759E+006  0.2068198E+01  0.7546771E-02  0.2936164E+00
         22   -1    0    0    0    0  0.00000000000E+00  0.00000000000E+00  0.53808637551E+01  0.53808637551E+01  0.00000000000E+00 0. -1.
         22   -1    0    0    0    0 -0.00000000000E+00 -0.00000000000E+00 -0.21837205377E+01  0.21837205377E+01  0.00000000000E+00 0.  1.
          4    1    1    2  501    0  0.17385714082E+01 -0.11201847330E+01 -0.14177241112E+01  0.25074660582E+01  0.00000000000E+00 0.  1.
         -4    1    1    2    0  501 -0.17385714082E+01  0.11201847330E+01  0.46148673287E+01  0.50571182346E+01  0.00000000000E+00 0. -1.
<mgrwt>
<rscale>  0 0.20681983E+01</rscale>
<asrwt>0</asrwt>
<pdfrwt beam="1">0</pdfrwt>
<pdfrwt beam="2">0</pdfrwt>
<totfact> 0.13575290E+12</totfact>
</mgrwt>
</event>
<event>
 4    2  0.2093759E+006  0.2550296E+01  0.7546771E-02  0.2686763E+00
         22   -1    0    0    0    0  0.00000000000E+00  0.00000000000E+00  0.47652433488E+00  0.47652433488E+00  0.00000000000E+00 0.  1.
         22   -1    0    0    0    0 -0.00000000000E+00 -0.00000000000E+00 -0.15897242774E+02  0.15897242774E+02  0.00000000000E+00 0. -1.
          4    1    1    2  501    0  0.25498928548E+01  0.45369242266E-01 -0.10789242596E+02  0.11086557975E+02  0.00000000000E+00 0. -1.
         -4    1    1    2    0  501 -0.25498928548E+01 -0.45369242266E-01 -0.46314758430E+01  0.52872091337E+01  0.00000000000E+00 0.  1.
<mgrwt>
<rscale>  0 0.25502964E+01</rscale>
<asrwt>0</asrwt>
<pdfrwt beam="1">0</pdfrwt>
<pdfrwt beam="2">0</pdfrwt>
<totfact> 0.20887469E+12</totfact>
</mgrwt>
</event>
<event>
 4    2  0.2093759E+006  0.2654495E+01  0.7546771E-02  0.2644103E+00
         22   -1    0    0    0    0  0.00000000000E+00  0.00000000000E+00  0.25817057123E+01  0.25817057123E+01  0.00000000000E+00 0. -1.
         22   -1    0    0    0    0 -0.00000000000E+00 -0.00000000000E+00 -0.39848667797E+01  0.39848667797E+01  0.00000000000E+00 0.  1.
          4    1    1    2  501    0 -0.22559235464E+01 -0.13989836142E+01 -0.25445378103E+01  0.36770938074E+01  0.00000000000E+00 0.  1.
         -4    1    1    2    0  501  0.22559235464E+01  0.13989836142E+01  0.11413767429E+01  0.28894786847E+01  0.00000000000E+00 0. -1.
<mgrwt>
<rscale>  0 0.26544955E+01</rscale>
<asrwt>0</asrwt>
<pdfrwt beam="1">0</pdfrwt>
<pdfrwt beam="2">0</pdfrwt>
<totfact> 0.15937491E+12</totfact>
</mgrwt>
</event>
<event>
 4    2  0.2093759E+006  0.2163984E+01  0.7546771E-02  0.2878190E+00
         22   -1    0    0    0    0  0.00000000000E+00  0.00000000000E+00  0.38926368152E+01  0.38926368152E+01  0.00000000000E+00 0.  1.
         22   -1    0    0    0    0 -0.00000000000E+00 -0.00000000000E+00 -0.21172950510E+01  0.21172950510E+01  0.00000000000E+00 0. -1.
          4    1    1    2  501    0  0.90204642533E+00  0.19670126747E+01 -0.10869921245E+01  0.24216478882E+01  0.00000000000E+00 0. -1.
         -4    1    1    2    0  501 -0.90204642533E+00 -0.19670126747E+01  0.28623338887E+01  0.35882839779E+01  0.00000000000E+00 0.  1.
<mgrwt>
<rscale>  0 0.21639840E+01</rscale>
<asrwt>0</asrwt>
<pdfrwt beam="1">0</pdfrwt>
<pdfrwt beam="2">0</pdfrwt>
<totfact> 0.20624664E+12</totfact>
</mgrwt>
</event>
<event>
 4    2  0.2093759E+006  0.2005479E+01  0.7546771E-02  0.2977039E+00
         22   -1    0    0    0    0  0.00000000000E+00  0.00000000000E+00  0.25498479214E+02  0.25498479214E+02  0.00000000000E+00 0. -1.
         22   -1    0    0    0    0 -0.00000000000E+00 -0.00000000000E+00 -0.17558040561E+00  0.17558040561E+00  0.00000000000E+00 0.  1.
          4    1    1    2  501    0  0.81145577327E+00 -0.18339809397E+01  0.85686874259E+01  0.88002471989E+01  0.00000000000E+00 0. -1.
         -4    1    1    2    0  501 -0.81145577327E+00  0.18339809397E+01  0.16754211383E+02  0.16873812421E+02  0.00000000000E+00 0.  1.
<mgrwt>
<rscale>  0 0.20054791E+01</rscale>
<asrwt>0</asrwt>
<pdfrwt beam="1">0</pdfrwt>
<pdfrwt beam="2">0</pdfrwt>
<totfact> 0.35467979E+12</totfact>
</mgrwt>
</event>
<event>
 4    2  0.2093759E+006  0.2382627E+01  0.7546771E-02  0.2762652E+00
         22   -1    0    0    0    0  0.00000000000E+00  0.00000000000E+00  0.10842832109E+01  0.10842832109E+01  0.00000000000E+00 0.  1.
         22   -1    0    0    0    0 -0.00000000000E+00 -0.00000000000E+00 -0.71361218084E+01  0.71361218084E+01  0.00000000000E+00 0. -1.
          4    1    1    2  501    0  0.22849146836E+01  0.67533548357E+00 -0.51470347716E+01  0.56717616370E+01  0.00000000000E+00 0. -1.
         -4    1    1    2    0  501 -0.22849146836E+01 -0.67533548357E+00 -0.90480382592E+00  0.25486433823E+01  0.00000000000E+00 0.  1.
<mgrwt>
<rscale>  0 0.23826274E+01</rscale>
<asrwt>0</asrwt>
<pdfrwt beam="1">0</pdfrwt>
<pdfrwt beam="2">0</pdfrwt>
<totfact> 0.21714339E+12</totfact>
</mgrwt>
</event>
<event>
 4    2  0.2093759E+006  0.2030397E+01  0.7546771E-02  0.2960504E+00
         22   -1    0    0    0    0  0.00000000000E+00  0.00000000000E+00  0.94245424116E+01  0.94245424116E+01  0.00000000000E+00 0.  1.
         22   -1    0    0    0    0 -0.00000000000E+00 -0.00000000000E+00 -0.45250103462E+00  0.45250103462E+00  0.00000000000E+00 0. -1.
          4    1    1    2  501    0  0.20107608316E+01  0.28169561464E+00  0.35845332877E+01  0.41196347450E+01  0.00000000000E+00 0. -1.
         -4    1    1    2    0  501 -0.20107608316E+01 -0.28169561464E+00  0.53875080892E+01  0.57574087012E+01  0.00000000000E+00 0.  1.
<mgrwt>
<rscale>  0 0.20303969E+01</rscale>
<asrwt>0</asrwt>
<pdfrwt beam="1">0</pdfrwt>
<pdfrwt beam="2">0</pdfrwt>
<totfact> 0.41910594E+12</totfact>
</mgrwt>
</event>
<event>
 4    2  0.2093759E+006  0.2209714E+01  0.7546771E-02  0.2852223E+00
         22   -1    0    0    0    0  0.00000000000E+00  0.00000000000E+00  0.48547685069E+01  0.48547685069E+01  0.00000000000E+00 0.  1.
         22   -1    0    0    0    0 -0.00000000000E+00 -0.00000000000E+00 -0.63224499298E+01  0.63224499298E+01  0.00000000000E+00 0. -1.
          4    1    1    2  501    0  0.56967486654E+00 -0.21350194105E+01 -0.58586867585E+01  0.62615531517E+01  0.00000000000E+00 0. -1.
         -4    1    1    2    0  501 -0.56967486654E+00  0.21350194105E+01  0.43910053356E+01  0.49156652850E+01  0.00000000000E+00 0.  1.
<mgrwt>
<rscale>  0 0.22097143E+01</rscale>
<asrwt>0</asrwt>
<pdfrwt beam="1">0</pdfrwt>
<pdfrwt beam="2">0</pdfrwt>
<totfact> 0.43977570E+11</totfact>
</mgrwt>
</event>
<event>
 4    2  0.2093759E+006  0.2347081E+01  0.7546771E-02  0.2780043E+00
         22   -1    0    0    0    0  0.00000000000E+00  0.00000000000E+00  0.24931496906E+01  0.24931496906E+01  0.00000000000E+00 0. -1.
         22   -1    0    0    0    0 -0.00000000000E+00 -0.00000000000E+00 -0.22778180332E+01  0.22778180332E+01  0.00000000000E+00 0.  1.
          4    1    1    2  501    0  0.58489891557E+00 -0.22730332990E+01  0.52058413293E+00  0.24041204128E+01  0.00000000000E+00 0.  1.
         -4    1    1    2    0  501 -0.58489891557E+00  0.22730332990E+01 -0.30525247549E+00  0.23668473110E+01  0.00000000000E+00 0. -1.
<mgrwt>
<rscale>  0 0.23470806E+01</rscale>
<asrwt>0</asrwt>
<pdfrwt beam="1">0</pdfrwt>
<pdfrwt beam="2">0</pdfrwt>
<totfact> 0.31904671E+12</totfact>
</mgrwt>
</event>
<event>
 4    2  0.2093759E+006  0.2033319E+01  0.7546771E-02  0.2958591E+00
         22   -1    0    0    0    0  0.00000000000E+00  0.00000000000E+00  0.13491101011E+01  0.13491101011E+01  0.00000000000E+00 0.  1.
         22   -1    0    0    0    0 -0.00000000000E+00 -0.00000000000E+00 -0.59063965616E+01  0.59063965616E+01  0.00000000000E+00 0. -1.
          4    1    1    2  501    0  0.18621778093E+01  0.81650406083E+00 -0.47950362764E+01  0.52083354314E+01  0.00000000000E+00 0. -1.
         -4    1    1    2    0  501 -0.18621778093E+01 -0.81650406083E+00  0.23774981585E+00  0.20471712312E+01  0.00000000000E+00 0.  1.
<mgrwt>
<rscale>  0 0.20333187E+01</rscale>
<asrwt>0</asrwt>
<pdfrwt beam="1">0</pdfrwt>
<pdfrwt beam="2">0</pdfrwt>
<totfact> 0.21182657E+12</totfact>
</mgrwt>
</event>
<event>
 4    2  0.2093759E+006  0.2093735E+01  0.7546771E-02  0.2920205E+00
         22   -1    0    0    0    0  0.00000000000E+00  0.00000000000E+00  0.46558128359E+01  0.46558128359E+01  0.00000000000E+00 0.  1.
         22   -1    0    0    0    0 -0.00000000000E+00 -0.00000000000E+00 -0.13590376564E+01  0.13590376564E+01  0.00000000000E+00 0. -1.
          4    1    1    2  501    0  0.15590346002E+01 -0.13975472017E+01 -0.18459349637E-01  0.20938165663E+01  0.00000000000E+00 0. -1.
         -4    1    1    2    0  501 -0.15590346002E+01  0.13975472017E+01  0.33152345291E+01  0.39210339260E+01  0.00000000000E+00 0.  1.
<mgrwt>
<rscale>  0 0.20937352E+01</rscale>
<asrwt>0</asrwt>
<pdfrwt beam="1">0</pdfrwt>
<pdfrwt beam="2">0</pdfrwt>
<totfact> 0.27851200E+12</totfact>
</mgrwt>
</event>
<event>
 4    2  0.2093759E+006  0.3564254E+01  0.7546771E-02  0.2369228E+00
         22   -1    0    0    0    0  0.00000000000E+00  0.00000000000E+00  0.28353299275E+01  0.28353299275E+01  0.00000000000E+00 0.  1.
         22   -1    0    0    0    0 -0.00000000000E+00 -0.00000000000E+00 -0.51408598465E+01  0.51408598465E+01  0.00000000000E+00 0. -1.
          4    1    1    2  501    0  0.24501712000E+01 -0.25885449347E+01 -0.25820333848E+01  0.44012271231E+01  0.00000000000E+00 0. -1.
         -4    1    1    2    0  501 -0.24501712000E+01  0.25885449347E+01  0.27650346578E+00  0.35749626509E+01  0.00000000000E+00 0.  1.
<mgrwt>
<rscale>  0 0.35642536E+01</rscale>
<asrwt>0</asrwt>
<pdfrwt beam="1">0</pdfrwt>
<pdfrwt beam="2">0</pdfrwt>
<totfact> 0.10577642E+12</totfact>
</mgrwt>
</event>
<event>
 4    2  0.2093759E+006  0.2091915E+01  0.7546771E-02  0.2921330E+00
         22   -1    0    0    0    0  0.00000000000E+00  0.00000000000E+00  0.83361666796E+00  0.83361666796E+00  0.00000000000E+00 0.  1.
         22   -1    0    0    0    0 -0.00000000000E+00 -0.00000000000E+00 -0.55425894771E+01  0.55425894771E+01  0.00000000000E+00 0. -1.
          4    1    1    2  501    0 -0.85239200649E+00  0.19103761138E+01 -0.30875506554E+01  0.37294876429E+01  0.00000000000E+00 0. -1.
         -4    1    1    2    0  501  0.85239200649E+00 -0.19103761138E+01 -0.16214221538E+01  0.26467185022E+01  0.00000000000E+00 0.  1.
<mgrwt>
<rscale>  0 0.20919152E+01</rscale>
<asrwt>0</asrwt>
<pdfrwt beam="1">0</pdfrwt>
<pdfrwt beam="2">0</pdfrwt>
<totfact> 0.39612524E+12</totfact>
</mgrwt>
</event>
<event>
 4    2  0.2093759E+006  0.7718236E+01  0.7546771E-02  0.1892991E+00
         22   -1    0    0    0    0  0.00000000000E+00  0.00000000000E+00  0.47361917182E+01  0.47361917182E+01  0.00000000000E+00 0. -1.
         22   -1    0    0    0    0 -0.00000000000E+00 -0.00000000000E+00 -0.14029402839E+02  0.14029402839E+02  0.00000000000E+00 0.  1.
          4    1    1    2  501    0  0.25825692110E+01 -0.72733418941E+01 -0.76646620452E+01  0.10877417446E+02  0.00000000000E+00 0. -1.
         -4    1    1    2    0  501 -0.25825692110E+01  0.72733418941E+01 -0.16285490756E+01  0.78881771107E+01  0.00000000000E+00 0.  1.
<mgrwt>
<rscale>  0 0.77182359E+01</rscale>
<asrwt>0</asrwt>
<pdfrwt beam="1">0</pdfrwt>
<pdfrwt beam="2">0</pdfrwt>
<totfact> 0.17280371E+11</totfact>
</mgrwt>
</event>
<event>
 4    2  0.2093759E+006  0.2425430E+01  0.7546771E-02  0.2742347E+00
         22   -1    0    0    0    0  0.00000000000E+00  0.00000000000E+00  0.17347598054E+01  0.17347598054E+01  0.00000000000E+00 0. -1.
         22   -1    0    0    0    0 -0.00000000000E+00 -0.00000000000E+00 -0.11617429582E+02  0.11617429582E+02  0.00000000000E+00 0.  1.
          4    1    1    2  501    0 -0.18500556191E-02  0.24254296782E+01 -0.10559195954E+02  0.10834174253E+02  0.00000000000E+00 0.  1.
         -4    1    1    2    0  501  0.18500556191E-02 -0.24254296782E+01  0.67652617768E+00  0.25180151342E+01  0.00000000000E+00 0. -1.
<mgrwt>
<rscale>  0 0.24254304E+01</rscale>
<asrwt>0</asrwt>
<pdfrwt beam="1">0</pdfrwt>
<pdfrwt beam="2">0</pdfrwt>
<totfact> 0.70282949E+11</totfact>
</mgrwt>
</event>
<event>
 4    2  0.2093759E+006  0.2441701E+01  0.7546771E-02  0.2734804E+00
         22   -1    0    0    0    0  0.00000000000E+00  0.00000000000E+00  0.13699975000E+01  0.13699975000E+01  0.00000000000E+00 0. -1.
         22   -1    0    0    0    0 -0.00000000000E+00 -0.00000000000E+00 -0.12033185799E+02  0.12033185799E+02  0.00000000000E+00 0.  1.
          4    1    1    2  501    0  0.97874582721E-01  0.24397387810E+01 -0.10685965379E+02  0.10961375864E+02  0.00000000000E+00 0.  1.
         -4    1    1    2    0  501 -0.97874582721E-01 -0.24397387810E+01  0.22777079951E-01  0.24418074348E+01  0.00000000000E+00 0. -1.
<mgrwt>
<rscale>  0 0.24417012E+01</rscale>
<asrwt>0</asrwt>
<pdfrwt beam="1">0</pdfrwt>
<pdfrwt beam="2">0</pdfrwt>
<totfact> 0.88362775E+11</totfact>
</mgrwt>
</event>
<event>
 4    2  0.2093759E+006  0.2288967E+01  0.7546771E-02  0.2809574E+00
         22   -1    0    0    0    0  0.00000000000E+00  0.00000000000E+00  0.14660305762E+02  0.14660305762E+02  0.00000000000E+00 0.  1.
         22   -1    0    0    0    0 -0.00000000000E+00 -0.00000000000E+00 -0.42074762080E+00  0.42074762080E+00  0.00000000000E+00 0. -1.
          4    1    1    2  501    0  0.16679623097E+01 -0.15675693836E+01  0.41935540089E+01  0.47775796450E+01  0.00000000000E+00 0. -1.
         -4    1    1    2    0  501 -0.16679623097E+01  0.15675693836E+01  0.10046004132E+02  0.10303473737E+02  0.00000000000E+00 0.  1.
<mgrwt>
<rscale>  0 0.22889675E+01</rscale>
<asrwt>0</asrwt>
<pdfrwt beam="1">0</pdfrwt>
<pdfrwt beam="2">0</pdfrwt>
<totfact> 0.26555259E+12</totfact>
</mgrwt>
</event>
<event>
 4    2  0.2093759E+006  0.2505460E+01  0.7546771E-02  0.2706128E+00
         22   -1    0    0    0    0  0.00000000000E+00  0.00000000000E+00  0.17897181590E+01  0.17897181590E+01  0.00000000000E+00 0.  1.
         22   -1    0    0    0    0 -0.00000000000E+00 -0.00000000000E+00 -0.90881743550E+01  0.90881743550E+01  0.00000000000E+00 0. -1.
          4    1    1    2  501    0  0.12501375695E+00  0.25023396128E+01 -0.79113125819E+01  0.82985660657E+01  0.00000000000E+00 0. -1.
         -4    1    1    2    0  501 -0.12501375695E+00 -0.25023396128E+01  0.61285638590E+00  0.25793264483E+01  0.00000000000E+00 0.  1.
<mgrwt>
<rscale>  0 0.25054604E+01</rscale>
<asrwt>0</asrwt>
<pdfrwt beam="1">0</pdfrwt>
<pdfrwt beam="2">0</pdfrwt>
<totfact> 0.91300641E+11</totfact>
</mgrwt>
</event>
<event>
 4    2  0.2093759E+006  0.2199791E+01  0.7546771E-02  0.2857769E+00
         22   -1    0    0    0    0  0.00000000000E+00  0.00000000000E+00  0.18711453170E+01  0.18711453170E+01  0.00000000000E+00 0. -1.
         22   -1    0    0    0    0 -0.00000000000E+00 -0.00000000000E+00 -0.32918323968E+01  0.32918323968E+01  0.00000000000E+00 0.  1.
          4    1    1    2  501    0  0.15852101845E+01  0.15251850108E+01 -0.19055778427E+01  0.29103792813E+01  0.00000000000E+00 0.  1.
         -4    1    1    2    0  501 -0.15852101845E+01 -0.15251850108E+01  0.48489076297E+00  0.22525984325E+01  0.00000000000E+00 0. -1.
<mgrwt>
<rscale>  0 0.21997910E+01</rscale>
<asrwt>0</asrwt>
<pdfrwt beam="1">0</pdfrwt>
<pdfrwt beam="2">0</pdfrwt>
<totfact> 0.28969229E+12</totfact>
</mgrwt>
</event>
<event>
 4    2  0.2093759E+006  0.2110802E+01  0.7546771E-02  0.2909749E+00
         22   -1    0    0    0    0  0.00000000000E+00  0.00000000000E+00  0.61914103012E+01  0.61914103012E+01  0.00000000000E+00 0. -1.
         22   -1    0    0    0    0 -0.00000000000E+00 -0.00000000000E+00 -0.13175602327E+02  0.13175602327E+02  0.00000000000E+00 0.  1.
          4    1    1    2  501    0  0.16876222634E+01 -0.12678386342E+01 -0.12907443077E+02  0.13078897908E+02  0.00000000000E+00 0.  1.
         -4    1    1    2    0  501 -0.16876222634E+01  0.12678386342E+01  0.59232510516E+01  0.62881147196E+01  0.00000000000E+00 0. -1.
<mgrwt>
<rscale>  0 0.21108017E+01</rscale>
<asrwt>0</asrwt>
<pdfrwt beam="1">0</pdfrwt>
<pdfrwt beam="2">0</pdfrwt>
<totfact> 0.13577794E+11</totfact>
</mgrwt>
</event>
<event>
 4    2  0.2093759E+006  0.2162074E+01  0.7546771E-02  0.2879297E+00
         22   -1    0    0    0    0  0.00000000000E+00  0.00000000000E+00  0.25708999905E+02  0.25708999905E+02  0.00000000000E+00 0.  1.
         22   -1    0    0    0    0 -0.00000000000E+00 -0.00000000000E+00 -0.19635253838E+00  0.19635253838E+00  0.00000000000E+00 0. -1.
          4    1    1    2  501    0 -0.20646587715E+01 -0.64167756088E+00  0.92332514212E+01  0.94830110061E+01  0.00000000000E+00 0. -1.
         -4    1    1    2    0  501  0.20646587715E+01  0.64167756088E+00  0.16279395946E+02  0.16422341437E+02  0.00000000000E+00 0.  1.
<mgrwt>
<rscale>  0 0.21620745E+01</rscale>
<asrwt>0</asrwt>
<pdfrwt beam="1">0</pdfrwt>
<pdfrwt beam="2">0</pdfrwt>
<totfact> 0.30990268E+12</totfact>
</mgrwt>
</event>
<event>
 4    2  0.2093759E+006  0.3677117E+01  0.7546771E-02  0.2343618E+00
         22   -1    0    0    0    0  0.00000000000E+00  0.00000000000E+00  0.10899585373E+02  0.10899585373E+02  0.00000000000E+00 0. -1.
         22   -1    0    0    0    0 -0.00000000000E+00 -0.00000000000E+00 -0.12826578232E+01  0.12826578232E+01  0.00000000000E+00 0.  1.
          4    1    1    2  501    0  0.25802191516E+01 -0.26198581696E+01  0.37044822386E+01  0.52196145792E+01  0.00000000000E+00 0. -1.
         -4    1    1    2    0  501 -0.25802191516E+01  0.26198581696E+01  0.59124453109E+01  0.69626286167E+01  0.00000000000E+00 0.  1.
<mgrwt>
<rscale>  0 0.36771168E+01</rscale>
<asrwt>0</asrwt>
<pdfrwt beam="1">0</pdfrwt>
<pdfrwt beam="2">0</pdfrwt>
<totfact> 0.10750387E+12</totfact>
</mgrwt>
</event>
<event>
 4    2  0.2093759E+006  0.3006819E+01  0.7546771E-02  0.2520029E+00
         22   -1    0    0    0    0  0.00000000000E+00  0.00000000000E+00  0.27524812433E+02  0.27524812433E+02  0.00000000000E+00 0. -1.
         22   -1    0    0    0    0 -0.00000000000E+00 -0.00000000000E+00 -0.32847525866E+00  0.32847525866E+00  0.00000000000E+00 0.  1.
          4    1    1    2  501    0  0.12963286409E+01 -0.27130232412E+01  0.13523942452E+02  0.13854168416E+02  0.00000000000E+00 0.  1.
         -4    1    1    2    0  501 -0.12963286409E+01  0.27130232412E+01  0.13672394722E+02  0.13999119275E+02  0.00000000000E+00 0. -1.
<mgrwt>
<rscale>  0 0.30068194E+01</rscale>
<asrwt>0</asrwt>
<pdfrwt beam="1">0</pdfrwt>
<pdfrwt beam="2">0</pdfrwt>
<totfact> 0.15985090E+12</totfact>
</mgrwt>
</event>
<event>
 4    2  0.2093759E+006  0.2467878E+01  0.7546771E-02  0.2722863E+00
         22   -1    0    0    0    0  0.00000000000E+00  0.00000000000E+00  0.11414925535E+01  0.11414925535E+01  0.00000000000E+00 0.  1.
         22   -1    0    0    0    0 -0.00000000000E+00 -0.00000000000E+00 -0.85757823507E+01  0.85757823507E+01  0.00000000000E+00 0. -1.
          4    1    1    2  501    0  0.21704282447E+01 -0.11745907115E+01 -0.67036943907E+01  0.71435243815E+01  0.00000000000E+00 0. -1.
         -4    1    1    2    0  501 -0.21704282447E+01  0.11745907115E+01 -0.73059540642E+00  0.25737505227E+01  0.00000000000E+00 0.  1.
<mgrwt>
<rscale>  0 0.24678781E+01</rscale>
<asrwt>0</asrwt>
<pdfrwt beam="1">0</pdfrwt>
<pdfrwt beam="2">0</pdfrwt>
<totfact> 0.16420426E+12</totfact>
</mgrwt>
</event>
<event>
 4    2  0.2093759E+006  0.2866463E+01  0.7546771E-02  0.2566141E+00
         22   -1    0    0    0    0  0.00000000000E+00  0.00000000000E+00  0.25040305507E+02  0.25040305507E+02  0.00000000000E+00 0. -1.
         22   -1    0    0    0    0 -0.00000000000E+00 -0.00000000000E+00 -0.33053264434E+00  0.33053264434E+00  0.00000000000E+00 0.  1.
          4    1    1    2  501    0  0.28383331208E+01 -0.40059692943E+00  0.11274582277E+02  0.11633263443E+02  0.00000000000E+00 0.  1.
         -4    1    1    2    0  501 -0.28383331208E+01  0.40059692943E+00  0.13435190586E+02  0.13737574709E+02  0.00000000000E+00 0. -1.
<mgrwt>
<rscale>  0 0.28664635E+01</rscale>
<asrwt>0</asrwt>
<pdfrwt beam="1">0</pdfrwt>
<pdfrwt beam="2">0</pdfrwt>
<totfact> 0.17890859E+12</totfact>
</mgrwt>
</event>
<event>
 4    2  0.2093759E+006  0.5255538E+01  0.7546771E-02  0.2093683E+00
         22   -1    0    0    0    0  0.00000000000E+00  0.00000000000E+00  0.80013149105E+00  0.80013149105E+00  0.00000000000E+00 0. -1.
         22   -1    0    0    0    0 -0.00000000000E+00 -0.00000000000E+00 -0.54804557254E+02  0.54804557254E+02  0.00000000000E+00 0.  1.
          4    1    1    2  501    0 -0.33070591242E+01 -0.40846101053E+01 -0.43916510410E+02  0.44229860574E+02  0.00000000000E+00 0.  1.
         -4    1    1    2    0  501  0.33070591242E+01  0.40846101053E+01 -0.10087915353E+02  0.11374828172E+02  0.00000000000E+00 0. -1.
<mgrwt>
<rscale>  0 0.52555380E+01</rscale>
<asrwt>0</asrwt>
<pdfrwt beam="1">0</pdfrwt>
<pdfrwt beam="2">0</pdfrwt>
<totfact> 0.23942690E+11</totfact>
</mgrwt>
</event>
<event>
 4    2  0.2093759E+006  0.2001124E+01  0.7546771E-02  0.2979970E+00
         22   -1    0    0    0    0  0.00000000000E+00  0.00000000000E+00  0.58448369023E+01  0.58448369023E+01  0.00000000000E+00 0. -1.
         22   -1    0    0    0    0 -0.00000000000E+00 -0.00000000000E+00 -0.11395537409E+01  0.11395537409E+01  0.00000000000E+00 0.  1.
          4    1    1    2  501    0  0.18404478944E+01  0.78565171970E+00  0.14738225570E+00  0.20065439457E+01  0.00000000000E+00 0.  1.
         -4    1    1    2    0  501 -0.18404478944E+01 -0.78565171970E+00  0.45579009057E+01  0.49778466974E+01  0.00000000000E+00 0. -1.
<mgrwt>
<rscale>  0 0.20011240E+01</rscale>
<asrwt>0</asrwt>
<pdfrwt beam="1">0</pdfrwt>
<pdfrwt beam="2">0</pdfrwt>
<totfact> 0.26027764E+12</totfact>
</mgrwt>
</event>
<event>
 4    2  0.2093759E+006  0.2279054E+01  0.7546771E-02  0.2814754E+00
         22   -1    0    0    0    0  0.00000000000E+00  0.00000000000E+00  0.50483208371E+02  0.50483208371E+02  0.00000000000E+00 0. -1.
         22   -1    0    0    0    0 -0.00000000000E+00 -0.00000000000E+00 -0.10416632919E+00  0.10416632919E+00  0.00000000000E+00 0.  1.
          4    1    1    2  501    0  0.16850358782E+01  0.15345159170E+01  0.22386830003E+02  0.22502538581E+02  0.00000000000E+00 0.  1.
         -4    1    1    2    0  501 -0.16850358782E+01 -0.15345159170E+01  0.27992212039E+02  0.28084836119E+02  0.00000000000E+00 0. -1.
<mgrwt>
<rscale>  0 0.22790535E+01</rscale>
<asrwt>0</asrwt>
<pdfrwt beam="1">0</pdfrwt>
<pdfrwt beam="2">0</pdfrwt>
<totfact> 0.26254396E+12</totfact>
</mgrwt>
</event>
<event>
 4    2  0.2093759E+006  0.2320296E+01  0.7546771E-02  0.2793480E+00
         22   -1    0    0    0    0  0.00000000000E+00  0.00000000000E+00  0.73228875150E+00  0.73228875150E+00  0.00000000000E+00 0.  1.
         22   -1    0    0    0    0 -0.00000000000E+00 -0.00000000000E+00 -0.75710770418E+01  0.75710770418E+01  0.00000000000E+00 0. -1.
          4    1    1    2  501    0 -0.18774012785E+01 -0.13635020377E+01 -0.41256500533E+01  0.47333668493E+01  0.00000000000E+00 0. -1.
         -4    1    1    2    0  501  0.18774012785E+01  0.13635020377E+01 -0.27131382370E+01  0.35699989440E+01  0.00000000000E+00 0.  1.
<mgrwt>
<rscale>  0 0.23202960E+01</rscale>
<asrwt>0</asrwt>
<pdfrwt beam="1">0</pdfrwt>
<pdfrwt beam="2">0</pdfrwt>
<totfact> 0.31639813E+12</totfact>
</mgrwt>
</event>
<event>
 4    2  0.2093759E+006  0.2239095E+01  0.7546771E-02  0.2836076E+00
         22   -1    0    0    0    0  0.00000000000E+00  0.00000000000E+00  0.36820214129E+01  0.36820214129E+01  0.00000000000E+00 0.  1.
         22   -1    0    0    0    0 -0.00000000000E+00 -0.00000000000E+00 -0.10106529491E+02  0.10106529491E+02  0.00000000000E+00 0. -1.
          4    1    1    2  501    0  0.22287576570E+01  0.21491054981E+00 -0.96253101916E+01  0.98823146844E+01  0.00000000000E+00 0. -1.
         -4    1    1    2    0  501 -0.22287576570E+01 -0.21491054981E+00  0.32008021131E+01  0.39062362198E+01  0.00000000000E+00 0.  1.
<mgrwt>
<rscale>  0 0.22390952E+01</rscale>
<asrwt>0</asrwt>
<pdfrwt beam="1">0</pdfrwt>
<pdfrwt beam="2">0</pdfrwt>
<totfact> 0.34672131E+11</totfact>
</mgrwt>
</event>
<event>
 4    2  0.2093759E+006  0.3447924E+01  0.7546771E-02  0.2397142E+00
         22   -1    0    0    0    0  0.00000000000E+00  0.00000000000E+00  0.30885869876E+02  0.30885869876E+02  0.00000000000E+00 0.  1.
         22   -1    0    0    0    0 -0.00000000000E+00 -0.00000000000E+00 -0.56342067831E+00  0.56342067831E+00  0.00000000000E+00 0. -1.
          4    1    1    2  501    0 -0.65566613847E+00  0.33850083110E+01  0.63100575527E+01  0.71906192827E+01  0.00000000000E+00 0. -1.
         -4    1    1    2    0  501  0.65566613847E+00 -0.33850083110E+01  0.24012391645E+02  0.24258671271E+02  0.00000000000E+00 0.  1.
<mgrwt>
<rscale>  0 0.34479239E+01</rscale>
<asrwt>0</asrwt>
<pdfrwt beam="1">0</pdfrwt>
<pdfrwt beam="2">0</pdfrwt>
<totfact> 0.75163708E+11</totfact>
</mgrwt>
</event>
<event>
 4    2  0.2093759E+006  0.3519357E+01  0.7546771E-02  0.2379810E+00
         22   -1    0    0    0    0  0.00000000000E+00  0.00000000000E+00  0.40505579007E+01  0.40505579007E+01  0.00000000000E+00 0.  1.
         22   -1    0    0    0    0 -0.00000000000E+00 -0.00000000000E+00 -0.51785988672E+02  0.51785988672E+02  0.00000000000E+00 0. -1.
          4    1    1    2  501    0 -0.61003734728E-01 -0.35188283104E+01 -0.50949199836E+02  0.51070606400E+02  0.00000000000E+00 0. -1.
         -4    1    1    2    0  501  0.61003734728E-01  0.35188283104E+01  0.32137690644E+01  0.47659401730E+01  0.00000000000E+00 0.  1.
<mgrwt>
<rscale>  0 0.35193571E+01</rscale>
<asrwt>0</asrwt>
<pdfrwt beam="1">0</pdfrwt>
<pdfrwt beam="2">0</pdfrwt>
<totfact> 0.39605589E+10</totfact>
</mgrwt>
</event>
<event>
 4    2  0.2093759E+006  0.3311845E+01  0.7546771E-02  0.2431961E+00
         22   -1    0    0    0    0  0.00000000000E+00  0.00000000000E+00  0.26939250323E+01  0.26939250323E+01  0.00000000000E+00 0. -1.
         22   -1    0    0    0    0 -0.00000000000E+00 -0.00000000000E+00 -0.90841336729E+01  0.90841336729E+01  0.00000000000E+00 0.  1.
          4    1    1    2  501    0 -0.21985758768E+01 -0.24768084560E+01 -0.75696699911E+01  0.82624584590E+01  0.00000000000E+00 0.  1.
         -4    1    1    2    0  501  0.21985758768E+01  0.24768084560E+01  0.11794613504E+01  0.35156002462E+01  0.00000000000E+00 0. -1.
<mgrwt>
<rscale>  0 0.33118448E+01</rscale>
<asrwt>0</asrwt>
<pdfrwt beam="1">0</pdfrwt>
<pdfrwt beam="2">0</pdfrwt>
<totfact> 0.56849484E+11</totfact>
</mgrwt>
</event>
<event>
 4    2  0.2093759E+006  0.2090228E+01  0.7546771E-02  0.2922375E+00
         22   -1    0    0    0    0  0.00000000000E+00  0.00000000000E+00  0.17578676578E+00  0.17578676578E+00  0.00000000000E+00 0. -1.
         22   -1    0    0    0    0 -0.00000000000E+00 -0.00000000000E+00 -0.35025343458E+02  0.35025343458E+02  0.00000000000E+00 0.  1.
          4    1    1    2  501    0  0.14484383112E+01 -0.15070100629E+01 -0.26909370681E+02  0.26990429476E+02  0.00000000000E+00 0.  1.
         -4    1    1    2    0  501 -0.14484383112E+01  0.15070100629E+01 -0.79401860113E+01  0.82107007475E+01  0.00000000000E+00 0. -1.
<mgrwt>
<rscale>  0 0.20902279E+01</rscale>
<asrwt>0</asrwt>
<pdfrwt beam="1">0</pdfrwt>
<pdfrwt beam="2">0</pdfrwt>
<totfact> 0.23637197E+12</totfact>
</mgrwt>
</event>
<event>
 4    2  0.2093759E+006  0.2627697E+01  0.7546771E-02  0.2654776E+00
         22   -1    0    0    0    0  0.00000000000E+00  0.00000000000E+00  0.73944848973E+01  0.73944848973E+01  0.00000000000E+00 0.  1.
         22   -1    0    0    0    0 -0.00000000000E+00 -0.00000000000E+00 -0.13860591839E+01  0.13860591839E+01  0.00000000000E+00 0. -1.
          4    1    1    2  501    0  0.17812739478E+01  0.19318015213E+01  0.49633910666E+00  0.26741627669E+01  0.00000000000E+00 0. -1.
         -4    1    1    2    0  501 -0.17812739478E+01 -0.19318015213E+01  0.55120866068E+01  0.61063813143E+01  0.00000000000E+00 0.  1.
<mgrwt>
<rscale>  0 0.26276975E+01</rscale>
<asrwt>0</asrwt>
<pdfrwt beam="1">0</pdfrwt>
<pdfrwt beam="2">0</pdfrwt>
<totfact> 0.15704639E+12</totfact>
</mgrwt>
</event>
<event>
 4    2  0.2093759E+006  0.2161482E+01  0.7546771E-02  0.2879641E+00
         22   -1    0    0    0    0  0.00000000000E+00  0.00000000000E+00  0.10626412808E+02  0.10626412808E+02  0.00000000000E+00 0. -1.
         22   -1    0    0    0    0 -0.00000000000E+00 -0.00000000000E+00 -0.52367967647E+00  0.52367967647E+00  0.00000000000E+00 0.  1.
          4    1    1    2  501    0  0.93395025146E+00 -0.19492925169E+01  0.72844613354E+01  0.75983801784E+01  0.00000000000E+00 0. -1.
         -4    1    1    2    0  501 -0.93395025146E+00  0.19492925169E+01  0.28182717966E+01  0.35517123065E+01  0.00000000000E+00 0.  1.
<mgrwt>
<rscale>  0 0.21614820E+01</rscale>
<asrwt>0</asrwt>
<pdfrwt beam="1">0</pdfrwt>
<pdfrwt beam="2">0</pdfrwt>
<totfact> 0.30732645E+12</totfact>
</mgrwt>
</event>
<event>
 4    2  0.2093759E+006  0.2019747E+01  0.7546771E-02  0.2967522E+00
         22   -1    0    0    0    0  0.00000000000E+00  0.00000000000E+00  0.55283649743E+00  0.55283649743E+00  0.00000000000E+00 0.  1.
         22   -1    0    0    0    0 -0.00000000000E+00 -0.00000000000E+00 -0.18144558356E+02  0.18144558356E+02  0.00000000000E+00 0. -1.
          4    1    1    2  501    0  0.74461683230E+00  0.18774783129E+01 -0.15996917728E+02  0.16123918750E+02  0.00000000000E+00 0.  1.
         -4    1    1    2    0  501 -0.74461683230E+00 -0.18774783129E+01 -0.15948041302E+01  0.25734761036E+01  0.00000000000E+00 0. -1.
<mgrwt>
<rscale>  0 0.20197473E+01</rscale>
<asrwt>0</asrwt>
<pdfrwt beam="1">0</pdfrwt>
<pdfrwt beam="2">0</pdfrwt>
<totfact> 0.14993551E+12</totfact>
</mgrwt>
</event>
<event>
 4    2  0.2093759E+006  0.3359003E+01  0.7546771E-02  0.2419615E+00
         22   -1    0    0    0    0  0.00000000000E+00  0.00000000000E+00  0.23482735735E+02  0.23482735735E+02  0.00000000000E+00 0.  1.
         22   -1    0    0    0    0 -0.00000000000E+00 -0.00000000000E+00 -0.64590082572E+00  0.64590082572E+00  0.00000000000E+00 0. -1.
          4    1    1    2  501    0  0.20629944574E+01 -0.26508399351E+01  0.53129378225E+01  0.62857145018E+01  0.00000000000E+00 0. -1.
         -4    1    1    2    0  501 -0.20629944574E+01  0.26508399351E+01  0.17523897087E+02  0.17842922059E+02  0.00000000000E+00 0.  1.
<mgrwt>
<rscale>  0 0.33590026E+01</rscale>
<asrwt>0</asrwt>
<pdfrwt beam="1">0</pdfrwt>
<pdfrwt beam="2">0</pdfrwt>
<totfact> 0.91108918E+11</totfact>
</mgrwt>
</event>
<event>
 4    2  0.2093759E+006  0.3029330E+01  0.7546771E-02  0.2512992E+00
         22   -1    0    0    0    0  0.00000000000E+00  0.00000000000E+00  0.15766475747E+01  0.15766475747E+01  0.00000000000E+00 0. -1.
         22   -1    0    0    0    0 -0.00000000000E+00 -0.00000000000E+00 -0.62549574860E+01  0.62549574860E+01  0.00000000000E+00 0.  1.
          4    1    1    2  501    0  0.10475549147E+01  0.28424403213E+01 -0.33711903324E+01  0.45323021233E+01  0.00000000000E+00 0.  1.
         -4    1    1    2    0  501 -0.10475549147E+01 -0.28424403213E+01 -0.13071195789E+01  0.32993029374E+01  0.00000000000E+00 0. -1.
<mgrwt>
<rscale>  0 0.30293297E+01</rscale>
<asrwt>0</asrwt>
<pdfrwt beam="1">0</pdfrwt>
<pdfrwt beam="2">0</pdfrwt>
<totfact> 0.16539865E+12</totfact>
</mgrwt>
</event>
<event>
 4    2  0.2093759E+006  0.5453271E+01  0.7546771E-02  0.2072493E+00
         22   -1    0    0    0    0  0.00000000000E+00  0.00000000000E+00  0.23205306348E+02  0.23205306348E+02  0.00000000000E+00 0.  1.
         22   -1    0    0    0    0 -0.00000000000E+00 -0.00000000000E+00 -0.14099255146E+01  0.14099255146E+01  0.00000000000E+00 0. -1.
          4    1    1    2  501    0  0.14223593835E+01  0.52645089707E+01  0.14611850679E+02  0.15596292546E+02  0.00000000000E+00 0.  1.
         -4    1    1    2    0  501 -0.14223593835E+01 -0.52645089707E+01  0.71835301544E+01  0.90189393167E+01  0.00000000000E+00 0. -1.
<mgrwt>
<rscale>  0 0.54532707E+01</rscale>
<asrwt>0</asrwt>
<pdfrwt beam="1">0</pdfrwt>
<pdfrwt beam="2">0</pdfrwt>
<totfact> 0.37945508E+11</totfact>
</mgrwt>
</event>
<event>
 4    2  0.2093759E+006  0.9945916E+01  0.7546771E-02  0.1780990E+00
         22   -1    0    0    0    0  0.00000000000E+00  0.00000000000E+00  0.26527918036E+02  0.26527918036E+02  0.00000000000E+00 0. -1.
         22   -1    0    0    0    0 -0.00000000000E+00 -0.00000000000E+00 -0.39639147532E+01  0.39639147532E+01  0.00000000000E+00 0.  1.
          4    1    1    2  501    0  0.57416090525E+01 -0.81212794195E+01  0.75701240360E+01  0.12499121243E+02  0.00000000000E+00 0.  1.
         -4    1    1    2    0  501 -0.57416090525E+01  0.81212794195E+01  0.14993879247E+02  0.17992711546E+02  0.00000000000E+00 0. -1.
<mgrwt>
<rscale>  0 0.99459164E+01</rscale>
<asrwt>0</asrwt>
<pdfrwt beam="1">0</pdfrwt>
<pdfrwt beam="2">0</pdfrwt>
<totfact> 0.96425136E+10</totfact>
</mgrwt>
</event>
<event>
 4    2  0.2093759E+006  0.4598739E+01  0.7546771E-02  0.2175634E+00
         22   -1    0    0    0    0  0.00000000000E+00  0.00000000000E+00  0.35598438197E+01  0.35598438197E+01  0.00000000000E+00 0.  1.
         22   -1    0    0    0    0 -0.00000000000E+00 -0.00000000000E+00 -0.76686793338E+02  0.76686793338E+02  0.00000000000E+00 0. -1.
          4    1    1    2  501    0 -0.11110036588E+01  0.44625185721E+01 -0.75101318517E+02  0.75241985913E+02  0.00000000000E+00 0. -1.
         -4    1    1    2    0  501  0.11110036588E+01 -0.44625185721E+01  0.19743689989E+01  0.50046512446E+01  0.00000000000E+00 0.  1.
<mgrwt>
<rscale>  0 0.45987391E+01</rscale>
<asrwt>0</asrwt>
<pdfrwt beam="1">0</pdfrwt>
<pdfrwt beam="2">0</pdfrwt>
<totfact> 0.27189806E+10</totfact>
</mgrwt>
</event>
<event>
 4    2  0.2093759E+006  0.2080935E+01  0.7546771E-02  0.2928157E+00
         22   -1    0    0    0    0  0.00000000000E+00  0.00000000000E+00  0.10329204456E+02  0.10329204456E+02  0.00000000000E+00 0.  1.
         22   -1    0    0    0    0 -0.00000000000E+00 -0.00000000000E+00 -0.45191111762E+00  0.45191111762E+00  0.00000000000E+00 0. -1.
          4    1    1    2  501    0  0.20636403199E+01 -0.26772707026E+00  0.34889718815E+01  0.40624147922E+01  0.00000000000E+00 0. -1.
         -4    1    1    2    0  501 -0.20636403199E+01  0.26772707026E+00  0.63883214569E+01  0.67187007814E+01  0.00000000000E+00 0.  1.
<mgrwt>
<rscale>  0 0.20809347E+01</rscale>
<asrwt>0</asrwt>
<pdfrwt beam="1">0</pdfrwt>
<pdfrwt beam="2">0</pdfrwt>
<totfact> 0.37565686E+12</totfact>
</mgrwt>
</event>
<event>
 4    2  0.2093759E+006  0.2499447E+01  0.7546771E-02  0.2708774E+00
         22   -1    0    0    0    0  0.00000000000E+00  0.00000000000E+00  0.26850590705E+01  0.26850590705E+01  0.00000000000E+00 0. -1.
         22   -1    0    0    0    0 -0.00000000000E+00 -0.00000000000E+00 -0.92557674234E+01  0.92557674234E+01  0.00000000000E+00 0.  1.
          4    1    1    2  501    0  0.15077338537E+01  0.19934831108E+01 -0.84511427495E+01  0.88130045989E+01  0.00000000000E+00 0.  1.
         -4    1    1    2    0  501 -0.15077338537E+01 -0.19934831108E+01  0.18804343967E+01  0.31278218950E+01  0.00000000000E+00 0. -1.
<mgrwt>
<rscale>  0 0.24994472E+01</rscale>
<asrwt>0</asrwt>
<pdfrwt beam="1">0</pdfrwt>
<pdfrwt beam="2">0</pdfrwt>
<totfact> 0.55791777E+11</totfact>
</mgrwt>
</event>
<event>
 4    2  0.2093759E+006  0.2619892E+01  0.7546771E-02  0.2657922E+00
         22   -1    0    0    0    0  0.00000000000E+00  0.00000000000E+00  0.29559693353E+01  0.29559693353E+01  0.00000000000E+00 0.  1.
         22   -1    0    0    0    0 -0.00000000000E+00 -0.00000000000E+00 -0.24260425715E+01  0.24260425715E+01  0.00000000000E+00 0. -1.
          4    1    1    2  501    0  0.26033841255E+01 -0.29364488468E+00 -0.29224510985E+00  0.26361417692E+01  0.00000000000E+00 0. -1.
         -4    1    1    2    0  501 -0.26033841255E+01  0.29364488468E+00  0.82217187365E+00  0.27458701377E+01  0.00000000000E+00 0.  1.
<mgrwt>
<rscale>  0 0.26198924E+01</rscale>
<asrwt>0</asrwt>
<pdfrwt beam="1">0</pdfrwt>
<pdfrwt beam="2">0</pdfrwt>
<totfact> 0.24315116E+12</totfact>
</mgrwt>
</event>
<event>
 4    2  0.2093759E+006  0.2382196E+01  0.7546771E-02  0.2762860E+00
         22   -1    0    0    0    0  0.00000000000E+00  0.00000000000E+00  0.44802560940E+01  0.44802560940E+01  0.00000000000E+00 0.  1.
         22   -1    0    0    0    0 -0.00000000000E+00 -0.00000000000E+00 -0.27179091289E+01  0.27179091289E+01  0.00000000000E+00 0. -1.
          4    1    1    2  501    0 -0.13532880197E+01  0.19604766704E+01 -0.17487844791E+01  0.29551826329E+01  0.00000000000E+00 0. -1.
         -4    1    1    2    0  501  0.13532880197E+01 -0.19604766704E+01  0.35111314442E+01  0.42429825899E+01  0.00000000000E+00 0.  1.
<mgrwt>
<rscale>  0 0.23821959E+01</rscale>
<asrwt>0</asrwt>
<pdfrwt beam="1">0</pdfrwt>
<pdfrwt beam="2">0</pdfrwt>
<totfact> 0.13074720E+12</totfact>
</mgrwt>
</event>
<event>
 4    2  0.2093759E+006  0.2703224E+01  0.7546771E-02  0.2625194E+00
         22   -1    0    0    0    0  0.00000000000E+00  0.00000000000E+00  0.31509413559E+01  0.31509413559E+01  0.00000000000E+00 0. -1.
         22   -1    0    0    0    0 -0.00000000000E+00 -0.00000000000E+00 -0.54729305111E+01  0.54729305111E+01  0.00000000000E+00 0.  1.
          4    1    1    2  501    0  0.21930527859E+01  0.15804863732E+01 -0.44342506848E+01  0.51932645641E+01  0.00000000000E+00 0.  1.
         -4    1    1    2    0  501 -0.21930527859E+01 -0.15804863732E+01  0.21122615295E+01  0.34306073029E+01  0.00000000000E+00 0. -1.
<mgrwt>
<rscale>  0 0.27032236E+01</rscale>
<asrwt>0</asrwt>
<pdfrwt beam="1">0</pdfrwt>
<pdfrwt beam="2">0</pdfrwt>
<totfact> 0.86816005E+11</totfact>
</mgrwt>
</event>
<event>
 4    2  0.2093759E+006  0.2027828E+01  0.7546771E-02  0.2962190E+00
         22   -1    0    0    0    0  0.00000000000E+00  0.00000000000E+00  0.55877009011E+01  0.55877009011E+01  0.00000000000E+00 0. -1.
         22   -1    0    0    0    0 -0.00000000000E+00 -0.00000000000E+00 -0.37787007271E+01  0.37787007271E+01  0.00000000000E+00 0.  1.
          4    1    1    2  501    0  0.11420637878E+01 -0.16756421081E+01 -0.32979933883E+01  0.38715431754E+01  0.00000000000E+00 0.  1.
         -4    1    1    2    0  501 -0.11420637878E+01  0.16756421081E+01  0.51069935624E+01  0.54948584528E+01  0.00000000000E+00 0. -1.
<mgrwt>
<rscale>  0 0.20278279E+01</rscale>
<asrwt>0</asrwt>
<pdfrwt beam="1">0</pdfrwt>
<pdfrwt beam="2">0</pdfrwt>
<totfact> 0.68447364E+11</totfact>
</mgrwt>
</event>
<event>
 4    2  0.2093759E+006  0.3330000E+01  0.7546771E-02  0.2427171E+00
         22   -1    0    0    0    0  0.00000000000E+00  0.00000000000E+00  0.44560057298E+01  0.44560057298E+01  0.00000000000E+00 0. -1.
         22   -1    0    0    0    0 -0.00000000000E+00 -0.00000000000E+00 -0.46431353371E+01  0.46431353371E+01  0.00000000000E+00 0.  1.
          4    1    1    2  501    0 -0.33238323738E+01 -0.20258526880E+00 -0.31927578623E+01  0.46133074044E+01  0.00000000000E+00 0.  1.
         -4    1    1    2    0  501  0.33238323738E+01  0.20258526880E+00  0.30056282550E+01  0.44858336625E+01  0.00000000000E+00 0. -1.
<mgrwt>
<rscale>  0 0.33300004E+01</rscale>
<asrwt>0</asrwt>
<pdfrwt beam="1">0</pdfrwt>
<pdfrwt beam="2">0</pdfrwt>
<totfact> 0.70204312E+11</totfact>
</mgrwt>
</event>
<event>
 4    2  0.2093759E+006  0.2345410E+01  0.7546771E-02  0.2780873E+00
         22   -1    0    0    0    0  0.00000000000E+00  0.00000000000E+00  0.62105294010E+00  0.62105294010E+00  0.00000000000E+00 0. -1.
         22   -1    0    0    0    0 -0.00000000000E+00 -0.00000000000E+00 -0.94443851872E+01  0.94443851872E+01  0.00000000000E+00 0.  1.
          4    1    1    2  501    0  0.13150967158E+01 -0.19420268731E+01 -0.56662782927E+01  0.61325082501E+01  0.00000000000E+00 0. -1.
         -4    1    1    2    0  501 -0.13150967158E+01  0.19420268731E+01 -0.31570539544E+01  0.39329298772E+01  0.00000000000E+00 0.  1.
<mgrwt>
<rscale>  0 0.23454099E+01</rscale>
<asrwt>0</asrwt>
<pdfrwt beam="1">0</pdfrwt>
<pdfrwt beam="2">0</pdfrwt>
<totfact> 0.29230195E+12</totfact>
</mgrwt>
</event>
<event>
 4    2  0.2093759E+006  0.3022219E+01  0.7546771E-02  0.2515205E+00
         22   -1    0    0    0    0  0.00000000000E+00  0.00000000000E+00  0.26118515577E+02  0.26118515577E+02  0.00000000000E+00 0. -1.
         22   -1    0    0    0    0 -0.00000000000E+00 -0.00000000000E+00 -0.53985046771E+00  0.53985046771E+00  0.00000000000E+00 0.  1.
          4    1    1    2  501    0  0.24965267629E+01 -0.17032802706E+01  0.48787532324E+01  0.57389931749E+01  0.00000000000E+00 0.  1.
         -4    1    1    2    0  501 -0.24965267629E+01  0.17032802706E+01  0.20699911877E+02  0.20919372870E+02  0.00000000000E+00 0. -1.
<mgrwt>
<rscale>  0 0.30222193E+01</rscale>
<asrwt>0</asrwt>
<pdfrwt beam="1">0</pdfrwt>
<pdfrwt beam="2">0</pdfrwt>
<totfact> 0.97609932E+11</totfact>
</mgrwt>
</event>
<event>
 4    2  0.2093759E+006  0.2693141E+01  0.7546771E-02  0.2629055E+00
         22   -1    0    0    0    0  0.00000000000E+00  0.00000000000E+00  0.42787655924E+02  0.42787655924E+02  0.00000000000E+00 0.  1.
         22   -1    0    0    0    0 -0.00000000000E+00 -0.00000000000E+00 -0.16953768661E+00  0.16953768661E+00  0.00000000000E+00 0. -1.
          4    1    1    2  501    0  0.26916964894E+01 -0.88198224814E-01  0.21574902525E+02  0.21742341822E+02  0.00000000000E+00 0. -1.
         -4    1    1    2    0  501 -0.26916964894E+01  0.88198224814E-01  0.21043215713E+02  0.21214851789E+02  0.00000000000E+00 0.  1.
<mgrwt>
<rscale>  0 0.26931411E+01</rscale>
<asrwt>0</asrwt>
<pdfrwt beam="1">0</pdfrwt>
<pdfrwt beam="2">0</pdfrwt>
<totfact> 0.18991362E+12</totfact>
</mgrwt>
</event>
<event>
 4    2  0.2093759E+006  0.2291474E+01  0.7546771E-02  0.2808271E+00
         22   -1    0    0    0    0  0.00000000000E+00  0.00000000000E+00  0.19870373263E+01  0.19870373263E+01  0.00000000000E+00 0.  1.
         22   -1    0    0    0    0 -0.00000000000E+00 -0.00000000000E+00 -0.37927376250E+01  0.37927376250E+01  0.00000000000E+00 0. -1.
          4    1    1    2  501    0  0.20031360849E+01 -0.11127883023E+01 -0.24942827896E+01  0.33870781825E+01  0.00000000000E+00 0. -1.
         -4    1    1    2    0  501 -0.20031360849E+01  0.11127883023E+01  0.68858249090E+00  0.23926967687E+01  0.00000000000E+00 0.  1.
<mgrwt>
<rscale>  0 0.22914738E+01</rscale>
<asrwt>0</asrwt>
<pdfrwt beam="1">0</pdfrwt>
<pdfrwt beam="2">0</pdfrwt>
<totfact> 0.22887823E+12</totfact>
</mgrwt>
</event>
<event>
 4    2  0.2093759E+006  0.2285405E+01  0.7546771E-02  0.2811430E+00
         22   -1    0    0    0    0  0.00000000000E+00  0.00000000000E+00  0.20359259445E+01  0.20359259445E+01  0.00000000000E+00 0. -1.
         22   -1    0    0    0    0 -0.00000000000E+00 -0.00000000000E+00 -0.39099721055E+01  0.39099721055E+01  0.00000000000E+00 0.  1.
          4    1    1    2  501    0  0.21015384313E+01  0.89811561599E+00 -0.26803702261E+01  0.35224224600E+01  0.00000000000E+00 0.  1.
         -4    1    1    2    0  501 -0.21015384313E+01 -0.89811561599E+00  0.80632406504E+00  0.24234755901E+01  0.00000000000E+00 0. -1.
<mgrwt>
<rscale>  0 0.22854049E+01</rscale>
<asrwt>0</asrwt>
<pdfrwt beam="1">0</pdfrwt>
<pdfrwt beam="2">0</pdfrwt>
<totfact> 0.21470520E+12</totfact>
</mgrwt>
</event>
<event>
 4    2  0.2093759E+006  0.2203206E+01  0.7546771E-02  0.2855855E+00
         22   -1    0    0    0    0  0.00000000000E+00  0.00000000000E+00  0.23655758850E+02  0.23655758850E+02  0.00000000000E+00 0.  1.
         22   -1    0    0    0    0 -0.00000000000E+00 -0.00000000000E+00 -0.22967167477E+00  0.22967167477E+00  0.00000000000E+00 0. -1.
          4    1    1    2  501    0 -0.21617349440E+01  0.42546257863E+00  0.78145375350E+01  0.81191818098E+01  0.00000000000E+00 0. -1.
         -4    1    1    2    0  501  0.21617349440E+01 -0.42546257863E+00  0.15611549641E+02  0.15766248715E+02  0.00000000000E+00 0.  1.
<mgrwt>
<rscale>  0 0.22032059E+01</rscale>
<asrwt>0</asrwt>
<pdfrwt beam="1">0</pdfrwt>
<pdfrwt beam="2">0</pdfrwt>
<totfact> 0.28893539E+12</totfact>
</mgrwt>
</event>
<event>
 4    2  0.2093759E+006  0.2906685E+01  0.7546771E-02  0.2552517E+00
         22   -1    0    0    0    0  0.00000000000E+00  0.00000000000E+00  0.18688658570E+02  0.18688658570E+02  0.00000000000E+00 0. -1.
         22   -1    0    0    0    0 -0.00000000000E+00 -0.00000000000E+00 -0.29969824101E+01  0.29969824101E+01  0.00000000000E+00 0.  1.
          4    1    1    2  501    0 -0.24114883710E+01  0.16228183452E+01 -0.21457730646E+01  0.36129153865E+01  0.00000000000E+00 0.  1.
         -4    1    1    2    0  501  0.24114883710E+01 -0.16228183452E+01  0.17837449225E+02  0.18072725594E+02  0.00000000000E+00 0. -1.
<mgrwt>
<rscale>  0 0.29066846E+01</rscale>
<asrwt>0</asrwt>
<pdfrwt beam="1">0</pdfrwt>
<pdfrwt beam="2">0</pdfrwt>
<totfact> 0.20762772E+11</totfact>
</mgrwt>
</event>
<event>
 4    2  0.2093759E+006  0.2516527E+01  0.7546771E-02  0.2701288E+00
         22   -1    0    0    0    0  0.00000000000E+00  0.00000000000E+00  0.86148483100E+00  0.86148483100E+00  0.00000000000E+00 0. -1.
         22   -1    0    0    0    0 -0.00000000000E+00 -0.00000000000E+00 -0.86082034525E+01  0.86082034525E+01  0.00000000000E+00 0.  1.
          4    1    1    2  501    0 -0.19100626146E+01 -0.16384655980E+01 -0.56827210321E+01  0.62150001638E+01  0.00000000000E+00 0.  1.
         -4    1    1    2    0  501  0.19100626146E+01  0.16384655980E+01 -0.20639975893E+01  0.32546881197E+01  0.00000000000E+00 0. -1.
<mgrwt>
<rscale>  0 0.25165271E+01</rscale>
<asrwt>0</asrwt>
<pdfrwt beam="1">0</pdfrwt>
<pdfrwt beam="2">0</pdfrwt>
<totfact> 0.22540866E+12</totfact>
</mgrwt>
</event>
<event>
 4    2  0.2093759E+006  0.2401734E+01  0.7546771E-02  0.2753504E+00
         22   -1    0    0    0    0  0.00000000000E+00  0.00000000000E+00  0.15375964823E+01  0.15375964823E+01  0.00000000000E+00 0. -1.
         22   -1    0    0    0    0 -0.00000000000E+00 -0.00000000000E+00 -0.46280857722E+01  0.46280857722E+01  0.00000000000E+00 0.  1.
          4    1    1    2  501    0  0.18061085053E+01  0.15831296419E+01 -0.28869036334E+01  0.37553348698E+01  0.00000000000E+00 0.  1.
         -4    1    1    2    0  501 -0.18061085053E+01 -0.15831296419E+01 -0.20358565650E+00  0.24103473848E+01  0.00000000000E+00 0. -1.
<mgrwt>
<rscale>  0 0.24017342E+01</rscale>
<asrwt>0</asrwt>
<pdfrwt beam="1">0</pdfrwt>
<pdfrwt beam="2">0</pdfrwt>
<totfact> 0.24338347E+12</totfact>
</mgrwt>
</event>
<event>
 4    2  0.2093759E+006  0.2400508E+01  0.7546771E-02  0.2754087E+00
         22   -1    0    0    0    0  0.00000000000E+00  0.00000000000E+00  0.57191441743E+01  0.57191441743E+01  0.00000000000E+00 0.  1.
         22   -1    0    0    0    0 -0.00000000000E+00 -0.00000000000E+00 -0.13323624360E+01  0.13323624360E+01  0.00000000000E+00 0. -1.
          4    1    1    2  501    0 -0.20489290228E+01 -0.12507312508E+01  0.45261201544E+00  0.24428050350E+01  0.00000000000E+00 0. -1.
         -4    1    1    2    0  501  0.20489290228E+01  0.12507312508E+01  0.39341697229E+01  0.46087015753E+01  0.00000000000E+00 0.  1.
<mgrwt>
<rscale>  0 0.24005080E+01</rscale>
<asrwt>0</asrwt>
<pdfrwt beam="1">0</pdfrwt>
<pdfrwt beam="2">0</pdfrwt>
<totfact> 0.22329626E+12</totfact>
</mgrwt>
</event>
<event>
 4    2  0.2093759E+006  0.2108031E+01  0.7546771E-02  0.2911436E+00
         22   -1    0    0    0    0  0.00000000000E+00  0.00000000000E+00  0.18923640993E+00  0.18923640993E+00  0.00000000000E+00 0. -1.
         22   -1    0    0    0    0 -0.00000000000E+00 -0.00000000000E+00 -0.23542263932E+02  0.23542263932E+02  0.00000000000E+00 0.  1.
          4    1    1    2  501    0  0.20732852855E+01 -0.38115752376E+00 -0.11079960781E+02  0.11278711090E+02  0.00000000000E+00 0. -1.
         -4    1    1    2    0  501 -0.20732852855E+01  0.38115752376E+00 -0.12273066741E+02  0.12452789253E+02  0.00000000000E+00 0.  1.
<mgrwt>
<rscale>  0 0.21080306E+01</rscale>
<asrwt>0</asrwt>
<pdfrwt beam="1">0</pdfrwt>
<pdfrwt beam="2">0</pdfrwt>
<totfact> 0.36081521E+12</totfact>
</mgrwt>
</event>
<event>
 4    2  0.2093759E+006  0.5121905E+01  0.7546771E-02  0.2108728E+00
         22   -1    0    0    0    0  0.00000000000E+00  0.00000000000E+00  0.27348955251E+02  0.27348955251E+02  0.00000000000E+00 0.  1.
         22   -1    0    0    0    0 -0.00000000000E+00 -0.00000000000E+00 -0.16035912096E+01  0.16035912096E+01  0.00000000000E+00 0. -1.
          4    1    1    2  501    0  0.14824182363E+01 -0.49026874623E+01  0.36962256555E+01  0.63163274358E+01  0.00000000000E+00 0. -1.
         -4    1    1    2    0  501 -0.14824182363E+01  0.49026874623E+01  0.22049138386E+02  0.22636219025E+02  0.00000000000E+00 0.  1.
<mgrwt>
<rscale>  0 0.51219047E+01</rscale>
<asrwt>0</asrwt>
<pdfrwt beam="1">0</pdfrwt>
<pdfrwt beam="2">0</pdfrwt>
<totfact> 0.26594844E+11</totfact>
</mgrwt>
</event>
<event>
 4    2  0.2093759E+006  0.6678673E+01  0.7546771E-02  0.1963685E+00
         22   -1    0    0    0    0  0.00000000000E+00  0.00000000000E+00  0.36408173812E+01  0.36408173812E+01  0.00000000000E+00 0. -1.
         22   -1    0    0    0    0 -0.00000000000E+00 -0.00000000000E+00 -0.19949633559E+02  0.19949633559E+02  0.00000000000E+00 0.  1.
          4    1    1    2  501    0  0.40455702975E+01 -0.53139471637E+01 -0.15481602412E+02  0.16860743955E+02  0.00000000000E+00 0.  1.
         -4    1    1    2    0  501 -0.40455702975E+01  0.53139471637E+01 -0.82721376631E+00  0.67297069852E+01  0.00000000000E+00 0. -1.
<mgrwt>
<rscale>  0 0.66786730E+01</rscale>
<asrwt>0</asrwt>
<pdfrwt beam="1">0</pdfrwt>
<pdfrwt beam="2">0</pdfrwt>
<totfact> 0.15241440E+11</totfact>
</mgrwt>
</event>
<event>
 4    2  0.2093759E+006  0.2059147E+01  0.7546771E-02  0.2941912E+00
         22   -1    0    0    0    0  0.00000000000E+00  0.00000000000E+00  0.51924518751E+01  0.51924518751E+01  0.00000000000E+00 0. -1.
         22   -1    0    0    0    0 -0.00000000000E+00 -0.00000000000E+00 -0.18861885877E+01  0.18861885877E+01  0.00000000000E+00 0.  1.
          4    1    1    2  501    0 -0.11541068566E+01 -0.17053225899E+01 -0.10121208472E+01  0.22944446782E+01  0.00000000000E+00 0.  1.
         -4    1    1    2    0  501  0.11541068566E+01  0.17053225899E+01  0.43183841345E+01  0.47841957846E+01  0.00000000000E+00 0. -1.
<mgrwt>
<rscale>  0 0.20591473E+01</rscale>
<asrwt>0</asrwt>
<pdfrwt beam="1">0</pdfrwt>
<pdfrwt beam="2">0</pdfrwt>
<totfact> 0.16778647E+12</totfact>
</mgrwt>
</event>
<event>
 4    2  0.2093759E+006  0.2638271E+01  0.7546771E-02  0.2650541E+00
         22   -1    0    0    0    0  0.00000000000E+00  0.00000000000E+00  0.81682531945E+00  0.81682531945E+00  0.00000000000E+00 0. -1.
         22   -1    0    0    0    0 -0.00000000000E+00 -0.00000000000E+00 -0.87029480905E+01  0.87029480905E+01  0.00000000000E+00 0.  1.
          4    1    1    2  501    0  0.12532505700E+01 -0.23216027628E+01 -0.46305839125E+01  0.53294262120E+01  0.00000000000E+00 0.  1.
         -4    1    1    2    0  501 -0.12532505700E+01  0.23216027628E+01 -0.32555388586E+01  0.41903471979E+01  0.00000000000E+00 0. -1.
<mgrwt>
<rscale>  0 0.26382715E+01</rscale>
<asrwt>0</asrwt>
<pdfrwt beam="1">0</pdfrwt>
<pdfrwt beam="2">0</pdfrwt>
<totfact> 0.23635652E+12</totfact>
</mgrwt>
</event>
<event>
 4    2  0.2093759E+006  0.2616760E+01  0.7546771E-02  0.2659190E+00
         22   -1    0    0    0    0  0.00000000000E+00  0.00000000000E+00  0.31506538289E+00  0.31506538289E+00  0.00000000000E+00 0.  1.
         22   -1    0    0    0    0 -0.00000000000E+00 -0.00000000000E+00 -0.24511835450E+02  0.24511835450E+02  0.00000000000E+00 0. -1.
          4    1    1    2  501    0 -0.14279239156E-01 -0.26167210694E+01 -0.16277717986E+02  0.16486707855E+02  0.00000000000E+00 0. -1.
         -4    1    1    2    0  501  0.14279239156E-01  0.26167210694E+01 -0.79190520810E+01  0.83401929782E+01  0.00000000000E+00 0.  1.
<mgrwt>
<rscale>  0 0.26167600E+01</rscale>
<asrwt>0</asrwt>
<pdfrwt beam="1">0</pdfrwt>
<pdfrwt beam="2">0</pdfrwt>
<totfact> 0.19393894E+12</totfact>
</mgrwt>
</event>
<event>
 4    2  0.2093759E+006  0.2292789E+01  0.7546771E-02  0.2807588E+00
         22   -1    0    0    0    0  0.00000000000E+00  0.00000000000E+00  0.91500466952E+01  0.91500466952E+01  0.00000000000E+00 0. -1.
         22   -1    0    0    0    0 -0.00000000000E+00 -0.00000000000E+00 -0.68351051273E+00  0.68351051273E+00  0.00000000000E+00 0.  1.
          4    1    1    2  501    0  0.22882088464E+01 -0.14485208328E+00  0.22698940275E+01  0.32263447966E+01  0.00000000000E+00 0.  1.
         -4    1    1    2    0  501 -0.22882088464E+01  0.14485208328E+00  0.61966421550E+01  0.66072124113E+01  0.00000000000E+00 0. -1.
<mgrwt>
<rscale>  0 0.22927891E+01</rscale>
<asrwt>0</asrwt>
<pdfrwt beam="1">0</pdfrwt>
<pdfrwt beam="2">0</pdfrwt>
<totfact> 0.27242635E+12</totfact>
</mgrwt>
</event>
<event>
 4    2  0.2093759E+006  0.2904325E+01  0.7546771E-02  0.2553307E+00
         22   -1    0    0    0    0  0.00000000000E+00  0.00000000000E+00  0.53708782004E+00  0.53708782004E+00  0.00000000000E+00 0.  1.
         22   -1    0    0    0    0 -0.00000000000E+00 -0.00000000000E+00 -0.16814936420E+02  0.16814936420E+02  0.00000000000E+00 0. -1.
          4    1    1    2  501    0 -0.21279908692E+01 -0.19765528271E+01 -0.10367717910E+02  0.10766832444E+02  0.00000000000E+00 0. -1.
         -4    1    1    2    0  501  0.21279908692E+01  0.19765528271E+01 -0.59101306900E+01  0.65851917961E+01  0.00000000000E+00 0.  1.
<mgrwt>
<rscale>  0 0.29043254E+01</rscale>
<asrwt>0</asrwt>
<pdfrwt beam="1">0</pdfrwt>
<pdfrwt beam="2">0</pdfrwt>
<totfact> 0.17025460E+12</totfact>
</mgrwt>
</event>
<event>
 4    2  0.2093759E+006  0.7094843E+01  0.7546771E-02  0.1933491E+00
         22   -1    0    0    0    0  0.00000000000E+00  0.00000000000E+00  0.14766293524E+01  0.14766293524E+01  0.00000000000E+00 0.  1.
         22   -1    0    0    0    0 -0.00000000000E+00 -0.00000000000E+00 -0.41708881825E+02  0.41708881825E+02  0.00000000000E+00 0. -1.
          4    1    1    2  501    0  0.30229399058E+01 -0.64186164875E+01 -0.29345414214E+02  0.30190894963E+02  0.00000000000E+00 0. -1.
         -4    1    1    2    0  501 -0.30229399058E+01  0.64186164875E+01 -0.10886838259E+02  0.12994616214E+02  0.00000000000E+00 0.  1.
<mgrwt>
<rscale>  0 0.70948434E+01</rscale>
<asrwt>0</asrwt>
<pdfrwt beam="1">0</pdfrwt>
<pdfrwt beam="2">0</pdfrwt>
<totfact> 0.17010143E+11</totfact>
</mgrwt>
</event>
<event>
 4    2  0.2093759E+006  0.3382325E+01  0.7546771E-02  0.2413620E+00
         22   -1    0    0    0    0  0.00000000000E+00  0.00000000000E+00  0.16549424215E+02  0.16549424215E+02  0.00000000000E+00 0. -1.
         22   -1    0    0    0    0 -0.00000000000E+00 -0.00000000000E+00 -0.16792835627E+01  0.16792835627E+01  0.00000000000E+00 0.  1.
          4    1    1    2  501    0  0.23475524680E+01 -0.24349782416E+01  0.14426166982E+02  0.14817368708E+02  0.00000000000E+00 0. -1.
         -4    1    1    2    0  501 -0.23475524680E+01  0.24349782416E+01  0.44397366963E+00  0.34113390693E+01  0.00000000000E+00 0.  1.
<mgrwt>
<rscale>  0 0.33823249E+01</rscale>
<asrwt>0</asrwt>
<pdfrwt beam="1">0</pdfrwt>
<pdfrwt beam="2">0</pdfrwt>
<totfact> 0.47277040E+11</totfact>
</mgrwt>
</event>
<event>
 4    2  0.2093759E+006  0.2547419E+01  0.7546771E-02  0.2687987E+00
         22   -1    0    0    0    0  0.00000000000E+00  0.00000000000E+00  0.12990635662E+02  0.12990635662E+02  0.00000000000E+00 0. -1.
         22   -1    0    0    0    0 -0.00000000000E+00 -0.00000000000E+00 -0.75861459671E+01  0.75861459671E+01  0.00000000000E+00 0.  1.
          4    1    1    2  501    0 -0.89185130118E+00  0.23861991422E+01 -0.72416378243E+01  0.76766309973E+01  0.00000000000E+00 0.  1.
         -4    1    1    2    0  501  0.89185130118E+00 -0.23861991422E+01  0.12646127520E+02  0.12900150632E+02  0.00000000000E+00 0. -1.
<mgrwt>
<rscale>  0 0.25474193E+01</rscale>
<asrwt>0</asrwt>
<pdfrwt beam="1">0</pdfrwt>
<pdfrwt beam="2">0</pdfrwt>
<totfact> 0.10836968E+11</totfact>
</mgrwt>
</event>
<event>
 4    2  0.2093759E+006  0.2402409E+01  0.7546771E-02  0.2753183E+00
         22   -1    0    0    0    0  0.00000000000E+00  0.00000000000E+00  0.88258355594E+02  0.88258355594E+02  0.00000000000E+00 0. -1.
         22   -1    0    0    0    0 -0.00000000000E+00 -0.00000000000E+00 -0.65871644809E-01  0.65871644809E-01  0.00000000000E+00 0.  1.
          4    1    1    2  501    0  0.22275244380E+01  0.89983492980E+00  0.47856757393E+02  0.47917019901E+02  0.00000000000E+00 0. -1.
         -4    1    1    2    0  501 -0.22275244380E+01 -0.89983492980E+00  0.40335726557E+02  0.40407207338E+02  0.00000000000E+00 0.  1.
<mgrwt>
<rscale>  0 0.24024088E+01</rscale>
<asrwt>0</asrwt>
<pdfrwt beam="1">0</pdfrwt>
<pdfrwt beam="2">0</pdfrwt>
<totfact> 0.20469695E+12</totfact>
</mgrwt>
</event>
<event>
 4    2  0.2093759E+006  0.2627614E+01  0.7546771E-02  0.2654809E+00
         22   -1    0    0    0    0  0.00000000000E+00  0.00000000000E+00  0.18893941738E+02  0.18893941738E+02  0.00000000000E+00 0.  1.
         22   -1    0    0    0    0 -0.00000000000E+00 -0.00000000000E+00 -0.43967349100E+00  0.43967349100E+00  0.00000000000E+00 0. -1.
          4    1    1    2  501    0  0.12421476245E+00 -0.26246766484E+01  0.52547078637E+01  0.58750584293E+01  0.00000000000E+00 0. -1.
         -4    1    1    2    0  501 -0.12421476245E+00  0.26246766484E+01  0.13199560383E+02  0.13458556799E+02  0.00000000000E+00 0.  1.
<mgrwt>
<rscale>  0 0.26276143E+01</rscale>
<asrwt>0</asrwt>
<pdfrwt beam="1">0</pdfrwt>
<pdfrwt beam="2">0</pdfrwt>
<totfact> 0.18467785E+12</totfact>
</mgrwt>
</event>
<event>
 4    2  0.2093759E+006  0.3188259E+01  0.7546771E-02  0.2465840E+00
         22   -1    0    0    0    0  0.00000000000E+00  0.00000000000E+00  0.35742241134E+01  0.35742241134E+01  0.00000000000E+00 0. -1.
         22   -1    0    0    0    0 -0.00000000000E+00 -0.00000000000E+00 -0.28696792343E+01  0.28696792343E+01  0.00000000000E+00 0.  1.
          4    1    1    2  501    0 -0.30656633388E+01 -0.87561579475E+00  0.47323834171E-01  0.31886100847E+01  0.00000000000E+00 0.  1.
         -4    1    1    2    0  501  0.30656633388E+01  0.87561579475E+00  0.65722104489E+00  0.32552932631E+01  0.00000000000E+00 0. -1.
<mgrwt>
<rscale>  0 0.31882589E+01</rscale>
<asrwt>0</asrwt>
<pdfrwt beam="1">0</pdfrwt>
<pdfrwt beam="2">0</pdfrwt>
<totfact> 0.16010113E+12</totfact>
</mgrwt>
</event>
<event>
 4    2  0.2093759E+006  0.2206467E+01  0.7546771E-02  0.2854033E+00
         22   -1    0    0    0    0  0.00000000000E+00  0.00000000000E+00  0.42412417495E+00  0.42412417495E+00  0.00000000000E+00 0.  1.
         22   -1    0    0    0    0 -0.00000000000E+00 -0.00000000000E+00 -0.15240315704E+02  0.15240315704E+02  0.00000000000E+00 0. -1.
          4    1    1    2  501    0  0.10142079906E+01  0.19595606964E+01 -0.11299095922E+02  0.11512517736E+02  0.00000000000E+00 0. -1.
         -4    1    1    2    0  501 -0.10142079906E+01 -0.19595606964E+01 -0.35170956073E+01  0.41519221430E+01  0.00000000000E+00 0.  1.
<mgrwt>
<rscale>  0 0.22064669E+01</rscale>
<asrwt>0</asrwt>
<pdfrwt beam="1">0</pdfrwt>
<pdfrwt beam="2">0</pdfrwt>
<totfact> 0.25089932E+12</totfact>
</mgrwt>
</event>
<event>
 4    2  0.2093759E+006  0.2705396E+01  0.7546771E-02  0.2624365E+00
         22   -1    0    0    0    0  0.00000000000E+00  0.00000000000E+00  0.44649787605E+00  0.44649787605E+00  0.00000000000E+00 0.  1.
         22   -1    0    0    0    0 -0.00000000000E+00 -0.00000000000E+00 -0.16839873106E+02  0.16839873106E+02  0.00000000000E+00 0. -1.
          4    1    1    2  501    0 -0.26637494391E+01  0.47286861992E+00 -0.67877414746E+01  0.73070240270E+01  0.00000000000E+00 0. -1.
         -4    1    1    2    0  501  0.26637494391E+01 -0.47286861992E+00 -0.96056337556E+01  0.99793469552E+01  0.00000000000E+00 0.  1.
<mgrwt>
<rscale>  0 0.27053957E+01</rscale>
<asrwt>0</asrwt>
<pdfrwt beam="1">0</pdfrwt>
<pdfrwt beam="2">0</pdfrwt>
<totfact> 0.20934699E+12</totfact>
</mgrwt>
</event>
<event>
 4    2  0.2093759E+006  0.3337453E+01  0.7546771E-02  0.2425219E+00
         22   -1    0    0    0    0  0.00000000000E+00  0.00000000000E+00  0.73186670426E+00  0.73186670426E+00  0.00000000000E+00 0. -1.
         22   -1    0    0    0    0 -0.00000000000E+00 -0.00000000000E+00 -0.15311579488E+02  0.15311579488E+02  0.00000000000E+00 0.  1.
          4    1    1    2  501    0  0.32539152927E+01 -0.74204363155E+00 -0.79121653265E+01  0.85872553029E+01  0.00000000000E+00 0. -1.
         -4    1    1    2    0  501 -0.32539152927E+01  0.74204363155E+00 -0.66675474570E+01  0.74561908891E+01  0.00000000000E+00 0.  1.
<mgrwt>
<rscale>  0 0.33374531E+01</rscale>
<asrwt>0</asrwt>
<pdfrwt beam="1">0</pdfrwt>
<pdfrwt beam="2">0</pdfrwt>
<totfact> 0.13459375E+12</totfact>
</mgrwt>
</event>
<event>
 4    2  0.2093759E+006  0.3378033E+01  0.7546771E-02  0.2414718E+00
         22   -1    0    0    0    0  0.00000000000E+00  0.00000000000E+00  0.10247979722E+01  0.10247979722E+01  0.00000000000E+00 0.  1.
         22   -1    0    0    0    0 -0.00000000000E+00 -0.00000000000E+00 -0.11247350186E+02  0.11247350186E+02  0.00000000000E+00 0. -1.
          4    1    1    2  501    0  0.31331677931E+01  0.12626816909E+01 -0.57246001679E+01  0.66469656653E+01  0.00000000000E+00 0. -1.
         -4    1    1    2    0  501 -0.31331677931E+01 -0.12626816909E+01 -0.44979520460E+01  0.56251824931E+01  0.00000000000E+00 0.  1.
<mgrwt>
<rscale>  0 0.33780328E+01</rscale>
<asrwt>0</asrwt>
<pdfrwt beam="1">0</pdfrwt>
<pdfrwt beam="2">0</pdfrwt>
<totfact> 0.13379131E+12</totfact>
</mgrwt>
</event>
<event>
 4    2  0.2093759E+006  0.2769867E+01  0.7546771E-02  0.2600320E+00
         22   -1    0    0    0    0  0.00000000000E+00  0.00000000000E+00  0.75737068644E+01  0.75737068644E+01  0.00000000000E+00 0. -1.
         22   -1    0    0    0    0 -0.00000000000E+00 -0.00000000000E+00 -0.10145761958E+01  0.10145761958E+01  0.00000000000E+00 0.  1.
          4    1    1    2  501    0 -0.27360398052E+01 -0.43156855785E+00  0.34488181048E+01  0.44234049731E+01  0.00000000000E+00 0.  1.
         -4    1    1    2    0  501  0.27360398052E+01  0.43156855785E+00  0.31103125638E+01  0.41648780871E+01  0.00000000000E+00 0. -1.
<mgrwt>
<rscale>  0 0.27698674E+01</rscale>
<asrwt>0</asrwt>
<pdfrwt beam="1">0</pdfrwt>
<pdfrwt beam="2">0</pdfrwt>
<totfact> 0.21816019E+12</totfact>
</mgrwt>
</event>
<event>
 4    2  0.2093759E+006  0.2891984E+01  0.7546771E-02  0.2557456E+00
         22   -1    0    0    0    0  0.00000000000E+00  0.00000000000E+00  0.57461409953E+00  0.57461409953E+00  0.00000000000E+00 0.  1.
         22   -1    0    0    0    0 -0.00000000000E+00 -0.00000000000E+00 -0.39993853648E+02  0.39993853648E+02  0.00000000000E+00 0. -1.
          4    1    1    2  501    0  0.61062759803E+00 -0.28267839551E+01 -0.35887059112E+02  0.36003396858E+02  0.00000000000E+00 0. -1.
         -4    1    1    2    0  501 -0.61062759803E+00  0.28267839551E+01 -0.35321804363E+01  0.45650708896E+01  0.00000000000E+00 0.  1.
<mgrwt>
<rscale>  0 0.28919844E+01</rscale>
<asrwt>0</asrwt>
<pdfrwt beam="1">0</pdfrwt>
<pdfrwt beam="2">0</pdfrwt>
<totfact> 0.52710668E+11</totfact>
</mgrwt>
</event>
<event>
 4    2  0.2093759E+006  0.2102860E+01  0.7546771E-02  0.2914595E+00
         22   -1    0    0    0    0  0.00000000000E+00  0.00000000000E+00  0.10797592835E+01  0.10797592835E+01  0.00000000000E+00 0.  1.
         22   -1    0    0    0    0 -0.00000000000E+00 -0.00000000000E+00 -0.43564740485E+01  0.43564740485E+01  0.00000000000E+00 0. -1.
          4    1    1    2  501    0  0.19841719593E+01  0.69647719424E+00 -0.23037889906E+01  0.31192086432E+01  0.00000000000E+00 0. -1.
         -4    1    1    2    0  501 -0.19841719593E+01 -0.69647719424E+00 -0.97292577431E+00  0.23170246888E+01  0.00000000000E+00 0.  1.
<mgrwt>
<rscale>  0 0.21028597E+01</rscale>
<asrwt>0</asrwt>
<pdfrwt beam="1">0</pdfrwt>
<pdfrwt beam="2">0</pdfrwt>
<totfact> 0.39210401E+12</totfact>
</mgrwt>
</event>
<event>
 4    2  0.2093759E+006  0.2096328E+01  0.7546771E-02  0.2918606E+00
         22   -1    0    0    0    0  0.00000000000E+00  0.00000000000E+00  0.69011067780E+02  0.69011067780E+02  0.00000000000E+00 0. -1.
         22   -1    0    0    0    0 -0.00000000000E+00 -0.00000000000E+00 -0.79204548079E-01  0.79204548079E-01  0.00000000000E+00 0.  1.
          4    1    1    2  501    0  0.53843101299E+00  0.20260019246E+01  0.19171687108E+02  0.19285958061E+02  0.00000000000E+00 0.  1.
         -4    1    1    2    0  501 -0.53843101299E+00 -0.20260019246E+01  0.49760176124E+02  0.49804314268E+02  0.00000000000E+00 0. -1.
<mgrwt>
<rscale>  0 0.20963282E+01</rscale>
<asrwt>0</asrwt>
<pdfrwt beam="1">0</pdfrwt>
<pdfrwt beam="2">0</pdfrwt>
<totfact> 0.23401764E+12</totfact>
</mgrwt>
</event>
<event>
 4    2  0.2093759E+006  0.2974685E+01  0.7546771E-02  0.2530241E+00
         22   -1    0    0    0    0  0.00000000000E+00  0.00000000000E+00  0.17207570830E+02  0.17207570830E+02  0.00000000000E+00 0. -1.
         22   -1    0    0    0    0 -0.00000000000E+00 -0.00000000000E+00 -0.98525337855E+00  0.98525337855E+00  0.00000000000E+00 0.  1.
          4    1    1    2  501    0  0.10213091653E+01  0.27938639113E+01  0.18216786573E+01  0.34881601306E+01  0.00000000000E+00 0.  1.
         -4    1    1    2    0  501 -0.10213091653E+01 -0.27938639113E+01  0.14400638794E+02  0.14704664078E+02  0.00000000000E+00 0. -1.
<mgrwt>
<rscale>  0 0.29746845E+01</rscale>
<asrwt>0</asrwt>
<pdfrwt beam="1">0</pdfrwt>
<pdfrwt beam="2">0</pdfrwt>
<totfact> 0.83058174E+11</totfact>
</mgrwt>
</event>
<event>
 4    2  0.2093759E+006  0.2322139E+01  0.7546771E-02  0.2792546E+00
         22   -1    0    0    0    0  0.00000000000E+00  0.00000000000E+00  0.51226068161E-01  0.51226068161E-01  0.00000000000E+00 0. -1.
         22   -1    0    0    0    0 -0.00000000000E+00 -0.00000000000E+00 -0.10733635495E+03  0.10733635495E+03  0.00000000000E+00 0.  1.
          4    1    1    2  501    0  0.22537042165E+01 -0.55959532406E+00 -0.61100900918E+02  0.61145011429E+02  0.00000000000E+00 0. -1.
         -4    1    1    2    0  501 -0.22537042165E+01  0.55959532406E+00 -0.46184227964E+02  0.46242569590E+02  0.00000000000E+00 0.  1.
<mgrwt>
<rscale>  0 0.23221390E+01</rscale>
<asrwt>0</asrwt>
<pdfrwt beam="1">0</pdfrwt>
<pdfrwt beam="2">0</pdfrwt>
<totfact> 0.20514093E+12</totfact>
</mgrwt>
</event>
<event>
 4    2  0.2093759E+006  0.2376468E+01  0.7546771E-02  0.2765630E+00
         22   -1    0    0    0    0  0.00000000000E+00  0.00000000000E+00  0.41153098547E+00  0.41153098547E+00  0.00000000000E+00 0. -1.
         22   -1    0    0    0    0 -0.00000000000E+00 -0.00000000000E+00 -0.14715480660E+02  0.14715480660E+02  0.00000000000E+00 0.  1.
          4    1    1    2  501    0  0.11235537794E+01  0.20940932911E+01 -0.51881090031E+01  0.57064940931E+01  0.00000000000E+00 0. -1.
         -4    1    1    2    0  501 -0.11235537794E+01 -0.20940932911E+01 -0.91158406713E+01  0.94205175522E+01  0.00000000000E+00 0.  1.
<mgrwt>
<rscale>  0 0.23764679E+01</rscale>
<asrwt>0</asrwt>
<pdfrwt beam="1">0</pdfrwt>
<pdfrwt beam="2">0</pdfrwt>
<totfact> 0.27100887E+12</totfact>
</mgrwt>
</event>
<event>
 4    2  0.2093759E+006  0.2105156E+01  0.7546771E-02  0.2913190E+00
         22   -1    0    0    0    0  0.00000000000E+00  0.00000000000E+00  0.65446499278E+02  0.65446499278E+02  0.00000000000E+00 0.  1.
         22   -1    0    0    0    0 -0.00000000000E+00 -0.00000000000E+00 -0.12557604646E+00  0.12557604646E+00  0.00000000000E+00 0. -1.
          4    1    1    2  501    0 -0.18161002377E+01 -0.10646411809E+01  0.10405322016E+02  0.10616138996E+02  0.00000000000E+00 0. -1.
         -4    1    1    2    0  501  0.18161002377E+01  0.10646411809E+01  0.54915601215E+02  0.54955936328E+02  0.00000000000E+00 0.  1.
<mgrwt>
<rscale>  0 0.21051558E+01</rscale>
<asrwt>0</asrwt>
<pdfrwt beam="1">0</pdfrwt>
<pdfrwt beam="2">0</pdfrwt>
<totfact> 0.15094350E+12</totfact>
</mgrwt>
</event>
<event>
 4    2  0.2093759E+006  0.2329214E+01  0.7546771E-02  0.2788974E+00
         22   -1    0    0    0    0  0.00000000000E+00  0.00000000000E+00  0.24572499069E+01  0.24572499069E+01  0.00000000000E+00 0.  1.
         22   -1    0    0    0    0 -0.00000000000E+00 -0.00000000000E+00 -0.81314384984E+01  0.81314384984E+01  0.00000000000E+00 0. -1.
          4    1    1    2  501    0  0.23274879821E+01  0.89655330293E-01 -0.73558715587E+01  0.77158333816E+01  0.00000000000E+00 0. -1.
         -4    1    1    2    0  501 -0.23274879821E+01 -0.89655330293E-01  0.16816829671E+01  0.28728550237E+01  0.00000000000E+00 0.  1.
<mgrwt>
<rscale>  0 0.23292141E+01</rscale>
<asrwt>0</asrwt>
<pdfrwt beam="1">0</pdfrwt>
<pdfrwt beam="2">0</pdfrwt>
<totfact> 0.72300361E+11</totfact>
</mgrwt>
</event>
<event>
 4    2  0.2093759E+006  0.2119272E+01  0.7546771E-02  0.2904620E+00
         22   -1    0    0    0    0  0.00000000000E+00  0.00000000000E+00  0.66181778408E+01  0.66181778408E+01  0.00000000000E+00 0. -1.
         22   -1    0    0    0    0 -0.00000000000E+00 -0.00000000000E+00 -0.69454265045E+00  0.69454265045E+00  0.00000000000E+00 0.  1.
          4    1    1    2  501    0  0.14344057522E+01  0.15600627051E+01  0.24084337336E+01  0.32080942248E+01  0.00000000000E+00 0.  1.
         -4    1    1    2    0  501 -0.14344057522E+01 -0.15600627051E+01  0.35152014568E+01  0.41046262665E+01  0.00000000000E+00 0. -1.
<mgrwt>
<rscale>  0 0.21192724E+01</rscale>
<asrwt>0</asrwt>
<pdfrwt beam="1">0</pdfrwt>
<pdfrwt beam="2">0</pdfrwt>
<totfact> 0.39465524E+12</totfact>
</mgrwt>
</event>
<event>
 4    2  0.2093759E+006  0.2168721E+01  0.7546771E-02  0.2875451E+00
         22   -1    0    0    0    0  0.00000000000E+00  0.00000000000E+00  0.17537454442E+01  0.17537454442E+01  0.00000000000E+00 0. -1.
         22   -1    0    0    0    0 -0.00000000000E+00 -0.00000000000E+00 -0.32116015741E+01  0.32116015741E+01  0.00000000000E+00 0.  1.
          4    1    1    2  501    0 -0.21666950886E+01  0.93714387096E-01 -0.17372032198E+01  0.27787092363E+01  0.00000000000E+00 0.  1.
         -4    1    1    2    0  501  0.21666950886E+01 -0.93714387096E-01  0.27934708985E+00  0.21866377820E+01  0.00000000000E+00 0. -1.
<mgrwt>
<rscale>  0 0.21687208E+01</rscale>
<asrwt>0</asrwt>
<pdfrwt beam="1">0</pdfrwt>
<pdfrwt beam="2">0</pdfrwt>
<totfact> 0.32135219E+12</totfact>
</mgrwt>
</event>
<event>
 4    2  0.2093759E+006  0.2292334E+02  0.7546771E-02  0.1492477E+00
         22   -1    0    0    0    0  0.00000000000E+00  0.00000000000E+00  0.14026959189E+02  0.14026959189E+02  0.00000000000E+00 0. -1.
         22   -1    0    0    0    0 -0.00000000000E+00 -0.00000000000E+00 -0.44396659588E+02  0.44396659588E+02  0.00000000000E+00 0.  1.
          4    1    1    2  501    0 -0.21576094362E+02  0.77428502009E+01 -0.26729805107E+02  0.35213094982E+02  0.00000000000E+00 0.  1.
         -4    1    1    2    0  501  0.21576094362E+02 -0.77428502009E+01 -0.36398952920E+01  0.23210523796E+02  0.00000000000E+00 0. -1.
<mgrwt>
<rscale>  0 0.22923341E+02</rscale>
<asrwt>0</asrwt>
<pdfrwt beam="1">0</pdfrwt>
<pdfrwt beam="2">0</pdfrwt>
<totfact> 0.10921943E+10</totfact>
</mgrwt>
</event>
<event>
 4    2  0.2093759E+006  0.3486666E+01  0.7546771E-02  0.2387665E+00
         22   -1    0    0    0    0  0.00000000000E+00  0.00000000000E+00  0.25971304721E+01  0.25971304721E+01  0.00000000000E+00 0. -1.
         22   -1    0    0    0    0 -0.00000000000E+00 -0.00000000000E+00 -0.52021979682E+01  0.52021979682E+01  0.00000000000E+00 0.  1.
          4    1    1    2  501    0 -0.34330198083E+01  0.60927555226E+00 -0.25370233314E+01  0.43119982708E+01  0.00000000000E+00 0.  1.
         -4    1    1    2    0  501  0.34330198083E+01 -0.60927555226E+00 -0.68044164635E-01  0.34873301695E+01  0.00000000000E+00 0. -1.
<mgrwt>
<rscale>  0 0.34866663E+01</rscale>
<asrwt>0</asrwt>
<pdfrwt beam="1">0</pdfrwt>
<pdfrwt beam="2">0</pdfrwt>
<totfact> 0.11553062E+12</totfact>
</mgrwt>
</event>
<event>
 4    2  0.2093759E+006  0.6006467E+01  0.7546771E-02  0.2019108E+00
         22   -1    0    0    0    0  0.00000000000E+00  0.00000000000E+00  0.10507265293E+02  0.10507265293E+02  0.00000000000E+00 0. -1.
         22   -1    0    0    0    0 -0.00000000000E+00 -0.00000000000E+00 -0.35848309637E+01  0.35848309637E+01  0.00000000000E+00 0.  1.
          4    1    1    2  501    0  0.17377247072E+01  0.57496053745E+01  0.20139627673E+01  0.63351160327E+01  0.00000000000E+00 0. -1.
         -4    1    1    2    0  501 -0.17377247072E+01 -0.57496053745E+01  0.49084715619E+01  0.77569802239E+01  0.00000000000E+00 0.  1.
<mgrwt>
<rscale>  0 0.60064673E+01</rscale>
<asrwt>0</asrwt>
<pdfrwt beam="1">0</pdfrwt>
<pdfrwt beam="2">0</pdfrwt>
<totfact> 0.34133068E+11</totfact>
</mgrwt>
</event>
<event>
 4    2  0.2093759E+006  0.2639220E+01  0.7546771E-02  0.2650162E+00
         22   -1    0    0    0    0  0.00000000000E+00  0.00000000000E+00  0.48630199246E+01  0.48630199246E+01  0.00000000000E+00 0. -1.
         22   -1    0    0    0    0 -0.00000000000E+00 -0.00000000000E+00 -0.29112361816E+01  0.29112361816E+01  0.00000000000E+00 0.  1.
          4    1    1    2  501    0 -0.26331490561E+01  0.17890789902E+00 -0.17946164167E+01  0.31915717243E+01  0.00000000000E+00 0.  1.
         -4    1    1    2    0  501  0.26331490561E+01 -0.17890789902E+00  0.37464001597E+01  0.45826843820E+01  0.00000000000E+00 0. -1.
<mgrwt>
<rscale>  0 0.26392200E+01</rscale>
<asrwt>0</asrwt>
<pdfrwt beam="1">0</pdfrwt>
<pdfrwt beam="2">0</pdfrwt>
<totfact> 0.10953701E+12</totfact>
</mgrwt>
</event>
<event>
 4    2  0.2093759E+006  0.2633126E+01  0.7546771E-02  0.2652598E+00
         22   -1    0    0    0    0  0.00000000000E+00  0.00000000000E+00  0.49987864378E+01  0.49987864378E+01  0.00000000000E+00 0.  1.
         22   -1    0    0    0    0 -0.00000000000E+00 -0.00000000000E+00 -0.28950212080E+01  0.28950212080E+01  0.00000000000E+00 0. -1.
          4    1    1    2  501    0  0.25536827190E+01 -0.64191680330E+00 -0.17967297933E+01  0.31877249821E+01  0.00000000000E+00 0. -1.
         -4    1    1    2    0  501 -0.25536827190E+01  0.64191680330E+00  0.39004950231E+01  0.47060826636E+01  0.00000000000E+00 0.  1.
<mgrwt>
<rscale>  0 0.26331260E+01</rscale>
<asrwt>0</asrwt>
<pdfrwt beam="1">0</pdfrwt>
<pdfrwt beam="2">0</pdfrwt>
<totfact> 0.10671830E+12</totfact>
</mgrwt>
</event>
<event>
 4    2  0.2093759E+006  0.3385319E+01  0.7546771E-02  0.2412856E+00
         22   -1    0    0    0    0  0.00000000000E+00  0.00000000000E+00  0.20394152270E+02  0.20394152270E+02  0.00000000000E+00 0.  1.
         22   -1    0    0    0    0 -0.00000000000E+00 -0.00000000000E+00 -0.10955901313E+01  0.10955901313E+01  0.00000000000E+00 0. -1.
          4    1    1    2  501    0  0.41176760567E-01 -0.33850680823E+01  0.21502760828E+01  0.40104948173E+01  0.00000000000E+00 0. -1.
         -4    1    1    2    0  501 -0.41176760567E-01  0.33850680823E+01  0.17148286056E+02  0.17479247584E+02  0.00000000000E+00 0.  1.
<mgrwt>
<rscale>  0 0.33853185E+01</rscale>
<asrwt>0</asrwt>
<pdfrwt beam="1">0</pdfrwt>
<pdfrwt beam="2">0</pdfrwt>
<totfact> 0.59563754E+11</totfact>
</mgrwt>
</event>
<event>
 4    2  0.2093759E+006  0.3846057E+01  0.7546771E-02  0.2307723E+00
         22   -1    0    0    0    0  0.00000000000E+00  0.00000000000E+00  0.29438080724E+01  0.29438080724E+01  0.00000000000E+00 0. -1.
         22   -1    0    0    0    0 -0.00000000000E+00 -0.00000000000E+00 -0.56537787280E+01  0.56537787280E+01  0.00000000000E+00 0.  1.
          4    1    1    2  501    0 -0.24629562230E+01  0.29539806201E+01 -0.27887651876E+01  0.47507226958E+01  0.00000000000E+00 0.  1.
         -4    1    1    2    0  501  0.24629562230E+01 -0.29539806201E+01  0.78794532021E-01  0.38468641045E+01  0.00000000000E+00 0. -1.
<mgrwt>
<rscale>  0 0.38460571E+01</rscale>
<asrwt>0</asrwt>
<pdfrwt beam="1">0</pdfrwt>
<pdfrwt beam="2">0</pdfrwt>
<totfact> 0.90437480E+11</totfact>
</mgrwt>
</event>
<event>
 4    2  0.2093759E+006  0.2601794E+01  0.7546771E-02  0.2665285E+00
         22   -1    0    0    0    0  0.00000000000E+00  0.00000000000E+00  0.24965438530E+01  0.24965438530E+01  0.00000000000E+00 0. -1.
         22   -1    0    0    0    0 -0.00000000000E+00 -0.00000000000E+00 -0.37231275198E+01  0.37231275198E+01  0.00000000000E+00 0.  1.
          4    1    1    2  501    0 -0.18109806584E+01  0.18680688596E+01 -0.22343470136E+01  0.34295245715E+01  0.00000000000E+00 0.  1.
         -4    1    1    2    0  501  0.18109806584E+01 -0.18680688596E+01  0.10077633468E+01  0.27901468013E+01  0.00000000000E+00 0. -1.
<mgrwt>
<rscale>  0 0.26017940E+01</rscale>
<asrwt>0</asrwt>
<pdfrwt beam="1">0</pdfrwt>
<pdfrwt beam="2">0</pdfrwt>
<totfact> 0.17949643E+12</totfact>
</mgrwt>
</event>
<event>
 4    2  0.2093759E+006  0.3227815E+01  0.7546771E-02  0.2454747E+00
         22   -1    0    0    0    0  0.00000000000E+00  0.00000000000E+00  0.25219083985E+00  0.25219083985E+00  0.00000000000E+00 0.  1.
         22   -1    0    0    0    0 -0.00000000000E+00 -0.00000000000E+00 -0.10356606045E+03  0.10356606045E+03  0.00000000000E+00 0. -1.
          4    1    1    2  501    0  0.96366926207E+00  0.30806053372E+01 -0.91902215260E+02  0.91958881884E+02  0.00000000000E+00 0. -1.
         -4    1    1    2    0  501 -0.96366926207E+00 -0.30806053372E+01 -0.11411654347E+02  0.11859369402E+02  0.00000000000E+00 0.  1.
<mgrwt>
<rscale>  0 0.32278147E+01</rscale>
<asrwt>0</asrwt>
<pdfrwt beam="1">0</pdfrwt>
<pdfrwt beam="2">0</pdfrwt>
<totfact> 0.36860816E+11</totfact>
</mgrwt>
</event>
<event>
 4    2  0.2093759E+006  0.2295505E+01  0.7546771E-02  0.2806181E+00
         22   -1    0    0    0    0  0.00000000000E+00  0.00000000000E+00  0.41737635752E+00  0.41737635752E+00  0.00000000000E+00 0. -1.
         22   -1    0    0    0    0 -0.00000000000E+00 -0.00000000000E+00 -0.13137068519E+02  0.13137068519E+02  0.00000000000E+00 0.  1.
          4    1    1    2  501    0 -0.19508237046E+01  0.12098057814E+01 -0.76979826385E+01  0.80329496362E+01  0.00000000000E+00 0.  1.
         -4    1    1    2    0  501  0.19508237046E+01 -0.12098057814E+01 -0.50217095226E+01  0.55214952400E+01  0.00000000000E+00 0. -1.
<mgrwt>
<rscale>  0 0.22955050E+01</rscale>
<asrwt>0</asrwt>
<pdfrwt beam="1">0</pdfrwt>
<pdfrwt beam="2">0</pdfrwt>
<totfact> 0.30656702E+12</totfact>
</mgrwt>
</event>
<event>
 4    2  0.2093759E+006  0.3146416E+01  0.7546771E-02  0.2477843E+00
         22   -1    0    0    0    0  0.00000000000E+00  0.00000000000E+00  0.16641675327E+00  0.16641675327E+00  0.00000000000E+00 0. -1.
         22   -1    0    0    0    0 -0.00000000000E+00 -0.00000000000E+00 -0.63469216565E+02  0.63469216565E+02  0.00000000000E+00 0.  1.
          4    1    1    2  501    0 -0.31340434089E+01 -0.27875793104E+00 -0.23683337967E+02  0.23891430082E+02  0.00000000000E+00 0.  1.
         -4    1    1    2    0  501  0.31340434089E+01  0.27875793104E+00 -0.39619461845E+02  0.39744203237E+02  0.00000000000E+00 0. -1.
<mgrwt>
<rscale>  0 0.31464161E+01</rscale>
<asrwt>0</asrwt>
<pdfrwt beam="1">0</pdfrwt>
<pdfrwt beam="2">0</pdfrwt>
<totfact> 0.11505195E+12</totfact>
</mgrwt>
</event>
<event>
 4    2  0.2093759E+006  0.2184772E+01  0.7546771E-02  0.2866256E+00
         22   -1    0    0    0    0  0.00000000000E+00  0.00000000000E+00  0.84576494651E+01  0.84576494651E+01  0.00000000000E+00 0.  1.
         22   -1    0    0    0    0 -0.00000000000E+00 -0.00000000000E+00 -0.56575456595E+00  0.56575456595E+00  0.00000000000E+00 0. -1.
          4    1    1    2  501    0  0.17051717339E+01  0.13658761661E+01  0.41692874245E+01  0.47070357945E+01  0.00000000000E+00 0. -1.
         -4    1    1    2    0  501 -0.17051717339E+01 -0.13658761661E+01  0.37226074747E+01  0.43163682365E+01  0.00000000000E+00 0.  1.
<mgrwt>
<rscale>  0 0.21847719E+01</rscale>
<asrwt>0</asrwt>
<pdfrwt beam="1">0</pdfrwt>
<pdfrwt beam="2">0</pdfrwt>
<totfact> 0.37108259E+12</totfact>
</mgrwt>
</event>
<event>
 4    2  0.2093759E+006  0.2208265E+01  0.7546771E-02  0.2853030E+00
         22   -1    0    0    0    0  0.00000000000E+00  0.00000000000E+00  0.31667846922E+01  0.31667846922E+01  0.00000000000E+00 0.  1.
         22   -1    0    0    0    0 -0.00000000000E+00 -0.00000000000E+00 -0.20422965738E+01  0.20422965738E+01  0.00000000000E+00 0. -1.
          4    1    1    2  501    0 -0.19961620048E+01  0.94433644919E+00 -0.72959495793E+00  0.23256704155E+01  0.00000000000E+00 0. -1.
         -4    1    1    2    0  501  0.19961620048E+01 -0.94433644919E+00  0.18540830764E+01  0.28834108505E+01  0.00000000000E+00 0.  1.
<mgrwt>
<rscale>  0 0.22082649E+01</rscale>
<asrwt>0</asrwt>
<pdfrwt beam="1">0</pdfrwt>
<pdfrwt beam="2">0</pdfrwt>
<totfact> 0.27393411E+12</totfact>
</mgrwt>
</event>
<event>
 4    2  0.2093759E+006  0.3867419E+01  0.7546771E-02  0.2303377E+00
         22   -1    0    0    0    0  0.00000000000E+00  0.00000000000E+00  0.78434170348E+01  0.78434170348E+01  0.00000000000E+00 0. -1.
         22   -1    0    0    0    0 -0.00000000000E+00 -0.00000000000E+00 -0.20632012353E+01  0.20632012353E+01  0.00000000000E+00 0.  1.
          4    1    1    2  501    0  0.20198187829E+01  0.32980692785E+01  0.15269389102E+01  0.41579407544E+01  0.00000000000E+00 0.  1.
         -4    1    1    2    0  501 -0.20198187829E+01 -0.32980692785E+01  0.42532768893E+01  0.57486775156E+01  0.00000000000E+00 0. -1.
<mgrwt>
<rscale>  0 0.38674189E+01</rscale>
<asrwt>0</asrwt>
<pdfrwt beam="1">0</pdfrwt>
<pdfrwt beam="2">0</pdfrwt>
<totfact> 0.92483632E+11</totfact>
</mgrwt>
</event>
<event>
 4    2  0.2093759E+006  0.2170727E+01  0.7546771E-02  0.2874295E+00
         22   -1    0    0    0    0  0.00000000000E+00  0.00000000000E+00  0.20902801787E+02  0.20902801787E+02  0.00000000000E+00 0. -1.
         22   -1    0    0    0    0 -0.00000000000E+00 -0.00000000000E+00 -0.22588009343E+00  0.22588009343E+00  0.00000000000E+00 0.  1.
          4    1    1    2  501    0 -0.15012164662E+01 -0.15679304310E+01  0.98653329135E+01  0.10101329131E+02  0.00000000000E+00 0. -1.
         -4    1    1    2    0  501  0.15012164662E+01  0.15679304310E+01  0.10811588780E+02  0.11027352749E+02  0.00000000000E+00 0.  1.
<mgrwt>
<rscale>  0 0.21707272E+01</rscale>
<asrwt>0</asrwt>
<pdfrwt beam="1">0</pdfrwt>
<pdfrwt beam="2">0</pdfrwt>
<totfact> 0.34374483E+12</totfact>
</mgrwt>
</event>
<event>
 4    2  0.2093759E+006  0.2832248E+01  0.7546771E-02  0.2578005E+00
         22   -1    0    0    0    0  0.00000000000E+00  0.00000000000E+00  0.13974742314E+01  0.13974742314E+01  0.00000000000E+00 0. -1.
         22   -1    0    0    0    0 -0.00000000000E+00 -0.00000000000E+00 -0.67412334026E+01  0.67412334026E+01  0.00000000000E+00 0.  1.
          4    1    1    2  501    0 -0.28112105594E+01  0.34456353091E+00 -0.42400879411E+01  0.50990170214E+01  0.00000000000E+00 0.  1.
         -4    1    1    2    0  501  0.28112105594E+01 -0.34456353091E+00 -0.11036712302E+01  0.30396906126E+01  0.00000000000E+00 0. -1.
<mgrwt>
<rscale>  0 0.28322480E+01</rscale>
<asrwt>0</asrwt>
<pdfrwt beam="1">0</pdfrwt>
<pdfrwt beam="2">0</pdfrwt>
<totfact> 0.17378006E+12</totfact>
</mgrwt>
</event>
<event>
 4    2  0.2093759E+006  0.6368291E+01  0.7546771E-02  0.1988153E+00
         22   -1    0    0    0    0  0.00000000000E+00  0.00000000000E+00  0.45531389802E+01  0.45531389802E+01  0.00000000000E+00 0.  1.
         22   -1    0    0    0    0 -0.00000000000E+00 -0.00000000000E+00 -0.89141454383E+01  0.89141454383E+01  0.00000000000E+00 0. -1.
          4    1    1    2  501    0 -0.29603107942E+01 -0.56384121034E+01 -0.19908047992E+01  0.66722136353E+01  0.00000000000E+00 0. -1.
         -4    1    1    2    0  501  0.29603107942E+01  0.56384121034E+01 -0.23702016589E+01  0.67950707833E+01  0.00000000000E+00 0.  1.
<mgrwt>
<rscale>  0 0.63682911E+01</rscale>
<asrwt>0</asrwt>
<pdfrwt beam="1">0</pdfrwt>
<pdfrwt beam="2">0</pdfrwt>
<totfact> 0.31427726E+11</totfact>
</mgrwt>
</event>
<event>
 4    2  0.2093759E+006  0.2462924E+01  0.7546771E-02  0.2725105E+00
         22   -1    0    0    0    0  0.00000000000E+00  0.00000000000E+00  0.15944445786E+02  0.15944445786E+02  0.00000000000E+00 0.  1.
         22   -1    0    0    0    0 -0.00000000000E+00 -0.00000000000E+00 -0.10730482866E+01  0.10730482866E+01  0.00000000000E+00 0. -1.
          4    1    1    2  501    0 -0.10255795540E+01 -0.22392369194E+01  0.59976188894E+00  0.25348983660E+01  0.00000000000E+00 0. -1.
         -4    1    1    2    0  501  0.10255795540E+01  0.22392369194E+01  0.14271635610E+02  0.14482595706E+02  0.00000000000E+00 0.  1.
<mgrwt>
<rscale>  0 0.24629242E+01</rscale>
<asrwt>0</asrwt>
<pdfrwt beam="1">0</pdfrwt>
<pdfrwt beam="2">0</pdfrwt>
<totfact> 0.82782892E+11</totfact>
</mgrwt>
</event>
<event>
 4    2  0.2093759E+006  0.2091724E+01  0.7546771E-02  0.2921448E+00
         22   -1    0    0    0    0  0.00000000000E+00  0.00000000000E+00  0.44785366750E+01  0.44785366750E+01  0.00000000000E+00 0.  1.
         22   -1    0    0    0    0 -0.00000000000E+00 -0.00000000000E+00 -0.12295999078E+01  0.12295999078E+01  0.00000000000E+00 0. -1.
          4    1    1    2  501    0 -0.10938707894E+01  0.17829070348E+01  0.33074574344E+00  0.21177118655E+01  0.00000000000E+00 0. -1.
         -4    1    1    2    0  501  0.10938707894E+01 -0.17829070348E+01  0.29181910238E+01  0.35904247172E+01  0.00000000000E+00 0.  1.
<mgrwt>
<rscale>  0 0.20917244E+01</rscale>
<asrwt>0</asrwt>
<pdfrwt beam="1">0</pdfrwt>
<pdfrwt beam="2">0</pdfrwt>
<totfact> 0.32705919E+12</totfact>
</mgrwt>
</event>
<event>
 4    2  0.2093759E+006  0.2633344E+01  0.7546771E-02  0.2652510E+00
         22   -1    0    0    0    0  0.00000000000E+00  0.00000000000E+00  0.56771763417E+00  0.56771763417E+00  0.00000000000E+00 0. -1.
         22   -1    0    0    0    0 -0.00000000000E+00 -0.00000000000E+00 -0.12214768533E+02  0.12214768533E+02  0.00000000000E+00 0.  1.
          4    1    1    2  501    0 -0.22620982162E+01 -0.13481146774E+01 -0.58085699644E+01  0.63776160557E+01  0.00000000000E+00 0.  1.
         -4    1    1    2    0  501  0.22620982162E+01  0.13481146774E+01 -0.58384809348E+01  0.64048701118E+01  0.00000000000E+00 0. -1.
<mgrwt>
<rscale>  0 0.26333442E+01</rscale>
<asrwt>0</asrwt>
<pdfrwt beam="1">0</pdfrwt>
<pdfrwt beam="2">0</pdfrwt>
<totfact> 0.23678573E+12</totfact>
</mgrwt>
</event>
<event>
 4    2  0.2093759E+006  0.3514108E+01  0.7546771E-02  0.2381063E+00
         22   -1    0    0    0    0  0.00000000000E+00  0.00000000000E+00  0.30558799725E+01  0.30558799725E+01  0.00000000000E+00 0. -1.
         22   -1    0    0    0    0 -0.00000000000E+00 -0.00000000000E+00 -0.73551100266E+01  0.73551100266E+01  0.00000000000E+00 0.  1.
          4    1    1    2  501    0 -0.28712403301E+01 -0.20260640355E+01 -0.56438152529E+01  0.66484289210E+01  0.00000000000E+00 0.  1.
         -4    1    1    2    0  501  0.28712403301E+01  0.20260640355E+01  0.13445851988E+01  0.37625610780E+01  0.00000000000E+00 0. -1.
<mgrwt>
<rscale>  0 0.35141082E+01</rscale>
<asrwt>0</asrwt>
<pdfrwt beam="1">0</pdfrwt>
<pdfrwt beam="2">0</pdfrwt>
<totfact> 0.63253200E+11</totfact>
</mgrwt>
</event>
<event>
 4    2  0.2093759E+006  0.2050877E+01  0.7546771E-02  0.2947209E+00
         22   -1    0    0    0    0  0.00000000000E+00  0.00000000000E+00  0.43683056386E+01  0.43683056386E+01  0.00000000000E+00 0. -1.
         22   -1    0    0    0    0 -0.00000000000E+00 -0.00000000000E+00 -0.20273088908E+01  0.20273088908E+01  0.00000000000E+00 0.  1.
          4    1    1    2  501    0  0.17979936077E+01 -0.98656688671E+00 -0.11466476305E+01  0.23496587037E+01  0.00000000000E+00 0.  1.
         -4    1    1    2    0  501 -0.17979936077E+01  0.98656688671E+00  0.34876443782E+01  0.40459558258E+01  0.00000000000E+00 0. -1.
<mgrwt>
<rscale>  0 0.20508767E+01</rscale>
<asrwt>0</asrwt>
<pdfrwt beam="1">0</pdfrwt>
<pdfrwt beam="2">0</pdfrwt>
<totfact> 0.18934508E+12</totfact>
</mgrwt>
</event>
<event>
 4    2  0.2093759E+006  0.2531197E+01  0.7546771E-02  0.2694934E+00
         22   -1    0    0    0    0  0.00000000000E+00  0.00000000000E+00  0.16941847670E+01  0.16941847670E+01  0.00000000000E+00 0.  1.
         22   -1    0    0    0    0 -0.00000000000E+00 -0.00000000000E+00 -0.15573446859E+02  0.15573446859E+02  0.00000000000E+00 0. -1.
          4    1    1    2  501    0  0.24061200488E+01  0.78584077496E+00 -0.14452378998E+02  0.14672362391E+02  0.00000000000E+00 0. -1.
         -4    1    1    2    0  501 -0.24061200488E+01 -0.78584077496E+00  0.57311690680E+00  0.25952692349E+01  0.00000000000E+00 0.  1.
<mgrwt>
<rscale>  0 0.25311972E+01</rscale>
<asrwt>0</asrwt>
<pdfrwt beam="1">0</pdfrwt>
<pdfrwt beam="2">0</pdfrwt>
<totfact> 0.50442473E+11</totfact>
</mgrwt>
</event>
<event>
 4    2  0.2093759E+006  0.2140492E+01  0.7546771E-02  0.2891944E+00
         22   -1    0    0    0    0  0.00000000000E+00  0.00000000000E+00  0.88654563648E+00  0.88654563648E+00  0.00000000000E+00 0.  1.
         22   -1    0    0    0    0 -0.00000000000E+00 -0.00000000000E+00 -0.58275313494E+01  0.58275313494E+01  0.00000000000E+00 0. -1.
          4    1    1    2  501    0 -0.43932380573E+00 -0.20949224270E+01 -0.35998148720E+01  0.41881227888E+01  0.00000000000E+00 0. -1.
         -4    1    1    2    0  501  0.43932380573E+00  0.20949224270E+01 -0.13411708409E+01  0.25259541971E+01  0.00000000000E+00 0.  1.
<mgrwt>
<rscale>  0 0.21404919E+01</rscale>
<asrwt>0</asrwt>
<pdfrwt beam="1">0</pdfrwt>
<pdfrwt beam="2">0</pdfrwt>
<totfact> 0.34794689E+12</totfact>
</mgrwt>
</event>
<event>
 4    2  0.2093759E+006  0.2211311E+01  0.7546771E-02  0.2851335E+00
         22   -1    0    0    0    0  0.00000000000E+00  0.00000000000E+00  0.20030230302E+01  0.20030230302E+01  0.00000000000E+00 0.  1.
         22   -1    0    0    0    0 -0.00000000000E+00 -0.00000000000E+00 -0.74989424345E+01  0.74989424345E+01  0.00000000000E+00 0. -1.
          4    1    1    2  501    0  0.31056392987E+00  0.21893937892E+01 -0.66497086802E+01  0.70077471879E+01  0.00000000000E+00 0. -1.
         -4    1    1    2    0  501 -0.31056392987E+00 -0.21893937892E+01  0.11537892759E+01  0.24942182768E+01  0.00000000000E+00 0.  1.
<mgrwt>
<rscale>  0 0.22113107E+01</rscale>
<asrwt>0</asrwt>
<pdfrwt beam="1">0</pdfrwt>
<pdfrwt beam="2">0</pdfrwt>
<totfact> 0.10099994E+12</totfact>
</mgrwt>
</event>
<event>
 4    2  0.2093759E+006  0.2796863E+01  0.7546771E-02  0.2590552E+00
         22   -1    0    0    0    0  0.00000000000E+00  0.00000000000E+00  0.92064882847E+01  0.92064882847E+01  0.00000000000E+00 0. -1.
         22   -1    0    0    0    0 -0.00000000000E+00 -0.00000000000E+00 -0.86095339303E+00  0.86095339303E+00  0.00000000000E+00 0.  1.
          4    1    1    2  501    0  0.22759495204E+01 -0.16255763483E+01  0.47491177130E+01  0.55114937844E+01  0.00000000000E+00 0. -1.
         -4    1    1    2    0  501 -0.22759495204E+01  0.16255763483E+01  0.35964171787E+01  0.45559478933E+01  0.00000000000E+00 0.  1.
<mgrwt>
<rscale>  0 0.27968634E+01</rscale>
<asrwt>0</asrwt>
<pdfrwt beam="1">0</pdfrwt>
<pdfrwt beam="2">0</pdfrwt>
<totfact> 0.20801450E+12</totfact>
</mgrwt>
</event>
<event>
 4    2  0.2093759E+006  0.3388684E+01  0.7546771E-02  0.2411999E+00
         22   -1    0    0    0    0  0.00000000000E+00  0.00000000000E+00  0.21649645506E+01  0.21649645506E+01  0.00000000000E+00 0.  1.
         22   -1    0    0    0    0 -0.00000000000E+00 -0.00000000000E+00 -0.55745449653E+01  0.55745449653E+01  0.00000000000E+00 0. -1.
          4    1    1    2  501    0  0.30041469924E+01  0.15678903256E+01 -0.25571473631E+01  0.42452540397E+01  0.00000000000E+00 0. -1.
         -4    1    1    2    0  501 -0.30041469924E+01 -0.15678903256E+01 -0.85243305152E+00  0.34942554761E+01  0.00000000000E+00 0.  1.
<mgrwt>
<rscale>  0 0.33886840E+01</rscale>
<asrwt>0</asrwt>
<pdfrwt beam="1">0</pdfrwt>
<pdfrwt beam="2">0</pdfrwt>
<totfact> 0.13149395E+12</totfact>
</mgrwt>
</event>
<event>
 4    2  0.2093759E+006  0.3781207E+01  0.7546771E-02  0.2321175E+00
         22   -1    0    0    0    0  0.00000000000E+00  0.00000000000E+00  0.66015243559E+01  0.66015243559E+01  0.00000000000E+00 0.  1.
         22   -1    0    0    0    0 -0.00000000000E+00 -0.00000000000E+00 -0.21738467486E+01  0.21738467486E+01  0.00000000000E+00 0. -1.
          4    1    1    2  501    0 -0.41900652038E+00 -0.37579199120E+01  0.19467550498E+01  0.42529264928E+01  0.00000000000E+00 0.  1.
         -4    1    1    2    0  501  0.41900652038E+00  0.37579199120E+01  0.24809225576E+01  0.45224446117E+01  0.00000000000E+00 0. -1.
<mgrwt>
<rscale>  0 0.37812073E+01</rscale>
<asrwt>0</asrwt>
<pdfrwt beam="1">0</pdfrwt>
<pdfrwt beam="2">0</pdfrwt>
<totfact> 0.10700364E+12</totfact>
</mgrwt>
</event>
<event>
 4    2  0.2093759E+006  0.2620436E+01  0.7546771E-02  0.2657703E+00
         22   -1    0    0    0    0  0.00000000000E+00  0.00000000000E+00  0.12915144767E+02  0.12915144767E+02  0.00000000000E+00 0.  1.
         22   -1    0    0    0    0 -0.00000000000E+00 -0.00000000000E+00 -0.16049148670E+01  0.16049148670E+01  0.00000000000E+00 0. -1.
          4    1    1    2  501    0  0.16287094047E+01  0.20528001091E+01 -0.28179473191E+00  0.26355437549E+01  0.00000000000E+00 0. -1.
         -4    1    1    2    0  501 -0.16287094047E+01 -0.20528001091E+01  0.11592024631E+02  0.11884515879E+02  0.00000000000E+00 0.  1.
<mgrwt>
<rscale>  0 0.26204356E+01</rscale>
<asrwt>0</asrwt>
<pdfrwt beam="1">0</pdfrwt>
<pdfrwt beam="2">0</pdfrwt>
<totfact> 0.67560776E+11</totfact>
</mgrwt>
</event>
<event>
 4    2  0.2093759E+006  0.2049634E+01  0.7546771E-02  0.2948008E+00
         22   -1    0    0    0    0  0.00000000000E+00  0.00000000000E+00  0.95840144573E+02  0.95840144573E+02  0.00000000000E+00 0.  1.
         22   -1    0    0    0    0 -0.00000000000E+00 -0.00000000000E+00 -0.51162066976E-01  0.51162066976E-01  0.00000000000E+00 0. -1.
          4    1    1    2  501    0 -0.41510587030E+00  0.20071587242E+01  0.29748202953E+02  0.29818728644E+02  0.00000000000E+00 0. -1.
         -4    1    1    2    0  501  0.41510587030E+00 -0.20071587242E+01  0.66040779553E+02  0.66072577996E+02  0.00000000000E+00 0.  1.
<mgrwt>
<rscale>  0 0.20496339E+01</rscale>
<asrwt>0</asrwt>
<pdfrwt beam="1">0</pdfrwt>
<pdfrwt beam="2">0</pdfrwt>
<totfact> 0.24098975E+12</totfact>
</mgrwt>
</event>
<event>
 4    2  0.2093759E+006  0.2338555E+01  0.7546771E-02  0.2784289E+00
         22   -1    0    0    0    0  0.00000000000E+00  0.00000000000E+00  0.19187004953E+01  0.19187004953E+01  0.00000000000E+00 0. -1.
         22   -1    0    0    0    0 -0.00000000000E+00 -0.00000000000E+00 -0.29198274275E+01  0.29198274275E+01  0.00000000000E+00 0.  1.
          4    1    1    2  501    0  0.38527503303E+00 -0.23065998556E+01 -0.87392990460E+00  0.24965162173E+01  0.00000000000E+00 0.  1.
         -4    1    1    2    0  501 -0.38527503303E+00  0.23065998556E+01 -0.12719702753E+00  0.23420117055E+01  0.00000000000E+00 0. -1.
<mgrwt>
<rscale>  0 0.23385551E+01</rscale>
<asrwt>0</asrwt>
<pdfrwt beam="1">0</pdfrwt>
<pdfrwt beam="2">0</pdfrwt>
<totfact> 0.32376826E+12</totfact>
</mgrwt>
</event>
<event>
 4    2  0.2093759E+006  0.9352751E+01  0.7546771E-02  0.1806874E+00
         22   -1    0    0    0    0  0.00000000000E+00  0.00000000000E+00  0.87011299353E+01  0.87011299353E+01  0.00000000000E+00 0. -1.
         22   -1    0    0    0    0 -0.00000000000E+00 -0.00000000000E+00 -0.11510582643E+02  0.11510582643E+02  0.00000000000E+00 0.  1.
          4    1    1    2  501    0 -0.73302004437E+01  0.58087962407E+01 -0.50006916606E+01  0.10605699854E+02  0.00000000000E+00 0.  1.
         -4    1    1    2    0  501  0.73302004437E+01 -0.58087962407E+01  0.21912389528E+01  0.96060127243E+01  0.00000000000E+00 0. -1.
<mgrwt>
<rscale>  0 0.93527511E+01</rscale>
<asrwt>0</asrwt>
<pdfrwt beam="1">0</pdfrwt>
<pdfrwt beam="2">0</pdfrwt>
<totfact> 0.10652144E+11</totfact>
</mgrwt>
</event>
<event>
 4    2  0.2093759E+006  0.2276410E+01  0.7546771E-02  0.2816143E+00
         22   -1    0    0    0    0  0.00000000000E+00  0.00000000000E+00  0.31603832588E+01  0.31603832588E+01  0.00000000000E+00 0. -1.
         22   -1    0    0    0    0 -0.00000000000E+00 -0.00000000000E+00 -0.18620436169E+01  0.18620436169E+01  0.00000000000E+00 0.  1.
          4    1    1    2  501    0 -0.19194710122E+01 -0.12237943777E+01  0.15169565806E+01  0.27355436230E+01  0.00000000000E+00 0.  1.
         -4    1    1    2    0  501  0.19194710122E+01  0.12237943777E+01 -0.21861693869E+00  0.22868832527E+01  0.00000000000E+00 0. -1.
<mgrwt>
<rscale>  0 0.22764098E+01</rscale>
<asrwt>0</asrwt>
<pdfrwt beam="1">0</pdfrwt>
<pdfrwt beam="2">0</pdfrwt>
<totfact> 0.30556364E+12</totfact>
</mgrwt>
</event>
<event>
 4    2  0.2093759E+006  0.2935587E+01  0.7546771E-02  0.2542935E+00
         22   -1    0    0    0    0  0.00000000000E+00  0.00000000000E+00  0.62968424499E+00  0.62968424499E+00  0.00000000000E+00 0.  1.
         22   -1    0    0    0    0 -0.00000000000E+00 -0.00000000000E+00 -0.15004739951E+02  0.15004739951E+02  0.00000000000E+00 0. -1.
          4    1    1    2  501    0 -0.22571886564E+01 -0.18769047790E+01 -0.95052745874E+01  0.99482620172E+01  0.00000000000E+00 0. -1.
         -4    1    1    2    0  501  0.22571886564E+01  0.18769047790E+01 -0.48697811182E+01  0.56861621784E+01  0.00000000000E+00 0.  1.
<mgrwt>
<rscale>  0 0.29355872E+01</rscale>
<asrwt>0</asrwt>
<pdfrwt beam="1">0</pdfrwt>
<pdfrwt beam="2">0</pdfrwt>
<totfact> 0.16366031E+12</totfact>
</mgrwt>
</event>
<event>
 4    2  0.2093759E+006  0.2535427E+01  0.7546771E-02  0.2693115E+00
         22   -1    0    0    0    0  0.00000000000E+00  0.00000000000E+00  0.69869959662E+00  0.69869959662E+00  0.00000000000E+00 0.  1.
         22   -1    0    0    0    0 -0.00000000000E+00 -0.00000000000E+00 -0.14402828273E+02  0.14402828273E+02  0.00000000000E+00 0. -1.
          4    1    1    2  501    0  0.22766873624E+01 -0.11158337569E+01 -0.11390075905E+02  0.11668856818E+02  0.00000000000E+00 0. -1.
         -4    1    1    2    0  501 -0.22766873624E+01  0.11158337569E+01 -0.23140527713E+01  0.34326710514E+01  0.00000000000E+00 0.  1.
<mgrwt>
<rscale>  0 0.25354270E+01</rscale>
<asrwt>0</asrwt>
<pdfrwt beam="1">0</pdfrwt>
<pdfrwt beam="2">0</pdfrwt>
<totfact> 0.15295762E+12</totfact>
</mgrwt>
</event>
<event>
 4    2  0.2093759E+006  0.3003558E+01  0.7546771E-02  0.2521057E+00
         22   -1    0    0    0    0  0.00000000000E+00  0.00000000000E+00  0.81836755183E+01  0.81836755183E+01  0.00000000000E+00 0. -1.
         22   -1    0    0    0    0 -0.00000000000E+00 -0.00000000000E+00 -0.11068227866E+01  0.11068227866E+01  0.00000000000E+00 0.  1.
          4    1    1    2  501    0  0.74117020377E-01 -0.30026433055E+01  0.32434742107E+01  0.44205752011E+01  0.00000000000E+00 0.  1.
         -4    1    1    2    0  501 -0.74117020377E-01  0.30026433055E+01  0.38333785210E+01  0.48699231039E+01  0.00000000000E+00 0. -1.
<mgrwt>
<rscale>  0 0.30035579E+01</rscale>
<asrwt>0</asrwt>
<pdfrwt beam="1">0</pdfrwt>
<pdfrwt beam="2">0</pdfrwt>
<totfact> 0.17996217E+12</totfact>
</mgrwt>
</event>
<event>
 4    2  0.2093759E+006  0.2240848E+01  0.7546771E-02  0.2835126E+00
         22   -1    0    0    0    0  0.00000000000E+00  0.00000000000E+00  0.23843007264E+02  0.23843007264E+02  0.00000000000E+00 0. -1.
         22   -1    0    0    0    0 -0.00000000000E+00 -0.00000000000E+00 -0.35420434420E+00  0.35420434420E+00  0.00000000000E+00 0.  1.
          4    1    1    2  501    0 -0.79346320640E+00 -0.20956661430E+01  0.40408999596E+01  0.46206355544E+01  0.00000000000E+00 0.  1.
         -4    1    1    2    0  501  0.79346320640E+00  0.20956661430E+01  0.19447902961E+02  0.19576576054E+02  0.00000000000E+00 0. -1.
<mgrwt>
<rscale>  0 0.22408482E+01</rscale>
<asrwt>0</asrwt>
<pdfrwt beam="1">0</pdfrwt>
<pdfrwt beam="2">0</pdfrwt>
<totfact> 0.17606523E+12</totfact>
</mgrwt>
</event>
<event>
 4    2  0.2093759E+006  0.2283316E+01  0.7546771E-02  0.2812522E+00
         22   -1    0    0    0    0  0.00000000000E+00  0.00000000000E+00  0.90916599110E+01  0.90916599110E+01  0.00000000000E+00 0.  1.
         22   -1    0    0    0    0 -0.00000000000E+00 -0.00000000000E+00 -0.10337205263E+01  0.10337205263E+01  0.00000000000E+00 0. -1.
          4    1    1    2  501    0  0.19279348873E+01  0.12233555551E+01  0.65072929496E+00  0.23742325832E+01  0.00000000000E+00 0. -1.
         -4    1    1    2    0  501 -0.19279348873E+01 -0.12233555551E+01  0.74072100897E+01  0.77511478541E+01  0.00000000000E+00 0.  1.
<mgrwt>
<rscale>  0 0.22833160E+01</rscale>
<asrwt>0</asrwt>
<pdfrwt beam="1">0</pdfrwt>
<pdfrwt beam="2">0</pdfrwt>
<totfact> 0.17141485E+12</totfact>
</mgrwt>
</event>
<event>
 4    2  0.2093759E+006  0.3226539E+01  0.7546771E-02  0.2455101E+00
         22   -1    0    0    0    0  0.00000000000E+00  0.00000000000E+00  0.11456765762E+02  0.11456765762E+02  0.00000000000E+00 0. -1.
         22   -1    0    0    0    0 -0.00000000000E+00 -0.00000000000E+00 -0.93623321969E+00  0.93623321969E+00  0.00000000000E+00 0.  1.
          4    1    1    2  501    0 -0.32263139476E+01  0.38114698186E-01  0.63232496302E+01  0.70988759888E+01  0.00000000000E+00 0. -1.
         -4    1    1    2    0  501  0.32263139476E+01 -0.38114698186E-01  0.41972829118E+01  0.52941229926E+01  0.00000000000E+00 0.  1.
<mgrwt>
<rscale>  0 0.32265391E+01</rscale>
<asrwt>0</asrwt>
<pdfrwt beam="1">0</pdfrwt>
<pdfrwt beam="2">0</pdfrwt>
<totfact> 0.14504067E+12</totfact>
</mgrwt>
</event>
<event>
 4    2  0.2093759E+006  0.2178642E+01  0.7546771E-02  0.2869752E+00
         22   -1    0    0    0    0  0.00000000000E+00  0.00000000000E+00  0.25316647002E+00  0.25316647002E+00  0.00000000000E+00 0.  1.
         22   -1    0    0    0    0 -0.00000000000E+00 -0.00000000000E+00 -0.24429019312E+02  0.24429019312E+02  0.00000000000E+00 0. -1.
          4    1    1    2  501    0 -0.19706401029E+01  0.92900957708E+00 -0.18039011902E+02  0.18170097182E+02  0.00000000000E+00 0. -1.
         -4    1    1    2    0  501  0.19706401029E+01 -0.92900957708E+00 -0.61368409401E+01  0.65120886000E+01  0.00000000000E+00 0.  1.
<mgrwt>
<rscale>  0 0.21786421E+01</rscale>
<asrwt>0</asrwt>
<pdfrwt beam="1">0</pdfrwt>
<pdfrwt beam="2">0</pdfrwt>
<totfact> 0.24883984E+12</totfact>
</mgrwt>
</event>
<event>
 4    2  0.2093759E+006  0.2179728E+01  0.7546771E-02  0.2869132E+00
         22   -1    0    0    0    0  0.00000000000E+00  0.00000000000E+00  0.12824533582E+02  0.12824533582E+02  0.00000000000E+00 0. -1.
         22   -1    0    0    0    0 -0.00000000000E+00 -0.00000000000E+00 -0.58495595705E+00  0.58495595705E+00  0.00000000000E+00 0.  1.
          4    1    1    2  501    0  0.21797154172E+01  0.74666452995E-02  0.20599255536E+01  0.29990845832E+01  0.00000000000E+00 0.  1.
         -4    1    1    2    0  501 -0.21797154172E+01 -0.74666452995E-02  0.10179652072E+02  0.10410404956E+02  0.00000000000E+00 0. -1.
<mgrwt>
<rscale>  0 0.21797282E+01</rscale>
<asrwt>0</asrwt>
<pdfrwt beam="1">0</pdfrwt>
<pdfrwt beam="2">0</pdfrwt>
<totfact> 0.21567052E+12</totfact>
</mgrwt>
</event>
<event>
 4    2  0.2093759E+006  0.3267027E+01  0.7546771E-02  0.2443986E+00
         22   -1    0    0    0    0  0.00000000000E+00  0.00000000000E+00  0.58168485377E+01  0.58168485377E+01  0.00000000000E+00 0. -1.
         22   -1    0    0    0    0 -0.00000000000E+00 -0.00000000000E+00 -0.24771931700E+01  0.24771931700E+01  0.00000000000E+00 0.  1.
          4    1    1    2  501    0  0.32641285794E+01  0.13758086666E+00  0.37814462205E+01  0.49972791994E+01  0.00000000000E+00 0. -1.
         -4    1    1    2    0  501 -0.32641285794E+01 -0.13758086666E+00 -0.44179085285E+00  0.32967625082E+01  0.00000000000E+00 0.  1.
<mgrwt>
<rscale>  0 0.32670268E+01</rscale>
<asrwt>0</asrwt>
<pdfrwt beam="1">0</pdfrwt>
<pdfrwt beam="2">0</pdfrwt>
<totfact> 0.10690650E+12</totfact>
</mgrwt>
</event>
<event>
 4    2  0.2093759E+006  0.2458897E+01  0.7546771E-02  0.2726933E+00
         22   -1    0    0    0    0  0.00000000000E+00  0.00000000000E+00  0.64965497748E+00  0.64965497748E+00  0.00000000000E+00 0.  1.
         22   -1    0    0    0    0 -0.00000000000E+00 -0.00000000000E+00 -0.19313297795E+02  0.19313297795E+02  0.00000000000E+00 0. -1.
          4    1    1    2  501    0 -0.11442679495E+01 -0.21764248064E+01 -0.21471190414E+01  0.32643979929E+01  0.00000000000E+00 0.  1.
         -4    1    1    2    0  501  0.11442679495E+01  0.21764248064E+01 -0.16516523776E+02  0.16698554779E+02  0.00000000000E+00 0. -1.
<mgrwt>
<rscale>  0 0.24588969E+01</rscale>
<asrwt>0</asrwt>
<pdfrwt beam="1">0</pdfrwt>
<pdfrwt beam="2">0</pdfrwt>
<totfact> 0.11558092E+12</totfact>
</mgrwt>
</event>
<event>
 4    2  0.2093759E+006  0.2312392E+01  0.7546771E-02  0.2797502E+00
         22   -1    0    0    0    0  0.00000000000E+00  0.00000000000E+00  0.18845131334E+01  0.18845131334E+01  0.00000000000E+00 0.  1.
         22   -1    0    0    0    0 -0.00000000000E+00 -0.00000000000E+00 -0.72035410549E+01  0.72035410549E+01  0.00000000000E+00 0. -1.
          4    1    1    2  501    0  0.76510254577E+00 -0.21821489632E+01 -0.61971712721E+01  0.66145360970E+01  0.00000000000E+00 0. -1.
         -4    1    1    2    0  501 -0.76510254577E+00  0.21821489632E+01  0.87814335065E+00  0.24735180912E+01  0.00000000000E+00 0.  1.
<mgrwt>
<rscale>  0 0.23123918E+01</rscale>
<asrwt>0</asrwt>
<pdfrwt beam="1">0</pdfrwt>
<pdfrwt beam="2">0</pdfrwt>
<totfact> 0.11373073E+12</totfact>
</mgrwt>
</event>
<event>
 4    2  0.2093759E+006  0.3631680E+01  0.7546771E-02  0.2353762E+00
         22   -1    0    0    0    0  0.00000000000E+00  0.00000000000E+00  0.41551763533E+01  0.41551763533E+01  0.00000000000E+00 0. -1.
         22   -1    0    0    0    0 -0.00000000000E+00 -0.00000000000E+00 -0.96871174389E+01  0.96871174389E+01  0.00000000000E+00 0.  1.
          4    1    1    2  501    0  0.36144503624E+01  0.35334323460E+00 -0.84410329335E+01  0.91891316155E+01  0.00000000000E+00 0.  1.
         -4    1    1    2    0  501 -0.36144503624E+01 -0.35334323460E+00  0.29090918478E+01  0.46531621767E+01  0.00000000000E+00 0. -1.
<mgrwt>
<rscale>  0 0.36316804E+01</rscale>
<asrwt>0</asrwt>
<pdfrwt beam="1">0</pdfrwt>
<pdfrwt beam="2">0</pdfrwt>
<totfact> 0.31662420E+11</totfact>
</mgrwt>
</event>
<event>
 4    2  0.2093759E+006  0.4507052E+01  0.7546771E-02  0.2189720E+00
         22   -1    0    0    0    0  0.00000000000E+00  0.00000000000E+00  0.19745520747E+00  0.19745520747E+00  0.00000000000E+00 0.  1.
         22   -1    0    0    0    0 -0.00000000000E+00 -0.00000000000E+00 -0.13363222289E+03  0.13363222289E+03  0.00000000000E+00 0. -1.
          4    1    1    2  501    0 -0.30578364796E+01 -0.33110648470E+01 -0.98819179131E+02  0.98921906969E+02  0.00000000000E+00 0.  1.
         -4    1    1    2    0  501  0.30578364796E+01  0.33110648470E+01 -0.34615588556E+02  0.34907771133E+02  0.00000000000E+00 0. -1.
<mgrwt>
<rscale>  0 0.45070516E+01</rscale>
<asrwt>0</asrwt>
<pdfrwt beam="1">0</pdfrwt>
<pdfrwt beam="2">0</pdfrwt>
<totfact> 0.33595256E+11</totfact>
</mgrwt>
</event>
<event>
 4    2  0.2093759E+006  0.4185863E+01  0.7546771E-02  0.2243114E+00
         22   -1    0    0    0    0  0.00000000000E+00  0.00000000000E+00  0.29123169243E+01  0.29123169243E+01  0.00000000000E+00 0.  1.
         22   -1    0    0    0    0 -0.00000000000E+00 -0.00000000000E+00 -0.65132894588E+01  0.65132894588E+01  0.00000000000E+00 0. -1.
          4    1    1    2  501    0 -0.34549850429E+01  0.23631597641E+01 -0.31022785417E+01  0.52101418280E+01  0.00000000000E+00 0. -1.
         -4    1    1    2    0  501  0.34549850429E+01 -0.23631597641E+01 -0.49869399271E+00  0.42154645551E+01  0.00000000000E+00 0.  1.
<mgrwt>
<rscale>  0 0.41858626E+01</rscale>
<asrwt>0</asrwt>
<pdfrwt beam="1">0</pdfrwt>
<pdfrwt beam="2">0</pdfrwt>
<totfact> 0.77377200E+11</totfact>
</mgrwt>
</event>
<event>
 4    2  0.2093759E+006  0.2248788E+01  0.7546771E-02  0.2830838E+00
         22   -1    0    0    0    0  0.00000000000E+00  0.00000000000E+00  0.36153614562E+02  0.36153614562E+02  0.00000000000E+00 0.  1.
         22   -1    0    0    0    0 -0.00000000000E+00 -0.00000000000E+00 -0.26754322633E+00  0.26754322633E+00  0.00000000000E+00 0. -1.
          4    1    1    2  501    0 -0.21997859378E+01 -0.46689182148E+00  0.53634773161E+01  0.58158348554E+01  0.00000000000E+00 0. -1.
         -4    1    1    2    0  501  0.21997859378E+01  0.46689182148E+00  0.30522594020E+02  0.30605322933E+02  0.00000000000E+00 0.  1.
<mgrwt>
<rscale>  0 0.22487877E+01</rscale>
<asrwt>0</asrwt>
<pdfrwt beam="1">0</pdfrwt>
<pdfrwt beam="2">0</pdfrwt>
<totfact> 0.14196865E+12</totfact>
</mgrwt>
</event>
<event>
 4    2  0.2093759E+006  0.2079722E+01  0.7546771E-02  0.2928916E+00
         22   -1    0    0    0    0  0.00000000000E+00  0.00000000000E+00  0.78098082723E+01  0.78098082723E+01  0.00000000000E+00 0. -1.
         22   -1    0    0    0    0 -0.00000000000E+00 -0.00000000000E+00 -0.94671892215E+00  0.94671892215E+00  0.00000000000E+00 0.  1.
          4    1    1    2  501    0 -0.47223626396E+00 -0.20253973824E+01  0.61101397847E+00  0.21676207527E+01  0.00000000000E+00 0.  1.
         -4    1    1    2    0  501  0.47223626396E+00  0.20253973824E+01  0.62520753717E+01  0.65889064418E+01  0.00000000000E+00 0. -1.
<mgrwt>
<rscale>  0 0.20797215E+01</rscale>
<asrwt>0</asrwt>
<pdfrwt beam="1">0</pdfrwt>
<pdfrwt beam="2">0</pdfrwt>
<totfact> 0.22754204E+12</totfact>
</mgrwt>
</event>
<event>
 4    2  0.2093759E+006  0.3617185E+01  0.7546771E-02  0.2357045E+00
         22   -1    0    0    0    0  0.00000000000E+00  0.00000000000E+00  0.44223437832E+01  0.44223437832E+01  0.00000000000E+00 0. -1.
         22   -1    0    0    0    0 -0.00000000000E+00 -0.00000000000E+00 -0.29731904275E+01  0.29731904275E+01  0.00000000000E+00 0.  1.
          4    1    1    2  501    0  0.35740628671E+01  0.55686817481E+00  0.98345082098E+00  0.37484934386E+01  0.00000000000E+00 0. -1.
         -4    1    1    2    0  501 -0.35740628671E+01 -0.55686817481E+00  0.46570253472E+00  0.36470407721E+01  0.00000000000E+00 0.  1.
<mgrwt>
<rscale>  0 0.36171850E+01</rscale>
<asrwt>0</asrwt>
<pdfrwt beam="1">0</pdfrwt>
<pdfrwt beam="2">0</pdfrwt>
<totfact> 0.11957245E+12</totfact>
</mgrwt>
</event>
<event>
 4    2  0.2093759E+006  0.2180488E+01  0.7546771E-02  0.2868698E+00
         22   -1    0    0    0    0  0.00000000000E+00  0.00000000000E+00  0.47136904345E+00  0.47136904345E+00  0.00000000000E+00 0. -1.
         22   -1    0    0    0    0 -0.00000000000E+00 -0.00000000000E+00 -0.10535360849E+02  0.10535360849E+02  0.00000000000E+00 0.  1.
          4    1    1    2  501    0 -0.15553186689E+01  0.15282383715E+01 -0.61677725302E+01  0.65418611011E+01  0.00000000000E+00 0. -1.
         -4    1    1    2    0  501  0.15553186689E+01 -0.15282383715E+01 -0.38962192753E+01  0.44648687913E+01  0.00000000000E+00 0.  1.
<mgrwt>
<rscale>  0 0.21804882E+01</rscale>
<asrwt>0</asrwt>
<pdfrwt beam="1">0</pdfrwt>
<pdfrwt beam="2">0</pdfrwt>
<totfact> 0.34973871E+12</totfact>
</mgrwt>
</event>
<event>
 4    2  0.2093759E+006  0.3383015E+01  0.7546771E-02  0.2413444E+00
         22   -1    0    0    0    0  0.00000000000E+00  0.00000000000E+00  0.20279493044E+02  0.20279493044E+02  0.00000000000E+00 0. -1.
         22   -1    0    0    0    0 -0.00000000000E+00 -0.00000000000E+00 -0.56485733995E+00  0.56485733995E+00  0.00000000000E+00 0.  1.
          4    1    1    2  501    0 -0.24428043882E+01  0.23404049846E+01  0.95458344817E+01  0.10127573486E+02  0.00000000000E+00 0.  1.
         -4    1    1    2    0  501  0.24428043882E+01 -0.23404049846E+01  0.10168801222E+02  0.10716776897E+02  0.00000000000E+00 0. -1.
<mgrwt>
<rscale>  0 0.33830147E+01</rscale>
<asrwt>0</asrwt>
<pdfrwt beam="1">0</pdfrwt>
<pdfrwt beam="2">0</pdfrwt>
<totfact> 0.12742994E+12</totfact>
</mgrwt>
</event>
<event>
 4    2  0.2093759E+006  0.2153748E+01  0.7546771E-02  0.2884147E+00
         22   -1    0    0    0    0  0.00000000000E+00  0.00000000000E+00  0.27855009470E+00  0.27855009470E+00  0.00000000000E+00 0. -1.
         22   -1    0    0    0    0 -0.00000000000E+00 -0.00000000000E+00 -0.18141168185E+02  0.18141168185E+02  0.00000000000E+00 0.  1.
          4    1    1    2  501    0  0.13660109014E+01 -0.16651262897E+01 -0.11569338082E+02  0.11768101588E+02  0.00000000000E+00 0.  1.
         -4    1    1    2    0  501 -0.13660109014E+01  0.16651262897E+01 -0.62932800088E+01  0.66516166916E+01  0.00000000000E+00 0. -1.
<mgrwt>
<rscale>  0 0.21537482E+01</rscale>
<asrwt>0</asrwt>
<pdfrwt beam="1">0</pdfrwt>
<pdfrwt beam="2">0</pdfrwt>
<totfact> 0.32437527E+12</totfact>
</mgrwt>
</event>
<event>
 4    2  0.2093759E+006  0.4831378E+01  0.7546771E-02  0.2143685E+00
         22   -1    0    0    0    0  0.00000000000E+00  0.00000000000E+00  0.27585802735E+01  0.27585802735E+01  0.00000000000E+00 0.  1.
         22   -1    0    0    0    0 -0.00000000000E+00 -0.00000000000E+00 -0.85340532763E+01  0.85340532763E+01  0.00000000000E+00 0. -1.
          4    1    1    2  501    0  0.94792247287E+00  0.47374740762E+01 -0.23677607518E+01  0.53803818280E+01  0.00000000000E+00 0.  1.
         -4    1    1    2    0  501 -0.94792247287E+00 -0.47374740762E+01 -0.34077122510E+01  0.59122517219E+01  0.00000000000E+00 0. -1.
<mgrwt>
<rscale>  0 0.48313784E+01</rscale>
<asrwt>0</asrwt>
<pdfrwt beam="1">0</pdfrwt>
<pdfrwt beam="2">0</pdfrwt>
<totfact> 0.59624280E+11</totfact>
</mgrwt>
</event>
<event>
 4    2  0.2093759E+006  0.6800776E+01  0.7546771E-02  0.1954533E+00
         22   -1    0    0    0    0  0.00000000000E+00  0.00000000000E+00  0.28938904699E+02  0.28938904699E+02  0.00000000000E+00 0.  1.
         22   -1    0    0    0    0 -0.00000000000E+00 -0.00000000000E+00 -0.19121871589E+01  0.19121871589E+01  0.00000000000E+00 0. -1.
          4    1    1    2  501    0 -0.64953894053E+01 -0.20150597430E+01  0.72627556479E+01  0.99497823542E+01  0.00000000000E+00 0. -1.
         -4    1    1    2    0  501  0.64953894053E+01  0.20150597430E+01  0.19763961892E+02  0.20901309504E+02  0.00000000000E+00 0.  1.
<mgrwt>
<rscale>  0 0.68007756E+01</rscale>
<asrwt>0</asrwt>
<pdfrwt beam="1">0</pdfrwt>
<pdfrwt beam="2">0</pdfrwt>
<totfact> 0.20202841E+11</totfact>
</mgrwt>
</event>
<event>
 4    2  0.2093759E+006  0.2174335E+01  0.7546771E-02  0.2872220E+00
         22   -1    0    0    0    0  0.00000000000E+00  0.00000000000E+00  0.63064620053E+01  0.63064620053E+01  0.00000000000E+00 0.  1.
         22   -1    0    0    0    0 -0.00000000000E+00 -0.00000000000E+00 -0.81263812740E+00  0.81263812740E+00  0.00000000000E+00 0. -1.
          4    1    1    2  501    0  0.20065015629E+01  0.83766512837E+00  0.17560218625E+01  0.27948782032E+01  0.00000000000E+00 0. -1.
         -4    1    1    2    0  501 -0.20065015629E+01 -0.83766512837E+00  0.37378020154E+01  0.43242219295E+01  0.00000000000E+00 0.  1.
<mgrwt>
<rscale>  0 0.21743347E+01</rscale>
<asrwt>0</asrwt>
<pdfrwt beam="1">0</pdfrwt>
<pdfrwt beam="2">0</pdfrwt>
<totfact> 0.34971967E+12</totfact>
</mgrwt>
</event>
<event>
 4    2  0.2093759E+006  0.2321103E+01  0.7546771E-02  0.2793071E+00
         22   -1    0    0    0    0  0.00000000000E+00  0.00000000000E+00  0.54204148074E+00  0.54204148074E+00  0.00000000000E+00 0.  1.
         22   -1    0    0    0    0 -0.00000000000E+00 -0.00000000000E+00 -0.11323328633E+02  0.11323328633E+02  0.00000000000E+00 0. -1.
          4    1    1    2  501    0 -0.77916398041E+00 -0.21864178868E+01 -0.74647680156E+01  0.78173065189E+01  0.00000000000E+00 0.  1.
         -4    1    1    2    0  501  0.77916398041E+00  0.21864178868E+01 -0.33165191368E+01  0.40480635950E+01  0.00000000000E+00 0. -1.
<mgrwt>
<rscale>  0 0.23211031E+01</rscale>
<asrwt>0</asrwt>
<pdfrwt beam="1">0</pdfrwt>
<pdfrwt beam="2">0</pdfrwt>
<totfact> 0.27363651E+12</totfact>
</mgrwt>
</event>
<event>
 4    2  0.2093759E+006  0.2647839E+01  0.7546771E-02  0.2646735E+00
         22   -1    0    0    0    0  0.00000000000E+00  0.00000000000E+00  0.69584290792E+01  0.69584290792E+01  0.00000000000E+00 0.  1.
         22   -1    0    0    0    0 -0.00000000000E+00 -0.00000000000E+00 -0.10226336673E+01  0.10226336673E+01  0.00000000000E+00 0. -1.
          4    1    1    2  501    0 -0.26682933763E+00  0.26343600540E+01  0.24834498353E+01  0.36302305538E+01  0.00000000000E+00 0. -1.
         -4    1    1    2    0  501  0.26682933763E+00 -0.26343600540E+01  0.34523455765E+01  0.43508321927E+01  0.00000000000E+00 0.  1.
<mgrwt>
<rscale>  0 0.26478389E+01</rscale>
<asrwt>0</asrwt>
<pdfrwt beam="1">0</pdfrwt>
<pdfrwt beam="2">0</pdfrwt>
<totfact> 0.23928516E+12</totfact>
</mgrwt>
</event>
<event>
 4    2  0.2093759E+006  0.2202486E+01  0.7546771E-02  0.2856259E+00
         22   -1    0    0    0    0  0.00000000000E+00  0.00000000000E+00  0.17541648162E+02  0.17541648162E+02  0.00000000000E+00 0.  1.
         22   -1    0    0    0    0 -0.00000000000E+00 -0.00000000000E+00 -0.70973071642E+00  0.70973071642E+00  0.00000000000E+00 0. -1.
          4    1    1    2  501    0 -0.21467989640E+01  0.49213586304E+00  0.12864576750E+01  0.25506698824E+01  0.00000000000E+00 0. -1.
         -4    1    1    2    0  501  0.21467989640E+01 -0.49213586304E+00  0.15545459771E+02  0.15700708996E+02  0.00000000000E+00 0.  1.
<mgrwt>
<rscale>  0 0.22024858E+01</rscale>
<asrwt>0</asrwt>
<pdfrwt beam="1">0</pdfrwt>
<pdfrwt beam="2">0</pdfrwt>
<totfact> 0.11781191E+12</totfact>
</mgrwt>
</event>
<event>
 4    2  0.2093759E+006  0.2139062E+01  0.7546771E-02  0.2892790E+00
         22   -1    0    0    0    0  0.00000000000E+00  0.00000000000E+00  0.12841798711E+01  0.12841798711E+01  0.00000000000E+00 0. -1.
         22   -1    0    0    0    0 -0.00000000000E+00 -0.00000000000E+00 -0.39593272979E+01  0.39593272979E+01  0.00000000000E+00 0.  1.
          4    1    1    2  501    0  0.12254699776E+01  0.17532279923E+01 -0.21670154761E+01  0.30449205462E+01  0.00000000000E+00 0.  1.
         -4    1    1    2    0  501 -0.12254699776E+01 -0.17532279923E+01 -0.50813195067E+00  0.21985866229E+01  0.00000000000E+00 0. -1.
<mgrwt>
<rscale>  0 0.21390617E+01</rscale>
<asrwt>0</asrwt>
<pdfrwt beam="1">0</pdfrwt>
<pdfrwt beam="2">0</pdfrwt>
<totfact> 0.35980136E+12</totfact>
</mgrwt>
</event>
<event>
 4    2  0.2093759E+006  0.3507789E+01  0.7546771E-02  0.2382575E+00
         22   -1    0    0    0    0  0.00000000000E+00  0.00000000000E+00  0.38671434658E+01  0.38671434658E+01  0.00000000000E+00 0.  1.
         22   -1    0    0    0    0 -0.00000000000E+00 -0.00000000000E+00 -0.10811235982E+02  0.10811235982E+02  0.00000000000E+00 0. -1.
          4    1    1    2  501    0  0.91452384186E+00 -0.33864776075E+01 -0.96373697341E+01  0.10255899757E+02  0.00000000000E+00 0. -1.
         -4    1    1    2    0  501 -0.91452384186E+00  0.33864776075E+01  0.26932772176E+01  0.44224796907E+01  0.00000000000E+00 0.  1.
<mgrwt>
<rscale>  0 0.35077891E+01</rscale>
<asrwt>0</asrwt>
<pdfrwt beam="1">0</pdfrwt>
<pdfrwt beam="2">0</pdfrwt>
<totfact> 0.30162911E+11</totfact>
</mgrwt>
</event>
<event>
 4    2  0.2093759E+006  0.2259979E+01  0.7546771E-02  0.2824842E+00
         22   -1    0    0    0    0  0.00000000000E+00  0.00000000000E+00  0.74859535807E+01  0.74859535807E+01  0.00000000000E+00 0. -1.
         22   -1    0    0    0    0 -0.00000000000E+00 -0.00000000000E+00 -0.98591799878E+00  0.98591799878E+00  0.00000000000E+00 0.  1.
          4    1    1    2  501    0 -0.15826050562E+01  0.16133404451E+01  0.89925931655E+00  0.24323185388E+01  0.00000000000E+00 0.  1.
         -4    1    1    2    0  501  0.15826050562E+01 -0.16133404451E+01  0.56007762653E+01  0.60395530406E+01  0.00000000000E+00 0. -1.
<mgrwt>
<rscale>  0 0.22599792E+01</rscale>
<asrwt>0</asrwt>
<pdfrwt beam="1">0</pdfrwt>
<pdfrwt beam="2">0</pdfrwt>
<totfact> 0.22857865E+12</totfact>
</mgrwt>
</event>
<event>
 4    2  0.2093759E+006  0.2000006E+01  0.7546771E-02  0.2980725E+00
         22   -1    0    0    0    0  0.00000000000E+00  0.00000000000E+00  0.36769528919E+01  0.36769528919E+01  0.00000000000E+00 0. -1.
         22   -1    0    0    0    0 -0.00000000000E+00 -0.00000000000E+00 -0.16014039861E+01  0.16014039861E+01  0.00000000000E+00 0.  1.
          4    1    1    2  501    0  0.41688415138E+00  0.19560758699E+01 -0.45675808361E+00  0.20515002197E+01  0.00000000000E+00 0.  1.
         -4    1    1    2    0  501 -0.41688415138E+00 -0.19560758699E+01  0.25323069894E+01  0.32268566583E+01  0.00000000000E+00 0. -1.
<mgrwt>
<rscale>  0 0.20000063E+01</rscale>
<asrwt>0</asrwt>
<pdfrwt beam="1">0</pdfrwt>
<pdfrwt beam="2">0</pdfrwt>
<totfact> 0.30450107E+12</totfact>
</mgrwt>
</event>
<event>
 4    2  0.2093759E+006  0.3340078E+01  0.7546771E-02  0.2424533E+00
         22   -1    0    0    0    0  0.00000000000E+00  0.00000000000E+00  0.29483432044E+01  0.29483432044E+01  0.00000000000E+00 0. -1.
         22   -1    0    0    0    0 -0.00000000000E+00 -0.00000000000E+00 -0.69868276133E+01  0.69868276133E+01  0.00000000000E+00 0.  1.
          4    1    1    2  501    0  0.33136260677E+01  0.41952637354E+00 -0.53826656899E+01  0.63347620338E+01  0.00000000000E+00 0.  1.
         -4    1    1    2    0  501 -0.33136260677E+01 -0.41952637354E+00  0.13441812810E+01  0.36004087839E+01  0.00000000000E+00 0. -1.
<mgrwt>
<rscale>  0 0.33400779E+01</rscale>
<asrwt>0</asrwt>
<pdfrwt beam="1">0</pdfrwt>
<pdfrwt beam="2">0</pdfrwt>
<totfact> 0.70139501E+11</totfact>
</mgrwt>
</event>
<event>
 4    2  0.2093759E+006  0.2074290E+01  0.7546771E-02  0.2932322E+00
         22   -1    0    0    0    0  0.00000000000E+00  0.00000000000E+00  0.20733683608E+02  0.20733683608E+02  0.00000000000E+00 0.  1.
         22   -1    0    0    0    0 -0.00000000000E+00 -0.00000000000E+00 -0.28063448286E+00  0.28063448286E+00  0.00000000000E+00 0. -1.
          4    1    1    2  501    0  0.20058942955E+01  0.52826771846E+00  0.48634608097E+01  0.52873367355E+01  0.00000000000E+00 0. -1.
         -4    1    1    2    0  501 -0.20058942955E+01 -0.52826771846E+00  0.15589588315E+02  0.15726981355E+02  0.00000000000E+00 0.  1.
<mgrwt>
<rscale>  0 0.20742899E+01</rscale>
<asrwt>0</asrwt>
<pdfrwt beam="1">0</pdfrwt>
<pdfrwt beam="2">0</pdfrwt>
<totfact> 0.27238161E+12</totfact>
</mgrwt>
</event>
<event>
 4    2  0.2093759E+006  0.2181064E+01  0.7546771E-02  0.2868369E+00
         22   -1    0    0    0    0  0.00000000000E+00  0.00000000000E+00  0.24074997930E+01  0.24074997930E+01  0.00000000000E+00 0.  1.
         22   -1    0    0    0    0 -0.00000000000E+00 -0.00000000000E+00 -0.21981501690E+02  0.21981501690E+02  0.00000000000E+00 0. -1.
          4    1    1    2  501    0 -0.12332274626E+01 -0.17989412422E+01 -0.21420513971E+02  0.21531266994E+02  0.00000000000E+00 0. -1.
         -4    1    1    2    0  501  0.12332274626E+01  0.17989412422E+01  0.18465120745E+01  0.28577344888E+01  0.00000000000E+00 0.  1.
<mgrwt>
<rscale>  0 0.21810639E+01</rscale>
<asrwt>0</asrwt>
<pdfrwt beam="1">0</pdfrwt>
<pdfrwt beam="2">0</pdfrwt>
<totfact> 0.21884263E+11</totfact>
</mgrwt>
</event>
<event>
 4    2  0.2093759E+006  0.5603511E+01  0.7546771E-02  0.2057183E+00
         22   -1    0    0    0    0  0.00000000000E+00  0.00000000000E+00  0.59842106044E+01  0.59842106044E+01  0.00000000000E+00 0. -1.
         22   -1    0    0    0    0 -0.00000000000E+00 -0.00000000000E+00 -0.92941790386E+01  0.92941790386E+01  0.00000000000E+00 0.  1.
          4    1    1    2  501    0 -0.52259632380E+01  0.20220385480E+01 -0.66959839670E+01  0.87312961776E+01  0.00000000000E+00 0.  1.
         -4    1    1    2    0  501  0.52259632380E+01 -0.20220385480E+01  0.33860155329E+01  0.65470934653E+01  0.00000000000E+00 0. -1.
<mgrwt>
<rscale>  0 0.56035107E+01</rscale>
<asrwt>0</asrwt>
<pdfrwt beam="1">0</pdfrwt>
<pdfrwt beam="2">0</pdfrwt>
<totfact> 0.21613112E+11</totfact>
</mgrwt>
</event>
<event>
 4    2  0.2093759E+006  0.2042984E+01  0.7546771E-02  0.2952302E+00
         22   -1    0    0    0    0  0.00000000000E+00  0.00000000000E+00  0.10912823661E+02  0.10912823661E+02  0.00000000000E+00 0. -1.
         22   -1    0    0    0    0 -0.00000000000E+00 -0.00000000000E+00 -0.38282597042E+00  0.38282597042E+00  0.00000000000E+00 0.  1.
          4    1    1    2  501    0 -0.87834724979E+00  0.18445298990E+01  0.50918217624E+01  0.54863861785E+01  0.00000000000E+00 0. -1.
         -4    1    1    2    0  501  0.87834724979E+00 -0.18445298990E+01  0.54381759284E+01  0.58092634531E+01  0.00000000000E+00 0.  1.
<mgrwt>
<rscale>  0 0.20429842E+01</rscale>
<asrwt>0</asrwt>
<pdfrwt beam="1">0</pdfrwt>
<pdfrwt beam="2">0</pdfrwt>
<totfact> 0.42360846E+12</totfact>
</mgrwt>
</event>
<event>
 4    2  0.2093759E+006  0.2916130E+01  0.7546771E-02  0.2549367E+00
         22   -1    0    0    0    0  0.00000000000E+00  0.00000000000E+00  0.15705252325E+02  0.15705252325E+02  0.00000000000E+00 0. -1.
         22   -1    0    0    0    0 -0.00000000000E+00 -0.00000000000E+00 -0.77390734607E+00  0.77390734607E+00  0.00000000000E+00 0.  1.
          4    1    1    2  501    0  0.43793936479E+00 -0.28830584782E+01  0.29500270460E+01  0.41480690264E+01  0.00000000000E+00 0.  1.
         -4    1    1    2    0  501 -0.43793936479E+00  0.28830584782E+01  0.11981317933E+02  0.12331090645E+02  0.00000000000E+00 0. -1.
<mgrwt>
<rscale>  0 0.29161305E+01</rscale>
<asrwt>0</asrwt>
<pdfrwt beam="1">0</pdfrwt>
<pdfrwt beam="2">0</pdfrwt>
<totfact> 0.12242444E+12</totfact>
</mgrwt>
</event>
<event>
 4    2  0.2093759E+006  0.2028987E+01  0.7546771E-02  0.2961429E+00
         22   -1    0    0    0    0  0.00000000000E+00  0.00000000000E+00  0.35585654425E+00  0.35585654425E+00  0.00000000000E+00 0. -1.
         22   -1    0    0    0    0 -0.00000000000E+00 -0.00000000000E+00 -0.12601920590E+02  0.12601920590E+02  0.00000000000E+00 0.  1.
          4    1    1    2  501    0  0.10766545793E+01 -0.17197681256E+01 -0.79782059875E+01  0.82321660739E+01  0.00000000000E+00 0.  1.
         -4    1    1    2    0  501 -0.10766545793E+01  0.17197681256E+01 -0.42678580584E+01  0.47256110606E+01  0.00000000000E+00 0. -1.
<mgrwt>
<rscale>  0 0.20289868E+01</rscale>
<asrwt>0</asrwt>
<pdfrwt beam="1">0</pdfrwt>
<pdfrwt beam="2">0</pdfrwt>
<totfact> 0.38591696E+12</totfact>
</mgrwt>
</event>
<event>
 4    2  0.2093759E+006  0.3980552E+01  0.7546771E-02  0.2281027E+00
         22   -1    0    0    0    0  0.00000000000E+00  0.00000000000E+00  0.38702011133E+01  0.38702011133E+01  0.00000000000E+00 0.  1.
         22   -1    0    0    0    0 -0.00000000000E+00 -0.00000000000E+00 -0.42990585043E+01  0.42990585043E+01  0.00000000000E+00 0. -1.
          4    1    1    2  501    0  0.20623034860E+01  0.34046585479E+01  0.67754559909E+00  0.40378042962E+01  0.00000000000E+00 0.  1.
         -4    1    1    2    0  501 -0.20623034860E+01 -0.34046585479E+01 -0.11064029901E+01  0.41314553214E+01  0.00000000000E+00 0. -1.
<mgrwt>
<rscale>  0 0.39805522E+01</rscale>
<asrwt>0</asrwt>
<pdfrwt beam="1">0</pdfrwt>
<pdfrwt beam="2">0</pdfrwt>
<totfact> 0.90768371E+11</totfact>
</mgrwt>
</event>
<event>
 4    2  0.2093759E+006  0.2614755E+01  0.7546771E-02  0.2660003E+00
         22   -1    0    0    0    0  0.00000000000E+00  0.00000000000E+00  0.26643764650E+00  0.26643764650E+00  0.00000000000E+00 0.  1.
         22   -1    0    0    0    0 -0.00000000000E+00 -0.00000000000E+00 -0.34017248566E+02  0.34017248566E+02  0.00000000000E+00 0. -1.
          4    1    1    2  501    0 -0.26046310951E+01 -0.22987477967E+00 -0.25371599340E+02  0.25505979664E+02  0.00000000000E+00 0. -1.
         -4    1    1    2    0  501  0.26046310951E+01  0.22987477967E+00 -0.83792115794E+01  0.87777065483E+01  0.00000000000E+00 0.  1.
<mgrwt>
<rscale>  0 0.26147554E+01</rscale>
<asrwt>0</asrwt>
<pdfrwt beam="1">0</pdfrwt>
<pdfrwt beam="2">0</pdfrwt>
<totfact> 0.15426261E+12</totfact>
</mgrwt>
</event>
<event>
 4    2  0.2093759E+006  0.2317265E+01  0.7546771E-02  0.2795019E+00
         22   -1    0    0    0    0  0.00000000000E+00  0.00000000000E+00  0.10876812825E+02  0.10876812825E+02  0.00000000000E+00 0. -1.
         22   -1    0    0    0    0 -0.00000000000E+00 -0.00000000000E+00 -0.53596467748E+00  0.53596467748E+00  0.00000000000E+00 0.  1.
          4    1    1    2  501    0  0.80114279712E+00  0.21743706617E+01  0.67731525223E+01  0.71585831452E+01  0.00000000000E+00 0. -1.
         -4    1    1    2    0  501 -0.80114279712E+00 -0.21743706617E+01  0.35676956253E+01  0.42541943574E+01  0.00000000000E+00 0.  1.
<mgrwt>
<rscale>  0 0.23172651E+01</rscale>
<asrwt>0</asrwt>
<pdfrwt beam="1">0</pdfrwt>
<pdfrwt beam="2">0</pdfrwt>
<totfact> 0.29103779E+12</totfact>
</mgrwt>
</event>
<event>
 4    2  0.2093759E+006  0.2702058E+01  0.7546771E-02  0.2625638E+00
         22   -1    0    0    0    0  0.00000000000E+00  0.00000000000E+00  0.66760379901E+00  0.66760379901E+00  0.00000000000E+00 0.  1.
         22   -1    0    0    0    0 -0.00000000000E+00 -0.00000000000E+00 -0.34917632743E+02  0.34917632743E+02  0.00000000000E+00 0. -1.
          4    1    1    2  501    0 -0.11775264803E+01 -0.24319847259E+01 -0.31870330440E+02  0.31984669463E+02  0.00000000000E+00 0. -1.
         -4    1    1    2    0  501  0.11775264803E+01  0.24319847259E+01 -0.23796985041E+01  0.36005670788E+01  0.00000000000E+00 0.  1.
<mgrwt>
<rscale>  0 0.27020582E+01</rscale>
<asrwt>0</asrwt>
<pdfrwt beam="1">0</pdfrwt>
<pdfrwt beam="2">0</pdfrwt>
<totfact> 0.52997307E+11</totfact>
</mgrwt>
</event>
<event>
 4    2  0.2093759E+006  0.2066871E+01  0.7546771E-02  0.2937004E+00
         22   -1    0    0    0    0  0.00000000000E+00  0.00000000000E+00  0.21569633927E+02  0.21569633927E+02  0.00000000000E+00 0. -1.
         22   -1    0    0    0    0 -0.00000000000E+00 -0.00000000000E+00 -0.20078651686E+00  0.20078651686E+00  0.00000000000E+00 0.  1.
          4    1    1    2  501    0 -0.19607365409E+00 -0.20575495149E+01  0.94146060220E+01  0.96388153542E+01  0.00000000000E+00 0. -1.
         -4    1    1    2    0  501  0.19607365409E+00  0.20575495149E+01  0.11954241388E+02  0.12131605090E+02  0.00000000000E+00 0.  1.
<mgrwt>
<rscale>  0 0.20668708E+01</rscale>
<asrwt>0</asrwt>
<pdfrwt beam="1">0</pdfrwt>
<pdfrwt beam="2">0</pdfrwt>
<totfact> 0.37693146E+12</totfact>
</mgrwt>
</event>
<event>
 4    2  0.2093759E+006  0.2078392E+01  0.7546771E-02  0.2929748E+00
         22   -1    0    0    0    0  0.00000000000E+00  0.00000000000E+00  0.17978835521E+02  0.17978835521E+02  0.00000000000E+00 0. -1.
         22   -1    0    0    0    0 -0.00000000000E+00 -0.00000000000E+00 -0.25889260928E+00  0.25889260928E+00  0.00000000000E+00 0.  1.
          4    1    1    2  501    0 -0.20782827572E+01  0.21356182255E-01  0.11305877503E+02  0.11495328678E+02  0.00000000000E+00 0. -1.
         -4    1    1    2    0  501  0.20782827572E+01 -0.21356182255E-01  0.64140654088E+01  0.67423994523E+01  0.00000000000E+00 0.  1.
<mgrwt>
<rscale>  0 0.20783925E+01</rscale>
<asrwt>0</asrwt>
<pdfrwt beam="1">0</pdfrwt>
<pdfrwt beam="2">0</pdfrwt>
<totfact> 0.35601522E+12</totfact>
</mgrwt>
</event>
<event>
 4    2  0.2093759E+006  0.3194553E+01  0.7546771E-02  0.2464059E+00
         22   -1    0    0    0    0  0.00000000000E+00  0.00000000000E+00  0.76379183769E+01  0.76379183769E+01  0.00000000000E+00 0. -1.
         22   -1    0    0    0    0 -0.00000000000E+00 -0.00000000000E+00 -0.96332475561E+01  0.96332475561E+01  0.00000000000E+00 0.  1.
          4    1    1    2  501    0  0.23284663862E+01  0.21871011439E+01  0.70167021619E+01  0.77096871762E+01  0.00000000000E+00 0. -1.
         -4    1    1    2    0  501 -0.23284663862E+01 -0.21871011439E+01 -0.90120313411E+01  0.95614787569E+01  0.00000000000E+00 0.  1.
<mgrwt>
<rscale>  0 0.31945527E+01</rscale>
<asrwt>0</asrwt>
<pdfrwt beam="1">0</pdfrwt>
<pdfrwt beam="2">0</pdfrwt>
<totfact> 0.15462969E+11</totfact>
</mgrwt>
</event>
<event>
 4    2  0.2093759E+006  0.2084852E+01  0.7546771E-02  0.2925714E+00
         22   -1    0    0    0    0  0.00000000000E+00  0.00000000000E+00  0.86994802755E+01  0.86994802755E+01  0.00000000000E+00 0. -1.
         22   -1    0    0    0    0 -0.00000000000E+00 -0.00000000000E+00 -0.90515410724E+00  0.90515410724E+00  0.00000000000E+00 0.  1.
          4    1    1    2  501    0  0.19760677879E+01  0.66465174188E+00  0.68281640639E+00  0.21938195197E+01  0.00000000000E+00 0.  1.
         -4    1    1    2    0  501 -0.19760677879E+01 -0.66465174188E+00  0.71115097619E+01  0.74108148630E+01  0.00000000000E+00 0. -1.
<mgrwt>
<rscale>  0 0.20848515E+01</rscale>
<asrwt>0</asrwt>
<pdfrwt beam="1">0</pdfrwt>
<pdfrwt beam="2">0</pdfrwt>
<totfact> 0.21035409E+12</totfact>
</mgrwt>
</event>
<event>
 4    2  0.2093759E+006  0.2227224E+01  0.7546771E-02  0.2842551E+00
         22   -1    0    0    0    0  0.00000000000E+00  0.00000000000E+00  0.75360708204E-01  0.75360708204E-01  0.00000000000E+00 0.  1.
         22   -1    0    0    0    0 -0.00000000000E+00 -0.00000000000E+00 -0.65991101567E+02  0.65991101567E+02  0.00000000000E+00 0. -1.
          4    1    1    2  501    0 -0.12642008021E+01  0.18336643469E+01 -0.34621095905E+02  0.34692662196E+02  0.00000000000E+00 0.  1.
         -4    1    1    2    0  501  0.12642008021E+01 -0.18336643469E+01 -0.31294644954E+02  0.31373800079E+02  0.00000000000E+00 0. -1.
<mgrwt>
<rscale>  0 0.22272244E+01</rscale>
<asrwt>0</asrwt>
<pdfrwt beam="1">0</pdfrwt>
<pdfrwt beam="2">0</pdfrwt>
<totfact> 0.26266230E+12</totfact>
</mgrwt>
</event>
<event>
 4    2  0.2093759E+006  0.2593048E+01  0.7546771E-02  0.2668877E+00
         22   -1    0    0    0    0  0.00000000000E+00  0.00000000000E+00  0.42885469418E+01  0.42885469418E+01  0.00000000000E+00 0.  1.
         22   -1    0    0    0    0 -0.00000000000E+00 -0.00000000000E+00 -0.16085763186E+01  0.16085763186E+01  0.00000000000E+00 0. -1.
          4    1    1    2  501    0 -0.89156426505E-01 -0.25915152360E+01  0.18090150648E+01  0.31617140275E+01  0.00000000000E+00 0. -1.
         -4    1    1    2    0  501  0.89156426505E-01  0.25915152360E+01  0.87095555833E+00  0.27354092329E+01  0.00000000000E+00 0.  1.
<mgrwt>
<rscale>  0 0.25930484E+01</rscale>
<asrwt>0</asrwt>
<pdfrwt beam="1">0</pdfrwt>
<pdfrwt beam="2">0</pdfrwt>
<totfact> 0.25280084E+12</totfact>
</mgrwt>
</event>
<event>
 4    2  0.2093759E+006  0.2410589E+01  0.7546771E-02  0.2749311E+00
         22   -1    0    0    0    0  0.00000000000E+00  0.00000000000E+00  0.39767075623E+01  0.39767075623E+01  0.00000000000E+00 0.  1.
         22   -1    0    0    0    0 -0.00000000000E+00 -0.00000000000E+00 -0.18397204873E+01  0.18397204873E+01  0.00000000000E+00 0. -1.
          4    1    1    2  501    0 -0.10873918187E+01  0.21513993073E+01 -0.25058274413E+00  0.24235782757E+01  0.00000000000E+00 0. -1.
         -4    1    1    2    0  501  0.10873918187E+01 -0.21513993073E+01  0.23875698192E+01  0.33928497739E+01  0.00000000000E+00 0.  1.
<mgrwt>
<rscale>  0 0.24105891E+01</rscale>
<asrwt>0</asrwt>
<pdfrwt beam="1">0</pdfrwt>
<pdfrwt beam="2">0</pdfrwt>
<totfact> 0.23665069E+12</totfact>
</mgrwt>
</event>
<event>
 4    2  0.2093759E+006  0.2401194E+01  0.7546771E-02  0.2753761E+00
         22   -1    0    0    0    0  0.00000000000E+00  0.00000000000E+00  0.59149252016E+01  0.59149252016E+01  0.00000000000E+00 0.  1.
         22   -1    0    0    0    0 -0.00000000000E+00 -0.00000000000E+00 -0.12066229821E+01  0.12066229821E+01  0.00000000000E+00 0. -1.
          4    1    1    2  501    0  0.97524370352E+00  0.21942275420E+01  0.79331201022E+00  0.25288492902E+01  0.00000000000E+00 0. -1.
         -4    1    1    2    0  501 -0.97524370352E+00 -0.21942275420E+01  0.39149902093E+01  0.45926988934E+01  0.00000000000E+00 0.  1.
<mgrwt>
<rscale>  0 0.24011945E+01</rscale>
<asrwt>0</asrwt>
<pdfrwt beam="1">0</pdfrwt>
<pdfrwt beam="2">0</pdfrwt>
<totfact> 0.24036543E+12</totfact>
</mgrwt>
</event>
<event>
 4    2  0.2093759E+006  0.2008286E+01  0.7546771E-02  0.2975156E+00
         22   -1    0    0    0    0  0.00000000000E+00  0.00000000000E+00  0.47320102555E+01  0.47320102555E+01  0.00000000000E+00 0. -1.
         22   -1    0    0    0    0 -0.00000000000E+00 -0.00000000000E+00 -0.12707679493E+01  0.12707679493E+01  0.00000000000E+00 0.  1.
          4    1    1    2  501    0  0.19938636956E+01 -0.24025227549E+00  0.83283828314E-02  0.20083035016E+01  0.00000000000E+00 0.  1.
         -4    1    1    2    0  501 -0.19938636956E+01  0.24025227549E+00  0.34529139234E+01  0.39944747033E+01  0.00000000000E+00 0. -1.
<mgrwt>
<rscale>  0 0.20082862E+01</rscale>
<asrwt>0</asrwt>
<pdfrwt beam="1">0</pdfrwt>
<pdfrwt beam="2">0</pdfrwt>
<totfact> 0.29510172E+12</totfact>
</mgrwt>
</event>
<event>
 4    2  0.2093759E+006  0.2462680E+01  0.7546771E-02  0.2725215E+00
         22   -1    0    0    0    0  0.00000000000E+00  0.00000000000E+00  0.50145441999E+01  0.50145441999E+01  0.00000000000E+00 0.  1.
         22   -1    0    0    0    0 -0.00000000000E+00 -0.00000000000E+00 -0.13177913060E+01  0.13177913060E+01  0.00000000000E+00 0. -1.
          4    1    1    2  501    0 -0.19584143708E+01 -0.14931201160E+01  0.94050156125E+00  0.26361596528E+01  0.00000000000E+00 0. -1.
         -4    1    1    2    0  501  0.19584143708E+01  0.14931201160E+01  0.27562513326E+01  0.36961758531E+01  0.00000000000E+00 0.  1.
<mgrwt>
<rscale>  0 0.24626804E+01</rscale>
<asrwt>0</asrwt>
<pdfrwt beam="1">0</pdfrwt>
<pdfrwt beam="2">0</pdfrwt>
<totfact> 0.26430595E+12</totfact>
</mgrwt>
</event>
<event>
 4    2  0.2093759E+006  0.2891806E+01  0.7546771E-02  0.2557517E+00
         22   -1    0    0    0    0  0.00000000000E+00  0.00000000000E+00  0.12316253661E+02  0.12316253661E+02  0.00000000000E+00 0. -1.
         22   -1    0    0    0    0 -0.00000000000E+00 -0.00000000000E+00 -0.67953514245E+00  0.67953514245E+00  0.00000000000E+00 0.  1.
          4    1    1    2  501    0  0.67228197035E+00 -0.28125748273E+01  0.56333192477E+01  0.63322054573E+01  0.00000000000E+00 0. -1.
         -4    1    1    2    0  501 -0.67228197035E+00  0.28125748273E+01  0.60033992711E+01  0.66635833465E+01  0.00000000000E+00 0.  1.
<mgrwt>
<rscale>  0 0.28918057E+01</rscale>
<asrwt>0</asrwt>
<pdfrwt beam="1">0</pdfrwt>
<pdfrwt beam="2">0</pdfrwt>
<totfact> 0.19121085E+12</totfact>
</mgrwt>
</event>
<event>
 4    2  0.2093759E+006  0.2093240E+01  0.7546771E-02  0.2920511E+00
         22   -1    0    0    0    0  0.00000000000E+00  0.00000000000E+00  0.13895939506E+01  0.13895939506E+01  0.00000000000E+00 0. -1.
         22   -1    0    0    0    0 -0.00000000000E+00 -0.00000000000E+00 -0.33014516185E+01  0.33014516185E+01  0.00000000000E+00 0.  1.
          4    1    1    2  501    0  0.19377042042E+01  0.79180608374E+00 -0.45887799691E+00  0.21429473800E+01  0.00000000000E+00 0. -1.
         -4    1    1    2    0  501 -0.19377042042E+01 -0.79180608374E+00 -0.14529796709E+01  0.25480981891E+01  0.00000000000E+00 0.  1.
<mgrwt>
<rscale>  0 0.20932402E+01</rscale>
<asrwt>0</asrwt>
<pdfrwt beam="1">0</pdfrwt>
<pdfrwt beam="2">0</pdfrwt>
<totfact> 0.40676568E+12</totfact>
</mgrwt>
</event>
<event>
 4    2  0.2093759E+006  0.2462745E+01  0.7546771E-02  0.2725186E+00
         22   -1    0    0    0    0  0.00000000000E+00  0.00000000000E+00  0.15024817456E+01  0.15024817456E+01  0.00000000000E+00 0.  1.
         22   -1    0    0    0    0 -0.00000000000E+00 -0.00000000000E+00 -0.16093002919E+02  0.16093002919E+02  0.00000000000E+00 0. -1.
          4    1    1    2  501    0  0.18380659362E+01  0.16390928473E+01 -0.14910073630E+02  0.15112094739E+02  0.00000000000E+00 0. -1.
         -4    1    1    2    0  501 -0.18380659362E+01 -0.16390928473E+01  0.31955245710E+00  0.24833899252E+01  0.00000000000E+00 0.  1.
<mgrwt>
<rscale>  0 0.24627448E+01</rscale>
<asrwt>0</asrwt>
<pdfrwt beam="1">0</pdfrwt>
<pdfrwt beam="2">0</pdfrwt>
<totfact> 0.55628101E+11</totfact>
</mgrwt>
</event>
<event>
 4    2  0.2093759E+006  0.2871132E+01  0.7546771E-02  0.2564541E+00
         22   -1    0    0    0    0  0.00000000000E+00  0.00000000000E+00  0.13764675385E+02  0.13764675385E+02  0.00000000000E+00 0. -1.
         22   -1    0    0    0    0 -0.00000000000E+00 -0.00000000000E+00 -0.64515017400E+00  0.64515017400E+00  0.00000000000E+00 0.  1.
          4    1    1    2  501    0  0.28312405073E+01  0.47694676542E+00  0.46302629116E+01  0.54481864558E+01  0.00000000000E+00 0.  1.
         -4    1    1    2    0  501 -0.28312405073E+01 -0.47694676542E+00  0.84892622992E+01  0.89616391030E+01  0.00000000000E+00 0. -1.
<mgrwt>
<rscale>  0 0.28711324E+01</rscale>
<asrwt>0</asrwt>
<pdfrwt beam="1">0</pdfrwt>
<pdfrwt beam="2">0</pdfrwt>
<totfact> 0.17701747E+12</totfact>
</mgrwt>
</event>
<event>
 4    2  0.2093759E+006  0.2328541E+01  0.7546771E-02  0.2789313E+00
         22   -1    0    0    0    0  0.00000000000E+00  0.00000000000E+00  0.32355869168E+01  0.32355869168E+01  0.00000000000E+00 0. -1.
         22   -1    0    0    0    0 -0.00000000000E+00 -0.00000000000E+00 -0.18292338517E+01  0.18292338517E+01  0.00000000000E+00 0.  1.
          4    1    1    2  501    0 -0.21948219251E+00  0.23181738719E+01 -0.30325270647E-01  0.23287383184E+01  0.00000000000E+00 0.  1.
         -4    1    1    2    0  501  0.21948219251E+00 -0.23181738719E+01  0.14366783357E+01  0.27360824501E+01  0.00000000000E+00 0. -1.
<mgrwt>
<rscale>  0 0.23285409E+01</rscale>
<asrwt>0</asrwt>
<pdfrwt beam="1">0</pdfrwt>
<pdfrwt beam="2">0</pdfrwt>
<totfact> 0.30344234E+12</totfact>
</mgrwt>
</event>
<event>
 4    2  0.2093759E+006  0.2504241E+01  0.7546771E-02  0.2706663E+00
         22   -1    0    0    0    0  0.00000000000E+00  0.00000000000E+00  0.11012943559E+02  0.11012943559E+02  0.00000000000E+00 0.  1.
         22   -1    0    0    0    0 -0.00000000000E+00 -0.00000000000E+00 -0.91863608729E+00  0.91863608729E+00  0.00000000000E+00 0. -1.
          4    1    1    2  501    0  0.38123898784E+00 -0.24750517077E+01  0.13689979656E+01  0.28540111338E+01  0.00000000000E+00 0. -1.
         -4    1    1    2    0  501 -0.38123898784E+00  0.24750517077E+01  0.87253095057E+01  0.90775685121E+01  0.00000000000E+00 0.  1.
<mgrwt>
<rscale>  0 0.25042412E+01</rscale>
<asrwt>0</asrwt>
<pdfrwt beam="1">0</pdfrwt>
<pdfrwt beam="2">0</pdfrwt>
<totfact> 0.15550528E+12</totfact>
</mgrwt>
</event>
<event>
 4    2  0.2093759E+006  0.2089046E+01  0.7546771E-02  0.2923108E+00
         22   -1    0    0    0    0  0.00000000000E+00  0.00000000000E+00  0.18067846068E+02  0.18067846068E+02  0.00000000000E+00 0. -1.
         22   -1    0    0    0    0 -0.00000000000E+00 -0.00000000000E+00 -0.24635333171E+00  0.24635333171E+00  0.00000000000E+00 0.  1.
          4    1    1    2  501    0  0.17049136205E+01  0.12072205773E+01  0.10190689108E+02  0.10402608157E+02  0.00000000000E+00 0. -1.
         -4    1    1    2    0  501 -0.17049136205E+01 -0.12072205773E+01  0.76308036285E+01  0.79115912428E+01  0.00000000000E+00 0.  1.
<mgrwt>
<rscale>  0 0.20890457E+01</rscale>
<asrwt>0</asrwt>
<pdfrwt beam="1">0</pdfrwt>
<pdfrwt beam="2">0</pdfrwt>
<totfact> 0.37405079E+12</totfact>
</mgrwt>
</event>
<event>
 4    2  0.2093759E+006  0.2366926E+01  0.7546771E-02  0.2770273E+00
         22   -1    0    0    0    0  0.00000000000E+00  0.00000000000E+00  0.39790379371E+01  0.39790379371E+01  0.00000000000E+00 0. -1.
         22   -1    0    0    0    0 -0.00000000000E+00 -0.00000000000E+00 -0.14506042922E+01  0.14506042922E+01  0.00000000000E+00 0.  1.
          4    1    1    2  501    0 -0.23582034817E+01 -0.20302036583E+00  0.17296725855E+01  0.29315709412E+01  0.00000000000E+00 0. -1.
         -4    1    1    2    0  501  0.23582034817E+01  0.20302036583E+00  0.79876105938E+00  0.24980712881E+01  0.00000000000E+00 0.  1.
<mgrwt>
<rscale>  0 0.23669265E+01</rscale>
<asrwt>0</asrwt>
<pdfrwt beam="1">0</pdfrwt>
<pdfrwt beam="2">0</pdfrwt>
<totfact> 0.31099891E+12</totfact>
</mgrwt>
</event>
<event>
 4    2  0.2093759E+006  0.2095073E+01  0.7546771E-02  0.2919380E+00
         22   -1    0    0    0    0  0.00000000000E+00  0.00000000000E+00  0.48863641729E+01  0.48863641729E+01  0.00000000000E+00 0.  1.
         22   -1    0    0    0    0 -0.00000000000E+00 -0.00000000000E+00 -0.91941380027E+00  0.91941380027E+00  0.00000000000E+00 0. -1.
          4    1    1    2  501    0  0.64876101706E+00  0.19920945691E+01  0.24235697579E+01  0.32035951681E+01  0.00000000000E+00 0. -1.
         -4    1    1    2    0  501 -0.64876101706E+00 -0.19920945691E+01  0.15433806147E+01  0.26021828051E+01  0.00000000000E+00 0.  1.
<mgrwt>
<rscale>  0 0.20950732E+01</rscale>
<asrwt>0</asrwt>
<pdfrwt beam="1">0</pdfrwt>
<pdfrwt beam="2">0</pdfrwt>
<totfact> 0.41136999E+12</totfact>
</mgrwt>
</event>
<event>
 4    2  0.2093759E+006  0.2456556E+01  0.7546771E-02  0.2727999E+00
         22   -1    0    0    0    0  0.00000000000E+00  0.00000000000E+00  0.16450225850E+01  0.16450225850E+01  0.00000000000E+00 0.  1.
         22   -1    0    0    0    0 -0.00000000000E+00 -0.00000000000E+00 -0.12139726704E+02  0.12139726704E+02  0.00000000000E+00 0. -1.
          4    1    1    2  501    0  0.22925438392E+01  0.88255794619E+00 -0.11004920709E+02  0.11275768071E+02  0.00000000000E+00 0. -1.
         -4    1    1    2    0  501 -0.22925438392E+01 -0.88255794619E+00  0.51021658994E+00  0.25089812179E+01  0.00000000000E+00 0.  1.
<mgrwt>
<rscale>  0 0.24565557E+01</rscale>
<asrwt>0</asrwt>
<pdfrwt beam="1">0</pdfrwt>
<pdfrwt beam="2">0</pdfrwt>
<totfact> 0.70823693E+11</totfact>
</mgrwt>
</event>
<event>
 4    2  0.2093759E+006  0.3429096E+01  0.7546771E-02  0.2401815E+00
         22   -1    0    0    0    0  0.00000000000E+00  0.00000000000E+00  0.57481032277E+01  0.57481032277E+01  0.00000000000E+00 0. -1.
         22   -1    0    0    0    0 -0.00000000000E+00 -0.00000000000E+00 -0.23623985343E+01  0.23623985343E+01  0.00000000000E+00 0.  1.
          4    1    1    2  501    0  0.27223314136E+01 -0.20850919723E+01  0.20798458392E+00  0.34353972762E+01  0.00000000000E+00 0. -1.
         -4    1    1    2    0  501 -0.27223314136E+01  0.20850919723E+01  0.31777201095E+01  0.46751044857E+01  0.00000000000E+00 0.  1.
<mgrwt>
<rscale>  0 0.34290956E+01</rscale>
<asrwt>0</asrwt>
<pdfrwt beam="1">0</pdfrwt>
<pdfrwt beam="2">0</pdfrwt>
<totfact> 0.11457649E+12</totfact>
</mgrwt>
</event>
<event>
 4    2  0.2093759E+006  0.2208316E+01  0.7546771E-02  0.2853002E+00
         22   -1    0    0    0    0  0.00000000000E+00  0.00000000000E+00  0.35559961392E+00  0.35559961392E+00  0.00000000000E+00 0. -1.
         22   -1    0    0    0    0 -0.00000000000E+00 -0.00000000000E+00 -0.25225038005E+02  0.25225038005E+02  0.00000000000E+00 0.  1.
          4    1    1    2  501    0  0.20465907483E+01  0.82953313977E+00 -0.37945049308E+01  0.43903219234E+01  0.00000000000E+00 0. -1.
         -4    1    1    2    0  501 -0.20465907483E+01 -0.82953313977E+00 -0.21074933460E+02  0.21190315695E+02  0.00000000000E+00 0.  1.
<mgrwt>
<rscale>  0 0.22083159E+01</rscale>
<asrwt>0</asrwt>
<pdfrwt beam="1">0</pdfrwt>
<pdfrwt beam="2">0</pdfrwt>
<totfact> 0.16327390E+12</totfact>
</mgrwt>
</event>
<event>
 4    2  0.2093759E+006  0.2766665E+01  0.7546771E-02  0.2601490E+00
         22   -1    0    0    0    0  0.00000000000E+00  0.00000000000E+00  0.39892101170E+00  0.39892101170E+00  0.00000000000E+00 0.  1.
         22   -1    0    0    0    0 -0.00000000000E+00 -0.00000000000E+00 -0.23649601921E+02  0.23649601921E+02  0.00000000000E+00 0. -1.
          4    1    1    2  501    0 -0.25252384784E+01 -0.11303117187E+01 -0.16848093829E+02  0.17073742988E+02  0.00000000000E+00 0. -1.
         -4    1    1    2    0  501  0.25252384784E+01  0.11303117187E+01 -0.64025870802E+01  0.69747799444E+01  0.00000000000E+00 0.  1.
<mgrwt>
<rscale>  0 0.27666648E+01</rscale>
<asrwt>0</asrwt>
<pdfrwt beam="1">0</pdfrwt>
<pdfrwt beam="2">0</pdfrwt>
<totfact> 0.15562402E+12</totfact>
</mgrwt>
</event>
<event>
 4    2  0.2093759E+006  0.2635584E+01  0.7546771E-02  0.2651614E+00
         22   -1    0    0    0    0  0.00000000000E+00  0.00000000000E+00  0.34170305163E+02  0.34170305163E+02  0.00000000000E+00 0.  1.
         22   -1    0    0    0    0 -0.00000000000E+00 -0.00000000000E+00 -0.70174445322E+00  0.70174445322E+00  0.00000000000E+00 0. -1.
          4    1    1    2  501    0 -0.19697429902E+01 -0.17511184051E+01  0.20391651104E+01  0.33323411385E+01  0.00000000000E+00 0. -1.
         -4    1    1    2    0  501  0.19697429902E+01  0.17511184051E+01  0.31429395599E+02  0.31539708477E+02  0.00000000000E+00 0.  1.
<mgrwt>
<rscale>  0 0.26355840E+01</rscale>
<asrwt>0</asrwt>
<pdfrwt beam="1">0</pdfrwt>
<pdfrwt beam="2">0</pdfrwt>
<totfact> 0.51493433E+11</totfact>
</mgrwt>
</event>
<event>
 4    2  0.2093759E+006  0.2494748E+01  0.7546771E-02  0.2710850E+00
         22   -1    0    0    0    0  0.00000000000E+00  0.00000000000E+00  0.24773041241E+00  0.24773041241E+00  0.00000000000E+00 0. -1.
         22   -1    0    0    0    0 -0.00000000000E+00 -0.00000000000E+00 -0.25258440615E+02  0.25258440615E+02  0.00000000000E+00 0.  1.
          4    1    1    2  501    0  0.40528024172E+00  0.24616080808E+01 -0.13438734271E+02  0.13668333667E+02  0.00000000000E+00 0. -1.
         -4    1    1    2    0  501 -0.40528024172E+00 -0.24616080808E+01 -0.11571975932E+02  0.11837837361E+02  0.00000000000E+00 0.  1.
<mgrwt>
<rscale>  0 0.24947478E+01</rscale>
<asrwt>0</asrwt>
<pdfrwt beam="1">0</pdfrwt>
<pdfrwt beam="2">0</pdfrwt>
<totfact> 0.24445687E+12</totfact>
</mgrwt>
</event>
<event>
 4    2  0.2093759E+006  0.2360088E+01  0.7546771E-02  0.2773622E+00
         22   -1    0    0    0    0  0.00000000000E+00  0.00000000000E+00  0.34784504777E+01  0.34784504777E+01  0.00000000000E+00 0. -1.
         22   -1    0    0    0    0 -0.00000000000E+00 -0.00000000000E+00 -0.22595609192E+01  0.22595609192E+01  0.00000000000E+00 0.  1.
          4    1    1    2  501    0 -0.23428368135E+01 -0.28483452415E+00 -0.93909029741E+00  0.25400601622E+01  0.00000000000E+00 0.  1.
         -4    1    1    2    0  501  0.23428368135E+01  0.28483452415E+00  0.21579798559E+01  0.31979512347E+01  0.00000000000E+00 0. -1.
<mgrwt>
<rscale>  0 0.23600879E+01</rscale>
<asrwt>0</asrwt>
<pdfrwt beam="1">0</pdfrwt>
<pdfrwt beam="2">0</pdfrwt>
<totfact> 0.21828118E+12</totfact>
</mgrwt>
</event>
<event>
 4    2  0.2093759E+006  0.2194849E+01  0.7546771E-02  0.2860550E+00
         22   -1    0    0    0    0  0.00000000000E+00  0.00000000000E+00  0.19964977954E+01  0.19964977954E+01  0.00000000000E+00 0. -1.
         22   -1    0    0    0    0 -0.00000000000E+00 -0.00000000000E+00 -0.53943944996E+01  0.53943944996E+01  0.00000000000E+00 0.  1.
          4    1    1    2  501    0  0.21095968275E+01  0.60577409734E+00 -0.44462864750E+01  0.49585103054E+01  0.00000000000E+00 0.  1.
         -4    1    1    2    0  501 -0.21095968275E+01 -0.60577409734E+00  0.10483897708E+01  0.24323819896E+01  0.00000000000E+00 0. -1.
<mgrwt>
<rscale>  0 0.21948487E+01</rscale>
<asrwt>0</asrwt>
<pdfrwt beam="1">0</pdfrwt>
<pdfrwt beam="2">0</pdfrwt>
<totfact> 0.15016518E+12</totfact>
</mgrwt>
</event>
<event>
 4    2  0.2093759E+006  0.2062315E+01  0.7546771E-02  0.2939895E+00
         22   -1    0    0    0    0  0.00000000000E+00  0.00000000000E+00  0.46335394818E+01  0.46335394818E+01  0.00000000000E+00 0.  1.
         22   -1    0    0    0    0 -0.00000000000E+00 -0.00000000000E+00 -0.21251315093E+01  0.21251315093E+01  0.00000000000E+00 0. -1.
          4    1    1    2  501    0 -0.36086108310E+00 -0.20304983434E+01 -0.12928196392E+01  0.24340350990E+01  0.00000000000E+00 0. -1.
         -4    1    1    2    0  501  0.36086108310E+00  0.20304983434E+01  0.38012276117E+01  0.43246358921E+01  0.00000000000E+00 0.  1.
<mgrwt>
<rscale>  0 0.20623153E+01</rscale>
<asrwt>0</asrwt>
<pdfrwt beam="1">0</pdfrwt>
<pdfrwt beam="2">0</pdfrwt>
<totfact> 0.16723516E+12</totfact>
</mgrwt>
</event>
<event>
 4    2  0.2093759E+006  0.5201821E+01  0.7546771E-02  0.2099657E+00
         22   -1    0    0    0    0  0.00000000000E+00  0.00000000000E+00  0.10523216058E+02  0.10523216058E+02  0.00000000000E+00 0.  1.
         22   -1    0    0    0    0 -0.00000000000E+00 -0.00000000000E+00 -0.34499762342E+01  0.34499762342E+01  0.00000000000E+00 0. -1.
          4    1    1    2  501    0 -0.20381719931E+01 -0.47858951844E+01  0.70624235155E+01  0.87713604248E+01  0.00000000000E+00 0.  1.
         -4    1    1    2    0  501  0.20381719931E+01  0.47858951844E+01  0.10816308806E-01  0.52018318679E+01  0.00000000000E+00 0. -1.
<mgrwt>
<rscale>  0 0.52018206E+01</rscale>
<asrwt>0</asrwt>
<pdfrwt beam="1">0</pdfrwt>
<pdfrwt beam="2">0</pdfrwt>
<totfact> 0.35637429E+11</totfact>
</mgrwt>
</event>
<event>
 4    2  0.2093759E+006  0.4325555E+01  0.7546771E-02  0.2219072E+00
         22   -1    0    0    0    0  0.00000000000E+00  0.00000000000E+00  0.33310132702E+02  0.33310132702E+02  0.00000000000E+00 0.  1.
         22   -1    0    0    0    0 -0.00000000000E+00 -0.00000000000E+00 -0.62137590758E+00  0.62137590758E+00  0.00000000000E+00 0. -1.
          4    1    1    2  501    0 -0.41815449629E+01  0.11068475128E+01  0.11086851727E+02  0.11900786147E+02  0.00000000000E+00 0. -1.
         -4    1    1    2    0  501  0.41815449629E+01 -0.11068475128E+01  0.21601905068E+02  0.22030722463E+02  0.00000000000E+00 0.  1.
<mgrwt>
<rscale>  0 0.43255554E+01</rscale>
<asrwt>0</asrwt>
<pdfrwt beam="1">0</pdfrwt>
<pdfrwt beam="2">0</pdfrwt>
<totfact> 0.61077375E+11</totfact>
</mgrwt>
</event>
<event>
 4    2  0.2093759E+006  0.2713526E+01  0.7546771E-02  0.2621275E+00
         22   -1    0    0    0    0  0.00000000000E+00  0.00000000000E+00  0.22210357507E+02  0.22210357507E+02  0.00000000000E+00 0. -1.
         22   -1    0    0    0    0 -0.00000000000E+00 -0.00000000000E+00 -0.73443817072E+00  0.73443817072E+00  0.00000000000E+00 0.  1.
          4    1    1    2  501    0  0.26384190706E+01  0.63401062581E+00  0.22406026317E+01  0.35190232763E+01  0.00000000000E+00 0.  1.
         -4    1    1    2    0  501 -0.26384190706E+01 -0.63401062581E+00  0.19235316704E+02  0.19425772401E+02  0.00000000000E+00 0. -1.
<mgrwt>
<rscale>  0 0.27135262E+01</rscale>
<asrwt>0</asrwt>
<pdfrwt beam="1">0</pdfrwt>
<pdfrwt beam="2">0</pdfrwt>
<totfact> 0.84452764E+11</totfact>
</mgrwt>
</event>
<event>
 4    2  0.2093759E+006  0.2777571E+01  0.7546771E-02  0.2597515E+00
         22   -1    0    0    0    0  0.00000000000E+00  0.00000000000E+00  0.92473830165E+01  0.92473830165E+01  0.00000000000E+00 0. -1.
         22   -1    0    0    0    0 -0.00000000000E+00 -0.00000000000E+00 -0.12259035048E+01  0.12259035048E+01  0.00000000000E+00 0.  1.
          4    1    1    2  501    0 -0.69986917247E-01  0.27766894255E+01  0.10509594052E+01  0.29697504955E+01  0.00000000000E+00 0. -1.
         -4    1    1    2    0  501  0.69986917247E-01 -0.27766894255E+01  0.69705201065E+01  0.75035360257E+01  0.00000000000E+00 0.  1.
<mgrwt>
<rscale>  0 0.27775713E+01</rscale>
<asrwt>0</asrwt>
<pdfrwt beam="1">0</pdfrwt>
<pdfrwt beam="2">0</pdfrwt>
<totfact> 0.13817105E+12</totfact>
</mgrwt>
</event>
<event>
 4    2  0.2093759E+006  0.2397415E+01  0.7546771E-02  0.2755560E+00
         22   -1    0    0    0    0  0.00000000000E+00  0.00000000000E+00  0.38294706709E+00  0.38294706709E+00  0.00000000000E+00 0. -1.
         22   -1    0    0    0    0 -0.00000000000E+00 -0.00000000000E+00 -0.31510551053E+02  0.31510551053E+02  0.00000000000E+00 0.  1.
          4    1    1    2  501    0  0.97513028434E+00  0.21901417764E+01 -0.27103869448E+02  0.27209692007E+02  0.00000000000E+00 0.  1.
         -4    1    1    2    0  501 -0.97513028434E+00 -0.21901417764E+01 -0.40237345384E+01  0.46838061134E+01  0.00000000000E+00 0. -1.
<mgrwt>
<rscale>  0 0.23974153E+01</rscale>
<asrwt>0</asrwt>
<pdfrwt beam="1">0</pdfrwt>
<pdfrwt beam="2">0</pdfrwt>
<totfact> 0.11325262E+12</totfact>
</mgrwt>
</event>
<event>
 4    2  0.2093759E+006  0.2955503E+01  0.7546771E-02  0.2536431E+00
         22   -1    0    0    0    0  0.00000000000E+00  0.00000000000E+00  0.10330104873E+02  0.10330104873E+02  0.00000000000E+00 0. -1.
         22   -1    0    0    0    0 -0.00000000000E+00 -0.00000000000E+00 -0.32441246240E+01  0.32441246240E+01  0.00000000000E+00 0.  1.
          4    1    1    2  501    0  0.26582338040E+01  0.12918158821E+01 -0.22929356216E+01  0.37406615718E+01  0.00000000000E+00 0.  1.
         -4    1    1    2    0  501 -0.26582338040E+01 -0.12918158821E+01  0.93789158708E+01  0.98335679253E+01  0.00000000000E+00 0. -1.
<mgrwt>
<rscale>  0 0.29555025E+01</rscale>
<asrwt>0</asrwt>
<pdfrwt beam="1">0</pdfrwt>
<pdfrwt beam="2">0</pdfrwt>
<totfact> 0.39169998E+11</totfact>
</mgrwt>
</event>
<event>
 4    2  0.2093759E+006  0.2035105E+01  0.7546771E-02  0.2957425E+00
         22   -1    0    0    0    0  0.00000000000E+00  0.00000000000E+00  0.19750318515E+02  0.19750318515E+02  0.00000000000E+00 0. -1.
         22   -1    0    0    0    0 -0.00000000000E+00 -0.00000000000E+00 -0.71268571327E+00  0.71268571327E+00  0.00000000000E+00 0.  1.
          4    1    1    2  501    0  0.16654000955E+01  0.11696554947E+01  0.92337892638E+00  0.22347886021E+01  0.00000000000E+00 0.  1.
         -4    1    1    2    0  501 -0.16654000955E+01 -0.11696554947E+01  0.18114253875E+02  0.18228215626E+02  0.00000000000E+00 0. -1.
<mgrwt>
<rscale>  0 0.20351048E+01</rscale>
<asrwt>0</asrwt>
<pdfrwt beam="1">0</pdfrwt>
<pdfrwt beam="2">0</pdfrwt>
<totfact> 0.10118454E+12</totfact>
</mgrwt>
</event>
<event>
 4    2  0.2093759E+006  0.3298030E+01  0.7546771E-02  0.2435637E+00
         22   -1    0    0    0    0  0.00000000000E+00  0.00000000000E+00  0.78959889394E+01  0.78959889394E+01  0.00000000000E+00 0. -1.
         22   -1    0    0    0    0 -0.00000000000E+00 -0.00000000000E+00 -0.14175797583E+01  0.14175797583E+01  0.00000000000E+00 0.  1.
          4    1    1    2  501    0  0.31457759107E+01  0.99050299697E+00  0.24565242452E+01  0.41123610779E+01  0.00000000000E+00 0. -1.
         -4    1    1    2    0  501 -0.31457759107E+01 -0.99050299697E+00  0.40218849359E+01  0.52012076199E+01  0.00000000000E+00 0.  1.
<mgrwt>
<rscale>  0 0.32980301E+01</rscale>
<asrwt>0</asrwt>
<pdfrwt beam="1">0</pdfrwt>
<pdfrwt beam="2">0</pdfrwt>
<totfact> 0.14145789E+12</totfact>
</mgrwt>
</event>
<event>
 4    2  0.2093759E+006  0.2299210E+01  0.7546771E-02  0.2804266E+00
         22   -1    0    0    0    0  0.00000000000E+00  0.00000000000E+00  0.89926573164E+01  0.89926573164E+01  0.00000000000E+00 0. -1.
         22   -1    0    0    0    0 -0.00000000000E+00 -0.00000000000E+00 -0.58957304593E+00  0.58957304593E+00  0.00000000000E+00 0.  1.
          4    1    1    2  501    0  0.15404256682E+01 -0.17068846425E+01  0.39428067576E+01  0.45642186133E+01  0.00000000000E+00 0.  1.
         -4    1    1    2    0  501 -0.15404256682E+01  0.17068846425E+01  0.44602775129E+01  0.50180117491E+01  0.00000000000E+00 0. -1.
<mgrwt>
<rscale>  0 0.22992100E+01</rscale>
<asrwt>0</asrwt>
<pdfrwt beam="1">0</pdfrwt>
<pdfrwt beam="2">0</pdfrwt>
<totfact> 0.32893670E+12</totfact>
</mgrwt>
</event>
<event>
 4    2  0.2093759E+006  0.3117961E+01  0.7546771E-02  0.2486168E+00
         22   -1    0    0    0    0  0.00000000000E+00  0.00000000000E+00  0.29280547379E+02  0.29280547379E+02  0.00000000000E+00 0.  1.
         22   -1    0    0    0    0 -0.00000000000E+00 -0.00000000000E+00 -0.47405745926E+00  0.47405745926E+00  0.00000000000E+00 0. -1.
          4    1    1    2  501    0  0.27829937371E+01 -0.14059249688E+01  0.62597156798E+01  0.69932624397E+01  0.00000000000E+00 0. -1.
         -4    1    1    2    0  501 -0.27829937371E+01  0.14059249688E+01  0.22546774240E+02  0.22761342398E+02  0.00000000000E+00 0.  1.
<mgrwt>
<rscale>  0 0.31179607E+01</rscale>
<asrwt>0</asrwt>
<pdfrwt beam="1">0</pdfrwt>
<pdfrwt beam="2">0</pdfrwt>
<totfact> 0.97788866E+11</totfact>
</mgrwt>
</event>
<event>
 4    2  0.2093759E+006  0.3085925E+01  0.7546771E-02  0.2495705E+00
         22   -1    0    0    0    0  0.00000000000E+00  0.00000000000E+00  0.80309036827E+00  0.80309036827E+00  0.00000000000E+00 0. -1.
         22   -1    0    0    0    0 -0.00000000000E+00 -0.00000000000E+00 -0.11885703460E+02  0.11885703460E+02  0.00000000000E+00 0.  1.
          4    1    1    2  501    0  0.22262084296E+01  0.21370376487E+01 -0.58483730313E+01  0.66125941201E+01  0.00000000000E+00 0.  1.
         -4    1    1    2    0  501 -0.22262084296E+01 -0.21370376487E+01 -0.52342400606E+01  0.60761997083E+01  0.00000000000E+00 0. -1.
<mgrwt>
<rscale>  0 0.30859251E+01</rscale>
<asrwt>0</asrwt>
<pdfrwt beam="1">0</pdfrwt>
<pdfrwt beam="2">0</pdfrwt>
<totfact> 0.16517177E+12</totfact>
</mgrwt>
</event>
<event>
 4    2  0.2093759E+006  0.2694744E+01  0.7546771E-02  0.2628439E+00
         22   -1    0    0    0    0  0.00000000000E+00  0.00000000000E+00  0.25387842956E+01  0.25387842956E+01  0.00000000000E+00 0. -1.
         22   -1    0    0    0    0 -0.00000000000E+00 -0.00000000000E+00 -0.32313699400E+01  0.32313699400E+01  0.00000000000E+00 0.  1.
          4    1    1    2  501    0 -0.13327641762E+00 -0.26914464887E+01  0.63139614064E+00  0.27677261229E+01  0.00000000000E+00 0. -1.
         -4    1    1    2    0  501  0.13327641762E+00  0.26914464887E+01 -0.13239817851E+01  0.30024281127E+01  0.00000000000E+00 0.  1.
<mgrwt>
<rscale>  0 0.26947443E+01</rscale>
<asrwt>0</asrwt>
<pdfrwt beam="1">0</pdfrwt>
<pdfrwt beam="2">0</pdfrwt>
<totfact> 0.20783026E+12</totfact>
</mgrwt>
</event>
<event>
 4    2  0.2093759E+006  0.2328940E+01  0.7546771E-02  0.2789112E+00
         22   -1    0    0    0    0  0.00000000000E+00  0.00000000000E+00  0.64935756207E+00  0.64935756207E+00  0.00000000000E+00 0.  1.
         22   -1    0    0    0    0 -0.00000000000E+00 -0.00000000000E+00 -0.86238172065E+01  0.86238172065E+01  0.00000000000E+00 0. -1.
          4    1    1    2  501    0  0.22160455364E+01 -0.71631107858E+00 -0.48091701308E+01  0.53434143324E+01  0.00000000000E+00 0. -1.
         -4    1    1    2    0  501 -0.22160455364E+01  0.71631107858E+00 -0.31652895136E+01  0.39297604362E+01  0.00000000000E+00 0.  1.
<mgrwt>
<rscale>  0 0.23289395E+01</rscale>
<asrwt>0</asrwt>
<pdfrwt beam="1">0</pdfrwt>
<pdfrwt beam="2">0</pdfrwt>
<totfact> 0.31011116E+12</totfact>
</mgrwt>
</event>
<event>
 4    2  0.2093759E+006  0.2135383E+01  0.7546771E-02  0.2894974E+00
         22   -1    0    0    0    0  0.00000000000E+00  0.00000000000E+00  0.21278283344E+02  0.21278283344E+02  0.00000000000E+00 0. -1.
         22   -1    0    0    0    0 -0.00000000000E+00 -0.00000000000E+00 -0.28067737769E+00  0.28067737769E+00  0.00000000000E+00 0.  1.
          4    1    1    2  501    0  0.20827820512E+01  0.47103960835E+00  0.52565742896E+01  0.56737494347E+01  0.00000000000E+00 0.  1.
         -4    1    1    2    0  501 -0.20827820512E+01 -0.47103960835E+00  0.15741031677E+02  0.15885211287E+02  0.00000000000E+00 0. -1.
<mgrwt>
<rscale>  0 0.21353827E+01</rscale>
<asrwt>0</asrwt>
<pdfrwt beam="1">0</pdfrwt>
<pdfrwt beam="2">0</pdfrwt>
<totfact> 0.26365519E+12</totfact>
</mgrwt>
</event>
<event>
 4    2  0.2093759E+006  0.3520276E+01  0.7546771E-02  0.2379592E+00
         22   -1    0    0    0    0  0.00000000000E+00  0.00000000000E+00  0.23259581731E+01  0.23259581731E+01  0.00000000000E+00 0. -1.
         22   -1    0    0    0    0 -0.00000000000E+00 -0.00000000000E+00 -0.73849406156E+01  0.73849406156E+01  0.00000000000E+00 0.  1.
          4    1    1    2  501    0  0.32805990141E+01 -0.12767184395E+01 -0.50921063373E+01  0.61904674149E+01  0.00000000000E+00 0.  1.
         -4    1    1    2    0  501 -0.32805990141E+01  0.12767184395E+01  0.33123894762E-01  0.35204313738E+01  0.00000000000E+00 0. -1.
<mgrwt>
<rscale>  0 0.35202755E+01</rscale>
<asrwt>0</asrwt>
<pdfrwt beam="1">0</pdfrwt>
<pdfrwt beam="2">0</pdfrwt>
<totfact> 0.86509190E+11</totfact>
</mgrwt>
</event>
<event>
 4    2  0.2093759E+006  0.2709163E+01  0.7546771E-02  0.2622931E+00
         22   -1    0    0    0    0  0.00000000000E+00  0.00000000000E+00  0.25052861026E+02  0.25052861026E+02  0.00000000000E+00 0. -1.
         22   -1    0    0    0    0 -0.00000000000E+00 -0.00000000000E+00 -0.30580015512E+00  0.30580015512E+00  0.00000000000E+00 0.  1.
          4    1    1    2  501    0 -0.24989584966E+01  0.10463121397E+01  0.14971361866E+02  0.15214507511E+02  0.00000000000E+00 0.  1.
         -4    1    1    2    0  501  0.24989584966E+01 -0.10463121397E+01  0.97756990045E+01  0.10144153670E+02  0.00000000000E+00 0. -1.
<mgrwt>
<rscale>  0 0.27091627E+01</rscale>
<asrwt>0</asrwt>
<pdfrwt beam="1">0</pdfrwt>
<pdfrwt beam="2">0</pdfrwt>
<totfact> 0.19509878E+12</totfact>
</mgrwt>
</event>
<event>
 4    2  0.2093759E+006  0.2470603E+01  0.7546771E-02  0.2721634E+00
         22   -1    0    0    0    0  0.00000000000E+00  0.00000000000E+00  0.55935697945E+01  0.55935697945E+01  0.00000000000E+00 0.  1.
         22   -1    0    0    0    0 -0.00000000000E+00 -0.00000000000E+00 -0.15313985606E+01  0.15313985606E+01  0.00000000000E+00 0. -1.
          4    1    1    2  501    0 -0.12090616899E+00 -0.24676422841E+01  0.12115388284E+00  0.24735713063E+01  0.00000000000E+00 0. -1.
         -4    1    1    2    0  501  0.12090616899E+00  0.24676422841E+01  0.39410173511E+01  0.46513970488E+01  0.00000000000E+00 0.  1.
<mgrwt>
<rscale>  0 0.24706025E+01</rscale>
<asrwt>0</asrwt>
<pdfrwt beam="1">0</pdfrwt>
<pdfrwt beam="2">0</pdfrwt>
<totfact> 0.19535933E+12</totfact>
</mgrwt>
</event>
<event>
 4    2  0.2093759E+006  0.2072003E+01  0.7546771E-02  0.2933762E+00
         22   -1    0    0    0    0  0.00000000000E+00  0.00000000000E+00  0.13907839081E+02  0.13907839081E+02  0.00000000000E+00 0.  1.
         22   -1    0    0    0    0 -0.00000000000E+00 -0.00000000000E+00 -0.50675235212E+00  0.50675235212E+00  0.00000000000E+00 0. -1.
          4    1    1    2  501    0 -0.42750531408E+00 -0.20274204540E+01  0.21946935669E+01  0.30182568385E+01  0.00000000000E+00 0. -1.
         -4    1    1    2    0  501  0.42750531408E+00  0.20274204540E+01  0.11206393162E+02  0.11396334595E+02  0.00000000000E+00 0.  1.
<mgrwt>
<rscale>  0 0.20720025E+01</rscale>
<asrwt>0</asrwt>
<pdfrwt beam="1">0</pdfrwt>
<pdfrwt beam="2">0</pdfrwt>
<totfact> 0.22967937E+12</totfact>
</mgrwt>
</event>
<event>
 4    2  0.2093759E+006  0.2191737E+01  0.7546771E-02  0.2862307E+00
         22   -1    0    0    0    0  0.00000000000E+00  0.00000000000E+00  0.23826692434E+00  0.23826692434E+00  0.00000000000E+00 0. -1.
         22   -1    0    0    0    0 -0.00000000000E+00 -0.00000000000E+00 -0.24745792923E+02  0.24745792923E+02  0.00000000000E+00 0.  1.
          4    1    1    2  501    0  0.83144211419E+00  0.20279093847E+01 -0.17630757683E+02  0.17766466417E+02  0.00000000000E+00 0.  1.
         -4    1    1    2    0  501 -0.83144211419E+00 -0.20279093847E+01 -0.68767683159E+01  0.72175934308E+01  0.00000000000E+00 0. -1.
<mgrwt>
<rscale>  0 0.21917373E+01</rscale>
<asrwt>0</asrwt>
<pdfrwt beam="1">0</pdfrwt>
<pdfrwt beam="2">0</pdfrwt>
<totfact> 0.26201753E+12</totfact>
</mgrwt>
</event>
<event>
 4    2  0.2093759E+006  0.2109176E+01  0.7546771E-02  0.2910738E+00
         22   -1    0    0    0    0  0.00000000000E+00  0.00000000000E+00  0.28313302588E+01  0.28313302588E+01  0.00000000000E+00 0.  1.
         22   -1    0    0    0    0 -0.00000000000E+00 -0.00000000000E+00 -0.18672241238E+01  0.18672241238E+01  0.00000000000E+00 0. -1.
          4    1    1    2  501    0  0.20437683938E+01 -0.52118477281E+00 -0.45333123614E+00  0.21573437428E+01  0.00000000000E+00 0. -1.
         -4    1    1    2    0  501 -0.20437683938E+01  0.52118477281E+00  0.14174373711E+01  0.25412106398E+01  0.00000000000E+00 0.  1.
<mgrwt>
<rscale>  0 0.21091759E+01</rscale>
<asrwt>0</asrwt>
<pdfrwt beam="1">0</pdfrwt>
<pdfrwt beam="2">0</pdfrwt>
<totfact> 0.34631322E+12</totfact>
</mgrwt>
</event>
<event>
 4    2  0.2093759E+006  0.2323190E+01  0.7546771E-02  0.2792014E+00
         22   -1    0    0    0    0  0.00000000000E+00  0.00000000000E+00  0.93867936557E+00  0.93867936557E+00  0.00000000000E+00 0.  1.
         22   -1    0    0    0    0 -0.00000000000E+00 -0.00000000000E+00 -0.57718382664E+01  0.57718382664E+01  0.00000000000E+00 0. -1.
          4    1    1    2  501    0  0.10276842162E+01 -0.20835255864E+01 -0.22092270457E+01  0.32059160714E+01  0.00000000000E+00 0. -1.
         -4    1    1    2    0  501 -0.10276842162E+01  0.20835255864E+01 -0.26239318552E+01  0.35046015605E+01  0.00000000000E+00 0.  1.
<mgrwt>
<rscale>  0 0.23231904E+01</rscale>
<asrwt>0</asrwt>
<pdfrwt beam="1">0</pdfrwt>
<pdfrwt beam="2">0</pdfrwt>
<totfact> 0.32975629E+12</totfact>
</mgrwt>
</event>
<event>
 4    2  0.2093759E+006  0.2337731E+01  0.7546771E-02  0.2784700E+00
         22   -1    0    0    0    0  0.00000000000E+00  0.00000000000E+00  0.20730648610E+01  0.20730648610E+01  0.00000000000E+00 0.  1.
         22   -1    0    0    0    0 -0.00000000000E+00 -0.00000000000E+00 -0.26913724972E+01  0.26913724972E+01  0.00000000000E+00 0. -1.
          4    1    1    2  501    0  0.17452273050E+01 -0.15553679714E+01 -0.65027198937E+00  0.24264874887E+01  0.00000000000E+00 0.  1.
         -4    1    1    2    0  501 -0.17452273050E+01  0.15553679714E+01  0.31964353096E-01  0.23379498695E+01  0.00000000000E+00 0. -1.
<mgrwt>
<rscale>  0 0.23377314E+01</rscale>
<asrwt>0</asrwt>
<pdfrwt beam="1">0</pdfrwt>
<pdfrwt beam="2">0</pdfrwt>
<totfact> 0.32554198E+12</totfact>
</mgrwt>
</event>
<event>
 4    2  0.2093759E+006  0.2548361E+01  0.7546771E-02  0.2687586E+00
         22   -1    0    0    0    0  0.00000000000E+00  0.00000000000E+00  0.22181792368E+02  0.22181792368E+02  0.00000000000E+00 0. -1.
         22   -1    0    0    0    0 -0.00000000000E+00 -0.00000000000E+00 -0.33598351301E+00  0.33598351301E+00  0.00000000000E+00 0.  1.
          4    1    1    2  501    0 -0.19769691246E+01  0.16080221530E+01  0.68850458913E+01  0.73415256650E+01  0.00000000000E+00 0.  1.
         -4    1    1    2    0  501  0.19769691246E+01 -0.16080221530E+01  0.14960762964E+02  0.15176250216E+02  0.00000000000E+00 0. -1.
<mgrwt>
<rscale>  0 0.25483607E+01</rscale>
<asrwt>0</asrwt>
<pdfrwt beam="1">0</pdfrwt>
<pdfrwt beam="2">0</pdfrwt>
<totfact> 0.20457034E+12</totfact>
</mgrwt>
</event>
<event>
 4    2  0.2093759E+006  0.2370961E+01  0.7546771E-02  0.2768305E+00
         22   -1    0    0    0    0  0.00000000000E+00  0.00000000000E+00  0.23480383670E+01  0.23480383670E+01  0.00000000000E+00 0.  1.
         22   -1    0    0    0    0 -0.00000000000E+00 -0.00000000000E+00 -0.27713882363E+01  0.27713882363E+01  0.00000000000E+00 0. -1.
          4    1    1    2  501    0 -0.17090676098E+01  0.16433336045E+01 -0.11561155824E+01  0.26378136156E+01  0.00000000000E+00 0. -1.
         -4    1    1    2    0  501  0.17090676098E+01 -0.16433336045E+01  0.73276571309E+00  0.24816129877E+01  0.00000000000E+00 0.  1.
<mgrwt>
<rscale>  0 0.23709613E+01</rscale>
<asrwt>0</asrwt>
<pdfrwt beam="1">0</pdfrwt>
<pdfrwt beam="2">0</pdfrwt>
<totfact> 0.27229214E+12</totfact>
</mgrwt>
</event>
<event>
 4    2  0.2093759E+006  0.3239041E+01  0.7546771E-02  0.2451643E+00
         22   -1    0    0    0    0  0.00000000000E+00  0.00000000000E+00  0.62565661426E+02  0.62565661426E+02  0.00000000000E+00 0. -1.
         22   -1    0    0    0    0 -0.00000000000E+00 -0.00000000000E+00 -0.25701113687E+00  0.25701113687E+00  0.00000000000E+00 0.  1.
          4    1    1    2  501    0  0.32387397493E+01  0.44194350953E-01  0.12636193071E+02  0.13044721677E+02  0.00000000000E+00 0.  1.
         -4    1    1    2    0  501 -0.32387397493E+01 -0.44194350953E-01  0.49672457217E+02  0.49777950885E+02  0.00000000000E+00 0. -1.
<mgrwt>
<rscale>  0 0.32390413E+01</rscale>
<asrwt>0</asrwt>
<pdfrwt beam="1">0</pdfrwt>
<pdfrwt beam="2">0</pdfrwt>
<totfact> 0.72211950E+11</totfact>
</mgrwt>
</event>
<event>
 4    2  0.2093759E+006  0.2792434E+01  0.7546771E-02  0.2592143E+00
         22   -1    0    0    0    0  0.00000000000E+00  0.00000000000E+00  0.20413360845E+02  0.20413360845E+02  0.00000000000E+00 0. -1.
         22   -1    0    0    0    0 -0.00000000000E+00 -0.00000000000E+00 -0.45707722283E+00  0.45707722283E+00  0.00000000000E+00 0.  1.
          4    1    1    2  501    0  0.18904702000E+01  0.20551904734E+01  0.57486146426E+01  0.63909510848E+01  0.00000000000E+00 0.  1.
         -4    1    1    2    0  501 -0.18904702000E+01 -0.20551904734E+01  0.14207668979E+02  0.14479486983E+02  0.00000000000E+00 0. -1.
<mgrwt>
<rscale>  0 0.27924336E+01</rscale>
<asrwt>0</asrwt>
<pdfrwt beam="1">0</pdfrwt>
<pdfrwt beam="2">0</pdfrwt>
<totfact> 0.16053093E+12</totfact>
</mgrwt>
</event>
<event>
 4    2  0.2093759E+006  0.2702263E+01  0.7546771E-02  0.2625560E+00
         22   -1    0    0    0    0  0.00000000000E+00  0.00000000000E+00  0.49114953955E+01  0.49114953955E+01  0.00000000000E+00 0.  1.
         22   -1    0    0    0    0 -0.00000000000E+00 -0.00000000000E+00 -0.67047575754E+01  0.67047575754E+01  0.00000000000E+00 0. -1.
          4    1    1    2  501    0 -0.25182728161E+01  0.98006597626E+00 -0.60204804978E+01  0.65991221173E+01  0.00000000000E+00 0. -1.
         -4    1    1    2    0  501  0.25182728161E+01 -0.98006597626E+00  0.42272183180E+01  0.50171308536E+01  0.00000000000E+00 0.  1.
<mgrwt>
<rscale>  0 0.27022634E+01</rscale>
<asrwt>0</asrwt>
<pdfrwt beam="1">0</pdfrwt>
<pdfrwt beam="2">0</pdfrwt>
<totfact> 0.40444242E+11</totfact>
</mgrwt>
</event>
<event>
 4    2  0.2093759E+006  0.2016922E+01  0.7546771E-02  0.2969396E+00
         22   -1    0    0    0    0  0.00000000000E+00  0.00000000000E+00  0.92591534719E+00  0.92591534719E+00  0.00000000000E+00 0.  1.
         22   -1    0    0    0    0 -0.00000000000E+00 -0.00000000000E+00 -0.17248890208E+02  0.17248890208E+02  0.00000000000E+00 0. -1.
          4    1    1    2  501    0 -0.11036245204E+01 -0.16881902625E+01 -0.16006659627E+02  0.16133230484E+02  0.00000000000E+00 0. -1.
         -4    1    1    2    0  501  0.11036245204E+01  0.16881902625E+01 -0.31631523429E+00  0.20415750714E+01  0.00000000000E+00 0.  1.
<mgrwt>
<rscale>  0 0.20169218E+01</rscale>
<asrwt>0</asrwt>
<pdfrwt beam="1">0</pdfrwt>
<pdfrwt beam="2">0</pdfrwt>
<totfact> 0.88883200E+11</totfact>
</mgrwt>
</event>
<event>
 4    2  0.2093759E+006  0.2082487E+01  0.7546771E-02  0.2927188E+00
         22   -1    0    0    0    0  0.00000000000E+00  0.00000000000E+00  0.24945488845E+00  0.24945488845E+00  0.00000000000E+00 0.  1.
         22   -1    0    0    0    0 -0.00000000000E+00 -0.00000000000E+00 -0.21554446506E+02  0.21554446506E+02  0.00000000000E+00 0. -1.
          4    1    1    2  501    0 -0.20540026353E+01 -0.34325494529E+00 -0.15447397051E+02  0.15587136570E+02  0.00000000000E+00 0. -1.
         -4    1    1    2    0  501  0.20540026353E+01  0.34325494529E+00 -0.58575945661E+01  0.62167648246E+01  0.00000000000E+00 0.  1.
<mgrwt>
<rscale>  0 0.20824867E+01</rscale>
<asrwt>0</asrwt>
<pdfrwt beam="1">0</pdfrwt>
<pdfrwt beam="2">0</pdfrwt>
<totfact> 0.29604220E+12</totfact>
</mgrwt>
</event>
<event>
 4    2  0.2093759E+006  0.2606064E+01  0.7546771E-02  0.2663540E+00
         22   -1    0    0    0    0  0.00000000000E+00  0.00000000000E+00  0.69615080789E+02  0.69615080789E+02  0.00000000000E+00 0.  1.
         22   -1    0    0    0    0 -0.00000000000E+00 -0.00000000000E+00 -0.98123578888E-01  0.98123578888E-01  0.00000000000E+00 0. -1.
          4    1    1    2  501    0 -0.25868507304E+01 -0.31586670846E+00  0.32114174295E+02  0.32219741761E+02  0.00000000000E+00 0. -1.
         -4    1    1    2    0  501  0.25868507304E+01  0.31586670846E+00  0.37402782915E+02  0.37493462607E+02  0.00000000000E+00 0.  1.
<mgrwt>
<rscale>  0 0.26060638E+01</rscale>
<asrwt>0</asrwt>
<pdfrwt beam="1">0</pdfrwt>
<pdfrwt beam="2">0</pdfrwt>
<totfact> 0.18252267E+12</totfact>
</mgrwt>
</event>
<event>
 4    2  0.2093759E+006  0.2230944E+01  0.7546771E-02  0.2840515E+00
         22   -1    0    0    0    0  0.00000000000E+00  0.00000000000E+00  0.14531479946E+02  0.14531479946E+02  0.00000000000E+00 0. -1.
         22   -1    0    0    0    0 -0.00000000000E+00 -0.00000000000E+00 -0.39433027200E+00  0.39433027200E+00  0.00000000000E+00 0.  1.
          4    1    1    2  501    0 -0.11518840392E+01  0.19105692804E+01  0.97740687264E+01  0.10025444194E+02  0.00000000000E+00 0.  1.
         -4    1    1    2    0  501  0.11518840392E+01 -0.19105692804E+01  0.43630809472E+01  0.49003660238E+01  0.00000000000E+00 0. -1.
<mgrwt>
<rscale>  0 0.22309442E+01</rscale>
<asrwt>0</asrwt>
<pdfrwt beam="1">0</pdfrwt>
<pdfrwt beam="2">0</pdfrwt>
<totfact> 0.28877860E+12</totfact>
</mgrwt>
</event>
<event>
 4    2  0.2093759E+006  0.2348520E+01  0.7546771E-02  0.2779330E+00
         22   -1    0    0    0    0  0.00000000000E+00  0.00000000000E+00  0.10311757093E+00  0.10311757093E+00  0.00000000000E+00 0. -1.
         22   -1    0    0    0    0 -0.00000000000E+00 -0.00000000000E+00 -0.53746100632E+02  0.53746100632E+02  0.00000000000E+00 0.  1.
          4    1    1    2  501    0  0.82092247318E+00 -0.22003709520E+01 -0.28687545951E+02  0.28783516788E+02  0.00000000000E+00 0.  1.
         -4    1    1    2    0  501 -0.82092247318E+00  0.22003709520E+01 -0.24955437110E+02  0.25065701414E+02  0.00000000000E+00 0. -1.
<mgrwt>
<rscale>  0 0.23485200E+01</rscale>
<asrwt>0</asrwt>
<pdfrwt beam="1">0</pdfrwt>
<pdfrwt beam="2">0</pdfrwt>
<totfact> 0.24439042E+12</totfact>
</mgrwt>
</event>
<event>
 4    2  0.2093759E+006  0.2255007E+01  0.7546771E-02  0.2827499E+00
         22   -1    0    0    0    0  0.00000000000E+00  0.00000000000E+00  0.92813207645E-01  0.92813207645E-01  0.00000000000E+00 0. -1.
         22   -1    0    0    0    0 -0.00000000000E+00 -0.00000000000E+00 -0.59725917777E+02  0.59725917777E+02  0.00000000000E+00 0.  1.
          4    1    1    2  501    0  0.19503829835E+01  0.11318400566E+01 -0.38416484370E+02  0.38482610709E+02  0.00000000000E+00 0. -1.
         -4    1    1    2    0  501 -0.19503829835E+01 -0.11318400566E+01 -0.21216620199E+02  0.21336120275E+02  0.00000000000E+00 0.  1.
<mgrwt>
<rscale>  0 0.22550068E+01</rscale>
<asrwt>0</asrwt>
<pdfrwt beam="1">0</pdfrwt>
<pdfrwt beam="2">0</pdfrwt>
<totfact> 0.23858855E+12</totfact>
</mgrwt>
</event>
<event>
 4    2  0.2093759E+006  0.2441344E+01  0.7546771E-02  0.2734968E+00
         22   -1    0    0    0    0  0.00000000000E+00  0.00000000000E+00  0.22673583922E+01  0.22673583922E+01  0.00000000000E+00 0.  1.
         22   -1    0    0    0    0 -0.00000000000E+00 -0.00000000000E+00 -0.28551101476E+01  0.28551101476E+01  0.00000000000E+00 0. -1.
          4    1    1    2  501    0  0.14728028446E+01  0.19470518620E+01 -0.10151580545E+01  0.26439941468E+01  0.00000000000E+00 0. -1.
         -4    1    1    2    0  501 -0.14728028446E+01 -0.19470518620E+01  0.42740629902E+00  0.24784743930E+01  0.00000000000E+00 0.  1.
<mgrwt>
<rscale>  0 0.24413437E+01</rscale>
<asrwt>0</asrwt>
<pdfrwt beam="1">0</pdfrwt>
<pdfrwt beam="2">0</pdfrwt>
<totfact> 0.27390066E+12</totfact>
</mgrwt>
</event>
<event>
 4    2  0.2093759E+006  0.2627494E+01  0.7546771E-02  0.2654858E+00
         22   -1    0    0    0    0  0.00000000000E+00  0.00000000000E+00  0.56899627693E+01  0.56899627693E+01  0.00000000000E+00 0.  1.
         22   -1    0    0    0    0 -0.00000000000E+00 -0.00000000000E+00 -0.16681681666E+01  0.16681681666E+01  0.00000000000E+00 0. -1.
          4    1    1    2  501    0  0.22170702128E+01  0.14100793798E+01  0.89785567574E-01  0.26290275073E+01  0.00000000000E+00 0. -1.
         -4    1    1    2    0  501 -0.22170702128E+01 -0.14100793798E+01  0.39320090351E+01  0.47291034286E+01  0.00000000000E+00 0.  1.
<mgrwt>
<rscale>  0 0.26274939E+01</rscale>
<asrwt>0</asrwt>
<pdfrwt beam="1">0</pdfrwt>
<pdfrwt beam="2">0</pdfrwt>
<totfact> 0.17346838E+12</totfact>
</mgrwt>
</event>
<event>
 4    2  0.2093759E+006  0.2743664E+01  0.7546771E-02  0.2609968E+00
         22   -1    0    0    0    0  0.00000000000E+00  0.00000000000E+00  0.16349471734E+01  0.16349471734E+01  0.00000000000E+00 0.  1.
         22   -1    0    0    0    0 -0.00000000000E+00 -0.00000000000E+00 -0.76043514037E+01  0.76043514037E+01  0.00000000000E+00 0. -1.
          4    1    1    2  501    0  0.27423106752E+01 -0.86168569390E-01 -0.58863615949E+01  0.64943780062E+01  0.00000000000E+00 0.  1.
         -4    1    1    2    0  501 -0.27423106752E+01  0.86168569390E-01 -0.83042635442E-01  0.27449205710E+01  0.00000000000E+00 0. -1.
<mgrwt>
<rscale>  0 0.27436641E+01</rscale>
<asrwt>0</asrwt>
<pdfrwt beam="1">0</pdfrwt>
<pdfrwt beam="2">0</pdfrwt>
<totfact> 0.12558211E+12</totfact>
</mgrwt>
</event>
<event>
 4    2  0.2093759E+006  0.3987191E+01  0.7546771E-02  0.2279750E+00
         22   -1    0    0    0    0  0.00000000000E+00  0.00000000000E+00  0.68378199597E+01  0.68378199597E+01  0.00000000000E+00 0. -1.
         22   -1    0    0    0    0 -0.00000000000E+00 -0.00000000000E+00 -0.31641668184E+01  0.31641668184E+01  0.00000000000E+00 0.  1.
          4    1    1    2  501    0  0.32558803189E+01 -0.23015072753E+01 -0.73866297283E+00  0.40550358046E+01  0.00000000000E+00 0.  1.
         -4    1    1    2    0  501 -0.32558803189E+01  0.23015072753E+01  0.44123161142E+01  0.59469509734E+01  0.00000000000E+00 0. -1.
<mgrwt>
<rscale>  0 0.39871910E+01</rscale>
<asrwt>0</asrwt>
<pdfrwt beam="1">0</pdfrwt>
<pdfrwt beam="2">0</pdfrwt>
<totfact> 0.66267535E+11</totfact>
</mgrwt>
</event>
<event>
 4    2  0.2093759E+006  0.2521215E+01  0.7546771E-02  0.2699251E+00
         22   -1    0    0    0    0  0.00000000000E+00  0.00000000000E+00  0.60843701789E+01  0.60843701789E+01  0.00000000000E+00 0. -1.
         22   -1    0    0    0    0 -0.00000000000E+00 -0.00000000000E+00 -0.10475407590E+01  0.10475407590E+01  0.00000000000E+00 0.  1.
          4    1    1    2  501    0  0.23364797927E+01  0.94730425073E+00  0.23336948550E+01  0.34354992128E+01  0.00000000000E+00 0. -1.
         -4    1    1    2    0  501 -0.23364797927E+01 -0.94730425073E+00  0.27031345649E+01  0.36964117250E+01  0.00000000000E+00 0.  1.
<mgrwt>
<rscale>  0 0.25212146E+01</rscale>
<asrwt>0</asrwt>
<pdfrwt beam="1">0</pdfrwt>
<pdfrwt beam="2">0</pdfrwt>
<totfact> 0.27323711E+12</totfact>
</mgrwt>
</event>
<event>
 4    2  0.2093759E+006  0.2082282E+01  0.7546771E-02  0.2927316E+00
         22   -1    0    0    0    0  0.00000000000E+00  0.00000000000E+00  0.95999740286E+02  0.95999740286E+02  0.00000000000E+00 0.  1.
         22   -1    0    0    0    0 -0.00000000000E+00 -0.00000000000E+00 -0.45896827652E-01  0.45896827652E-01  0.00000000000E+00 0. -1.
          4    1    1    2  501    0  0.18987804290E+01  0.85471067611E+00  0.41915887067E+02  0.41967576604E+02  0.00000000000E+00 0. -1.
         -4    1    1    2    0  501 -0.18987804290E+01 -0.85471067611E+00  0.54037956391E+02  0.54078060509E+02  0.00000000000E+00 0.  1.
<mgrwt>
<rscale>  0 0.20822818E+01</rscale>
<asrwt>0</asrwt>
<pdfrwt beam="1">0</pdfrwt>
<pdfrwt beam="2">0</pdfrwt>
<totfact> 0.27092091E+12</totfact>
</mgrwt>
</event>
<event>
 4    2  0.2093759E+006  0.2041375E+01  0.7546771E-02  0.2953345E+00
         22   -1    0    0    0    0  0.00000000000E+00  0.00000000000E+00  0.14011125624E+02  0.14011125624E+02  0.00000000000E+00 0. -1.
         22   -1    0    0    0    0 -0.00000000000E+00 -0.00000000000E+00 -0.53922574026E+00  0.53922574026E+00  0.00000000000E+00 0.  1.
          4    1    1    2  501    0 -0.14330049565E+01  0.14538594973E+01  0.18641427470E+01  0.27644599517E+01  0.00000000000E+00 0.  1.
         -4    1    1    2    0  501  0.14330049565E+01 -0.14538594973E+01  0.11607757136E+02  0.11785891412E+02  0.00000000000E+00 0. -1.
<mgrwt>
<rscale>  0 0.20413747E+01</rscale>
<asrwt>0</asrwt>
<pdfrwt beam="1">0</pdfrwt>
<pdfrwt beam="2">0</pdfrwt>
<totfact> 0.21217468E+12</totfact>
</mgrwt>
</event>
<event>
 4    2  0.2093759E+006  0.2134771E+01  0.7546771E-02  0.2895337E+00
         22   -1    0    0    0    0  0.00000000000E+00  0.00000000000E+00  0.10082428039E+01  0.10082428039E+01  0.00000000000E+00 0.  1.
         22   -1    0    0    0    0 -0.00000000000E+00 -0.00000000000E+00 -0.56226737458E+01  0.56226737458E+01  0.00000000000E+00 0. -1.
          4    1    1    2  501    0 -0.17318521246E+01  0.12481733784E+01 -0.37754565875E+01  0.43372019791E+01  0.00000000000E+00 0. -1.
         -4    1    1    2    0  501  0.17318521246E+01 -0.12481733784E+01 -0.83897435436E+00  0.22937145705E+01  0.00000000000E+00 0.  1.
<mgrwt>
<rscale>  0 0.21347713E+01</rscale>
<asrwt>0</asrwt>
<pdfrwt beam="1">0</pdfrwt>
<pdfrwt beam="2">0</pdfrwt>
<totfact> 0.31351241E+12</totfact>
</mgrwt>
</event>
<event>
 4    2  0.2093759E+006  0.2402829E+01  0.7546771E-02  0.2752984E+00
         22   -1    0    0    0    0  0.00000000000E+00  0.00000000000E+00  0.16439783989E+02  0.16439783989E+02  0.00000000000E+00 0. -1.
         22   -1    0    0    0    0 -0.00000000000E+00 -0.00000000000E+00 -0.35158189741E+00  0.35158189741E+00  0.00000000000E+00 0.  1.
          4    1    1    2  501    0 -0.22346098622E+01  0.88323608596E+00  0.77659697295E+01  0.81291987957E+01  0.00000000000E+00 0. -1.
         -4    1    1    2    0  501  0.22346098622E+01 -0.88323608596E+00  0.83222323620E+01  0.86621670907E+01  0.00000000000E+00 0.  1.
<mgrwt>
<rscale>  0 0.24028290E+01</rscale>
<asrwt>0</asrwt>
<pdfrwt beam="1">0</pdfrwt>
<pdfrwt beam="2">0</pdfrwt>
<totfact> 0.28221713E+12</totfact>
</mgrwt>
</event>
<event>
 4    2  0.2093759E+006  0.2325660E+01  0.7546771E-02  0.2790766E+00
         22   -1    0    0    0    0  0.00000000000E+00  0.00000000000E+00  0.16040270817E+02  0.16040270817E+02  0.00000000000E+00 0.  1.
         22   -1    0    0    0    0 -0.00000000000E+00 -0.00000000000E+00 -0.51915048340E+00  0.51915048340E+00  0.00000000000E+00 0. -1.
          4    1    1    2  501    0  0.91309149133E+00  0.21389151817E+01  0.28588066801E+01  0.36853045817E+01  0.00000000000E+00 0. -1.
         -4    1    1    2    0  501 -0.91309149133E+00 -0.21389151817E+01  0.12662313654E+02  0.12874116719E+02  0.00000000000E+00 0.  1.
<mgrwt>
<rscale>  0 0.23256600E+01</rscale>
<asrwt>0</asrwt>
<pdfrwt beam="1">0</pdfrwt>
<pdfrwt beam="2">0</pdfrwt>
<totfact> 0.18752610E+12</totfact>
</mgrwt>
</event>
<event>
 4    2  0.2093759E+006  0.2248922E+01  0.7546771E-02  0.2830766E+00
         22   -1    0    0    0    0  0.00000000000E+00  0.00000000000E+00  0.58760154989E+00  0.58760154989E+00  0.00000000000E+00 0. -1.
         22   -1    0    0    0    0 -0.00000000000E+00 -0.00000000000E+00 -0.86316321264E+01  0.86316321264E+01  0.00000000000E+00 0.  1.
          4    1    1    2  501    0 -0.22069945511E+01 -0.43223351592E+00 -0.42668604232E+01  0.48232508365E+01  0.00000000000E+00 0.  1.
         -4    1    1    2    0  501  0.22069945511E+01  0.43223351592E+00 -0.37771701534E+01  0.43959828399E+01  0.00000000000E+00 0. -1.
<mgrwt>
<rscale>  0 0.22489221E+01</rscale>
<asrwt>0</asrwt>
<pdfrwt beam="1">0</pdfrwt>
<pdfrwt beam="2">0</pdfrwt>
<totfact> 0.34690143E+12</totfact>
</mgrwt>
</event>
<event>
 4    2  0.2093759E+006  0.2580250E+01  0.7546771E-02  0.2674174E+00
         22   -1    0    0    0    0  0.00000000000E+00  0.00000000000E+00  0.53417323191E+01  0.53417323191E+01  0.00000000000E+00 0.  1.
         22   -1    0    0    0    0 -0.00000000000E+00 -0.00000000000E+00 -0.12658685205E+01  0.12658685205E+01  0.00000000000E+00 0. -1.
          4    1    1    2  501    0 -0.52111745186E+00 -0.25270783161E+01  0.16277268466E+01  0.30507675921E+01  0.00000000000E+00 0. -1.
         -4    1    1    2    0  501  0.52111745186E+00  0.25270783161E+01  0.24481369520E+01  0.35568332474E+01  0.00000000000E+00 0.  1.
<mgrwt>
<rscale>  0 0.25802496E+01</rscale>
<asrwt>0</asrwt>
<pdfrwt beam="1">0</pdfrwt>
<pdfrwt beam="2">0</pdfrwt>
<totfact> 0.25680680E+12</totfact>
</mgrwt>
</event>
<event>
 4    2  0.2093759E+006  0.2846510E+01  0.7546771E-02  0.2573028E+00
         22   -1    0    0    0    0  0.00000000000E+00  0.00000000000E+00  0.38503319333E+01  0.38503319333E+01  0.00000000000E+00 0.  1.
         22   -1    0    0    0    0 -0.00000000000E+00 -0.00000000000E+00 -0.25417850748E+01  0.25417850748E+01  0.00000000000E+00 0. -1.
          4    1    1    2  501    0 -0.28265833690E+01  0.33622159419E+00 -0.67153223060E+00  0.29246493873E+01  0.00000000000E+00 0. -1.
         -4    1    1    2    0  501  0.28265833690E+01 -0.33622159419E+00  0.19800790890E+01  0.34674676207E+01  0.00000000000E+00 0.  1.
<mgrwt>
<rscale>  0 0.28465099E+01</rscale>
<asrwt>0</asrwt>
<pdfrwt beam="1">0</pdfrwt>
<pdfrwt beam="2">0</pdfrwt>
<totfact> 0.16898263E+12</totfact>
</mgrwt>
</event>
<event>
 4    2  0.2093759E+006  0.2139499E+01  0.7546771E-02  0.2892531E+00
         22   -1    0    0    0    0  0.00000000000E+00  0.00000000000E+00  0.15765487686E+02  0.15765487686E+02  0.00000000000E+00 0. -1.
         22   -1    0    0    0    0 -0.00000000000E+00 -0.00000000000E+00 -0.32732152282E+00  0.32732152282E+00  0.00000000000E+00 0.  1.
          4    1    1    2  501    0  0.21144194855E+01 -0.32662833513E+00  0.50147001117E+01  0.54520338444E+01  0.00000000000E+00 0.  1.
         -4    1    1    2    0  501 -0.21144194855E+01  0.32662833513E+00  0.10423466051E+02  0.10640775364E+02  0.00000000000E+00 0. -1.
<mgrwt>
<rscale>  0 0.21394990E+01</rscale>
<asrwt>0</asrwt>
<pdfrwt beam="1">0</pdfrwt>
<pdfrwt beam="2">0</pdfrwt>
<totfact> 0.32202492E+12</totfact>
</mgrwt>
</event>
<event>
 4    2  0.2093759E+006  0.2121151E+01  0.7546771E-02  0.2903488E+00
         22   -1    0    0    0    0  0.00000000000E+00  0.00000000000E+00  0.60716018729E+00  0.60716018729E+00  0.00000000000E+00 0.  1.
         22   -1    0    0    0    0 -0.00000000000E+00 -0.00000000000E+00 -0.11247123036E+02  0.11247123036E+02  0.00000000000E+00 0. -1.
          4    1    1    2  501    0 -0.10837143415E+01  0.18234159206E+01 -0.87818169691E+01  0.90343561847E+01  0.00000000000E+00 0. -1.
         -4    1    1    2    0  501  0.10837143415E+01 -0.18234159206E+01 -0.18581458800E+01  0.28199270389E+01  0.00000000000E+00 0.  1.
<mgrwt>
<rscale>  0 0.21211512E+01</rscale>
<asrwt>0</asrwt>
<pdfrwt beam="1">0</pdfrwt>
<pdfrwt beam="2">0</pdfrwt>
<totfact> 0.24264425E+12</totfact>
</mgrwt>
</event>
<event>
 4    2  0.2093759E+006  0.3187477E+01  0.7546771E-02  0.2466062E+00
         22   -1    0    0    0    0  0.00000000000E+00  0.00000000000E+00  0.51280053297E+01  0.51280053297E+01  0.00000000000E+00 0.  1.
         22   -1    0    0    0    0 -0.00000000000E+00 -0.00000000000E+00 -0.19904824096E+01  0.19904824096E+01  0.00000000000E+00 0. -1.
          4    1    1    2  501    0  0.27653611209E+01  0.15851766843E+01  0.13267353317E+01  0.34525691723E+01  0.00000000000E+00 0. -1.
         -4    1    1    2    0  501 -0.27653611209E+01 -0.15851766843E+01  0.18107875885E+01  0.36659185670E+01  0.00000000000E+00 0.  1.
<mgrwt>
<rscale>  0 0.31874766E+01</rscale>
<asrwt>0</asrwt>
<pdfrwt beam="1">0</pdfrwt>
<pdfrwt beam="2">0</pdfrwt>
<totfact> 0.16002709E+12</totfact>
</mgrwt>
</event>
<event>
 4    2  0.2093759E+006  0.2393036E+01  0.7546771E-02  0.2757651E+00
         22   -1    0    0    0    0  0.00000000000E+00  0.00000000000E+00  0.38951465392E+01  0.38951465392E+01  0.00000000000E+00 0. -1.
         22   -1    0    0    0    0 -0.00000000000E+00 -0.00000000000E+00 -0.20279786012E+01  0.20279786012E+01  0.00000000000E+00 0.  1.
          4    1    1    2  501    0  0.72788720180E+00 -0.22796494309E+01 -0.61959844762E+00  0.24719473179E+01  0.00000000000E+00 0. -1.
         -4    1    1    2    0  501 -0.72788720180E+00  0.22796494309E+01  0.24867663856E+01  0.34511778225E+01  0.00000000000E+00 0.  1.
<mgrwt>
<rscale>  0 0.23930360E+01</rscale>
<asrwt>0</asrwt>
<pdfrwt beam="1">0</pdfrwt>
<pdfrwt beam="2">0</pdfrwt>
<totfact> 0.21664843E+12</totfact>
</mgrwt>
</event>
<event>
 4    2  0.2093759E+006  0.3230859E+01  0.7546771E-02  0.2453903E+00
         22   -1    0    0    0    0  0.00000000000E+00  0.00000000000E+00  0.55435917877E+01  0.55435917877E+01  0.00000000000E+00 0.  1.
         22   -1    0    0    0    0 -0.00000000000E+00 -0.00000000000E+00 -0.24468899019E+01  0.24468899019E+01  0.00000000000E+00 0. -1.
          4    1    1    2  501    0  0.69595168941E+00 -0.31550116682E+01 -0.36962145717E+00  0.32519328717E+01  0.00000000000E+00 0. -1.
         -4    1    1    2    0  501 -0.69595168941E+00  0.31550116682E+01  0.34663233430E+01  0.47385488178E+01  0.00000000000E+00 0.  1.
<mgrwt>
<rscale>  0 0.32308586E+01</rscale>
<asrwt>0</asrwt>
<pdfrwt beam="1">0</pdfrwt>
<pdfrwt beam="2">0</pdfrwt>
<totfact> 0.11482943E+12</totfact>
</mgrwt>
</event>
<event>
 4    2  0.2093759E+006  0.2104689E+01  0.7546771E-02  0.2913475E+00
         22   -1    0    0    0    0  0.00000000000E+00  0.00000000000E+00  0.30916501747E+01  0.30916501747E+01  0.00000000000E+00 0.  1.
         22   -1    0    0    0    0 -0.00000000000E+00 -0.00000000000E+00 -0.17713330632E+01  0.17713330632E+01  0.00000000000E+00 0. -1.
          4    1    1    2  501    0 -0.11410131822E+01 -0.17685604136E+01 -0.40281650004E+00  0.21428901398E+01  0.00000000000E+00 0. -1.
         -4    1    1    2    0  501  0.11410131822E+01  0.17685604136E+01  0.17231336115E+01  0.27200930980E+01  0.00000000000E+00 0.  1.
<mgrwt>
<rscale>  0 0.21046893E+01</rscale>
<asrwt>0</asrwt>
<pdfrwt beam="1">0</pdfrwt>
<pdfrwt beam="2">0</pdfrwt>
<totfact> 0.33212897E+12</totfact>
</mgrwt>
</event>
<event>
 4    2  0.2093759E+006  0.2074290E+01  0.7546771E-02  0.2932322E+00
         22   -1    0    0    0    0  0.00000000000E+00  0.00000000000E+00  0.21399550210E+01  0.21399550210E+01  0.00000000000E+00 0. -1.
         22   -1    0    0    0    0 -0.00000000000E+00 -0.00000000000E+00 -0.20417352023E+01  0.20417352023E+01  0.00000000000E+00 0.  1.
          4    1    1    2  501    0  0.18667562188E+01  0.90437818992E+00  0.30714002014E+00  0.20969057401E+01  0.00000000000E+00 0. -1.
         -4    1    1    2    0  501 -0.18667562188E+01 -0.90437818992E+00 -0.20892020152E+00  0.20847844832E+01  0.00000000000E+00 0.  1.
<mgrwt>
<rscale>  0 0.20742899E+01</rscale>
<asrwt>0</asrwt>
<pdfrwt beam="1">0</pdfrwt>
<pdfrwt beam="2">0</pdfrwt>
<totfact> 0.43246999E+12</totfact>
</mgrwt>
</event>
<event>
 4    2  0.2093759E+006  0.2635243E+01  0.7546771E-02  0.2651751E+00
         22   -1    0    0    0    0  0.00000000000E+00  0.00000000000E+00  0.23803616211E+01  0.23803616211E+01  0.00000000000E+00 0.  1.
         22   -1    0    0    0    0 -0.00000000000E+00 -0.00000000000E+00 -0.39126719837E+01  0.39126719837E+01  0.00000000000E+00 0. -1.
          4    1    1    2  501    0  0.26180505941E+01 -0.30052376189E+00 -0.23530965568E+01  0.35329261031E+01  0.00000000000E+00 0. -1.
         -4    1    1    2    0  501 -0.26180505941E+01  0.30052376189E+00  0.82078619424E+00  0.27601075017E+01  0.00000000000E+00 0.  1.
<mgrwt>
<rscale>  0 0.26352426E+01</rscale>
<asrwt>0</asrwt>
<pdfrwt beam="1">0</pdfrwt>
<pdfrwt beam="2">0</pdfrwt>
<totfact> 0.17896604E+12</totfact>
</mgrwt>
</event>
<event>
 4    2  0.2093759E+006  0.2856147E+01  0.7546771E-02  0.2569691E+00
         22   -1    0    0    0    0  0.00000000000E+00  0.00000000000E+00  0.49641361323E+01  0.49641361323E+01  0.00000000000E+00 0.  1.
         22   -1    0    0    0    0 -0.00000000000E+00 -0.00000000000E+00 -0.18716387167E+01  0.18716387167E+01  0.00000000000E+00 0. -1.
          4    1    1    2  501    0  0.26067906803E+01 -0.11671409106E+01  0.35244071678E+00  0.28778099338E+01  0.00000000000E+00 0. -1.
         -4    1    1    2    0  501 -0.26067906803E+01  0.11671409106E+01  0.27400566989E+01  0.39579649151E+01  0.00000000000E+00 0.  1.
<mgrwt>
<rscale>  0 0.28561470E+01</rscale>
<asrwt>0</asrwt>
<pdfrwt beam="1">0</pdfrwt>
<pdfrwt beam="2">0</pdfrwt>
<totfact> 0.17857382E+12</totfact>
</mgrwt>
</event>
<event>
 4    2  0.2093759E+006  0.2297544E+01  0.7546771E-02  0.2805127E+00
         22   -1    0    0    0    0  0.00000000000E+00  0.00000000000E+00  0.59941658743E+00  0.59941658743E+00  0.00000000000E+00 0.  1.
         22   -1    0    0    0    0 -0.00000000000E+00 -0.00000000000E+00 -0.14426130254E+02  0.14426130254E+02  0.00000000000E+00 0. -1.
          4    1    1    2  501    0 -0.22858341180E+01  0.23166766158E+00 -0.11602384128E+02  0.11827680456E+02  0.00000000000E+00 0. -1.
         -4    1    1    2    0  501  0.22858341180E+01 -0.23166766158E+00 -0.22243295379E+01  0.31978663846E+01  0.00000000000E+00 0.  1.
<mgrwt>
<rscale>  0 0.22975438E+01</rscale>
<asrwt>0</asrwt>
<pdfrwt beam="1">0</pdfrwt>
<pdfrwt beam="2">0</pdfrwt>
<totfact> 0.18161776E+12</totfact>
</mgrwt>
</event>
<event>
 4    2  0.2093759E+006  0.2353829E+01  0.7546771E-02  0.2776704E+00
         22   -1    0    0    0    0  0.00000000000E+00  0.00000000000E+00  0.50001426925E+01  0.50001426925E+01  0.00000000000E+00 0.  1.
         22   -1    0    0    0    0 -0.00000000000E+00 -0.00000000000E+00 -0.17794171797E+01  0.17794171797E+01  0.00000000000E+00 0. -1.
          4    1    1    2  501    0 -0.88971908770E+00  0.21791991122E+01 -0.47175915018E+00  0.24006385653E+01  0.00000000000E+00 0. -1.
         -4    1    1    2    0  501  0.88971908770E+00 -0.21791991122E+01  0.36924846629E+01  0.43789213069E+01  0.00000000000E+00 0.  1.
<mgrwt>
<rscale>  0 0.23538285E+01</rscale>
<asrwt>0</asrwt>
<pdfrwt beam="1">0</pdfrwt>
<pdfrwt beam="2">0</pdfrwt>
<totfact> 0.18768876E+12</totfact>
</mgrwt>
</event>
<event>
 4    2  0.2093759E+006  0.4923994E+01  0.7546771E-02  0.2132187E+00
         22   -1    0    0    0    0  0.00000000000E+00  0.00000000000E+00  0.61912966634E+01  0.61912966634E+01  0.00000000000E+00 0.  1.
         22   -1    0    0    0    0 -0.00000000000E+00 -0.00000000000E+00 -0.63224872110E+01  0.63224872110E+01  0.00000000000E+00 0. -1.
          4    1    1    2  501    0 -0.48087609282E+01  0.10590259396E+01 -0.39256877632E+01  0.62973599246E+01  0.00000000000E+00 0. -1.
         -4    1    1    2    0  501  0.48087609282E+01 -0.10590259396E+01  0.37944972155E+01  0.62164239498E+01  0.00000000000E+00 0.  1.
<mgrwt>
<rscale>  0 0.49239941E+01</rscale>
<asrwt>0</asrwt>
<pdfrwt beam="1">0</pdfrwt>
<pdfrwt beam="2">0</pdfrwt>
<totfact> 0.32951549E+11</totfact>
</mgrwt>
</event>
<event>
 4    2  0.2093759E+006  0.2331590E+01  0.7546771E-02  0.2787779E+00
         22   -1    0    0    0    0  0.00000000000E+00  0.00000000000E+00  0.20684249137E+01  0.20684249137E+01  0.00000000000E+00 0. -1.
         22   -1    0    0    0    0 -0.00000000000E+00 -0.00000000000E+00 -0.28476181437E+01  0.28476181437E+01  0.00000000000E+00 0.  1.
          4    1    1    2  501    0  0.15569601119E+01 -0.17355647168E+01 -0.10718489576E+01  0.25661585812E+01  0.00000000000E+00 0.  1.
         -4    1    1    2    0  501 -0.15569601119E+01  0.17355647168E+01  0.29265572760E+00  0.23498844761E+01  0.00000000000E+00 0. -1.
<mgrwt>
<rscale>  0 0.23315895E+01</rscale>
<asrwt>0</asrwt>
<pdfrwt beam="1">0</pdfrwt>
<pdfrwt beam="2">0</pdfrwt>
<totfact> 0.30560383E+12</totfact>
</mgrwt>
</event>
<event>
 4    2  0.2093759E+006  0.4368862E+01  0.7546771E-02  0.2211883E+00
         22   -1    0    0    0    0  0.00000000000E+00  0.00000000000E+00  0.89694900766E+01  0.89694900766E+01  0.00000000000E+00 0. -1.
         22   -1    0    0    0    0 -0.00000000000E+00 -0.00000000000E+00 -0.22678983318E+01  0.22678983318E+01  0.00000000000E+00 0.  1.
          4    1    1    2  501    0  0.27442779020E+00  0.43602340159E+01  0.19552270415E+01  0.47864249779E+01  0.00000000000E+00 0.  1.
         -4    1    1    2    0  501 -0.27442779020E+00 -0.43602340159E+01  0.47463647033E+01  0.64509634305E+01  0.00000000000E+00 0. -1.
<mgrwt>
<rscale>  0 0.43688616E+01</rscale>
<asrwt>0</asrwt>
<pdfrwt beam="1">0</pdfrwt>
<pdfrwt beam="2">0</pdfrwt>
<totfact> 0.70521693E+11</totfact>
</mgrwt>
</event>
<event>
 4    2  0.2093759E+006  0.2151400E+01  0.7546771E-02  0.2885521E+00
         22   -1    0    0    0    0  0.00000000000E+00  0.00000000000E+00  0.14581096372E+01  0.14581096372E+01  0.00000000000E+00 0.  1.
         22   -1    0    0    0    0 -0.00000000000E+00 -0.00000000000E+00 -0.54212313848E+01  0.54212313848E+01  0.00000000000E+00 0. -1.
          4    1    1    2  501    0 -0.16424972148E+00  0.21451212078E+01 -0.41959796626E+01  0.47153757322E+01  0.00000000000E+00 0. -1.
         -4    1    1    2    0  501  0.16424972148E+00 -0.21451212078E+01  0.23285791496E+00  0.21639652898E+01  0.00000000000E+00 0.  1.
<mgrwt>
<rscale>  0 0.21514002E+01</rscale>
<asrwt>0</asrwt>
<pdfrwt beam="1">0</pdfrwt>
<pdfrwt beam="2">0</pdfrwt>
<totfact> 0.21451367E+12</totfact>
</mgrwt>
</event>
<event>
 4    2  0.2093759E+006  0.5182876E+01  0.7546771E-02  0.2101787E+00
         22   -1    0    0    0    0  0.00000000000E+00  0.00000000000E+00  0.23106354681E+01  0.23106354681E+01  0.00000000000E+00 0.  1.
         22   -1    0    0    0    0 -0.00000000000E+00 -0.00000000000E+00 -0.14707808955E+02  0.14707808955E+02  0.00000000000E+00 0. -1.
          4    1    1    2  501    0 -0.44280132181E+01  0.26934930375E+01 -0.10094027523E+02  0.11346876110E+02  0.00000000000E+00 0. -1.
         -4    1    1    2    0  501  0.44280132181E+01 -0.26934930375E+01 -0.23031459631E+01  0.56715683130E+01  0.00000000000E+00 0.  1.
<mgrwt>
<rscale>  0 0.51828762E+01</rscale>
<asrwt>0</asrwt>
<pdfrwt beam="1">0</pdfrwt>
<pdfrwt beam="2">0</pdfrwt>
<totfact> 0.37794359E+11</totfact>
</mgrwt>
</event>
<event>
 4    2  0.2093759E+006  0.2344733E+01  0.7546771E-02  0.2781210E+00
         22   -1    0    0    0    0  0.00000000000E+00  0.00000000000E+00  0.95469415991E+00  0.95469415991E+00  0.00000000000E+00 0. -1.
         22   -1    0    0    0    0 -0.00000000000E+00 -0.00000000000E+00 -0.77555601592E+01  0.77555601592E+01  0.00000000000E+00 0.  1.
          4    1    1    2  501    0 -0.23352352911E+01 -0.21082660223E+00 -0.56103246922E+01  0.60805850766E+01  0.00000000000E+00 0.  1.
         -4    1    1    2    0  501  0.23352352911E+01  0.21082660223E+00 -0.11905413070E+01  0.26296692425E+01  0.00000000000E+00 0. -1.
<mgrwt>
<rscale>  0 0.23447328E+01</rscale>
<asrwt>0</asrwt>
<pdfrwt beam="1">0</pdfrwt>
<pdfrwt beam="2">0</pdfrwt>
<totfact> 0.22728053E+12</totfact>
</mgrwt>
</event>
<event>
 4    2  0.2093759E+006  0.2089390E+01  0.7546771E-02  0.2922894E+00
         22   -1    0    0    0    0  0.00000000000E+00  0.00000000000E+00  0.11071096580E+02  0.11071096580E+02  0.00000000000E+00 0. -1.
         22   -1    0    0    0    0 -0.00000000000E+00 -0.00000000000E+00 -0.42915242659E+00  0.42915242659E+00  0.00000000000E+00 0.  1.
          4    1    1    2  501    0 -0.15712553782E+01 -0.13772099392E+01  0.36827768767E+01  0.42341936899E+01  0.00000000000E+00 0.  1.
         -4    1    1    2    0  501  0.15712553782E+01  0.13772099392E+01  0.69591672770E+01  0.72660553170E+01  0.00000000000E+00 0. -1.
<mgrwt>
<rscale>  0 0.20893900E+01</rscale>
<asrwt>0</asrwt>
<pdfrwt beam="1">0</pdfrwt>
<pdfrwt beam="2">0</pdfrwt>
<totfact> 0.36603210E+12</totfact>
</mgrwt>
</event>
<event>
 4    2  0.2093759E+006  0.2881121E+01  0.7546771E-02  0.2561136E+00
         22   -1    0    0    0    0  0.00000000000E+00  0.00000000000E+00  0.14087250241E+00  0.14087250241E+00  0.00000000000E+00 0. -1.
         22   -1    0    0    0    0 -0.00000000000E+00 -0.00000000000E+00 -0.60434731368E+02  0.60434731368E+02  0.00000000000E+00 0.  1.
          4    1    1    2  501    0 -0.11125210358E+01 -0.26576601489E+01 -0.25359228002E+02  0.25522368726E+02  0.00000000000E+00 0. -1.
         -4    1    1    2    0  501  0.11125210358E+01  0.26576601489E+01 -0.34934630864E+02  0.35053235145E+02  0.00000000000E+00 0.  1.
<mgrwt>
<rscale>  0 0.28811214E+01</rscale>
<asrwt>0</asrwt>
<pdfrwt beam="1">0</pdfrwt>
<pdfrwt beam="2">0</pdfrwt>
<totfact> 0.14788652E+12</totfact>
</mgrwt>
</event>
<event>
 4    2  0.2093759E+006  0.2331574E+01  0.7546771E-02  0.2787787E+00
         22   -1    0    0    0    0  0.00000000000E+00  0.00000000000E+00  0.64316740642E+00  0.64316740642E+00  0.00000000000E+00 0.  1.
         22   -1    0    0    0    0 -0.00000000000E+00 -0.00000000000E+00 -0.30080674445E+02  0.30080674445E+02  0.00000000000E+00 0. -1.
          4    1    1    2  501    0 -0.10720665684E+01  0.20704851363E+01 -0.27744835654E+02  0.27842631716E+02  0.00000000000E+00 0. -1.
         -4    1    1    2    0  501  0.10720665684E+01 -0.20704851363E+01 -0.16926713847E+01  0.28812101352E+01  0.00000000000E+00 0.  1.
<mgrwt>
<rscale>  0 0.23315736E+01</rscale>
<asrwt>0</asrwt>
<pdfrwt beam="1">0</pdfrwt>
<pdfrwt beam="2">0</pdfrwt>
<totfact> 0.66913720E+11</totfact>
</mgrwt>
</event>
<event>
 4    2  0.2093759E+006  0.2032529E+01  0.7546771E-02  0.2959108E+00
         22   -1    0    0    0    0  0.00000000000E+00  0.00000000000E+00  0.26577774065E+01  0.26577774065E+01  0.00000000000E+00 0.  1.
         22   -1    0    0    0    0 -0.00000000000E+00 -0.00000000000E+00 -0.19410457764E+02  0.19410457764E+02  0.00000000000E+00 0. -1.
          4    1    1    2  501    0  0.16755572752E+01 -0.11505136877E+01 -0.18959439073E+02  0.19068075516E+02  0.00000000000E+00 0. -1.
         -4    1    1    2    0  501 -0.16755572752E+01  0.11505136877E+01  0.22067587150E+01  0.30001596548E+01  0.00000000000E+00 0.  1.
<mgrwt>
<rscale>  0 0.20325289E+01</rscale>
<asrwt>0</asrwt>
<pdfrwt beam="1">0</pdfrwt>
<pdfrwt beam="2">0</pdfrwt>
<totfact> 0.22782785E+11</totfact>
</mgrwt>
</event>
<event>
 4    2  0.2093759E+006  0.2410028E+01  0.7546771E-02  0.2749575E+00
         22   -1    0    0    0    0  0.00000000000E+00  0.00000000000E+00  0.88356566305E+01  0.88356566305E+01  0.00000000000E+00 0.  1.
         22   -1    0    0    0    0 -0.00000000000E+00 -0.00000000000E+00 -0.15736597781E+01  0.15736597781E+01  0.00000000000E+00 0. -1.
          4    1    1    2  501    0  0.20486291869E+01  0.12693915680E+01 -0.34050368631E+00  0.24339636929E+01  0.00000000000E+00 0. -1.
         -4    1    1    2    0  501 -0.20486291869E+01 -0.12693915680E+01  0.76025005387E+01  0.79753527157E+01  0.00000000000E+00 0.  1.
<mgrwt>
<rscale>  0 0.24100283E+01</rscale>
<asrwt>0</asrwt>
<pdfrwt beam="1">0</pdfrwt>
<pdfrwt beam="2">0</pdfrwt>
<totfact> 0.10956337E+12</totfact>
</mgrwt>
</event>
<event>
 4    2  0.2093759E+006  0.4344445E+01  0.7546771E-02  0.2215921E+00
         22   -1    0    0    0    0  0.00000000000E+00  0.00000000000E+00  0.11049906815E+03  0.11049906815E+03  0.00000000000E+00 0. -1.
         22   -1    0    0    0    0 -0.00000000000E+00 -0.00000000000E+00 -0.19477931484E+00  0.19477931484E+00  0.00000000000E+00 0.  1.
          4    1    1    2  501    0 -0.30903700253E+01  0.30534919463E+01  0.35736051609E+02  0.35999160887E+02  0.00000000000E+00 0.  1.
         -4    1    1    2    0  501  0.30903700253E+01 -0.30534919463E+01  0.74568237222E+02  0.74694686574E+02  0.00000000000E+00 0. -1.
<mgrwt>
<rscale>  0 0.43444447E+01</rscale>
<asrwt>0</asrwt>
<pdfrwt beam="1">0</pdfrwt>
<pdfrwt beam="2">0</pdfrwt>
<totfact> 0.44868724E+11</totfact>
</mgrwt>
</event>
<event>
 4    2  0.2093759E+006  0.2033233E+01  0.7546771E-02  0.2958647E+00
         22   -1    0    0    0    0  0.00000000000E+00  0.00000000000E+00  0.23150838380E+00  0.23150838380E+00  0.00000000000E+00 0. -1.
         22   -1    0    0    0    0 -0.00000000000E+00 -0.00000000000E+00 -0.25540530987E+02  0.25540530987E+02  0.00000000000E+00 0.  1.
          4    1    1    2  501    0 -0.15147099808E+01  0.13563517610E+01 -0.19722328775E+02  0.19826857762E+02  0.00000000000E+00 0.  1.
         -4    1    1    2    0  501  0.15147099808E+01 -0.13563517610E+01 -0.55866938282E+01  0.59451816083E+01  0.00000000000E+00 0. -1.
<mgrwt>
<rscale>  0 0.20332330E+01</rscale>
<asrwt>0</asrwt>
<pdfrwt beam="1">0</pdfrwt>
<pdfrwt beam="2">0</pdfrwt>
<totfact> 0.25998911E+12</totfact>
</mgrwt>
</event>
<event>
 4    2  0.2093759E+006  0.3038748E+01  0.7546771E-02  0.2510075E+00
         22   -1    0    0    0    0  0.00000000000E+00  0.00000000000E+00  0.28388935176E+02  0.28388935176E+02  0.00000000000E+00 0.  1.
         22   -1    0    0    0    0 -0.00000000000E+00 -0.00000000000E+00 -0.50284053034E+00  0.50284053034E+00  0.00000000000E+00 0. -1.
          4    1    1    2  501    0  0.26794088884E+01 -0.14334421388E+01  0.53584877575E+01  0.61601444304E+01  0.00000000000E+00 0. -1.
         -4    1    1    2    0  501 -0.26794088884E+01  0.14334421388E+01  0.22527606888E+02  0.22731631276E+02  0.00000000000E+00 0.  1.
<mgrwt>
<rscale>  0 0.30387478E+01</rscale>
<asrwt>0</asrwt>
<pdfrwt beam="1">0</pdfrwt>
<pdfrwt beam="2">0</pdfrwt>
<totfact> 0.95162730E+11</totfact>
</mgrwt>
</event>
<event>
 4    2  0.2093759E+006  0.3686709E+01  0.7546771E-02  0.2341504E+00
         22   -1    0    0    0    0  0.00000000000E+00  0.00000000000E+00  0.61690337286E+00  0.61690337286E+00  0.00000000000E+00 0.  1.
         22   -1    0    0    0    0 -0.00000000000E+00 -0.00000000000E+00 -0.40881420481E+02  0.40881420481E+02  0.00000000000E+00 0. -1.
          4    1    1    2  501    0 -0.10301281475E+01 -0.35398671369E+01 -0.34221340132E+02  0.34419354204E+02  0.00000000000E+00 0. -1.
         -4    1    1    2    0  501  0.10301281475E+01  0.35398671369E+01 -0.60431769760E+01  0.70789696504E+01  0.00000000000E+00 0.  1.
<mgrwt>
<rscale>  0 0.36867090E+01</rscale>
<asrwt>0</asrwt>
<pdfrwt beam="1">0</pdfrwt>
<pdfrwt beam="2">0</pdfrwt>
<totfact> 0.47271952E+11</totfact>
</mgrwt>
</event>
<event>
 4    2  0.2093759E+006  0.2050499E+01  0.7546771E-02  0.2947451E+00
         22   -1    0    0    0    0  0.00000000000E+00  0.00000000000E+00  0.35636614300E+01  0.35636614300E+01  0.00000000000E+00 0.  1.
         22   -1    0    0    0    0 -0.00000000000E+00 -0.00000000000E+00 -0.21055538333E+01  0.21055538333E+01  0.00000000000E+00 0. -1.
          4    1    1    2  501    0  0.15372347185E+00 -0.20447290437E+01 -0.11504721281E+01  0.23511983935E+01  0.00000000000E+00 0. -1.
         -4    1    1    2    0  501 -0.15372347185E+00  0.20447290437E+01  0.26085797248E+01  0.33180168698E+01  0.00000000000E+00 0.  1.
<mgrwt>
<rscale>  0 0.20504994E+01</rscale>
<asrwt>0</asrwt>
<pdfrwt beam="1">0</pdfrwt>
<pdfrwt beam="2">0</pdfrwt>
<totfact> 0.23025698E+12</totfact>
</mgrwt>
</event>
<event>
 4    2  0.2093759E+006  0.2808902E+01  0.7546771E-02  0.2586251E+00
         22   -1    0    0    0    0  0.00000000000E+00  0.00000000000E+00  0.34662498030E+01  0.34662498030E+01  0.00000000000E+00 0. -1.
         22   -1    0    0    0    0 -0.00000000000E+00 -0.00000000000E+00 -0.24931432931E+01  0.24931432931E+01  0.00000000000E+00 0.  1.
          4    1    1    2  501    0 -0.15825161534E+00  0.28044408976E+01  0.13654862894E+01  0.31232171119E+01  0.00000000000E+00 0. -1.
         -4    1    1    2    0  501  0.15825161534E+00 -0.28044408976E+01 -0.39237977944E+00  0.28361759841E+01  0.00000000000E+00 0.  1.
<mgrwt>
<rscale>  0 0.28089023E+01</rscale>
<asrwt>0</asrwt>
<pdfrwt beam="1">0</pdfrwt>
<pdfrwt beam="2">0</pdfrwt>
<totfact> 0.19551569E+12</totfact>
</mgrwt>
</event>
<event>
 4    2  0.2093759E+006  0.3165353E+01  0.7546771E-02  0.2472375E+00
         22   -1    0    0    0    0  0.00000000000E+00  0.00000000000E+00  0.56320544015E+01  0.56320544015E+01  0.00000000000E+00 0. -1.
         22   -1    0    0    0    0 -0.00000000000E+00 -0.00000000000E+00 -0.11682545698E+02  0.11682545698E+02  0.00000000000E+00 0.  1.
          4    1    1    2  501    0 -0.92504923502E-01  0.31640014863E+01 -0.10996174513E+02  0.11442697081E+02  0.00000000000E+00 0.  1.
         -4    1    1    2    0  501  0.92504923502E-01 -0.31640014863E+01  0.49456832172E+01  0.58719030179E+01  0.00000000000E+00 0. -1.
<mgrwt>
<rscale>  0 0.31653535E+01</rscale>
<asrwt>0</asrwt>
<pdfrwt beam="1">0</pdfrwt>
<pdfrwt beam="2">0</pdfrwt>
<totfact> 0.17602593E+11</totfact>
</mgrwt>
</event>
<event>
 4    2  0.2093759E+006  0.3154218E+01  0.7546771E-02  0.2475583E+00
         22   -1    0    0    0    0  0.00000000000E+00  0.00000000000E+00  0.71474551018E+00  0.71474551018E+00  0.00000000000E+00 0. -1.
         22   -1    0    0    0    0 -0.00000000000E+00 -0.00000000000E+00 -0.13955430958E+02  0.13955430958E+02  0.00000000000E+00 0.  1.
          4    1    1    2  501    0  0.93885487872E+00 -0.30112523516E+01 -0.69911629877E+01  0.76697750377E+01  0.00000000000E+00 0.  1.
         -4    1    1    2    0  501 -0.93885487872E+00  0.30112523516E+01 -0.62495224597E+01  0.70004014301E+01  0.00000000000E+00 0. -1.
<mgrwt>
<rscale>  0 0.31542177E+01</rscale>
<asrwt>0</asrwt>
<pdfrwt beam="1">0</pdfrwt>
<pdfrwt beam="2">0</pdfrwt>
<totfact> 0.15495659E+12</totfact>
</mgrwt>
</event>
<event>
 4    2  0.2093759E+006  0.4349674E+01  0.7546771E-02  0.2215053E+00
         22   -1    0    0    0    0  0.00000000000E+00  0.00000000000E+00  0.39064130476E+01  0.39064130476E+01  0.00000000000E+00 0.  1.
         22   -1    0    0    0    0 -0.00000000000E+00 -0.00000000000E+00 -0.63855701345E+01  0.63855701345E+01  0.00000000000E+00 0. -1.
          4    1    1    2  501    0  0.39792006529E+01 -0.17565945817E+01 -0.37686384367E+01  0.57551974795E+01  0.00000000000E+00 0. -1.
         -4    1    1    2    0  501 -0.39792006529E+01  0.17565945817E+01  0.12894813499E+01  0.45367857027E+01  0.00000000000E+00 0.  1.
<mgrwt>
<rscale>  0 0.43496738E+01</rscale>
<asrwt>0</asrwt>
<pdfrwt beam="1">0</pdfrwt>
<pdfrwt beam="2">0</pdfrwt>
<totfact> 0.56162688E+11</totfact>
</mgrwt>
</event>
<event>
 4    2  0.2093759E+006  0.2011901E+01  0.7546771E-02  0.2972739E+00
         22   -1    0    0    0    0  0.00000000000E+00  0.00000000000E+00  0.96968787380E+00  0.96968787380E+00  0.00000000000E+00 0.  1.
         22   -1    0    0    0    0 -0.00000000000E+00 -0.00000000000E+00 -0.92104391050E+01  0.92104391050E+01  0.00000000000E+00 0. -1.
          4    1    1    2  501    0  0.17132442276E+01  0.10547694516E+01 -0.78842311403E+01  0.81368817770E+01  0.00000000000E+00 0. -1.
         -4    1    1    2    0  501 -0.17132442276E+01 -0.10547694516E+01 -0.35652009093E+00  0.20432452018E+01  0.00000000000E+00 0.  1.
<mgrwt>
<rscale>  0 0.20119007E+01</rscale>
<asrwt>0</asrwt>
<pdfrwt beam="1">0</pdfrwt>
<pdfrwt beam="2">0</pdfrwt>
<totfact> 0.18152132E+12</totfact>
</mgrwt>
</event>
<event>
 4    2  0.2093759E+006  0.3096715E+01  0.7546771E-02  0.2492473E+00
         22   -1    0    0    0    0  0.00000000000E+00  0.00000000000E+00  0.30450430217E+01  0.30450430217E+01  0.00000000000E+00 0. -1.
         22   -1    0    0    0    0 -0.00000000000E+00 -0.00000000000E+00 -0.18562076592E+02  0.18562076592E+02  0.00000000000E+00 0.  1.
          4    1    1    2  501    0  0.30328754980E+01  0.62554901454E+00 -0.17603036761E+02  0.17873347436E+02  0.00000000000E+00 0.  1.
         -4    1    1    2    0  501 -0.30328754980E+01 -0.62554901454E+00  0.20860031914E+01  0.37337721771E+01  0.00000000000E+00 0. -1.
<mgrwt>
<rscale>  0 0.30967153E+01</rscale>
<asrwt>0</asrwt>
<pdfrwt beam="1">0</pdfrwt>
<pdfrwt beam="2">0</pdfrwt>
<totfact> 0.20553348E+11</totfact>
</mgrwt>
</event>
<event>
 4    2  0.2093759E+006  0.2471844E+01  0.7546771E-02  0.2721075E+00
         22   -1    0    0    0    0  0.00000000000E+00  0.00000000000E+00  0.99036558852E+01  0.99036558852E+01  0.00000000000E+00 0. -1.
         22   -1    0    0    0    0 -0.00000000000E+00 -0.00000000000E+00 -0.15153607578E+01  0.15153607578E+01  0.00000000000E+00 0.  1.
          4    1    1    2  501    0 -0.22050827183E+01  0.11169700934E+01 -0.20207172946E+00  0.24800897096E+01  0.00000000000E+00 0.  1.
         -4    1    1    2    0  501  0.22050827183E+01 -0.11169700934E+01  0.85903668569E+01  0.89389269333E+01  0.00000000000E+00 0. -1.
<mgrwt>
<rscale>  0 0.24718438E+01</rscale>
<asrwt>0</asrwt>
<pdfrwt beam="1">0</pdfrwt>
<pdfrwt beam="2">0</pdfrwt>
<totfact> 0.99696447E+11</totfact>
</mgrwt>
</event>
<event>
 4    2  0.2093759E+006  0.1001135E+02  0.7546771E-02  0.1778275E+00
         22   -1    0    0    0    0  0.00000000000E+00  0.00000000000E+00  0.66515355541E+01  0.66515355541E+01  0.00000000000E+00 0.  1.
         22   -1    0    0    0    0 -0.00000000000E+00 -0.00000000000E+00 -0.21804441411E+02  0.21804441411E+02  0.00000000000E+00 0. -1.
          4    1    1    2  501    0 -0.21494310736E+01  0.97778918974E+01 -0.15484643926E+02  0.18439127458E+02  0.00000000000E+00 0. -1.
         -4    1    1    2    0  501  0.21494310736E+01 -0.97778918974E+01  0.33173806935E+00  0.10016849507E+02  0.00000000000E+00 0.  1.
<mgrwt>
<rscale>  0 0.10011355E+02</rscale>
<asrwt>0</asrwt>
<pdfrwt beam="1">0</pdfrwt>
<pdfrwt beam="2">0</pdfrwt>
<totfact> 0.66833170E+10</totfact>
</mgrwt>
</event>
<event>
 4    2  0.2093759E+006  0.5580355E+01  0.7546771E-02  0.2059501E+00
         22   -1    0    0    0    0  0.00000000000E+00  0.00000000000E+00  0.17135959531E+02  0.17135959531E+02  0.00000000000E+00 0. -1.
         22   -1    0    0    0    0 -0.00000000000E+00 -0.00000000000E+00 -0.28106139866E+01  0.28106139866E+01  0.00000000000E+00 0.  1.
          4    1    1    2  501    0  0.33152904044E+01  0.44887871425E+01  0.12335365918E+01  0.57150654414E+01  0.00000000000E+00 0.  1.
         -4    1    1    2    0  501 -0.33152904044E+01 -0.44887871425E+01  0.13091808953E+02  0.14231508077E+02  0.00000000000E+00 0. -1.
<mgrwt>
<rscale>  0 0.55803549E+01</rscale>
<asrwt>0</asrwt>
<pdfrwt beam="1">0</pdfrwt>
<pdfrwt beam="2">0</pdfrwt>
<totfact> 0.24920828E+11</totfact>
</mgrwt>
</event>
<event>
 4    2  0.2093759E+006  0.2278664E+01  0.7546771E-02  0.2814959E+00
         22   -1    0    0    0    0  0.00000000000E+00  0.00000000000E+00  0.81521243036E+01  0.81521243036E+01  0.00000000000E+00 0. -1.
         22   -1    0    0    0    0 -0.00000000000E+00 -0.00000000000E+00 -0.86330212686E+00  0.86330212686E+00  0.00000000000E+00 0.  1.
          4    1    1    2  501    0  0.91293208216E+00 -0.20877888855E+01  0.59526954196E+01  0.63739226679E+01  0.00000000000E+00 0. -1.
         -4    1    1    2    0  501 -0.91293208216E+00  0.20877888855E+01  0.13361267571E+01  0.26415037626E+01  0.00000000000E+00 0.  1.
<mgrwt>
<rscale>  0 0.22786635E+01</rscale>
<asrwt>0</asrwt>
<pdfrwt beam="1">0</pdfrwt>
<pdfrwt beam="2">0</pdfrwt>
<totfact> 0.24008491E+12</totfact>
</mgrwt>
</event>
<event>
 4    2  0.2093759E+006  0.2530642E+01  0.7546771E-02  0.2695173E+00
         22   -1    0    0    0    0  0.00000000000E+00  0.00000000000E+00  0.86831782499E+01  0.86831782499E+01  0.00000000000E+00 0. -1.
         22   -1    0    0    0    0 -0.00000000000E+00 -0.00000000000E+00 -0.82695981663E+00  0.82695981663E+00  0.00000000000E+00 0.  1.
          4    1    1    2  501    0  0.25297347404E+01 -0.67766174102E-01  0.23644467007E+01  0.34633449600E+01  0.00000000000E+00 0.  1.
         -4    1    1    2    0  501 -0.25297347404E+01  0.67766174102E-01  0.54917717325E+01  0.60467931066E+01  0.00000000000E+00 0. -1.
<mgrwt>
<rscale>  0 0.25306422E+01</rscale>
<asrwt>0</asrwt>
<pdfrwt beam="1">0</pdfrwt>
<pdfrwt beam="2">0</pdfrwt>
<totfact> 0.23370061E+12</totfact>
</mgrwt>
</event>
<event>
 4    2  0.2093759E+006  0.2748091E+01  0.7546771E-02  0.2608326E+00
         22   -1    0    0    0    0  0.00000000000E+00  0.00000000000E+00  0.12570452083E+01  0.12570452083E+01  0.00000000000E+00 0.  1.
         22   -1    0    0    0    0 -0.00000000000E+00 -0.00000000000E+00 -0.63603393521E+01  0.63603393521E+01  0.00000000000E+00 0. -1.
          4    1    1    2  501    0 -0.51741789843E+00 -0.26989412304E+01 -0.16548908347E+01  0.32079072184E+01  0.00000000000E+00 0.  1.
         -4    1    1    2    0  501  0.51741789843E+00  0.26989412304E+01 -0.34484033091E+01  0.44094773419E+01  0.00000000000E+00 0. -1.
<mgrwt>
<rscale>  0 0.27480912E+01</rscale>
<asrwt>0</asrwt>
<pdfrwt beam="1">0</pdfrwt>
<pdfrwt beam="2">0</pdfrwt>
<totfact> 0.21034989E+12</totfact>
</mgrwt>
</event>
<event>
 4    2  0.2093759E+006  0.2199634E+01  0.7546771E-02  0.2857858E+00
         22   -1    0    0    0    0  0.00000000000E+00  0.00000000000E+00  0.50141681447E+00  0.50141681447E+00  0.00000000000E+00 0.  1.
         22   -1    0    0    0    0 -0.00000000000E+00 -0.00000000000E+00 -0.10221256585E+02  0.10221256585E+02  0.00000000000E+00 0. -1.
          4    1    1    2  501    0  0.66624774081E+00  0.20963071599E+01 -0.61280114180E+01  0.65108304923E+01  0.00000000000E+00 0.  1.
         -4    1    1    2    0  501 -0.66624774081E+00 -0.20963071599E+01 -0.35918283527E+01  0.42118429073E+01  0.00000000000E+00 0. -1.
<mgrwt>
<rscale>  0 0.21996340E+01</rscale>
<asrwt>0</asrwt>
<pdfrwt beam="1">0</pdfrwt>
<pdfrwt beam="2">0</pdfrwt>
<totfact> 0.33836923E+12</totfact>
</mgrwt>
</event>
<event>
 4    2  0.2093759E+006  0.2216263E+01  0.7546771E-02  0.2848588E+00
         22   -1    0    0    0    0  0.00000000000E+00  0.00000000000E+00  0.30259833421E+00  0.30259833421E+00  0.00000000000E+00 0. -1.
         22   -1    0    0    0    0 -0.00000000000E+00 -0.00000000000E+00 -0.62095556156E+02  0.62095556156E+02  0.00000000000E+00 0.  1.
          4    1    1    2  501    0  0.20606101384E+01  0.81591025297E+00 -0.57709429518E+02  0.57751970347E+02  0.00000000000E+00 0.  1.
         -4    1    1    2    0  501 -0.20606101384E+01 -0.81591025297E+00 -0.40835283039E+01  0.46461841431E+01  0.00000000000E+00 0. -1.
<mgrwt>
<rscale>  0 0.22162635E+01</rscale>
<asrwt>0</asrwt>
<pdfrwt beam="1">0</pdfrwt>
<pdfrwt beam="2">0</pdfrwt>
<totfact> 0.60748251E+11</totfact>
</mgrwt>
</event>
<event>
 4    2  0.2093759E+006  0.3324226E+01  0.7546771E-02  0.2428690E+00
         22   -1    0    0    0    0  0.00000000000E+00  0.00000000000E+00  0.10123859090E+02  0.10123859090E+02  0.00000000000E+00 0.  1.
         22   -1    0    0    0    0 -0.00000000000E+00 -0.00000000000E+00 -0.11064276746E+01  0.11064276746E+01  0.00000000000E+00 0. -1.
          4    1    1    2  501    0 -0.14564764141E+01 -0.29881691443E+01  0.38571115911E+01  0.50919336411E+01  0.00000000000E+00 0. -1.
         -4    1    1    2    0  501  0.14564764141E+01  0.29881691443E+01  0.51603198243E+01  0.61383531235E+01  0.00000000000E+00 0.  1.
<mgrwt>
<rscale>  0 0.33242260E+01</rscale>
<asrwt>0</asrwt>
<pdfrwt beam="1">0</pdfrwt>
<pdfrwt beam="2">0</pdfrwt>
<totfact> 0.13926836E+12</totfact>
</mgrwt>
</event>
<event>
 4    2  0.2093759E+006  0.3693091E+01  0.7546771E-02  0.2340103E+00
         22   -1    0    0    0    0  0.00000000000E+00  0.00000000000E+00  0.39973368532E+00  0.39973368532E+00  0.00000000000E+00 0.  1.
         22   -1    0    0    0    0 -0.00000000000E+00 -0.00000000000E+00 -0.34278986134E+02  0.34278986134E+02  0.00000000000E+00 0. -1.
          4    1    1    2  501    0  0.36739832940E+01 -0.37519047053E+00 -0.18120414630E+02  0.18492926959E+02  0.00000000000E+00 0. -1.
         -4    1    1    2    0  501 -0.36739832940E+01  0.37519047053E+00 -0.15758837819E+02  0.16185792861E+02  0.00000000000E+00 0.  1.
<mgrwt>
<rscale>  0 0.36930910E+01</rscale>
<asrwt>0</asrwt>
<pdfrwt beam="1">0</pdfrwt>
<pdfrwt beam="2">0</pdfrwt>
<totfact> 0.96880516E+11</totfact>
</mgrwt>
</event>
<event>
 4    2  0.2093759E+006  0.2641815E+01  0.7546771E-02  0.2649128E+00
         22   -1    0    0    0    0  0.00000000000E+00  0.00000000000E+00  0.15765931236E+01  0.15765931236E+01  0.00000000000E+00 0.  1.
         22   -1    0    0    0    0 -0.00000000000E+00 -0.00000000000E+00 -0.65741859283E+01  0.65741859283E+01  0.00000000000E+00 0. -1.
          4    1    1    2  501    0  0.18144305583E+01  0.19201631815E+01 -0.48280037896E+01  0.55035266408E+01  0.00000000000E+00 0. -1.
         -4    1    1    2    0  501 -0.18144305583E+01 -0.19201631815E+01 -0.16958901515E+00  0.26472524111E+01  0.00000000000E+00 0.  1.
<mgrwt>
<rscale>  0 0.26418147E+01</rscale>
<asrwt>0</asrwt>
<pdfrwt beam="1">0</pdfrwt>
<pdfrwt beam="2">0</pdfrwt>
<totfact> 0.15586826E+12</totfact>
</mgrwt>
</event>
<event>
 4    2  0.2093759E+006  0.2298430E+01  0.7546771E-02  0.2804669E+00
         22   -1    0    0    0    0  0.00000000000E+00  0.00000000000E+00  0.11139068103E+02  0.11139068103E+02  0.00000000000E+00 0. -1.
         22   -1    0    0    0    0 -0.00000000000E+00 -0.00000000000E+00 -0.91420563534E+00  0.91420563534E+00  0.00000000000E+00 0.  1.
          4    1    1    2  501    0 -0.14773153701E+01 -0.17607728005E+01  0.93168275113E+00  0.24800835281E+01  0.00000000000E+00 0.  1.
         -4    1    1    2    0  501  0.14773153701E+01  0.17607728005E+01  0.92931797170E+01  0.95731902107E+01  0.00000000000E+00 0. -1.
<mgrwt>
<rscale>  0 0.22984302E+01</rscale>
<asrwt>0</asrwt>
<pdfrwt beam="1">0</pdfrwt>
<pdfrwt beam="2">0</pdfrwt>
<totfact> 0.15421175E+12</totfact>
</mgrwt>
</event>
<event>
 4    2  0.2093759E+006  0.2163642E+01  0.7546771E-02  0.2878388E+00
         22   -1    0    0    0    0  0.00000000000E+00  0.00000000000E+00  0.23161997754E+01  0.23161997754E+01  0.00000000000E+00 0. -1.
         22   -1    0    0    0    0 -0.00000000000E+00 -0.00000000000E+00 -0.27443051366E+01  0.27443051366E+01  0.00000000000E+00 0.  1.
          4    1    1    2  501    0  0.72734432857E+00 -0.20377232054E+01 -0.15129319311E+01  0.26401342129E+01  0.00000000000E+00 0.  1.
         -4    1    1    2    0  501 -0.72734432857E+00  0.20377232054E+01  0.10848265699E+01  0.24203706991E+01  0.00000000000E+00 0. -1.
<mgrwt>
<rscale>  0 0.21636418E+01</rscale>
<asrwt>0</asrwt>
<pdfrwt beam="1">0</pdfrwt>
<pdfrwt beam="2">0</pdfrwt>
<totfact> 0.27981994E+12</totfact>
</mgrwt>
</event>
<event>
 4    2  0.2093759E+006  0.3091931E+01  0.7546771E-02  0.2493904E+00
         22   -1    0    0    0    0  0.00000000000E+00  0.00000000000E+00  0.27810221888E+01  0.27810221888E+01  0.00000000000E+00 0. -1.
         22   -1    0    0    0    0 -0.00000000000E+00 -0.00000000000E+00 -0.68470890589E+01  0.68470890589E+01  0.00000000000E+00 0.  1.
          4    1    1    2  501    0 -0.19826702317E+01 -0.23725630348E+01 -0.54300908493E+01  0.62486737180E+01  0.00000000000E+00 0.  1.
         -4    1    1    2    0  501  0.19826702317E+01  0.23725630348E+01  0.13640239792E+01  0.33794375297E+01  0.00000000000E+00 0. -1.
<mgrwt>
<rscale>  0 0.30919309E+01</rscale>
<asrwt>0</asrwt>
<pdfrwt beam="1">0</pdfrwt>
<pdfrwt beam="2">0</pdfrwt>
<totfact> 0.76923736E+11</totfact>
</mgrwt>
</event>
<event>
 4    2  0.2093759E+006  0.2448051E+01  0.7546771E-02  0.2731885E+00
         22   -1    0    0    0    0  0.00000000000E+00  0.00000000000E+00  0.11231794328E+00  0.11231794328E+00  0.00000000000E+00 0. -1.
         22   -1    0    0    0    0 -0.00000000000E+00 -0.00000000000E+00 -0.11055775155E+03  0.11055775155E+03  0.00000000000E+00 0.  1.
          4    1    1    2  501    0 -0.23108750625E+01  0.80796618061E+00 -0.95024846150E+02  0.95056374530E+02  0.00000000000E+00 0.  1.
         -4    1    1    2    0  501  0.23108750625E+01 -0.80796618061E+00 -0.15420587454E+02  0.15613694960E+02  0.00000000000E+00 0. -1.
<mgrwt>
<rscale>  0 0.24480508E+01</rscale>
<asrwt>0</asrwt>
<pdfrwt beam="1">0</pdfrwt>
<pdfrwt beam="2">0</pdfrwt>
<totfact> 0.82677973E+11</totfact>
</mgrwt>
</event>
<event>
 4    2  0.2093759E+006  0.2722610E+01  0.7546771E-02  0.2617843E+00
         22   -1    0    0    0    0  0.00000000000E+00  0.00000000000E+00  0.75991105501E+00  0.75991105501E+00  0.00000000000E+00 0. -1.
         22   -1    0    0    0    0 -0.00000000000E+00 -0.00000000000E+00 -0.13786119424E+02  0.13786119424E+02  0.00000000000E+00 0.  1.
          4    1    1    2  501    0  0.22632923728E+01 -0.15133125703E+01 -0.10446153135E+02  0.10795124947E+02  0.00000000000E+00 0.  1.
         -4    1    1    2    0  501 -0.22632923728E+01  0.15133125703E+01 -0.25800552341E+01  0.37509055322E+01  0.00000000000E+00 0. -1.
<mgrwt>
<rscale>  0 0.27226104E+01</rscale>
<asrwt>0</asrwt>
<pdfrwt beam="1">0</pdfrwt>
<pdfrwt beam="2">0</pdfrwt>
<totfact> 0.14671521E+12</totfact>
</mgrwt>
</event>
<event>
 4    2  0.2093759E+006  0.3974174E+01  0.7546771E-02  0.2282259E+00
         22   -1    0    0    0    0  0.00000000000E+00  0.00000000000E+00  0.62295097687E+00  0.62295097687E+00  0.00000000000E+00 0. -1.
         22   -1    0    0    0    0 -0.00000000000E+00 -0.00000000000E+00 -0.32370689496E+02  0.32370689496E+02  0.00000000000E+00 0.  1.
          4    1    1    2  501    0 -0.35849746188E+01  0.17152297473E+01 -0.23554598682E+02  0.23887510861E+02  0.00000000000E+00 0.  1.
         -4    1    1    2    0  501  0.35849746188E+01 -0.17152297473E+01 -0.81931398374E+01  0.91061296113E+01  0.00000000000E+00 0. -1.
<mgrwt>
<rscale>  0 0.39741736E+01</rscale>
<asrwt>0</asrwt>
<pdfrwt beam="1">0</pdfrwt>
<pdfrwt beam="2">0</pdfrwt>
<totfact> 0.63176338E+11</totfact>
</mgrwt>
</event>
<event>
 4    2  0.2093759E+006  0.2055370E+01  0.7546771E-02  0.2944326E+00
         22   -1    0    0    0    0  0.00000000000E+00  0.00000000000E+00  0.41251547397E+02  0.41251547397E+02  0.00000000000E+00 0.  1.
         22   -1    0    0    0    0 -0.00000000000E+00 -0.00000000000E+00 -0.10781870438E+00  0.10781870438E+00  0.00000000000E+00 0. -1.
          4    1    1    2  501    0  0.80837459109E+00 -0.18897290548E+01  0.15939866498E+02  0.16071835282E+02  0.00000000000E+00 0.  1.
         -4    1    1    2    0  501 -0.80837459109E+00  0.18897290548E+01  0.25203862195E+02  0.25287530819E+02  0.00000000000E+00 0. -1.
<mgrwt>
<rscale>  0 0.20553699E+01</rscale>
<asrwt>0</asrwt>
<pdfrwt beam="1">0</pdfrwt>
<pdfrwt beam="2">0</pdfrwt>
<totfact> 0.32922678E+12</totfact>
</mgrwt>
</event>
<event>
 4    2  0.2093759E+006  0.2221757E+01  0.7546771E-02  0.2845555E+00
         22   -1    0    0    0    0  0.00000000000E+00  0.00000000000E+00  0.94607281232E+01  0.94607281232E+01  0.00000000000E+00 0.  1.
         22   -1    0    0    0    0 -0.00000000000E+00 -0.00000000000E+00 -0.60278339488E+00  0.60278339488E+00  0.00000000000E+00 0. -1.
          4    1    1    2  501    0  0.12954470812E+01 -0.18049983473E+01  0.25841613925E+01  0.34079454626E+01  0.00000000000E+00 0. -1.
         -4    1    1    2    0  501 -0.12954470812E+01  0.18049983473E+01  0.62737833358E+01  0.66555660555E+01  0.00000000000E+00 0.  1.
<mgrwt>
<rscale>  0 0.22217566E+01</rscale>
<asrwt>0</asrwt>
<pdfrwt beam="1">0</pdfrwt>
<pdfrwt beam="2">0</pdfrwt>
<totfact> 0.30171994E+12</totfact>
</mgrwt>
</event>
<event>
 4    2  0.2093759E+006  0.2190993E+01  0.7546771E-02  0.2862728E+00
         22   -1    0    0    0    0  0.00000000000E+00  0.00000000000E+00  0.84204260883E+01  0.84204260883E+01  0.00000000000E+00 0.  1.
         22   -1    0    0    0    0 -0.00000000000E+00 -0.00000000000E+00 -0.82179296266E+00  0.82179296266E+00  0.00000000000E+00 0. -1.
          4    1    1    2  501    0  0.70164058813E+00  0.20756083796E+01  0.12418839370E+01  0.25184767962E+01  0.00000000000E+00 0. -1.
         -4    1    1    2    0  501 -0.70164058813E+00 -0.20756083796E+01  0.63567491887E+01  0.67237422547E+01  0.00000000000E+00 0.  1.
<mgrwt>
<rscale>  0 0.21909928E+01</rscale>
<asrwt>0</asrwt>
<pdfrwt beam="1">0</pdfrwt>
<pdfrwt beam="2">0</pdfrwt>
<totfact> 0.24423498E+12</totfact>
</mgrwt>
</event>
<event>
 4    2  0.2093759E+006  0.2657845E+01  0.7546771E-02  0.2642782E+00
         22   -1    0    0    0    0  0.00000000000E+00  0.00000000000E+00  0.57423929432E+01  0.57423929432E+01  0.00000000000E+00 0. -1.
         22   -1    0    0    0    0 -0.00000000000E+00 -0.00000000000E+00 -0.19031837961E+01  0.19031837961E+01  0.00000000000E+00 0.  1.
          4    1    1    2  501    0  0.25276055457E+01  0.82179793712E+00 -0.35366338733E+00  0.26812719809E+01  0.00000000000E+00 0.  1.
         -4    1    1    2    0  501 -0.25276055457E+01 -0.82179793712E+00  0.41928725344E+01  0.49643047584E+01  0.00000000000E+00 0. -1.
<mgrwt>
<rscale>  0 0.26578453E+01</rscale>
<asrwt>0</asrwt>
<pdfrwt beam="1">0</pdfrwt>
<pdfrwt beam="2">0</pdfrwt>
<totfact> 0.14736460E+12</totfact>
</mgrwt>
</event>
<event>
 4    2  0.2093759E+006  0.2303791E+01  0.7546771E-02  0.2801907E+00
         22   -1    0    0    0    0  0.00000000000E+00  0.00000000000E+00  0.14967221144E+00  0.14967221144E+00  0.00000000000E+00 0.  1.
         22   -1    0    0    0    0 -0.00000000000E+00 -0.00000000000E+00 -0.40709160130E+02  0.40709160130E+02  0.00000000000E+00 0. -1.
          4    1    1    2  501    0 -0.20591860879E+01 -0.10330558930E+01 -0.27615316364E+02  0.27711245907E+02  0.00000000000E+00 0. -1.
         -4    1    1    2    0  501  0.20591860879E+01  0.10330558930E+01 -0.12944171555E+02  0.13147586435E+02  0.00000000000E+00 0.  1.
<mgrwt>
<rscale>  0 0.23037908E+01</rscale>
<asrwt>0</asrwt>
<pdfrwt beam="1">0</pdfrwt>
<pdfrwt beam="2">0</pdfrwt>
<totfact> 0.23275925E+12</totfact>
</mgrwt>
</event>
<event>
 4    2  0.2093759E+006  0.2126653E+01  0.7546771E-02  0.2900183E+00
         22   -1    0    0    0    0  0.00000000000E+00  0.00000000000E+00  0.18929846178E+01  0.18929846178E+01  0.00000000000E+00 0.  1.
         22   -1    0    0    0    0 -0.00000000000E+00 -0.00000000000E+00 -0.29685823184E+01  0.29685823184E+01  0.00000000000E+00 0. -1.
          4    1    1    2  501    0  0.17761643572E+01 -0.11695705454E+01 -0.16117065810E+01  0.26683802555E+01  0.00000000000E+00 0. -1.
         -4    1    1    2    0  501 -0.17761643572E+01  0.11695705454E+01  0.53610888036E+00  0.21931866807E+01  0.00000000000E+00 0.  1.
<mgrwt>
<rscale>  0 0.21266535E+01</rscale>
<asrwt>0</asrwt>
<pdfrwt beam="1">0</pdfrwt>
<pdfrwt beam="2">0</pdfrwt>
<totfact> 0.32254906E+12</totfact>
</mgrwt>
</event>
<event>
 4    2  0.2093759E+006  0.2336917E+01  0.7546771E-02  0.2785108E+00
         22   -1    0    0    0    0  0.00000000000E+00  0.00000000000E+00  0.18735264243E+01  0.18735264243E+01  0.00000000000E+00 0.  1.
         22   -1    0    0    0    0 -0.00000000000E+00 -0.00000000000E+00 -0.11717289033E+02  0.11717289033E+02  0.00000000000E+00 0. -1.
          4    1    1    2  501    0  0.19590948407E+00  0.23286904052E+01 -0.10811697418E+02  0.11061373359E+02  0.00000000000E+00 0. -1.
         -4    1    1    2    0  501 -0.19590948407E+00 -0.23286904052E+01  0.96793480992E+00  0.25294420977E+01  0.00000000000E+00 0.  1.
<mgrwt>
<rscale>  0 0.23369167E+01</rscale>
<asrwt>0</asrwt>
<pdfrwt beam="1">0</pdfrwt>
<pdfrwt beam="2">0</pdfrwt>
<totfact> 0.63638459E+11</totfact>
</mgrwt>
</event>
<event>
 4    2  0.2093759E+006  0.2349389E+01  0.7546771E-02  0.2778899E+00
         22   -1    0    0    0    0  0.00000000000E+00  0.00000000000E+00  0.40608555004E+01  0.40608555004E+01  0.00000000000E+00 0. -1.
         22   -1    0    0    0    0 -0.00000000000E+00 -0.00000000000E+00 -0.14019126780E+01  0.14019126780E+01  0.00000000000E+00 0.  1.
          4    1    1    2  501    0  0.14447564419E+01 -0.18526482355E+01  0.18060786147E+01  0.29633674466E+01  0.00000000000E+00 0. -1.
         -4    1    1    2    0  501 -0.14447564419E+01  0.18526482355E+01  0.85286420772E+00  0.24994007318E+01  0.00000000000E+00 0.  1.
<mgrwt>
<rscale>  0 0.23493886E+01</rscale>
<asrwt>0</asrwt>
<pdfrwt beam="1">0</pdfrwt>
<pdfrwt beam="2">0</pdfrwt>
<totfact> 0.31579080E+12</totfact>
</mgrwt>
</event>
<event>
 4    2  0.2093759E+006  0.2261965E+01  0.7546771E-02  0.2823785E+00
         22   -1    0    0    0    0  0.00000000000E+00  0.00000000000E+00  0.24144293448E+00  0.24144293448E+00  0.00000000000E+00 0. -1.
         22   -1    0    0    0    0 -0.00000000000E+00 -0.00000000000E+00 -0.46718364895E+02  0.46718364895E+02  0.00000000000E+00 0.  1.
          4    1    1    2  501    0 -0.14758208037E+01 -0.17141869775E+01 -0.40594600688E+02  0.40657571117E+02  0.00000000000E+00 0.  1.
         -4    1    1    2    0  501  0.14758208037E+01  0.17141869775E+01 -0.58823212717E+01  0.63022367126E+01  0.00000000000E+00 0. -1.
<mgrwt>
<rscale>  0 0.22619646E+01</rscale>
<asrwt>0</asrwt>
<pdfrwt beam="1">0</pdfrwt>
<pdfrwt beam="2">0</pdfrwt>
<totfact> 0.11410123E+12</totfact>
</mgrwt>
</event>
<event>
 4    2  0.2093759E+006  0.5562423E+01  0.7546771E-02  0.2061306E+00
         22   -1    0    0    0    0  0.00000000000E+00  0.00000000000E+00  0.41496890596E+01  0.41496890596E+01  0.00000000000E+00 0.  1.
         22   -1    0    0    0    0 -0.00000000000E+00 -0.00000000000E+00 -0.85467448958E+01  0.85467448958E+01  0.00000000000E+00 0. -1.
          4    1    1    2  501    0  0.48570827173E+01 -0.27109590084E+01 -0.44662532640E+01  0.71335804114E+01  0.00000000000E+00 0. -1.
         -4    1    1    2    0  501 -0.48570827173E+01  0.27109590084E+01  0.69197427720E-01  0.55628535440E+01  0.00000000000E+00 0.  1.
<mgrwt>
<rscale>  0 0.55624231E+01</rscale>
<asrwt>0</asrwt>
<pdfrwt beam="1">0</pdfrwt>
<pdfrwt beam="2">0</pdfrwt>
<totfact> 0.36886121E+11</totfact>
</mgrwt>
</event>
<event>
 4    2  0.2093759E+006  0.3151162E+01  0.7546771E-02  0.2476467E+00
         22   -1    0    0    0    0  0.00000000000E+00  0.00000000000E+00  0.17938492723E+00  0.17938492723E+00  0.00000000000E+00 0.  1.
         22   -1    0    0    0    0 -0.00000000000E+00 -0.00000000000E+00 -0.64219954111E+02  0.64219954111E+02  0.00000000000E+00 0. -1.
          4    1    1    2  501    0  0.31510375159E+01  0.28054082095E-01 -0.43983791754E+02  0.44096527772E+02  0.00000000000E+00 0.  1.
         -4    1    1    2    0  501 -0.31510375159E+01 -0.28054082095E-01 -0.20056777429E+02  0.20302811266E+02  0.00000000000E+00 0. -1.
<mgrwt>
<rscale>  0 0.31511624E+01</rscale>
<asrwt>0</asrwt>
<pdfrwt beam="1">0</pdfrwt>
<pdfrwt beam="2">0</pdfrwt>
<totfact> 0.10416700E+12</totfact>
</mgrwt>
</event>
<event>
 4    2  0.2093759E+006  0.2667655E+01  0.7546771E-02  0.2638934E+00
         22   -1    0    0    0    0  0.00000000000E+00  0.00000000000E+00  0.98287303040E+00  0.98287303040E+00  0.00000000000E+00 0.  1.
         22   -1    0    0    0    0 -0.00000000000E+00 -0.00000000000E+00 -0.79692565329E+01  0.79692565329E+01  0.00000000000E+00 0. -1.
          4    1    1    2  501    0 -0.26312813662E+01  0.43902427825E+00 -0.48468576849E+01  0.55324870865E+01  0.00000000000E+00 0. -1.
         -4    1    1    2    0  501  0.26312813662E+01 -0.43902427825E+00 -0.21395258176E+01  0.34196424767E+01  0.00000000000E+00 0.  1.
<mgrwt>
<rscale>  0 0.26676551E+01</rscale>
<asrwt>0</asrwt>
<pdfrwt beam="1">0</pdfrwt>
<pdfrwt beam="2">0</pdfrwt>
<totfact> 0.21280471E+12</totfact>
</mgrwt>
</event>
<event>
 4    2  0.2093759E+006  0.2586728E+01  0.7546771E-02  0.2671487E+00
         22   -1    0    0    0    0  0.00000000000E+00  0.00000000000E+00  0.97874559156E+00  0.97874559156E+00  0.00000000000E+00 0. -1.
         22   -1    0    0    0    0 -0.00000000000E+00 -0.00000000000E+00 -0.99416861140E+01  0.99416861140E+01  0.00000000000E+00 0.  1.
          4    1    1    2  501    0  0.25618936533E+01  0.35757589891E+00 -0.75330595328E+01  0.79648066856E+01  0.00000000000E+00 0.  1.
         -4    1    1    2    0  501 -0.25618936533E+01 -0.35757589891E+00 -0.14298809896E+01  0.29556250200E+01  0.00000000000E+00 0. -1.
<mgrwt>
<rscale>  0 0.25867276E+01</rscale>
<asrwt>0</asrwt>
<pdfrwt beam="1">0</pdfrwt>
<pdfrwt beam="2">0</pdfrwt>
<totfact> 0.16377599E+12</totfact>
</mgrwt>
</event>
<event>
 4    2  0.2093759E+006  0.2045744E+01  0.7546771E-02  0.2950516E+00
         22   -1    0    0    0    0  0.00000000000E+00  0.00000000000E+00  0.48265526369E+01  0.48265526369E+01  0.00000000000E+00 0.  1.
         22   -1    0    0    0    0 -0.00000000000E+00 -0.00000000000E+00 -0.10353643192E+01  0.10353643192E+01  0.00000000000E+00 0. -1.
          4    1    1    2  501    0 -0.13849995135E+00  0.20410503501E+01  0.71399968960E+00  0.21667635600E+01  0.00000000000E+00 0.  1.
         -4    1    1    2    0  501  0.13849995135E+00 -0.20410503501E+01  0.30771886280E+01  0.36951533961E+01  0.00000000000E+00 0. -1.
<mgrwt>
<rscale>  0 0.20457441E+01</rscale>
<asrwt>0</asrwt>
<pdfrwt beam="1">0</pdfrwt>
<pdfrwt beam="2">0</pdfrwt>
<totfact> 0.36448043E+12</totfact>
</mgrwt>
</event>
<event>
 4    2  0.2093759E+006  0.2155303E+01  0.7546771E-02  0.2883239E+00
         22   -1    0    0    0    0  0.00000000000E+00  0.00000000000E+00  0.14397731658E+02  0.14397731658E+02  0.00000000000E+00 0.  1.
         22   -1    0    0    0    0 -0.00000000000E+00 -0.00000000000E+00 -0.25256268395E+01  0.25256268395E+01  0.00000000000E+00 0. -1.
          4    1    1    2  501    0  0.60259036345E+00 -0.20693511917E+01 -0.19666860199E+01  0.29177360062E+01  0.00000000000E+00 0. -1.
         -4    1    1    2    0  501 -0.60259036345E+00  0.20693511917E+01  0.13838790839E+02  0.14005622492E+02  0.00000000000E+00 0.  1.
<mgrwt>
<rscale>  0 0.21553026E+01</rscale>
<asrwt>0</asrwt>
<pdfrwt beam="1">0</pdfrwt>
<pdfrwt beam="2">0</pdfrwt>
<totfact> 0.34982669E+11</totfact>
</mgrwt>
</event>
<event>
 4    2  0.2093759E+006  0.2393796E+01  0.7546771E-02  0.2757288E+00
         22   -1    0    0    0    0  0.00000000000E+00  0.00000000000E+00  0.33661265327E+02  0.33661265327E+02  0.00000000000E+00 0. -1.
         22   -1    0    0    0    0 -0.00000000000E+00 -0.00000000000E+00 -0.14239298326E+01  0.14239298326E+01  0.00000000000E+00 0.  1.
          4    1    1    2  501    0 -0.23060848698E+01 -0.64205421985E+00 -0.34193962602E+00  0.24180950675E+01  0.00000000000E+00 0.  1.
         -4    1    1    2    0  501  0.23060848698E+01  0.64205421985E+00  0.32579275121E+02  0.32667100092E+02  0.00000000000E+00 0. -1.
<mgrwt>
<rscale>  0 0.23937964E+01</rscale>
<asrwt>0</asrwt>
<pdfrwt beam="1">0</pdfrwt>
<pdfrwt beam="2">0</pdfrwt>
<totfact> 0.23395994E+11</totfact>
</mgrwt>
</event>
<event>
 4    2  0.2093759E+006  0.2071461E+01  0.7546771E-02  0.2934104E+00
         22   -1    0    0    0    0  0.00000000000E+00  0.00000000000E+00  0.15985748624E+02  0.15985748624E+02  0.00000000000E+00 0.  1.
         22   -1    0    0    0    0 -0.00000000000E+00 -0.00000000000E+00 -0.28318116952E+00  0.28318116952E+00  0.00000000000E+00 0. -1.
          4    1    1    2  501    0  0.19221196171E+01 -0.77227290942E+00  0.59943050573E+01  0.63421323219E+01  0.00000000000E+00 0. -1.
         -4    1    1    2    0  501 -0.19221196171E+01  0.77227290942E+00  0.97082623977E+01  0.99267974721E+01  0.00000000000E+00 0.  1.
<mgrwt>
<rscale>  0 0.20714607E+01</rscale>
<asrwt>0</asrwt>
<pdfrwt beam="1">0</pdfrwt>
<pdfrwt beam="2">0</pdfrwt>
<totfact> 0.37239030E+12</totfact>
</mgrwt>
</event>
<event>
 4    2  0.2093759E+006  0.3608688E+01  0.7546771E-02  0.2358980E+00
         22   -1    0    0    0    0  0.00000000000E+00  0.00000000000E+00  0.15286786483E+01  0.15286786483E+01  0.00000000000E+00 0. -1.
         22   -1    0    0    0    0 -0.00000000000E+00 -0.00000000000E+00 -0.85265186376E+01  0.85265186376E+01  0.00000000000E+00 0.  1.
          4    1    1    2  501    0  0.86566434093E+00  0.35033199649E+01 -0.33484100657E+01  0.49228523739E+01  0.00000000000E+00 0. -1.
         -4    1    1    2    0  501 -0.86566434093E+00 -0.35033199649E+01 -0.36494299236E+01  0.51323449119E+01  0.00000000000E+00 0.  1.
<mgrwt>
<rscale>  0 0.36086875E+01</rscale>
<asrwt>0</asrwt>
<pdfrwt beam="1">0</pdfrwt>
<pdfrwt beam="2">0</pdfrwt>
<totfact> 0.11825438E+12</totfact>
</mgrwt>
</event>
<event>
 4    2  0.2093759E+006  0.2580072E+01  0.7546771E-02  0.2674248E+00
         22   -1    0    0    0    0  0.00000000000E+00  0.00000000000E+00  0.20575816928E+02  0.20575816928E+02  0.00000000000E+00 0. -1.
         22   -1    0    0    0    0 -0.00000000000E+00 -0.00000000000E+00 -0.51385770197E+00  0.51385770197E+00  0.00000000000E+00 0.  1.
          4    1    1    2  501    0 -0.16977525699E+01 -0.19427837857E+01  0.36133273199E+01  0.44399219528E+01  0.00000000000E+00 0.  1.
         -4    1    1    2    0  501  0.16977525699E+01  0.19427837857E+01  0.16448631906E+02  0.16649752677E+02  0.00000000000E+00 0. -1.
<mgrwt>
<rscale>  0 0.25800722E+01</rscale>
<asrwt>0</asrwt>
<pdfrwt beam="1">0</pdfrwt>
<pdfrwt beam="2">0</pdfrwt>
<totfact> 0.13926971E+12</totfact>
</mgrwt>
</event>
<event>
 4    2  0.2093759E+006  0.2060379E+01  0.7546771E-02  0.2941127E+00
         22   -1    0    0    0    0  0.00000000000E+00  0.00000000000E+00  0.25119323924E+01  0.25119323924E+01  0.00000000000E+00 0.  1.
         22   -1    0    0    0    0 -0.00000000000E+00 -0.00000000000E+00 -0.27964268528E+01  0.27964268528E+01  0.00000000000E+00 0. -1.
          4    1    1    2  501    0  0.15167621198E+01 -0.13944870286E+01 -0.18117620237E+01  0.27436550496E+01  0.00000000000E+00 0. -1.
         -4    1    1    2    0  501 -0.15167621198E+01  0.13944870286E+01  0.15272675632E+01  0.25647041955E+01  0.00000000000E+00 0.  1.
<mgrwt>
<rscale>  0 0.20603789E+01</rscale>
<asrwt>0</asrwt>
<pdfrwt beam="1">0</pdfrwt>
<pdfrwt beam="2">0</pdfrwt>
<totfact> 0.24911000E+12</totfact>
</mgrwt>
</event>
<event>
 4    2  0.2093759E+006  0.2087735E+01  0.7546771E-02  0.2923921E+00
         22   -1    0    0    0    0  0.00000000000E+00  0.00000000000E+00  0.30790779264E+00  0.30790779264E+00  0.00000000000E+00 0.  1.
         22   -1    0    0    0    0 -0.00000000000E+00 -0.00000000000E+00 -0.14200862445E+02  0.14200862445E+02  0.00000000000E+00 0. -1.
          4    1    1    2  501    0 -0.12568688278E+01 -0.16670093692E+01 -0.73557392845E+01  0.76462762119E+01  0.00000000000E+00 0. -1.
         -4    1    1    2    0  501  0.12568688278E+01  0.16670093692E+01 -0.65372153674E+01  0.68624940253E+01  0.00000000000E+00 0.  1.
<mgrwt>
<rscale>  0 0.20877355E+01</rscale>
<asrwt>0</asrwt>
<pdfrwt beam="1">0</pdfrwt>
<pdfrwt beam="2">0</pdfrwt>
<totfact> 0.39222398E+12</totfact>
</mgrwt>
</event>
<event>
 4    2  0.2093759E+006  0.2236682E+01  0.7546771E-02  0.2837387E+00
         22   -1    0    0    0    0  0.00000000000E+00  0.00000000000E+00  0.16294283706E+01  0.16294283706E+01  0.00000000000E+00 0.  1.
         22   -1    0    0    0    0 -0.00000000000E+00 -0.00000000000E+00 -0.59375685656E+01  0.59375685656E+01  0.00000000000E+00 0. -1.
          4    1    1    2  501    0 -0.22266147610E+01 -0.21197256569E+00 -0.47832937626E+01  0.52804019621E+01  0.00000000000E+00 0. -1.
         -4    1    1    2    0  501  0.22266147610E+01  0.21197256569E+00  0.47515356753E+00  0.22865949740E+01  0.00000000000E+00 0.  1.
<mgrwt>
<rscale>  0 0.22366818E+01</rscale>
<asrwt>0</asrwt>
<pdfrwt beam="1">0</pdfrwt>
<pdfrwt beam="2">0</pdfrwt>
<totfact> 0.16942059E+12</totfact>
</mgrwt>
</event>
<event>
 4    2  0.2093759E+006  0.2227714E+01  0.7546771E-02  0.2842282E+00
         22   -1    0    0    0    0  0.00000000000E+00  0.00000000000E+00  0.48281240235E+01  0.48281240235E+01  0.00000000000E+00 0. -1.
         22   -1    0    0    0    0 -0.00000000000E+00 -0.00000000000E+00 -0.21337141039E+01  0.21337141039E+01  0.00000000000E+00 0.  1.
          4    1    1    2  501    0 -0.19586950046E+01  0.10612372614E+01 -0.11587408462E+01  0.25110537618E+01  0.00000000000E+00 0.  1.
         -4    1    1    2    0  501  0.19586950046E+01 -0.10612372614E+01  0.38531507658E+01  0.44507843657E+01  0.00000000000E+00 0. -1.
<mgrwt>
<rscale>  0 0.22277142E+01</rscale>
<asrwt>0</asrwt>
<pdfrwt beam="1">0</pdfrwt>
<pdfrwt beam="2">0</pdfrwt>
<totfact> 0.15856132E+12</totfact>
</mgrwt>
</event>
<event>
 4    2  0.2093759E+006  0.4512770E+01  0.7546771E-02  0.2188828E+00
         22   -1    0    0    0    0  0.00000000000E+00  0.00000000000E+00  0.33617263619E+01  0.33617263619E+01  0.00000000000E+00 0.  1.
         22   -1    0    0    0    0 -0.00000000000E+00 -0.00000000000E+00 -0.14156653897E+02  0.14156653897E+02  0.00000000000E+00 0. -1.
          4    1    1    2  501    0  0.36025623093E+01  0.27178372054E+01 -0.12022557273E+02  0.12841611178E+02  0.00000000000E+00 0. -1.
         -4    1    1    2    0  501 -0.36025623093E+01 -0.27178372054E+01  0.12276297373E+01  0.46767690813E+01  0.00000000000E+00 0.  1.
<mgrwt>
<rscale>  0 0.45127701E+01</rscale>
<asrwt>0</asrwt>
<pdfrwt beam="1">0</pdfrwt>
<pdfrwt beam="2">0</pdfrwt>
<totfact> 0.25580820E+11</totfact>
</mgrwt>
</event>
<event>
 4    2  0.2093759E+006  0.2012413E+01  0.7546771E-02  0.2972398E+00
         22   -1    0    0    0    0  0.00000000000E+00  0.00000000000E+00  0.35058239870E+02  0.35058239870E+02  0.00000000000E+00 0. -1.
         22   -1    0    0    0    0 -0.00000000000E+00 -0.00000000000E+00 -0.39306187654E+00  0.39306187654E+00  0.00000000000E+00 0.  1.
          4    1    1    2  501    0 -0.17557690854E+01 -0.98340191276E+00  0.24376494440E+01  0.31610028812E+01  0.00000000000E+00 0.  1.
         -4    1    1    2    0  501  0.17557690854E+01  0.98340191276E+00  0.32227528550E+02  0.32290298866E+02  0.00000000000E+00 0. -1.
<mgrwt>
<rscale>  0 0.20124126E+01</rscale>
<asrwt>0</asrwt>
<pdfrwt beam="1">0</pdfrwt>
<pdfrwt beam="2">0</pdfrwt>
<totfact> 0.95906664E+11</totfact>
</mgrwt>
</event>
<event>
 4    2  0.2093759E+006  0.3646530E+01  0.7546771E-02  0.2350423E+00
         22   -1    0    0    0    0  0.00000000000E+00  0.00000000000E+00  0.59283694133E+01  0.59283694133E+01  0.00000000000E+00 0. -1.
         22   -1    0    0    0    0 -0.00000000000E+00 -0.00000000000E+00 -0.26211699696E+01  0.26211699696E+01  0.00000000000E+00 0.  1.
          4    1    1    2  501    0  0.34866771826E+01 -0.10678304319E+01  0.29833636078E-01  0.36466518414E+01  0.00000000000E+00 0.  1.
         -4    1    1    2    0  501 -0.34866771826E+01  0.10678304319E+01  0.32773658076E+01  0.49028875414E+01  0.00000000000E+00 0. -1.
<mgrwt>
<rscale>  0 0.36465298E+01</rscale>
<asrwt>0</asrwt>
<pdfrwt beam="1">0</pdfrwt>
<pdfrwt beam="2">0</pdfrwt>
<totfact> 0.97868350E+11</totfact>
</mgrwt>
</event>
<event>
 4    2  0.2093759E+006  0.2943735E+01  0.7546771E-02  0.2540265E+00
         22   -1    0    0    0    0  0.00000000000E+00  0.00000000000E+00  0.19221466681E+02  0.19221466681E+02  0.00000000000E+00 0.  1.
         22   -1    0    0    0    0 -0.00000000000E+00 -0.00000000000E+00 -0.66631846282E+00  0.66631846282E+00  0.00000000000E+00 0. -1.
          4    1    1    2  501    0  0.11137354738E+01  0.27249163114E+01  0.36226143977E+01  0.46678593257E+01  0.00000000000E+00 0. -1.
         -4    1    1    2    0  501 -0.11137354738E+01 -0.27249163114E+01  0.14932533820E+02  0.15219925818E+02  0.00000000000E+00 0.  1.
<mgrwt>
<rscale>  0 0.29437350E+01</rscale>
<asrwt>0</asrwt>
<pdfrwt beam="1">0</pdfrwt>
<pdfrwt beam="2">0</pdfrwt>
<totfact> 0.11297986E+12</totfact>
</mgrwt>
</event>
<event>
 4    2  0.2093759E+006  0.2430752E+01  0.7546771E-02  0.2739869E+00
         22   -1    0    0    0    0  0.00000000000E+00  0.00000000000E+00  0.34228711227E+02  0.34228711227E+02  0.00000000000E+00 0.  1.
         22   -1    0    0    0    0 -0.00000000000E+00 -0.00000000000E+00 -0.91643673235E+00  0.91643673235E+00  0.00000000000E+00 0. -1.
          4    1    1    2  501    0 -0.20694461288E+01 -0.12751275300E+01  0.82481713134E+00  0.25668815317E+01  0.00000000000E+00 0. -1.
         -4    1    1    2    0  501  0.20694461288E+01  0.12751275300E+01  0.32487457364E+02  0.32578266428E+02  0.00000000000E+00 0.  1.
<mgrwt>
<rscale>  0 0.24307525E+01</rscale>
<asrwt>0</asrwt>
<pdfrwt beam="1">0</pdfrwt>
<pdfrwt beam="2">0</pdfrwt>
<totfact> 0.37923578E+11</totfact>
</mgrwt>
</event>
<event>
 4    2  0.2093759E+006  0.3691732E+01  0.7546771E-02  0.2340401E+00
         22   -1    0    0    0    0  0.00000000000E+00  0.00000000000E+00  0.12837601239E+02  0.12837601239E+02  0.00000000000E+00 0. -1.
         22   -1    0    0    0    0 -0.00000000000E+00 -0.00000000000E+00 -0.11603407599E+01  0.11603407599E+01  0.00000000000E+00 0.  1.
          4    1    1    2  501    0  0.35431428383E+01 -0.10368348384E+01  0.37973357396E+01  0.52960972776E+01  0.00000000000E+00 0.  1.
         -4    1    1    2    0  501 -0.35431428383E+01  0.10368348384E+01  0.78799247394E+01  0.87018447212E+01  0.00000000000E+00 0. -1.
<mgrwt>
<rscale>  0 0.36917323E+01</rscale>
<asrwt>0</asrwt>
<pdfrwt beam="1">0</pdfrwt>
<pdfrwt beam="2">0</pdfrwt>
<totfact> 0.98785383E+11</totfact>
</mgrwt>
</event>
<event>
 4    2  0.2093759E+006  0.2001620E+01  0.7546771E-02  0.2979636E+00
         22   -1    0    0    0    0  0.00000000000E+00  0.00000000000E+00  0.52868417546E+00  0.52868417546E+00  0.00000000000E+00 0.  1.
         22   -1    0    0    0    0 -0.00000000000E+00 -0.00000000000E+00 -0.81376597236E+01  0.81376597236E+01  0.00000000000E+00 0. -1.
          4    1    1    2  501    0 -0.18440528663E+01  0.77842957811E+00 -0.49406329948E+01  0.53306977002E+01  0.00000000000E+00 0.  1.
         -4    1    1    2    0  501  0.18440528663E+01 -0.77842957811E+00 -0.26683425533E+01  0.33356461988E+01  0.00000000000E+00 0. -1.
<mgrwt>
<rscale>  0 0.20016202E+01</rscale>
<asrwt>0</asrwt>
<pdfrwt beam="1">0</pdfrwt>
<pdfrwt beam="2">0</pdfrwt>
<totfact> 0.41963949E+12</totfact>
</mgrwt>
</event>
<event>
 4    2  0.2093759E+006  0.2378688E+01  0.7546771E-02  0.2764555E+00
         22   -1    0    0    0    0  0.00000000000E+00  0.00000000000E+00  0.24301042065E+02  0.24301042065E+02  0.00000000000E+00 0. -1.
         22   -1    0    0    0    0 -0.00000000000E+00 -0.00000000000E+00 -0.32115247984E+00  0.32115247984E+00  0.00000000000E+00 0.  1.
          4    1    1    2  501    0  0.22734060796E+01 -0.69984424233E+00  0.55339670453E+01  0.60235328856E+01  0.00000000000E+00 0.  1.
         -4    1    1    2    0  501 -0.22734060796E+01  0.69984424233E+00  0.18445922539E+02  0.18598661659E+02  0.00000000000E+00 0. -1.
<mgrwt>
<rscale>  0 0.23786881E+01</rscale>
<asrwt>0</asrwt>
<pdfrwt beam="1">0</pdfrwt>
<pdfrwt beam="2">0</pdfrwt>
<totfact> 0.19189138E+12</totfact>
</mgrwt>
</event>
<event>
 4    2  0.2093759E+006  0.3523544E+01  0.7546771E-02  0.2378814E+00
         22   -1    0    0    0    0  0.00000000000E+00  0.00000000000E+00  0.20476025029E+01  0.20476025029E+01  0.00000000000E+00 0.  1.
         22   -1    0    0    0    0 -0.00000000000E+00 -0.00000000000E+00 -0.94510513254E+01  0.94510513254E+01  0.00000000000E+00 0. -1.
          4    1    1    2  501    0  0.28927244315E+01 -0.20118422331E+01 -0.71438638685E+01  0.79655605440E+01  0.00000000000E+00 0. -1.
         -4    1    1    2    0  501 -0.28927244315E+01  0.20118422331E+01 -0.25958495401E+00  0.35330932843E+01  0.00000000000E+00 0.  1.
<mgrwt>
<rscale>  0 0.35235442E+01</rscale>
<asrwt>0</asrwt>
<pdfrwt beam="1">0</pdfrwt>
<pdfrwt beam="2">0</pdfrwt>
<totfact> 0.74533232E+11</totfact>
</mgrwt>
</event>
<event>
 4    2  0.2093759E+006  0.2094233E+01  0.7546771E-02  0.2919898E+00
         22   -1    0    0    0    0  0.00000000000E+00  0.00000000000E+00  0.10317986164E+02  0.10317986164E+02  0.00000000000E+00 0.  1.
         22   -1    0    0    0    0 -0.00000000000E+00 -0.00000000000E+00 -0.21380852123E+01  0.21380852123E+01  0.00000000000E+00 0. -1.
          4    1    1    2  501    0 -0.14268346587E+00 -0.20893664353E+01 -0.14847287406E+01  0.25671443484E+01  0.00000000000E+00 0. -1.
         -4    1    1    2    0  501  0.14268346587E+00  0.20893664353E+01  0.96646296926E+01  0.98889270281E+01  0.00000000000E+00 0.  1.
<mgrwt>
<rscale>  0 0.20942327E+01</rscale>
<asrwt>0</asrwt>
<pdfrwt beam="1">0</pdfrwt>
<pdfrwt beam="2">0</pdfrwt>
<totfact> 0.63740692E+11</totfact>
</mgrwt>
</event>
<event>
 4    2  0.2093759E+006  0.2074723E+01  0.7546771E-02  0.2932050E+00
         22   -1    0    0    0    0  0.00000000000E+00  0.00000000000E+00  0.25667200477E+01  0.25667200477E+01  0.00000000000E+00 0.  1.
         22   -1    0    0    0    0 -0.00000000000E+00 -0.00000000000E+00 -0.55741182673E+01  0.55741182673E+01  0.00000000000E+00 0. -1.
          4    1    1    2  501    0 -0.19333031041E+00 -0.20656956686E+01 -0.49071616652E+01  0.53277303622E+01  0.00000000000E+00 0. -1.
         -4    1    1    2    0  501  0.19333031041E+00  0.20656956686E+01  0.18997634456E+01  0.28131079527E+01  0.00000000000E+00 0.  1.
<mgrwt>
<rscale>  0 0.20747229E+01</rscale>
<asrwt>0</asrwt>
<pdfrwt beam="1">0</pdfrwt>
<pdfrwt beam="2">0</pdfrwt>
<totfact> 0.10790057E+12</totfact>
</mgrwt>
</event>
<event>
 4    2  0.2093759E+006  0.2450495E+01  0.7546771E-02  0.2730766E+00
         22   -1    0    0    0    0  0.00000000000E+00  0.00000000000E+00  0.59688185771E+01  0.59688185771E+01  0.00000000000E+00 0. -1.
         22   -1    0    0    0    0 -0.00000000000E+00 -0.00000000000E+00 -0.10499256123E+01  0.10499256123E+01  0.00000000000E+00 0.  1.
          4    1    1    2  501    0 -0.19437464013E+01  0.14922379046E+01  0.17420377891E+01  0.30065960312E+01  0.00000000000E+00 0.  1.
         -4    1    1    2    0  501  0.19437464013E+01 -0.14922379046E+01  0.31768551757E+01  0.40121481582E+01  0.00000000000E+00 0. -1.
<mgrwt>
<rscale>  0 0.24504947E+01</rscale>
<asrwt>0</asrwt>
<pdfrwt beam="1">0</pdfrwt>
<pdfrwt beam="2">0</pdfrwt>
<totfact> 0.27881903E+12</totfact>
</mgrwt>
</event>
<event>
 4    2  0.2093759E+006  0.2469641E+01  0.7546771E-02  0.2722068E+00
         22   -1    0    0    0    0  0.00000000000E+00  0.00000000000E+00  0.63134185795E+02  0.63134185795E+02  0.00000000000E+00 0. -1.
         22   -1    0    0    0    0 -0.00000000000E+00 -0.00000000000E+00 -0.20043160176E+00  0.20043160176E+00  0.00000000000E+00 0.  1.
          4    1    1    2  501    0  0.20009207651E+01  0.14475640875E+01  0.86749630933E+01  0.90196513439E+01  0.00000000000E+00 0.  1.
         -4    1    1    2    0  501 -0.20009207651E+01 -0.14475640875E+01  0.54258791100E+02  0.54314966053E+02  0.00000000000E+00 0. -1.
<mgrwt>
<rscale>  0 0.24696408E+01</rscale>
<asrwt>0</asrwt>
<pdfrwt beam="1">0</pdfrwt>
<pdfrwt beam="2">0</pdfrwt>
<totfact> 0.94181277E+11</totfact>
</mgrwt>
</event>
<event>
 4    2  0.2093759E+006  0.3036600E+01  0.7546771E-02  0.2510739E+00
         22   -1    0    0    0    0  0.00000000000E+00  0.00000000000E+00  0.49350708618E+00  0.49350708618E+00  0.00000000000E+00 0.  1.
         22   -1    0    0    0    0 -0.00000000000E+00 -0.00000000000E+00 -0.18691799696E+02  0.18691799696E+02  0.00000000000E+00 0. -1.
          4    1    1    2  501    0 -0.30321905284E+01 -0.16358026333E+00 -0.92885894986E+01  0.97723504223E+01  0.00000000000E+00 0.  1.
         -4    1    1    2    0  501  0.30321905284E+01  0.16358026333E+00 -0.89097031115E+01  0.94129563602E+01  0.00000000000E+00 0. -1.
<mgrwt>
<rscale>  0 0.30365997E+01</rscale>
<asrwt>0</asrwt>
<pdfrwt beam="1">0</pdfrwt>
<pdfrwt beam="2">0</pdfrwt>
<totfact> 0.16430138E+12</totfact>
</mgrwt>
</event>
<event>
 4    2  0.2093759E+006  0.2148171E+01  0.7546771E-02  0.2887416E+00
         22   -1    0    0    0    0  0.00000000000E+00  0.00000000000E+00  0.14310721520E+02  0.14310721520E+02  0.00000000000E+00 0.  1.
         22   -1    0    0    0    0 -0.00000000000E+00 -0.00000000000E+00 -0.33069055257E+00  0.33069055257E+00  0.00000000000E+00 0. -1.
          4    1    1    2  501    0  0.20473471761E+01 -0.65039016516E+00  0.58350956439E+01  0.62179561755E+01  0.00000000000E+00 0.  1.
         -4    1    1    2    0  501 -0.20473471761E+01  0.65039016516E+00  0.81449353232E+01  0.84234558968E+01  0.00000000000E+00 0. -1.
<mgrwt>
<rscale>  0 0.21481708E+01</rscale>
<asrwt>0</asrwt>
<pdfrwt beam="1">0</pdfrwt>
<pdfrwt beam="2">0</pdfrwt>
<totfact> 0.35862772E+12</totfact>
</mgrwt>
</event>
<event>
 4    2  0.2093759E+006  0.2033218E+01  0.7546771E-02  0.2958657E+00
         22   -1    0    0    0    0  0.00000000000E+00  0.00000000000E+00  0.56082113305E+01  0.56082113305E+01  0.00000000000E+00 0.  1.
         22   -1    0    0    0    0 -0.00000000000E+00 -0.00000000000E+00 -0.14060140165E+01  0.14060140165E+01  0.00000000000E+00 0. -1.
          4    1    1    2  501    0  0.12526012049E-01  0.20331793836E+01 -0.31787212019E+00  0.20579159341E+01  0.00000000000E+00 0. -1.
         -4    1    1    2    0  501 -0.12526012049E-01 -0.20331793836E+01  0.45200694342E+01  0.49563094130E+01  0.00000000000E+00 0.  1.
<mgrwt>
<rscale>  0 0.20332180E+01</rscale>
<asrwt>0</asrwt>
<pdfrwt beam="1">0</pdfrwt>
<pdfrwt beam="2">0</pdfrwt>
<totfact> 0.21484138E+12</totfact>
</mgrwt>
</event>
<event>
 4    2  0.2093759E+006  0.2215779E+01  0.7546771E-02  0.2848856E+00
         22   -1    0    0    0    0  0.00000000000E+00  0.00000000000E+00  0.36158227918E+01  0.36158227918E+01  0.00000000000E+00 0.  1.
         22   -1    0    0    0    0 -0.00000000000E+00 -0.00000000000E+00 -0.13729111369E+01  0.13729111369E+01  0.00000000000E+00 0. -1.
          4    1    1    2  501    0  0.15613288953E+01  0.15722368520E+01  0.13828767467E+01  0.26119005982E+01  0.00000000000E+00 0. -1.
         -4    1    1    2    0  501 -0.15613288953E+01 -0.15722368520E+01  0.86003490815E+00  0.23768333306E+01  0.00000000000E+00 0.  1.
<mgrwt>
<rscale>  0 0.22157790E+01</rscale>
<asrwt>0</asrwt>
<pdfrwt beam="1">0</pdfrwt>
<pdfrwt beam="2">0</pdfrwt>
<totfact> 0.37074413E+12</totfact>
</mgrwt>
</event>
<event>
 4    2  0.2093759E+006  0.2166319E+01  0.7546771E-02  0.2876838E+00
         22   -1    0    0    0    0  0.00000000000E+00  0.00000000000E+00  0.44523836408E+01  0.44523836408E+01  0.00000000000E+00 0. -1.
         22   -1    0    0    0    0 -0.00000000000E+00 -0.00000000000E+00 -0.24816112452E+01  0.24816112452E+01  0.00000000000E+00 0.  1.
          4    1    1    2  501    0  0.70317774081E+00  0.20490189859E+01 -0.16441995897E+01  0.27196194643E+01  0.00000000000E+00 0.  1.
         -4    1    1    2    0  501 -0.70317774081E+00 -0.20490189859E+01  0.36149719853E+01  0.42143754216E+01  0.00000000000E+00 0. -1.
<mgrwt>
<rscale>  0 0.21663189E+01</rscale>
<asrwt>0</asrwt>
<pdfrwt beam="1">0</pdfrwt>
<pdfrwt beam="2">0</pdfrwt>
<totfact> 0.14642097E+12</totfact>
</mgrwt>
</event>
<event>
 4    2  0.2093759E+006  0.2162376E+01  0.7546771E-02  0.2879122E+00
         22   -1    0    0    0    0  0.00000000000E+00  0.00000000000E+00  0.89134869764E-01  0.89134869764E-01  0.00000000000E+00 0. -1.
         22   -1    0    0    0    0 -0.00000000000E+00 -0.00000000000E+00 -0.56559800475E+02  0.56559800475E+02  0.00000000000E+00 0.  1.
          4    1    1    2  501    0 -0.13059869307E+01  0.17234464876E+01 -0.20607947445E+02  0.20721085096E+02  0.00000000000E+00 0. -1.
         -4    1    1    2    0  501  0.13059869307E+01 -0.17234464876E+01 -0.35862718160E+02  0.35927850249E+02  0.00000000000E+00 0.  1.
<mgrwt>
<rscale>  0 0.21623759E+01</rscale>
<asrwt>0</asrwt>
<pdfrwt beam="1">0</pdfrwt>
<pdfrwt beam="2">0</pdfrwt>
<totfact> 0.26831036E+12</totfact>
</mgrwt>
</event>
<event>
 4    2  0.2093759E+006  0.2073970E+01  0.7546771E-02  0.2932523E+00
         22   -1    0    0    0    0  0.00000000000E+00  0.00000000000E+00  0.30695576430E+00  0.30695576430E+00  0.00000000000E+00 0. -1.
         22   -1    0    0    0    0 -0.00000000000E+00 -0.00000000000E+00 -0.22916918625E+02  0.22916918625E+02  0.00000000000E+00 0.  1.
          4    1    1    2  501    0 -0.19818771423E+01 -0.61115919520E+00 -0.18542982322E+02  0.18658605146E+02  0.00000000000E+00 0.  1.
         -4    1    1    2    0  501  0.19818771423E+01  0.61115919520E+00 -0.40669805387E+01  0.45652692442E+01  0.00000000000E+00 0. -1.
<mgrwt>
<rscale>  0 0.20739702E+01</rscale>
<asrwt>0</asrwt>
<pdfrwt beam="1">0</pdfrwt>
<pdfrwt beam="2">0</pdfrwt>
<totfact> 0.21731128E+12</totfact>
</mgrwt>
</event>
<event>
 4    2  0.2093759E+006  0.5449983E+01  0.7546771E-02  0.2072836E+00
         22   -1    0    0    0    0  0.00000000000E+00  0.00000000000E+00  0.34981967173E+02  0.34981967173E+02  0.00000000000E+00 0.  1.
         22   -1    0    0    0    0 -0.00000000000E+00 -0.00000000000E+00 -0.44087985845E+01  0.44087985845E+01  0.00000000000E+00 0. -1.
          4    1    1    2  501    0 -0.47763484423E+01 -0.26246535777E+01 -0.24109369251E+01  0.59594402172E+01  0.00000000000E+00 0. -1.
         -4    1    1    2    0  501  0.47763484423E+01  0.26246535777E+01  0.32984105513E+02  0.33431325540E+02  0.00000000000E+00 0.  1.
<mgrwt>
<rscale>  0 0.54499826E+01</rscale>
<asrwt>0</asrwt>
<pdfrwt beam="1">0</pdfrwt>
<pdfrwt beam="2">0</pdfrwt>
<totfact> 0.59772642E+10</totfact>
</mgrwt>
</event>
<event>
 4    2  0.2093759E+006  0.3467353E+01  0.7546771E-02  0.2392366E+00
         22   -1    0    0    0    0  0.00000000000E+00  0.00000000000E+00  0.43937584878E+00  0.43937584878E+00  0.00000000000E+00 0.  1.
         22   -1    0    0    0    0 -0.00000000000E+00 -0.00000000000E+00 -0.30226620166E+02  0.30226620166E+02  0.00000000000E+00 0. -1.
          4    1    1    2  501    0 -0.19859436484E+01  0.28422818160E+01 -0.19613250608E+02  0.19917382797E+02  0.00000000000E+00 0.  1.
         -4    1    1    2    0  501  0.19859436484E+01 -0.28422818160E+01 -0.10173993709E+02  0.10748613217E+02  0.00000000000E+00 0. -1.
<mgrwt>
<rscale>  0 0.34673532E+01</rscale>
<asrwt>0</asrwt>
<pdfrwt beam="1">0</pdfrwt>
<pdfrwt beam="2">0</pdfrwt>
<totfact> 0.10230785E+12</totfact>
</mgrwt>
</event>
<event>
 4    2  0.2093759E+006  0.2234298E+01  0.7546771E-02  0.2838685E+00
         22   -1    0    0    0    0  0.00000000000E+00  0.00000000000E+00  0.45577698604E+00  0.45577698604E+00  0.00000000000E+00 0. -1.
         22   -1    0    0    0    0 -0.00000000000E+00 -0.00000000000E+00 -0.10958249953E+02  0.10958249953E+02  0.00000000000E+00 0.  1.
          4    1    1    2  501    0 -0.10351114905E+01 -0.19800586170E+01 -0.51253485503E+01  0.55911792751E+01  0.00000000000E+00 0.  1.
         -4    1    1    2    0  501  0.10351114905E+01  0.19800586170E+01 -0.53771244165E+01  0.58228476637E+01  0.00000000000E+00 0. -1.
<mgrwt>
<rscale>  0 0.22342981E+01</rscale>
<asrwt>0</asrwt>
<pdfrwt beam="1">0</pdfrwt>
<pdfrwt beam="2">0</pdfrwt>
<totfact> 0.34631787E+12</totfact>
</mgrwt>
</event>
<event>
 4    2  0.2093759E+006  0.3307118E+01  0.7546771E-02  0.2433216E+00
         22   -1    0    0    0    0  0.00000000000E+00  0.00000000000E+00  0.29149958597E+00  0.29149958597E+00  0.00000000000E+00 0. -1.
         22   -1    0    0    0    0 -0.00000000000E+00 -0.00000000000E+00 -0.37792078276E+02  0.37792078276E+02  0.00000000000E+00 0.  1.
          4    1    1    2  501    0 -0.11069891201E+01  0.31163452290E+01 -0.20366290989E+02  0.20633052153E+02  0.00000000000E+00 0.  1.
         -4    1    1    2    0  501  0.11069891201E+01 -0.31163452290E+01 -0.17134287701E+02  0.17450525709E+02  0.00000000000E+00 0. -1.
<mgrwt>
<rscale>  0 0.33071185E+01</rscale>
<asrwt>0</asrwt>
<pdfrwt beam="1">0</pdfrwt>
<pdfrwt beam="2">0</pdfrwt>
<totfact> 0.12180067E+12</totfact>
</mgrwt>
</event>
<event>
 4    2  0.2093759E+006  0.3071547E+01  0.7546771E-02  0.2500043E+00
         22   -1    0    0    0    0  0.00000000000E+00  0.00000000000E+00  0.35025351011E+01  0.35025351011E+01  0.00000000000E+00 0. -1.
         22   -1    0    0    0    0 -0.00000000000E+00 -0.00000000000E+00 -0.64168874180E+01  0.64168874180E+01  0.00000000000E+00 0.  1.
          4    1    1    2  501    0 -0.27316648134E+00  0.30593758917E+01 -0.52351411373E+01  0.60696872655E+01  0.00000000000E+00 0.  1.
         -4    1    1    2    0  501  0.27316648134E+00 -0.30593758917E+01  0.23207888205E+01  0.38497352536E+01  0.00000000000E+00 0. -1.
<mgrwt>
<rscale>  0 0.30715470E+01</rscale>
<asrwt>0</asrwt>
<pdfrwt beam="1">0</pdfrwt>
<pdfrwt beam="2">0</pdfrwt>
<totfact> 0.63470081E+11</totfact>
</mgrwt>
</event>
<event>
 4    2  0.2093759E+006  0.2451701E+01  0.7546771E-02  0.2730214E+00
         22   -1    0    0    0    0  0.00000000000E+00  0.00000000000E+00  0.26474804789E+01  0.26474804789E+01  0.00000000000E+00 0.  1.
         22   -1    0    0    0    0 -0.00000000000E+00 -0.00000000000E+00 -0.34151840273E+01  0.34151840273E+01  0.00000000000E+00 0. -1.
          4    1    1    2  501    0 -0.15990892815E+01  0.18584270146E+01 -0.21388974430E+01  0.32535703113E+01  0.00000000000E+00 0. -1.
         -4    1    1    2    0  501  0.15990892815E+01 -0.18584270146E+01  0.13711938946E+01  0.28090941949E+01  0.00000000000E+00 0.  1.
<mgrwt>
<rscale>  0 0.24517009E+01</rscale>
<asrwt>0</asrwt>
<pdfrwt beam="1">0</pdfrwt>
<pdfrwt beam="2">0</pdfrwt>
<totfact> 0.18550984E+12</totfact>
</mgrwt>
</event>
<event>
 4    2  0.2093759E+006  0.2709156E+01  0.7546771E-02  0.2622934E+00
         22   -1    0    0    0    0  0.00000000000E+00  0.00000000000E+00  0.54876043159E+01  0.54876043159E+01  0.00000000000E+00 0.  1.
         22   -1    0    0    0    0 -0.00000000000E+00 -0.00000000000E+00 -0.21267268907E+01  0.21267268907E+01  0.00000000000E+00 0. -1.
          4    1    1    2  501    0  0.15949370573E+01 -0.21899089563E+01 -0.63884634456E+00  0.27834600959E+01  0.00000000000E+00 0. -1.
         -4    1    1    2    0  501 -0.15949370573E+01  0.21899089563E+01  0.39997237698E+01  0.48308711107E+01  0.00000000000E+00 0.  1.
<mgrwt>
<rscale>  0 0.27091559E+01</rscale>
<asrwt>0</asrwt>
<pdfrwt beam="1">0</pdfrwt>
<pdfrwt beam="2">0</pdfrwt>
<totfact> 0.13676583E+12</totfact>
</mgrwt>
</event>
<event>
 4    2  0.2093759E+006  0.2212671E+01  0.7546771E-02  0.2850580E+00
         22   -1    0    0    0    0  0.00000000000E+00  0.00000000000E+00  0.67462257173E+01  0.67462257173E+01  0.00000000000E+00 0. -1.
         22   -1    0    0    0    0 -0.00000000000E+00 -0.00000000000E+00 -0.74679228100E+00  0.74679228100E+00  0.00000000000E+00 0.  1.
          4    1    1    2  501    0  0.32124554790E+00  0.21892265083E+01  0.23704702249E+01  0.32426903173E+01  0.00000000000E+00 0. -1.
         -4    1    1    2    0  501 -0.32124554790E+00 -0.21892265083E+01  0.36289632114E+01  0.42503276810E+01  0.00000000000E+00 0.  1.
<mgrwt>
<rscale>  0 0.22126707E+01</rscale>
<asrwt>0</asrwt>
<pdfrwt beam="1">0</pdfrwt>
<pdfrwt beam="2">0</pdfrwt>
<totfact> 0.35523287E+12</totfact>
</mgrwt>
</event>
<event>
 4    2  0.2093759E+006  0.2643297E+01  0.7546771E-02  0.2648539E+00
         22   -1    0    0    0    0  0.00000000000E+00  0.00000000000E+00  0.24546252386E+02  0.24546252386E+02  0.00000000000E+00 0.  1.
         22   -1    0    0    0    0 -0.00000000000E+00 -0.00000000000E+00 -0.32640449839E+00  0.32640449839E+00  0.00000000000E+00 0. -1.
          4    1    1    2  501    0 -0.26430600253E+01  0.35367043468E-01  0.76617542449E+01  0.81049056277E+01  0.00000000000E+00 0. -1.
         -4    1    1    2    0  501  0.26430600253E+01 -0.35367043468E-01  0.16558093643E+02  0.16767751257E+02  0.00000000000E+00 0.  1.
<mgrwt>
<rscale>  0 0.26432966E+01</rscale>
<asrwt>0</asrwt>
<pdfrwt beam="1">0</pdfrwt>
<pdfrwt beam="2">0</pdfrwt>
<totfact> 0.18606546E+12</totfact>
</mgrwt>
</event>
<event>
 4    2  0.2093759E+006  0.2574125E+01  0.7546771E-02  0.2676726E+00
         22   -1    0    0    0    0  0.00000000000E+00  0.00000000000E+00  0.41530244268E+00  0.41530244268E+00  0.00000000000E+00 0. -1.
         22   -1    0    0    0    0 -0.00000000000E+00 -0.00000000000E+00 -0.25008090211E+02  0.25008090211E+02  0.00000000000E+00 0.  1.
          4    1    1    2  501    0  0.10325774372E+01  0.23579444660E+01 -0.19944669495E+02  0.20110095961E+02  0.00000000000E+00 0.  1.
         -4    1    1    2    0  501 -0.10325774372E+01 -0.23579444660E+01 -0.46481182733E+01  0.53132966933E+01  0.00000000000E+00 0. -1.
<mgrwt>
<rscale>  0 0.25741248E+01</rscale>
<asrwt>0</asrwt>
<pdfrwt beam="1">0</pdfrwt>
<pdfrwt beam="2">0</pdfrwt>
<totfact> 0.13862543E+12</totfact>
</mgrwt>
</event>
<event>
 4    2  0.2093759E+006  0.3403735E+01  0.7546771E-02  0.2408181E+00
         22   -1    0    0    0    0  0.00000000000E+00  0.00000000000E+00  0.99327668933E+00  0.99327668933E+00  0.00000000000E+00 0. -1.
         22   -1    0    0    0    0 -0.00000000000E+00 -0.00000000000E+00 -0.17358466955E+02  0.17358466955E+02  0.00000000000E+00 0.  1.
          4    1    1    2  501    0  0.20448271369E+01  0.27210464226E+01 -0.13438223276E+02  0.13862584768E+02  0.00000000000E+00 0.  1.
         -4    1    1    2    0  501 -0.20448271369E+01 -0.27210464226E+01 -0.29269669902E+01  0.44891588762E+01  0.00000000000E+00 0. -1.
<mgrwt>
<rscale>  0 0.34037350E+01</rscale>
<asrwt>0</asrwt>
<pdfrwt beam="1">0</pdfrwt>
<pdfrwt beam="2">0</pdfrwt>
<totfact> 0.81408109E+11</totfact>
</mgrwt>
</event>
<event>
 4    2  0.2093759E+006  0.2336908E+01  0.7546771E-02  0.2785112E+00
         22   -1    0    0    0    0  0.00000000000E+00  0.00000000000E+00  0.24335390102E+01  0.24335390102E+01  0.00000000000E+00 0.  1.
         22   -1    0    0    0    0 -0.00000000000E+00 -0.00000000000E+00 -0.35360541081E+01  0.35360541081E+01  0.00000000000E+00 0. -1.
          4    1    1    2  501    0 -0.25045461479E+00 -0.23234486363E+01 -0.23554228617E+01  0.33180051140E+01  0.00000000000E+00 0. -1.
         -4    1    1    2    0  501  0.25045461479E+00  0.23234486363E+01  0.12529077638E+01  0.26515880042E+01  0.00000000000E+00 0.  1.
<mgrwt>
<rscale>  0 0.23369084E+01</rscale>
<asrwt>0</asrwt>
<pdfrwt beam="1">0</pdfrwt>
<pdfrwt beam="2">0</pdfrwt>
<totfact> 0.19644135E+12</totfact>
</mgrwt>
</event>
<event>
 4    2  0.2093759E+006  0.2354883E+01  0.7546771E-02  0.2776184E+00
         22   -1    0    0    0    0  0.00000000000E+00  0.00000000000E+00  0.15097946734E+02  0.15097946734E+02  0.00000000000E+00 0. -1.
         22   -1    0    0    0    0 -0.00000000000E+00 -0.00000000000E+00 -0.37173210312E+00  0.37173210312E+00  0.00000000000E+00 0.  1.
          4    1    1    2  501    0  0.54920298919E+00  0.22899453829E+01  0.82077010687E+01  0.85388424633E+01  0.00000000000E+00 0. -1.
         -4    1    1    2    0  501 -0.54920298919E+00 -0.22899453829E+01  0.65185135617E+01  0.69308363734E+01  0.00000000000E+00 0.  1.
<mgrwt>
<rscale>  0 0.23548830E+01</rscale>
<asrwt>0</asrwt>
<pdfrwt beam="1">0</pdfrwt>
<pdfrwt beam="2">0</pdfrwt>
<totfact> 0.29442772E+12</totfact>
</mgrwt>
</event>
<event>
 4    2  0.2093759E+006  0.3052090E+01  0.7546771E-02  0.2505971E+00
         22   -1    0    0    0    0  0.00000000000E+00  0.00000000000E+00  0.16993057558E+02  0.16993057558E+02  0.00000000000E+00 0.  1.
         22   -1    0    0    0    0 -0.00000000000E+00 -0.00000000000E+00 -0.22568007347E+01  0.22568007347E+01  0.00000000000E+00 0. -1.
          4    1    1    2  501    0 -0.17127256081E+01 -0.25262270811E+01 -0.10066588763E+01  0.32138161689E+01  0.00000000000E+00 0. -1.
         -4    1    1    2    0  501  0.17127256081E+01  0.25262270811E+01  0.15742915700E+02  0.16036042124E+02  0.00000000000E+00 0.  1.
<mgrwt>
<rscale>  0 0.30520898E+01</rscale>
<asrwt>0</asrwt>
<pdfrwt beam="1">0</pdfrwt>
<pdfrwt beam="2">0</pdfrwt>
<totfact> 0.32504341E+11</totfact>
</mgrwt>
</event>
<event>
 4    2  0.2093759E+006  0.3463864E+01  0.7546771E-02  0.2393221E+00
         22   -1    0    0    0    0  0.00000000000E+00  0.00000000000E+00  0.60190979499E+01  0.60190979499E+01  0.00000000000E+00 0.  1.
         22   -1    0    0    0    0 -0.00000000000E+00 -0.00000000000E+00 -0.20867798774E+01  0.20867798774E+01  0.00000000000E+00 0. -1.
          4    1    1    2  501    0 -0.34525445887E+01 -0.27979881376E+00  0.28235997522E+01  0.44688999847E+01  0.00000000000E+00 0. -1.
         -4    1    1    2    0  501  0.34525445887E+01  0.27979881376E+00  0.11087183203E+01  0.36369778425E+01  0.00000000000E+00 0.  1.
<mgrwt>
<rscale>  0 0.34638637E+01</rscale>
<asrwt>0</asrwt>
<pdfrwt beam="1">0</pdfrwt>
<pdfrwt beam="2">0</pdfrwt>
<totfact> 0.12525518E+12</totfact>
</mgrwt>
</event>
<event>
 4    2  0.2093759E+006  0.2878884E+01  0.7546771E-02  0.2561897E+00
         22   -1    0    0    0    0  0.00000000000E+00  0.00000000000E+00  0.61782754583E+02  0.61782754583E+02  0.00000000000E+00 0.  1.
         22   -1    0    0    0    0 -0.00000000000E+00 -0.00000000000E+00 -0.49709554634E+00  0.49709554634E+00  0.00000000000E+00 0. -1.
          4    1    1    2  501    0  0.23277874904E+01 -0.16939233781E+01  0.40343438195E+01  0.49561982472E+01  0.00000000000E+00 0. -1.
         -4    1    1    2    0  501 -0.23277874904E+01  0.16939233781E+01  0.57251315217E+02  0.57323651882E+02  0.00000000000E+00 0.  1.
<mgrwt>
<rscale>  0 0.28788836E+01</rscale>
<asrwt>0</asrwt>
<pdfrwt beam="1">0</pdfrwt>
<pdfrwt beam="2">0</pdfrwt>
<totfact> 0.34990715E+11</totfact>
</mgrwt>
</event>
<event>
 4    2  0.2093759E+006  0.5308789E+01  0.7546771E-02  0.2087854E+00
         22   -1    0    0    0    0  0.00000000000E+00  0.00000000000E+00  0.17205829064E+02  0.17205829064E+02  0.00000000000E+00 0.  1.
         22   -1    0    0    0    0 -0.00000000000E+00 -0.00000000000E+00 -0.33752242524E+01  0.33752242524E+01  0.00000000000E+00 0. -1.
          4    1    1    2  501    0 -0.15514479035E+01 -0.50770312755E+01 -0.46736969272E+00  0.53293218705E+01  0.00000000000E+00 0. -1.
         -4    1    1    2    0  501  0.15514479035E+01  0.50770312755E+01  0.14297974504E+02  0.15251731446E+02  0.00000000000E+00 0.  1.
<mgrwt>
<rscale>  0 0.53087887E+01</rscale>
<asrwt>0</asrwt>
<pdfrwt beam="1">0</pdfrwt>
<pdfrwt beam="2">0</pdfrwt>
<totfact> 0.20018956E+11</totfact>
</mgrwt>
</event>
<event>
 4    2  0.2093759E+006  0.2614531E+01  0.7546771E-02  0.2660094E+00
         22   -1    0    0    0    0  0.00000000000E+00  0.00000000000E+00  0.15507968915E+01  0.15507968915E+01  0.00000000000E+00 0.  1.
         22   -1    0    0    0    0 -0.00000000000E+00 -0.00000000000E+00 -0.92535843976E+01  0.92535843976E+01  0.00000000000E+00 0. -1.
          4    1    1    2  501    0  0.25576511920E+01 -0.54239342692E+00 -0.77606317264E+01  0.81892108925E+01  0.00000000000E+00 0. -1.
         -4    1    1    2    0  501 -0.25576511920E+01  0.54239342692E+00  0.57844220331E-01  0.26151703966E+01  0.00000000000E+00 0.  1.
<mgrwt>
<rscale>  0 0.26145306E+01</rscale>
<asrwt>0</asrwt>
<pdfrwt beam="1">0</pdfrwt>
<pdfrwt beam="2">0</pdfrwt>
<totfact> 0.10538425E+12</totfact>
</mgrwt>
</event>
<event>
 4    2  0.2093759E+006  0.3734378E+01  0.7546771E-02  0.2331139E+00
         22   -1    0    0    0    0  0.00000000000E+00  0.00000000000E+00  0.44207227530E+02  0.44207227530E+02  0.00000000000E+00 0. -1.
         22   -1    0    0    0    0 -0.00000000000E+00 -0.00000000000E+00 -0.34919978416E+00  0.34919978416E+00  0.00000000000E+00 0.  1.
          4    1    1    2  501    0 -0.29689926092E+00 -0.37225568784E+01  0.15004020660E+02  0.15461766227E+02  0.00000000000E+00 0.  1.
         -4    1    1    2    0  501  0.29689926092E+00  0.37225568784E+01  0.28854007086E+02  0.29094661087E+02  0.00000000000E+00 0. -1.
<mgrwt>
<rscale>  0 0.37343780E+01</rscale>
<asrwt>0</asrwt>
<pdfrwt beam="1">0</pdfrwt>
<pdfrwt beam="2">0</pdfrwt>
<totfact> 0.81119905E+11</totfact>
</mgrwt>
</event>
<event>
 4    2  0.2093759E+006  0.3123190E+01  0.7546771E-02  0.2484628E+00
         22   -1    0    0    0    0  0.00000000000E+00  0.00000000000E+00  0.49859705329E+00  0.49859705329E+00  0.00000000000E+00 0. -1.
         22   -1    0    0    0    0 -0.00000000000E+00 -0.00000000000E+00 -0.21333344420E+02  0.21333344420E+02  0.00000000000E+00 0.  1.
          4    1    1    2  501    0 -0.27405108593E+01 -0.14979703736E+01 -0.13561482667E+02  0.13916469637E+02  0.00000000000E+00 0.  1.
         -4    1    1    2    0  501  0.27405108593E+01  0.14979703736E+01 -0.72732646996E+01  0.79154718369E+01  0.00000000000E+00 0. -1.
<mgrwt>
<rscale>  0 0.31231899E+01</rscale>
<asrwt>0</asrwt>
<pdfrwt beam="1">0</pdfrwt>
<pdfrwt beam="2">0</pdfrwt>
<totfact> 0.13772987E+12</totfact>
</mgrwt>
</event>
<event>
 4    2  0.2093759E+006  0.2402299E+01  0.7546771E-02  0.2753236E+00
         22   -1    0    0    0    0  0.00000000000E+00  0.00000000000E+00  0.32104039914E+01  0.32104039914E+01  0.00000000000E+00 0.  1.
         22   -1    0    0    0    0 -0.00000000000E+00 -0.00000000000E+00 -0.30175373435E+01  0.30175373435E+01  0.00000000000E+00 0. -1.
          4    1    1    2  501    0 -0.25604492940E-01 -0.24021626517E+01 -0.18835243768E+01  0.30526554135E+01  0.00000000000E+00 0. -1.
         -4    1    1    2    0  501  0.25604492940E-01  0.24021626517E+01  0.20763910247E+01  0.31752859215E+01  0.00000000000E+00 0.  1.
<mgrwt>
<rscale>  0 0.24022991E+01</rscale>
<asrwt>0</asrwt>
<pdfrwt beam="1">0</pdfrwt>
<pdfrwt beam="2">0</pdfrwt>
<totfact> 0.17121041E+12</totfact>
</mgrwt>
</event>
<event>
 4    2  0.2093759E+006  0.2130978E+01  0.7546771E-02  0.2897597E+00
         22   -1    0    0    0    0  0.00000000000E+00  0.00000000000E+00  0.42478901968E+00  0.42478901968E+00  0.00000000000E+00 0.  1.
         22   -1    0    0    0    0 -0.00000000000E+00 -0.00000000000E+00 -0.11900457587E+02  0.11900457587E+02  0.00000000000E+00 0. -1.
          4    1    1    2  501    0 -0.12490208787E+00 -0.21273145378E+01 -0.77031291795E+01  0.79924506148E+01  0.00000000000E+00 0. -1.
         -4    1    1    2    0  501  0.12490208787E+00  0.21273145378E+01 -0.37725393876E+01  0.43327959916E+01  0.00000000000E+00 0.  1.
<mgrwt>
<rscale>  0 0.21309781E+01</rscale>
<asrwt>0</asrwt>
<pdfrwt beam="1">0</pdfrwt>
<pdfrwt beam="2">0</pdfrwt>
<totfact> 0.33910691E+12</totfact>
</mgrwt>
</event>
<event>
 4    2  0.2093759E+006  0.2981426E+01  0.7546771E-02  0.2528082E+00
         22   -1    0    0    0    0  0.00000000000E+00  0.00000000000E+00  0.44412720772E+00  0.44412720772E+00  0.00000000000E+00 0. -1.
         22   -1    0    0    0    0 -0.00000000000E+00 -0.00000000000E+00 -0.26490484144E+02  0.26490484144E+02  0.00000000000E+00 0.  1.
          4    1    1    2  501    0  0.26795566156E+01 -0.13072408657E+01 -0.19681960878E+02  0.19906493572E+02  0.00000000000E+00 0.  1.
         -4    1    1    2    0  501 -0.26795566156E+01  0.13072408657E+01 -0.63643960591E+01  0.70281177803E+01  0.00000000000E+00 0. -1.
<mgrwt>
<rscale>  0 0.29814262E+01</rscale>
<asrwt>0</asrwt>
<pdfrwt beam="1">0</pdfrwt>
<pdfrwt beam="2">0</pdfrwt>
<totfact> 0.11951372E+12</totfact>
</mgrwt>
</event>
<event>
 4    2  0.2093759E+006  0.2614740E+01  0.7546771E-02  0.2660009E+00
         22   -1    0    0    0    0  0.00000000000E+00  0.00000000000E+00  0.22597545993E+02  0.22597545993E+02  0.00000000000E+00 0.  1.
         22   -1    0    0    0    0 -0.00000000000E+00 -0.00000000000E+00 -0.37639285026E+00  0.37639285026E+00  0.00000000000E+00 0. -1.
          4    1    1    2  501    0  0.16792010719E+01  0.20042825803E+01  0.60226368880E+01  0.65657459581E+01  0.00000000000E+00 0. -1.
         -4    1    1    2    0  501 -0.16792010719E+01 -0.20042825803E+01  0.16198516255E+02  0.16408192885E+02  0.00000000000E+00 0.  1.
<mgrwt>
<rscale>  0 0.26147399E+01</rscale>
<asrwt>0</asrwt>
<pdfrwt beam="1">0</pdfrwt>
<pdfrwt beam="2">0</pdfrwt>
<totfact> 0.17591465E+12</totfact>
</mgrwt>
</event>
<event>
 4    2  0.2093759E+006  0.2370345E+01  0.7546771E-02  0.2768605E+00
         22   -1    0    0    0    0  0.00000000000E+00  0.00000000000E+00  0.54605434955E+00  0.54605434955E+00  0.00000000000E+00 0. -1.
         22   -1    0    0    0    0 -0.00000000000E+00 -0.00000000000E+00 -0.11903170271E+02  0.11903170271E+02  0.00000000000E+00 0.  1.
          4    1    1    2  501    0 -0.70767607733E+00 -0.22622402529E+01 -0.79705363656E+01  0.83155268232E+01  0.00000000000E+00 0.  1.
         -4    1    1    2    0  501  0.70767607733E+00  0.22622402529E+01 -0.33865795562E+01  0.41336977977E+01  0.00000000000E+00 0. -1.
<mgrwt>
<rscale>  0 0.23703452E+01</rscale>
<asrwt>0</asrwt>
<pdfrwt beam="1">0</pdfrwt>
<pdfrwt beam="2">0</pdfrwt>
<totfact> 0.25535456E+12</totfact>
</mgrwt>
</event>
<event>
 4    2  0.2093759E+006  0.2312388E+01  0.7546771E-02  0.2797504E+00
         22   -1    0    0    0    0  0.00000000000E+00  0.00000000000E+00  0.22175866379E+00  0.22175866379E+00  0.00000000000E+00 0.  1.
         22   -1    0    0    0    0 -0.00000000000E+00 -0.00000000000E+00 -0.31023213250E+02  0.31023213250E+02  0.00000000000E+00 0. -1.
          4    1    1    2  501    0 -0.42016725239E+00 -0.22738945847E+01 -0.22774178946E+02  0.22891272655E+02  0.00000000000E+00 0. -1.
         -4    1    1    2    0  501  0.42016725239E+00  0.22738945847E+01 -0.80272756401E+01  0.83536992587E+01  0.00000000000E+00 0.  1.
<mgrwt>
<rscale>  0 0.23123877E+01</rscale>
<asrwt>0</asrwt>
<pdfrwt beam="1">0</pdfrwt>
<pdfrwt beam="2">0</pdfrwt>
<totfact> 0.21311944E+12</totfact>
</mgrwt>
</event>
<event>
 4    2  0.2093759E+006  0.2362054E+01  0.7546771E-02  0.2772657E+00
         22   -1    0    0    0    0  0.00000000000E+00  0.00000000000E+00  0.29863269861E+02  0.29863269861E+02  0.00000000000E+00 0. -1.
         22   -1    0    0    0    0 -0.00000000000E+00 -0.00000000000E+00 -0.37866259009E+00  0.37866259009E+00  0.00000000000E+00 0.  1.
          4    1    1    2  501    0  0.21006079893E+01  0.10801608103E+01  0.39797194279E+01  0.46279010389E+01  0.00000000000E+00 0.  1.
         -4    1    1    2    0  501 -0.21006079893E+01 -0.10801608103E+01  0.25504887843E+02  0.25614031412E+02  0.00000000000E+00 0. -1.
<mgrwt>
<rscale>  0 0.23620545E+01</rscale>
<asrwt>0</asrwt>
<pdfrwt beam="1">0</pdfrwt>
<pdfrwt beam="2">0</pdfrwt>
<totfact> 0.12282864E+12</totfact>
</mgrwt>
</event>
<event>
 4    2  0.2093759E+006  0.3423123E+01  0.7546771E-02  0.2403307E+00
         22   -1    0    0    0    0  0.00000000000E+00  0.00000000000E+00  0.16616181221E+02  0.16616181221E+02  0.00000000000E+00 0. -1.
         22   -1    0    0    0    0 -0.00000000000E+00 -0.00000000000E+00 -0.15432554185E+01  0.15432554185E+01  0.00000000000E+00 0.  1.
          4    1    1    2  501    0  0.86206091737E+00 -0.33127968788E+01  0.84549113531E+00  0.35259931147E+01  0.00000000000E+00 0.  1.
         -4    1    1    2    0  501 -0.86206091737E+00  0.33127968788E+01  0.14227434667E+02  0.14633443525E+02  0.00000000000E+00 0. -1.
<mgrwt>
<rscale>  0 0.34231232E+01</rscale>
<asrwt>0</asrwt>
<pdfrwt beam="1">0</pdfrwt>
<pdfrwt beam="2">0</pdfrwt>
<totfact> 0.51851473E+11</totfact>
</mgrwt>
</event>
<event>
 4    2  0.2093759E+006  0.2181769E+01  0.7546771E-02  0.2867966E+00
         22   -1    0    0    0    0  0.00000000000E+00  0.00000000000E+00  0.15012140591E+01  0.15012140591E+01  0.00000000000E+00 0.  1.
         22   -1    0    0    0    0 -0.00000000000E+00 -0.00000000000E+00 -0.45245033676E+01  0.45245033676E+01  0.00000000000E+00 0. -1.
          4    1    1    2  501    0 -0.59979543177E+00  0.20977042860E+01 -0.31596088257E+01  0.38396934465E+01  0.00000000000E+00 0.  1.
         -4    1    1    2    0  501  0.59979543177E+00 -0.20977042860E+01  0.13631951727E+00  0.21860239802E+01  0.00000000000E+00 0. -1.
<mgrwt>
<rscale>  0 0.21817694E+01</rscale>
<asrwt>0</asrwt>
<pdfrwt beam="1">0</pdfrwt>
<pdfrwt beam="2">0</pdfrwt>
<totfact> 0.25695443E+12</totfact>
</mgrwt>
</event>
<event>
 4    2  0.2093759E+006  0.3827539E+01  0.7546771E-02  0.2311525E+00
         22   -1    0    0    0    0  0.00000000000E+00  0.00000000000E+00  0.54000934598E+01  0.54000934598E+01  0.00000000000E+00 0.  1.
         22   -1    0    0    0    0 -0.00000000000E+00 -0.00000000000E+00 -0.13276557224E+02  0.13276557224E+02  0.00000000000E+00 0. -1.
          4    1    1    2  501    0  0.17854494535E+01 -0.33855908409E+01 -0.12267999314E+02  0.12851220263E+02  0.00000000000E+00 0. -1.
         -4    1    1    2    0  501 -0.17854494535E+01  0.33855908409E+01  0.43915355500E+01  0.58254304201E+01  0.00000000000E+00 0.  1.
<mgrwt>
<rscale>  0 0.38275390E+01</rscale>
<asrwt>0</asrwt>
<pdfrwt beam="1">0</pdfrwt>
<pdfrwt beam="2">0</pdfrwt>
<totfact> 0.15828327E+11</totfact>
</mgrwt>
</event>
<event>
 4    2  0.2093759E+006  0.2104373E+01  0.7546771E-02  0.2913668E+00
         22   -1    0    0    0    0  0.00000000000E+00  0.00000000000E+00  0.25287615874E+01  0.25287615874E+01  0.00000000000E+00 0.  1.
         22   -1    0    0    0    0 -0.00000000000E+00 -0.00000000000E+00 -0.17607211937E+01  0.17607211937E+01  0.00000000000E+00 0. -1.
          4    1    1    2  501    0  0.17197026078E+01 -0.12128522521E+01  0.54166937163E+00  0.21729687878E+01  0.00000000000E+00 0. -1.
         -4    1    1    2    0  501 -0.17197026078E+01  0.12128522521E+01  0.22637102207E+00  0.21165139934E+01  0.00000000000E+00 0.  1.
<mgrwt>
<rscale>  0 0.21043735E+01</rscale>
<asrwt>0</asrwt>
<pdfrwt beam="1">0</pdfrwt>
<pdfrwt beam="2">0</pdfrwt>
<totfact> 0.42277763E+12</totfact>
</mgrwt>
</event>
<event>
 4    2  0.2093759E+006  0.2044098E+01  0.7546771E-02  0.2951581E+00
         22   -1    0    0    0    0  0.00000000000E+00  0.00000000000E+00  0.56477194763E+01  0.56477194763E+01  0.00000000000E+00 0.  1.
         22   -1    0    0    0    0 -0.00000000000E+00 -0.00000000000E+00 -0.71640166012E+01  0.71640166012E+01  0.00000000000E+00 0. -1.
          4    1    1    2  501    0  0.77470692768E+00  0.18916038707E+01 -0.68242388097E+01  0.71238031528E+01  0.00000000000E+00 0. -1.
         -4    1    1    2    0  501 -0.77470692768E+00 -0.18916038707E+01  0.53079416848E+01  0.56879329248E+01  0.00000000000E+00 0.  1.
<mgrwt>
<rscale>  0 0.20440979E+01</rscale>
<asrwt>0</asrwt>
<pdfrwt beam="1">0</pdfrwt>
<pdfrwt beam="2">0</pdfrwt>
<totfact> 0.31657379E+11</totfact>
</mgrwt>
</event>
<event>
 4    2  0.2093759E+006  0.2024038E+01  0.7546771E-02  0.2964686E+00
         22   -1    0    0    0    0  0.00000000000E+00  0.00000000000E+00  0.24518389332E+01  0.24518389332E+01  0.00000000000E+00 0. -1.
         22   -1    0    0    0    0 -0.00000000000E+00 -0.00000000000E+00 -0.45574746252E+01  0.45574746252E+01  0.00000000000E+00 0.  1.
          4    1    1    2  501    0 -0.12232720605E+01 -0.16125551168E+01 -0.38419960669E+01  0.43425409978E+01  0.00000000000E+00 0.  1.
         -4    1    1    2    0  501  0.12232720605E+01  0.16125551168E+01  0.17363603749E+01  0.26667725607E+01  0.00000000000E+00 0. -1.
<mgrwt>
<rscale>  0 0.20240377E+01</rscale>
<asrwt>0</asrwt>
<pdfrwt beam="1">0</pdfrwt>
<pdfrwt beam="2">0</pdfrwt>
<totfact> 0.14445056E+12</totfact>
</mgrwt>
</event>
<event>
 4    2  0.2093759E+006  0.2098915E+01  0.7546771E-02  0.2917014E+00
         22   -1    0    0    0    0  0.00000000000E+00  0.00000000000E+00  0.16359326232E+01  0.16359326232E+01  0.00000000000E+00 0. -1.
         22   -1    0    0    0    0 -0.00000000000E+00 -0.00000000000E+00 -0.28453333642E+01  0.28453333642E+01  0.00000000000E+00 0.  1.
          4    1    1    2  501    0  0.20420937645E+01  0.48507526222E+00 -0.11232706192E+01  0.23805843478E+01  0.00000000000E+00 0.  1.
         -4    1    1    2    0  501 -0.20420937645E+01 -0.48507526222E+00 -0.86130121832E-01  0.21006816396E+01  0.00000000000E+00 0. -1.
<mgrwt>
<rscale>  0 0.20989152E+01</rscale>
<asrwt>0</asrwt>
<pdfrwt beam="1">0</pdfrwt>
<pdfrwt beam="2">0</pdfrwt>
<totfact> 0.40110169E+12</totfact>
</mgrwt>
</event>
<event>
 4    2  0.2093759E+006  0.2030669E+01  0.7546771E-02  0.2960326E+00
         22   -1    0    0    0    0  0.00000000000E+00  0.00000000000E+00  0.35305076359E+01  0.35305076359E+01  0.00000000000E+00 0. -1.
         22   -1    0    0    0    0 -0.00000000000E+00 -0.00000000000E+00 -0.36727325353E+01  0.36727325353E+01  0.00000000000E+00 0.  1.
          4    1    1    2  501    0  0.12668701106E+01  0.15870279386E+01 -0.30454092531E+01  0.36603463052E+01  0.00000000000E+00 0.  1.
         -4    1    1    2    0  501 -0.12668701106E+01 -0.15870279386E+01  0.29031843536E+01  0.35428938661E+01  0.00000000000E+00 0. -1.
<mgrwt>
<rscale>  0 0.20306692E+01</rscale>
<asrwt>0</asrwt>
<pdfrwt beam="1">0</pdfrwt>
<pdfrwt beam="2">0</pdfrwt>
<totfact> 0.12167224E+12</totfact>
</mgrwt>
</event>
<event>
 4    2  0.2093759E+006  0.4198542E+01  0.7546771E-02  0.2240876E+00
         22   -1    0    0    0    0  0.00000000000E+00  0.00000000000E+00  0.18871156531E+03  0.18871156531E+03  0.00000000000E+00 0. -1.
         22   -1    0    0    0    0 -0.00000000000E+00 -0.00000000000E+00 -0.11604869787E+00  0.11604869787E+00  0.00000000000E+00 0.  1.
          4    1    1    2  501    0  0.34402400845E+01 -0.24067622004E+01  0.52598293421E+02  0.52765597001E+02  0.00000000000E+00 0.  1.
         -4    1    1    2    0  501 -0.34402400845E+01  0.24067622004E+01  0.13599722319E+03  0.13606201701E+03  0.00000000000E+00 0. -1.
<mgrwt>
<rscale>  0 0.41985421E+01</rscale>
<asrwt>0</asrwt>
<pdfrwt beam="1">0</pdfrwt>
<pdfrwt beam="2">0</pdfrwt>
<totfact> 0.36157602E+11</totfact>
</mgrwt>
</event>
<event>
 4    2  0.2093759E+006  0.2102426E+01  0.7546771E-02  0.2914860E+00
         22   -1    0    0    0    0  0.00000000000E+00  0.00000000000E+00  0.13970364540E+02  0.13970364540E+02  0.00000000000E+00 0.  1.
         22   -1    0    0    0    0 -0.00000000000E+00 -0.00000000000E+00 -0.34412307791E+00  0.34412307791E+00  0.00000000000E+00 0. -1.
          4    1    1    2  501    0 -0.21013503116E+01 -0.67248175205E-01  0.47815812252E+01  0.52233815161E+01  0.00000000000E+00 0. -1.
         -4    1    1    2    0  501  0.21013503116E+01  0.67248175205E-01  0.88446602364E+01  0.90911061014E+01  0.00000000000E+00 0.  1.
<mgrwt>
<rscale>  0 0.21024261E+01</rscale>
<asrwt>0</asrwt>
<pdfrwt beam="1">0</pdfrwt>
<pdfrwt beam="2">0</pdfrwt>
<totfact> 0.35322541E+12</totfact>
</mgrwt>
</event>
<event>
 4    2  0.2093759E+006  0.2182729E+01  0.7546771E-02  0.2867420E+00
         22   -1    0    0    0    0  0.00000000000E+00  0.00000000000E+00  0.51558156808E+02  0.51558156808E+02  0.00000000000E+00 0. -1.
         22   -1    0    0    0    0 -0.00000000000E+00 -0.00000000000E+00 -0.17440586658E+00  0.17440586658E+00  0.00000000000E+00 0.  1.
          4    1    1    2  501    0 -0.12891558730E+01  0.17613576800E+01  0.79557414552E+01  0.82497348954E+01  0.00000000000E+00 0.  1.
         -4    1    1    2    0  501  0.12891558730E+01 -0.17613576800E+01  0.43428009487E+02  0.43482827780E+02  0.00000000000E+00 0. -1.
<mgrwt>
<rscale>  0 0.21827285E+01</rscale>
<asrwt>0</asrwt>
<pdfrwt beam="1">0</pdfrwt>
<pdfrwt beam="2">0</pdfrwt>
<totfact> 0.14405427E+12</totfact>
</mgrwt>
</event>
<event>
 4    2  0.2093759E+006  0.2652843E+01  0.7546771E-02  0.2644755E+00
         22   -1    0    0    0    0  0.00000000000E+00  0.00000000000E+00  0.57406618611E+00  0.57406618611E+00  0.00000000000E+00 0. -1.
         22   -1    0    0    0    0 -0.00000000000E+00 -0.00000000000E+00 -0.16659461644E+02  0.16659461644E+02  0.00000000000E+00 0.  1.
          4    1    1    2  501    0  0.22723033960E+01  0.13690200008E+01 -0.12471172155E+02  0.12750204446E+02  0.00000000000E+00 0.  1.
         -4    1    1    2    0  501 -0.22723033960E+01 -0.13690200008E+01 -0.36142233024E+01  0.44833233840E+01  0.00000000000E+00 0. -1.
<mgrwt>
<rscale>  0 0.26528435E+01</rscale>
<asrwt>0</asrwt>
<pdfrwt beam="1">0</pdfrwt>
<pdfrwt beam="2">0</pdfrwt>
<totfact> 0.15972690E+12</totfact>
</mgrwt>
</event>
<event>
 4    2  0.2093759E+006  0.4693725E+01  0.7546771E-02  0.2161527E+00
         22   -1    0    0    0    0  0.00000000000E+00  0.00000000000E+00  0.42642838593E+00  0.42642838593E+00  0.00000000000E+00 0.  1.
         22   -1    0    0    0    0 -0.00000000000E+00 -0.00000000000E+00 -0.56804017432E+02  0.56804017432E+02  0.00000000000E+00 0. -1.
          4    1    1    2  501    0 -0.11880266746E+01 -0.45408858290E+01 -0.19581148111E+02  0.20135848947E+02  0.00000000000E+00 0. -1.
         -4    1    1    2    0  501  0.11880266746E+01  0.45408858290E+01 -0.36796440935E+02  0.37094596871E+02  0.00000000000E+00 0.  1.
<mgrwt>
<rscale>  0 0.46937247E+01</rscale>
<asrwt>0</asrwt>
<pdfrwt beam="1">0</pdfrwt>
<pdfrwt beam="2">0</pdfrwt>
<totfact> 0.46542838E+11</totfact>
</mgrwt>
</event>
<event>
 4    2  0.2093759E+006  0.2180711E+01  0.7546771E-02  0.2868570E+00
         22   -1    0    0    0    0  0.00000000000E+00  0.00000000000E+00  0.11970205092E+02  0.11970205092E+02  0.00000000000E+00 0.  1.
         22   -1    0    0    0    0 -0.00000000000E+00 -0.00000000000E+00 -0.47872662338E+00  0.47872662338E+00  0.00000000000E+00 0. -1.
          4    1    1    2  501    0  0.21706747546E+01 -0.20897728902E+00  0.83131768082E+01  0.85944405893E+01  0.00000000000E+00 0.  1.
         -4    1    1    2    0  501 -0.21706747546E+01  0.20897728902E+00  0.31783016609E+01  0.38544911266E+01  0.00000000000E+00 0. -1.
<mgrwt>
<rscale>  0 0.21807110E+01</rscale>
<asrwt>0</asrwt>
<pdfrwt beam="1">0</pdfrwt>
<pdfrwt beam="2">0</pdfrwt>
<totfact> 0.29424721E+12</totfact>
</mgrwt>
</event>
<event>
 4    2  0.2093759E+006  0.3802650E+01  0.7546771E-02  0.2316684E+00
         22   -1    0    0    0    0  0.00000000000E+00  0.00000000000E+00  0.61470897743E+01  0.61470897743E+01  0.00000000000E+00 0.  1.
         22   -1    0    0    0    0 -0.00000000000E+00 -0.00000000000E+00 -0.34891028029E+01  0.34891028029E+01  0.00000000000E+00 0. -1.
          4    1    1    2  501    0 -0.37968851803E+01  0.20929931777E+00 -0.14211190788E+01  0.40595224735E+01  0.00000000000E+00 0. -1.
         -4    1    1    2    0  501  0.37968851803E+01 -0.20929931777E+00  0.40791060501E+01  0.55766701037E+01  0.00000000000E+00 0.  1.
<mgrwt>
<rscale>  0 0.38026495E+01</rscale>
<asrwt>0</asrwt>
<pdfrwt beam="1">0</pdfrwt>
<pdfrwt beam="2">0</pdfrwt>
<totfact> 0.67106726E+11</totfact>
</mgrwt>
</event>
<event>
 4    2  0.2093759E+006  0.3417011E+01  0.7546771E-02  0.2404838E+00
         22   -1    0    0    0    0  0.00000000000E+00  0.00000000000E+00  0.50226943722E+01  0.50226943722E+01  0.00000000000E+00 0. -1.
         22   -1    0    0    0    0 -0.00000000000E+00 -0.00000000000E+00 -0.58888569936E+01  0.58888569936E+01  0.00000000000E+00 0.  1.
          4    1    1    2  501    0  0.33083861942E+01 -0.85471869465E+00 -0.46775465871E+01  0.57927027656E+01  0.00000000000E+00 0.  1.
         -4    1    1    2    0  501 -0.33083861942E+01  0.85471869465E+00  0.38113839657E+01  0.51188486001E+01  0.00000000000E+00 0. -1.
<mgrwt>
<rscale>  0 0.34170109E+01</rscale>
<asrwt>0</asrwt>
<pdfrwt beam="1">0</pdfrwt>
<pdfrwt beam="2">0</pdfrwt>
<totfact> 0.45975869E+11</totfact>
</mgrwt>
</event>
<event>
 4    2  0.2093759E+006  0.2551427E+01  0.7546771E-02  0.2686283E+00
         22   -1    0    0    0    0  0.00000000000E+00  0.00000000000E+00  0.78303393212E+01  0.78303393212E+01  0.00000000000E+00 0.  1.
         22   -1    0    0    0    0 -0.00000000000E+00 -0.00000000000E+00 -0.27316349703E+01  0.27316349703E+01  0.00000000000E+00 0. -1.
          4    1    1    2  501    0 -0.23071189255E+01  0.10894873919E+01 -0.18553113470E+01  0.31546728369E+01  0.00000000000E+00 0. -1.
         -4    1    1    2    0  501  0.23071189255E+01 -0.10894873919E+01  0.69540156979E+01  0.74073014547E+01  0.00000000000E+00 0.  1.
<mgrwt>
<rscale>  0 0.25514272E+01</rscale>
<asrwt>0</asrwt>
<pdfrwt beam="1">0</pdfrwt>
<pdfrwt beam="2">0</pdfrwt>
<totfact> 0.66883134E+11</totfact>
</mgrwt>
</event>
<event>
 4    2  0.2093759E+006  0.2101441E+01  0.7546771E-02  0.2915464E+00
         22   -1    0    0    0    0  0.00000000000E+00  0.00000000000E+00  0.49310173489E+01  0.49310173489E+01  0.00000000000E+00 0.  1.
         22   -1    0    0    0    0 -0.00000000000E+00 -0.00000000000E+00 -0.89623412838E+00  0.89623412838E+00  0.00000000000E+00 0. -1.
          4    1    1    2  501    0 -0.20998534792E+01 -0.81674590758E-01  0.19378862423E+01  0.28585762997E+01  0.00000000000E+00 0.  1.
         -4    1    1    2    0  501  0.20998534792E+01  0.81674590758E-01  0.20968969782E+01  0.29686751776E+01  0.00000000000E+00 0. -1.
<mgrwt>
<rscale>  0 0.21014413E+01</rscale>
<asrwt>0</asrwt>
<pdfrwt beam="1">0</pdfrwt>
<pdfrwt beam="2">0</pdfrwt>
<totfact> 0.41898712E+12</totfact>
</mgrwt>
</event>
<event>
 4    2  0.2093759E+006  0.2786289E+01  0.7546771E-02  0.2594357E+00
         22   -1    0    0    0    0  0.00000000000E+00  0.00000000000E+00  0.30025554203E+01  0.30025554203E+01  0.00000000000E+00 0. -1.
         22   -1    0    0    0    0 -0.00000000000E+00 -0.00000000000E+00 -0.26136606215E+01  0.26136606215E+01  0.00000000000E+00 0.  1.
          4    1    1    2  501    0 -0.21081568786E+01  0.18218351670E+01 -0.96513061361E-01  0.27879604680E+01  0.00000000000E+00 0. -1.
         -4    1    1    2    0  501  0.21081568786E+01 -0.18218351670E+01  0.48540786017E+00  0.28282555738E+01  0.00000000000E+00 0.  1.
<mgrwt>
<rscale>  0 0.27862894E+01</rscale>
<asrwt>0</asrwt>
<pdfrwt beam="1">0</pdfrwt>
<pdfrwt beam="2">0</pdfrwt>
<totfact> 0.21893299E+12</totfact>
</mgrwt>
</event>
<event>
 4    2  0.2093759E+006  0.2010423E+01  0.7546771E-02  0.2973726E+00
         22   -1    0    0    0    0  0.00000000000E+00  0.00000000000E+00  0.67405244900E+00  0.67405244900E+00  0.00000000000E+00 0. -1.
         22   -1    0    0    0    0 -0.00000000000E+00 -0.00000000000E+00 -0.80218378380E+01  0.80218378380E+01  0.00000000000E+00 0.  1.
          4    1    1    2  501    0  0.18291184425E+01  0.83434304622E+00 -0.58587354022E+01  0.61940764533E+01  0.00000000000E+00 0.  1.
         -4    1    1    2    0  501 -0.18291184425E+01 -0.83434304622E+00 -0.14890499867E+01  0.25018138337E+01  0.00000000000E+00 0. -1.
<mgrwt>
<rscale>  0 0.20104235E+01</rscale>
<asrwt>0</asrwt>
<pdfrwt beam="1">0</pdfrwt>
<pdfrwt beam="2">0</pdfrwt>
<totfact> 0.32426995E+12</totfact>
</mgrwt>
</event>
<event>
 4    2  0.2093759E+006  0.2846726E+01  0.7546771E-02  0.2572953E+00
         22   -1    0    0    0    0  0.00000000000E+00  0.00000000000E+00  0.10938806504E+02  0.10938806504E+02  0.00000000000E+00 0. -1.
         22   -1    0    0    0    0 -0.00000000000E+00 -0.00000000000E+00 -0.74088801650E+00  0.74088801650E+00  0.00000000000E+00 0.  1.
          4    1    1    2  501    0 -0.27792105059E+01  0.61631111270E+00  0.51483721508E+01  0.58829912652E+01  0.00000000000E+00 0. -1.
         -4    1    1    2    0  501  0.27792105059E+01 -0.61631111270E+00  0.50495463370E+01  0.57967032556E+01  0.00000000000E+00 0.  1.
<mgrwt>
<rscale>  0 0.28467263E+01</rscale>
<asrwt>0</asrwt>
<pdfrwt beam="1">0</pdfrwt>
<pdfrwt beam="2">0</pdfrwt>
<totfact> 0.20026928E+12</totfact>
</mgrwt>
</event>
<event>
 4    2  0.2093759E+006  0.2575838E+01  0.7546771E-02  0.2676011E+00
         22   -1    0    0    0    0  0.00000000000E+00  0.00000000000E+00  0.65519989583E+00  0.65519989583E+00  0.00000000000E+00 0.  1.
         22   -1    0    0    0    0 -0.00000000000E+00 -0.00000000000E+00 -0.10219434686E+02  0.10219434686E+02  0.00000000000E+00 0. -1.
          4    1    1    2  501    0 -0.43655153185E+00 -0.25385756051E+01 -0.42638661210E+01  0.49815155968E+01  0.00000000000E+00 0.  1.
         -4    1    1    2    0  501  0.43655153185E+00  0.25385756051E+01 -0.53003686691E+01  0.58931189850E+01  0.00000000000E+00 0. -1.
<mgrwt>
<rscale>  0 0.25758384E+01</rscale>
<asrwt>0</asrwt>
<pdfrwt beam="1">0</pdfrwt>
<pdfrwt beam="2">0</pdfrwt>
<totfact> 0.25005959E+12</totfact>
</mgrwt>
</event>
<event>
 4    2  0.2093759E+006  0.2606422E+01  0.7546771E-02  0.2663393E+00
         22   -1    0    0    0    0  0.00000000000E+00  0.00000000000E+00  0.35417401736E+00  0.35417401736E+00  0.00000000000E+00 0. -1.
         22   -1    0    0    0    0 -0.00000000000E+00 -0.00000000000E+00 -0.30059112585E+02  0.30059112585E+02  0.00000000000E+00 0.  1.
          4    1    1    2  501    0  0.14519302361E+01 -0.21645635791E+01 -0.24000353159E+02  0.24141466167E+02  0.00000000000E+00 0.  1.
         -4    1    1    2    0  501 -0.14519302361E+01  0.21645635791E+01 -0.57045854084E+01  0.62718204359E+01  0.00000000000E+00 0. -1.
<mgrwt>
<rscale>  0 0.26064222E+01</rscale>
<asrwt>0</asrwt>
<pdfrwt beam="1">0</pdfrwt>
<pdfrwt beam="2">0</pdfrwt>
<totfact> 0.13132148E+12</totfact>
</mgrwt>
</event>
<event>
 4    2  0.2093759E+006  0.2612503E+01  0.7546771E-02  0.2660917E+00
         22   -1    0    0    0    0  0.00000000000E+00  0.00000000000E+00  0.13544640121E+02  0.13544640121E+02  0.00000000000E+00 0. -1.
         22   -1    0    0    0    0 -0.00000000000E+00 -0.00000000000E+00 -0.70348301378E+00  0.70348301378E+00  0.00000000000E+00 0.  1.
          4    1    1    2  501    0 -0.26078904012E+01  0.15518239079E+00  0.10215128326E+02  0.10543909173E+02  0.00000000000E+00 0. -1.
         -4    1    1    2    0  501  0.26078904012E+01 -0.15518239079E+00  0.26260287810E+01  0.37042139622E+01  0.00000000000E+00 0.  1.
<mgrwt>
<rscale>  0 0.26125034E+01</rscale>
<asrwt>0</asrwt>
<pdfrwt beam="1">0</pdfrwt>
<pdfrwt beam="2">0</pdfrwt>
<totfact> 0.16366035E+12</totfact>
</mgrwt>
</event>
<event>
 4    2  0.2093759E+006  0.2026563E+01  0.7546771E-02  0.2963022E+00
         22   -1    0    0    0    0  0.00000000000E+00  0.00000000000E+00  0.12982894799E+02  0.12982894799E+02  0.00000000000E+00 0. -1.
         22   -1    0    0    0    0 -0.00000000000E+00 -0.00000000000E+00 -0.47280396916E+00  0.47280396916E+00  0.00000000000E+00 0.  1.
          4    1    1    2  501    0 -0.18424541193E+01  0.84399001023E+00  0.23847109247E+01  0.31295051547E+01  0.00000000000E+00 0.  1.
         -4    1    1    2    0  501  0.18424541193E+01 -0.84399001023E+00  0.10125379905E+02  0.10326193614E+02  0.00000000000E+00 0. -1.
<mgrwt>
<rscale>  0 0.20265627E+01</rscale>
<asrwt>0</asrwt>
<pdfrwt beam="1">0</pdfrwt>
<pdfrwt beam="2">0</pdfrwt>
<totfact> 0.27022267E+12</totfact>
</mgrwt>
</event>
<event>
 4    2  0.2093759E+006  0.8013678E+01  0.7546771E-02  0.1875488E+00
         22   -1    0    0    0    0  0.00000000000E+00  0.00000000000E+00  0.18086289213E+01  0.18086289213E+01  0.00000000000E+00 0.  1.
         22   -1    0    0    0    0 -0.00000000000E+00 -0.00000000000E+00 -0.40447324803E+02  0.40447324803E+02  0.00000000000E+00 0. -1.
          4    1    1    2  501    0  0.35880887427E+01  0.71655180948E+01 -0.11935381559E+02  0.14376103900E+02  0.00000000000E+00 0. -1.
         -4    1    1    2    0  501 -0.35880887427E+01 -0.71655180948E+01 -0.26703314322E+02  0.27879849824E+02  0.00000000000E+00 0.  1.
<mgrwt>
<rscale>  0 0.80136777E+01</rscale>
<asrwt>0</asrwt>
<pdfrwt beam="1">0</pdfrwt>
<pdfrwt beam="2">0</pdfrwt>
<totfact> 0.14013005E+11</totfact>
</mgrwt>
</event>
<event>
 4    2  0.2093759E+006  0.2538208E+01  0.7546771E-02  0.2691921E+00
         22   -1    0    0    0    0  0.00000000000E+00  0.00000000000E+00  0.29890664183E+00  0.29890664183E+00  0.00000000000E+00 0.  1.
         22   -1    0    0    0    0 -0.00000000000E+00 -0.00000000000E+00 -0.31056468938E+02  0.31056468938E+02  0.00000000000E+00 0. -1.
          4    1    1    2  501    0 -0.87934503784E+00  0.23810189450E+01 -0.67064767774E+01  0.71707272768E+01  0.00000000000E+00 0.  1.
         -4    1    1    2    0  501  0.87934503784E+00 -0.23810189450E+01 -0.24051085518E+02  0.24184648303E+02  0.00000000000E+00 0. -1.
<mgrwt>
<rscale>  0 0.25382078E+01</rscale>
<asrwt>0</asrwt>
<pdfrwt beam="1">0</pdfrwt>
<pdfrwt beam="2">0</pdfrwt>
<totfact> 0.15238813E+12</totfact>
</mgrwt>
</event>
<event>
 4    2  0.2093759E+006  0.3208652E+01  0.7546771E-02  0.2460091E+00
         22   -1    0    0    0    0  0.00000000000E+00  0.00000000000E+00  0.66270243925E+01  0.66270243925E+01  0.00000000000E+00 0. -1.
         22   -1    0    0    0    0 -0.00000000000E+00 -0.00000000000E+00 -0.23015449894E+01  0.23015449894E+01  0.00000000000E+00 0.  1.
          4    1    1    2  501    0 -0.89502602738E+00 -0.30812945891E+01 -0.38227323580E+00  0.32313434917E+01  0.00000000000E+00 0.  1.
         -4    1    1    2    0  501  0.89502602738E+00  0.30812945891E+01  0.47077526389E+01  0.56972258901E+01  0.00000000000E+00 0. -1.
<mgrwt>
<rscale>  0 0.32086520E+01</rscale>
<asrwt>0</asrwt>
<pdfrwt beam="1">0</pdfrwt>
<pdfrwt beam="2">0</pdfrwt>
<totfact> 0.99685953E+11</totfact>
</mgrwt>
</event>
<event>
 4    2  0.2093759E+006  0.3253887E+01  0.7546771E-02  0.2447566E+00
         22   -1    0    0    0    0  0.00000000000E+00  0.00000000000E+00  0.67166434314E+01  0.67166434314E+01  0.00000000000E+00 0. -1.
         22   -1    0    0    0    0 -0.00000000000E+00 -0.00000000000E+00 -0.53554996662E+01  0.53554996662E+01  0.00000000000E+00 0.  1.
          4    1    1    2  501    0 -0.62264036094E+00  0.31937593757E+01 -0.43899356747E+01  0.54643677765E+01  0.00000000000E+00 0.  1.
         -4    1    1    2    0  501  0.62264036094E+00 -0.31937593757E+01  0.57510794400E+01  0.66077753211E+01  0.00000000000E+00 0. -1.
<mgrwt>
<rscale>  0 0.32538869E+01</rscale>
<asrwt>0</asrwt>
<pdfrwt beam="1">0</pdfrwt>
<pdfrwt beam="2">0</pdfrwt>
<totfact> 0.36425802E+11</totfact>
</mgrwt>
</event>
<event>
 4    2  0.2093759E+006  0.3084002E+01  0.7546771E-02  0.2496283E+00
         22   -1    0    0    0    0  0.00000000000E+00  0.00000000000E+00  0.53125341854E+00  0.53125341854E+00  0.00000000000E+00 0. -1.
         22   -1    0    0    0    0 -0.00000000000E+00 -0.00000000000E+00 -0.20043101597E+02  0.20043101597E+02  0.00000000000E+00 0.  1.
          4    1    1    2  501    0 -0.27944492313E+01  0.13046544989E+01 -0.63944997411E+01  0.70993448153E+01  0.00000000000E+00 0.  1.
         -4    1    1    2    0  501  0.27944492313E+01 -0.13046544989E+01 -0.13117348437E+02  0.13475010200E+02  0.00000000000E+00 0. -1.
<mgrwt>
<rscale>  0 0.30840022E+01</rscale>
<asrwt>0</asrwt>
<pdfrwt beam="1">0</pdfrwt>
<pdfrwt beam="2">0</pdfrwt>
<totfact> 0.13859351E+12</totfact>
</mgrwt>
</event>
<event>
 4    2  0.2093759E+006  0.2076070E+01  0.7546771E-02  0.2931204E+00
         22   -1    0    0    0    0  0.00000000000E+00  0.00000000000E+00  0.18088278624E+01  0.18088278624E+01  0.00000000000E+00 0.  1.
         22   -1    0    0    0    0 -0.00000000000E+00 -0.00000000000E+00 -0.37332246112E+01  0.37332246112E+01  0.00000000000E+00 0. -1.
          4    1    1    2  501    0 -0.20760501133E+01  0.91587509128E-02 -0.26288098918E+01  0.33497327360E+01  0.00000000000E+00 0.  1.
         -4    1    1    2    0  501  0.20760501133E+01 -0.91587509128E-02  0.70441314298E+00  0.21923197376E+01  0.00000000000E+00 0. -1.
<mgrwt>
<rscale>  0 0.20760703E+01</rscale>
<asrwt>0</asrwt>
<pdfrwt beam="1">0</pdfrwt>
<pdfrwt beam="2">0</pdfrwt>
<totfact> 0.25991704E+12</totfact>
</mgrwt>
</event>
<event>
 4    2  0.2093759E+006  0.6201300E+01  0.7546771E-02  0.2002092E+00
         22   -1    0    0    0    0  0.00000000000E+00  0.00000000000E+00  0.89418162090E+01  0.89418162090E+01  0.00000000000E+00 0. -1.
         22   -1    0    0    0    0 -0.00000000000E+00 -0.00000000000E+00 -0.56178917198E+01  0.56178917198E+01  0.00000000000E+00 0.  1.
          4    1    1    2  501    0 -0.17441582002E+01 -0.59509694196E+01  0.51869649184E+01  0.80845983157E+01  0.00000000000E+00 0. -1.
         -4    1    1    2    0  501  0.17441582002E+01  0.59509694196E+01 -0.18630404292E+01  0.64751096131E+01  0.00000000000E+00 0.  1.
<mgrwt>
<rscale>  0 0.62013003E+01</rscale>
<asrwt>0</asrwt>
<pdfrwt beam="1">0</pdfrwt>
<pdfrwt beam="2">0</pdfrwt>
<totfact> 0.24411672E+11</totfact>
</mgrwt>
</event>
<event>
 4    2  0.2093759E+006  0.3195030E+01  0.7546771E-02  0.2463924E+00
         22   -1    0    0    0    0  0.00000000000E+00  0.00000000000E+00  0.43576484906E+01  0.43576484906E+01  0.00000000000E+00 0. -1.
         22   -1    0    0    0    0 -0.00000000000E+00 -0.00000000000E+00 -0.29131077871E+01  0.29131077871E+01  0.00000000000E+00 0.  1.
          4    1    1    2  501    0 -0.34192085180E-01 -0.31948467732E+01 -0.88653381118E+00  0.33157438383E+01  0.00000000000E+00 0.  1.
         -4    1    1    2    0  501  0.34192085180E-01  0.31948467732E+01  0.23310745147E+01  0.39550124394E+01  0.00000000000E+00 0. -1.
<mgrwt>
<rscale>  0 0.31950297E+01</rscale>
<asrwt>0</asrwt>
<pdfrwt beam="1">0</pdfrwt>
<pdfrwt beam="2">0</pdfrwt>
<totfact> 0.12460422E+12</totfact>
</mgrwt>
</event>
<event>
 4    2  0.2093759E+006  0.2245106E+01  0.7546771E-02  0.2832823E+00
         22   -1    0    0    0    0  0.00000000000E+00  0.00000000000E+00  0.18563790083E+01  0.18563790083E+01  0.00000000000E+00 0. -1.
         22   -1    0    0    0    0 -0.00000000000E+00 -0.00000000000E+00 -0.29948816773E+01  0.29948816773E+01  0.00000000000E+00 0.  1.
          4    1    1    2  501    0  0.11185797053E+01 -0.19466076627E+01 -0.13104608692E+01  0.25995787426E+01  0.00000000000E+00 0.  1.
         -4    1    1    2    0  501 -0.11185797053E+01  0.19466076627E+01  0.17195820012E+00  0.22516819429E+01  0.00000000000E+00 0. -1.
<mgrwt>
<rscale>  0 0.22451062E+01</rscale>
<asrwt>0</asrwt>
<pdfrwt beam="1">0</pdfrwt>
<pdfrwt beam="2">0</pdfrwt>
<totfact> 0.32653859E+12</totfact>
</mgrwt>
</event>
<event>
 4    2  0.2093759E+006  0.5019146E+01  0.7546771E-02  0.2120725E+00
         22   -1    0    0    0    0  0.00000000000E+00  0.00000000000E+00  0.57188549418E+02  0.57188549418E+02  0.00000000000E+00 0.  1.
         22   -1    0    0    0    0 -0.00000000000E+00 -0.00000000000E+00 -0.47145033564E+00  0.47145033564E+00  0.00000000000E+00 0. -1.
          4    1    1    2  501    0  0.21141130742E+01 -0.45521805260E+01  0.20972252665E+02  0.21564489409E+02  0.00000000000E+00 0.  1.
         -4    1    1    2    0  501 -0.21141130742E+01  0.45521805260E+01  0.35744846418E+02  0.36095510345E+02  0.00000000000E+00 0. -1.
<mgrwt>
<rscale>  0 0.50191455E+01</rscale>
<asrwt>0</asrwt>
<pdfrwt beam="1">0</pdfrwt>
<pdfrwt beam="2">0</pdfrwt>
<totfact> 0.41191092E+11</totfact>
</mgrwt>
</event>
<event>
 4    2  0.2093759E+006  0.2547999E+01  0.7546771E-02  0.2687740E+00
         22   -1    0    0    0    0  0.00000000000E+00  0.00000000000E+00  0.31931109594E+02  0.31931109594E+02  0.00000000000E+00 0.  1.
         22   -1    0    0    0    0 -0.00000000000E+00 -0.00000000000E+00 -0.21020634626E+00  0.21020634626E+00  0.00000000000E+00 0. -1.
          4    1    1    2  501    0 -0.23714277927E+01  0.93200356092E+00  0.18768748866E+02  0.18940914298E+02  0.00000000000E+00 0.  1.
         -4    1    1    2    0  501  0.23714277927E+01 -0.93200356092E+00  0.12952154381E+02  0.13200401643E+02  0.00000000000E+00 0. -1.
<mgrwt>
<rscale>  0 0.25479993E+01</rscale>
<asrwt>0</asrwt>
<pdfrwt beam="1">0</pdfrwt>
<pdfrwt beam="2">0</pdfrwt>
<totfact> 0.21805623E+12</totfact>
</mgrwt>
</event>
<event>
 4    2  0.2093759E+006  0.3029004E+01  0.7546771E-02  0.2513093E+00
         22   -1    0    0    0    0  0.00000000000E+00  0.00000000000E+00  0.17588878074E+02  0.17588878074E+02  0.00000000000E+00 0.  1.
         22   -1    0    0    0    0 -0.00000000000E+00 -0.00000000000E+00 -0.15909276444E+01  0.15909276444E+01  0.00000000000E+00 0. -1.
          4    1    1    2  501    0 -0.36514586182E+00 -0.30069143475E+01  0.13687559832E+00  0.30320950386E+01  0.00000000000E+00 0. -1.
         -4    1    1    2    0  501  0.36514586182E+00  0.30069143475E+01  0.15861074832E+02  0.16147710680E+02  0.00000000000E+00 0.  1.
<mgrwt>
<rscale>  0 0.30290040E+01</rscale>
<asrwt>0</asrwt>
<pdfrwt beam="1">0</pdfrwt>
<pdfrwt beam="2">0</pdfrwt>
<totfact> 0.46661778E+11</totfact>
</mgrwt>
</event>
<event>
 4    2  0.2093759E+006  0.2941034E+01  0.7546771E-02  0.2541148E+00
         22   -1    0    0    0    0  0.00000000000E+00  0.00000000000E+00  0.21711279851E+01  0.21711279851E+01  0.00000000000E+00 0. -1.
         22   -1    0    0    0    0 -0.00000000000E+00 -0.00000000000E+00 -0.39896319654E+01  0.39896319654E+01  0.00000000000E+00 0.  1.
          4    1    1    2  501    0 -0.26694267628E+01  0.12344403254E+01 -0.79308283186E+00  0.30460897126E+01  0.00000000000E+00 0.  1.
         -4    1    1    2    0  501  0.26694267628E+01 -0.12344403254E+01 -0.10254211484E+01  0.31146702379E+01  0.00000000000E+00 0. -1.
<mgrwt>
<rscale>  0 0.29410342E+01</rscale>
<asrwt>0</asrwt>
<pdfrwt beam="1">0</pdfrwt>
<pdfrwt beam="2">0</pdfrwt>
<totfact> 0.19462676E+12</totfact>
</mgrwt>
</event>
<event>
 4    2  0.2093759E+006  0.2176152E+01  0.7546771E-02  0.2871178E+00
         22   -1    0    0    0    0  0.00000000000E+00  0.00000000000E+00  0.32493509976E+00  0.32493509976E+00  0.00000000000E+00 0.  1.
         22   -1    0    0    0    0 -0.00000000000E+00 -0.00000000000E+00 -0.22934728636E+02  0.22934728636E+02  0.00000000000E+00 0. -1.
          4    1    1    2  501    0  0.17059050553E+01 -0.13511204761E+01 -0.18326656148E+02  0.18455404742E+02  0.00000000000E+00 0. -1.
         -4    1    1    2    0  501 -0.17059050553E+01  0.13511204761E+01 -0.42831373880E+01  0.48042589942E+01  0.00000000000E+00 0.  1.
<mgrwt>
<rscale>  0 0.21761522E+01</rscale>
<asrwt>0</asrwt>
<pdfrwt beam="1">0</pdfrwt>
<pdfrwt beam="2">0</pdfrwt>
<totfact> 0.20367374E+12</totfact>
</mgrwt>
</event>
<event>
 4    2  0.2093759E+006  0.2122168E+01  0.7546771E-02  0.2902876E+00
         22   -1    0    0    0    0  0.00000000000E+00  0.00000000000E+00  0.60498604762E+01  0.60498604762E+01  0.00000000000E+00 0.  1.
         22   -1    0    0    0    0 -0.00000000000E+00 -0.00000000000E+00 -0.83669977870E+00  0.83669977870E+00  0.00000000000E+00 0. -1.
          4    1    1    2  501    0 -0.18665743666E+01  0.10097023314E+01  0.14630287524E+01  0.25776058260E+01  0.00000000000E+00 0. -1.
         -4    1    1    2    0  501  0.18665743666E+01 -0.10097023314E+01  0.37501319451E+01  0.43089544289E+01  0.00000000000E+00 0.  1.
<mgrwt>
<rscale>  0 0.21221684E+01</rscale>
<asrwt>0</asrwt>
<pdfrwt beam="1">0</pdfrwt>
<pdfrwt beam="2">0</pdfrwt>
<totfact> 0.35545570E+12</totfact>
</mgrwt>
</event>
<event>
 4    2  0.2093759E+006  0.4243995E+01  0.7546771E-02  0.2232947E+00
         22   -1    0    0    0    0  0.00000000000E+00  0.00000000000E+00  0.27584202245E+01  0.27584202245E+01  0.00000000000E+00 0. -1.
         22   -1    0    0    0    0 -0.00000000000E+00 -0.00000000000E+00 -0.11062381890E+02  0.11062381890E+02  0.00000000000E+00 0.  1.
          4    1    1    2  501    0  0.26489155323E+00 -0.42357202177E+01 -0.85754131365E+01  0.95681348109E+01  0.00000000000E+00 0.  1.
         -4    1    1    2    0  501 -0.26489155323E+00  0.42357202177E+01  0.27145147063E+00  0.42526673040E+01  0.00000000000E+00 0. -1.
<mgrwt>
<rscale>  0 0.42439950E+01</rscale>
<asrwt>0</asrwt>
<pdfrwt beam="1">0</pdfrwt>
<pdfrwt beam="2">0</pdfrwt>
<totfact> 0.43564242E+11</totfact>
</mgrwt>
</event>
<event>
 4    2  0.2093759E+006  0.2613002E+01  0.7546771E-02  0.2660715E+00
         22   -1    0    0    0    0  0.00000000000E+00  0.00000000000E+00  0.85300488020E+00  0.85300488020E+00  0.00000000000E+00 0.  1.
         22   -1    0    0    0    0 -0.00000000000E+00 -0.00000000000E+00 -0.82481979044E+01  0.82481979044E+01  0.00000000000E+00 0. -1.
          4    1    1    2  501    0  0.15856836385E+01  0.20768688863E+01 -0.29152120642E+01  0.39148739892E+01  0.00000000000E+00 0. -1.
         -4    1    1    2    0  501 -0.15856836385E+01 -0.20768688863E+01 -0.44799809600E+01  0.51863287954E+01  0.00000000000E+00 0.  1.
<mgrwt>
<rscale>  0 0.26130015E+01</rscale>
<asrwt>0</asrwt>
<pdfrwt beam="1">0</pdfrwt>
<pdfrwt beam="2">0</pdfrwt>
<totfact> 0.23999174E+12</totfact>
</mgrwt>
</event>
<event>
 4    2  0.2093759E+006  0.4471606E+01  0.7546771E-02  0.2195295E+00
         22   -1    0    0    0    0  0.00000000000E+00  0.00000000000E+00  0.22501936135E+02  0.22501936135E+02  0.00000000000E+00 0.  1.
         22   -1    0    0    0    0 -0.00000000000E+00 -0.00000000000E+00 -0.10007967713E+01  0.10007967713E+01  0.00000000000E+00 0. -1.
          4    1    1    2  501    0  0.43251942780E+01  0.11348826760E+01  0.68159583751E+01  0.81518435217E+01  0.00000000000E+00 0. -1.
         -4    1    1    2    0  501 -0.43251942780E+01 -0.11348826760E+01  0.14685180989E+02  0.15350889385E+02  0.00000000000E+00 0.  1.
<mgrwt>
<rscale>  0 0.44716064E+01</rscale>
<asrwt>0</asrwt>
<pdfrwt beam="1">0</pdfrwt>
<pdfrwt beam="2">0</pdfrwt>
<totfact> 0.58405774E+11</totfact>
</mgrwt>
</event>
<event>
 4    2  0.2093759E+006  0.3195307E+01  0.7546771E-02  0.2463846E+00
         22   -1    0    0    0    0  0.00000000000E+00  0.00000000000E+00  0.17783742522E+01  0.17783742522E+01  0.00000000000E+00 0. -1.
         22   -1    0    0    0    0 -0.00000000000E+00 -0.00000000000E+00 -0.57622867597E+01  0.57622867597E+01  0.00000000000E+00 0.  1.
          4    1    1    2  501    0 -0.22003780248E+01 -0.23169638473E+01 -0.17638236978E+01  0.36498025918E+01  0.00000000000E+00 0.  1.
         -4    1    1    2    0  501  0.22003780248E+01  0.23169638473E+01 -0.22200888097E+01  0.38908584201E+01  0.00000000000E+00 0. -1.
<mgrwt>
<rscale>  0 0.31953067E+01</rscale>
<asrwt>0</asrwt>
<pdfrwt beam="1">0</pdfrwt>
<pdfrwt beam="2">0</pdfrwt>
<totfact> 0.15872640E+12</totfact>
</mgrwt>
</event>
<event>
 4    2  0.2093759E+006  0.4779202E+01  0.7546771E-02  0.2150319E+00
         22   -1    0    0    0    0  0.00000000000E+00  0.00000000000E+00  0.12347442624E+02  0.12347442624E+02  0.00000000000E+00 0.  1.
         22   -1    0    0    0    0 -0.00000000000E+00 -0.00000000000E+00 -0.18505871959E+01  0.18505871959E+01  0.00000000000E+00 0. -1.
          4    1    1    2  501    0  0.42167189761E+01 -0.22494566557E+01  0.53912215713E+01  0.72045849429E+01  0.00000000000E+00 0. -1.
         -4    1    1    2    0  501 -0.42167189761E+01  0.22494566557E+01  0.51056338572E+01  0.69934448774E+01  0.00000000000E+00 0.  1.
<mgrwt>
<rscale>  0 0.47792023E+01</rscale>
<asrwt>0</asrwt>
<pdfrwt beam="1">0</pdfrwt>
<pdfrwt beam="2">0</pdfrwt>
<totfact> 0.60559549E+11</totfact>
</mgrwt>
</event>
<event>
 4    2  0.2093759E+006  0.2605710E+01  0.7546771E-02  0.2663684E+00
         22   -1    0    0    0    0  0.00000000000E+00  0.00000000000E+00  0.54773992634E+01  0.54773992634E+01  0.00000000000E+00 0. -1.
         22   -1    0    0    0    0 -0.00000000000E+00 -0.00000000000E+00 -0.12831911758E+01  0.12831911758E+01  0.00000000000E+00 0.  1.
          4    1    1    2  501    0 -0.99346447162E+00 -0.24088907087E+01  0.14739993760E+01  0.29937268184E+01  0.00000000000E+00 0.  1.
         -4    1    1    2    0  501  0.99346447162E+00  0.24088907087E+01  0.27202087116E+01  0.37668636208E+01  0.00000000000E+00 0. -1.
<mgrwt>
<rscale>  0 0.26057103E+01</rscale>
<asrwt>0</asrwt>
<pdfrwt beam="1">0</pdfrwt>
<pdfrwt beam="2">0</pdfrwt>
<totfact> 0.24542041E+12</totfact>
</mgrwt>
</event>
<event>
 4    2  0.2093759E+006  0.2074539E+01  0.7546771E-02  0.2932166E+00
         22   -1    0    0    0    0  0.00000000000E+00  0.00000000000E+00  0.98501395422E+00  0.98501395422E+00  0.00000000000E+00 0. -1.
         22   -1    0    0    0    0 -0.00000000000E+00 -0.00000000000E+00 -0.64486812720E+01  0.64486812720E+01  0.00000000000E+00 0.  1.
          4    1    1    2  501    0  0.62247913782E+00 -0.19789470650E+01 -0.48424922718E+01  0.52681536771E+01  0.00000000000E+00 0.  1.
         -4    1    1    2    0  501 -0.62247913782E+00  0.19789470650E+01 -0.62117504591E+00  0.21655415491E+01  0.00000000000E+00 0. -1.
<mgrwt>
<rscale>  0 0.20745389E+01</rscale>
<asrwt>0</asrwt>
<pdfrwt beam="1">0</pdfrwt>
<pdfrwt beam="2">0</pdfrwt>
<totfact> 0.27348674E+12</totfact>
</mgrwt>
</event>
<event>
 4    2  0.2093759E+006  0.2077699E+01  0.7546771E-02  0.2930182E+00
         22   -1    0    0    0    0  0.00000000000E+00  0.00000000000E+00  0.30205746359E+01  0.30205746359E+01  0.00000000000E+00 0. -1.
         22   -1    0    0    0    0 -0.00000000000E+00 -0.00000000000E+00 -0.15936856328E+01  0.15936856328E+01  0.00000000000E+00 0.  1.
          4    1    1    2  501    0 -0.49157011390E+00  0.20187100886E+01 -0.27883899166E-01  0.20778857309E+01  0.00000000000E+00 0. -1.
         -4    1    1    2    0  501  0.49157011390E+00 -0.20187100886E+01  0.14547729023E+01  0.25363745378E+01  0.00000000000E+00 0.  1.
<mgrwt>
<rscale>  0 0.20776986E+01</rscale>
<asrwt>0</asrwt>
<pdfrwt beam="1">0</pdfrwt>
<pdfrwt beam="2">0</pdfrwt>
<totfact> 0.38551394E+12</totfact>
</mgrwt>
</event>
<event>
 4    2  0.2093759E+006  0.2141026E+01  0.7546771E-02  0.2891628E+00
         22   -1    0    0    0    0  0.00000000000E+00  0.00000000000E+00  0.20986932723E+01  0.20986932723E+01  0.00000000000E+00 0.  1.
         22   -1    0    0    0    0 -0.00000000000E+00 -0.00000000000E+00 -0.31417974859E+01  0.31417974859E+01  0.00000000000E+00 0. -1.
          4    1    1    2  501    0  0.25044912993E+00 -0.21263275195E+01 -0.19681285275E+01  0.29081821448E+01  0.00000000000E+00 0. -1.
         -4    1    1    2    0  501 -0.25044912993E+00  0.21263275195E+01  0.92502431382E+00  0.23323086134E+01  0.00000000000E+00 0.  1.
<mgrwt>
<rscale>  0 0.21410263E+01</rscale>
<asrwt>0</asrwt>
<pdfrwt beam="1">0</pdfrwt>
<pdfrwt beam="2">0</pdfrwt>
<totfact> 0.26789253E+12</totfact>
</mgrwt>
</event>
<event>
 4    2  0.2093759E+006  0.2025393E+01  0.7546771E-02  0.2963793E+00
         22   -1    0    0    0    0  0.00000000000E+00  0.00000000000E+00  0.19298677691E+01  0.19298677691E+01  0.00000000000E+00 0.  1.
         22   -1    0    0    0    0 -0.00000000000E+00 -0.00000000000E+00 -0.39574204444E+01  0.39574204444E+01  0.00000000000E+00 0. -1.
          4    1    1    2  501    0  0.20230344401E+01 -0.97715347793E-01 -0.30164728699E+01  0.36333627963E+01  0.00000000000E+00 0. -1.
         -4    1    1    2    0  501 -0.20230344401E+01  0.97715347793E-01  0.98892019453E+00  0.22539254172E+01  0.00000000000E+00 0.  1.
<mgrwt>
<rscale>  0 0.20253930E+01</rscale>
<asrwt>0</asrwt>
<pdfrwt beam="1">0</pdfrwt>
<pdfrwt beam="2">0</pdfrwt>
<totfact> 0.22518585E+12</totfact>
</mgrwt>
</event>
<event>
 4    2  0.2093759E+006  0.5778421E+01  0.7546771E-02  0.2040148E+00
         22   -1    0    0    0    0  0.00000000000E+00  0.00000000000E+00  0.15044917703E+01  0.15044917703E+01  0.00000000000E+00 0.  1.
         22   -1    0    0    0    0 -0.00000000000E+00 -0.00000000000E+00 -0.25904817768E+02  0.25904817768E+02  0.00000000000E+00 0. -1.
          4    1    1    2  501    0  0.36593726187E+01  0.44720393148E+01 -0.17387373923E+02  0.18322415658E+02  0.00000000000E+00 0.  1.
         -4    1    1    2    0  501 -0.36593726187E+01 -0.44720393148E+01 -0.70129520744E+01  0.90868938804E+01  0.00000000000E+00 0. -1.
<mgrwt>
<rscale>  0 0.57784205E+01</rscale>
<asrwt>0</asrwt>
<pdfrwt beam="1">0</pdfrwt>
<pdfrwt beam="2">0</pdfrwt>
<totfact> 0.30656081E+11</totfact>
</mgrwt>
</event>
<event>
 4    2  0.2093759E+006  0.2160760E+01  0.7546771E-02  0.2880060E+00
         22   -1    0    0    0    0  0.00000000000E+00  0.00000000000E+00  0.60508075688E+01  0.60508075688E+01  0.00000000000E+00 0. -1.
         22   -1    0    0    0    0 -0.00000000000E+00 -0.00000000000E+00 -0.82947468635E+00  0.82947468635E+00  0.00000000000E+00 0.  1.
          4    1    1    2  501    0  0.21600683399E+01 -0.54668004440E-01  0.17020743191E+01  0.27506255309E+01  0.00000000000E+00 0. -1.
         -4    1    1    2    0  501 -0.21600683399E+01  0.54668004440E-01  0.35192585634E+01  0.41296567242E+01  0.00000000000E+00 0.  1.
<mgrwt>
<rscale>  0 0.21607600E+01</rscale>
<asrwt>0</asrwt>
<pdfrwt beam="1">0</pdfrwt>
<pdfrwt beam="2">0</pdfrwt>
<totfact> 0.35891889E+12</totfact>
</mgrwt>
</event>
<event>
 4    2  0.2093759E+006  0.2135801E+01  0.7546771E-02  0.2894725E+00
         22   -1    0    0    0    0  0.00000000000E+00  0.00000000000E+00  0.18977512991E+01  0.18977512991E+01  0.00000000000E+00 0.  1.
         22   -1    0    0    0    0 -0.00000000000E+00 -0.00000000000E+00 -0.25287029485E+01  0.25287029485E+01  0.00000000000E+00 0. -1.
          4    1    1    2  501    0 -0.21211449088E+01  0.24978072193E+00 -0.80753538511E+00  0.22833658339E+01  0.00000000000E+00 0.  1.
         -4    1    1    2    0  501  0.21211449088E+01 -0.24978072193E+00  0.17658373570E+00  0.21430884137E+01  0.00000000000E+00 0. -1.
<mgrwt>
<rscale>  0 0.21358011E+01</rscale>
<asrwt>0</asrwt>
<pdfrwt beam="1">0</pdfrwt>
<pdfrwt beam="2">0</pdfrwt>
<totfact> 0.38772603E+12</totfact>
</mgrwt>
</event>
<event>
 4    2  0.2093759E+006  0.2289837E+01  0.7546771E-02  0.2809121E+00
         22   -1    0    0    0    0  0.00000000000E+00  0.00000000000E+00  0.16081273577E+02  0.16081273577E+02  0.00000000000E+00 0.  1.
         22   -1    0    0    0    0 -0.00000000000E+00 -0.00000000000E+00 -0.37751503958E+01  0.37751503958E+01  0.00000000000E+00 0. -1.
          4    1    1    2  501    0 -0.16632638271E+01 -0.15738195818E+01 -0.33367286669E+01  0.40468645679E+01  0.00000000000E+00 0. -1.
         -4    1    1    2    0  501  0.16632638271E+01  0.15738195818E+01  0.15642851848E+02  0.15809559405E+02  0.00000000000E+00 0.  1.
<mgrwt>
<rscale>  0 0.22898373E+01</rscale>
<asrwt>0</asrwt>
<pdfrwt beam="1">0</pdfrwt>
<pdfrwt beam="2">0</pdfrwt>
<totfact> 0.19082991E+11</totfact>
</mgrwt>
</event>
<event>
 4    2  0.2093759E+006  0.2075127E+01  0.7546771E-02  0.2931796E+00
         22   -1    0    0    0    0  0.00000000000E+00  0.00000000000E+00  0.77400769420E+01  0.77400769420E+01  0.00000000000E+00 0. -1.
         22   -1    0    0    0    0 -0.00000000000E+00 -0.00000000000E+00 -0.10233862860E+01  0.10233862860E+01  0.00000000000E+00 0.  1.
          4    1    1    2  501    0  0.98964436072E+00  0.18239394295E+01  0.39826334434E+00  0.21129989813E+01  0.00000000000E+00 0.  1.
         -4    1    1    2    0  501 -0.98964436072E+00 -0.18239394295E+01  0.63184273117E+01  0.66504642467E+01  0.00000000000E+00 0. -1.
<mgrwt>
<rscale>  0 0.20751267E+01</rscale>
<asrwt>0</asrwt>
<pdfrwt beam="1">0</pdfrwt>
<pdfrwt beam="2">0</pdfrwt>
<totfact> 0.21043958E+12</totfact>
</mgrwt>
</event>
<event>
 4    2  0.2093759E+006  0.2317860E+01  0.7546771E-02  0.2794716E+00
         22   -1    0    0    0    0  0.00000000000E+00  0.00000000000E+00  0.13141708565E+01  0.13141708565E+01  0.00000000000E+00 0.  1.
         22   -1    0    0    0    0 -0.00000000000E+00 -0.00000000000E+00 -0.44909090038E+01  0.44909090038E+01  0.00000000000E+00 0. -1.
          4    1    1    2  501    0  0.10920296834E+01 -0.20444921679E+01 -0.24576385596E+01  0.33782339090E+01  0.00000000000E+00 0. -1.
         -4    1    1    2    0  501 -0.10920296834E+01  0.20444921679E+01 -0.71909958771E+00  0.24268459513E+01  0.00000000000E+00 0.  1.
<mgrwt>
<rscale>  0 0.23178604E+01</rscale>
<asrwt>0</asrwt>
<pdfrwt beam="1">0</pdfrwt>
<pdfrwt beam="2">0</pdfrwt>
<totfact> 0.30206343E+12</totfact>
</mgrwt>
</event>
<event>
 4    2  0.2093759E+006  0.2411907E+01  0.7546771E-02  0.2748689E+00
         22   -1    0    0    0    0  0.00000000000E+00  0.00000000000E+00  0.29737956004E+01  0.29737956004E+01  0.00000000000E+00 0. -1.
         22   -1    0    0    0    0 -0.00000000000E+00 -0.00000000000E+00 -0.21996281287E+01  0.21996281287E+01  0.00000000000E+00 0.  1.
          4    1    1    2  501    0 -0.59203070068E+00  0.23381175170E+01  0.12476262378E+01  0.27154861633E+01  0.00000000000E+00 0. -1.
         -4    1    1    2    0  501  0.59203070068E+00 -0.23381175170E+01 -0.47345876613E+00  0.24579375657E+01  0.00000000000E+00 0.  1.
<mgrwt>
<rscale>  0 0.24119067E+01</rscale>
<asrwt>0</asrwt>
<pdfrwt beam="1">0</pdfrwt>
<pdfrwt beam="2">0</pdfrwt>
<totfact> 0.27053562E+12</totfact>
</mgrwt>
</event>
<event>
 4    2  0.2093759E+006  0.2567282E+01  0.7546771E-02  0.2679591E+00
         22   -1    0    0    0    0  0.00000000000E+00  0.00000000000E+00  0.40556309467E+00  0.40556309467E+00  0.00000000000E+00 0.  1.
         22   -1    0    0    0    0 -0.00000000000E+00 -0.00000000000E+00 -0.17657647476E+02  0.17657647476E+02  0.00000000000E+00 0. -1.
          4    1    1    2  501    0 -0.25429391808E+01  0.35269664593E+00 -0.11174879708E+02  0.11465987576E+02  0.00000000000E+00 0. -1.
         -4    1    1    2    0  501  0.25429391808E+01 -0.35269664593E+00 -0.60772046728E+01  0.65972229943E+01  0.00000000000E+00 0.  1.
<mgrwt>
<rscale>  0 0.25672816E+01</rscale>
<asrwt>0</asrwt>
<pdfrwt beam="1">0</pdfrwt>
<pdfrwt beam="2">0</pdfrwt>
<totfact> 0.21999380E+12</totfact>
</mgrwt>
</event>
<event>
 4    2  0.2093759E+006  0.2088488E+01  0.7546771E-02  0.2923453E+00
         22   -1    0    0    0    0  0.00000000000E+00  0.00000000000E+00  0.67985259542E+00  0.67985259542E+00  0.00000000000E+00 0. -1.
         22   -1    0    0    0    0 -0.00000000000E+00 -0.00000000000E+00 -0.69168770662E+01  0.69168770662E+01  0.00000000000E+00 0.  1.
          4    1    1    2  501    0  0.11245668018E+01 -0.17598673611E+01 -0.20961536319E+01  0.29589936920E+01  0.00000000000E+00 0. -1.
         -4    1    1    2    0  501 -0.11245668018E+01  0.17598673611E+01 -0.41408708388E+01  0.46377359696E+01  0.00000000000E+00 0.  1.
<mgrwt>
<rscale>  0 0.20884884E+01</rscale>
<asrwt>0</asrwt>
<pdfrwt beam="1">0</pdfrwt>
<pdfrwt beam="2">0</pdfrwt>
<totfact> 0.38356802E+12</totfact>
</mgrwt>
</event>
<event>
 4    2  0.2093759E+006  0.2790399E+01  0.7546771E-02  0.2592875E+00
         22   -1    0    0    0    0  0.00000000000E+00  0.00000000000E+00  0.10198104509E+01  0.10198104509E+01  0.00000000000E+00 0.  1.
         22   -1    0    0    0    0 -0.00000000000E+00 -0.00000000000E+00 -0.79637269449E+01  0.79637269449E+01  0.00000000000E+00 0. -1.
          4    1    1    2  501    0  0.26954435380E+01 -0.72174059831E+00 -0.43844518896E+01  0.51970899291E+01  0.00000000000E+00 0. -1.
         -4    1    1    2    0  501 -0.26954435380E+01  0.72174059831E+00 -0.25594646043E+01  0.37864474668E+01  0.00000000000E+00 0.  1.
<mgrwt>
<rscale>  0 0.27903988E+01</rscale>
<asrwt>0</asrwt>
<pdfrwt beam="1">0</pdfrwt>
<pdfrwt beam="2">0</pdfrwt>
<totfact> 0.20419668E+12</totfact>
</mgrwt>
</event>
<event>
 4    2  0.2093759E+006  0.2079463E+01  0.7546771E-02  0.2929077E+00
         22   -1    0    0    0    0  0.00000000000E+00  0.00000000000E+00  0.19210081742E+02  0.19210081742E+02  0.00000000000E+00 0. -1.
         22   -1    0    0    0    0 -0.00000000000E+00 -0.00000000000E+00 -0.23895652821E+00  0.23895652821E+00  0.00000000000E+00 0.  1.
          4    1    1    2  501    0  0.97407735224E+00  0.18372097336E+01  0.71437359263E+01  0.74402371788E+01  0.00000000000E+00 0. -1.
         -4    1    1    2    0  501 -0.97407735224E+00 -0.18372097336E+01  0.11827389288E+02  0.12008801091E+02  0.00000000000E+00 0.  1.
<mgrwt>
<rscale>  0 0.20794630E+01</rscale>
<asrwt>0</asrwt>
<pdfrwt beam="1">0</pdfrwt>
<pdfrwt beam="2">0</pdfrwt>
<totfact> 0.35863128E+12</totfact>
</mgrwt>
</event>
<event>
 4    2  0.2093759E+006  0.2103053E+01  0.7546771E-02  0.2914476E+00
         22   -1    0    0    0    0  0.00000000000E+00  0.00000000000E+00  0.13050974706E+00  0.13050974706E+00  0.00000000000E+00 0.  1.
         22   -1    0    0    0    0 -0.00000000000E+00 -0.00000000000E+00 -0.48732442109E+02  0.48732442109E+02  0.00000000000E+00 0. -1.
          4    1    1    2  501    0  0.13016770350E+01 -0.16518080442E+01 -0.37784671776E+02  0.37843153333E+02  0.00000000000E+00 0. -1.
         -4    1    1    2    0  501 -0.13016770350E+01  0.16518080442E+01 -0.10817260586E+02  0.11019798523E+02  0.00000000000E+00 0.  1.
<mgrwt>
<rscale>  0 0.21030532E+01</rscale>
<asrwt>0</asrwt>
<pdfrwt beam="1">0</pdfrwt>
<pdfrwt beam="2">0</pdfrwt>
<totfact> 0.21419926E+12</totfact>
</mgrwt>
</event>
<event>
 4    2  0.2093759E+006  0.2049706E+01  0.7546771E-02  0.2947961E+00
         22   -1    0    0    0    0  0.00000000000E+00  0.00000000000E+00  0.57917147319E-01  0.57917147319E-01  0.00000000000E+00 0.  1.
         22   -1    0    0    0    0 -0.00000000000E+00 -0.00000000000E+00 -0.73930475910E+02  0.73930475910E+02  0.00000000000E+00 0. -1.
          4    1    1    2  501    0  0.17691869659E+01  0.10350231550E+01 -0.31862373027E+02  0.31928233749E+02  0.00000000000E+00 0.  1.
         -4    1    1    2    0  501 -0.17691869659E+01 -0.10350231550E+01 -0.42010185736E+02  0.42060159308E+02  0.00000000000E+00 0. -1.
<mgrwt>
<rscale>  0 0.20497062E+01</rscale>
<asrwt>0</asrwt>
<pdfrwt beam="1">0</pdfrwt>
<pdfrwt beam="2">0</pdfrwt>
<totfact> 0.30094705E+12</totfact>
</mgrwt>
</event>
<event>
 4    2  0.2093759E+006  0.2680851E+01  0.7546771E-02  0.2633797E+00
         22   -1    0    0    0    0  0.00000000000E+00  0.00000000000E+00  0.25825345885E+02  0.25825345885E+02  0.00000000000E+00 0. -1.
         22   -1    0    0    0    0 -0.00000000000E+00 -0.00000000000E+00 -0.29772507901E+00  0.29772507901E+00  0.00000000000E+00 0.  1.
          4    1    1    2  501    0  0.18258523297E+01 -0.19629629583E+01  0.94267124784E+01  0.98005034798E+01  0.00000000000E+00 0. -1.
         -4    1    1    2    0  501 -0.18258523297E+01  0.19629629583E+01  0.16100908328E+02  0.16322567484E+02  0.00000000000E+00 0.  1.
<mgrwt>
<rscale>  0 0.26808507E+01</rscale>
<asrwt>0</asrwt>
<pdfrwt beam="1">0</pdfrwt>
<pdfrwt beam="2">0</pdfrwt>
<totfact> 0.19347941E+12</totfact>
</mgrwt>
</event>
<event>
 4    2  0.2093759E+006  0.2476047E+01  0.7546771E-02  0.2719186E+00
         22   -1    0    0    0    0  0.00000000000E+00  0.00000000000E+00  0.16527370186E+01  0.16527370186E+01  0.00000000000E+00 0. -1.
         22   -1    0    0    0    0 -0.00000000000E+00 -0.00000000000E+00 -0.37095621061E+01  0.37095621061E+01  0.00000000000E+00 0.  1.
          4    1    1    2  501    0 -0.20140005523E+01 -0.14403499767E+01 -0.10163384130E+01  0.26765182700E+01  0.00000000000E+00 0.  1.
         -4    1    1    2    0  501  0.20140005523E+01  0.14403499767E+01 -0.10404866745E+01  0.26857808548E+01  0.00000000000E+00 0. -1.
<mgrwt>
<rscale>  0 0.24760465E+01</rscale>
<asrwt>0</asrwt>
<pdfrwt beam="1">0</pdfrwt>
<pdfrwt beam="2">0</pdfrwt>
<totfact> 0.29062554E+12</totfact>
</mgrwt>
</event>
<event>
 4    2  0.2093759E+006  0.3533289E+01  0.7546771E-02  0.2376502E+00
         22   -1    0    0    0    0  0.00000000000E+00  0.00000000000E+00  0.22560276779E+02  0.22560276779E+02  0.00000000000E+00 0. -1.
         22   -1    0    0    0    0 -0.00000000000E+00 -0.00000000000E+00 -0.10628452282E+01  0.10628452282E+01  0.00000000000E+00 0.  1.
          4    1    1    2  501    0 -0.22193274438E+01 -0.27493115377E+01  0.25709474139E+01  0.43696566043E+01  0.00000000000E+00 0.  1.
         -4    1    1    2    0  501  0.22193274438E+01  0.27493115377E+01  0.18926484137E+02  0.19253465403E+02  0.00000000000E+00 0. -1.
<mgrwt>
<rscale>  0 0.35332886E+01</rscale>
<asrwt>0</asrwt>
<pdfrwt beam="1">0</pdfrwt>
<pdfrwt beam="2">0</pdfrwt>
<totfact> 0.54349440E+11</totfact>
</mgrwt>
</event>
<event>
 4    2  0.2093759E+006  0.3387035E+01  0.7546771E-02  0.2412419E+00
         22   -1    0    0    0    0  0.00000000000E+00  0.00000000000E+00  0.17718825969E+02  0.17718825969E+02  0.00000000000E+00 0. -1.
         22   -1    0    0    0    0 -0.00000000000E+00 -0.00000000000E+00 -0.17964139799E+01  0.17964139799E+01  0.00000000000E+00 0.  1.
          4    1    1    2  501    0  0.33547026417E+01 -0.46687888033E+00  0.15761664294E+00  0.33907003273E+01  0.00000000000E+00 0.  1.
         -4    1    1    2    0  501 -0.33547026417E+01  0.46687888033E+00  0.15764795346E+02  0.16124539621E+02  0.00000000000E+00 0. -1.
<mgrwt>
<rscale>  0 0.33870349E+01</rscale>
<asrwt>0</asrwt>
<pdfrwt beam="1">0</pdfrwt>
<pdfrwt beam="2">0</pdfrwt>
<totfact> 0.40193154E+11</totfact>
</mgrwt>
</event>
<event>
 4    2  0.2093759E+006  0.2379949E+01  0.7546771E-02  0.2763945E+00
         22   -1    0    0    0    0  0.00000000000E+00  0.00000000000E+00  0.58199043243E+01  0.58199043243E+01  0.00000000000E+00 0.  1.
         22   -1    0    0    0    0 -0.00000000000E+00 -0.00000000000E+00 -0.48312236412E+01  0.48312236412E+01  0.00000000000E+00 0. -1.
          4    1    1    2  501    0 -0.14739103718E+01  0.18686216863E+01 -0.42646768551E+01  0.48838128003E+01  0.00000000000E+00 0. -1.
         -4    1    1    2    0  501  0.14739103718E+01 -0.18686216863E+01  0.52533575382E+01  0.57673151652E+01  0.00000000000E+00 0.  1.
<mgrwt>
<rscale>  0 0.23799493E+01</rscale>
<asrwt>0</asrwt>
<pdfrwt beam="1">0</pdfrwt>
<pdfrwt beam="2">0</pdfrwt>
<totfact> 0.48817281E+11</totfact>
</mgrwt>
</event>
<event>
 4    2  0.2093759E+006  0.2666747E+01  0.7546771E-02  0.2639289E+00
         22   -1    0    0    0    0  0.00000000000E+00  0.00000000000E+00  0.40468441422E+01  0.40468441422E+01  0.00000000000E+00 0. -1.
         22   -1    0    0    0    0 -0.00000000000E+00 -0.00000000000E+00 -0.19628133233E+01  0.19628133233E+01  0.00000000000E+00 0.  1.
          4    1    1    2  501    0 -0.25327319229E+01 -0.83474965920E+00  0.69726540992E-01  0.26676581073E+01  0.00000000000E+00 0.  1.
         -4    1    1    2    0  501  0.25327319229E+01  0.83474965920E+00  0.20143042778E+01  0.33419993583E+01  0.00000000000E+00 0. -1.
<mgrwt>
<rscale>  0 0.26667467E+01</rscale>
<asrwt>0</asrwt>
<pdfrwt beam="1">0</pdfrwt>
<pdfrwt beam="2">0</pdfrwt>
<totfact> 0.21510955E+12</totfact>
</mgrwt>
</event>
<event>
 4    2  0.2093759E+006  0.2059255E+01  0.7546771E-02  0.2941844E+00
         22   -1    0    0    0    0  0.00000000000E+00  0.00000000000E+00  0.19548289719E+01  0.19548289719E+01  0.00000000000E+00 0.  1.
         22   -1    0    0    0    0 -0.00000000000E+00 -0.00000000000E+00 -0.26329283216E+01  0.26329283216E+01  0.00000000000E+00 0. -1.
          4    1    1    2  501    0  0.10046282578E+01 -0.17975687923E+01 -0.13016695493E+01  0.24361599116E+01  0.00000000000E+00 0. -1.
         -4    1    1    2    0  501 -0.10046282578E+01  0.17975687923E+01  0.62357019960E+00  0.21515973818E+01  0.00000000000E+00 0.  1.
<mgrwt>
<rscale>  0 0.20592551E+01</rscale>
<asrwt>0</asrwt>
<pdfrwt beam="1">0</pdfrwt>
<pdfrwt beam="2">0</pdfrwt>
<totfact> 0.35744828E+12</totfact>
</mgrwt>
</event>
<event>
 4    2  0.2093759E+006  0.2004622E+01  0.7546771E-02  0.2977615E+00
         22   -1    0    0    0    0  0.00000000000E+00  0.00000000000E+00  0.62451060609E+00  0.62451060609E+00  0.00000000000E+00 0. -1.
         22   -1    0    0    0    0 -0.00000000000E+00 -0.00000000000E+00 -0.74828621313E+01  0.74828621313E+01  0.00000000000E+00 0.  1.
          4    1    1    2  501    0 -0.14350974862E+01 -0.13996440980E+01 -0.49463674598E+01  0.53371396313E+01  0.00000000000E+00 0.  1.
         -4    1    1    2    0  501  0.14350974862E+01  0.13996440980E+01 -0.19119840653E+01  0.27702331061E+01  0.00000000000E+00 0. -1.
<mgrwt>
<rscale>  0 0.20046218E+01</rscale>
<asrwt>0</asrwt>
<pdfrwt beam="1">0</pdfrwt>
<pdfrwt beam="2">0</pdfrwt>
<totfact> 0.38436659E+12</totfact>
</mgrwt>
</event>
<event>
 4    2  0.2093759E+006  0.2264542E+01  0.7546771E-02  0.2822414E+00
         22   -1    0    0    0    0  0.00000000000E+00  0.00000000000E+00  0.10355819369E+01  0.10355819369E+01  0.00000000000E+00 0. -1.
         22   -1    0    0    0    0 -0.00000000000E+00 -0.00000000000E+00 -0.53543390490E+01  0.53543390490E+01  0.00000000000E+00 0.  1.
          4    1    1    2  501    0  0.43617866892E+00 -0.22221383249E+01 -0.30352398316E+01  0.37869290199E+01  0.00000000000E+00 0. -1.
         -4    1    1    2    0  501 -0.43617866892E+00  0.22221383249E+01 -0.12835172805E+01  0.26029919661E+01  0.00000000000E+00 0.  1.
<mgrwt>
<rscale>  0 0.22645420E+01</rscale>
<asrwt>0</asrwt>
<pdfrwt beam="1">0</pdfrwt>
<pdfrwt beam="2">0</pdfrwt>
<totfact> 0.32225893E+12</totfact>
</mgrwt>
</event>
<event>
 4    2  0.2093759E+006  0.3636389E+01  0.7546771E-02  0.2352701E+00
         22   -1    0    0    0    0  0.00000000000E+00  0.00000000000E+00  0.10170862680E+01  0.10170862680E+01  0.00000000000E+00 0.  1.
         22   -1    0    0    0    0 -0.00000000000E+00 -0.00000000000E+00 -0.14422372716E+02  0.14422372716E+02  0.00000000000E+00 0. -1.
          4    1    1    2  501    0 -0.35192668839E+01  0.91547145175E+00 -0.91259553211E+01  0.98237664825E+01  0.00000000000E+00 0. -1.
         -4    1    1    2    0  501  0.35192668839E+01 -0.91547145175E+00 -0.42793311267E+01  0.56156925014E+01  0.00000000000E+00 0.  1.
<mgrwt>
<rscale>  0 0.36363893E+01</rscale>
<asrwt>0</asrwt>
<pdfrwt beam="1">0</pdfrwt>
<pdfrwt beam="2">0</pdfrwt>
<totfact> 0.99583174E+11</totfact>
</mgrwt>
</event>
<event>
 4    2  0.2093759E+006  0.2342045E+01  0.7546771E-02  0.2782547E+00
         22   -1    0    0    0    0  0.00000000000E+00  0.00000000000E+00  0.32211929272E+01  0.32211929272E+01  0.00000000000E+00 0. -1.
         22   -1    0    0    0    0 -0.00000000000E+00 -0.00000000000E+00 -0.22145891019E+01  0.22145891019E+01  0.00000000000E+00 0.  1.
          4    1    1    2  501    0  0.21959135548E+01  0.81433347526E+00 -0.80321221617E+00  0.24759493559E+01  0.00000000000E+00 0.  1.
         -4    1    1    2    0  501 -0.21959135548E+01 -0.81433347526E+00  0.18098160414E+01  0.29598326731E+01  0.00000000000E+00 0. -1.
<mgrwt>
<rscale>  0 0.23420451E+01</rscale>
<asrwt>0</asrwt>
<pdfrwt beam="1">0</pdfrwt>
<pdfrwt beam="2">0</pdfrwt>
<totfact> 0.24447395E+12</totfact>
</mgrwt>
</event>
<event>
 4    2  0.2093759E+006  0.2198805E+01  0.7546771E-02  0.2858323E+00
         22   -1    0    0    0    0  0.00000000000E+00  0.00000000000E+00  0.30378768295E+01  0.30378768295E+01  0.00000000000E+00 0. -1.
         22   -1    0    0    0    0 -0.00000000000E+00 -0.00000000000E+00 -0.28913392031E+01  0.28913392031E+01  0.00000000000E+00 0.  1.
          4    1    1    2  501    0 -0.10978705461E+01 -0.19051041432E+01 -0.19144948198E+01  0.29154814264E+01  0.00000000000E+00 0.  1.
         -4    1    1    2    0  501  0.10978705461E+01  0.19051041432E+01  0.20610324462E+01  0.30137346062E+01  0.00000000000E+00 0. -1.
<mgrwt>
<rscale>  0 0.21988046E+01</rscale>
<asrwt>0</asrwt>
<pdfrwt beam="1">0</pdfrwt>
<pdfrwt beam="2">0</pdfrwt>
<totfact> 0.19197066E+12</totfact>
</mgrwt>
</event>
<event>
 4    2  0.2093759E+006  0.2066510E+01  0.7546771E-02  0.2937232E+00
         22   -1    0    0    0    0  0.00000000000E+00  0.00000000000E+00  0.15473374431E+02  0.15473374431E+02  0.00000000000E+00 0. -1.
         22   -1    0    0    0    0 -0.00000000000E+00 -0.00000000000E+00 -0.68590763357E+00  0.68590763357E+00  0.00000000000E+00 0.  1.
          4    1    1    2  501    0  0.15428791829E+01  0.13747683083E+01  0.11476372925E+01  0.23637968249E+01  0.00000000000E+00 0.  1.
         -4    1    1    2    0  501 -0.15428791829E+01 -0.13747683083E+01  0.13639829505E+02  0.13795485240E+02  0.00000000000E+00 0. -1.
<mgrwt>
<rscale>  0 0.20665101E+01</rscale>
<asrwt>0</asrwt>
<pdfrwt beam="1">0</pdfrwt>
<pdfrwt beam="2">0</pdfrwt>
<totfact> 0.14299882E+12</totfact>
</mgrwt>
</event>
<event>
 4    2  0.2093759E+006  0.2137718E+01  0.7546771E-02  0.2893587E+00
         22   -1    0    0    0    0  0.00000000000E+00  0.00000000000E+00  0.37950787452E+02  0.37950787452E+02  0.00000000000E+00 0.  1.
         22   -1    0    0    0    0 -0.00000000000E+00 -0.00000000000E+00 -0.22678104544E+00  0.22678104544E+00  0.00000000000E+00 0. -1.
          4    1    1    2  501    0  0.18874699352E+01  0.10036415794E+01  0.57889610158E+01  0.61710541092E+01  0.00000000000E+00 0. -1.
         -4    1    1    2    0  501 -0.18874699352E+01 -0.10036415794E+01  0.31935045390E+02  0.32006514388E+02  0.00000000000E+00 0.  1.
<mgrwt>
<rscale>  0 0.21377182E+01</rscale>
<asrwt>0</asrwt>
<pdfrwt beam="1">0</pdfrwt>
<pdfrwt beam="2">0</pdfrwt>
<totfact> 0.16042173E+12</totfact>
</mgrwt>
</event>
<event>
 4    2  0.2093759E+006  0.2336968E+01  0.7546771E-02  0.2785082E+00
         22   -1    0    0    0    0  0.00000000000E+00  0.00000000000E+00  0.76876334296E+02  0.76876334296E+02  0.00000000000E+00 0. -1.
         22   -1    0    0    0    0 -0.00000000000E+00 -0.00000000000E+00 -0.30693295512E+00  0.30693295512E+00  0.00000000000E+00 0.  1.
          4    1    1    2  501    0 -0.19176316229E+01 -0.13357051996E+01  0.44527221937E+01  0.50287328778E+01  0.00000000000E+00 0.  1.
         -4    1    1    2    0  501  0.19176316229E+01  0.13357051996E+01  0.72116679147E+02  0.72154534373E+02  0.00000000000E+00 0. -1.
<mgrwt>
<rscale>  0 0.23369680E+01</rscale>
<asrwt>0</asrwt>
<pdfrwt beam="1">0</pdfrwt>
<pdfrwt beam="2">0</pdfrwt>
<totfact> 0.44764584E+11</totfact>
</mgrwt>
</event>
<event>
 4    2  0.2093759E+006  0.2032776E+01  0.7546771E-02  0.2958946E+00
         22   -1    0    0    0    0  0.00000000000E+00  0.00000000000E+00  0.94812005810E+02  0.94812005810E+02  0.00000000000E+00 0. -1.
         22   -1    0    0    0    0 -0.00000000000E+00 -0.00000000000E+00 -0.64406382316E-01  0.64406382316E-01  0.00000000000E+00 0.  1.
          4    1    1    2  501    0  0.18563540202E+01  0.82832955328E+00  0.20400087993E+02  0.20501116316E+02  0.00000000000E+00 0.  1.
         -4    1    1    2    0  501 -0.18563540202E+01 -0.82832955328E+00  0.74347511434E+02  0.74375295875E+02  0.00000000000E+00 0. -1.
<mgrwt>
<rscale>  0 0.20327765E+01</rscale>
<asrwt>0</asrwt>
<pdfrwt beam="1">0</pdfrwt>
<pdfrwt beam="2">0</pdfrwt>
<totfact> 0.18987733E+12</totfact>
</mgrwt>
</event>
<event>
 4    2  0.2093759E+006  0.3702551E+01  0.7546771E-02  0.2338034E+00
         22   -1    0    0    0    0  0.00000000000E+00  0.00000000000E+00  0.38233792150E+01  0.38233792150E+01  0.00000000000E+00 0.  1.
         22   -1    0    0    0    0 -0.00000000000E+00 -0.00000000000E+00 -0.35942432915E+01  0.35942432915E+01  0.00000000000E+00 0. -1.
          4    1    1    2  501    0  0.76438127328E+00 -0.36227894815E+01  0.29706321259E+00  0.37144486685E+01  0.00000000000E+00 0.  1.
         -4    1    1    2    0  501 -0.76438127328E+00  0.36227894815E+01 -0.67927289098E-01  0.37031738381E+01  0.00000000000E+00 0. -1.
<mgrwt>
<rscale>  0 0.37025508E+01</rscale>
<asrwt>0</asrwt>
<pdfrwt beam="1">0</pdfrwt>
<pdfrwt beam="2">0</pdfrwt>
<totfact> 0.11366258E+12</totfact>
</mgrwt>
</event>
<event>
 4    2  0.2093759E+006  0.2083122E+01  0.7546771E-02  0.2926791E+00
         22   -1    0    0    0    0  0.00000000000E+00  0.00000000000E+00  0.37541704444E+02  0.37541704444E+02  0.00000000000E+00 0. -1.
         22   -1    0    0    0    0 -0.00000000000E+00 -0.00000000000E+00 -0.16256659673E+01  0.16256659673E+01  0.00000000000E+00 0.  1.
          4    1    1    2  501    0  0.11655813717E+01  0.17265048858E+01 -0.91660606381E+00  0.22758659299E+01  0.00000000000E+00 0.  1.
         -4    1    1    2    0  501 -0.11655813717E+01 -0.17265048858E+01  0.36832644540E+02  0.36891504481E+02  0.00000000000E+00 0. -1.
<mgrwt>
<rscale>  0 0.20831224E+01</rscale>
<asrwt>0</asrwt>
<pdfrwt beam="1">0</pdfrwt>
<pdfrwt beam="2">0</pdfrwt>
<totfact> 0.17452533E+11</totfact>
</mgrwt>
</event>
<event>
 4    2  0.2093759E+006  0.2927077E+01  0.7546771E-02  0.2545739E+00
         22   -1    0    0    0    0  0.00000000000E+00  0.00000000000E+00  0.34307237870E+00  0.34307237870E+00  0.00000000000E+00 0. -1.
         22   -1    0    0    0    0 -0.00000000000E+00 -0.00000000000E+00 -0.30442025819E+02  0.30442025819E+02  0.00000000000E+00 0.  1.
          4    1    1    2  501    0 -0.10524967636E+01 -0.27313059331E+01 -0.21573290527E+02  0.21770958769E+02  0.00000000000E+00 0. -1.
         -4    1    1    2    0  501  0.10524967636E+01  0.27313059331E+01 -0.85256629129E+01  0.90141394288E+01  0.00000000000E+00 0.  1.
<mgrwt>
<rscale>  0 0.29270773E+01</rscale>
<asrwt>0</asrwt>
<pdfrwt beam="1">0</pdfrwt>
<pdfrwt beam="2">0</pdfrwt>
<totfact> 0.13392801E+12</totfact>
</mgrwt>
</event>
<event>
 4    2  0.2093759E+006  0.8343931E+01  0.7546771E-02  0.1857040E+00
         22   -1    0    0    0    0  0.00000000000E+00  0.00000000000E+00  0.52817523997E+02  0.52817523997E+02  0.00000000000E+00 0. -1.
         22   -1    0    0    0    0 -0.00000000000E+00 -0.00000000000E+00 -0.18048708449E+01  0.18048708449E+01  0.00000000000E+00 0.  1.
          4    1    1    2  501    0 -0.68569832808E+01  0.47542579954E+01  0.11323604369E+02  0.14065745793E+02  0.00000000000E+00 0.  1.
         -4    1    1    2    0  501  0.68569832808E+01 -0.47542579954E+01  0.39689048783E+02  0.40556649049E+02  0.00000000000E+00 0. -1.
<mgrwt>
<rscale>  0 0.83439313E+01</rscale>
<asrwt>0</asrwt>
<pdfrwt beam="1">0</pdfrwt>
<pdfrwt beam="2">0</pdfrwt>
<totfact> 0.98993806E+10</totfact>
</mgrwt>
</event>
<event>
 4    2  0.2093759E+006  0.3472262E+01  0.7546771E-02  0.2391167E+00
         22   -1    0    0    0    0  0.00000000000E+00  0.00000000000E+00  0.70077884458E+01  0.70077884458E+01  0.00000000000E+00 0.  1.
         22   -1    0    0    0    0 -0.00000000000E+00 -0.00000000000E+00 -0.30845921423E+01  0.30845921423E+01  0.00000000000E+00 0. -1.
          4    1    1    2  501    0  0.82716638349E+00 -0.33722990273E+01 -0.13941804941E+01  0.37417033830E+01  0.00000000000E+00 0. -1.
         -4    1    1    2    0  501 -0.82716638349E+00  0.33722990273E+01  0.53173767977E+01  0.63506772052E+01  0.00000000000E+00 0.  1.
<mgrwt>
<rscale>  0 0.34722622E+01</rscale>
<asrwt>0</asrwt>
<pdfrwt beam="1">0</pdfrwt>
<pdfrwt beam="2">0</pdfrwt>
<totfact> 0.66295575E+11</totfact>
</mgrwt>
</event>
<event>
 4    2  0.2093759E+006  0.2633459E+01  0.7546771E-02  0.2652464E+00
         22   -1    0    0    0    0  0.00000000000E+00  0.00000000000E+00  0.13540206222E+02  0.13540206222E+02  0.00000000000E+00 0. -1.
         22   -1    0    0    0    0 -0.00000000000E+00 -0.00000000000E+00 -0.11028099018E+01  0.11028099018E+01  0.00000000000E+00 0.  1.
          4    1    1    2  501    0 -0.35456131172E+00  0.26094817675E+01  0.86066253890E+00  0.27705322277E+01  0.00000000000E+00 0.  1.
         -4    1    1    2    0  501  0.35456131172E+00 -0.26094817675E+01  0.11576733782E+02  0.11872483896E+02  0.00000000000E+00 0. -1.
<mgrwt>
<rscale>  0 0.26334595E+01</rscale>
<asrwt>0</asrwt>
<pdfrwt beam="1">0</pdfrwt>
<pdfrwt beam="2">0</pdfrwt>
<totfact> 0.98092530E+11</totfact>
</mgrwt>
</event>
<event>
 4    2  0.2093759E+006  0.2774301E+01  0.7546771E-02  0.2598704E+00
         22   -1    0    0    0    0  0.00000000000E+00  0.00000000000E+00  0.95305008477E+00  0.95305008477E+00  0.00000000000E+00 0.  1.
         22   -1    0    0    0    0 -0.00000000000E+00 -0.00000000000E+00 -0.81209968025E+01  0.81209968025E+01  0.00000000000E+00 0. -1.
          4    1    1    2  501    0  0.18724868821E+01 -0.20470808453E+01 -0.39220296694E+01  0.48040674265E+01  0.00000000000E+00 0.  1.
         -4    1    1    2    0  501 -0.18724868821E+01  0.20470808453E+01 -0.32459170483E+01  0.42699794607E+01  0.00000000000E+00 0. -1.
<mgrwt>
<rscale>  0 0.27743012E+01</rscale>
<asrwt>0</asrwt>
<pdfrwt beam="1">0</pdfrwt>
<pdfrwt beam="2">0</pdfrwt>
<totfact> 0.21548271E+12</totfact>
</mgrwt>
</event>
<event>
 4    2  0.2093759E+006  0.2029965E+01  0.7546771E-02  0.2960787E+00
         22   -1    0    0    0    0  0.00000000000E+00  0.00000000000E+00  0.61596940793E+01  0.61596940793E+01  0.00000000000E+00 0.  1.
         22   -1    0    0    0    0 -0.00000000000E+00 -0.00000000000E+00 -0.11652742228E+01  0.11652742228E+01  0.00000000000E+00 0. -1.
          4    1    1    2  501    0  0.94720204974E+00 -0.17954297555E+01  0.10704475509E+00  0.20327858494E+01  0.00000000000E+00 0. -1.
         -4    1    1    2    0  501 -0.94720204974E+00  0.17954297555E+01  0.48873751014E+01  0.52921824527E+01  0.00000000000E+00 0.  1.
<mgrwt>
<rscale>  0 0.20299655E+01</rscale>
<asrwt>0</asrwt>
<pdfrwt beam="1">0</pdfrwt>
<pdfrwt beam="2">0</pdfrwt>
<totfact> 0.23835187E+12</totfact>
</mgrwt>
</event>
<event>
 4    2  0.2093759E+006  0.2723536E+01  0.7546771E-02  0.2617495E+00
         22   -1    0    0    0    0  0.00000000000E+00  0.00000000000E+00  0.14368266853E+02  0.14368266853E+02  0.00000000000E+00 0.  1.
         22   -1    0    0    0    0 -0.00000000000E+00 -0.00000000000E+00 -0.10358591845E+01  0.10358591845E+01  0.00000000000E+00 0. -1.
          4    1    1    2  501    0 -0.19196177152E+01 -0.19320234827E+01  0.12112099392E+01  0.29807174350E+01  0.00000000000E+00 0. -1.
         -4    1    1    2    0  501  0.19196177152E+01  0.19320234827E+01  0.12121197729E+02  0.12423408602E+02  0.00000000000E+00 0.  1.
<mgrwt>
<rscale>  0 0.27235357E+01</rscale>
<asrwt>0</asrwt>
<pdfrwt beam="1">0</pdfrwt>
<pdfrwt beam="2">0</pdfrwt>
<totfact> 0.97973781E+11</totfact>
</mgrwt>
</event>
<event>
 4    2  0.2093759E+006  0.2324208E+01  0.7546771E-02  0.2791499E+00
         22   -1    0    0    0    0  0.00000000000E+00  0.00000000000E+00  0.17134786440E+01  0.17134786440E+01  0.00000000000E+00 0.  1.
         22   -1    0    0    0    0 -0.00000000000E+00 -0.00000000000E+00 -0.33137406530E+01  0.33137406530E+01  0.00000000000E+00 0. -1.
          4    1    1    2  501    0 -0.17228125476E+01 -0.15600829424E+01 -0.13543970301E+01  0.26900433410E+01  0.00000000000E+00 0. -1.
         -4    1    1    2    0  501  0.17228125476E+01  0.15600829424E+01 -0.24586497884E+00  0.23371759560E+01  0.00000000000E+00 0.  1.
<mgrwt>
<rscale>  0 0.23242078E+01</rscale>
<asrwt>0</asrwt>
<pdfrwt beam="1">0</pdfrwt>
<pdfrwt beam="2">0</pdfrwt>
<totfact> 0.31821277E+12</totfact>
</mgrwt>
</event>
<event>
 4    2  0.2093759E+006  0.4048472E+01  0.7546771E-02  0.2268124E+00
         22   -1    0    0    0    0  0.00000000000E+00  0.00000000000E+00  0.85628092897E+02  0.85628092897E+02  0.00000000000E+00 0.  1.
         22   -1    0    0    0    0 -0.00000000000E+00 -0.00000000000E+00 -0.20861722772E+00  0.20861722772E+00  0.00000000000E+00 0. -1.
          4    1    1    2  501    0 -0.35814400167E+01 -0.18876995146E+01  0.55035569891E+02  0.55184273804E+02  0.00000000000E+00 0.  1.
         -4    1    1    2    0  501  0.35814400167E+01  0.18876995146E+01  0.30383905778E+02  0.30652436320E+02  0.00000000000E+00 0. -1.
<mgrwt>
<rscale>  0 0.40484716E+01</rscale>
<asrwt>0</asrwt>
<pdfrwt beam="1">0</pdfrwt>
<pdfrwt beam="2">0</pdfrwt>
<totfact> 0.59447340E+11</totfact>
</mgrwt>
</event>
<event>
 4    2  0.2093759E+006  0.2515504E+01  0.7546771E-02  0.2701734E+00
         22   -1    0    0    0    0  0.00000000000E+00  0.00000000000E+00  0.87279265163E+01  0.87279265163E+01  0.00000000000E+00 0.  1.
         22   -1    0    0    0    0 -0.00000000000E+00 -0.00000000000E+00 -0.17715707817E+01  0.17715707817E+01  0.00000000000E+00 0. -1.
          4    1    1    2  501    0 -0.20264372524E+01  0.14904065891E+01 -0.55681944309E+00  0.25763943081E+01  0.00000000000E+00 0. -1.
         -4    1    1    2    0  501  0.20264372524E+01 -0.14904065891E+01  0.75131751777E+01  0.79231029899E+01  0.00000000000E+00 0.  1.
<mgrwt>
<rscale>  0 0.25155039E+01</rscale>
<asrwt>0</asrwt>
<pdfrwt beam="1">0</pdfrwt>
<pdfrwt beam="2">0</pdfrwt>
<totfact> 0.96998835E+11</totfact>
</mgrwt>
</event>
<event>
 4    2  0.2093759E+006  0.3680947E+01  0.7546771E-02  0.2342773E+00
         22   -1    0    0    0    0  0.00000000000E+00  0.00000000000E+00  0.21050069338E+02  0.21050069338E+02  0.00000000000E+00 0. -1.
         22   -1    0    0    0    0 -0.00000000000E+00 -0.00000000000E+00 -0.83174425253E+00  0.83174425253E+00  0.00000000000E+00 0.  1.
          4    1    1    2  501    0  0.34327483100E+01  0.13287617954E+01  0.49065772803E+01  0.61338299190E+01  0.00000000000E+00 0.  1.
         -4    1    1    2    0  501 -0.34327483100E+01 -0.13287617954E+01  0.15311747806E+02  0.15747983672E+02  0.00000000000E+00 0. -1.
<mgrwt>
<rscale>  0 0.36809467E+01</rscale>
<asrwt>0</asrwt>
<pdfrwt beam="1">0</pdfrwt>
<pdfrwt beam="2">0</pdfrwt>
<totfact> 0.78405250E+11</totfact>
</mgrwt>
</event>
<event>
 4    2  0.2093759E+006  0.3192803E+01  0.7546771E-02  0.2464553E+00
         22   -1    0    0    0    0  0.00000000000E+00  0.00000000000E+00  0.56445946737E+01  0.56445946737E+01  0.00000000000E+00 0.  1.
         22   -1    0    0    0    0 -0.00000000000E+00 -0.00000000000E+00 -0.18505509842E+01  0.18505509842E+01  0.00000000000E+00 0. -1.
          4    1    1    2  501    0  0.31367030799E+01 -0.59589072987E+00  0.13153818705E+01  0.34531465997E+01  0.00000000000E+00 0. -1.
         -4    1    1    2    0  501 -0.31367030799E+01  0.59589072987E+00  0.24786618190E+01  0.40419990582E+01  0.00000000000E+00 0.  1.
<mgrwt>
<rscale>  0 0.31928032E+01</rscale>
<asrwt>0</asrwt>
<pdfrwt beam="1">0</pdfrwt>
<pdfrwt beam="2">0</pdfrwt>
<totfact> 0.15536172E+12</totfact>
</mgrwt>
</event>
<event>
 4    2  0.2093759E+006  0.2387208E+01  0.7546771E-02  0.2760446E+00
         22   -1    0    0    0    0  0.00000000000E+00  0.00000000000E+00  0.81447272865E+01  0.81447272865E+01  0.00000000000E+00 0.  1.
         22   -1    0    0    0    0 -0.00000000000E+00 -0.00000000000E+00 -0.73457224829E+00  0.73457224829E+00  0.00000000000E+00 0. -1.
          4    1    1    2  501    0 -0.23858798700E+01  0.79612161965E-01  0.27375762136E+01  0.36322285688E+01  0.00000000000E+00 0. -1.
         -4    1    1    2    0  501  0.23858798700E+01 -0.79612161965E-01  0.46725788246E+01  0.52470709661E+01  0.00000000000E+00 0.  1.
<mgrwt>
<rscale>  0 0.23872078E+01</rscale>
<asrwt>0</asrwt>
<pdfrwt beam="1">0</pdfrwt>
<pdfrwt beam="2">0</pdfrwt>
<totfact> 0.28881348E+12</totfact>
</mgrwt>
</event>
<event>
 4    2  0.2093759E+006  0.2017446E+01  0.7546771E-02  0.2969048E+00
         22   -1    0    0    0    0  0.00000000000E+00  0.00000000000E+00  0.10871504468E+02  0.10871504468E+02  0.00000000000E+00 0.  1.
         22   -1    0    0    0    0 -0.00000000000E+00 -0.00000000000E+00 -0.40140456905E+00  0.40140456905E+00  0.00000000000E+00 0. -1.
          4    1    1    2  501    0 -0.16879156632E+01  0.11050011986E+01  0.37725880416E+01  0.42781429928E+01  0.00000000000E+00 0. -1.
         -4    1    1    2    0  501  0.16879156632E+01 -0.11050011986E+01  0.66975118571E+01  0.69947660441E+01  0.00000000000E+00 0.  1.
<mgrwt>
<rscale>  0 0.20174456E+01</rscale>
<asrwt>0</asrwt>
<pdfrwt beam="1">0</pdfrwt>
<pdfrwt beam="2">0</pdfrwt>
<totfact> 0.40346147E+12</totfact>
</mgrwt>
</event>
<event>
 4    2  0.2093759E+006  0.4116500E+01  0.7546771E-02  0.2255563E+00
         22   -1    0    0    0    0  0.00000000000E+00  0.00000000000E+00  0.56857198608E+01  0.56857198608E+01  0.00000000000E+00 0. -1.
         22   -1    0    0    0    0 -0.00000000000E+00 -0.00000000000E+00 -0.30055046079E+01  0.30055046079E+01  0.00000000000E+00 0.  1.
          4    1    1    2  501    0 -0.34229366144E+01  0.22867176871E+01  0.94274049461E+00  0.42230714518E+01  0.00000000000E+00 0.  1.
         -4    1    1    2    0  501  0.34229366144E+01 -0.22867176871E+01  0.17374747582E+01  0.44681530169E+01  0.00000000000E+00 0. -1.
<mgrwt>
<rscale>  0 0.41165001E+01</rscale>
<asrwt>0</asrwt>
<pdfrwt beam="1">0</pdfrwt>
<pdfrwt beam="2">0</pdfrwt>
<totfact> 0.87684016E+11</totfact>
</mgrwt>
</event>
<event>
 4    2  0.2093759E+006  0.3415530E+01  0.7546771E-02  0.2405210E+00
         22   -1    0    0    0    0  0.00000000000E+00  0.00000000000E+00  0.40754587693E+01  0.40754587693E+01  0.00000000000E+00 0. -1.
         22   -1    0    0    0    0 -0.00000000000E+00 -0.00000000000E+00 -0.36570356519E+01  0.36570356519E+01  0.00000000000E+00 0.  1.
          4    1    1    2  501    0 -0.33980369740E+01  0.34523709867E+00 -0.15929438175E+01  0.37687284244E+01  0.00000000000E+00 0.  1.
         -4    1    1    2    0  501  0.33980369740E+01 -0.34523709867E+00  0.20113669349E+01  0.39637659968E+01  0.00000000000E+00 0. -1.
<mgrwt>
<rscale>  0 0.34155298E+01</rscale>
<asrwt>0</asrwt>
<pdfrwt beam="1">0</pdfrwt>
<pdfrwt beam="2">0</pdfrwt>
<totfact> 0.10331653E+12</totfact>
</mgrwt>
</event>
<event>
 4    2  0.2093759E+006  0.2111757E+01  0.7546771E-02  0.2909169E+00
         22   -1    0    0    0    0  0.00000000000E+00  0.00000000000E+00  0.51774283367E+01  0.51774283367E+01  0.00000000000E+00 0.  1.
         22   -1    0    0    0    0 -0.00000000000E+00 -0.00000000000E+00 -0.10162517560E+01  0.10162517560E+01  0.00000000000E+00 0. -1.
          4    1    1    2  501    0  0.78604711216E+00 -0.19600121679E+01  0.87148731241E+00  0.22845148055E+01  0.00000000000E+00 0. -1.
         -4    1    1    2    0  501 -0.78604711216E+00  0.19600121679E+01  0.32896892682E+01  0.39091652872E+01  0.00000000000E+00 0.  1.
<mgrwt>
<rscale>  0 0.21117570E+01</rscale>
<asrwt>0</asrwt>
<pdfrwt beam="1">0</pdfrwt>
<pdfrwt beam="2">0</pdfrwt>
<totfact> 0.34264362E+12</totfact>
</mgrwt>
</event>
<event>
 4    2  0.2093759E+006  0.4038499E+01  0.7546771E-02  0.2269995E+00
         22   -1    0    0    0    0  0.00000000000E+00  0.00000000000E+00  0.99812878263E+02  0.99812878263E+02  0.00000000000E+00 0.  1.
         22   -1    0    0    0    0 -0.00000000000E+00 -0.00000000000E+00 -0.21281505474E+00  0.21281505474E+00  0.00000000000E+00 0. -1.
          4    1    1    2  501    0 -0.29697386661E+01  0.27368098809E+01  0.73899516647E+02  0.74009783385E+02  0.00000000000E+00 0.  1.
         -4    1    1    2    0  501  0.29697386661E+01 -0.27368098809E+01  0.25700546561E+02  0.26015909933E+02  0.00000000000E+00 0. -1.
<mgrwt>
<rscale>  0 0.40384992E+01</rscale>
<asrwt>0</asrwt>
<pdfrwt beam="1">0</pdfrwt>
<pdfrwt beam="2">0</pdfrwt>
<totfact> 0.46943456E+11</totfact>
</mgrwt>
</event>
<event>
 4    2  0.2093759E+006  0.2326613E+01  0.7546771E-02  0.2790285E+00
         22   -1    0    0    0    0  0.00000000000E+00  0.00000000000E+00  0.20204878499E+00  0.20204878499E+00  0.00000000000E+00 0.  1.
         22   -1    0    0    0    0 -0.00000000000E+00 -0.00000000000E+00 -0.33961390815E+02  0.33961390815E+02  0.00000000000E+00 0. -1.
          4    1    1    2  501    0 -0.23108870291E+01  0.27005162707E+00 -0.24728495475E+02  0.24837705514E+02  0.00000000000E+00 0. -1.
         -4    1    1    2    0  501  0.23108870291E+01 -0.27005162707E+00 -0.90308465546E+01  0.93257340856E+01  0.00000000000E+00 0.  1.
<mgrwt>
<rscale>  0 0.23266127E+01</rscale>
<asrwt>0</asrwt>
<pdfrwt beam="1">0</pdfrwt>
<pdfrwt beam="2">0</pdfrwt>
<totfact> 0.21058609E+12</totfact>
</mgrwt>
</event>
<event>
 4    2  0.2093759E+006  0.2307177E+01  0.7546771E-02  0.2800169E+00
         22   -1    0    0    0    0  0.00000000000E+00  0.00000000000E+00  0.24636891527E+02  0.24636891527E+02  0.00000000000E+00 0. -1.
         22   -1    0    0    0    0 -0.00000000000E+00 -0.00000000000E+00 -0.27630872575E+00  0.27630872575E+00  0.00000000000E+00 0.  1.
          4    1    1    2  501    0 -0.19862220140E+00  0.22986115203E+01  0.63636352841E+01  0.67689674050E+01  0.00000000000E+00 0.  1.
         -4    1    1    2    0  501  0.19862220140E+00 -0.22986115203E+01  0.17996947517E+02  0.18144232848E+02  0.00000000000E+00 0. -1.
<mgrwt>
<rscale>  0 0.23071770E+01</rscale>
<asrwt>0</asrwt>
<pdfrwt beam="1">0</pdfrwt>
<pdfrwt beam="2">0</pdfrwt>
<totfact> 0.22323875E+12</totfact>
</mgrwt>
</event>
<event>
 4    2  0.2093759E+006  0.2023645E+01  0.7546771E-02  0.2964945E+00
         22   -1    0    0    0    0  0.00000000000E+00  0.00000000000E+00  0.29017205539E+01  0.29017205539E+01  0.00000000000E+00 0.  1.
         22   -1    0    0    0    0 -0.00000000000E+00 -0.00000000000E+00 -0.28496577537E+01  0.28496577537E+01  0.00000000000E+00 0. -1.
          4    1    1    2  501    0 -0.14228075987E+01 -0.14390131600E+01 -0.20170330082E+01  0.28571948645E+01  0.00000000000E+00 0. -1.
         -4    1    1    2    0  501  0.14228075987E+01  0.14390131600E+01  0.20690958085E+01  0.28941834431E+01  0.00000000000E+00 0.  1.
<mgrwt>
<rscale>  0 0.20236453E+01</rscale>
<asrwt>0</asrwt>
<pdfrwt beam="1">0</pdfrwt>
<pdfrwt beam="2">0</pdfrwt>
<totfact> 0.20598293E+12</totfact>
</mgrwt>
</event>
<event>
 4    2  0.2093759E+006  0.4468598E+01  0.7546771E-02  0.2195772E+00
         22   -1    0    0    0    0  0.00000000000E+00  0.00000000000E+00  0.35972672447E+02  0.35972672447E+02  0.00000000000E+00 0. -1.
         22   -1    0    0    0    0 -0.00000000000E+00 -0.00000000000E+00 -0.17006408070E+01  0.17006408070E+01  0.00000000000E+00 0.  1.
          4    1    1    2  501    0  0.22922903203E+01 -0.38358532106E+01  0.16762414343E+01  0.47726460283E+01  0.00000000000E+00 0.  1.
         -4    1    1    2    0  501 -0.22922903203E+01  0.38358532106E+01  0.32595790206E+02  0.32900667226E+02  0.00000000000E+00 0. -1.
<mgrwt>
<rscale>  0 0.44685976E+01</rscale>
<asrwt>0</asrwt>
<pdfrwt beam="1">0</pdfrwt>
<pdfrwt beam="2">0</pdfrwt>
<totfact> 0.17509140E+11</totfact>
</mgrwt>
</event>
<event>
 4    2  0.2093759E+006  0.2743567E+01  0.7546771E-02  0.2610004E+00
         22   -1    0    0    0    0  0.00000000000E+00  0.00000000000E+00  0.56109069276E+00  0.56109069276E+00  0.00000000000E+00 0.  1.
         22   -1    0    0    0    0 -0.00000000000E+00 -0.00000000000E+00 -0.14799689519E+02  0.14799689519E+02  0.00000000000E+00 0. -1.
          4    1    1    2  501    0 -0.10483004761E+01  0.25353950300E+01 -0.94683738892E+01  0.98578530093E+01  0.00000000000E+00 0. -1.
         -4    1    1    2    0  501  0.10483004761E+01 -0.25353950300E+01 -0.47702249370E+01  0.55029272025E+01  0.00000000000E+00 0.  1.
<mgrwt>
<rscale>  0 0.27435674E+01</rscale>
<asrwt>0</asrwt>
<pdfrwt beam="1">0</pdfrwt>
<pdfrwt beam="2">0</pdfrwt>
<totfact> 0.18967237E+12</totfact>
</mgrwt>
</event>
<event>
 4    2  0.2093759E+006  0.6597345E+01  0.7546771E-02  0.1969925E+00
         22   -1    0    0    0    0  0.00000000000E+00  0.00000000000E+00  0.49039672788E+02  0.49039672788E+02  0.00000000000E+00 0.  1.
         22   -1    0    0    0    0 -0.00000000000E+00 -0.00000000000E+00 -0.14676514334E+01  0.14676514334E+01  0.00000000000E+00 0. -1.
          4    1    1    2  501    0  0.57661523343E+01  0.32056899443E+01  0.79090852099E+01  0.10299446083E+02  0.00000000000E+00 0. -1.
         -4    1    1    2    0  501 -0.57661523343E+01 -0.32056899443E+01  0.39662936145E+02  0.40207878139E+02  0.00000000000E+00 0.  1.
<mgrwt>
<rscale>  0 0.65973450E+01</rscale>
<asrwt>0</asrwt>
<pdfrwt beam="1">0</pdfrwt>
<pdfrwt beam="2">0</pdfrwt>
<totfact> 0.13857906E+11</totfact>
</mgrwt>
</event>
<event>
 4    2  0.2093759E+006  0.3159157E+01  0.7546771E-02  0.2474158E+00
         22   -1    0    0    0    0  0.00000000000E+00  0.00000000000E+00  0.13925182810E+01  0.13925182810E+01  0.00000000000E+00 0.  1.
         22   -1    0    0    0    0 -0.00000000000E+00 -0.00000000000E+00 -0.10250032226E+02  0.10250032226E+02  0.00000000000E+00 0. -1.
          4    1    1    2  501    0 -0.30480936285E+01 -0.83029995547E+00 -0.76213222346E+01  0.82501409314E+01  0.00000000000E+00 0. -1.
         -4    1    1    2    0  501  0.30480936285E+01  0.83029995547E+00 -0.12361917106E+01  0.33924095757E+01  0.00000000000E+00 0.  1.
<mgrwt>
<rscale>  0 0.31591570E+01</rscale>
<asrwt>0</asrwt>
<pdfrwt beam="1">0</pdfrwt>
<pdfrwt beam="2">0</pdfrwt>
<totfact> 0.10539675E+12</totfact>
</mgrwt>
</event>
<event>
 4    2  0.2093759E+006  0.2715102E+01  0.7546771E-02  0.2620679E+00
         22   -1    0    0    0    0  0.00000000000E+00  0.00000000000E+00  0.29572809945E+01  0.29572809945E+01  0.00000000000E+00 0.  1.
         22   -1    0    0    0    0 -0.00000000000E+00 -0.00000000000E+00 -0.27555312619E+01  0.27555312619E+01  0.00000000000E+00 0. -1.
          4    1    1    2  501    0  0.26947541699E+01 -0.33177923903E+00 -0.78120966542E+00  0.28252550400E+01  0.00000000000E+00 0. -1.
         -4    1    1    2    0  501 -0.26947541699E+01  0.33177923903E+00  0.98295939799E+00  0.28875572164E+01  0.00000000000E+00 0.  1.
<mgrwt>
<rscale>  0 0.27151017E+01</rscale>
<asrwt>0</asrwt>
<pdfrwt beam="1">0</pdfrwt>
<pdfrwt beam="2">0</pdfrwt>
<totfact> 0.20954191E+12</totfact>
</mgrwt>
</event>
<event>
 4    2  0.2093759E+006  0.4186734E+01  0.7546771E-02  0.2242960E+00
         22   -1    0    0    0    0  0.00000000000E+00  0.00000000000E+00  0.71173338032E+00  0.71173338032E+00  0.00000000000E+00 0. -1.
         22   -1    0    0    0    0 -0.00000000000E+00 -0.00000000000E+00 -0.29504328797E+02  0.29504328797E+02  0.00000000000E+00 0.  1.
          4    1    1    2  501    0  0.31095461337E+01  0.28034742559E+01 -0.82544291466E+01  0.92555035302E+01  0.00000000000E+00 0. -1.
         -4    1    1    2    0  501 -0.31095461337E+01 -0.28034742559E+01 -0.20538166270E+02  0.20960558647E+02  0.00000000000E+00 0.  1.
<mgrwt>
<rscale>  0 0.41867344E+01</rscale>
<asrwt>0</asrwt>
<pdfrwt beam="1">0</pdfrwt>
<pdfrwt beam="2">0</pdfrwt>
<totfact> 0.61140878E+11</totfact>
</mgrwt>
</event>
<event>
 4    2  0.2093759E+006  0.2416628E+01  0.7546771E-02  0.2746467E+00
         22   -1    0    0    0    0  0.00000000000E+00  0.00000000000E+00  0.28752082470E+00  0.28752082470E+00  0.00000000000E+00 0.  1.
         22   -1    0    0    0    0 -0.00000000000E+00 -0.00000000000E+00 -0.20421987552E+02  0.20421987552E+02  0.00000000000E+00 0. -1.
          4    1    1    2  501    0 -0.21720720123E+01  0.10593365576E+01 -0.93069356167E+01  0.96155676558E+01  0.00000000000E+00 0.  1.
         -4    1    1    2    0  501  0.21720720123E+01 -0.10593365576E+01 -0.10827531110E+02  0.11093940721E+02  0.00000000000E+00 0. -1.
<mgrwt>
<rscale>  0 0.24166280E+01</rscale>
<asrwt>0</asrwt>
<pdfrwt beam="1">0</pdfrwt>
<pdfrwt beam="2">0</pdfrwt>
<totfact> 0.27016336E+12</totfact>
</mgrwt>
</event>
<event>
 4    2  0.2093759E+006  0.2114983E+01  0.7546771E-02  0.2907212E+00
         22   -1    0    0    0    0  0.00000000000E+00  0.00000000000E+00  0.34128706641E+02  0.34128706641E+02  0.00000000000E+00 0.  1.
         22   -1    0    0    0    0 -0.00000000000E+00 -0.00000000000E+00 -0.52959180797E+00  0.52959180797E+00  0.00000000000E+00 0. -1.
          4    1    1    2  501    0  0.96070352937E+00  0.18841979394E+01  0.17669540848E+01  0.27559535345E+01  0.00000000000E+00 0. -1.
         -4    1    1    2    0  501 -0.96070352937E+00 -0.18841979394E+01  0.31832160748E+02  0.31902344914E+02  0.00000000000E+00 0.  1.
<mgrwt>
<rscale>  0 0.21149830E+01</rscale>
<asrwt>0</asrwt>
<pdfrwt beam="1">0</pdfrwt>
<pdfrwt beam="2">0</pdfrwt>
<totfact> 0.70932953E+11</totfact>
</mgrwt>
</event>
<event>
 4    2  0.2093759E+006  0.3444581E+01  0.7546771E-02  0.2397969E+00
         22   -1    0    0    0    0  0.00000000000E+00  0.00000000000E+00  0.84067513385E+00  0.84067513385E+00  0.00000000000E+00 0.  1.
         22   -1    0    0    0    0 -0.00000000000E+00 -0.00000000000E+00 -0.45662610111E+02  0.45662610111E+02  0.00000000000E+00 0. -1.
          4    1    1    2  501    0  0.22704507537E+01 -0.25904041623E+01 -0.41737974501E+02  0.41879871726E+02  0.00000000000E+00 0. -1.
         -4    1    1    2    0  501 -0.22704507537E+01  0.25904041623E+01 -0.30839604768E+01  0.46234135194E+01  0.00000000000E+00 0.  1.
<mgrwt>
<rscale>  0 0.34445813E+01</rscale>
<asrwt>0</asrwt>
<pdfrwt beam="1">0</pdfrwt>
<pdfrwt beam="2">0</pdfrwt>
<totfact> 0.28792650E+11</totfact>
</mgrwt>
</event>
<event>
 4    2  0.2093759E+006  0.3098477E+01  0.7546771E-02  0.2491948E+00
         22   -1    0    0    0    0  0.00000000000E+00  0.00000000000E+00  0.33140453060E+01  0.33140453060E+01  0.00000000000E+00 0.  1.
         22   -1    0    0    0    0 -0.00000000000E+00 -0.00000000000E+00 -0.28998590533E+01  0.28998590533E+01  0.00000000000E+00 0. -1.
          4    1    1    2  501    0  0.82692828983E+00 -0.29860928609E+01  0.30581807882E+00  0.31135326669E+01  0.00000000000E+00 0. -1.
         -4    1    1    2    0  501 -0.82692828983E+00  0.29860928609E+01  0.10836817391E+00  0.31003716925E+01  0.00000000000E+00 0.  1.
<mgrwt>
<rscale>  0 0.30984772E+01</rscale>
<asrwt>0</asrwt>
<pdfrwt beam="1">0</pdfrwt>
<pdfrwt beam="2">0</pdfrwt>
<totfact> 0.17280873E+12</totfact>
</mgrwt>
</event>
<event>
 4    2  0.2093759E+006  0.2923919E+01  0.7546771E-02  0.2546783E+00
         22   -1    0    0    0    0  0.00000000000E+00  0.00000000000E+00  0.10175057006E+02  0.10175057006E+02  0.00000000000E+00 0. -1.
         22   -1    0    0    0    0 -0.00000000000E+00 -0.00000000000E+00 -0.85527699738E+01  0.85527699738E+01  0.00000000000E+00 0.  1.
          4    1    1    2  501    0 -0.23230077644E+01 -0.17756515111E+01 -0.80809279688E+01  0.85936430109E+01  0.00000000000E+00 0.  1.
         -4    1    1    2    0  501  0.23230077644E+01  0.17756515111E+01  0.97032150008E+01  0.10134183969E+02  0.00000000000E+00 0. -1.
<mgrwt>
<rscale>  0 0.29239192E+01</rscale>
<asrwt>0</asrwt>
<pdfrwt beam="1">0</pdfrwt>
<pdfrwt beam="2">0</pdfrwt>
<totfact> 0.12632125E+11</totfact>
</mgrwt>
</event>
<event>
 4    2  0.2093759E+006  0.2075150E+01  0.7546771E-02  0.2931782E+00
         22   -1    0    0    0    0  0.00000000000E+00  0.00000000000E+00  0.24414775793E+00  0.24414775793E+00  0.00000000000E+00 0.  1.
         22   -1    0    0    0    0 -0.00000000000E+00 -0.00000000000E+00 -0.30050968720E+02  0.30050968720E+02  0.00000000000E+00 0. -1.
          4    1    1    2  501    0  0.27884725872E+00 -0.20563301112E+01 -0.24638799028E+02  0.24726032169E+02  0.00000000000E+00 0. -1.
         -4    1    1    2    0  501 -0.27884725872E+00  0.20563301112E+01 -0.51680219342E+01  0.55690843082E+01  0.00000000000E+00 0.  1.
<mgrwt>
<rscale>  0 0.20751504E+01</rscale>
<asrwt>0</asrwt>
<pdfrwt beam="1">0</pdfrwt>
<pdfrwt beam="2">0</pdfrwt>
<totfact> 0.19932118E+12</totfact>
</mgrwt>
</event>
<event>
 4    2  0.2093759E+006  0.2207443E+01  0.7546771E-02  0.2853488E+00
         22   -1    0    0    0    0  0.00000000000E+00  0.00000000000E+00  0.85040649124E+01  0.85040649124E+01  0.00000000000E+00 0. -1.
         22   -1    0    0    0    0 -0.00000000000E+00 -0.00000000000E+00 -0.57894162613E+00  0.57894162613E+00  0.00000000000E+00 0.  1.
          4    1    1    2  501    0 -0.63389732770E+00  0.21144686428E+01  0.44227604176E+01  0.49430368373E+01  0.00000000000E+00 0.  1.
         -4    1    1    2    0  501  0.63389732770E+00 -0.21144686428E+01  0.35023628687E+01  0.41399697012E+01  0.00000000000E+00 0. -1.
<mgrwt>
<rscale>  0 0.22074427E+01</rscale>
<asrwt>0</asrwt>
<pdfrwt beam="1">0</pdfrwt>
<pdfrwt beam="2">0</pdfrwt>
<totfact> 0.35916026E+12</totfact>
</mgrwt>
</event>
<event>
 4    2  0.2093759E+006  0.2294163E+01  0.7546771E-02  0.2806876E+00
         22   -1    0    0    0    0  0.00000000000E+00  0.00000000000E+00  0.71194113044E-01  0.71194113044E-01  0.00000000000E+00 0.  1.
         22   -1    0    0    0    0 -0.00000000000E+00 -0.00000000000E+00 -0.86130058576E+02  0.86130058576E+02  0.00000000000E+00 0. -1.
          4    1    1    2  501    0 -0.16205547629E+01  0.16238806603E+01 -0.59252606124E+02  0.59297002611E+02  0.00000000000E+00 0. -1.
         -4    1    1    2    0  501  0.16205547629E+01 -0.16238806603E+01 -0.26806258339E+02  0.26904250078E+02  0.00000000000E+00 0.  1.
<mgrwt>
<rscale>  0 0.22941635E+01</rscale>
<asrwt>0</asrwt>
<pdfrwt beam="1">0</pdfrwt>
<pdfrwt beam="2">0</pdfrwt>
<totfact> 0.19434874E+12</totfact>
</mgrwt>
</event>
<event>
 4    2  0.2093759E+006  0.2712249E+01  0.7546771E-02  0.2621760E+00
         22   -1    0    0    0    0  0.00000000000E+00  0.00000000000E+00  0.18607012982E+01  0.18607012982E+01  0.00000000000E+00 0.  1.
         22   -1    0    0    0    0 -0.00000000000E+00 -0.00000000000E+00 -0.42008838939E+01  0.42008838939E+01  0.00000000000E+00 0. -1.
          4    1    1    2  501    0  0.27115817187E+01  0.60144329700E-01 -0.19055643908E+01  0.33147350430E+01  0.00000000000E+00 0. -1.
         -4    1    1    2    0  501 -0.27115817187E+01 -0.60144329700E-01 -0.43461820489E+00  0.27468501491E+01  0.00000000000E+00 0.  1.
<mgrwt>
<rscale>  0 0.27122487E+01</rscale>
<asrwt>0</asrwt>
<pdfrwt beam="1">0</pdfrwt>
<pdfrwt beam="2">0</pdfrwt>
<totfact> 0.21896920E+12</totfact>
</mgrwt>
</event>
<event>
 4    2  0.2093759E+006  0.2826829E+01  0.7546771E-02  0.2579908E+00
         22   -1    0    0    0    0  0.00000000000E+00  0.00000000000E+00  0.15195820351E+02  0.15195820351E+02  0.00000000000E+00 0. -1.
         22   -1    0    0    0    0 -0.00000000000E+00 -0.00000000000E+00 -0.76491161204E+00  0.76491161204E+00  0.00000000000E+00 0.  1.
          4    1    1    2  501    0  0.23980279848E+01 -0.14968042023E+01  0.27541914100E+01  0.39467114613E+01  0.00000000000E+00 0.  1.
         -4    1    1    2    0  501 -0.23980279848E+01  0.14968042023E+01  0.11676717329E+02  0.12014020502E+02  0.00000000000E+00 0. -1.
<mgrwt>
<rscale>  0 0.28268288E+01</rscale>
<asrwt>0</asrwt>
<pdfrwt beam="1">0</pdfrwt>
<pdfrwt beam="2">0</pdfrwt>
<totfact> 0.12920684E+12</totfact>
</mgrwt>
</event>
<event>
 4    2  0.2093759E+006  0.2392336E+01  0.7546771E-02  0.2757986E+00
         22   -1    0    0    0    0  0.00000000000E+00  0.00000000000E+00  0.10755333928E+02  0.10755333928E+02  0.00000000000E+00 0. -1.
         22   -1    0    0    0    0 -0.00000000000E+00 -0.00000000000E+00 -0.53463812554E+00  0.53463812554E+00  0.00000000000E+00 0.  1.
          4    1    1    2  501    0 -0.19698713209E+01 -0.13575265247E+01  0.47239613091E+01  0.52951942114E+01  0.00000000000E+00 0.  1.
         -4    1    1    2    0  501  0.19698713209E+01  0.13575265247E+01  0.54967344931E+01  0.59947778420E+01  0.00000000000E+00 0. -1.
<mgrwt>
<rscale>  0 0.23923359E+01</rscale>
<asrwt>0</asrwt>
<pdfrwt beam="1">0</pdfrwt>
<pdfrwt beam="2">0</pdfrwt>
<totfact> 0.29586520E+12</totfact>
</mgrwt>
</event>
<event>
 4    2  0.2093759E+006  0.2874233E+01  0.7546771E-02  0.2563482E+00
         22   -1    0    0    0    0  0.00000000000E+00  0.00000000000E+00  0.80911940010E+01  0.80911940010E+01  0.00000000000E+00 0. -1.
         22   -1    0    0    0    0 -0.00000000000E+00 -0.00000000000E+00 -0.10326327290E+01  0.10326327290E+01  0.00000000000E+00 0.  1.
          4    1    1    2  501    0 -0.18525345252E+01 -0.21975740598E+01  0.30453665447E+01  0.41875378574E+01  0.00000000000E+00 0. -1.
         -4    1    1    2    0  501  0.18525345252E+01  0.21975740598E+01  0.40131947273E+01  0.49362888727E+01  0.00000000000E+00 0.  1.
<mgrwt>
<rscale>  0 0.28742331E+01</rscale>
<asrwt>0</asrwt>
<pdfrwt beam="1">0</pdfrwt>
<pdfrwt beam="2">0</pdfrwt>
<totfact> 0.19749858E+12</totfact>
</mgrwt>
</event>
<event>
 4    2  0.2093759E+006  0.3710880E+01  0.7546771E-02  0.2336219E+00
         22   -1    0    0    0    0  0.00000000000E+00  0.00000000000E+00  0.40229292480E+02  0.40229292480E+02  0.00000000000E+00 0. -1.
         22   -1    0    0    0    0 -0.00000000000E+00 -0.00000000000E+00 -0.36056357341E+00  0.36056357341E+00  0.00000000000E+00 0.  1.
          4    1    1    2  501    0 -0.36384267841E+01  0.72971287342E+00  0.24501533069E+02  0.24780955451E+02  0.00000000000E+00 0.  1.
         -4    1    1    2    0  501  0.36384267841E+01 -0.72971287342E+00  0.15367195837E+02  0.15808900602E+02  0.00000000000E+00 0. -1.
<mgrwt>
<rscale>  0 0.37108800E+01</rscale>
<asrwt>0</asrwt>
<pdfrwt beam="1">0</pdfrwt>
<pdfrwt beam="2">0</pdfrwt>
<totfact> 0.88479031E+11</totfact>
</mgrwt>
</event>
<event>
 4    2  0.2093759E+006  0.3393368E+01  0.7546771E-02  0.2410807E+00
         22   -1    0    0    0    0  0.00000000000E+00  0.00000000000E+00  0.53114627299E+01  0.53114627299E+01  0.00000000000E+00 0.  1.
         22   -1    0    0    0    0 -0.00000000000E+00 -0.00000000000E+00 -0.32886959218E+01  0.32886959218E+01  0.00000000000E+00 0. -1.
          4    1    1    2  501    0 -0.18117460712E+01 -0.28692375034E+01 -0.14988816217E+01  0.37096622209E+01  0.00000000000E+00 0. -1.
         -4    1    1    2    0  501  0.18117460712E+01  0.28692375034E+01  0.35216484297E+01  0.48904964308E+01  0.00000000000E+00 0.  1.
<mgrwt>
<rscale>  0 0.33933682E+01</rscale>
<asrwt>0</asrwt>
<pdfrwt beam="1">0</pdfrwt>
<pdfrwt beam="2">0</pdfrwt>
<totfact> 0.85564194E+11</totfact>
</mgrwt>
</event>
<event>
 4    2  0.2093759E+006  0.3797814E+01  0.7546771E-02  0.2317693E+00
         22   -1    0    0    0    0  0.00000000000E+00  0.00000000000E+00  0.10412078797E+02  0.10412078797E+02  0.00000000000E+00 0.  1.
         22   -1    0    0    0    0 -0.00000000000E+00 -0.00000000000E+00 -0.35367490954E+01  0.35367490954E+01  0.00000000000E+00 0. -1.
          4    1    1    2  501    0  0.13974016391E+01 -0.35313819178E+01 -0.20020435752E+01  0.42932002128E+01  0.00000000000E+00 0. -1.
         -4    1    1    2    0  501 -0.13974016391E+01  0.35313819178E+01  0.88773732765E+01  0.96556276793E+01  0.00000000000E+00 0.  1.
<mgrwt>
<rscale>  0 0.37978138E+01</rscale>
<asrwt>0</asrwt>
<pdfrwt beam="1">0</pdfrwt>
<pdfrwt beam="2">0</pdfrwt>
<totfact> 0.35062946E+11</totfact>
</mgrwt>
</event>
<event>
 4    2  0.2093759E+006  0.2079369E+01  0.7546771E-02  0.2929136E+00
         22   -1    0    0    0    0  0.00000000000E+00  0.00000000000E+00  0.65883173060E+01  0.65883173060E+01  0.00000000000E+00 0.  1.
         22   -1    0    0    0    0 -0.00000000000E+00 -0.00000000000E+00 -0.82602289692E+00  0.82602289692E+00  0.00000000000E+00 0. -1.
          4    1    1    2  501    0  0.20758756808E+01 -0.12048741210E+00  0.12006297868E+01  0.24011016104E+01  0.00000000000E+00 0. -1.
         -4    1    1    2    0  501 -0.20758756808E+01  0.12048741210E+00  0.45616646223E+01  0.50132385925E+01  0.00000000000E+00 0.  1.
<mgrwt>
<rscale>  0 0.20793694E+01</rscale>
<asrwt>0</asrwt>
<pdfrwt beam="1">0</pdfrwt>
<pdfrwt beam="2">0</pdfrwt>
<totfact> 0.32582238E+12</totfact>
</mgrwt>
</event>
<event>
 4    2  0.2093759E+006  0.2159417E+01  0.7546771E-02  0.2880841E+00
         22   -1    0    0    0    0  0.00000000000E+00  0.00000000000E+00  0.43035157130E+01  0.43035157130E+01  0.00000000000E+00 0. -1.
         22   -1    0    0    0    0 -0.00000000000E+00 -0.00000000000E+00 -0.10524025824E+02  0.10524025824E+02  0.00000000000E+00 0.  1.
          4    1    1    2  501    0 -0.16948594160E+01  0.13381086681E+01 -0.10132000745E+02  0.10359561880E+02  0.00000000000E+00 0.  1.
         -4    1    1    2    0  501  0.16948594160E+01 -0.13381086681E+01  0.39114906333E+01  0.44679796578E+01  0.00000000000E+00 0. -1.
<mgrwt>
<rscale>  0 0.21594173E+01</rscale>
<asrwt>0</asrwt>
<pdfrwt beam="1">0</pdfrwt>
<pdfrwt beam="2">0</pdfrwt>
<totfact> 0.27476445E+11</totfact>
</mgrwt>
</event>
<event>
 4    2  0.2093759E+006  0.3045802E+01  0.7546771E-02  0.2507901E+00
         22   -1    0    0    0    0  0.00000000000E+00  0.00000000000E+00  0.25128510360E+01  0.25128510360E+01  0.00000000000E+00 0. -1.
         22   -1    0    0    0    0 -0.00000000000E+00 -0.00000000000E+00 -0.96147010246E+01  0.96147010246E+01  0.00000000000E+00 0.  1.
          4    1    1    2  501    0  0.28497229058E+01  0.10751703239E+01 -0.83102236494E+01  0.88508038600E+01  0.00000000000E+00 0.  1.
         -4    1    1    2    0  501 -0.28497229058E+01 -0.10751703239E+01  0.12083736609E+01  0.32767482005E+01  0.00000000000E+00 0. -1.
<mgrwt>
<rscale>  0 0.30458023E+01</rscale>
<asrwt>0</asrwt>
<pdfrwt beam="1">0</pdfrwt>
<pdfrwt beam="2">0</pdfrwt>
<totfact> 0.57561106E+11</totfact>
</mgrwt>
</event>
<event>
 4    2  0.2093759E+006  0.4215866E+01  0.7546771E-02  0.2237837E+00
         22   -1    0    0    0    0  0.00000000000E+00  0.00000000000E+00  0.91021724840E+01  0.91021724840E+01  0.00000000000E+00 0. -1.
         22   -1    0    0    0    0 -0.00000000000E+00 -0.00000000000E+00 -0.12864968289E+02  0.12864968289E+02  0.00000000000E+00 0.  1.
          4    1    1    2  501    0  0.36708694478E+01  0.20732206988E+01 -0.11997130009E+02  0.12716314522E+02  0.00000000000E+00 0.  1.
         -4    1    1    2    0  501 -0.36708694478E+01 -0.20732206988E+01  0.82343342032E+01  0.92508262517E+01  0.00000000000E+00 0. -1.
<mgrwt>
<rscale>  0 0.42158661E+01</rscale>
<asrwt>0</asrwt>
<pdfrwt beam="1">0</pdfrwt>
<pdfrwt beam="2">0</pdfrwt>
<totfact> 0.88084347E+10</totfact>
</mgrwt>
</event>
<event>
 4    2  0.2093759E+006  0.2795254E+01  0.7546771E-02  0.2591129E+00
         22   -1    0    0    0    0  0.00000000000E+00  0.00000000000E+00  0.19452275909E+01  0.19452275909E+01  0.00000000000E+00 0.  1.
         22   -1    0    0    0    0 -0.00000000000E+00 -0.00000000000E+00 -0.82230195255E+01  0.82230195255E+01  0.00000000000E+00 0. -1.
          4    1    1    2  501    0 -0.11737225492E+01 -0.25368915999E+01 -0.67751171573E+01  0.73290965410E+01  0.00000000000E+00 0. -1.
         -4    1    1    2    0  501  0.11737225492E+01  0.25368915999E+01  0.49732522276E+00  0.28391505753E+01  0.00000000000E+00 0.  1.
<mgrwt>
<rscale>  0 0.27952538E+01</rscale>
<asrwt>0</asrwt>
<pdfrwt beam="1">0</pdfrwt>
<pdfrwt beam="2">0</pdfrwt>
<totfact> 0.93539324E+11</totfact>
</mgrwt>
</event>
<event>
 4    2  0.2093759E+006  0.2930005E+01  0.7546771E-02  0.2544773E+00
         22   -1    0    0    0    0  0.00000000000E+00  0.00000000000E+00  0.21215924756E+01  0.21215924756E+01  0.00000000000E+00 0. -1.
         22   -1    0    0    0    0 -0.00000000000E+00 -0.00000000000E+00 -0.42663385110E+01  0.42663385110E+01  0.00000000000E+00 0.  1.
          4    1    1    2  501    0  0.27578163715E+01  0.98963443532E+00 -0.17974754692E+01  0.34374184378E+01  0.00000000000E+00 0. -1.
         -4    1    1    2    0  501 -0.27578163715E+01 -0.98963443532E+00 -0.34727056619E+00  0.29505125488E+01  0.00000000000E+00 0.  1.
<mgrwt>
<rscale>  0 0.29300047E+01</rscale>
<asrwt>0</asrwt>
<pdfrwt beam="1">0</pdfrwt>
<pdfrwt beam="2">0</pdfrwt>
<totfact> 0.18472422E+12</totfact>
</mgrwt>
</event>
<event>
 4    2  0.2093759E+006  0.2266259E+01  0.7546771E-02  0.2821503E+00
         22   -1    0    0    0    0  0.00000000000E+00  0.00000000000E+00  0.36018385618E+01  0.36018385618E+01  0.00000000000E+00 0.  1.
         22   -1    0    0    0    0 -0.00000000000E+00 -0.00000000000E+00 -0.23409379532E+01  0.23409379532E+01  0.00000000000E+00 0. -1.
          4    1    1    2  501    0 -0.22641906306E+00 -0.22549198484E+01 -0.12272667038E+01  0.25772296516E+01  0.00000000000E+00 0. -1.
         -4    1    1    2    0  501  0.22641906306E+00  0.22549198484E+01  0.24881673124E+01  0.33655468633E+01  0.00000000000E+00 0.  1.
<mgrwt>
<rscale>  0 0.22662588E+01</rscale>
<asrwt>0</asrwt>
<pdfrwt beam="1">0</pdfrwt>
<pdfrwt beam="2">0</pdfrwt>
<totfact> 0.20110061E+12</totfact>
</mgrwt>
</event>
<event>
 4    2  0.2093759E+006  0.2268327E+01  0.7546771E-02  0.2820408E+00
         22   -1    0    0    0    0  0.00000000000E+00  0.00000000000E+00  0.11311797423E+02  0.11311797423E+02  0.00000000000E+00 0.  1.
         22   -1    0    0    0    0 -0.00000000000E+00 -0.00000000000E+00 -0.12722863588E+02  0.12722863588E+02  0.00000000000E+00 0. -1.
          4    1    1    2  501    0  0.10374388085E+01  0.20171827354E+01 -0.12506089456E+02  0.12710136858E+02  0.00000000000E+00 0. -1.
         -4    1    1    2    0  501 -0.10374388085E+01 -0.20171827354E+01  0.11095023291E+02  0.11324524153E+02  0.00000000000E+00 0.  1.
<mgrwt>
<rscale>  0 0.22683266E+01</rscale>
<asrwt>0</asrwt>
<pdfrwt beam="1">0</pdfrwt>
<pdfrwt beam="2">0</pdfrwt>
<totfact> 0.68613170E+10</totfact>
</mgrwt>
</event>
<event>
 4    2  0.2093759E+006  0.4715803E+01  0.7546771E-02  0.2158536E+00
         22   -1    0    0    0    0  0.00000000000E+00  0.00000000000E+00  0.85582767449E+01  0.85582767449E+01  0.00000000000E+00 0. -1.
         22   -1    0    0    0    0 -0.00000000000E+00 -0.00000000000E+00 -0.39100289926E+01  0.39100289926E+01  0.00000000000E+00 0.  1.
          4    1    1    2  501    0 -0.46316770133E+01  0.88677145727E+00 -0.12864331735E+01  0.48881188491E+01  0.00000000000E+00 0.  1.
         -4    1    1    2    0  501  0.46316770133E+01 -0.88677145727E+00  0.59346809258E+01  0.75801868884E+01  0.00000000000E+00 0. -1.
<mgrwt>
<rscale>  0 0.47158027E+01</rscale>
<asrwt>0</asrwt>
<pdfrwt beam="1">0</pdfrwt>
<pdfrwt beam="2">0</pdfrwt>
<totfact> 0.39497102E+11</totfact>
</mgrwt>
</event>
<event>
 4    2  0.2093759E+006  0.2579032E+01  0.7546771E-02  0.2674681E+00
         22   -1    0    0    0    0  0.00000000000E+00  0.00000000000E+00  0.61320540982E+01  0.61320540982E+01  0.00000000000E+00 0. -1.
         22   -1    0    0    0    0 -0.00000000000E+00 -0.00000000000E+00 -0.11551832653E+01  0.11551832653E+01  0.00000000000E+00 0.  1.
          4    1    1    2  501    0  0.25677933751E+01  0.24050271979E+00  0.15883827579E+01  0.30289212867E+01  0.00000000000E+00 0.  1.
         -4    1    1    2    0  501 -0.25677933751E+01 -0.24050271979E+00  0.33884880750E+01  0.42583160768E+01  0.00000000000E+00 0. -1.
<mgrwt>
<rscale>  0 0.25790317E+01</rscale>
<asrwt>0</asrwt>
<pdfrwt beam="1">0</pdfrwt>
<pdfrwt beam="2">0</pdfrwt>
<totfact> 0.24205282E+12</totfact>
</mgrwt>
</event>
<event>
 4    2  0.2093759E+006  0.2809650E+01  0.7546771E-02  0.2585985E+00
         22   -1    0    0    0    0  0.00000000000E+00  0.00000000000E+00  0.66234414560E+02  0.66234414560E+02  0.00000000000E+00 0.  1.
         22   -1    0    0    0    0 -0.00000000000E+00 -0.00000000000E+00 -0.28560662497E+00  0.28560662497E+00  0.00000000000E+00 0. -1.
          4    1    1    2  501    0 -0.68446922227E-02 -0.28096416139E+01  0.75855302191E+01  0.80891533273E+01  0.00000000000E+00 0. -1.
         -4    1    1    2    0  501  0.68446922227E-02  0.28096416139E+01  0.58363277716E+02  0.58430867858E+02  0.00000000000E+00 0.  1.
<mgrwt>
<rscale>  0 0.28096500E+01</rscale>
<asrwt>0</asrwt>
<pdfrwt beam="1">0</pdfrwt>
<pdfrwt beam="2">0</pdfrwt>
<totfact> 0.59425959E+11</totfact>
</mgrwt>
</event>
<event>
 4    2  0.2093759E+006  0.2680088E+01  0.7546771E-02  0.2634093E+00
         22   -1    0    0    0    0  0.00000000000E+00  0.00000000000E+00  0.74999624111E+01  0.74999624111E+01  0.00000000000E+00 0. -1.
         22   -1    0    0    0    0 -0.00000000000E+00 -0.00000000000E+00 -0.10154402609E+01  0.10154402609E+01  0.00000000000E+00 0.  1.
          4    1    1    2  501    0 -0.13520101448E+01 -0.23140748805E+01  0.42573571281E+01  0.50307021081E+01  0.00000000000E+00 0. -1.
         -4    1    1    2    0  501  0.13520101448E+01  0.23140748805E+01  0.22271650221E+01  0.34847005639E+01  0.00000000000E+00 0.  1.
<mgrwt>
<rscale>  0 0.26800884E+01</rscale>
<asrwt>0</asrwt>
<pdfrwt beam="1">0</pdfrwt>
<pdfrwt beam="2">0</pdfrwt>
<totfact> 0.22051937E+12</totfact>
</mgrwt>
</event>
<event>
 4    2  0.2093759E+006  0.2090541E+01  0.7546771E-02  0.2922181E+00
         22   -1    0    0    0    0  0.00000000000E+00  0.00000000000E+00  0.26927755388E+02  0.26927755388E+02  0.00000000000E+00 0.  1.
         22   -1    0    0    0    0 -0.00000000000E+00 -0.00000000000E+00 -0.35824784733E+00  0.35824784733E+00  0.00000000000E+00 0. -1.
          4    1    1    2  501    0  0.80443124509E+00 -0.19295728264E+01  0.31948052296E+01  0.38180022755E+01  0.00000000000E+00 0. -1.
         -4    1    1    2    0  501 -0.80443124509E+00  0.19295728264E+01  0.23374702311E+02  0.23468000960E+02  0.00000000000E+00 0.  1.
<mgrwt>
<rscale>  0 0.20905408E+01</rscale>
<asrwt>0</asrwt>
<pdfrwt beam="1">0</pdfrwt>
<pdfrwt beam="2">0</pdfrwt>
<totfact> 0.14907902E+12</totfact>
</mgrwt>
</event>
<event>
 4    2  0.2093759E+006  0.3065207E+01  0.7546771E-02  0.2501967E+00
         22   -1    0    0    0    0  0.00000000000E+00  0.00000000000E+00  0.32455672889E+02  0.32455672889E+02  0.00000000000E+00 0.  1.
         22   -1    0    0    0    0 -0.00000000000E+00 -0.00000000000E+00 -0.33697231130E+00  0.33697231130E+00  0.00000000000E+00 0. -1.
          4    1    1    2  501    0 -0.30456523169E+01  0.34568089110E+00  0.22214367641E+02  0.22424843879E+02  0.00000000000E+00 0.  1.
         -4    1    1    2    0  501  0.30456523169E+01 -0.34568089110E+00  0.99043329368E+01  0.10367801321E+02  0.00000000000E+00 0. -1.
<mgrwt>
<rscale>  0 0.30652069E+01</rscale>
<asrwt>0</asrwt>
<pdfrwt beam="1">0</pdfrwt>
<pdfrwt beam="2">0</pdfrwt>
<totfact> 0.12591418E+12</totfact>
</mgrwt>
</event>
<event>
 4    2  0.2093759E+006  0.2114719E+01  0.7546771E-02  0.2907372E+00
         22   -1    0    0    0    0  0.00000000000E+00  0.00000000000E+00  0.10833770803E+00  0.10833770803E+00  0.00000000000E+00 0. -1.
         22   -1    0    0    0    0 -0.00000000000E+00 -0.00000000000E+00 -0.46587080084E+02  0.46587080084E+02  0.00000000000E+00 0.  1.
          4    1    1    2  501    0  0.18204425710E+01  0.10761163336E+01 -0.31120589759E+02  0.31192357149E+02  0.00000000000E+00 0.  1.
         -4    1    1    2    0  501 -0.18204425710E+01 -0.10761163336E+01 -0.15358152616E+02  0.15503060643E+02  0.00000000000E+00 0. -1.
<mgrwt>
<rscale>  0 0.21147193E+01</rscale>
<asrwt>0</asrwt>
<pdfrwt beam="1">0</pdfrwt>
<pdfrwt beam="2">0</pdfrwt>
<totfact> 0.27937844E+12</totfact>
</mgrwt>
</event>
<event>
 4    2  0.2093759E+006  0.4344572E+01  0.7546771E-02  0.2215900E+00
         22   -1    0    0    0    0  0.00000000000E+00  0.00000000000E+00  0.55280151027E+01  0.55280151027E+01  0.00000000000E+00 0. -1.
         22   -1    0    0    0    0 -0.00000000000E+00 -0.00000000000E+00 -0.34847959197E+01  0.34847959197E+01  0.00000000000E+00 0.  1.
          4    1    1    2  501    0 -0.33080918046E+01  0.28163511337E+01  0.38148589125E+00  0.43612884084E+01  0.00000000000E+00 0.  1.
         -4    1    1    2    0  501  0.33080918046E+01 -0.28163511337E+01  0.16617332917E+01  0.46515226140E+01  0.00000000000E+00 0. -1.
<mgrwt>
<rscale>  0 0.43445719E+01</rscale>
<asrwt>0</asrwt>
<pdfrwt beam="1">0</pdfrwt>
<pdfrwt beam="2">0</pdfrwt>
<totfact> 0.76247387E+11</totfact>
</mgrwt>
</event>
<event>
 4    2  0.2093759E+006  0.3877069E+01  0.7546771E-02  0.2301427E+00
         22   -1    0    0    0    0  0.00000000000E+00  0.00000000000E+00  0.79142341888E+01  0.79142341888E+01  0.00000000000E+00 0.  1.
         22   -1    0    0    0    0 -0.00000000000E+00 -0.00000000000E+00 -0.40424876919E+01  0.40424876919E+01  0.00000000000E+00 0. -1.
          4    1    1    2  501    0 -0.27373025319E+01 -0.27456945610E+01 -0.24170985064E+01  0.45688104539E+01  0.00000000000E+00 0. -1.
         -4    1    1    2    0  501  0.27373025319E+01  0.27456945610E+01  0.62888450033E+01  0.73879114267E+01  0.00000000000E+00 0.  1.
<mgrwt>
<rscale>  0 0.38770690E+01</rscale>
<asrwt>0</asrwt>
<pdfrwt beam="1">0</pdfrwt>
<pdfrwt beam="2">0</pdfrwt>
<totfact> 0.41725549E+11</totfact>
</mgrwt>
</event>
<event>
 4    2  0.2093759E+006  0.2007832E+01  0.7546771E-02  0.2975461E+00
         22   -1    0    0    0    0  0.00000000000E+00  0.00000000000E+00  0.13389880436E+01  0.13389880436E+01  0.00000000000E+00 0. -1.
         22   -1    0    0    0    0 -0.00000000000E+00 -0.00000000000E+00 -0.34361998957E+01  0.34361998957E+01  0.00000000000E+00 0.  1.
          4    1    1    2  501    0  0.17674967138E+01 -0.95254578873E+00 -0.18887119355E+01  0.27565596109E+01  0.00000000000E+00 0.  1.
         -4    1    1    2    0  501 -0.17674967138E+01  0.95254578873E+00 -0.20849991652E+00  0.20186283284E+01  0.00000000000E+00 0. -1.
<mgrwt>
<rscale>  0 0.20078317E+01</rscale>
<asrwt>0</asrwt>
<pdfrwt beam="1">0</pdfrwt>
<pdfrwt beam="2">0</pdfrwt>
<totfact> 0.40502559E+12</totfact>
</mgrwt>
</event>
<event>
 4    2  0.2093759E+006  0.6242570E+01  0.7546771E-02  0.1998594E+00
         22   -1    0    0    0    0  0.00000000000E+00  0.00000000000E+00  0.62236661422E+01  0.62236661422E+01  0.00000000000E+00 0. -1.
         22   -1    0    0    0    0 -0.00000000000E+00 -0.00000000000E+00 -0.73714139622E+01  0.73714139622E+01  0.00000000000E+00 0.  1.
          4    1    1    2  501    0 -0.17190311511E+01 -0.60012172285E+01 -0.32115109624E+01  0.70202192975E+01  0.00000000000E+00 0.  1.
         -4    1    1    2    0  501  0.17190311511E+01  0.60012172285E+01  0.20637631425E+01  0.65748608069E+01  0.00000000000E+00 0. -1.
<mgrwt>
<rscale>  0 0.62425697E+01</rscale>
<asrwt>0</asrwt>
<pdfrwt beam="1">0</pdfrwt>
<pdfrwt beam="2">0</pdfrwt>
<totfact> 0.27258504E+11</totfact>
</mgrwt>
</event>
<event>
 4    2  0.2093759E+006  0.2908633E+01  0.7546771E-02  0.2551866E+00
         22   -1    0    0    0    0  0.00000000000E+00  0.00000000000E+00  0.93987158965E-01  0.93987158965E-01  0.00000000000E+00 0.  1.
         22   -1    0    0    0    0 -0.00000000000E+00 -0.00000000000E+00 -0.10031195198E+03  0.10031195198E+03  0.00000000000E+00 0. -1.
          4    1    1    2  501    0  0.25774272945E+01  0.13479668418E+01 -0.66194374537E+02  0.66258247535E+02  0.00000000000E+00 0. -1.
         -4    1    1    2    0  501 -0.25774272945E+01 -0.13479668418E+01 -0.34023590288E+02  0.34147691608E+02  0.00000000000E+00 0.  1.
<mgrwt>
<rscale>  0 0.29086330E+01</rscale>
<asrwt>0</asrwt>
<pdfrwt beam="1">0</pdfrwt>
<pdfrwt beam="2">0</pdfrwt>
<totfact> 0.11558823E+12</totfact>
</mgrwt>
</event>
<event>
 4    2  0.2093759E+006  0.5225465E+01  0.7546771E-02  0.2097015E+00
         22   -1    0    0    0    0  0.00000000000E+00  0.00000000000E+00  0.15533249756E+02  0.15533249756E+02  0.00000000000E+00 0.  1.
         22   -1    0    0    0    0 -0.00000000000E+00 -0.00000000000E+00 -0.46907207271E+01  0.46907207271E+01  0.00000000000E+00 0. -1.
          4    1    1    2  501    0 -0.44344770135E+01  0.27642179442E+01 -0.25745251906E+01  0.58252611258E+01  0.00000000000E+00 0. -1.
         -4    1    1    2    0  501  0.44344770135E+01 -0.27642179442E+01  0.13417054220E+02  0.14398709358E+02  0.00000000000E+00 0.  1.
<mgrwt>
<rscale>  0 0.52254653E+01</rscale>
<asrwt>0</asrwt>
<pdfrwt beam="1">0</pdfrwt>
<pdfrwt beam="2">0</pdfrwt>
<totfact> 0.15421301E+11</totfact>
</mgrwt>
</event>
<event>
 4    2  0.2093759E+006  0.2910613E+01  0.7546771E-02  0.2551205E+00
         22   -1    0    0    0    0  0.00000000000E+00  0.00000000000E+00  0.45547468223E+01  0.45547468223E+01  0.00000000000E+00 0. -1.
         22   -1    0    0    0    0 -0.00000000000E+00 -0.00000000000E+00 -0.19985150133E+01  0.19985150133E+01  0.00000000000E+00 0.  1.
          4    1    1    2  501    0 -0.28046903399E+01 -0.77806120301E+00  0.41537979535E+00  0.29401033167E+01  0.00000000000E+00 0.  1.
         -4    1    1    2    0  501  0.28046903399E+01  0.77806120301E+00  0.21408520137E+01  0.36131585189E+01  0.00000000000E+00 0. -1.
<mgrwt>
<rscale>  0 0.29106128E+01</rscale>
<asrwt>0</asrwt>
<pdfrwt beam="1">0</pdfrwt>
<pdfrwt beam="2">0</pdfrwt>
<totfact> 0.18325923E+12</totfact>
</mgrwt>
</event>
<event>
 4    2  0.2093759E+006  0.2051649E+01  0.7546771E-02  0.2946712E+00
         22   -1    0    0    0    0  0.00000000000E+00  0.00000000000E+00  0.29510819499E+00  0.29510819499E+00  0.00000000000E+00 0. -1.
         22   -1    0    0    0    0 -0.00000000000E+00 -0.00000000000E+00 -0.16530023042E+02  0.16530023042E+02  0.00000000000E+00 0.  1.
          4    1    1    2  501    0 -0.17159285643E+01  0.11246575447E+01 -0.11232580078E+02  0.11418411476E+02  0.00000000000E+00 0. -1.
         -4    1    1    2    0  501  0.17159285643E+01 -0.11246575447E+01 -0.50023347692E+01  0.54067197610E+01  0.00000000000E+00 0.  1.
<mgrwt>
<rscale>  0 0.20516494E+01</rscale>
<asrwt>0</asrwt>
<pdfrwt beam="1">0</pdfrwt>
<pdfrwt beam="2">0</pdfrwt>
<totfact> 0.34116047E+12</totfact>
</mgrwt>
</event>
<event>
 4    2  0.2093759E+006  0.2172674E+01  0.7546771E-02  0.2873174E+00
         22   -1    0    0    0    0  0.00000000000E+00  0.00000000000E+00  0.16321166104E+01  0.16321166104E+01  0.00000000000E+00 0. -1.
         22   -1    0    0    0    0 -0.00000000000E+00 -0.00000000000E+00 -0.30205260250E+01  0.30205260250E+01  0.00000000000E+00 0.  1.
          4    1    1    2  501    0 -0.18020602633E+01  0.12137100814E+01 -0.21482883518E+00  0.21832692877E+01  0.00000000000E+00 0.  1.
         -4    1    1    2    0  501  0.18020602633E+01 -0.12137100814E+01 -0.11735805794E+01  0.24693733478E+01  0.00000000000E+00 0. -1.
<mgrwt>
<rscale>  0 0.21726742E+01</rscale>
<asrwt>0</asrwt>
<pdfrwt beam="1">0</pdfrwt>
<pdfrwt beam="2">0</pdfrwt>
<totfact> 0.37508875E+12</totfact>
</mgrwt>
</event>
<event>
 4    2  0.2093759E+006  0.2003652E+01  0.7546771E-02  0.2978267E+00
         22   -1    0    0    0    0  0.00000000000E+00  0.00000000000E+00  0.38586228132E+01  0.38586228132E+01  0.00000000000E+00 0.  1.
         22   -1    0    0    0    0 -0.00000000000E+00 -0.00000000000E+00 -0.13988170082E+01  0.13988170082E+01  0.00000000000E+00 0. -1.
          4    1    1    2  501    0 -0.86505640677E+00 -0.18072905688E+01 -0.10067651004E+00  0.20061798390E+01  0.00000000000E+00 0. -1.
         -4    1    1    2    0  501  0.86505640677E+00  0.18072905688E+01  0.25604823151E+01  0.32512599824E+01  0.00000000000E+00 0.  1.
<mgrwt>
<rscale>  0 0.20036521E+01</rscale>
<asrwt>0</asrwt>
<pdfrwt beam="1">0</pdfrwt>
<pdfrwt beam="2">0</pdfrwt>
<totfact> 0.33617686E+12</totfact>
</mgrwt>
</event>
<event>
 4    2  0.2093759E+006  0.2237622E+01  0.7546771E-02  0.2836876E+00
         22   -1    0    0    0    0  0.00000000000E+00  0.00000000000E+00  0.22573831634E+00  0.22573831634E+00  0.00000000000E+00 0.  1.
         22   -1    0    0    0    0 -0.00000000000E+00 -0.00000000000E+00 -0.37845408785E+02  0.37845408785E+02  0.00000000000E+00 0. -1.
          4    1    1    2  501    0 -0.22369186292E+01  0.56090533663E-01 -0.31056719453E+02  0.31137224897E+02  0.00000000000E+00 0. -1.
         -4    1    1    2    0  501  0.22369186292E+01 -0.56090533663E-01 -0.65629510148E+01  0.69339222036E+01  0.00000000000E+00 0.  1.
<mgrwt>
<rscale>  0 0.22376218E+01</rscale>
<asrwt>0</asrwt>
<pdfrwt beam="1">0</pdfrwt>
<pdfrwt beam="2">0</pdfrwt>
<totfact> 0.16183476E+12</totfact>
</mgrwt>
</event>
<event>
 4    2  0.2093759E+006  0.3440043E+01  0.7546771E-02  0.2399093E+00
         22   -1    0    0    0    0  0.00000000000E+00  0.00000000000E+00  0.35401110717E+01  0.35401110717E+01  0.00000000000E+00 0.  1.
         22   -1    0    0    0    0 -0.00000000000E+00 -0.00000000000E+00 -0.51055161514E+01  0.51055161514E+01  0.00000000000E+00 0. -1.
          4    1    1    2  501    0  0.30936469545E+01  0.15044085785E+01 -0.33227241417E+01  0.47827180946E+01  0.00000000000E+00 0. -1.
         -4    1    1    2    0  501 -0.30936469545E+01 -0.15044085785E+01  0.17573190620E+01  0.38629091286E+01  0.00000000000E+00 0.  1.
<mgrwt>
<rscale>  0 0.34400431E+01</rscale>
<asrwt>0</asrwt>
<pdfrwt beam="1">0</pdfrwt>
<pdfrwt beam="2">0</pdfrwt>
<totfact> 0.82254068E+11</totfact>
</mgrwt>
</event>
<event>
 4    2  0.2093759E+006  0.2256693E+01  0.7546771E-02  0.2826597E+00
         22   -1    0    0    0    0  0.00000000000E+00  0.00000000000E+00  0.17134455736E+01  0.17134455736E+01  0.00000000000E+00 0. -1.
         22   -1    0    0    0    0 -0.00000000000E+00 -0.00000000000E+00 -0.40313159078E+01  0.40313159078E+01  0.00000000000E+00 0.  1.
          4    1    1    2  501    0 -0.18431017942E+01  0.13021677746E+01 -0.26312302383E+01  0.34664156853E+01  0.00000000000E+00 0. -1.
         -4    1    1    2    0  501  0.18431017942E+01 -0.13021677746E+01  0.31335990414E+00  0.22783457961E+01  0.00000000000E+00 0.  1.
<mgrwt>
<rscale>  0 0.22566934E+01</rscale>
<asrwt>0</asrwt>
<pdfrwt beam="1">0</pdfrwt>
<pdfrwt beam="2">0</pdfrwt>
<totfact> 0.25280358E+12</totfact>
</mgrwt>
</event>
<event>
 4    2  0.2093759E+006  0.2480485E+01  0.7546771E-02  0.2717197E+00
         22   -1    0    0    0    0  0.00000000000E+00  0.00000000000E+00  0.31724447686E+01  0.31724447686E+01  0.00000000000E+00 0.  1.
         22   -1    0    0    0    0 -0.00000000000E+00 -0.00000000000E+00 -0.44361735180E+01  0.44361735180E+01  0.00000000000E+00 0. -1.
          4    1    1    2  501    0  0.22658978660E+01  0.10092142069E+01 -0.34858812260E+01  0.42783378053E+01  0.00000000000E+00 0. -1.
         -4    1    1    2    0  501 -0.22658978660E+01 -0.10092142069E+01  0.22221524766E+01  0.33302804813E+01  0.00000000000E+00 0.  1.
<mgrwt>
<rscale>  0 0.24804851E+01</rscale>
<asrwt>0</asrwt>
<pdfrwt beam="1">0</pdfrwt>
<pdfrwt beam="2">0</pdfrwt>
<totfact> 0.11043075E+12</totfact>
</mgrwt>
</event>
<event>
 4    2  0.2093759E+006  0.2397045E+01  0.7546771E-02  0.2755737E+00
         22   -1    0    0    0    0  0.00000000000E+00  0.00000000000E+00  0.11483241215E+01  0.11483241215E+01  0.00000000000E+00 0. -1.
         22   -1    0    0    0    0 -0.00000000000E+00 -0.00000000000E+00 -0.64361157049E+01  0.64361157049E+01  0.00000000000E+00 0.  1.
          4    1    1    2  501    0 -0.21458163448E+01 -0.10683142070E+01 -0.44329448599E+01  0.50395260850E+01  0.00000000000E+00 0. -1.
         -4    1    1    2    0  501  0.21458163448E+01  0.10683142070E+01 -0.85484672348E+00  0.25449137414E+01  0.00000000000E+00 0.  1.
<mgrwt>
<rscale>  0 0.23970446E+01</rscale>
<asrwt>0</asrwt>
<pdfrwt beam="1">0</pdfrwt>
<pdfrwt beam="2">0</pdfrwt>
<totfact> 0.23004345E+12</totfact>
</mgrwt>
</event>
<event>
 4    2  0.2093759E+006  0.2171190E+01  0.7546771E-02  0.2874028E+00
         22   -1    0    0    0    0  0.00000000000E+00  0.00000000000E+00  0.12649881776E+01  0.12649881776E+01  0.00000000000E+00 0.  1.
         22   -1    0    0    0    0 -0.00000000000E+00 -0.00000000000E+00 -0.38569816206E+01  0.38569816206E+01  0.00000000000E+00 0. -1.
          4    1    1    2  501    0  0.13110773953E+01  0.17306482162E+01 -0.82508323745E+00  0.23226772341E+01  0.00000000000E+00 0.  1.
         -4    1    1    2    0  501 -0.13110773953E+01 -0.17306482162E+01 -0.17669102056E+01  0.27992925641E+01  0.00000000000E+00 0. -1.
<mgrwt>
<rscale>  0 0.21711903E+01</rscale>
<asrwt>0</asrwt>
<pdfrwt beam="1">0</pdfrwt>
<pdfrwt beam="2">0</pdfrwt>
<totfact> 0.37752240E+12</totfact>
</mgrwt>
</event>
<event>
 4    2  0.2093759E+006  0.2374372E+01  0.7546771E-02  0.2766647E+00
         22   -1    0    0    0    0  0.00000000000E+00  0.00000000000E+00  0.35917630489E+02  0.35917630489E+02  0.00000000000E+00 0. -1.
         22   -1    0    0    0    0 -0.00000000000E+00 -0.00000000000E+00 -0.48707331747E+00  0.48707331747E+00  0.00000000000E+00 0.  1.
          4    1    1    2  501    0  0.21648853890E+01 -0.97514786203E+00  0.27301090355E+01  0.36181676918E+01  0.00000000000E+00 0.  1.
         -4    1    1    2    0  501 -0.21648853890E+01  0.97514786203E+00  0.32700448136E+02  0.32786536115E+02  0.00000000000E+00 0. -1.
<mgrwt>
<rscale>  0 0.23743719E+01</rscale>
<asrwt>0</asrwt>
<pdfrwt beam="1">0</pdfrwt>
<pdfrwt beam="2">0</pdfrwt>
<totfact> 0.73009971E+11</totfact>
</mgrwt>
</event>
<event>
 4    2  0.2093759E+006  0.4483454E+01  0.7546771E-02  0.2193424E+00
         22   -1    0    0    0    0  0.00000000000E+00  0.00000000000E+00  0.71000301074E+01  0.71000301074E+01  0.00000000000E+00 0.  1.
         22   -1    0    0    0    0 -0.00000000000E+00 -0.00000000000E+00 -0.47511293593E+01  0.47511293593E+01  0.00000000000E+00 0. -1.
          4    1    1    2  501    0 -0.44809735720E+01  0.14912241062E+00 -0.25924048084E+01  0.51789887369E+01  0.00000000000E+00 0. -1.
         -4    1    1    2    0  501  0.44809735720E+01 -0.14912241062E+00  0.49413055565E+01  0.66721707299E+01  0.00000000000E+00 0.  1.
<mgrwt>
<rscale>  0 0.44834542E+01</rscale>
<asrwt>0</asrwt>
<pdfrwt beam="1">0</pdfrwt>
<pdfrwt beam="2">0</pdfrwt>
<totfact> 0.39280293E+11</totfact>
</mgrwt>
</event>
<event>
 4    2  0.2093759E+006  0.2233942E+01  0.7546771E-02  0.2838879E+00
         22   -1    0    0    0    0  0.00000000000E+00  0.00000000000E+00  0.13961468144E+02  0.13961468144E+02  0.00000000000E+00 0.  1.
         22   -1    0    0    0    0 -0.00000000000E+00 -0.00000000000E+00 -0.35757893501E+00  0.35757893501E+00  0.00000000000E+00 0. -1.
          4    1    1    2  501    0  0.82393450538E+00 -0.20764460307E+01  0.66648425677E+01  0.70292689975E+01  0.00000000000E+00 0. -1.
         -4    1    1    2    0  501 -0.82393450538E+00  0.20764460307E+01  0.69390466414E+01  0.72897780816E+01  0.00000000000E+00 0.  1.
<mgrwt>
<rscale>  0 0.22339418E+01</rscale>
<asrwt>0</asrwt>
<pdfrwt beam="1">0</pdfrwt>
<pdfrwt beam="2">0</pdfrwt>
<totfact> 0.33860098E+12</totfact>
</mgrwt>
</event>
<event>
 4    2  0.2093759E+006  0.2271568E+01  0.7546771E-02  0.2818694E+00
         22   -1    0    0    0    0  0.00000000000E+00  0.00000000000E+00  0.14313365437E+01  0.14313365437E+01  0.00000000000E+00 0. -1.
         22   -1    0    0    0    0 -0.00000000000E+00 -0.00000000000E+00 -0.39951397465E+01  0.39951397465E+01  0.00000000000E+00 0.  1.
          4    1    1    2  501    0  0.22046174983E+01  0.54743364581E+00 -0.21297362364E+01  0.31138076927E+01  0.00000000000E+00 0.  1.
         -4    1    1    2    0  501 -0.22046174983E+01 -0.54743364581E+00 -0.43406696642E+00  0.23126685975E+01  0.00000000000E+00 0. -1.
<mgrwt>
<rscale>  0 0.22715682E+01</rscale>
<asrwt>0</asrwt>
<pdfrwt beam="1">0</pdfrwt>
<pdfrwt beam="2">0</pdfrwt>
<totfact> 0.31431583E+12</totfact>
</mgrwt>
</event>
<event>
 4    2  0.2093759E+006  0.2275206E+01  0.7546771E-02  0.2816776E+00
         22   -1    0    0    0    0  0.00000000000E+00  0.00000000000E+00  0.13296428833E+01  0.13296428833E+01  0.00000000000E+00 0. -1.
         22   -1    0    0    0    0 -0.00000000000E+00 -0.00000000000E+00 -0.39970872792E+01  0.39970872792E+01  0.00000000000E+00 0.  1.
          4    1    1    2  501    0  0.73025909407E+00  0.21548282890E+01 -0.17631041674E+01  0.28783848951E+01  0.00000000000E+00 0.  1.
         -4    1    1    2    0  501 -0.73025909407E+00 -0.21548282890E+01 -0.90434022858E+00  0.24483452674E+01  0.00000000000E+00 0. -1.
<mgrwt>
<rscale>  0 0.22752062E+01</rscale>
<asrwt>0</asrwt>
<pdfrwt beam="1">0</pdfrwt>
<pdfrwt beam="2">0</pdfrwt>
<totfact> 0.34188922E+12</totfact>
</mgrwt>
</event>
<event>
 4    2  0.2093759E+006  0.4026109E+01  0.7546771E-02  0.2272331E+00
         22   -1    0    0    0    0  0.00000000000E+00  0.00000000000E+00  0.24524215138E+02  0.24524215138E+02  0.00000000000E+00 0. -1.
         22   -1    0    0    0    0 -0.00000000000E+00 -0.00000000000E+00 -0.24624393356E+01  0.24624393356E+01  0.00000000000E+00 0.  1.
          4    1    1    2  501    0 -0.58277414869E+00 -0.39837079485E+01 -0.51030713537E+00  0.40583208473E+01  0.00000000000E+00 0.  1.
         -4    1    1    2    0  501  0.58277414869E+00  0.39837079485E+01  0.22572082938E+02  0.22928333626E+02  0.00000000000E+00 0. -1.
<mgrwt>
<rscale>  0 0.40261091E+01</rscale>
<asrwt>0</asrwt>
<pdfrwt beam="1">0</pdfrwt>
<pdfrwt beam="2">0</pdfrwt>
<totfact> 0.18580213E+11</totfact>
</mgrwt>
</event>
<event>
 4    2  0.2093759E+006  0.2500223E+01  0.7546771E-02  0.2708432E+00
         22   -1    0    0    0    0  0.00000000000E+00  0.00000000000E+00  0.29295590323E+00  0.29295590323E+00  0.00000000000E+00 0.  1.
         22   -1    0    0    0    0 -0.00000000000E+00 -0.00000000000E+00 -0.25061965058E+02  0.25061965058E+02  0.00000000000E+00 0. -1.
          4    1    1    2  501    0  0.21215200776E+01  0.13229774315E+01 -0.74977245027E+01  0.79036061037E+01  0.00000000000E+00 0.  1.
         -4    1    1    2    0  501 -0.21215200776E+01 -0.13229774315E+01 -0.17271284652E+02  0.17451314857E+02  0.00000000000E+00 0. -1.
<mgrwt>
<rscale>  0 0.25002233E+01</rscale>
<asrwt>0</asrwt>
<pdfrwt beam="1">0</pdfrwt>
<pdfrwt beam="2">0</pdfrwt>
<totfact> 0.20461781E+12</totfact>
</mgrwt>
</event>
<event>
 4    2  0.2093759E+006  0.3297448E+01  0.7546771E-02  0.2435792E+00
         22   -1    0    0    0    0  0.00000000000E+00  0.00000000000E+00  0.26865474731E+01  0.26865474731E+01  0.00000000000E+00 0.  1.
         22   -1    0    0    0    0 -0.00000000000E+00 -0.00000000000E+00 -0.41500378345E+01  0.41500378345E+01  0.00000000000E+00 0. -1.
          4    1    1    2  501    0  0.32477365305E+01 -0.57041409666E+00 -0.12696756114E+01  0.35334460476E+01  0.00000000000E+00 0.  1.
         -4    1    1    2    0  501 -0.32477365305E+01  0.57041409666E+00 -0.19381474995E+00  0.33031392600E+01  0.00000000000E+00 0. -1.
<mgrwt>
<rscale>  0 0.32974482E+01</rscale>
<asrwt>0</asrwt>
<pdfrwt beam="1">0</pdfrwt>
<pdfrwt beam="2">0</pdfrwt>
<totfact> 0.14505364E+12</totfact>
</mgrwt>
</event>
<event>
 4    2  0.2093759E+006  0.2496409E+01  0.7546771E-02  0.2710115E+00
         22   -1    0    0    0    0  0.00000000000E+00  0.00000000000E+00  0.60857136369E+00  0.60857136369E+00  0.00000000000E+00 0. -1.
         22   -1    0    0    0    0 -0.00000000000E+00 -0.00000000000E+00 -0.10284580509E+02  0.10284580509E+02  0.00000000000E+00 0.  1.
          4    1    1    2  501    0  0.14002030160E+01  0.20667584961E+01 -0.44813218263E+01  0.51297470189E+01  0.00000000000E+00 0.  1.
         -4    1    1    2    0  501 -0.14002030160E+01 -0.20667584961E+01 -0.51946873194E+01  0.57634048542E+01  0.00000000000E+00 0. -1.
<mgrwt>
<rscale>  0 0.24964093E+01</rscale>
<asrwt>0</asrwt>
<pdfrwt beam="1">0</pdfrwt>
<pdfrwt beam="2">0</pdfrwt>
<totfact> 0.26979333E+12</totfact>
</mgrwt>
</event>
<event>
 4    2  0.2093759E+006  0.2108140E+01  0.7546771E-02  0.2911369E+00
         22   -1    0    0    0    0  0.00000000000E+00  0.00000000000E+00  0.48524960944E+01  0.48524960944E+01  0.00000000000E+00 0.  1.
         22   -1    0    0    0    0 -0.00000000000E+00 -0.00000000000E+00 -0.18401443548E+01  0.18401443548E+01  0.00000000000E+00 0. -1.
          4    1    1    2  501    0 -0.19876188919E+01  0.70258618674E+00 -0.86542703363E+00  0.22788637871E+01  0.00000000000E+00 0. -1.
         -4    1    1    2    0  501  0.19876188919E+01 -0.70258618674E+00  0.38777787732E+01  0.44137766621E+01  0.00000000000E+00 0.  1.
<mgrwt>
<rscale>  0 0.21081405E+01</rscale>
<asrwt>0</asrwt>
<pdfrwt beam="1">0</pdfrwt>
<pdfrwt beam="2">0</pdfrwt>
<totfact> 0.18706410E+12</totfact>
</mgrwt>
</event>
<event>
 4    2  0.2093759E+006  0.2342524E+01  0.7546771E-02  0.2782309E+00
         22   -1    0    0    0    0  0.00000000000E+00  0.00000000000E+00  0.30184286319E+01  0.30184286319E+01  0.00000000000E+00 0. -1.
         22   -1    0    0    0    0 -0.00000000000E+00 -0.00000000000E+00 -0.31316387805E+01  0.31316387805E+01  0.00000000000E+00 0.  1.
          4    1    1    2  501    0  0.12797088989E+01 -0.19620811152E+01 -0.20482262906E+01  0.31116953749E+01  0.00000000000E+00 0.  1.
         -4    1    1    2    0  501 -0.12797088989E+01  0.19620811152E+01  0.19350161420E+01  0.30383720375E+01  0.00000000000E+00 0. -1.
<mgrwt>
<rscale>  0 0.23425237E+01</rscale>
<asrwt>0</asrwt>
<pdfrwt beam="1">0</pdfrwt>
<pdfrwt beam="2">0</pdfrwt>
<totfact> 0.17619631E+12</totfact>
</mgrwt>
</event>
<event>
 4    2  0.2093759E+006  0.2131049E+01  0.7546771E-02  0.2897555E+00
         22   -1    0    0    0    0  0.00000000000E+00  0.00000000000E+00  0.76572501548E+00  0.76572501548E+00  0.00000000000E+00 0. -1.
         22   -1    0    0    0    0 -0.00000000000E+00 -0.00000000000E+00 -0.62156873338E+01  0.62156873338E+01  0.00000000000E+00 0.  1.
          4    1    1    2  501    0 -0.16162859836E+01 -0.13888800991E+01 -0.34722879434E+01  0.40740829487E+01  0.00000000000E+00 0.  1.
         -4    1    1    2    0  501  0.16162859836E+01  0.13888800991E+01 -0.19776743749E+01  0.29073294007E+01  0.00000000000E+00 0. -1.
<mgrwt>
<rscale>  0 0.21310486E+01</rscale>
<asrwt>0</asrwt>
<pdfrwt beam="1">0</pdfrwt>
<pdfrwt beam="2">0</pdfrwt>
<totfact> 0.38070793E+12</totfact>
</mgrwt>
</event>
<event>
 4    2  0.2093759E+006  0.7826852E+01  0.7546771E-02  0.1886440E+00
         22   -1    0    0    0    0  0.00000000000E+00  0.00000000000E+00  0.19851080584E+02  0.19851080584E+02  0.00000000000E+00 0.  1.
         22   -1    0    0    0    0 -0.00000000000E+00 -0.00000000000E+00 -0.74624531735E+01  0.74624531735E+01  0.00000000000E+00 0. -1.
          4    1    1    2  501    0 -0.93156929255E+00 -0.77712160060E+01 -0.42642071545E+01  0.89130848877E+01  0.00000000000E+00 0. -1.
         -4    1    1    2    0  501  0.93156929255E+00  0.77712160060E+01  0.16652834565E+02  0.18400448869E+02  0.00000000000E+00 0.  1.
<mgrwt>
<rscale>  0 0.78268525E+01</rscale>
<asrwt>0</asrwt>
<pdfrwt beam="1">0</pdfrwt>
<pdfrwt beam="2">0</pdfrwt>
<totfact> 0.65485852E+10</totfact>
</mgrwt>
</event>
<event>
 4    2  0.2093759E+006  0.4086684E+01  0.7546771E-02  0.2261025E+00
         22   -1    0    0    0    0  0.00000000000E+00  0.00000000000E+00  0.68039263350E+00  0.68039263350E+00  0.00000000000E+00 0.  1.
         22   -1    0    0    0    0 -0.00000000000E+00 -0.00000000000E+00 -0.24565942192E+02  0.24565942192E+02  0.00000000000E+00 0. -1.
          4    1    1    2  501    0  0.77107878693E+00  0.40132807234E+01 -0.12301541298E+02  0.12962596305E+02  0.00000000000E+00 0.  1.
         -4    1    1    2    0  501 -0.77107878693E+00 -0.40132807234E+01 -0.11584008260E+02  0.12283738520E+02  0.00000000000E+00 0. -1.
<mgrwt>
<rscale>  0 0.40866838E+01</rscale>
<asrwt>0</asrwt>
<pdfrwt beam="1">0</pdfrwt>
<pdfrwt beam="2">0</pdfrwt>
<totfact> 0.81149803E+11</totfact>
</mgrwt>
</event>
<event>
 4    2  0.2093759E+006  0.2172896E+01  0.7546771E-02  0.2873047E+00
         22   -1    0    0    0    0  0.00000000000E+00  0.00000000000E+00  0.16804321889E+01  0.16804321889E+01  0.00000000000E+00 0.  1.
         22   -1    0    0    0    0 -0.00000000000E+00 -0.00000000000E+00 -0.36524244550E+01  0.36524244550E+01  0.00000000000E+00 0. -1.
          4    1    1    2  501    0 -0.21451225279E+01  0.34630664302E+00 -0.22668125965E+01  0.31400506840E+01  0.00000000000E+00 0. -1.
         -4    1    1    2    0  501  0.21451225279E+01 -0.34630664302E+00  0.29482033041E+00  0.21928059599E+01  0.00000000000E+00 0.  1.
<mgrwt>
<rscale>  0 0.21728964E+01</rscale>
<asrwt>0</asrwt>
<pdfrwt beam="1">0</pdfrwt>
<pdfrwt beam="2">0</pdfrwt>
<totfact> 0.29034166E+12</totfact>
</mgrwt>
</event>
<event>
 4    2  0.2093759E+006  0.4073465E+01  0.7546771E-02  0.2263468E+00
         22   -1    0    0    0    0  0.00000000000E+00  0.00000000000E+00  0.26414030291E+01  0.26414030291E+01  0.00000000000E+00 0.  1.
         22   -1    0    0    0    0 -0.00000000000E+00 -0.00000000000E+00 -0.92394000162E+01  0.92394000162E+01  0.00000000000E+00 0. -1.
          4    1    1    2  501    0  0.38760014226E+01 -0.12528895704E+01 -0.66598846552E+01  0.78068676768E+01  0.00000000000E+00 0. -1.
         -4    1    1    2    0  501 -0.38760014226E+01  0.12528895704E+01  0.61887668058E-01  0.40739353685E+01  0.00000000000E+00 0.  1.
<mgrwt>
<rscale>  0 0.40734653E+01</rscale>
<asrwt>0</asrwt>
<pdfrwt beam="1">0</pdfrwt>
<pdfrwt beam="2">0</pdfrwt>
<totfact> 0.56990804E+11</totfact>
</mgrwt>
</event>
<event>
 4    2  0.2093759E+006  0.2595566E+01  0.7546771E-02  0.2667841E+00
         22   -1    0    0    0    0  0.00000000000E+00  0.00000000000E+00  0.10174865101E+02  0.10174865101E+02  0.00000000000E+00 0. -1.
         22   -1    0    0    0    0 -0.00000000000E+00 -0.00000000000E+00 -0.66423847345E+00  0.66423847345E+00  0.00000000000E+00 0.  1.
          4    1    1    2  501    0 -0.25032033738E+01  0.68624598116E+00  0.50615268307E+01  0.56882347469E+01  0.00000000000E+00 0.  1.
         -4    1    1    2    0  501  0.25032033738E+01 -0.68624598116E+00  0.44490997972E+01  0.51508688280E+01  0.00000000000E+00 0. -1.
<mgrwt>
<rscale>  0 0.25955656E+01</rscale>
<asrwt>0</asrwt>
<pdfrwt beam="1">0</pdfrwt>
<pdfrwt beam="2">0</pdfrwt>
<totfact> 0.24751212E+12</totfact>
</mgrwt>
</event>
<event>
 4    2  0.2093759E+006  0.3271996E+01  0.7546771E-02  0.2442638E+00
         22   -1    0    0    0    0  0.00000000000E+00  0.00000000000E+00  0.10371242304E+01  0.10371242304E+01  0.00000000000E+00 0. -1.
         22   -1    0    0    0    0 -0.00000000000E+00 -0.00000000000E+00 -0.19218398602E+02  0.19218398602E+02  0.00000000000E+00 0.  1.
          4    1    1    2  501    0  0.18563909274E+01 -0.26943958025E+01 -0.15981031881E+02  0.16312551487E+02  0.00000000000E+00 0.  1.
         -4    1    1    2    0  501 -0.18563909274E+01  0.26943958025E+01 -0.22002424899E+01  0.39429713453E+01  0.00000000000E+00 0. -1.
<mgrwt>
<rscale>  0 0.32719957E+01</rscale>
<asrwt>0</asrwt>
<pdfrwt beam="1">0</pdfrwt>
<pdfrwt beam="2">0</pdfrwt>
<totfact> 0.68289303E+11</totfact>
</mgrwt>
</event>
<event>
 4    2  0.2093759E+006  0.4744407E+01  0.7546771E-02  0.2154807E+00
         22   -1    0    0    0    0  0.00000000000E+00  0.00000000000E+00  0.35672433272E+01  0.35672433272E+01  0.00000000000E+00 0.  1.
         22   -1    0    0    0    0 -0.00000000000E+00 -0.00000000000E+00 -0.66918476328E+01  0.66918476328E+01  0.00000000000E+00 0. -1.
          4    1    1    2  501    0 -0.43162369327E+01 -0.19696442810E+01 -0.33702071182E+00  0.47563623509E+01  0.00000000000E+00 0. -1.
         -4    1    1    2    0  501  0.43162369327E+01  0.19696442810E+01 -0.27875835938E+01  0.55027286091E+01  0.00000000000E+00 0.  1.
<mgrwt>
<rscale>  0 0.47444072E+01</rscale>
<asrwt>0</asrwt>
<pdfrwt beam="1">0</pdfrwt>
<pdfrwt beam="2">0</pdfrwt>
<totfact> 0.59087661E+11</totfact>
</mgrwt>
</event>
<event>
 4    2  0.2093759E+006  0.2246704E+01  0.7546771E-02  0.2831961E+00
         22   -1    0    0    0    0  0.00000000000E+00  0.00000000000E+00  0.13865169570E+01  0.13865169570E+01  0.00000000000E+00 0. -1.
         22   -1    0    0    0    0 -0.00000000000E+00 -0.00000000000E+00 -0.10680588517E+02  0.10680588517E+02  0.00000000000E+00 0.  1.
          4    1    1    2  501    0  0.19163029058E+01 -0.11728006694E+01 -0.95455364739E+01  0.98063726633E+01  0.00000000000E+00 0.  1.
         -4    1    1    2    0  501 -0.19163029058E+01  0.11728006694E+01  0.25146491422E+00  0.22607328104E+01  0.00000000000E+00 0. -1.
<mgrwt>
<rscale>  0 0.22467039E+01</rscale>
<asrwt>0</asrwt>
<pdfrwt beam="1">0</pdfrwt>
<pdfrwt beam="2">0</pdfrwt>
<totfact> 0.10075861E+12</totfact>
</mgrwt>
</event>
<event>
 4    2  0.2093759E+006  0.2916995E+01  0.7546771E-02  0.2549079E+00
         22   -1    0    0    0    0  0.00000000000E+00  0.00000000000E+00  0.77198855668E+00  0.77198855668E+00  0.00000000000E+00 0.  1.
         22   -1    0    0    0    0 -0.00000000000E+00 -0.00000000000E+00 -0.11583687480E+02  0.11583687480E+02  0.00000000000E+00 0. -1.
          4    1    1    2  501    0  0.30096306297E+00 -0.29014276775E+01 -0.67662247658E+01  0.73682195214E+01  0.00000000000E+00 0. -1.
         -4    1    1    2    0  501 -0.30096306297E+00  0.29014276775E+01 -0.40454741576E+01  0.49874565154E+01  0.00000000000E+00 0.  1.
<mgrwt>
<rscale>  0 0.29169953E+01</rscale>
<asrwt>0</asrwt>
<pdfrwt beam="1">0</pdfrwt>
<pdfrwt beam="2">0</pdfrwt>
<totfact> 0.17826281E+12</totfact>
</mgrwt>
</event>
<event>
 4    2  0.2093759E+006  0.3563091E+01  0.7546771E-02  0.2369499E+00
         22   -1    0    0    0    0  0.00000000000E+00  0.00000000000E+00  0.27748963347E+01  0.27748963347E+01  0.00000000000E+00 0.  1.
         22   -1    0    0    0    0 -0.00000000000E+00 -0.00000000000E+00 -0.49350360146E+01  0.49350360146E+01  0.00000000000E+00 0. -1.
          4    1    1    2  501    0 -0.18177062949E+01  0.30645658742E+01 -0.21210592801E+01  0.41466266581E+01  0.00000000000E+00 0.  1.
         -4    1    1    2    0  501  0.18177062949E+01 -0.30645658742E+01 -0.39080399778E-01  0.35633056913E+01  0.00000000000E+00 0. -1.
<mgrwt>
<rscale>  0 0.35630914E+01</rscale>
<asrwt>0</asrwt>
<pdfrwt beam="1">0</pdfrwt>
<pdfrwt beam="2">0</pdfrwt>
<totfact> 0.11384576E+12</totfact>
</mgrwt>
</event>
<event>
 4    2  0.2093759E+006  0.2332137E+01  0.7546771E-02  0.2787504E+00
         22   -1    0    0    0    0  0.00000000000E+00  0.00000000000E+00  0.27039266780E-01  0.27039266780E-01  0.00000000000E+00 0. -1.
         22   -1    0    0    0    0 -0.00000000000E+00 -0.00000000000E+00 -0.28613515113E+03  0.28613515113E+03  0.00000000000E+00 0.  1.
          4    1    1    2  501    0  0.47086088523E+00  0.22841088809E+01 -0.65075314435E+02  0.65117090016E+02  0.00000000000E+00 0. -1.
         -4    1    1    2    0  501 -0.47086088523E+00 -0.22841088809E+01 -0.22103279743E+03  0.22104510038E+03  0.00000000000E+00 0.  1.
<mgrwt>
<rscale>  0 0.23321371E+01</rscale>
<asrwt>0</asrwt>
<pdfrwt beam="1">0</pdfrwt>
<pdfrwt beam="2">0</pdfrwt>
<totfact> 0.92022029E+11</totfact>
</mgrwt>
</event>
<event>
 4    2  0.2093759E+006  0.2377879E+01  0.7546771E-02  0.2764947E+00
         22   -1    0    0    0    0  0.00000000000E+00  0.00000000000E+00  0.36290163874E+00  0.36290163874E+00  0.00000000000E+00 0.  1.
         22   -1    0    0    0    0 -0.00000000000E+00 -0.00000000000E+00 -0.15749681452E+02  0.15749681452E+02  0.00000000000E+00 0. -1.
          4    1    1    2  501    0 -0.41804920906E+00 -0.23408427459E+01 -0.85275464641E+01  0.88528729009E+01  0.00000000000E+00 0. -1.
         -4    1    1    2    0  501  0.41804920906E+00  0.23408427459E+01 -0.68592333490E+01  0.72597101897E+01  0.00000000000E+00 0.  1.
<mgrwt>
<rscale>  0 0.23778793E+01</rscale>
<asrwt>0</asrwt>
<pdfrwt beam="1">0</pdfrwt>
<pdfrwt beam="2">0</pdfrwt>
<totfact> 0.28714749E+12</totfact>
</mgrwt>
</event>
<event>
 4    2  0.2093759E+006  0.2011210E+01  0.7546771E-02  0.2973201E+00
         22   -1    0    0    0    0  0.00000000000E+00  0.00000000000E+00  0.55048703828E+01  0.55048703828E+01  0.00000000000E+00 0. -1.
         22   -1    0    0    0    0 -0.00000000000E+00 -0.00000000000E+00 -0.85237564755E+00  0.85237564755E+00  0.00000000000E+00 0.  1.
          4    1    1    2  501    0 -0.11682441529E+01  0.16371223374E+01  0.11456898124E+01  0.23146423254E+01  0.00000000000E+00 0.  1.
         -4    1    1    2    0  501  0.11682441529E+01 -0.16371223374E+01  0.35068049228E+01  0.40426037049E+01  0.00000000000E+00 0. -1.
<mgrwt>
<rscale>  0 0.20112096E+01</rscale>
<asrwt>0</asrwt>
<pdfrwt beam="1">0</pdfrwt>
<pdfrwt beam="2">0</pdfrwt>
<totfact> 0.38934834E+12</totfact>
</mgrwt>
</event>
<event>
 4    2  0.2093759E+006  0.2322262E+01  0.7546771E-02  0.2792484E+00
         22   -1    0    0    0    0  0.00000000000E+00  0.00000000000E+00  0.13806529455E+01  0.13806529455E+01  0.00000000000E+00 0. -1.
         22   -1    0    0    0    0 -0.00000000000E+00 -0.00000000000E+00 -0.47095599075E+01  0.47095599075E+01  0.00000000000E+00 0.  1.
          4    1    1    2  501    0 -0.20116792969E+01 -0.11601932422E+01 -0.29222414572E+01  0.37326126355E+01  0.00000000000E+00 0.  1.
         -4    1    1    2    0  501  0.20116792969E+01  0.11601932422E+01 -0.40666550480E+00  0.23576002175E+01  0.00000000000E+00 0. -1.
<mgrwt>
<rscale>  0 0.23222622E+01</rscale>
<asrwt>0</asrwt>
<pdfrwt beam="1">0</pdfrwt>
<pdfrwt beam="2">0</pdfrwt>
<totfact> 0.26983688E+12</totfact>
</mgrwt>
</event>
<event>
 4    2  0.2093759E+006  0.2863107E+01  0.7546771E-02  0.2567293E+00
         22   -1    0    0    0    0  0.00000000000E+00  0.00000000000E+00  0.24567380502E+01  0.24567380502E+01  0.00000000000E+00 0. -1.
         22   -1    0    0    0    0 -0.00000000000E+00 -0.00000000000E+00 -0.51634299809E+01  0.51634299809E+01  0.00000000000E+00 0.  1.
          4    1    1    2  501    0 -0.23079602620E+01  0.16943141784E+01  0.91288095849E+00  0.30051177599E+01  0.00000000000E+00 0. -1.
         -4    1    1    2    0  501  0.23079602620E+01 -0.16943141784E+01 -0.36195728892E+01  0.46150502713E+01  0.00000000000E+00 0.  1.
<mgrwt>
<rscale>  0 0.28631069E+01</rscale>
<asrwt>0</asrwt>
<pdfrwt beam="1">0</pdfrwt>
<pdfrwt beam="2">0</pdfrwt>
<totfact> 0.12434366E+12</totfact>
</mgrwt>
</event>
<event>
 4    2  0.2093759E+006  0.2254325E+01  0.7546771E-02  0.2827864E+00
         22   -1    0    0    0    0  0.00000000000E+00  0.00000000000E+00  0.15926154299E+00  0.15926154299E+00  0.00000000000E+00 0. -1.
         22   -1    0    0    0    0 -0.00000000000E+00 -0.00000000000E+00 -0.11998419891E+03  0.11998419891E+03  0.00000000000E+00 0.  1.
          4    1    1    2  501    0 -0.12800256255E+00 -0.22506876133E+01 -0.11138000001E+03  0.11140281138E+03  0.00000000000E+00 0.  1.
         -4    1    1    2    0  501  0.12800256255E+00  0.22506876133E+01 -0.84449373534E+01  0.87406490773E+01  0.00000000000E+00 0. -1.
<mgrwt>
<rscale>  0 0.22543246E+01</rscale>
<asrwt>0</asrwt>
<pdfrwt beam="1">0</pdfrwt>
<pdfrwt beam="2">0</pdfrwt>
<totfact> 0.49896855E+11</totfact>
</mgrwt>
</event>
<event>
 4    2  0.2093759E+006  0.2890433E+01  0.7546771E-02  0.2557980E+00
         22   -1    0    0    0    0  0.00000000000E+00  0.00000000000E+00  0.29638389186E+00  0.29638389186E+00  0.00000000000E+00 0.  1.
         22   -1    0    0    0    0 -0.00000000000E+00 -0.00000000000E+00 -0.28736769643E+02  0.28736769643E+02  0.00000000000E+00 0. -1.
          4    1    1    2  501    0  0.74212248402E-01 -0.28894804649E+01 -0.12214986517E+02  0.12552310562E+02  0.00000000000E+00 0. -1.
         -4    1    1    2    0  501 -0.74212248402E-01  0.28894804649E+01 -0.16225399234E+02  0.16480842973E+02  0.00000000000E+00 0.  1.
<mgrwt>
<rscale>  0 0.28904333E+01</rscale>
<asrwt>0</asrwt>
<pdfrwt beam="1">0</pdfrwt>
<pdfrwt beam="2">0</pdfrwt>
<totfact> 0.16984041E+12</totfact>
</mgrwt>
</event>
<event>
 4    2  0.2093759E+006  0.3497709E+01  0.7546771E-02  0.2384998E+00
         22   -1    0    0    0    0  0.00000000000E+00  0.00000000000E+00  0.98144871505E+00  0.98144871505E+00  0.00000000000E+00 0.  1.
         22   -1    0    0    0    0 -0.00000000000E+00 -0.00000000000E+00 -0.13136209768E+02  0.13136209768E+02  0.00000000000E+00 0. -1.
          4    1    1    2  501    0  0.19754768575E+01 -0.28864264366E+01 -0.44820225523E+01  0.56852873760E+01  0.00000000000E+00 0.  1.
         -4    1    1    2    0  501 -0.19754768575E+01  0.28864264366E+01 -0.76727385011E+01  0.84323711075E+01  0.00000000000E+00 0. -1.
<mgrwt>
<rscale>  0 0.34977087E+01</rscale>
<asrwt>0</asrwt>
<pdfrwt beam="1">0</pdfrwt>
<pdfrwt beam="2">0</pdfrwt>
<totfact> 0.11630936E+12</totfact>
</mgrwt>
</event>
<event>
 4    2  0.2093759E+006  0.2230115E+01  0.7546771E-02  0.2840968E+00
         22   -1    0    0    0    0  0.00000000000E+00  0.00000000000E+00  0.58876009231E+00  0.58876009231E+00  0.00000000000E+00 0.  1.
         22   -1    0    0    0    0 -0.00000000000E+00 -0.00000000000E+00 -0.11953384565E+02  0.11953384565E+02  0.00000000000E+00 0. -1.
          4    1    1    2  501    0  0.14834858325E+01 -0.16651369242E+01 -0.90786421081E+01  0.93485375176E+01  0.00000000000E+00 0. -1.
         -4    1    1    2    0  501 -0.14834858325E+01  0.16651369242E+01 -0.22859823646E+01  0.31936071397E+01  0.00000000000E+00 0.  1.
<mgrwt>
<rscale>  0 0.22301146E+01</rscale>
<asrwt>0</asrwt>
<pdfrwt beam="1">0</pdfrwt>
<pdfrwt beam="2">0</pdfrwt>
<totfact> 0.23329562E+12</totfact>
</mgrwt>
</event>
<event>
 4    2  0.2093759E+006  0.2897574E+01  0.7546771E-02  0.2555573E+00
         22   -1    0    0    0    0  0.00000000000E+00  0.00000000000E+00  0.15954171441E+01  0.15954171441E+01  0.00000000000E+00 0.  1.
         22   -1    0    0    0    0 -0.00000000000E+00 -0.00000000000E+00 -0.71904696863E+01  0.71904696863E+01  0.00000000000E+00 0. -1.
          4    1    1    2  501    0  0.12634893142E+01 -0.26075913543E+01 -0.50722213246E+01  0.58415209564E+01  0.00000000000E+00 0. -1.
         -4    1    1    2    0  501 -0.12634893142E+01  0.26075913543E+01 -0.52283121756E+00  0.29443658740E+01  0.00000000000E+00 0.  1.
<mgrwt>
<rscale>  0 0.28975745E+01</rscale>
<asrwt>0</asrwt>
<pdfrwt beam="1">0</pdfrwt>
<pdfrwt beam="2">0</pdfrwt>
<totfact> 0.13813464E+12</totfact>
</mgrwt>
</event>
<event>
 4    2  0.2093759E+006  0.2256197E+01  0.7546771E-02  0.2826862E+00
         22   -1    0    0    0    0  0.00000000000E+00  0.00000000000E+00  0.46111396282E+02  0.46111396282E+02  0.00000000000E+00 0.  1.
         22   -1    0    0    0    0 -0.00000000000E+00 -0.00000000000E+00 -0.11541774604E+01  0.11541774604E+01  0.00000000000E+00 0. -1.
          4    1    1    2  501    0 -0.11339669727E+01 -0.19505235379E+01  0.44300907537E-02  0.22562009646E+01  0.00000000000E+00 0. -1.
         -4    1    1    2    0  501  0.11339669727E+01  0.19505235379E+01  0.44952788731E+02  0.45009372778E+02  0.00000000000E+00 0.  1.
<mgrwt>
<rscale>  0 0.22561966E+01</rscale>
<asrwt>0</asrwt>
<pdfrwt beam="1">0</pdfrwt>
<pdfrwt beam="2">0</pdfrwt>
<totfact> 0.19794198E+11</totfact>
</mgrwt>
</event>
<event>
 4    2  0.2093759E+006  0.3339340E+01  0.7546771E-02  0.2424725E+00
         22   -1    0    0    0    0  0.00000000000E+00  0.00000000000E+00  0.17517776995E+01  0.17517776995E+01  0.00000000000E+00 0.  1.
         22   -1    0    0    0    0 -0.00000000000E+00 -0.00000000000E+00 -0.27147421277E+02  0.27147421277E+02  0.00000000000E+00 0. -1.
          4    1    1    2  501    0  0.22192811708E+01 -0.24951915799E+01 -0.25340319418E+02  0.25559400974E+02  0.00000000000E+00 0. -1.
         -4    1    1    2    0  501 -0.22192811708E+01  0.24951915799E+01 -0.55324159399E-01  0.33397980026E+01  0.00000000000E+00 0.  1.
<mgrwt>
<rscale>  0 0.33393397E+01</rscale>
<asrwt>0</asrwt>
<pdfrwt beam="1">0</pdfrwt>
<pdfrwt beam="2">0</pdfrwt>
<totfact> 0.24243809E+11</totfact>
</mgrwt>
</event>
<event>
 4    2  0.2093759E+006  0.2113857E+01  0.7546771E-02  0.2907894E+00
         22   -1    0    0    0    0  0.00000000000E+00  0.00000000000E+00  0.21718188045E+02  0.21718188045E+02  0.00000000000E+00 0.  1.
         22   -1    0    0    0    0 -0.00000000000E+00 -0.00000000000E+00 -0.20715162508E+00  0.20715162508E+00  0.00000000000E+00 0. -1.
          4    1    1    2  501    0 -0.17690494447E+01  0.11570898331E+01  0.98519239306E+01  0.10076149957E+02  0.00000000000E+00 0. -1.
         -4    1    1    2    0  501  0.17690494447E+01 -0.11570898331E+01  0.11659112489E+02  0.11849189713E+02  0.00000000000E+00 0.  1.
<mgrwt>
<rscale>  0 0.21138573E+01</rscale>
<asrwt>0</asrwt>
<pdfrwt beam="1">0</pdfrwt>
<pdfrwt beam="2">0</pdfrwt>
<totfact> 0.36092228E+12</totfact>
</mgrwt>
</event>
<event>
 4    2  0.2093759E+006  0.2373004E+01  0.7546771E-02  0.2767312E+00
         22   -1    0    0    0    0  0.00000000000E+00  0.00000000000E+00  0.57941545628E+00  0.57941545628E+00  0.00000000000E+00 0. -1.
         22   -1    0    0    0    0 -0.00000000000E+00 -0.00000000000E+00 -0.10345768199E+02  0.10345768199E+02  0.00000000000E+00 0.  1.
          4    1    1    2  501    0 -0.23644242927E+01  0.20160590997E+00 -0.35382905506E+01  0.42603576375E+01  0.00000000000E+00 0. -1.
         -4    1    1    2    0  501  0.23644242927E+01 -0.20160590997E+00 -0.62280621918E+01  0.66648260175E+01  0.00000000000E+00 0.  1.
<mgrwt>
<rscale>  0 0.23730038E+01</rscale>
<asrwt>0</asrwt>
<pdfrwt beam="1">0</pdfrwt>
<pdfrwt beam="2">0</pdfrwt>
<totfact> 0.28316693E+12</totfact>
</mgrwt>
</event>
<event>
 4    2  0.2093759E+006  0.2642199E+01  0.7546771E-02  0.2648975E+00
         22   -1    0    0    0    0  0.00000000000E+00  0.00000000000E+00  0.32648874960E+01  0.32648874960E+01  0.00000000000E+00 0. -1.
         22   -1    0    0    0    0 -0.00000000000E+00 -0.00000000000E+00 -0.41055803592E+01  0.41055803592E+01  0.00000000000E+00 0.  1.
          4    1    1    2  501    0  0.10985326975E+01 -0.24030065637E+01 -0.29713678112E+01  0.39762094138E+01  0.00000000000E+00 0.  1.
         -4    1    1    2    0  501 -0.10985326975E+01  0.24030065637E+01  0.21306749480E+01  0.33942584414E+01  0.00000000000E+00 0. -1.
<mgrwt>
<rscale>  0 0.26421988E+01</rscale>
<asrwt>0</asrwt>
<pdfrwt beam="1">0</pdfrwt>
<pdfrwt beam="2">0</pdfrwt>
<totfact> 0.11698901E+12</totfact>
</mgrwt>
</event>
<event>
 4    2  0.2093759E+006  0.2375063E+01  0.7546771E-02  0.2766312E+00
         22   -1    0    0    0    0  0.00000000000E+00  0.00000000000E+00  0.54326811076E+00  0.54326811076E+00  0.00000000000E+00 0.  1.
         22   -1    0    0    0    0 -0.00000000000E+00 -0.00000000000E+00 -0.14197083814E+02  0.14197083814E+02  0.00000000000E+00 0. -1.
          4    1    1    2  501    0 -0.75573259766E-01  0.23738605687E+01 -0.10646837100E+02  0.10908531778E+02  0.00000000000E+00 0. -1.
         -4    1    1    2    0  501  0.75573259766E-01 -0.23738605687E+01 -0.30069786036E+01  0.38318201471E+01  0.00000000000E+00 0.  1.
<mgrwt>
<rscale>  0 0.23750632E+01</rscale>
<asrwt>0</asrwt>
<pdfrwt beam="1">0</pdfrwt>
<pdfrwt beam="2">0</pdfrwt>
<totfact> 0.20702871E+12</totfact>
</mgrwt>
</event>
<event>
 4    2  0.2093759E+006  0.3077854E+01  0.7546771E-02  0.2498136E+00
         22   -1    0    0    0    0  0.00000000000E+00  0.00000000000E+00  0.31280753330E+01  0.31280753330E+01  0.00000000000E+00 0.  1.
         22   -1    0    0    0    0 -0.00000000000E+00 -0.00000000000E+00 -0.30408100278E+01  0.30408100278E+01  0.00000000000E+00 0. -1.
          4    1    1    2  501    0  0.13542295633E+01  0.27639192903E+01  0.24036351375E+00  0.30872256432E+01  0.00000000000E+00 0.  1.
         -4    1    1    2    0  501 -0.13542295633E+01 -0.27639192903E+01 -0.15309820855E+00  0.30816597176E+01  0.00000000000E+00 0. -1.
<mgrwt>
<rscale>  0 0.30778544E+01</rscale>
<asrwt>0</asrwt>
<pdfrwt beam="1">0</pdfrwt>
<pdfrwt beam="2">0</pdfrwt>
<totfact> 0.17492131E+12</totfact>
</mgrwt>
</event>
<event>
 4    2  0.2093759E+006  0.3551488E+01  0.7546771E-02  0.2372213E+00
         22   -1    0    0    0    0  0.00000000000E+00  0.00000000000E+00  0.11160403777E+01  0.11160403777E+01  0.00000000000E+00 0.  1.
         22   -1    0    0    0    0 -0.00000000000E+00 -0.00000000000E+00 -0.11382886642E+02  0.11382886642E+02  0.00000000000E+00 0. -1.
          4    1    1    2  501    0 -0.35042318632E+01 -0.57743265726E+00 -0.56614552113E+01  0.66831986753E+01  0.00000000000E+00 0.  1.
         -4    1    1    2    0  501  0.35042318632E+01  0.57743265726E+00 -0.46053910529E+01  0.58157283443E+01  0.00000000000E+00 0. -1.
<mgrwt>
<rscale>  0 0.35514883E+01</rscale>
<asrwt>0</asrwt>
<pdfrwt beam="1">0</pdfrwt>
<pdfrwt beam="2">0</pdfrwt>
<totfact> 0.11960493E+12</totfact>
</mgrwt>
</event>
<event>
 4    2  0.2093759E+006  0.2219342E+01  0.7546771E-02  0.2846887E+00
         22   -1    0    0    0    0  0.00000000000E+00  0.00000000000E+00  0.13757571624E+02  0.13757571624E+02  0.00000000000E+00 0.  1.
         22   -1    0    0    0    0 -0.00000000000E+00 -0.00000000000E+00 -0.30551438472E+01  0.30551438472E+01  0.00000000000E+00 0. -1.
          4    1    1    2  501    0 -0.79956715022E+00 -0.20703070434E+01 -0.25472478909E+01  0.33784538919E+01  0.00000000000E+00 0. -1.
         -4    1    1    2    0  501  0.79956715022E+00  0.20703070434E+01  0.13249675668E+02  0.13434261580E+02  0.00000000000E+00 0.  1.
<mgrwt>
<rscale>  0 0.22193420E+01</rscale>
<asrwt>0</asrwt>
<pdfrwt beam="1">0</pdfrwt>
<pdfrwt beam="2">0</pdfrwt>
<totfact> 0.29628669E+11</totfact>
</mgrwt>
</event>
<event>
 4    2  0.2093759E+006  0.2052783E+01  0.7546771E-02  0.2945984E+00
         22   -1    0    0    0    0  0.00000000000E+00  0.00000000000E+00  0.73239209766E+01  0.73239209766E+01  0.00000000000E+00 0. -1.
         22   -1    0    0    0    0 -0.00000000000E+00 -0.00000000000E+00 -0.63647608109E+00  0.63647608109E+00  0.00000000000E+00 0.  1.
          4    1    1    2  501    0 -0.15186496886E+01 -0.13811667447E+01  0.21103955429E+01  0.29440937147E+01  0.00000000000E+00 0.  1.
         -4    1    1    2    0  501  0.15186496886E+01  0.13811667447E+01  0.45770493526E+01  0.50163033431E+01  0.00000000000E+00 0. -1.
<mgrwt>
<rscale>  0 0.20527831E+01</rscale>
<asrwt>0</asrwt>
<pdfrwt beam="1">0</pdfrwt>
<pdfrwt beam="2">0</pdfrwt>
<totfact> 0.38599894E+12</totfact>
</mgrwt>
</event>
<event>
 4    2  0.2093759E+006  0.3844118E+01  0.7546771E-02  0.2308120E+00
         22   -1    0    0    0    0  0.00000000000E+00  0.00000000000E+00  0.57878564442E+01  0.57878564442E+01  0.00000000000E+00 0. -1.
         22   -1    0    0    0    0 -0.00000000000E+00 -0.00000000000E+00 -0.18604563332E+02  0.18604563332E+02  0.00000000000E+00 0.  1.
          4    1    1    2  501    0  0.37169253887E+01 -0.98066757922E+00 -0.17736838618E+02  0.18148627700E+02  0.00000000000E+00 0.  1.
         -4    1    1    2    0  501 -0.37169253887E+01  0.98066757922E+00  0.49201317300E+01  0.62437920759E+01  0.00000000000E+00 0. -1.
<mgrwt>
<rscale>  0 0.38441180E+01</rscale>
<asrwt>0</asrwt>
<pdfrwt beam="1">0</pdfrwt>
<pdfrwt beam="2">0</pdfrwt>
<totfact> 0.96150239E+10</totfact>
</mgrwt>
</event>
<event>
 4    2  0.2093759E+006  0.2232169E+01  0.7546771E-02  0.2839846E+00
         22   -1    0    0    0    0  0.00000000000E+00  0.00000000000E+00  0.31916948980E+01  0.31916948980E+01  0.00000000000E+00 0. -1.
         22   -1    0    0    0    0 -0.00000000000E+00 -0.00000000000E+00 -0.15705821312E+01  0.15705821312E+01  0.00000000000E+00 0.  1.
          4    1    1    2  501    0  0.15832078553E+01 -0.15735412553E+01  0.62561548577E+00  0.23181833257E+01  0.00000000000E+00 0.  1.
         -4    1    1    2    0  501 -0.15832078553E+01  0.15735412553E+01  0.99549728093E+00  0.24440937035E+01  0.00000000000E+00 0. -1.
<mgrwt>
<rscale>  0 0.22321692E+01</rscale>
<asrwt>0</asrwt>
<pdfrwt beam="1">0</pdfrwt>
<pdfrwt beam="2">0</pdfrwt>
<totfact> 0.36760384E+12</totfact>
</mgrwt>
</event>
<event>
 4    2  0.2093759E+006  0.4152137E+01  0.7546771E-02  0.2249123E+00
         22   -1    0    0    0    0  0.00000000000E+00  0.00000000000E+00  0.28274175208E+01  0.28274175208E+01  0.00000000000E+00 0.  1.
         22   -1    0    0    0    0 -0.00000000000E+00 -0.00000000000E+00 -0.62212696995E+01  0.62212696995E+01  0.00000000000E+00 0. -1.
          4    1    1    2  501    0 -0.37068924780E+01  0.18706111954E+01 -0.10588298975E+01  0.42850156172E+01  0.00000000000E+00 0.  1.
         -4    1    1    2    0  501  0.37068924780E+01 -0.18706111954E+01 -0.23350222813E+01  0.47636716031E+01  0.00000000000E+00 0. -1.
<mgrwt>
<rscale>  0 0.41521366E+01</rscale>
<asrwt>0</asrwt>
<pdfrwt beam="1">0</pdfrwt>
<pdfrwt beam="2">0</pdfrwt>
<totfact> 0.84598754E+11</totfact>
</mgrwt>
</event>
<event>
 4    2  0.2093759E+006  0.3252610E+01  0.7546771E-02  0.2447916E+00
         22   -1    0    0    0    0  0.00000000000E+00  0.00000000000E+00  0.28395495511E+01  0.28395495511E+01  0.00000000000E+00 0.  1.
         22   -1    0    0    0    0 -0.00000000000E+00 -0.00000000000E+00 -0.47312574860E+01  0.47312574860E+01  0.00000000000E+00 0. -1.
          4    1    1    2  501    0 -0.24065351754E+01  0.21881630981E+01 -0.26909334345E+01  0.42214443077E+01  0.00000000000E+00 0. -1.
         -4    1    1    2    0  501  0.24065351754E+01 -0.21881630981E+01  0.79922549953E+00  0.33493627294E+01  0.00000000000E+00 0.  1.
<mgrwt>
<rscale>  0 0.32526096E+01</rscale>
<asrwt>0</asrwt>
<pdfrwt beam="1">0</pdfrwt>
<pdfrwt beam="2">0</pdfrwt>
<totfact> 0.11649623E+12</totfact>
</mgrwt>
</event>
<event>
 4    2  0.2093759E+006  0.2277114E+01  0.7546771E-02  0.2815772E+00
         22   -1    0    0    0    0  0.00000000000E+00  0.00000000000E+00  0.18445925791E+00  0.18445925791E+00  0.00000000000E+00 0. -1.
         22   -1    0    0    0    0 -0.00000000000E+00 -0.00000000000E+00 -0.29437100588E+02  0.29437100588E+02  0.00000000000E+00 0.  1.
          4    1    1    2  501    0 -0.20022033732E+01 -0.10846340173E+01 -0.11482237675E+02  0.11705854574E+02  0.00000000000E+00 0. -1.
         -4    1    1    2    0  501  0.20022033732E+01  0.10846340173E+01 -0.17770403655E+02  0.17915705271E+02  0.00000000000E+00 0.  1.
<mgrwt>
<rscale>  0 0.22771142E+01</rscale>
<asrwt>0</asrwt>
<pdfrwt beam="1">0</pdfrwt>
<pdfrwt beam="2">0</pdfrwt>
<totfact> 0.27984263E+12</totfact>
</mgrwt>
</event>
<event>
 4    2  0.2093759E+006  0.2411084E+01  0.7546771E-02  0.2749077E+00
         22   -1    0    0    0    0  0.00000000000E+00  0.00000000000E+00  0.52196873080E+01  0.52196873080E+01  0.00000000000E+00 0. -1.
         22   -1    0    0    0    0 -0.00000000000E+00 -0.00000000000E+00 -0.37373776401E+01  0.37373776401E+01  0.00000000000E+00 0.  1.
          4    1    1    2  501    0 -0.23403457914E+01  0.57974610207E+00 -0.30112091994E+01  0.38575516599E+01  0.00000000000E+00 0.  1.
         -4    1    1    2    0  501  0.23403457914E+01 -0.57974610207E+00  0.44935188673E+01  0.50995132883E+01  0.00000000000E+00 0. -1.
<mgrwt>
<rscale>  0 0.24110836E+01</rscale>
<asrwt>0</asrwt>
<pdfrwt beam="1">0</pdfrwt>
<pdfrwt beam="2">0</pdfrwt>
<totfact> 0.75182274E+11</totfact>
</mgrwt>
</event>
<event>
 4    2  0.2093759E+006  0.4692900E+01  0.7546771E-02  0.2161648E+00
         22   -1    0    0    0    0  0.00000000000E+00  0.00000000000E+00  0.52782445345E+01  0.52782445345E+01  0.00000000000E+00 0.  1.
         22   -1    0    0    0    0 -0.00000000000E+00 -0.00000000000E+00 -0.41726094747E+01  0.41726094747E+01  0.00000000000E+00 0. -1.
          4    1    1    2  501    0 -0.18582966212E+01 -0.43092976484E+01  0.58021965533E+00  0.47286327202E+01  0.00000000000E+00 0.  1.
         -4    1    1    2    0  501  0.18582966212E+01  0.43092976484E+01  0.52541540450E+00  0.47222212890E+01  0.00000000000E+00 0. -1.
<mgrwt>
<rscale>  0 0.46929002E+01</rscale>
<asrwt>0</asrwt>
<pdfrwt beam="1">0</pdfrwt>
<pdfrwt beam="2">0</pdfrwt>
<totfact> 0.65179429E+11</totfact>
</mgrwt>
</event>
<event>
 4    2  0.2093759E+006  0.2060038E+01  0.7546771E-02  0.2941344E+00
         22   -1    0    0    0    0  0.00000000000E+00  0.00000000000E+00  0.25319997837E+01  0.25319997837E+01  0.00000000000E+00 0. -1.
         22   -1    0    0    0    0 -0.00000000000E+00 -0.00000000000E+00 -0.27144841425E+01  0.27144841425E+01  0.00000000000E+00 0.  1.
          4    1    1    2  501    0 -0.12918903917E+01 -0.16046109587E+01 -0.17137405479E+01  0.26796760585E+01  0.00000000000E+00 0.  1.
         -4    1    1    2    0  501  0.12918903917E+01  0.16046109587E+01  0.15312561890E+01  0.25668078677E+01  0.00000000000E+00 0. -1.
<mgrwt>
<rscale>  0 0.20600381E+01</rscale>
<asrwt>0</asrwt>
<pdfrwt beam="1">0</pdfrwt>
<pdfrwt beam="2">0</pdfrwt>
<totfact> 0.25552218E+12</totfact>
</mgrwt>
</event>
<event>
 4    2  0.2093759E+006  0.2373166E+01  0.7546771E-02  0.2767233E+00
         22   -1    0    0    0    0  0.00000000000E+00  0.00000000000E+00  0.18865405960E+00  0.18865405960E+00  0.00000000000E+00 0.  1.
         22   -1    0    0    0    0 -0.00000000000E+00 -0.00000000000E+00 -0.32162730202E+02  0.32162730202E+02  0.00000000000E+00 0. -1.
          4    1    1    2  501    0  0.27207221439E+00  0.23575181766E+01 -0.20321690568E+02  0.20459790390E+02  0.00000000000E+00 0. -1.
         -4    1    1    2    0  501 -0.27207221439E+00 -0.23575181766E+01 -0.11652385574E+02  0.11891593871E+02  0.00000000000E+00 0.  1.
<mgrwt>
<rscale>  0 0.23731657E+01</rscale>
<asrwt>0</asrwt>
<pdfrwt beam="1">0</pdfrwt>
<pdfrwt beam="2">0</pdfrwt>
<totfact> 0.24375295E+12</totfact>
</mgrwt>
</event>
<event>
 4    2  0.2093759E+006  0.3680178E+01  0.7546771E-02  0.2342942E+00
         22   -1    0    0    0    0  0.00000000000E+00  0.00000000000E+00  0.49870411523E+00  0.49870411523E+00  0.00000000000E+00 0. -1.
         22   -1    0    0    0    0 -0.00000000000E+00 -0.00000000000E+00 -0.27158342550E+02  0.27158342550E+02  0.00000000000E+00 0.  1.
          4    1    1    2  501    0 -0.33443048638E+01  0.15360138039E+01 -0.13390844662E+02  0.13887347990E+02  0.00000000000E+00 0. -1.
         -4    1    1    2    0  501  0.33443048638E+01 -0.15360138039E+01 -0.13268793772E+02  0.13769698675E+02  0.00000000000E+00 0.  1.
<mgrwt>
<rscale>  0 0.36801785E+01</rscale>
<asrwt>0</asrwt>
<pdfrwt beam="1">0</pdfrwt>
<pdfrwt beam="2">0</pdfrwt>
<totfact> 0.10161041E+12</totfact>
</mgrwt>
</event>
<event>
 4    2  0.2093759E+006  0.2089229E+01  0.7546771E-02  0.2922994E+00
         22   -1    0    0    0    0  0.00000000000E+00  0.00000000000E+00  0.63183442584E+00  0.63183442584E+00  0.00000000000E+00 0. -1.
         22   -1    0    0    0    0 -0.00000000000E+00 -0.00000000000E+00 -0.77499885164E+01  0.77499885164E+01  0.00000000000E+00 0.  1.
          4    1    1    2  501    0 -0.19268713018E+01  0.80749308097E+00 -0.49402349233E+01  0.53638418309E+01  0.00000000000E+00 0. -1.
         -4    1    1    2    0  501  0.19268713018E+01 -0.80749308097E+00 -0.21779191672E+01  0.30179811113E+01  0.00000000000E+00 0.  1.
<mgrwt>
<rscale>  0 0.20892291E+01</rscale>
<asrwt>0</asrwt>
<pdfrwt beam="1">0</pdfrwt>
<pdfrwt beam="2">0</pdfrwt>
<totfact> 0.36370457E+12</totfact>
</mgrwt>
</event>
<event>
 4    2  0.2093759E+006  0.2673644E+01  0.7546771E-02  0.2636597E+00
         22   -1    0    0    0    0  0.00000000000E+00  0.00000000000E+00  0.37962658658E+00  0.37962658658E+00  0.00000000000E+00 0.  1.
         22   -1    0    0    0    0 -0.00000000000E+00 -0.00000000000E+00 -0.18854488670E+02  0.18854488670E+02  0.00000000000E+00 0. -1.
          4    1    1    2  501    0  0.26732693463E+01 -0.44731550761E-01 -0.95839982305E+01  0.99499443210E+01  0.00000000000E+00 0. -1.
         -4    1    1    2    0  501 -0.26732693463E+01  0.44731550761E-01 -0.88908638528E+01  0.92841709354E+01  0.00000000000E+00 0.  1.
<mgrwt>
<rscale>  0 0.26736436E+01</rscale>
<asrwt>0</asrwt>
<pdfrwt beam="1">0</pdfrwt>
<pdfrwt beam="2">0</pdfrwt>
<totfact> 0.21844949E+12</totfact>
</mgrwt>
</event>
<event>
 4    2  0.2093759E+006  0.3344801E+01  0.7546771E-02  0.2423301E+00
         22   -1    0    0    0    0  0.00000000000E+00  0.00000000000E+00  0.63006321744E+01  0.63006321744E+01  0.00000000000E+00 0. -1.
         22   -1    0    0    0    0 -0.00000000000E+00 -0.00000000000E+00 -0.21151891406E+01  0.21151891406E+01  0.00000000000E+00 0.  1.
          4    1    1    2  501    0  0.10512560508E+01 -0.31753043379E+01  0.40679392082E+00  0.33694477614E+01  0.00000000000E+00 0.  1.
         -4    1    1    2    0  501 -0.10512560508E+01  0.31753043379E+01  0.37786491130E+01  0.50463735536E+01  0.00000000000E+00 0. -1.
<mgrwt>
<rscale>  0 0.33448015E+01</rscale>
<asrwt>0</asrwt>
<pdfrwt beam="1">0</pdfrwt>
<pdfrwt beam="2">0</pdfrwt>
<totfact> 0.11677225E+12</totfact>
</mgrwt>
</event>
<event>
 4    2  0.2093759E+006  0.3891367E+01  0.7546771E-02  0.2298554E+00
         22   -1    0    0    0    0  0.00000000000E+00  0.00000000000E+00  0.14189805746E+02  0.14189805746E+02  0.00000000000E+00 0.  1.
         22   -1    0    0    0    0 -0.00000000000E+00 -0.00000000000E+00 -0.12084562564E+01  0.12084562564E+01  0.00000000000E+00 0. -1.
          4    1    1    2  501    0 -0.27646524585E+01 -0.27385095894E+01  0.91233514980E+01  0.99185825874E+01  0.00000000000E+00 0.  1.
         -4    1    1    2    0  501  0.27646524585E+01  0.27385095894E+01  0.38579979915E+01  0.54796794149E+01  0.00000000000E+00 0. -1.
<mgrwt>
<rscale>  0 0.38913671E+01</rscale>
<asrwt>0</asrwt>
<pdfrwt beam="1">0</pdfrwt>
<pdfrwt beam="2">0</pdfrwt>
<totfact> 0.83405896E+11</totfact>
</mgrwt>
</event>
