<event>
 4    2  0.1060494E+006  0.2472478E+01  0.7546771E-02  0.2720790E+00
         22   -1    0    0    0    0  0.00000000000E+00  0.00000000000E+00  0.15084553511E+02  0.15084553511E+02  0.00000000000E+00 0.  1.
         22   -1    0    0    0    0 -0.00000000000E+00 -0.00000000000E+00 -0.40763633675E+00  0.40763633675E+00  0.00000000000E+00 0. -1.
          4    1    1    2  501    0  0.24161912716E+01 -0.52456250756E+00  0.67468671067E+01  0.71856357993E+01  0.00000000000E+00 0. -1.
         -4    1    1    2    0  501 -0.24161912716E+01  0.52456250756E+00  0.79300500679E+01  0.83065540488E+01  0.00000000000E+00 0.  1.
<mgrwt>
<rscale>  0 0.24724777E+01</rscale>
<asrwt>0</asrwt>
<pdfrwt beam="1">0</pdfrwt>
<pdfrwt beam="2">0</pdfrwt>
<totfact> 0.26570690E+12</totfact>
</mgrwt>
</event>
<event>
 4    2  0.1060494E+006  0.2715967E+01  0.7546771E-02  0.2620351E+00
         22   -1    0    0    0    0  0.00000000000E+00  0.00000000000E+00  0.44156301548E+02  0.44156301548E+02  0.00000000000E+00 0. -1.
         22   -1    0    0    0    0 -0.00000000000E+00 -0.00000000000E+00 -0.23300707746E+00  0.23300707746E+00  0.00000000000E+00 0.  1.
          4    1    1    2  501    0  0.17588355793E+00 -0.27102664267E+01  0.10153495282E+02  0.10510468380E+02  0.00000000000E+00 0.  1.
         -4    1    1    2    0  501 -0.17588355793E+00  0.27102664267E+01  0.33769799188E+02  0.33878840245E+02  0.00000000000E+00 0. -1.
<mgrwt>
<rscale>  0 0.27159674E+01</rscale>
<asrwt>0</asrwt>
<pdfrwt beam="1">0</pdfrwt>
<pdfrwt beam="2">0</pdfrwt>
<totfact> 0.12783657E+12</totfact>
</mgrwt>
</event>
<event>
 4    2  0.1060494E+006  0.3161153E+01  0.7546771E-02  0.2473583E+00
         22   -1    0    0    0    0  0.00000000000E+00  0.00000000000E+00  0.91798108590E+01  0.91798108590E+01  0.00000000000E+00 0.  1.
         22   -1    0    0    0    0 -0.00000000000E+00 -0.00000000000E+00 -0.23144848546E+02  0.23144848546E+02  0.00000000000E+00 0. -1.
          4    1    1    2  501    0 -0.29206659496E+01  0.12093790651E+01 -0.22760189527E+02  0.22978666511E+02  0.00000000000E+00 0. -1.
         -4    1    1    2    0  501  0.29206659496E+01 -0.12093790651E+01  0.87951518394E+01  0.93459928948E+01  0.00000000000E+00 0.  1.
<mgrwt>
<rscale>  0 0.31611528E+01</rscale>
<asrwt>0</asrwt>
<pdfrwt beam="1">0</pdfrwt>
<pdfrwt beam="2">0</pdfrwt>
<totfact> 0.42123271E+10</totfact>
</mgrwt>
</event>
<event>
 4    2  0.1060494E+006  0.2308615E+01  0.7546771E-02  0.2799432E+00
         22   -1    0    0    0    0  0.00000000000E+00  0.00000000000E+00  0.47145925997E+01  0.47145925997E+01  0.00000000000E+00 0. -1.
         22   -1    0    0    0    0 -0.00000000000E+00 -0.00000000000E+00 -0.15750273383E+01  0.15750273383E+01  0.00000000000E+00 0.  1.
          4    1    1    2  501    0 -0.97326822870E+00 -0.20934305003E+01 -0.10097934137E+00  0.23108221766E+01  0.00000000000E+00 0.  1.
         -4    1    1    2    0  501  0.97326822870E+00  0.20934305003E+01  0.32405446027E+01  0.39787977615E+01  0.00000000000E+00 0. -1.
<mgrwt>
<rscale>  0 0.23086148E+01</rscale>
<asrwt>0</asrwt>
<pdfrwt beam="1">0</pdfrwt>
<pdfrwt beam="2">0</pdfrwt>
<totfact> 0.23160814E+12</totfact>
</mgrwt>
</event>
<event>
 4    2  0.1060494E+006  0.3572538E+01  0.7546771E-02  0.2367300E+00
         22   -1    0    0    0    0  0.00000000000E+00  0.00000000000E+00  0.20180152989E+01  0.20180152989E+01  0.00000000000E+00 0.  1.
         22   -1    0    0    0    0 -0.00000000000E+00 -0.00000000000E+00 -0.64121676781E+01  0.64121676781E+01  0.00000000000E+00 0. -1.
          4    1    1    2  501    0 -0.71502086353E+00 -0.35002531147E+01 -0.17043392477E+01  0.39582570625E+01  0.00000000000E+00 0. -1.
         -4    1    1    2    0  501  0.71502086353E+00  0.35002531147E+01 -0.26898131315E+01  0.44719259144E+01  0.00000000000E+00 0.  1.
<mgrwt>
<rscale>  0 0.35725379E+01</rscale>
<asrwt>0</asrwt>
<pdfrwt beam="1">0</pdfrwt>
<pdfrwt beam="2">0</pdfrwt>
<totfact> 0.12075629E+12</totfact>
</mgrwt>
</event>
<event>
 4    2  0.1060494E+006  0.2353524E+01  0.7546771E-02  0.2776854E+00
         22   -1    0    0    0    0  0.00000000000E+00  0.00000000000E+00  0.40943771921E+01  0.40943771921E+01  0.00000000000E+00 0.  1.
         22   -1    0    0    0    0 -0.00000000000E+00 -0.00000000000E+00 -0.26935646066E+01  0.26935646066E+01  0.00000000000E+00 0. -1.
          4    1    1    2  501    0 -0.23517351431E+01 -0.91732889450E-01 -0.16940823814E+01  0.28998255502E+01  0.00000000000E+00 0. -1.
         -4    1    1    2    0  501  0.23517351431E+01  0.91732889450E-01  0.30948949669E+01  0.38881162486E+01  0.00000000000E+00 0.  1.
<mgrwt>
<rscale>  0 0.23535236E+01</rscale>
<asrwt>0</asrwt>
<pdfrwt beam="1">0</pdfrwt>
<pdfrwt beam="2">0</pdfrwt>
<totfact> 0.14692561E+12</totfact>
</mgrwt>
</event>
<event>
 4    2  0.1060494E+006  0.2151795E+01  0.7546771E-02  0.2885290E+00
         22   -1    0    0    0    0  0.00000000000E+00  0.00000000000E+00  0.18537311009E+01  0.18537311009E+01  0.00000000000E+00 0.  1.
         22   -1    0    0    0    0 -0.00000000000E+00 -0.00000000000E+00 -0.11974680685E+02  0.11974680685E+02  0.00000000000E+00 0. -1.
          4    1    1    2  501    0 -0.21328216708E+01  0.28512227755E+00 -0.11211441435E+02  0.11416069466E+02  0.00000000000E+00 0. -1.
         -4    1    1    2    0  501  0.21328216708E+01 -0.28512227755E+00  0.10904918511E+01  0.24123423202E+01  0.00000000000E+00 0.  1.
<mgrwt>
<rscale>  0 0.21517953E+01</rscale>
<asrwt>0</asrwt>
<pdfrwt beam="1">0</pdfrwt>
<pdfrwt beam="2">0</pdfrwt>
<totfact> 0.62738526E+11</totfact>
</mgrwt>
</event>
<event>
 4    2  0.1060494E+006  0.6421671E+01  0.7546771E-02  0.1983815E+00
         22   -1    0    0    0    0  0.00000000000E+00  0.00000000000E+00  0.11701936586E+02  0.11701936586E+02  0.00000000000E+00 0. -1.
         22   -1    0    0    0    0 -0.00000000000E+00 -0.00000000000E+00 -0.36330005338E+01  0.36330005338E+01  0.00000000000E+00 0.  1.
          4    1    1    2  501    0 -0.63922038637E+01 -0.61448179148E+00  0.27064810463E+01  0.69687084715E+01  0.00000000000E+00 0. -1.
         -4    1    1    2    0  501  0.63922038637E+01  0.61448179148E+00  0.53624550062E+01  0.83662286486E+01  0.00000000000E+00 0.  1.
<mgrwt>
<rscale>  0 0.64216710E+01</rscale>
<asrwt>0</asrwt>
<pdfrwt beam="1">0</pdfrwt>
<pdfrwt beam="2">0</pdfrwt>
<totfact> 0.29479563E+11</totfact>
</mgrwt>
</event>
<event>
 4    2  0.1060494E+006  0.2439775E+01  0.7546771E-02  0.2735692E+00
         22   -1    0    0    0    0  0.00000000000E+00  0.00000000000E+00  0.59810972696E+00  0.59810972696E+00  0.00000000000E+00 0.  1.
         22   -1    0    0    0    0 -0.00000000000E+00 -0.00000000000E+00 -0.21117004549E+02  0.21117004549E+02  0.00000000000E+00 0. -1.
          4    1    1    2  501    0 -0.98124584874E+00  0.22337543109E+01 -0.18154258103E+02  0.18317466773E+02  0.00000000000E+00 0. -1.
         -4    1    1    2    0  501  0.98124584874E+00 -0.22337543109E+01 -0.23646367194E+01  0.33976475026E+01  0.00000000000E+00 0.  1.
<mgrwt>
<rscale>  0 0.24397749E+01</rscale>
<asrwt>0</asrwt>
<pdfrwt beam="1">0</pdfrwt>
<pdfrwt beam="2">0</pdfrwt>
<totfact> 0.11355000E+12</totfact>
</mgrwt>
</event>
<event>
 4    2  0.1060494E+006  0.2418150E+01  0.7546771E-02  0.2745753E+00
         22   -1    0    0    0    0  0.00000000000E+00  0.00000000000E+00  0.57988657479E+02  0.57988657479E+02  0.00000000000E+00 0.  1.
         22   -1    0    0    0    0 -0.00000000000E+00 -0.00000000000E+00 -0.50510361529E+00  0.50510361529E+00  0.00000000000E+00 0. -1.
          4    1    1    2  501    0  0.16768604388E+01 -0.17422944074E+01  0.25766525882E+01  0.35336368367E+01  0.00000000000E+00 0. -1.
         -4    1    1    2    0  501 -0.16768604388E+01  0.17422944074E+01  0.54906901275E+02  0.54960124257E+02  0.00000000000E+00 0.  1.
<mgrwt>
<rscale>  0 0.24181503E+01</rscale>
<asrwt>0</asrwt>
<pdfrwt beam="1">0</pdfrwt>
<pdfrwt beam="2">0</pdfrwt>
<totfact> 0.37405129E+11</totfact>
</mgrwt>
</event>
<event>
 4    2  0.1060494E+006  0.2166745E+01  0.7546771E-02  0.2876592E+00
         22   -1    0    0    0    0  0.00000000000E+00  0.00000000000E+00  0.45291758904E+00  0.45291758904E+00  0.00000000000E+00 0. -1.
         22   -1    0    0    0    0 -0.00000000000E+00 -0.00000000000E+00 -0.10503453550E+02  0.10503453550E+02  0.00000000000E+00 0.  1.
          4    1    1    2  501    0 -0.16978288892E+01  0.13461650864E+01 -0.56527586154E+01  0.60537974314E+01  0.00000000000E+00 0. -1.
         -4    1    1    2    0  501  0.16978288892E+01 -0.13461650864E+01 -0.43977773453E+01  0.49025737073E+01  0.00000000000E+00 0.  1.
<mgrwt>
<rscale>  0 0.21667449E+01</rscale>
<asrwt>0</asrwt>
<pdfrwt beam="1">0</pdfrwt>
<pdfrwt beam="2">0</pdfrwt>
<totfact> 0.36719861E+12</totfact>
</mgrwt>
</event>
<event>
 4    2  0.1060494E+006  0.2010085E+01  0.7546771E-02  0.2973953E+00
         22   -1    0    0    0    0  0.00000000000E+00  0.00000000000E+00  0.83451656117E+01  0.83451656117E+01  0.00000000000E+00 0.  1.
         22   -1    0    0    0    0 -0.00000000000E+00 -0.00000000000E+00 -0.54069569138E+00  0.54069569138E+00  0.00000000000E+00 0. -1.
          4    1    1    2  501    0 -0.61186236734E+00  0.19146971789E+01  0.24656427430E+01  0.31811688071E+01  0.00000000000E+00 0. -1.
         -4    1    1    2    0  501  0.61186236734E+00 -0.19146971789E+01  0.53388271774E+01  0.57046924960E+01  0.00000000000E+00 0.  1.
<mgrwt>
<rscale>  0 0.20100848E+01</rscale>
<asrwt>0</asrwt>
<pdfrwt beam="1">0</pdfrwt>
<pdfrwt beam="2">0</pdfrwt>
<totfact> 0.39691524E+12</totfact>
</mgrwt>
</event>
<event>
 4    2  0.1060494E+006  0.2881067E+01  0.7546771E-02  0.2561154E+00
         22   -1    0    0    0    0  0.00000000000E+00  0.00000000000E+00  0.16242128625E+03  0.16242128625E+03  0.00000000000E+00 0. -1.
         22   -1    0    0    0    0 -0.00000000000E+00 -0.00000000000E+00 -0.51106181595E-01  0.51106181595E-01  0.00000000000E+00 0.  1.
          4    1    1    2  501    0 -0.15212267304E+01 -0.24467154214E+01  0.80801961947E+02  0.80853309157E+02  0.00000000000E+00 0. -1.
         -4    1    1    2    0  501  0.15212267304E+01  0.24467154214E+01  0.81568218119E+02  0.81619083273E+02  0.00000000000E+00 0.  1.
<mgrwt>
<rscale>  0 0.28810670E+01</rscale>
<asrwt>0</asrwt>
<pdfrwt beam="1">0</pdfrwt>
<pdfrwt beam="2">0</pdfrwt>
<totfact> 0.11237757E+12</totfact>
</mgrwt>
</event>
<event>
 4    2  0.1060494E+006  0.5088378E+01  0.7546771E-02  0.2112600E+00
         22   -1    0    0    0    0  0.00000000000E+00  0.00000000000E+00  0.30689063908E+02  0.30689063908E+02  0.00000000000E+00 0.  1.
         22   -1    0    0    0    0 -0.00000000000E+00 -0.00000000000E+00 -0.90461793257E+00  0.90461793257E+00  0.00000000000E+00 0. -1.
          4    1    1    2  501    0  0.35782214612E+01  0.36177233986E+01  0.10792071959E+02  0.11931488113E+02  0.00000000000E+00 0.  1.
         -4    1    1    2    0  501 -0.35782214612E+01 -0.36177233986E+01  0.18992374016E+02  0.19662193727E+02  0.00000000000E+00 0. -1.
<mgrwt>
<rscale>  0 0.50883781E+01</rscale>
<asrwt>0</asrwt>
<pdfrwt beam="1">0</pdfrwt>
<pdfrwt beam="2">0</pdfrwt>
<totfact> 0.44264224E+11</totfact>
</mgrwt>
</event>
<event>
 4    2  0.1060494E+006  0.2120113E+01  0.7546771E-02  0.2904114E+00
         22   -1    0    0    0    0  0.00000000000E+00  0.00000000000E+00  0.46395846586E+01  0.46395846586E+01  0.00000000000E+00 0. -1.
         22   -1    0    0    0    0 -0.00000000000E+00 -0.00000000000E+00 -0.96956199256E+00  0.96956199256E+00  0.00000000000E+00 0.  1.
          4    1    1    2  501    0  0.21190046771E+01  0.68531364530E-01  0.17569202706E+01  0.27534789280E+01  0.00000000000E+00 0. -1.
         -4    1    1    2    0  501 -0.21190046771E+01 -0.68531364530E-01  0.19131023954E+01  0.28556677232E+01  0.00000000000E+00 0.  1.
<mgrwt>
<rscale>  0 0.21201126E+01</rscale>
<asrwt>0</asrwt>
<pdfrwt beam="1">0</pdfrwt>
<pdfrwt beam="2">0</pdfrwt>
<totfact> 0.41165592E+12</totfact>
</mgrwt>
</event>
<event>
 4    2  0.1060494E+006  0.2217518E+01  0.7546771E-02  0.2847894E+00
         22   -1    0    0    0    0  0.00000000000E+00  0.00000000000E+00  0.19235133011E+01  0.19235133011E+01  0.00000000000E+00 0. -1.
         22   -1    0    0    0    0 -0.00000000000E+00 -0.00000000000E+00 -0.30282409435E+01  0.30282409435E+01  0.00000000000E+00 0.  1.
          4    1    1    2  501    0 -0.12315357426E+01  0.18441004264E+01 -0.15296092035E+01  0.26938988443E+01  0.00000000000E+00 0.  1.
         -4    1    1    2    0  501  0.12315357426E+01 -0.18441004264E+01  0.42488156105E+00  0.22578554003E+01  0.00000000000E+00 0. -1.
<mgrwt>
<rscale>  0 0.22175181E+01</rscale>
<asrwt>0</asrwt>
<pdfrwt beam="1">0</pdfrwt>
<pdfrwt beam="2">0</pdfrwt>
<totfact> 0.30936817E+12</totfact>
</mgrwt>
</event>
<event>
 4    2  0.1060494E+006  0.6287948E+01  0.7546771E-02  0.1994788E+00
         22   -1    0    0    0    0  0.00000000000E+00  0.00000000000E+00  0.20660344128E+02  0.20660344128E+02  0.00000000000E+00 0. -1.
         22   -1    0    0    0    0 -0.00000000000E+00 -0.00000000000E+00 -0.19140737666E+01  0.19140737666E+01  0.00000000000E+00 0.  1.
          4    1    1    2  501    0 -0.13596639195E+01  0.61391859637E+01  0.95247205825E+01  0.11413088646E+02  0.00000000000E+00 0. -1.
         -4    1    1    2    0  501  0.13596639195E+01 -0.61391859637E+01  0.92215497791E+01  0.11161329249E+02  0.00000000000E+00 0.  1.
<mgrwt>
<rscale>  0 0.62879480E+01</rscale>
<asrwt>0</asrwt>
<pdfrwt beam="1">0</pdfrwt>
<pdfrwt beam="2">0</pdfrwt>
<totfact> 0.30854185E+11</totfact>
</mgrwt>
</event>
<event>
 4    2  0.1060494E+006  0.1085393E+02  0.7546771E-02  0.1745506E+00
         22   -1    0    0    0    0  0.00000000000E+00  0.00000000000E+00  0.77113524646E+02  0.77113524646E+02  0.00000000000E+00 0.  1.
         22   -1    0    0    0    0 -0.00000000000E+00 -0.00000000000E+00 -0.77472450838E+01  0.77472450838E+01  0.00000000000E+00 0. -1.
          4    1    1    2  501    0  0.36291444103E+01 -0.10229225269E+02 -0.33342238279E+01  0.11354505154E+02  0.00000000000E+00 0. -1.
         -4    1    1    2    0  501 -0.36291444103E+01  0.10229225269E+02  0.72700503390E+02  0.73506264576E+02  0.00000000000E+00 0.  1.
<mgrwt>
<rscale>  0 0.10853927E+02</rscale>
<asrwt>0</asrwt>
<pdfrwt beam="1">0</pdfrwt>
<pdfrwt beam="2">0</pdfrwt>
<totfact> 0.10729409E+10</totfact>
</mgrwt>
</event>
<event>
 4    2  0.1060494E+006  0.5227145E+01  0.7546771E-02  0.2096828E+00
         22   -1    0    0    0    0  0.00000000000E+00  0.00000000000E+00  0.23450318743E+02  0.23450318743E+02  0.00000000000E+00 0.  1.
         22   -1    0    0    0    0 -0.00000000000E+00 -0.00000000000E+00 -0.12095946897E+01  0.12095946897E+01  0.00000000000E+00 0. -1.
          4    1    1    2  501    0  0.40637416729E+01  0.32877123196E+01  0.87567817993E+01  0.10198248681E+02  0.00000000000E+00 0.  1.
         -4    1    1    2    0  501 -0.40637416729E+01 -0.32877123196E+01  0.13483942254E+02  0.14461664752E+02  0.00000000000E+00 0. -1.
<mgrwt>
<rscale>  0 0.52271454E+01</rscale>
<asrwt>0</asrwt>
<pdfrwt beam="1">0</pdfrwt>
<pdfrwt beam="2">0</pdfrwt>
<totfact> 0.44648293E+11</totfact>
</mgrwt>
</event>
<event>
 4    2  0.1060494E+006  0.4231270E+01  0.7546771E-02  0.2235152E+00
         22   -1    0    0    0    0  0.00000000000E+00  0.00000000000E+00  0.98014422522E+01  0.98014422522E+01  0.00000000000E+00 0.  1.
         22   -1    0    0    0    0 -0.00000000000E+00 -0.00000000000E+00 -0.23465994876E+01  0.23465994876E+01  0.00000000000E+00 0. -1.
          4    1    1    2  501    0 -0.40135463347E+01 -0.13398113715E+01  0.86822484230E+00  0.43194285582E+01  0.00000000000E+00 0. -1.
         -4    1    1    2    0  501  0.40135463347E+01  0.13398113715E+01  0.65866179223E+01  0.78286131816E+01  0.00000000000E+00 0.  1.
<mgrwt>
<rscale>  0 0.42312703E+01</rscale>
<asrwt>0</asrwt>
<pdfrwt beam="1">0</pdfrwt>
<pdfrwt beam="2">0</pdfrwt>
<totfact> 0.60895218E+11</totfact>
</mgrwt>
</event>
<event>
 4    2  0.1060494E+006  0.2175298E+01  0.7546771E-02  0.2871668E+00
         22   -1    0    0    0    0  0.00000000000E+00  0.00000000000E+00  0.17402555145E+01  0.17402555145E+01  0.00000000000E+00 0.  1.
         22   -1    0    0    0    0 -0.00000000000E+00 -0.00000000000E+00 -0.13097613274E+02  0.13097613274E+02  0.00000000000E+00 0. -1.
          4    1    1    2  501    0  0.12584840512E+01 -0.17742996151E+01 -0.12282770843E+02  0.12473908001E+02  0.00000000000E+00 0. -1.
         -4    1    1    2    0  501 -0.12584840512E+01  0.17742996151E+01  0.92541308346E+00  0.23639607878E+01  0.00000000000E+00 0.  1.
<mgrwt>
<rscale>  0 0.21752980E+01</rscale>
<asrwt>0</asrwt>
<pdfrwt beam="1">0</pdfrwt>
<pdfrwt beam="2">0</pdfrwt>
<totfact> 0.60488220E+11</totfact>
</mgrwt>
</event>
<event>
 4    2  0.1060494E+006  0.2334706E+01  0.7546771E-02  0.2786215E+00
         22   -1    0    0    0    0  0.00000000000E+00  0.00000000000E+00  0.35975346026E+02  0.35975346026E+02  0.00000000000E+00 0.  1.
         22   -1    0    0    0    0 -0.00000000000E+00 -0.00000000000E+00 -0.17258730022E+00  0.17258730022E+00  0.00000000000E+00 0. -1.
          4    1    1    2  501    0  0.13995171385E+01  0.18687438772E+01  0.11586115956E+02  0.11819007354E+02  0.00000000000E+00 0. -1.
         -4    1    1    2    0  501 -0.13995171385E+01 -0.18687438772E+01  0.24216642770E+02  0.24328925972E+02  0.00000000000E+00 0.  1.
<mgrwt>
<rscale>  0 0.23347060E+01</rscale>
<asrwt>0</asrwt>
<pdfrwt beam="1">0</pdfrwt>
<pdfrwt beam="2">0</pdfrwt>
<totfact> 0.23309924E+12</totfact>
</mgrwt>
</event>
<event>
 4    2  0.1060494E+006  0.2009428E+01  0.7546771E-02  0.2974392E+00
         22   -1    0    0    0    0  0.00000000000E+00  0.00000000000E+00  0.85186825105E+00  0.85186825105E+00  0.00000000000E+00 0. -1.
         22   -1    0    0    0    0 -0.00000000000E+00 -0.00000000000E+00 -0.67642192955E+01  0.67642192955E+01  0.00000000000E+00 0.  1.
          4    1    1    2  501    0 -0.73179407093E+00 -0.18714371503E+01 -0.50393656894E+01  0.54252194537E+01  0.00000000000E+00 0.  1.
         -4    1    1    2    0  501  0.73179407093E+00  0.18714371503E+01 -0.87298535506E+00  0.21908680928E+01  0.00000000000E+00 0. -1.
<mgrwt>
<rscale>  0 0.20094277E+01</rscale>
<asrwt>0</asrwt>
<pdfrwt beam="1">0</pdfrwt>
<pdfrwt beam="2">0</pdfrwt>
<totfact> 0.30483843E+12</totfact>
</mgrwt>
</event>
<event>
 4    2  0.1060494E+006  0.2123503E+01  0.7546771E-02  0.2902073E+00
         22   -1    0    0    0    0  0.00000000000E+00  0.00000000000E+00  0.70407569685E+00  0.70407569685E+00  0.00000000000E+00 0. -1.
         22   -1    0    0    0    0 -0.00000000000E+00 -0.00000000000E+00 -0.65385043869E+01  0.65385043869E+01  0.00000000000E+00 0.  1.
          4    1    1    2  501    0  0.15122170945E+01 -0.14907926216E+01 -0.34356080456E+01  0.40388941339E+01  0.00000000000E+00 0.  1.
         -4    1    1    2    0  501 -0.15122170945E+01  0.14907926216E+01 -0.23988206444E+01  0.32036859498E+01  0.00000000000E+00 0. -1.
<mgrwt>
<rscale>  0 0.21235026E+01</rscale>
<asrwt>0</asrwt>
<pdfrwt beam="1">0</pdfrwt>
<pdfrwt beam="2">0</pdfrwt>
<totfact> 0.39425517E+12</totfact>
</mgrwt>
</event>
<event>
 4    2  0.1060494E+006  0.2014348E+01  0.7546771E-02  0.2971108E+00
         22   -1    0    0    0    0  0.00000000000E+00  0.00000000000E+00  0.13965495877E+01  0.13965495877E+01  0.00000000000E+00 0. -1.
         22   -1    0    0    0    0 -0.00000000000E+00 -0.00000000000E+00 -0.31208529217E+01  0.31208529217E+01  0.00000000000E+00 0.  1.
          4    1    1    2  501    0 -0.10813858220E+01 -0.16994715030E+01 -0.14555584345E+01  0.24852060361E+01  0.00000000000E+00 0.  1.
         -4    1    1    2    0  501  0.10813858220E+01  0.16994715030E+01 -0.26874489943E+00  0.20321964734E+01  0.00000000000E+00 0. -1.
<mgrwt>
<rscale>  0 0.20143482E+01</rscale>
<asrwt>0</asrwt>
<pdfrwt beam="1">0</pdfrwt>
<pdfrwt beam="2">0</pdfrwt>
<totfact> 0.43194671E+12</totfact>
</mgrwt>
</event>
<event>
 4    2  0.1060494E+006  0.2725305E+01  0.7546771E-02  0.2616829E+00
         22   -1    0    0    0    0  0.00000000000E+00  0.00000000000E+00  0.19850607465E+01  0.19850607465E+01  0.00000000000E+00 0.  1.
         22   -1    0    0    0    0 -0.00000000000E+00 -0.00000000000E+00 -0.76995696795E+01  0.76995696795E+01  0.00000000000E+00 0. -1.
          4    1    1    2  501    0 -0.17729166654E+01  0.20697960232E+01 -0.63290684977E+01  0.68908923319E+01  0.00000000000E+00 0. -1.
         -4    1    1    2    0  501  0.17729166654E+01 -0.20697960232E+01  0.61455956474E+00  0.27937380942E+01  0.00000000000E+00 0.  1.
<mgrwt>
<rscale>  0 0.27253053E+01</rscale>
<asrwt>0</asrwt>
<pdfrwt beam="1">0</pdfrwt>
<pdfrwt beam="2">0</pdfrwt>
<totfact> 0.98882536E+11</totfact>
</mgrwt>
</event>
<event>
 4    2  0.1060494E+006  0.2419324E+01  0.7546771E-02  0.2745203E+00
         22   -1    0    0    0    0  0.00000000000E+00  0.00000000000E+00  0.29933702326E+01  0.29933702326E+01  0.00000000000E+00 0.  1.
         22   -1    0    0    0    0 -0.00000000000E+00 -0.00000000000E+00 -0.21405727999E+01  0.21405727999E+01  0.00000000000E+00 0. -1.
          4    1    1    2  501    0  0.12308837379E+01 -0.20827989663E+01 -0.32867207816E+00  0.24415469779E+01  0.00000000000E+00 0. -1.
         -4    1    1    2    0  501 -0.12308837379E+01  0.20827989663E+01  0.11814695108E+01  0.26923960546E+01  0.00000000000E+00 0.  1.
<mgrwt>
<rscale>  0 0.24193235E+01</rscale>
<asrwt>0</asrwt>
<pdfrwt beam="1">0</pdfrwt>
<pdfrwt beam="2">0</pdfrwt>
<totfact> 0.27707740E+12</totfact>
</mgrwt>
</event>
<event>
 4    2  0.1060494E+006  0.2168395E+01  0.7546771E-02  0.2875639E+00
         22   -1    0    0    0    0  0.00000000000E+00  0.00000000000E+00  0.51613198755E+01  0.51613198755E+01  0.00000000000E+00 0.  1.
         22   -1    0    0    0    0 -0.00000000000E+00 -0.00000000000E+00 -0.95653406581E+00  0.95653406581E+00  0.00000000000E+00 0. -1.
          4    1    1    2  501    0 -0.28817641565E+00  0.21491608173E+01  0.27698291351E+01  0.35176542330E+01  0.00000000000E+00 0.  1.
         -4    1    1    2    0  501  0.28817641565E+00 -0.21491608173E+01  0.14349566746E+01  0.26001997083E+01  0.00000000000E+00 0. -1.
<mgrwt>
<rscale>  0 0.21683952E+01</rscale>
<asrwt>0</asrwt>
<pdfrwt beam="1">0</pdfrwt>
<pdfrwt beam="2">0</pdfrwt>
<totfact> 0.36853575E+12</totfact>
</mgrwt>
</event>
<event>
 4    2  0.1060494E+006  0.2482020E+01  0.7546771E-02  0.2716510E+00
         22   -1    0    0    0    0  0.00000000000E+00  0.00000000000E+00  0.16475462136E+00  0.16475462136E+00  0.00000000000E+00 0. -1.
         22   -1    0    0    0    0 -0.00000000000E+00 -0.00000000000E+00 -0.38714041369E+02  0.38714041369E+02  0.00000000000E+00 0.  1.
          4    1    1    2  501    0 -0.13274489736E+01 -0.20972126449E+01 -0.15681670354E+02  0.15876876480E+02  0.00000000000E+00 0. -1.
         -4    1    1    2    0  501  0.13274489736E+01  0.20972126449E+01 -0.22867616394E+02  0.23001919511E+02  0.00000000000E+00 0.  1.
<mgrwt>
<rscale>  0 0.24820197E+01</rscale>
<asrwt>0</asrwt>
<pdfrwt beam="1">0</pdfrwt>
<pdfrwt beam="2">0</pdfrwt>
<totfact> 0.22327639E+12</totfact>
</mgrwt>
</event>
<event>
 4    2  0.1060494E+006  0.2027019E+01  0.7546771E-02  0.2962722E+00
         22   -1    0    0    0    0  0.00000000000E+00  0.00000000000E+00  0.19488602091E+01  0.19488602091E+01  0.00000000000E+00 0. -1.
         22   -1    0    0    0    0 -0.00000000000E+00 -0.00000000000E+00 -0.69462060213E+01  0.69462060213E+01  0.00000000000E+00 0.  1.
          4    1    1    2  501    0  0.12653417103E+01  0.15835773308E+01 -0.62103783374E+01  0.65328099544E+01  0.00000000000E+00 0.  1.
         -4    1    1    2    0  501 -0.12653417103E+01 -0.15835773308E+01  0.12130325252E+01  0.23622562760E+01  0.00000000000E+00 0. -1.
<mgrwt>
<rscale>  0 0.20270192E+01</rscale>
<asrwt>0</asrwt>
<pdfrwt beam="1">0</pdfrwt>
<pdfrwt beam="2">0</pdfrwt>
<totfact> 0.11425855E+12</totfact>
</mgrwt>
</event>
<event>
 4    2  0.1060494E+006  0.2427800E+01  0.7546771E-02  0.2741242E+00
         22   -1    0    0    0    0  0.00000000000E+00  0.00000000000E+00  0.23146960907E+02  0.23146960907E+02  0.00000000000E+00 0.  1.
         22   -1    0    0    0    0 -0.00000000000E+00 -0.00000000000E+00 -0.26204855736E+00  0.26204855736E+00  0.00000000000E+00 0. -1.
          4    1    1    2  501    0  0.14832618695E+01 -0.19220168110E+01  0.94748533102E+01  0.97809539230E+01  0.00000000000E+00 0.  1.
         -4    1    1    2    0  501 -0.14832618695E+01  0.19220168110E+01  0.13410059039E+02  0.13628055541E+02  0.00000000000E+00 0. -1.
<mgrwt>
<rscale>  0 0.24278003E+01</rscale>
<asrwt>0</asrwt>
<pdfrwt beam="1">0</pdfrwt>
<pdfrwt beam="2">0</pdfrwt>
<totfact> 0.25623149E+12</totfact>
</mgrwt>
</event>
<event>
 4    2  0.1060494E+006  0.2301441E+01  0.7546771E-02  0.2803116E+00
         22   -1    0    0    0    0  0.00000000000E+00  0.00000000000E+00  0.41610293377E+02  0.41610293377E+02  0.00000000000E+00 0.  1.
         22   -1    0    0    0    0 -0.00000000000E+00 -0.00000000000E+00 -0.18544797475E+00  0.18544797475E+00  0.00000000000E+00 0. -1.
          4    1    1    2  501    0  0.23014008850E+01  0.13619223436E-01  0.90096037074E+01  0.92989026493E+01  0.00000000000E+00 0. -1.
         -4    1    1    2    0  501 -0.23014008850E+01 -0.13619223436E-01  0.32415241695E+02  0.32496838702E+02  0.00000000000E+00 0.  1.
<mgrwt>
<rscale>  0 0.23014412E+01</rscale>
<asrwt>0</asrwt>
<pdfrwt beam="1">0</pdfrwt>
<pdfrwt beam="2">0</pdfrwt>
<totfact> 0.17820806E+12</totfact>
</mgrwt>
</event>
<event>
 4    2  0.1060494E+006  0.2713639E+01  0.7546771E-02  0.2621233E+00
         22   -1    0    0    0    0  0.00000000000E+00  0.00000000000E+00  0.60166240198E+01  0.60166240198E+01  0.00000000000E+00 0.  1.
         22   -1    0    0    0    0 -0.00000000000E+00 -0.00000000000E+00 -0.12350675448E+01  0.12350675448E+01  0.00000000000E+00 0. -1.
          4    1    1    2  501    0  0.16015553916E+00  0.27089086146E+01  0.27353290315E+01  0.38530326484E+01  0.00000000000E+00 0.  1.
         -4    1    1    2    0  501 -0.16015553916E+00 -0.27089086146E+01  0.20462274435E+01  0.33986589163E+01  0.00000000000E+00 0. -1.
<mgrwt>
<rscale>  0 0.27136388E+01</rscale>
<asrwt>0</asrwt>
<pdfrwt beam="1">0</pdfrwt>
<pdfrwt beam="2">0</pdfrwt>
<totfact> 0.22933600E+12</totfact>
</mgrwt>
</event>
<event>
 4    2  0.1060494E+006  0.2217216E+01  0.7546771E-02  0.2848061E+00
         22   -1    0    0    0    0  0.00000000000E+00  0.00000000000E+00  0.28448611952E+01  0.28448611952E+01  0.00000000000E+00 0.  1.
         22   -1    0    0    0    0 -0.00000000000E+00 -0.00000000000E+00 -0.28910906625E+01  0.28910906625E+01  0.00000000000E+00 0. -1.
          4    1    1    2  501    0  0.21699223125E+01  0.45550220539E+00 -0.18421588436E+01  0.28826366935E+01  0.00000000000E+00 0. -1.
         -4    1    1    2    0  501 -0.21699223125E+01 -0.45550220539E+00  0.17959293764E+01  0.28533151642E+01  0.00000000000E+00 0.  1.
<mgrwt>
<rscale>  0 0.22172156E+01</rscale>
<asrwt>0</asrwt>
<pdfrwt beam="1">0</pdfrwt>
<pdfrwt beam="2">0</pdfrwt>
<totfact> 0.20728502E+12</totfact>
</mgrwt>
</event>
<event>
 4    2  0.1060494E+006  0.2261479E+01  0.7546771E-02  0.2824043E+00
         22   -1    0    0    0    0  0.00000000000E+00  0.00000000000E+00  0.19572508522E+01  0.19572508522E+01  0.00000000000E+00 0.  1.
         22   -1    0    0    0    0 -0.00000000000E+00 -0.00000000000E+00 -0.52069350373E+01  0.52069350373E+01  0.00000000000E+00 0. -1.
          4    1    1    2  501    0  0.21954174452E+01  0.54261259502E+00 -0.41531255229E+01  0.47289256492E+01  0.00000000000E+00 0. -1.
         -4    1    1    2    0  501 -0.21954174452E+01 -0.54261259502E+00  0.90344133779E+00  0.24352602403E+01  0.00000000000E+00 0.  1.
<mgrwt>
<rscale>  0 0.22614788E+01</rscale>
<asrwt>0</asrwt>
<pdfrwt beam="1">0</pdfrwt>
<pdfrwt beam="2">0</pdfrwt>
<totfact> 0.16023958E+12</totfact>
</mgrwt>
</event>
<event>
 4    2  0.1060494E+006  0.2516008E+01  0.7546771E-02  0.2701515E+00
         22   -1    0    0    0    0  0.00000000000E+00  0.00000000000E+00  0.45053801885E+01  0.45053801885E+01  0.00000000000E+00 0.  1.
         22   -1    0    0    0    0 -0.00000000000E+00 -0.00000000000E+00 -0.20474915074E+01  0.20474915074E+01  0.00000000000E+00 0. -1.
          4    1    1    2  501    0 -0.14805870045E+01  0.20342459269E+01 -0.60635397194E+00  0.25880416357E+01  0.00000000000E+00 0. -1.
         -4    1    1    2    0  501  0.14805870045E+01 -0.20342459269E+01  0.30642426530E+01  0.39648300601E+01  0.00000000000E+00 0.  1.
<mgrwt>
<rscale>  0 0.25160076E+01</rscale>
<asrwt>0</asrwt>
<pdfrwt beam="1">0</pdfrwt>
<pdfrwt beam="2">0</pdfrwt>
<totfact> 0.18049827E+12</totfact>
</mgrwt>
</event>
<event>
 4    2  0.1060494E+006  0.4456925E+01  0.7546771E-02  0.2197626E+00
         22   -1    0    0    0    0  0.00000000000E+00  0.00000000000E+00  0.17376843599E+01  0.17376843599E+01  0.00000000000E+00 0. -1.
         22   -1    0    0    0    0 -0.00000000000E+00 -0.00000000000E+00 -0.12567749538E+02  0.12567749538E+02  0.00000000000E+00 0.  1.
          4    1    1    2  501    0 -0.40993362061E+01  0.17491772545E+01 -0.32642486921E+01  0.55244454855E+01  0.00000000000E+00 0. -1.
         -4    1    1    2    0  501  0.40993362061E+01 -0.17491772545E+01 -0.75658164857E+01  0.87809884121E+01  0.00000000000E+00 0.  1.
<mgrwt>
<rscale>  0 0.44569248E+01</rscale>
<asrwt>0</asrwt>
<pdfrwt beam="1">0</pdfrwt>
<pdfrwt beam="2">0</pdfrwt>
<totfact> 0.63734424E+11</totfact>
</mgrwt>
</event>
<event>
 4    2  0.1060494E+006  0.2819541E+01  0.7546771E-02  0.2582478E+00
         22   -1    0    0    0    0  0.00000000000E+00  0.00000000000E+00  0.64936444790E+01  0.64936444790E+01  0.00000000000E+00 0. -1.
         22   -1    0    0    0    0 -0.00000000000E+00 -0.00000000000E+00 -0.25899361029E+01  0.25899361029E+01  0.00000000000E+00 0.  1.
          4    1    1    2  501    0 -0.24173646326E+01 -0.14512609491E+01 -0.13462079503E+01  0.31244337015E+01  0.00000000000E+00 0.  1.
         -4    1    1    2    0  501  0.24173646326E+01  0.14512609491E+01  0.52499163264E+01  0.59591468805E+01  0.00000000000E+00 0. -1.
<mgrwt>
<rscale>  0 0.28195408E+01</rscale>
<asrwt>0</asrwt>
<pdfrwt beam="1">0</pdfrwt>
<pdfrwt beam="2">0</pdfrwt>
<totfact> 0.89036215E+11</totfact>
</mgrwt>
</event>
<event>
 4    2  0.1060494E+006  0.2112830E+01  0.7546771E-02  0.2908518E+00
         22   -1    0    0    0    0  0.00000000000E+00  0.00000000000E+00  0.46057864137E+02  0.46057864137E+02  0.00000000000E+00 0. -1.
         22   -1    0    0    0    0 -0.00000000000E+00 -0.00000000000E+00 -0.10223967974E+00  0.10223967974E+00  0.00000000000E+00 0.  1.
          4    1    1    2  501    0 -0.88617309078E+00 -0.19180058381E+01  0.17714458424E+02  0.17840013632E+02  0.00000000000E+00 0. -1.
         -4    1    1    2    0  501  0.88617309078E+00  0.19180058381E+01  0.28241166033E+02  0.28320090185E+02  0.00000000000E+00 0.  1.
<mgrwt>
<rscale>  0 0.21128297E+01</rscale>
<asrwt>0</asrwt>
<pdfrwt beam="1">0</pdfrwt>
<pdfrwt beam="2">0</pdfrwt>
<totfact> 0.30239002E+12</totfact>
</mgrwt>
</event>
<event>
 4    2  0.1060494E+006  0.2237246E+01  0.7546771E-02  0.2837080E+00
         22   -1    0    0    0    0  0.00000000000E+00  0.00000000000E+00  0.21106439726E+00  0.21106439726E+00  0.00000000000E+00 0. -1.
         22   -1    0    0    0    0 -0.00000000000E+00 -0.00000000000E+00 -0.24483064312E+02  0.24483064312E+02  0.00000000000E+00 0.  1.
          4    1    1    2  501    0  0.19641987486E+01  0.10710719222E+01 -0.14323715370E+02  0.14497382308E+02  0.00000000000E+00 0.  1.
         -4    1    1    2    0  501 -0.19641987486E+01 -0.10710719222E+01 -0.99482845442E+01  0.10196746401E+02  0.00000000000E+00 0. -1.
<mgrwt>
<rscale>  0 0.22372465E+01</rscale>
<asrwt>0</asrwt>
<pdfrwt beam="1">0</pdfrwt>
<pdfrwt beam="2">0</pdfrwt>
<totfact> 0.30408246E+12</totfact>
</mgrwt>
</event>
<event>
 4    2  0.1060494E+006  0.2351698E+01  0.7546771E-02  0.2777757E+00
         22   -1    0    0    0    0  0.00000000000E+00  0.00000000000E+00  0.77405106043E+00  0.77405106043E+00  0.00000000000E+00 0. -1.
         22   -1    0    0    0    0 -0.00000000000E+00 -0.00000000000E+00 -0.10303893700E+02  0.10303893700E+02  0.00000000000E+00 0.  1.
          4    1    1    2  501    0  0.17441091223E+01 -0.15775185347E+01 -0.78318670929E+01  0.81773237381E+01  0.00000000000E+00 0.  1.
         -4    1    1    2    0  501 -0.17441091223E+01  0.15775185347E+01 -0.16979755466E+01  0.29006210222E+01  0.00000000000E+00 0. -1.
<mgrwt>
<rscale>  0 0.23516975E+01</rscale>
<asrwt>0</asrwt>
<pdfrwt beam="1">0</pdfrwt>
<pdfrwt beam="2">0</pdfrwt>
<totfact> 0.20488071E+12</totfact>
</mgrwt>
</event>
<event>
 4    2  0.1060494E+006  0.3414737E+01  0.7546771E-02  0.2405409E+00
         22   -1    0    0    0    0  0.00000000000E+00  0.00000000000E+00  0.15959521668E+00  0.15959521668E+00  0.00000000000E+00 0. -1.
         22   -1    0    0    0    0 -0.00000000000E+00 -0.00000000000E+00 -0.10912126800E+03  0.10912126800E+03  0.00000000000E+00 0.  1.
          4    1    1    2  501    0 -0.27314774939E+01 -0.20492587109E+01 -0.85890600233E+02  0.85958452982E+02  0.00000000000E+00 0.  1.
         -4    1    1    2    0  501  0.27314774939E+01  0.20492587109E+01 -0.23071072554E+02  0.23322410239E+02  0.00000000000E+00 0. -1.
<mgrwt>
<rscale>  0 0.34147373E+01</rscale>
<asrwt>0</asrwt>
<pdfrwt beam="1">0</pdfrwt>
<pdfrwt beam="2">0</pdfrwt>
<totfact> 0.57026211E+11</totfact>
</mgrwt>
</event>
<event>
 4    2  0.1060494E+006  0.1783049E+02  0.7546771E-02  0.1568657E+00
         22   -1    0    0    0    0  0.00000000000E+00  0.00000000000E+00  0.57337091478E+02  0.57337091478E+02  0.00000000000E+00 0.  1.
         22   -1    0    0    0    0 -0.00000000000E+00 -0.00000000000E+00 -0.60808515794E+01  0.60808515794E+01  0.00000000000E+00 0. -1.
          4    1    1    2  501    0 -0.17770504671E+02  0.14614035737E+01  0.16214077098E+02  0.24100266239E+02  0.00000000000E+00 0. -1.
         -4    1    1    2    0  501  0.17770504671E+02 -0.14614035737E+01  0.35042162800E+02  0.39317676818E+02  0.00000000000E+00 0.  1.
<mgrwt>
<rscale>  0 0.17830495E+02</rscale>
<asrwt>0</asrwt>
<pdfrwt beam="1">0</pdfrwt>
<pdfrwt beam="2">0</pdfrwt>
<totfact> 0.21386987E+10</totfact>
</mgrwt>
</event>
<event>
 4    2  0.1060494E+006  0.9359016E+01  0.7546771E-02  0.1806588E+00
         22   -1    0    0    0    0  0.00000000000E+00  0.00000000000E+00  0.41849036932E+02  0.41849036932E+02  0.00000000000E+00 0.  1.
         22   -1    0    0    0    0 -0.00000000000E+00 -0.00000000000E+00 -0.22072790946E+01  0.22072790946E+01  0.00000000000E+00 0. -1.
          4    1    1    2  501    0 -0.93142567550E+01  0.91422203066E+00  0.14809227116E+02  0.17518686840E+02  0.00000000000E+00 0. -1.
         -4    1    1    2    0  501  0.93142567550E+01 -0.91422203066E+00  0.24832530721E+02  0.26537629187E+02  0.00000000000E+00 0.  1.
<mgrwt>
<rscale>  0 0.93590160E+01</rscale>
<asrwt>0</asrwt>
<pdfrwt beam="1">0</pdfrwt>
<pdfrwt beam="2">0</pdfrwt>
<totfact> 0.10645461E+11</totfact>
</mgrwt>
</event>
<event>
 4    2  0.1060494E+006  0.3102020E+01  0.7546771E-02  0.2490892E+00
         22   -1    0    0    0    0  0.00000000000E+00  0.00000000000E+00  0.11076690722E+02  0.11076690722E+02  0.00000000000E+00 0. -1.
         22   -1    0    0    0    0 -0.00000000000E+00 -0.00000000000E+00 -0.90473030615E+00  0.90473030615E+00  0.00000000000E+00 0.  1.
          4    1    1    2  501    0 -0.30044055017E+01 -0.77205946388E+00  0.38907815919E+01  0.49760134274E+01  0.00000000000E+00 0.  1.
         -4    1    1    2    0  501  0.30044055017E+01  0.77205946388E+00  0.62811788243E+01  0.70054076010E+01  0.00000000000E+00 0. -1.
<mgrwt>
<rscale>  0 0.31020200E+01</rscale>
<asrwt>0</asrwt>
<pdfrwt beam="1">0</pdfrwt>
<pdfrwt beam="2">0</pdfrwt>
<totfact> 0.15713078E+12</totfact>
</mgrwt>
</event>
<event>
 4    2  0.1060494E+006  0.2549285E+01  0.7546771E-02  0.2687193E+00
         22   -1    0    0    0    0  0.00000000000E+00  0.00000000000E+00  0.36805686877E+02  0.36805686877E+02  0.00000000000E+00 0.  1.
         22   -1    0    0    0    0 -0.00000000000E+00 -0.00000000000E+00 -0.19875951304E+00  0.19875951304E+00  0.00000000000E+00 0. -1.
          4    1    1    2  501    0  0.23678867764E+00  0.25382638414E+01  0.12121667600E+02  0.12386834850E+02  0.00000000000E+00 0. -1.
         -4    1    1    2    0  501 -0.23678867764E+00 -0.25382638414E+01  0.24485259764E+02  0.24617611540E+02  0.00000000000E+00 0.  1.
<mgrwt>
<rscale>  0 0.25492846E+01</rscale>
<asrwt>0</asrwt>
<pdfrwt beam="1">0</pdfrwt>
<pdfrwt beam="2">0</pdfrwt>
<totfact> 0.19338728E+12</totfact>
</mgrwt>
</event>
<event>
 4    2  0.1060494E+006  0.2152401E+01  0.7546771E-02  0.2884935E+00
         22   -1    0    0    0    0  0.00000000000E+00  0.00000000000E+00  0.14284181481E+02  0.14284181481E+02  0.00000000000E+00 0.  1.
         22   -1    0    0    0    0 -0.00000000000E+00 -0.00000000000E+00 -0.63304813770E+00  0.63304813770E+00  0.00000000000E+00 0. -1.
          4    1    1    2  501    0 -0.20467212394E+01 -0.66615469077E+00  0.16169925438E+01  0.26921171577E+01  0.00000000000E+00 0.  1.
         -4    1    1    2    0  501  0.20467212394E+01  0.66615469077E+00  0.12034140800E+02  0.12225112461E+02  0.00000000000E+00 0. -1.
<mgrwt>
<rscale>  0 0.21524010E+01</rscale>
<asrwt>0</asrwt>
<pdfrwt beam="1">0</pdfrwt>
<pdfrwt beam="2">0</pdfrwt>
<totfact> 0.17280784E+12</totfact>
</mgrwt>
</event>
<event>
 4    2  0.1060494E+006  0.3249120E+01  0.7546771E-02  0.2448871E+00
         22   -1    0    0    0    0  0.00000000000E+00  0.00000000000E+00  0.74289955415E+00  0.74289955415E+00  0.00000000000E+00 0. -1.
         22   -1    0    0    0    0 -0.00000000000E+00 -0.00000000000E+00 -0.16714670917E+02  0.16714670917E+02  0.00000000000E+00 0.  1.
          4    1    1    2  501    0 -0.31188828454E+01  0.91068795643E+00 -0.11364660209E+02  0.11819995111E+02  0.00000000000E+00 0. -1.
         -4    1    1    2    0  501  0.31188828454E+01 -0.91068795643E+00 -0.46071111537E+01  0.56375753600E+01  0.00000000000E+00 0.  1.
<mgrwt>
<rscale>  0 0.32491203E+01</rscale>
<asrwt>0</asrwt>
<pdfrwt beam="1">0</pdfrwt>
<pdfrwt beam="2">0</pdfrwt>
<totfact> 0.11875469E+12</totfact>
</mgrwt>
</event>
<event>
 4    2  0.1060494E+006  0.2500684E+01  0.7546771E-02  0.2708229E+00
         22   -1    0    0    0    0  0.00000000000E+00  0.00000000000E+00  0.21773954324E+01  0.21773954324E+01  0.00000000000E+00 0. -1.
         22   -1    0    0    0    0 -0.00000000000E+00 -0.00000000000E+00 -0.30445754334E+01  0.30445754334E+01  0.00000000000E+00 0.  1.
          4    1    1    2  501    0 -0.24783619955E+01 -0.33337715209E+00 -0.10552685966E+01  0.27142237044E+01  0.00000000000E+00 0.  1.
         -4    1    1    2    0  501  0.24783619955E+01  0.33337715209E+00  0.18808859564E+00  0.25077471615E+01  0.00000000000E+00 0. -1.
<mgrwt>
<rscale>  0 0.25006836E+01</rscale>
<asrwt>0</asrwt>
<pdfrwt beam="1">0</pdfrwt>
<pdfrwt beam="2">0</pdfrwt>
<totfact> 0.26632369E+12</totfact>
</mgrwt>
</event>
<event>
 4    2  0.1060494E+006  0.9640328E+01  0.7546771E-02  0.1794030E+00
         22   -1    0    0    0    0  0.00000000000E+00  0.00000000000E+00  0.20329087442E+01  0.20329087442E+01  0.00000000000E+00 0. -1.
         22   -1    0    0    0    0 -0.00000000000E+00 -0.00000000000E+00 -0.50750697011E+02  0.50750697011E+02  0.00000000000E+00 0.  1.
          4    1    1    2  501    0  0.31968731949E+01  0.90948297007E+01 -0.16046119993E+02  0.18719345404E+02  0.00000000000E+00 0. -1.
         -4    1    1    2    0  501 -0.31968731949E+01 -0.90948297007E+01 -0.32671668274E+02  0.34064260352E+02  0.00000000000E+00 0.  1.
<mgrwt>
<rscale>  0 0.96403281E+01</rscale>
<asrwt>0</asrwt>
<pdfrwt beam="1">0</pdfrwt>
<pdfrwt beam="2">0</pdfrwt>
<totfact> 0.90945515E+10</totfact>
</mgrwt>
</event>
<event>
 4    2  0.1060494E+006  0.7455901E+01  0.7546771E-02  0.1909406E+00
         22   -1    0    0    0    0  0.00000000000E+00  0.00000000000E+00  0.50312022419E+01  0.50312022419E+01  0.00000000000E+00 0.  1.
         22   -1    0    0    0    0 -0.00000000000E+00 -0.00000000000E+00 -0.18803421078E+02  0.18803421078E+02  0.00000000000E+00 0. -1.
          4    1    1    2  501    0  0.71600503744E+01 -0.20794576866E+01 -0.14539089590E+02  0.16339387740E+02  0.00000000000E+00 0. -1.
         -4    1    1    2    0  501 -0.71600503744E+01  0.20794576866E+01  0.76687075392E+00  0.74952355792E+01  0.00000000000E+00 0.  1.
<mgrwt>
<rscale>  0 0.74559014E+01</rscale>
<asrwt>0</asrwt>
<pdfrwt beam="1">0</pdfrwt>
<pdfrwt beam="2">0</pdfrwt>
<totfact> 0.11205040E+11</totfact>
</mgrwt>
</event>
<event>
 4    2  0.1060494E+006  0.2674275E+01  0.7546771E-02  0.2636351E+00
         22   -1    0    0    0    0  0.00000000000E+00  0.00000000000E+00  0.23174116592E+01  0.23174116592E+01  0.00000000000E+00 0. -1.
         22   -1    0    0    0    0 -0.00000000000E+00 -0.00000000000E+00 -0.71080045886E+01  0.71080045886E+01  0.00000000000E+00 0.  1.
          4    1    1    2  501    0 -0.23342608258E+00  0.26640677313E+01 -0.59402702637E+01  0.65144881164E+01  0.00000000000E+00 0.  1.
         -4    1    1    2    0  501  0.23342608258E+00 -0.26640677313E+01  0.11496773343E+01  0.29109281314E+01  0.00000000000E+00 0. -1.
<mgrwt>
<rscale>  0 0.26742746E+01</rscale>
<asrwt>0</asrwt>
<pdfrwt beam="1">0</pdfrwt>
<pdfrwt beam="2">0</pdfrwt>
<totfact> 0.90947098E+11</totfact>
</mgrwt>
</event>
<event>
 4    2  0.1060494E+006  0.2788837E+01  0.7546771E-02  0.2593438E+00
         22   -1    0    0    0    0  0.00000000000E+00  0.00000000000E+00  0.24551635195E+01  0.24551635195E+01  0.00000000000E+00 0. -1.
         22   -1    0    0    0    0 -0.00000000000E+00 -0.00000000000E+00 -0.64519756455E+01  0.64519756455E+01  0.00000000000E+00 0.  1.
          4    1    1    2  501    0  0.18758844570E+01  0.20636548536E+01 -0.51758003886E+01  0.58793301926E+01  0.00000000000E+00 0.  1.
         -4    1    1    2    0  501 -0.18758844570E+01 -0.20636548536E+01  0.11789882626E+01  0.30278089725E+01  0.00000000000E+00 0. -1.
<mgrwt>
<rscale>  0 0.27888374E+01</rscale>
<asrwt>0</asrwt>
<pdfrwt beam="1">0</pdfrwt>
<pdfrwt beam="2">0</pdfrwt>
<totfact> 0.95478020E+11</totfact>
</mgrwt>
</event>
<event>
 4    2  0.1060494E+006  0.2152967E+01  0.7546771E-02  0.2884604E+00
         22   -1    0    0    0    0  0.00000000000E+00  0.00000000000E+00  0.16599020141E+01  0.16599020141E+01  0.00000000000E+00 0. -1.
         22   -1    0    0    0    0 -0.00000000000E+00 -0.00000000000E+00 -0.61593070322E+01  0.61593070322E+01  0.00000000000E+00 0.  1.
          4    1    1    2  501    0 -0.18381557558E+01  0.11209145530E+01 -0.51402254258E+01  0.55728972219E+01  0.00000000000E+00 0.  1.
         -4    1    1    2    0  501  0.18381557558E+01 -0.11209145530E+01  0.64082040774E+00  0.22463118244E+01  0.00000000000E+00 0. -1.
<mgrwt>
<rscale>  0 0.21529668E+01</rscale>
<asrwt>0</asrwt>
<pdfrwt beam="1">0</pdfrwt>
<pdfrwt beam="2">0</pdfrwt>
<totfact> 0.15875325E+12</totfact>
</mgrwt>
</event>
<event>
 4    2  0.1060494E+006  0.2747210E+01  0.7546771E-02  0.2608653E+00
         22   -1    0    0    0    0  0.00000000000E+00  0.00000000000E+00  0.81020906074E+01  0.81020906074E+01  0.00000000000E+00 0. -1.
         22   -1    0    0    0    0 -0.00000000000E+00 -0.00000000000E+00 -0.29598197484E+01  0.29598197484E+01  0.00000000000E+00 0.  1.
          4    1    1    2  501    0  0.24758429800E+01  0.11905308152E+01 -0.20074873234E+01  0.34025236865E+01  0.00000000000E+00 0.  1.
         -4    1    1    2    0  501 -0.24758429800E+01 -0.11905308152E+01  0.71497581824E+01  0.76593866693E+01  0.00000000000E+00 0. -1.
<mgrwt>
<rscale>  0 0.27472099E+01</rscale>
<asrwt>0</asrwt>
<pdfrwt beam="1">0</pdfrwt>
<pdfrwt beam="2">0</pdfrwt>
<totfact> 0.58461859E+11</totfact>
</mgrwt>
</event>
<event>
 4    2  0.1060494E+006  0.3169620E+01  0.7546771E-02  0.2471152E+00
         22   -1    0    0    0    0  0.00000000000E+00  0.00000000000E+00  0.43805334846E+00  0.43805334846E+00  0.00000000000E+00 0.  1.
         22   -1    0    0    0    0 -0.00000000000E+00 -0.00000000000E+00 -0.48197330987E+02  0.48197330987E+02  0.00000000000E+00 0. -1.
          4    1    1    2  501    0 -0.31617698115E+01 -0.22294342343E+00 -0.41485314707E+02  0.41606223434E+02  0.00000000000E+00 0. -1.
         -4    1    1    2    0  501  0.31617698115E+01  0.22294342343E+00 -0.62739629320E+01  0.70291609018E+01  0.00000000000E+00 0.  1.
<mgrwt>
<rscale>  0 0.31696202E+01</rscale>
<asrwt>0</asrwt>
<pdfrwt beam="1">0</pdfrwt>
<pdfrwt beam="2">0</pdfrwt>
<totfact> 0.56122324E+11</totfact>
</mgrwt>
</event>
<event>
 4    2  0.1060494E+006  0.2270647E+01  0.7546771E-02  0.2819180E+00
         22   -1    0    0    0    0  0.00000000000E+00  0.00000000000E+00  0.29218375887E+01  0.29218375887E+01  0.00000000000E+00 0.  1.
         22   -1    0    0    0    0 -0.00000000000E+00 -0.00000000000E+00 -0.53470239826E+01  0.53470239826E+01  0.00000000000E+00 0. -1.
          4    1    1    2  501    0  0.13333496245E+01 -0.18379381104E+01 -0.45967378386E+01  0.51269714721E+01  0.00000000000E+00 0. -1.
         -4    1    1    2    0  501 -0.13333496245E+01  0.18379381104E+01  0.21715514447E+01  0.31418900992E+01  0.00000000000E+00 0.  1.
<mgrwt>
<rscale>  0 0.22706470E+01</rscale>
<asrwt>0</asrwt>
<pdfrwt beam="1">0</pdfrwt>
<pdfrwt beam="2">0</pdfrwt>
<totfact> 0.97473402E+11</totfact>
</mgrwt>
</event>
<event>
 4    2  0.1060494E+006  0.2103337E+01  0.7546771E-02  0.2914302E+00
         22   -1    0    0    0    0  0.00000000000E+00  0.00000000000E+00  0.18509072311E+02  0.18509072311E+02  0.00000000000E+00 0. -1.
         22   -1    0    0    0    0 -0.00000000000E+00 -0.00000000000E+00 -0.28118168693E+00  0.28118168693E+00  0.00000000000E+00 0.  1.
          4    1    1    2  501    0  0.91941021443E+00 -0.18917484586E+01  0.12752016682E+02  0.12924316494E+02  0.00000000000E+00 0. -1.
         -4    1    1    2    0  501 -0.91941021443E+00  0.18917484586E+01  0.54758739416E+01  0.58659375037E+01  0.00000000000E+00 0.  1.
<mgrwt>
<rscale>  0 0.21033372E+01</rscale>
<asrwt>0</asrwt>
<pdfrwt beam="1">0</pdfrwt>
<pdfrwt beam="2">0</pdfrwt>
<totfact> 0.31306861E+12</totfact>
</mgrwt>
</event>
<event>
 4    2  0.1060494E+006  0.2020691E+01  0.7546771E-02  0.2966897E+00
         22   -1    0    0    0    0  0.00000000000E+00  0.00000000000E+00  0.27711040839E+01  0.27711040839E+01  0.00000000000E+00 0. -1.
         22   -1    0    0    0    0 -0.00000000000E+00 -0.00000000000E+00 -0.29226568498E+01  0.29226568498E+01  0.00000000000E+00 0.  1.
          4    1    1    2  501    0 -0.19462928299E+01 -0.54326475949E+00 -0.20804312389E+01  0.29002390451E+01  0.00000000000E+00 0.  1.
         -4    1    1    2    0  501  0.19462928299E+01  0.54326475949E+00  0.19288784731E+01  0.27935218887E+01  0.00000000000E+00 0. -1.
<mgrwt>
<rscale>  0 0.20206911E+01</rscale>
<asrwt>0</asrwt>
<pdfrwt beam="1">0</pdfrwt>
<pdfrwt beam="2">0</pdfrwt>
<totfact> 0.21103065E+12</totfact>
</mgrwt>
</event>
<event>
 4    2  0.1060494E+006  0.2127330E+01  0.7546771E-02  0.2899778E+00
         22   -1    0    0    0    0  0.00000000000E+00  0.00000000000E+00  0.52663577581E+00  0.52663577581E+00  0.00000000000E+00 0. -1.
         22   -1    0    0    0    0 -0.00000000000E+00 -0.00000000000E+00 -0.97821008741E+01  0.97821008741E+01  0.00000000000E+00 0.  1.
          4    1    1    2  501    0  0.21031295521E+01 -0.31996880720E+00 -0.64245988499E+01  0.67676439278E+01  0.00000000000E+00 0.  1.
         -4    1    1    2    0  501 -0.21031295521E+01  0.31996880720E+00 -0.28308662483E+01  0.35410927221E+01  0.00000000000E+00 0. -1.
<mgrwt>
<rscale>  0 0.21273302E+01</rscale>
<asrwt>0</asrwt>
<pdfrwt beam="1">0</pdfrwt>
<pdfrwt beam="2">0</pdfrwt>
<totfact> 0.33759999E+12</totfact>
</mgrwt>
</event>
<event>
 4    2  0.1060494E+006  0.2078623E+01  0.7546771E-02  0.2929603E+00
         22   -1    0    0    0    0  0.00000000000E+00  0.00000000000E+00  0.45817574791E+01  0.45817574791E+01  0.00000000000E+00 0.  1.
         22   -1    0    0    0    0 -0.00000000000E+00 -0.00000000000E+00 -0.95349331815E+00  0.95349331815E+00  0.00000000000E+00 0. -1.
          4    1    1    2  501    0 -0.25088012182E+00 -0.20634275866E+01  0.15240258034E+01  0.25774655944E+01  0.00000000000E+00 0. -1.
         -4    1    1    2    0  501  0.25088012182E+00  0.20634275866E+01  0.21042383576E+01  0.29577852029E+01  0.00000000000E+00 0.  1.
<mgrwt>
<rscale>  0 0.20786232E+01</rscale>
<asrwt>0</asrwt>
<pdfrwt beam="1">0</pdfrwt>
<pdfrwt beam="2">0</pdfrwt>
<totfact> 0.42584009E+12</totfact>
</mgrwt>
</event>
<event>
 4    2  0.1060494E+006  0.3270591E+01  0.7546771E-02  0.2443019E+00
         22   -1    0    0    0    0  0.00000000000E+00  0.00000000000E+00  0.52038833727E+01  0.52038833727E+01  0.00000000000E+00 0.  1.
         22   -1    0    0    0    0 -0.00000000000E+00 -0.00000000000E+00 -0.16345925724E+02  0.16345925724E+02  0.00000000000E+00 0. -1.
          4    1    1    2  501    0  0.25308653651E+01 -0.20715907656E+01 -0.15645688466E+02  0.15983877358E+02  0.00000000000E+00 0. -1.
         -4    1    1    2    0  501 -0.25308653651E+01  0.20715907656E+01  0.45036461150E+01  0.55659317392E+01  0.00000000000E+00 0.  1.
<mgrwt>
<rscale>  0 0.32705914E+01</rscale>
<asrwt>0</asrwt>
<pdfrwt beam="1">0</pdfrwt>
<pdfrwt beam="2">0</pdfrwt>
<totfact> 0.12806366E+11</totfact>
</mgrwt>
</event>
<event>
 4    2  0.1060494E+006  0.4031236E+01  0.7546771E-02  0.2271363E+00
         22   -1    0    0    0    0  0.00000000000E+00  0.00000000000E+00  0.55797865295E+00  0.55797865295E+00  0.00000000000E+00 0.  1.
         22   -1    0    0    0    0 -0.00000000000E+00 -0.00000000000E+00 -0.32484109490E+02  0.32484109490E+02  0.00000000000E+00 0. -1.
          4    1    1    2  501    0 -0.18097384523E+01 -0.36021818016E+01 -0.21276120935E+02  0.21654657445E+02  0.00000000000E+00 0. -1.
         -4    1    1    2    0  501  0.18097384523E+01  0.36021818016E+01 -0.10650009901E+02  0.11387430698E+02  0.00000000000E+00 0.  1.
<mgrwt>
<rscale>  0 0.40312364E+01</rscale>
<asrwt>0</asrwt>
<pdfrwt beam="1">0</pdfrwt>
<pdfrwt beam="2">0</pdfrwt>
<totfact> 0.71246392E+11</totfact>
</mgrwt>
</event>
<event>
 4    2  0.1060494E+006  0.2141758E+01  0.7546771E-02  0.2891195E+00
         22   -1    0    0    0    0  0.00000000000E+00  0.00000000000E+00  0.29776961661E+01  0.29776961661E+01  0.00000000000E+00 0. -1.
         22   -1    0    0    0    0 -0.00000000000E+00 -0.00000000000E+00 -0.16765119097E+01  0.16765119097E+01  0.00000000000E+00 0.  1.
          4    1    1    2  501    0  0.12485406828E+01 -0.17401929269E+01 -0.12248860840E-01  0.21417925423E+01  0.00000000000E+00 0.  1.
         -4    1    1    2    0  501 -0.12485406828E+01  0.17401929269E+01  0.13134331172E+01  0.25124155335E+01  0.00000000000E+00 0. -1.
<mgrwt>
<rscale>  0 0.21417575E+01</rscale>
<asrwt>0</asrwt>
<pdfrwt beam="1">0</pdfrwt>
<pdfrwt beam="2">0</pdfrwt>
<totfact> 0.36977618E+12</totfact>
</mgrwt>
</event>
<event>
 4    2  0.1060494E+006  0.2198640E+01  0.7546771E-02  0.2858416E+00
         22   -1    0    0    0    0  0.00000000000E+00  0.00000000000E+00  0.85171310502E+01  0.85171310502E+01  0.00000000000E+00 0.  1.
         22   -1    0    0    0    0 -0.00000000000E+00 -0.00000000000E+00 -0.17030311405E+01  0.17030311405E+01  0.00000000000E+00 0. -1.
          4    1    1    2  501    0 -0.15236332472E+01 -0.15851051775E+01 -0.76552156160E+00  0.23280979269E+01  0.00000000000E+00 0. -1.
         -4    1    1    2    0  501  0.15236332472E+01  0.15851051775E+01  0.75796214713E+01  0.78920642638E+01  0.00000000000E+00 0.  1.
<mgrwt>
<rscale>  0 0.21986397E+01</rscale>
<asrwt>0</asrwt>
<pdfrwt beam="1">0</pdfrwt>
<pdfrwt beam="2">0</pdfrwt>
<totfact> 0.10454717E+12</totfact>
</mgrwt>
</event>
<event>
 4    2  0.1060494E+006  0.6555762E+01  0.7546771E-02  0.1973161E+00
         22   -1    0    0    0    0  0.00000000000E+00  0.00000000000E+00  0.24032198397E+02  0.24032198397E+02  0.00000000000E+00 0. -1.
         22   -1    0    0    0    0 -0.00000000000E+00 -0.00000000000E+00 -0.25211973877E+01  0.25211973877E+01  0.00000000000E+00 0.  1.
          4    1    1    2  501    0  0.50524833252E+01  0.41773703241E+01  0.35974778488E+01  0.74779581069E+01  0.00000000000E+00 0.  1.
         -4    1    1    2    0  501 -0.50524833252E+01 -0.41773703241E+01  0.17913523160E+02  0.19075437678E+02  0.00000000000E+00 0. -1.
<mgrwt>
<rscale>  0 0.65557616E+01</rscale>
<asrwt>0</asrwt>
<pdfrwt beam="1">0</pdfrwt>
<pdfrwt beam="2">0</pdfrwt>
<totfact> 0.18544882E+11</totfact>
</mgrwt>
</event>
<event>
 4    2  0.1060494E+006  0.2021268E+01  0.7546771E-02  0.2966516E+00
         22   -1    0    0    0    0  0.00000000000E+00  0.00000000000E+00  0.20083334905E+01  0.20083334905E+01  0.00000000000E+00 0. -1.
         22   -1    0    0    0    0 -0.00000000000E+00 -0.00000000000E+00 -0.20966490291E+01  0.20966490291E+01  0.00000000000E+00 0.  1.
          4    1    1    2  501    0  0.12864388431E+01 -0.15590379298E+01  0.30982570252E+00  0.20448755779E+01  0.00000000000E+00 0.  1.
         -4    1    1    2    0  501 -0.12864388431E+01  0.15590379298E+01 -0.39814124110E+00  0.20601069417E+01  0.00000000000E+00 0. -1.
<mgrwt>
<rscale>  0 0.20212680E+01</rscale>
<asrwt>0</asrwt>
<pdfrwt beam="1">0</pdfrwt>
<pdfrwt beam="2">0</pdfrwt>
<totfact> 0.45136932E+12</totfact>
</mgrwt>
</event>
<event>
 4    2  0.1060494E+006  0.3252789E+01  0.7546771E-02  0.2447867E+00
         22   -1    0    0    0    0  0.00000000000E+00  0.00000000000E+00  0.13698837042E+02  0.13698837042E+02  0.00000000000E+00 0. -1.
         22   -1    0    0    0    0 -0.00000000000E+00 -0.00000000000E+00 -0.15877452846E+01  0.15877452846E+01  0.00000000000E+00 0.  1.
          4    1    1    2  501    0  0.48769736457E+00  0.32160202807E+01  0.57823352984E+00  0.33037840698E+01  0.00000000000E+00 0. -1.
         -4    1    1    2    0  501 -0.48769736457E+00 -0.32160202807E+01  0.11532858227E+02  0.11982798256E+02  0.00000000000E+00 0.  1.
<mgrwt>
<rscale>  0 0.32527888E+01</rscale>
<asrwt>0</asrwt>
<pdfrwt beam="1">0</pdfrwt>
<pdfrwt beam="2">0</pdfrwt>
<totfact> 0.63644158E+11</totfact>
</mgrwt>
</event>
<event>
 4    2  0.1060494E+006  0.2185581E+01  0.7546771E-02  0.2865796E+00
         22   -1    0    0    0    0  0.00000000000E+00  0.00000000000E+00  0.60661881290E+01  0.60661881290E+01  0.00000000000E+00 0.  1.
         22   -1    0    0    0    0 -0.00000000000E+00 -0.00000000000E+00 -0.18688749796E+01  0.18688749796E+01  0.00000000000E+00 0. -1.
          4    1    1    2  501    0 -0.93158859048E+00 -0.19770961292E+01 -0.91941984264E+00  0.23710966352E+01  0.00000000000E+00 0. -1.
         -4    1    1    2    0  501  0.93158859048E+00  0.19770961292E+01  0.51167329921E+01  0.55639664735E+01  0.00000000000E+00 0.  1.
<mgrwt>
<rscale>  0 0.21855815E+01</rscale>
<asrwt>0</asrwt>
<pdfrwt beam="1">0</pdfrwt>
<pdfrwt beam="2">0</pdfrwt>
<totfact> 0.14098030E+12</totfact>
</mgrwt>
</event>
<event>
 4    2  0.1060494E+006  0.2378131E+01  0.7546771E-02  0.2764824E+00
         22   -1    0    0    0    0  0.00000000000E+00  0.00000000000E+00  0.22667311965E+01  0.22667311965E+01  0.00000000000E+00 0. -1.
         22   -1    0    0    0    0 -0.00000000000E+00 -0.00000000000E+00 -0.26059524146E+01  0.26059524146E+01  0.00000000000E+00 0.  1.
          4    1    1    2  501    0  0.23762826061E+01  0.93751721583E-01 -0.67231329257E+00  0.24713384173E+01  0.00000000000E+00 0. -1.
         -4    1    1    2    0  501 -0.23762826061E+01 -0.93751721583E-01  0.33309207451E+00  0.24013451938E+01  0.00000000000E+00 0.  1.
<mgrwt>
<rscale>  0 0.23781313E+01</rscale>
<asrwt>0</asrwt>
<pdfrwt beam="1">0</pdfrwt>
<pdfrwt beam="2">0</pdfrwt>
<totfact> 0.30475517E+12</totfact>
</mgrwt>
</event>
<event>
 4    2  0.1060494E+006  0.2561151E+01  0.7546771E-02  0.2682169E+00
         22   -1    0    0    0    0  0.00000000000E+00  0.00000000000E+00  0.21467502105E+02  0.21467502105E+02  0.00000000000E+00 0.  1.
         22   -1    0    0    0    0 -0.00000000000E+00 -0.00000000000E+00 -0.43366596780E+00  0.43366596780E+00  0.00000000000E+00 0. -1.
          4    1    1    2  501    0  0.24327334239E+01 -0.80081296921E+00  0.45650471986E+01  0.52344196668E+01  0.00000000000E+00 0. -1.
         -4    1    1    2    0  501 -0.24327334239E+01  0.80081296921E+00  0.16468788939E+02  0.16666748406E+02  0.00000000000E+00 0.  1.
<mgrwt>
<rscale>  0 0.25611508E+01</rscale>
<asrwt>0</asrwt>
<pdfrwt beam="1">0</pdfrwt>
<pdfrwt beam="2">0</pdfrwt>
<totfact> 0.15994323E+12</totfact>
</mgrwt>
</event>
<event>
 4    2  0.1060494E+006  0.2345242E+01  0.7546771E-02  0.2780957E+00
         22   -1    0    0    0    0  0.00000000000E+00  0.00000000000E+00  0.32753612793E+00  0.32753612793E+00  0.00000000000E+00 0.  1.
         22   -1    0    0    0    0 -0.00000000000E+00 -0.00000000000E+00 -0.16984917395E+02  0.16984917395E+02  0.00000000000E+00 0. -1.
          4    1    1    2  501    0 -0.14960637443E+01 -0.18060876392E+01 -0.74074172068E+01  0.77698126723E+01  0.00000000000E+00 0. -1.
         -4    1    1    2    0  501  0.14960637443E+01  0.18060876392E+01 -0.92499640603E+01  0.95426408507E+01  0.00000000000E+00 0.  1.
<mgrwt>
<rscale>  0 0.23452418E+01</rscale>
<asrwt>0</asrwt>
<pdfrwt beam="1">0</pdfrwt>
<pdfrwt beam="2">0</pdfrwt>
<totfact> 0.29350557E+12</totfact>
</mgrwt>
</event>
<event>
 4    2  0.1060494E+006  0.5650515E+01  0.7546771E-02  0.2052524E+00
         22   -1    0    0    0    0  0.00000000000E+00  0.00000000000E+00  0.45585078084E+01  0.45585078084E+01  0.00000000000E+00 0. -1.
         22   -1    0    0    0    0 -0.00000000000E+00 -0.00000000000E+00 -0.10475710745E+02  0.10475710745E+02  0.00000000000E+00 0.  1.
          4    1    1    2  501    0  0.12603275400E+01 -0.55081664235E+01 -0.72859667049E+01  0.92202838178E+01  0.00000000000E+00 0.  1.
         -4    1    1    2    0  501 -0.12603275400E+01  0.55081664235E+01  0.13687637682E+01  0.58139347356E+01  0.00000000000E+00 0. -1.
<mgrwt>
<rscale>  0 0.56505153E+01</rscale>
<asrwt>0</asrwt>
<pdfrwt beam="1">0</pdfrwt>
<pdfrwt beam="2">0</pdfrwt>
<totfact> 0.25818133E+11</totfact>
</mgrwt>
</event>
<event>
 4    2  0.1060494E+006  0.3224709E+01  0.7546771E-02  0.2455609E+00
         22   -1    0    0    0    0  0.00000000000E+00  0.00000000000E+00  0.93027234101E+01  0.93027234101E+01  0.00000000000E+00 0. -1.
         22   -1    0    0    0    0 -0.00000000000E+00 -0.00000000000E+00 -0.13575032377E+01  0.13575032377E+01  0.00000000000E+00 0.  1.
          4    1    1    2  501    0 -0.52031660445E+00  0.31824550519E+01  0.17329255141E+01  0.36608442146E+01  0.00000000000E+00 0.  1.
         -4    1    1    2    0  501  0.52031660445E+00 -0.31824550519E+01  0.62122946582E+01  0.69993824332E+01  0.00000000000E+00 0. -1.
<mgrwt>
<rscale>  0 0.32247092E+01</rscale>
<asrwt>0</asrwt>
<pdfrwt beam="1">0</pdfrwt>
<pdfrwt beam="2">0</pdfrwt>
<totfact> 0.12203515E+12</totfact>
</mgrwt>
</event>
<event>
 4    2  0.1060494E+006  0.2445242E+01  0.7546771E-02  0.2733175E+00
         22   -1    0    0    0    0  0.00000000000E+00  0.00000000000E+00  0.48246560084E+02  0.48246560084E+02  0.00000000000E+00 0.  1.
         22   -1    0    0    0    0 -0.00000000000E+00 -0.00000000000E+00 -0.12670705796E+00  0.12670705796E+00  0.00000000000E+00 0. -1.
          4    1    1    2  501    0  0.24367731784E+01  0.20333280363E+00  0.20479384642E+02  0.20624849165E+02  0.00000000000E+00 0. -1.
         -4    1    1    2    0  501 -0.24367731784E+01 -0.20333280363E+00  0.27640468383E+02  0.27748417977E+02  0.00000000000E+00 0.  1.
<mgrwt>
<rscale>  0 0.24452419E+01</rscale>
<asrwt>0</asrwt>
<pdfrwt beam="1">0</pdfrwt>
<pdfrwt beam="2">0</pdfrwt>
<totfact> 0.22430105E+12</totfact>
</mgrwt>
</event>
<event>
 4    2  0.1060494E+006  0.2216502E+01  0.7546771E-02  0.2848456E+00
         22   -1    0    0    0    0  0.00000000000E+00  0.00000000000E+00  0.30433421790E+01  0.30433421790E+01  0.00000000000E+00 0. -1.
         22   -1    0    0    0    0 -0.00000000000E+00 -0.00000000000E+00 -0.21647530404E+01  0.21647530404E+01  0.00000000000E+00 0.  1.
          4    1    1    2  501    0 -0.26503830189E+00  0.22005985662E+01 -0.87382209746E+00  0.23825289944E+01  0.00000000000E+00 0.  1.
         -4    1    1    2    0  501  0.26503830189E+00 -0.22005985662E+01  0.17524112361E+01  0.28255662249E+01  0.00000000000E+00 0. -1.
<mgrwt>
<rscale>  0 0.22165016E+01</rscale>
<asrwt>0</asrwt>
<pdfrwt beam="1">0</pdfrwt>
<pdfrwt beam="2">0</pdfrwt>
<totfact> 0.26824555E+12</totfact>
</mgrwt>
</event>
<event>
 4    2  0.1060494E+006  0.2215106E+01  0.7546771E-02  0.2849229E+00
         22   -1    0    0    0    0  0.00000000000E+00  0.00000000000E+00  0.22958956064E+01  0.22958956064E+01  0.00000000000E+00 0. -1.
         22   -1    0    0    0    0 -0.00000000000E+00 -0.00000000000E+00 -0.68821381652E+01  0.68821381652E+01  0.00000000000E+00 0.  1.
          4    1    1    2  501    0  0.20176743306E+01  0.91415863314E+00 -0.61035608807E+01  0.64930848705E+01  0.00000000000E+00 0.  1.
         -4    1    1    2    0  501 -0.20176743306E+01 -0.91415863314E+00  0.15173183219E+01  0.26849489010E+01  0.00000000000E+00 0. -1.
<mgrwt>
<rscale>  0 0.22151063E+01</rscale>
<asrwt>0</asrwt>
<pdfrwt beam="1">0</pdfrwt>
<pdfrwt beam="2">0</pdfrwt>
<totfact> 0.95553251E+11</totfact>
</mgrwt>
</event>
<event>
 4    2  0.1060494E+006  0.2618593E+01  0.7546771E-02  0.2658448E+00
         22   -1    0    0    0    0  0.00000000000E+00  0.00000000000E+00  0.86262455356E-01  0.86262455356E-01  0.00000000000E+00 0. -1.
         22   -1    0    0    0    0 -0.00000000000E+00 -0.00000000000E+00 -0.95410859473E+02  0.95410859473E+02  0.00000000000E+00 0.  1.
          4    1    1    2  501    0  0.20976310815E+01  0.15674739816E+01 -0.67167038688E+02  0.67218063918E+02  0.00000000000E+00 0.  1.
         -4    1    1    2    0  501 -0.20976310815E+01 -0.15674739816E+01 -0.28157558330E+02  0.28279058010E+02  0.00000000000E+00 0. -1.
<mgrwt>
<rscale>  0 0.26185933E+01</rscale>
<asrwt>0</asrwt>
<pdfrwt beam="1">0</pdfrwt>
<pdfrwt beam="2">0</pdfrwt>
<totfact> 0.13634635E+12</totfact>
</mgrwt>
</event>
<event>
 4    2  0.1060494E+006  0.2027114E+01  0.7546771E-02  0.2962660E+00
         22   -1    0    0    0    0  0.00000000000E+00  0.00000000000E+00  0.14099667643E+00  0.14099667643E+00  0.00000000000E+00 0. -1.
         22   -1    0    0    0    0 -0.00000000000E+00 -0.00000000000E+00 -0.34020150075E+02  0.34020150075E+02  0.00000000000E+00 0.  1.
          4    1    1    2  501    0  0.42293734294E-02  0.20271091843E+01 -0.23406212839E+02  0.23493828742E+02  0.00000000000E+00 0.  1.
         -4    1    1    2    0  501 -0.42293734294E-02 -0.20271091843E+01 -0.10472940560E+02  0.10667318009E+02  0.00000000000E+00 0. -1.
<mgrwt>
<rscale>  0 0.20271136E+01</rscale>
<asrwt>0</asrwt>
<pdfrwt beam="1">0</pdfrwt>
<pdfrwt beam="2">0</pdfrwt>
<totfact> 0.31360890E+12</totfact>
</mgrwt>
</event>
<event>
 4    2  0.1060494E+006  0.2489202E+01  0.7546771E-02  0.2713310E+00
         22   -1    0    0    0    0  0.00000000000E+00  0.00000000000E+00  0.29478361730E+00  0.29478361730E+00  0.00000000000E+00 0.  1.
         22   -1    0    0    0    0 -0.00000000000E+00 -0.00000000000E+00 -0.30478072347E+02  0.30478072347E+02  0.00000000000E+00 0. -1.
          4    1    1    2  501    0 -0.11514217959E+01 -0.22068874887E+01 -0.23663267392E+02  0.23793830045E+02  0.00000000000E+00 0. -1.
         -4    1    1    2    0  501  0.11514217959E+01  0.22068874887E+01 -0.65200213379E+01  0.69790259196E+01  0.00000000000E+00 0.  1.
<mgrwt>
<rscale>  0 0.24892016E+01</rscale>
<asrwt>0</asrwt>
<pdfrwt beam="1">0</pdfrwt>
<pdfrwt beam="2">0</pdfrwt>
<totfact> 0.15853765E+12</totfact>
</mgrwt>
</event>
<event>
 4    2  0.1060494E+006  0.2499570E+01  0.7546771E-02  0.2708720E+00
         22   -1    0    0    0    0  0.00000000000E+00  0.00000000000E+00  0.27207094022E+01  0.27207094022E+01  0.00000000000E+00 0.  1.
         22   -1    0    0    0    0 -0.00000000000E+00 -0.00000000000E+00 -0.27764476943E+01  0.27764476943E+01  0.00000000000E+00 0. -1.
          4    1    1    2  501    0  0.24889022044E+01  0.23068829067E+00 -0.11707560016E+01  0.27601668221E+01  0.00000000000E+00 0. -1.
         -4    1    1    2    0  501 -0.24889022044E+01 -0.23068829067E+00  0.11150177095E+01  0.27369902745E+01  0.00000000000E+00 0.  1.
<mgrwt>
<rscale>  0 0.24995702E+01</rscale>
<asrwt>0</asrwt>
<pdfrwt beam="1">0</pdfrwt>
<pdfrwt beam="2">0</pdfrwt>
<totfact> 0.22891823E+12</totfact>
</mgrwt>
</event>
<event>
 4    2  0.1060494E+006  0.3089218E+01  0.7546771E-02  0.2494717E+00
         22   -1    0    0    0    0  0.00000000000E+00  0.00000000000E+00  0.25904084831E+02  0.25904084831E+02  0.00000000000E+00 0. -1.
         22   -1    0    0    0    0 -0.00000000000E+00 -0.00000000000E+00 -0.69162315444E+00  0.69162315444E+00  0.00000000000E+00 0.  1.
          4    1    1    2  501    0 -0.17080619466E+01  0.25740612973E+01  0.35156259332E+01  0.46800526576E+01  0.00000000000E+00 0.  1.
         -4    1    1    2    0  501  0.17080619466E+01 -0.25740612973E+01  0.21696835743E+02  0.21915655328E+02  0.00000000000E+00 0. -1.
<mgrwt>
<rscale>  0 0.30892179E+01</rscale>
<asrwt>0</asrwt>
<pdfrwt beam="1">0</pdfrwt>
<pdfrwt beam="2">0</pdfrwt>
<totfact> 0.74498448E+11</totfact>
</mgrwt>
</event>
<event>
 4    2  0.1060494E+006  0.2290533E+01  0.7546771E-02  0.2808760E+00
         22   -1    0    0    0    0  0.00000000000E+00  0.00000000000E+00  0.78995174657E+01  0.78995174657E+01  0.00000000000E+00 0.  1.
         22   -1    0    0    0    0 -0.00000000000E+00 -0.00000000000E+00 -0.19992684910E+01  0.19992684910E+01  0.00000000000E+00 0. -1.
          4    1    1    2  501    0 -0.22705651886E+01 -0.30178313665E+00 -0.10944677334E+01  0.25385820760E+01  0.00000000000E+00 0. -1.
         -4    1    1    2    0  501  0.22705651886E+01  0.30178313665E+00  0.69947167081E+01  0.73602038806E+01  0.00000000000E+00 0.  1.
<mgrwt>
<rscale>  0 0.22905325E+01</rscale>
<asrwt>0</asrwt>
<pdfrwt beam="1">0</pdfrwt>
<pdfrwt beam="2">0</pdfrwt>
<totfact> 0.95093948E+11</totfact>
</mgrwt>
</event>
<event>
 4    2  0.1060494E+006  0.2015229E+01  0.7546771E-02  0.2970522E+00
         22   -1    0    0    0    0  0.00000000000E+00  0.00000000000E+00  0.40173554201E+01  0.40173554201E+01  0.00000000000E+00 0.  1.
         22   -1    0    0    0    0 -0.00000000000E+00 -0.00000000000E+00 -0.10881780978E+01  0.10881780978E+01  0.00000000000E+00 0. -1.
          4    1    1    2  501    0  0.25286738655E+00  0.19993008773E+01  0.78430751481E+00  0.21624717780E+01  0.00000000000E+00 0. -1.
         -4    1    1    2    0  501 -0.25286738655E+00 -0.19993008773E+01  0.21448698076E+01  0.29430617398E+01  0.00000000000E+00 0.  1.
<mgrwt>
<rscale>  0 0.20152285E+01</rscale>
<asrwt>0</asrwt>
<pdfrwt beam="1">0</pdfrwt>
<pdfrwt beam="2">0</pdfrwt>
<totfact> 0.42756018E+12</totfact>
</mgrwt>
</event>
<event>
 4    2  0.1060494E+006  0.4020926E+01  0.7546771E-02  0.2273312E+00
         22   -1    0    0    0    0  0.00000000000E+00  0.00000000000E+00  0.74541284739E+00  0.74541284739E+00  0.00000000000E+00 0. -1.
         22   -1    0    0    0    0 -0.00000000000E+00 -0.00000000000E+00 -0.48814698621E+02  0.48814698621E+02  0.00000000000E+00 0.  1.
          4    1    1    2  501    0  0.30491151710E+01  0.26212103175E+01 -0.42506524146E+02  0.42696281358E+02  0.00000000000E+00 0.  1.
         -4    1    1    2    0  501 -0.30491151710E+01 -0.26212103175E+01 -0.55627616277E+01  0.68638301102E+01  0.00000000000E+00 0. -1.
<mgrwt>
<rscale>  0 0.40209261E+01</rscale>
<asrwt>0</asrwt>
<pdfrwt beam="1">0</pdfrwt>
<pdfrwt beam="2">0</pdfrwt>
<totfact> 0.30242721E+11</totfact>
</mgrwt>
</event>
<event>
 4    2  0.1060494E+006  0.2076350E+01  0.7546771E-02  0.2931028E+00
         22   -1    0    0    0    0  0.00000000000E+00  0.00000000000E+00  0.43772221205E+01  0.43772221205E+01  0.00000000000E+00 0. -1.
         22   -1    0    0    0    0 -0.00000000000E+00 -0.00000000000E+00 -0.45963995071E+01  0.45963995071E+01  0.00000000000E+00 0.  1.
          4    1    1    2  501    0  0.89353415585E+00  0.18742535796E+01 -0.40867318963E+01  0.45839510644E+01  0.00000000000E+00 0.  1.
         -4    1    1    2    0  501 -0.89353415585E+00 -0.18742535796E+01  0.38675545097E+01  0.43896705632E+01  0.00000000000E+00 0. -1.
<mgrwt>
<rscale>  0 0.20763501E+01</rscale>
<asrwt>0</asrwt>
<pdfrwt beam="1">0</pdfrwt>
<pdfrwt beam="2">0</pdfrwt>
<totfact> 0.72552185E+11</totfact>
</mgrwt>
</event>
<event>
 4    2  0.1060494E+006  0.2032178E+01  0.7546771E-02  0.2959338E+00
         22   -1    0    0    0    0  0.00000000000E+00  0.00000000000E+00  0.52465537890E+01  0.52465537890E+01  0.00000000000E+00 0. -1.
         22   -1    0    0    0    0 -0.00000000000E+00 -0.00000000000E+00 -0.22437688403E+01  0.22437688403E+01  0.00000000000E+00 0.  1.
          4    1    1    2  501    0  0.12886112134E+01 -0.15713776553E+01 -0.15161726829E+01  0.25354538448E+01  0.00000000000E+00 0.  1.
         -4    1    1    2    0  501 -0.12886112134E+01  0.15713776553E+01  0.45189576317E+01  0.49548687845E+01  0.00000000000E+00 0. -1.
<mgrwt>
<rscale>  0 0.20321778E+01</rscale>
<asrwt>0</asrwt>
<pdfrwt beam="1">0</pdfrwt>
<pdfrwt beam="2">0</pdfrwt>
<totfact> 0.13554958E+12</totfact>
</mgrwt>
</event>
<event>
 4    2  0.1060494E+006  0.2384430E+01  0.7546771E-02  0.2761783E+00
         22   -1    0    0    0    0  0.00000000000E+00  0.00000000000E+00  0.22421933941E+01  0.22421933941E+01  0.00000000000E+00 0. -1.
         22   -1    0    0    0    0 -0.00000000000E+00 -0.00000000000E+00 -0.25810060894E+01  0.25810060894E+01  0.00000000000E+00 0.  1.
          4    1    1    2  501    0 -0.23479832619E+01 -0.41531115902E+00 -0.48895276791E+00  0.24340467469E+01  0.00000000000E+00 0.  1.
         -4    1    1    2    0  501  0.23479832619E+01  0.41531115902E+00  0.15014007259E+00  0.23891527365E+01  0.00000000000E+00 0. -1.
<mgrwt>
<rscale>  0 0.23844305E+01</rscale>
<asrwt>0</asrwt>
<pdfrwt beam="1">0</pdfrwt>
<pdfrwt beam="2">0</pdfrwt>
<totfact> 0.31210461E+12</totfact>
</mgrwt>
</event>
<event>
 4    2  0.1060494E+006  0.2490725E+01  0.7546771E-02  0.2712633E+00
         22   -1    0    0    0    0  0.00000000000E+00  0.00000000000E+00  0.62142903377E+01  0.62142903377E+01  0.00000000000E+00 0.  1.
         22   -1    0    0    0    0 -0.00000000000E+00 -0.00000000000E+00 -0.65329890161E+01  0.65329890161E+01  0.00000000000E+00 0. -1.
          4    1    1    2  501    0  0.14520077813E+01 -0.20237057868E+01 -0.60258381419E+01  0.65203095801E+01  0.00000000000E+00 0. -1.
         -4    1    1    2    0  501 -0.14520077813E+01  0.20237057868E+01  0.57071394634E+01  0.62269697738E+01  0.00000000000E+00 0.  1.
<mgrwt>
<rscale>  0 0.24907251E+01</rscale>
<asrwt>0</asrwt>
<pdfrwt beam="1">0</pdfrwt>
<pdfrwt beam="2">0</pdfrwt>
<totfact> 0.31548229E+11</totfact>
</mgrwt>
</event>
<event>
 4    2  0.1060494E+006  0.2029774E+01  0.7546771E-02  0.2960912E+00
         22   -1    0    0    0    0  0.00000000000E+00  0.00000000000E+00  0.29038743497E+02  0.29038743497E+02  0.00000000000E+00 0. -1.
         22   -1    0    0    0    0 -0.00000000000E+00 -0.00000000000E+00 -0.14201304091E+00  0.14201304091E+00  0.00000000000E+00 0.  1.
          4    1    1    2  501    0  0.77577910796E+00 -0.18756732574E+01  0.14896874855E+02  0.15034522401E+02  0.00000000000E+00 0.  1.
         -4    1    1    2    0  501 -0.77577910796E+00  0.18756732574E+01  0.13999855601E+02  0.14146234137E+02  0.00000000000E+00 0. -1.
<mgrwt>
<rscale>  0 0.20297742E+01</rscale>
<asrwt>0</asrwt>
<pdfrwt beam="1">0</pdfrwt>
<pdfrwt beam="2">0</pdfrwt>
<totfact> 0.38088841E+12</totfact>
</mgrwt>
</event>
<event>
 4    2  0.1060494E+006  0.2019397E+01  0.7546771E-02  0.2967754E+00
         22   -1    0    0    0    0  0.00000000000E+00  0.00000000000E+00  0.29708342951E+01  0.29708342951E+01  0.00000000000E+00 0.  1.
         22   -1    0    0    0    0 -0.00000000000E+00 -0.00000000000E+00 -0.15933798819E+01  0.15933798819E+01  0.00000000000E+00 0. -1.
          4    1    1    2  501    0  0.92330635227E+00 -0.17959588612E+01  0.15380862296E+01  0.25384389102E+01  0.00000000000E+00 0.  1.
         -4    1    1    2    0  501 -0.92330635227E+00  0.17959588612E+01 -0.16063181628E+00  0.20257752668E+01  0.00000000000E+00 0. -1.
<mgrwt>
<rscale>  0 0.20193967E+01</rscale>
<asrwt>0</asrwt>
<pdfrwt beam="1">0</pdfrwt>
<pdfrwt beam="2">0</pdfrwt>
<totfact> 0.39314393E+12</totfact>
</mgrwt>
</event>
<event>
 4    2  0.1060494E+006  0.6222138E+01  0.7546771E-02  0.2000321E+00
         22   -1    0    0    0    0  0.00000000000E+00  0.00000000000E+00  0.35533734599E+02  0.35533734599E+02  0.00000000000E+00 0. -1.
         22   -1    0    0    0    0 -0.00000000000E+00 -0.00000000000E+00 -0.21620585600E+01  0.21620585600E+01  0.00000000000E+00 0.  1.
          4    1    1    2  501    0 -0.55616767192E+01 -0.27897579455E+01  0.34108539120E+01  0.70956974099E+01  0.00000000000E+00 0.  1.
         -4    1    1    2    0  501  0.55616767192E+01  0.27897579455E+01  0.29960822127E+02  0.30600095749E+02  0.00000000000E+00 0. -1.
<mgrwt>
<rscale>  0 0.62221377E+01</rscale>
<asrwt>0</asrwt>
<pdfrwt beam="1">0</pdfrwt>
<pdfrwt beam="2">0</pdfrwt>
<totfact> 0.13476281E+11</totfact>
</mgrwt>
</event>
<event>
 4    2  0.1060494E+006  0.5557255E+01  0.7546771E-02  0.2061828E+00
         22   -1    0    0    0    0  0.00000000000E+00  0.00000000000E+00  0.12527742004E+02  0.12527742004E+02  0.00000000000E+00 0.  1.
         22   -1    0    0    0    0 -0.00000000000E+00 -0.00000000000E+00 -0.52745824377E+01  0.52745824377E+01  0.00000000000E+00 0. -1.
          4    1    1    2  501    0  0.93891727849E+00 -0.54773642606E+01 -0.28696291630E+01  0.62544269467E+01  0.00000000000E+00 0. -1.
         -4    1    1    2    0  501 -0.93891727849E+00  0.54773642606E+01  0.10122788729E+02  0.11547897495E+02  0.00000000000E+00 0.  1.
<mgrwt>
<rscale>  0 0.55572552E+01</rscale>
<asrwt>0</asrwt>
<pdfrwt beam="1">0</pdfrwt>
<pdfrwt beam="2">0</pdfrwt>
<totfact> 0.17473594E+11</totfact>
</mgrwt>
</event>
<event>
 4    2  0.1060494E+006  0.2294860E+01  0.7546771E-02  0.2806515E+00
         22   -1    0    0    0    0  0.00000000000E+00  0.00000000000E+00  0.32050026729E+02  0.32050026729E+02  0.00000000000E+00 0. -1.
         22   -1    0    0    0    0 -0.00000000000E+00 -0.00000000000E+00 -0.24695648783E+00  0.24695648783E+00  0.00000000000E+00 0.  1.
          4    1    1    2  501    0 -0.16686169572E+01  0.15754683386E+01  0.65600912253E+01  0.69499050296E+01  0.00000000000E+00 0.  1.
         -4    1    1    2    0  501  0.16686169572E+01 -0.15754683386E+01  0.25242979016E+02  0.25347078187E+02  0.00000000000E+00 0. -1.
<mgrwt>
<rscale>  0 0.22948601E+01</rscale>
<asrwt>0</asrwt>
<pdfrwt beam="1">0</pdfrwt>
<pdfrwt beam="2">0</pdfrwt>
<totfact> 0.18126136E+12</totfact>
</mgrwt>
</event>
<event>
 4    2  0.1060494E+006  0.2473821E+01  0.7546771E-02  0.2720185E+00
         22   -1    0    0    0    0  0.00000000000E+00  0.00000000000E+00  0.92349852845E+00  0.92349852845E+00  0.00000000000E+00 0. -1.
         22   -1    0    0    0    0 -0.00000000000E+00 -0.00000000000E+00 -0.20295539613E+02  0.20295539613E+02  0.00000000000E+00 0.  1.
          4    1    1    2  501    0  0.40766595497E+00  0.24399995173E+01 -0.18392859399E+02  0.18558476932E+02  0.00000000000E+00 0.  1.
         -4    1    1    2    0  501 -0.40766595497E+00 -0.24399995173E+01 -0.97918168582E+00  0.26605612094E+01  0.00000000000E+00 0. -1.
<mgrwt>
<rscale>  0 0.24738208E+01</rscale>
<asrwt>0</asrwt>
<pdfrwt beam="1">0</pdfrwt>
<pdfrwt beam="2">0</pdfrwt>
<totfact> 0.72836907E+11</totfact>
</mgrwt>
</event>
<event>
 4    2  0.1060494E+006  0.2130602E+01  0.7546771E-02  0.2897822E+00
         22   -1    0    0    0    0  0.00000000000E+00  0.00000000000E+00  0.54051052432E+01  0.54051052432E+01  0.00000000000E+00 0. -1.
         22   -1    0    0    0    0 -0.00000000000E+00 -0.00000000000E+00 -0.50947098254E+01  0.50947098254E+01  0.00000000000E+00 0.  1.
          4    1    1    2  501    0  0.42728520942E+00 -0.20873167257E+01 -0.46425199565E+01  0.51080774573E+01  0.00000000000E+00 0.  1.
         -4    1    1    2    0  501 -0.42728520942E+00  0.20873167257E+01  0.49529153744E+01  0.53917376113E+01  0.00000000000E+00 0. -1.
<mgrwt>
<rscale>  0 0.21306017E+01</rscale>
<asrwt>0</asrwt>
<pdfrwt beam="1">0</pdfrwt>
<pdfrwt beam="2">0</pdfrwt>
<totfact> 0.50049627E+11</totfact>
</mgrwt>
</event>
<event>
 4    2  0.1060494E+006  0.2481475E+01  0.7546771E-02  0.2716754E+00
         22   -1    0    0    0    0  0.00000000000E+00  0.00000000000E+00  0.56045630003E+00  0.56045630003E+00  0.00000000000E+00 0. -1.
         22   -1    0    0    0    0 -0.00000000000E+00 -0.00000000000E+00 -0.10987193788E+02  0.10987193788E+02  0.00000000000E+00 0.  1.
          4    1    1    2  501    0  0.23216397066E+01  0.87619033775E+00 -0.51877171491E+01  0.57506634099E+01  0.00000000000E+00 0. -1.
         -4    1    1    2    0  501 -0.23216397066E+01 -0.87619033775E+00 -0.52390203392E+01  0.57969866784E+01  0.00000000000E+00 0.  1.
<mgrwt>
<rscale>  0 0.24814755E+01</rscale>
<asrwt>0</asrwt>
<pdfrwt beam="1">0</pdfrwt>
<pdfrwt beam="2">0</pdfrwt>
<totfact> 0.27332915E+12</totfact>
</mgrwt>
</event>
<event>
 4    2  0.1060494E+006  0.2741701E+01  0.7546771E-02  0.2610698E+00
         22   -1    0    0    0    0  0.00000000000E+00  0.00000000000E+00  0.11447390558E+02  0.11447390558E+02  0.00000000000E+00 0.  1.
         22   -1    0    0    0    0 -0.00000000000E+00 -0.00000000000E+00 -0.11137312200E+01  0.11137312200E+01  0.00000000000E+00 0. -1.
          4    1    1    2  501    0  0.11026673033E+01 -0.25101890947E+01  0.11433194317E+01  0.29705393106E+01  0.00000000000E+00 0. -1.
         -4    1    1    2    0  501 -0.11026673033E+01  0.25101890947E+01  0.91903399061E+01  0.95905824673E+01  0.00000000000E+00 0.  1.
<mgrwt>
<rscale>  0 0.27417010E+01</rscale>
<asrwt>0</asrwt>
<pdfrwt beam="1">0</pdfrwt>
<pdfrwt beam="2">0</pdfrwt>
<totfact> 0.11906547E+12</totfact>
</mgrwt>
</event>
<event>
 4    2  0.1060494E+006  0.2018932E+01  0.7546771E-02  0.2968062E+00
         22   -1    0    0    0    0  0.00000000000E+00  0.00000000000E+00  0.26854815905E+00  0.26854815905E+00  0.00000000000E+00 0. -1.
         22   -1    0    0    0    0 -0.00000000000E+00 -0.00000000000E+00 -0.15911846414E+02  0.15911846414E+02  0.00000000000E+00 0.  1.
          4    1    1    2  501    0 -0.19438438293E+01  0.54548748958E+00 -0.95587844958E+01  0.97696697217E+01  0.00000000000E+00 0.  1.
         -4    1    1    2    0  501  0.19438438293E+01 -0.54548748958E+00 -0.60845137589E+01  0.64107248511E+01  0.00000000000E+00 0. -1.
<mgrwt>
<rscale>  0 0.20189318E+01</rscale>
<asrwt>0</asrwt>
<pdfrwt beam="1">0</pdfrwt>
<pdfrwt beam="2">0</pdfrwt>
<totfact> 0.39744837E+12</totfact>
</mgrwt>
</event>
<event>
 4    2  0.1060494E+006  0.2380581E+01  0.7546771E-02  0.2763640E+00
         22   -1    0    0    0    0  0.00000000000E+00  0.00000000000E+00  0.87709436035E+01  0.87709436035E+01  0.00000000000E+00 0.  1.
         22   -1    0    0    0    0 -0.00000000000E+00 -0.00000000000E+00 -0.64622013553E+00  0.64622013553E+00  0.00000000000E+00 0. -1.
          4    1    1    2  501    0  0.91071625343E-01 -0.23788379489E+01  0.41181733915E+01  0.47567337649E+01  0.00000000000E+00 0.  1.
         -4    1    1    2    0  501 -0.91071625343E-01  0.23788379489E+01  0.40065500765E+01  0.46604299741E+01  0.00000000000E+00 0. -1.
<mgrwt>
<rscale>  0 0.23805806E+01</rscale>
<asrwt>0</asrwt>
<pdfrwt beam="1">0</pdfrwt>
<pdfrwt beam="2">0</pdfrwt>
<totfact> 0.30552938E+12</totfact>
</mgrwt>
</event>
<event>
 4    2  0.1060494E+006  0.2098223E+01  0.7546771E-02  0.2917440E+00
         22   -1    0    0    0    0  0.00000000000E+00  0.00000000000E+00  0.23620532637E+02  0.23620532637E+02  0.00000000000E+00 0. -1.
         22   -1    0    0    0    0 -0.00000000000E+00 -0.00000000000E+00 -0.30184429066E+00  0.30184429066E+00  0.00000000000E+00 0.  1.
          4    1    1    2  501    0 -0.19901722946E+01 -0.66464585377E+00  0.42616708138E+01  0.47501976799E+01  0.00000000000E+00 0.  1.
         -4    1    1    2    0  501  0.19901722946E+01  0.66464585377E+00  0.19057017533E+02  0.19172179248E+02  0.00000000000E+00 0. -1.
<mgrwt>
<rscale>  0 0.20982230E+01</rscale>
<asrwt>0</asrwt>
<pdfrwt beam="1">0</pdfrwt>
<pdfrwt beam="2">0</pdfrwt>
<totfact> 0.21318737E+12</totfact>
</mgrwt>
</event>
<event>
 4    2  0.1060494E+006  0.3288043E+01  0.7546771E-02  0.2438311E+00
         22   -1    0    0    0    0  0.00000000000E+00  0.00000000000E+00  0.31473713156E+01  0.31473713156E+01  0.00000000000E+00 0.  1.
         22   -1    0    0    0    0 -0.00000000000E+00 -0.00000000000E+00 -0.35776632823E+01  0.35776632823E+01  0.00000000000E+00 0. -1.
          4    1    1    2  501    0 -0.20595451361E+01 -0.25631042181E+01 -0.88660047275E+00  0.34054793787E+01  0.00000000000E+00 0. -1.
         -4    1    1    2    0  501  0.20595451361E+01  0.25631042181E+01  0.45630850608E+00  0.33195552192E+01  0.00000000000E+00 0.  1.
<mgrwt>
<rscale>  0 0.32880434E+01</rscale>
<asrwt>0</asrwt>
<pdfrwt beam="1">0</pdfrwt>
<pdfrwt beam="2">0</pdfrwt>
<totfact> 0.14356255E+12</totfact>
</mgrwt>
</event>
<event>
 4    2  0.1060494E+006  0.2796651E+01  0.7546771E-02  0.2590628E+00
         22   -1    0    0    0    0  0.00000000000E+00  0.00000000000E+00  0.19144519423E+00  0.19144519423E+00  0.00000000000E+00 0.  1.
         22   -1    0    0    0    0 -0.00000000000E+00 -0.00000000000E+00 -0.13604254429E+03  0.13604254429E+03  0.00000000000E+00 0. -1.
          4    1    1    2  501    0  0.58261479478E+00 -0.27352911600E+01 -0.12490404484E+03  0.12493534998E+03  0.00000000000E+00 0. -1.
         -4    1    1    2    0  501 -0.58261479478E+00  0.27352911600E+01 -0.10947054265E+02  0.11298639511E+02  0.00000000000E+00 0.  1.
<mgrwt>
<rscale>  0 0.27966512E+01</rscale>
<asrwt>0</asrwt>
<pdfrwt beam="1">0</pdfrwt>
<pdfrwt beam="2">0</pdfrwt>
<totfact> 0.33875432E+11</totfact>
</mgrwt>
</event>
<event>
 4    2  0.1060494E+006  0.3720766E+01  0.7546771E-02  0.2334075E+00
         22   -1    0    0    0    0  0.00000000000E+00  0.00000000000E+00  0.31772493268E+01  0.31772493268E+01  0.00000000000E+00 0. -1.
         22   -1    0    0    0    0 -0.00000000000E+00 -0.00000000000E+00 -0.53332695306E+01  0.53332695306E+01  0.00000000000E+00 0.  1.
          4    1    1    2  501    0  0.15658413263E+01  0.33752390458E+01 -0.28983670954E+01  0.47164212593E+01  0.00000000000E+00 0.  1.
         -4    1    1    2    0  501 -0.15658413263E+01 -0.33752390458E+01  0.74234689165E+00  0.37940975980E+01  0.00000000000E+00 0. -1.
<mgrwt>
<rscale>  0 0.37207657E+01</rscale>
<asrwt>0</asrwt>
<pdfrwt beam="1">0</pdfrwt>
<pdfrwt beam="2">0</pdfrwt>
<totfact> 0.88655329E+11</totfact>
</mgrwt>
</event>
<event>
 4    2  0.1060494E+006  0.2135434E+01  0.7546771E-02  0.2894943E+00
         22   -1    0    0    0    0  0.00000000000E+00  0.00000000000E+00  0.12032679096E+01  0.12032679096E+01  0.00000000000E+00 0. -1.
         22   -1    0    0    0    0 -0.00000000000E+00 -0.00000000000E+00 -0.76717501194E+01  0.76717501194E+01  0.00000000000E+00 0.  1.
          4    1    1    2  501    0  0.23464580985E+00  0.21225031460E+01 -0.63908450066E+01  0.67381732063E+01  0.00000000000E+00 0.  1.
         -4    1    1    2    0  501 -0.23464580985E+00 -0.21225031460E+01 -0.77637203260E-01  0.21368448226E+01  0.00000000000E+00 0. -1.
<mgrwt>
<rscale>  0 0.21354340E+01</rscale>
<asrwt>0</asrwt>
<pdfrwt beam="1">0</pdfrwt>
<pdfrwt beam="2">0</pdfrwt>
<totfact> 0.17672562E+12</totfact>
</mgrwt>
</event>
<event>
 4    2  0.1060494E+006  0.2452145E+01  0.7546771E-02  0.2730011E+00
         22   -1    0    0    0    0  0.00000000000E+00  0.00000000000E+00  0.43711458814E+02  0.43711458814E+02  0.00000000000E+00 0. -1.
         22   -1    0    0    0    0 -0.00000000000E+00 -0.00000000000E+00 -0.15950283965E+00  0.15950283965E+00  0.00000000000E+00 0.  1.
          4    1    1    2  501    0  0.10816246275E+00  0.24497582206E+01  0.13640288218E+02  0.13858949352E+02  0.00000000000E+00 0.  1.
         -4    1    1    2    0  501 -0.10816246275E+00 -0.24497582206E+01  0.29911667756E+02  0.30012012302E+02  0.00000000000E+00 0. -1.
<mgrwt>
<rscale>  0 0.24521449E+01</rscale>
<asrwt>0</asrwt>
<pdfrwt beam="1">0</pdfrwt>
<pdfrwt beam="2">0</pdfrwt>
<totfact> 0.19766723E+12</totfact>
</mgrwt>
</event>
<event>
 4    2  0.1060494E+006  0.2007762E+01  0.7546771E-02  0.2975507E+00
         22   -1    0    0    0    0  0.00000000000E+00  0.00000000000E+00  0.59870377032E+01  0.59870377032E+01  0.00000000000E+00 0. -1.
         22   -1    0    0    0    0 -0.00000000000E+00 -0.00000000000E+00 -0.10594586978E+01  0.10594586978E+01  0.00000000000E+00 0.  1.
          4    1    1    2  501    0 -0.20047684494E+01  0.10959589772E+00  0.33672422866E+00  0.20358022995E+01  0.00000000000E+00 0.  1.
         -4    1    1    2    0  501  0.20047684494E+01 -0.10959589772E+00  0.45908547768E+01  0.50106941015E+01  0.00000000000E+00 0. -1.
<mgrwt>
<rscale>  0 0.20077619E+01</rscale>
<asrwt>0</asrwt>
<pdfrwt beam="1">0</pdfrwt>
<pdfrwt beam="2">0</pdfrwt>
<totfact> 0.27492933E+12</totfact>
</mgrwt>
</event>
<event>
 4    2  0.1060494E+006  0.3061524E+01  0.7546771E-02  0.2503088E+00
         22   -1    0    0    0    0  0.00000000000E+00  0.00000000000E+00  0.18461409017E+00  0.18461409017E+00  0.00000000000E+00 0. -1.
         22   -1    0    0    0    0 -0.00000000000E+00 -0.00000000000E+00 -0.52132538835E+02  0.52132538835E+02  0.00000000000E+00 0.  1.
          4    1    1    2  501    0 -0.17585630525E+01  0.25060702322E+01 -0.30202299946E+02  0.30357072554E+02  0.00000000000E+00 0.  1.
         -4    1    1    2    0  501  0.17585630525E+01 -0.25060702322E+01 -0.21745624799E+02  0.21960080371E+02  0.00000000000E+00 0. -1.
<mgrwt>
<rscale>  0 0.30615245E+01</rscale>
<asrwt>0</asrwt>
<pdfrwt beam="1">0</pdfrwt>
<pdfrwt beam="2">0</pdfrwt>
<totfact> 0.13325237E+12</totfact>
</mgrwt>
</event>
<event>
 4    2  0.1060494E+006  0.3869649E+01  0.7546771E-02  0.2302926E+00
         22   -1    0    0    0    0  0.00000000000E+00  0.00000000000E+00  0.94747804237E+02  0.94747804237E+02  0.00000000000E+00 0.  1.
         22   -1    0    0    0    0 -0.00000000000E+00 -0.00000000000E+00 -0.33391304508E+00  0.33391304508E+00  0.00000000000E+00 0. -1.
          4    1    1    2  501    0  0.10857913186E+01 -0.37141943541E+01  0.12704740800E+02  0.13280987210E+02  0.00000000000E+00 0. -1.
         -4    1    1    2    0  501 -0.10857913186E+01  0.37141943541E+01  0.81709150392E+02  0.81800730072E+02  0.00000000000E+00 0.  1.
<mgrwt>
<rscale>  0 0.38696489E+01</rscale>
<asrwt>0</asrwt>
<pdfrwt beam="1">0</pdfrwt>
<pdfrwt beam="2">0</pdfrwt>
<totfact> 0.30499594E+11</totfact>
</mgrwt>
</event>
<event>
 4    2  0.1060494E+006  0.2727466E+01  0.7546771E-02  0.2616017E+00
         22   -1    0    0    0    0  0.00000000000E+00  0.00000000000E+00  0.64706314020E+00  0.64706314020E+00  0.00000000000E+00 0.  1.
         22   -1    0    0    0    0 -0.00000000000E+00 -0.00000000000E+00 -0.15984579449E+02  0.15984579449E+02  0.00000000000E+00 0. -1.
          4    1    1    2  501    0 -0.14833030499E+01 -0.22888602500E+01 -0.12075085409E+02  0.12379287411E+02  0.00000000000E+00 0. -1.
         -4    1    1    2    0  501  0.14833030499E+01  0.22888602500E+01 -0.32624309002E+01  0.42523551780E+01  0.00000000000E+00 0.  1.
<mgrwt>
<rscale>  0 0.27274657E+01</rscale>
<asrwt>0</asrwt>
<pdfrwt beam="1">0</pdfrwt>
<pdfrwt beam="2">0</pdfrwt>
<totfact> 0.14678556E+12</totfact>
</mgrwt>
</event>
<event>
 4    2  0.1060494E+006  0.2408537E+01  0.7546771E-02  0.2750280E+00
         22   -1    0    0    0    0  0.00000000000E+00  0.00000000000E+00  0.45599391091E+01  0.45599391091E+01  0.00000000000E+00 0. -1.
         22   -1    0    0    0    0 -0.00000000000E+00 -0.00000000000E+00 -0.12765643867E+01  0.12765643867E+01  0.00000000000E+00 0.  1.
          4    1    1    2  501    0  0.12866729648E+01  0.20360555186E+01  0.14706042250E+01  0.28220074734E+01  0.00000000000E+00 0.  1.
         -4    1    1    2    0  501 -0.12866729648E+01 -0.20360555186E+01  0.18127704974E+01  0.30144960225E+01  0.00000000000E+00 0. -1.
<mgrwt>
<rscale>  0 0.24085368E+01</rscale>
<asrwt>0</asrwt>
<pdfrwt beam="1">0</pdfrwt>
<pdfrwt beam="2">0</pdfrwt>
<totfact> 0.30672441E+12</totfact>
</mgrwt>
</event>
<event>
 4    2  0.1060494E+006  0.2630425E+01  0.7546771E-02  0.2653681E+00
         22   -1    0    0    0    0  0.00000000000E+00  0.00000000000E+00  0.18109013370E+00  0.18109013370E+00  0.00000000000E+00 0. -1.
         22   -1    0    0    0    0 -0.00000000000E+00 -0.00000000000E+00 -0.45392645548E+02  0.45392645548E+02  0.00000000000E+00 0.  1.
          4    1    1    2  501    0 -0.17649904404E+01  0.19503698900E+01 -0.31671189310E+02  0.31780235466E+02  0.00000000000E+00 0.  1.
         -4    1    1    2    0  501  0.17649904404E+01 -0.19503698900E+01 -0.13540366104E+02  0.13793500216E+02  0.00000000000E+00 0. -1.
<mgrwt>
<rscale>  0 0.26304247E+01</rscale>
<asrwt>0</asrwt>
<pdfrwt beam="1">0</pdfrwt>
<pdfrwt beam="2">0</pdfrwt>
<totfact> 0.16335378E+12</totfact>
</mgrwt>
</event>
<event>
 4    2  0.1060494E+006  0.2910483E+01  0.7546771E-02  0.2551248E+00
         22   -1    0    0    0    0  0.00000000000E+00  0.00000000000E+00  0.82348499580E+00  0.82348499580E+00  0.00000000000E+00 0. -1.
         22   -1    0    0    0    0 -0.00000000000E+00 -0.00000000000E+00 -0.11803570726E+02  0.11803570726E+02  0.00000000000E+00 0.  1.
          4    1    1    2  501    0  0.24781127058E+01  0.15263901720E+01 -0.77533605562E+01  0.82816368825E+01  0.00000000000E+00 0.  1.
         -4    1    1    2    0  501 -0.24781127058E+01 -0.15263901720E+01 -0.32267251738E+01  0.43454188391E+01  0.00000000000E+00 0. -1.
<mgrwt>
<rscale>  0 0.29104827E+01</rscale>
<asrwt>0</asrwt>
<pdfrwt beam="1">0</pdfrwt>
<pdfrwt beam="2">0</pdfrwt>
<totfact> 0.16188666E+12</totfact>
</mgrwt>
</event>
<event>
 4    2  0.1060494E+006  0.2848010E+01  0.7546771E-02  0.2572508E+00
         22   -1    0    0    0    0  0.00000000000E+00  0.00000000000E+00  0.88336216240E+01  0.88336216240E+01  0.00000000000E+00 0. -1.
         22   -1    0    0    0    0 -0.00000000000E+00 -0.00000000000E+00 -0.13740721307E+01  0.13740721307E+01  0.00000000000E+00 0.  1.
          4    1    1    2  501    0 -0.21276482314E+01 -0.18932173342E+01  0.79004425368E+00  0.29555589647E+01  0.00000000000E+00 0.  1.
         -4    1    1    2    0  501  0.21276482314E+01  0.18932173342E+01  0.66695052397E+01  0.72521347900E+01  0.00000000000E+00 0. -1.
<mgrwt>
<rscale>  0 0.28480096E+01</rscale>
<asrwt>0</asrwt>
<pdfrwt beam="1">0</pdfrwt>
<pdfrwt beam="2">0</pdfrwt>
<totfact> 0.12809878E+12</totfact>
</mgrwt>
</event>
<event>
 4    2  0.1060494E+006  0.3083026E+01  0.7546771E-02  0.2496577E+00
         22   -1    0    0    0    0  0.00000000000E+00  0.00000000000E+00  0.17510921935E+02  0.17510921935E+02  0.00000000000E+00 0.  1.
         22   -1    0    0    0    0 -0.00000000000E+00 -0.00000000000E+00 -0.69022197055E+00  0.69022197055E+00  0.00000000000E+00 0. -1.
          4    1    1    2  501    0 -0.50810842628E+00  0.30408677344E+01  0.42045838999E+01  0.52137871574E+01  0.00000000000E+00 0.  1.
         -4    1    1    2    0  501  0.50810842628E+00 -0.30408677344E+01  0.12616116064E+02  0.12987356748E+02  0.00000000000E+00 0. -1.
<mgrwt>
<rscale>  0 0.30830262E+01</rscale>
<asrwt>0</asrwt>
<pdfrwt beam="1">0</pdfrwt>
<pdfrwt beam="2">0</pdfrwt>
<totfact> 0.12187159E+12</totfact>
</mgrwt>
</event>
<event>
 4    2  0.1060494E+006  0.2594433E+01  0.7546771E-02  0.2668307E+00
         22   -1    0    0    0    0  0.00000000000E+00  0.00000000000E+00  0.16271152012E+02  0.16271152012E+02  0.00000000000E+00 0. -1.
         22   -1    0    0    0    0 -0.00000000000E+00 -0.00000000000E+00 -0.66385094706E+00  0.66385094706E+00  0.00000000000E+00 0.  1.
          4    1    1    2  501    0 -0.34070575150E+00  0.25719647504E+01  0.26056457865E+01  0.36770195880E+01  0.00000000000E+00 0.  1.
         -4    1    1    2    0  501  0.34070575150E+00 -0.25719647504E+01  0.13001655279E+02  0.13257983371E+02  0.00000000000E+00 0. -1.
<mgrwt>
<rscale>  0 0.25944331E+01</rscale>
<asrwt>0</asrwt>
<pdfrwt beam="1">0</pdfrwt>
<pdfrwt beam="2">0</pdfrwt>
<totfact> 0.13948889E+12</totfact>
</mgrwt>
</event>
<event>
 4    2  0.1060494E+006  0.2195243E+01  0.7546771E-02  0.2860328E+00
         22   -1    0    0    0    0  0.00000000000E+00  0.00000000000E+00  0.75833077033E+00  0.75833077033E+00  0.00000000000E+00 0.  1.
         22   -1    0    0    0    0 -0.00000000000E+00 -0.00000000000E+00 -0.67349287773E+01  0.67349287773E+01  0.00000000000E+00 0. -1.
          4    1    1    2  501    0  0.21660825282E+01  0.35662047200E+00 -0.38783215381E+01  0.44565086820E+01  0.00000000000E+00 0.  1.
         -4    1    1    2    0  501 -0.21660825282E+01 -0.35662047200E+00 -0.20982764689E+01  0.30367508656E+01  0.00000000000E+00 0. -1.
<mgrwt>
<rscale>  0 0.21952430E+01</rscale>
<asrwt>0</asrwt>
<pdfrwt beam="1">0</pdfrwt>
<pdfrwt beam="2">0</pdfrwt>
<totfact> 0.34979511E+12</totfact>
</mgrwt>
</event>
<event>
 4    2  0.1060494E+006  0.3206791E+01  0.7546771E-02  0.2460613E+00
         22   -1    0    0    0    0  0.00000000000E+00  0.00000000000E+00  0.32566875278E+01  0.32566875278E+01  0.00000000000E+00 0.  1.
         22   -1    0    0    0    0 -0.00000000000E+00 -0.00000000000E+00 -0.95225078144E+01  0.95225078144E+01  0.00000000000E+00 0. -1.
          4    1    1    2  501    0  0.30843198867E+01 -0.87777100307E+00 -0.83567741824E+01  0.89509321209E+01  0.00000000000E+00 0. -1.
         -4    1    1    2    0  501 -0.30843198867E+01  0.87777100307E+00  0.20909538958E+01  0.38282632213E+01  0.00000000000E+00 0.  1.
<mgrwt>
<rscale>  0 0.32067914E+01</rscale>
<asrwt>0</asrwt>
<pdfrwt beam="1">0</pdfrwt>
<pdfrwt beam="2">0</pdfrwt>
<totfact> 0.43031580E+11</totfact>
</mgrwt>
</event>
<event>
 4    2  0.1060494E+006  0.2035092E+01  0.7546771E-02  0.2957433E+00
         22   -1    0    0    0    0  0.00000000000E+00  0.00000000000E+00  0.19535054383E+01  0.19535054383E+01  0.00000000000E+00 0.  1.
         22   -1    0    0    0    0 -0.00000000000E+00 -0.00000000000E+00 -0.33437908227E+01  0.33437908227E+01  0.00000000000E+00 0. -1.
          4    1    1    2  501    0 -0.59775573534E+00  0.19453241779E+01 -0.22974402983E+01  0.30691741561E+01  0.00000000000E+00 0. -1.
         -4    1    1    2    0  501  0.59775573534E+00 -0.19453241779E+01  0.90715491395E+00  0.22281221049E+01  0.00000000000E+00 0.  1.
<mgrwt>
<rscale>  0 0.20350917E+01</rscale>
<asrwt>0</asrwt>
<pdfrwt beam="1">0</pdfrwt>
<pdfrwt beam="2">0</pdfrwt>
<totfact> 0.27059571E+12</totfact>
</mgrwt>
</event>
<event>
 4    2  0.1060494E+006  0.2869590E+01  0.7546771E-02  0.2565069E+00
         22   -1    0    0    0    0  0.00000000000E+00  0.00000000000E+00  0.11535852238E+01  0.11535852238E+01  0.00000000000E+00 0. -1.
         22   -1    0    0    0    0 -0.00000000000E+00 -0.00000000000E+00 -0.13404200398E+02  0.13404200398E+02  0.00000000000E+00 0.  1.
          4    1    1    2  501    0  0.22704042875E+01  0.17549387197E+01 -0.11101983630E+02  0.11466847259E+02  0.00000000000E+00 0.  1.
         -4    1    1    2    0  501 -0.22704042875E+01 -0.17549387197E+01 -0.11486315440E+01  0.30909383628E+01  0.00000000000E+00 0. -1.
<mgrwt>
<rscale>  0 0.28695898E+01</rscale>
<asrwt>0</asrwt>
<pdfrwt beam="1">0</pdfrwt>
<pdfrwt beam="2">0</pdfrwt>
<totfact> 0.94327612E+11</totfact>
</mgrwt>
</event>
<event>
 4    2  0.1060494E+006  0.5194793E+01  0.7546771E-02  0.2100446E+00
         22   -1    0    0    0    0  0.00000000000E+00  0.00000000000E+00  0.65966661393E+00  0.65966661393E+00  0.00000000000E+00 0. -1.
         22   -1    0    0    0    0 -0.00000000000E+00 -0.00000000000E+00 -0.43593712166E+02  0.43593712166E+02  0.00000000000E+00 0.  1.
          4    1    1    2  501    0  0.51897080964E+01  0.22978097367E+00 -0.15975328510E+02  0.16798719904E+02  0.00000000000E+00 0. -1.
         -4    1    1    2    0  501 -0.51897080964E+01 -0.22978097367E+00 -0.26958717042E+02  0.27454658876E+02  0.00000000000E+00 0.  1.
<mgrwt>
<rscale>  0 0.51947925E+01</rscale>
<asrwt>0</asrwt>
<pdfrwt beam="1">0</pdfrwt>
<pdfrwt beam="2">0</pdfrwt>
<totfact> 0.40296860E+11</totfact>
</mgrwt>
</event>
<event>
 4    2  0.1060494E+006  0.2852562E+01  0.7546771E-02  0.2570930E+00
         22   -1    0    0    0    0  0.00000000000E+00  0.00000000000E+00  0.18754275687E+00  0.18754275687E+00  0.00000000000E+00 0.  1.
         22   -1    0    0    0    0 -0.00000000000E+00 -0.00000000000E+00 -0.43442354252E+02  0.43442354252E+02  0.00000000000E+00 0. -1.
          4    1    1    2  501    0  0.24832546532E+01  0.14037655133E+01 -0.20855999504E+02  0.21050174027E+02  0.00000000000E+00 0.  1.
         -4    1    1    2    0  501 -0.24832546532E+01 -0.14037655133E+01 -0.22398811991E+02  0.22579722981E+02  0.00000000000E+00 0. -1.
<mgrwt>
<rscale>  0 0.28525622E+01</rscale>
<asrwt>0</asrwt>
<pdfrwt beam="1">0</pdfrwt>
<pdfrwt beam="2">0</pdfrwt>
<totfact> 0.16638793E+12</totfact>
</mgrwt>
</event>
<event>
 4    2  0.1060494E+006  0.3745780E+01  0.7546771E-02  0.2328693E+00
         22   -1    0    0    0    0  0.00000000000E+00  0.00000000000E+00  0.42199409120E+02  0.42199409120E+02  0.00000000000E+00 0.  1.
         22   -1    0    0    0    0 -0.00000000000E+00 -0.00000000000E+00 -0.48514174370E+00  0.48514174370E+00  0.00000000000E+00 0. -1.
          4    1    1    2  501    0 -0.37302151433E+01  0.34111532922E+00  0.88853778506E+01  0.96426554554E+01  0.00000000000E+00 0. -1.
         -4    1    1    2    0  501  0.37302151433E+01 -0.34111532922E+00  0.32828889525E+02  0.33041895408E+02  0.00000000000E+00 0.  1.
<mgrwt>
<rscale>  0 0.37457796E+01</rscale>
<asrwt>0</asrwt>
<pdfrwt beam="1">0</pdfrwt>
<pdfrwt beam="2">0</pdfrwt>
<totfact> 0.59520585E+11</totfact>
</mgrwt>
</event>
<event>
 4    2  0.1060494E+006  0.3108787E+01  0.7546771E-02  0.2488881E+00
         22   -1    0    0    0    0  0.00000000000E+00  0.00000000000E+00  0.60289433404E+01  0.60289433404E+01  0.00000000000E+00 0. -1.
         22   -1    0    0    0    0 -0.00000000000E+00 -0.00000000000E+00 -0.16406707429E+01  0.16406707429E+01  0.00000000000E+00 0.  1.
          4    1    1    2  501    0 -0.24055773186E+01  0.19692014623E+01  0.27750096058E+01  0.41671614976E+01  0.00000000000E+00 0. -1.
         -4    1    1    2    0  501  0.24055773186E+01 -0.19692014623E+01  0.16132629916E+01  0.35024525857E+01  0.00000000000E+00 0.  1.
<mgrwt>
<rscale>  0 0.31087870E+01</rscale>
<asrwt>0</asrwt>
<pdfrwt beam="1">0</pdfrwt>
<pdfrwt beam="2">0</pdfrwt>
<totfact> 0.16506457E+12</totfact>
</mgrwt>
</event>
<event>
 4    2  0.1060494E+006  0.2718221E+01  0.7546771E-02  0.2619499E+00
         22   -1    0    0    0    0  0.00000000000E+00  0.00000000000E+00  0.34358585251E+00  0.34358585251E+00  0.00000000000E+00 0.  1.
         22   -1    0    0    0    0 -0.00000000000E+00 -0.00000000000E+00 -0.78020298501E+02  0.78020298501E+02  0.00000000000E+00 0. -1.
          4    1    1    2  501    0  0.29123620592E+00 -0.27025744790E+01 -0.72186075442E+02  0.72237235655E+02  0.00000000000E+00 0. -1.
         -4    1    1    2    0  501 -0.29123620592E+00  0.27025744790E+01 -0.54906372060E+01  0.61266486981E+01  0.00000000000E+00 0.  1.
<mgrwt>
<rscale>  0 0.27182214E+01</rscale>
<asrwt>0</asrwt>
<pdfrwt beam="1">0</pdfrwt>
<pdfrwt beam="2">0</pdfrwt>
<totfact> 0.38652268E+11</totfact>
</mgrwt>
</event>
<event>
 4    2  0.1060494E+006  0.4204674E+01  0.7546771E-02  0.2239798E+00
         22   -1    0    0    0    0  0.00000000000E+00  0.00000000000E+00  0.14118791708E+01  0.14118791708E+01  0.00000000000E+00 0.  1.
         22   -1    0    0    0    0 -0.00000000000E+00 -0.00000000000E+00 -0.27234318291E+02  0.27234318291E+02  0.00000000000E+00 0. -1.
          4    1    1    2  501    0 -0.41949136819E+01  0.28632721510E+00 -0.23438642651E+02  0.23812796001E+02  0.00000000000E+00 0. -1.
         -4    1    1    2    0  501  0.41949136819E+01 -0.28632721510E+00 -0.23837964689E+01  0.48334014604E+01  0.00000000000E+00 0.  1.
<mgrwt>
<rscale>  0 0.42046741E+01</rscale>
<asrwt>0</asrwt>
<pdfrwt beam="1">0</pdfrwt>
<pdfrwt beam="2">0</pdfrwt>
<totfact> 0.30955565E+11</totfact>
</mgrwt>
</event>
<event>
 4    2  0.1060494E+006  0.2835468E+01  0.7546771E-02  0.2576878E+00
         22   -1    0    0    0    0  0.00000000000E+00  0.00000000000E+00  0.17258164464E+00  0.17258164464E+00  0.00000000000E+00 0. -1.
         22   -1    0    0    0    0 -0.00000000000E+00 -0.00000000000E+00 -0.59268276886E+02  0.59268276886E+02  0.00000000000E+00 0.  1.
          4    1    1    2  501    0 -0.24265105844E+01 -0.14669444937E+01 -0.43295970623E+02  0.43388719179E+02  0.00000000000E+00 0.  1.
         -4    1    1    2    0  501  0.24265105844E+01  0.14669444937E+01 -0.15799724618E+02  0.16052139352E+02  0.00000000000E+00 0. -1.
<mgrwt>
<rscale>  0 0.28354682E+01</rscale>
<asrwt>0</asrwt>
<pdfrwt beam="1">0</pdfrwt>
<pdfrwt beam="2">0</pdfrwt>
<totfact> 0.12111052E+12</totfact>
</mgrwt>
</event>
<event>
 4    2  0.1060494E+006  0.2977068E+01  0.7546771E-02  0.2529477E+00
         22   -1    0    0    0    0  0.00000000000E+00  0.00000000000E+00  0.21288860464E+01  0.21288860464E+01  0.00000000000E+00 0. -1.
         22   -1    0    0    0    0 -0.00000000000E+00 -0.00000000000E+00 -0.55925364516E+01  0.55925364516E+01  0.00000000000E+00 0.  1.
          4    1    1    2  501    0 -0.26542205741E+01  0.13483490608E+01 -0.36836168318E+01  0.47362395430E+01  0.00000000000E+00 0.  1.
         -4    1    1    2    0  501  0.26542205741E+01 -0.13483490608E+01  0.21996642660E+00  0.29851829550E+01  0.00000000000E+00 0. -1.
<mgrwt>
<rscale>  0 0.29770677E+01</rscale>
<asrwt>0</asrwt>
<pdfrwt beam="1">0</pdfrwt>
<pdfrwt beam="2">0</pdfrwt>
<totfact> 0.13356778E+12</totfact>
</mgrwt>
</event>
<event>
 4    2  0.1060494E+006  0.2383398E+01  0.7546771E-02  0.2762280E+00
         22   -1    0    0    0    0  0.00000000000E+00  0.00000000000E+00  0.10339152689E+01  0.10339152689E+01  0.00000000000E+00 0.  1.
         22   -1    0    0    0    0 -0.00000000000E+00 -0.00000000000E+00 -0.60064199882E+01  0.60064199882E+01  0.00000000000E+00 0. -1.
          4    1    1    2  501    0 -0.17812735132E+01  0.15835557125E+01 -0.35141848350E+01  0.42461840608E+01  0.00000000000E+00 0. -1.
         -4    1    1    2    0  501  0.17812735132E+01 -0.15835557125E+01 -0.14583198843E+01  0.27941511964E+01  0.00000000000E+00 0.  1.
<mgrwt>
<rscale>  0 0.23833976E+01</rscale>
<asrwt>0</asrwt>
<pdfrwt beam="1">0</pdfrwt>
<pdfrwt beam="2">0</pdfrwt>
<totfact> 0.28164342E+12</totfact>
</mgrwt>
</event>
<event>
 4    2  0.1060494E+006  0.3100849E+01  0.7546771E-02  0.2491241E+00
         22   -1    0    0    0    0  0.00000000000E+00  0.00000000000E+00  0.19143649589E+02  0.19143649589E+02  0.00000000000E+00 0.  1.
         22   -1    0    0    0    0 -0.00000000000E+00 -0.00000000000E+00 -0.36821265417E+01  0.36821265417E+01  0.00000000000E+00 0. -1.
          4    1    1    2  501    0 -0.24372415687E+01 -0.19170590973E+01 -0.28751996739E+01  0.42287155510E+01  0.00000000000E+00 0. -1.
         -4    1    1    2    0  501  0.24372415687E+01  0.19170590973E+01  0.18336722721E+02  0.18597060579E+02  0.00000000000E+00 0.  1.
<mgrwt>
<rscale>  0 0.31008486E+01</rscale>
<asrwt>0</asrwt>
<pdfrwt beam="1">0</pdfrwt>
<pdfrwt beam="2">0</pdfrwt>
<totfact> 0.15833561E+11</totfact>
</mgrwt>
</event>
<event>
 4    2  0.1060494E+006  0.2447502E+01  0.7546771E-02  0.2732137E+00
         22   -1    0    0    0    0  0.00000000000E+00  0.00000000000E+00  0.57544753382E+02  0.57544753382E+02  0.00000000000E+00 0.  1.
         22   -1    0    0    0    0 -0.00000000000E+00 -0.00000000000E+00 -0.11887191901E+00  0.11887191901E+00  0.00000000000E+00 0. -1.
          4    1    1    2  501    0 -0.24391475185E+01  0.20205565304E+00  0.18548418503E+02  0.18709198167E+02  0.00000000000E+00 0. -1.
         -4    1    1    2    0  501  0.24391475185E+01 -0.20205565304E+00  0.38877462960E+02  0.38954427133E+02  0.00000000000E+00 0.  1.
<mgrwt>
<rscale>  0 0.24475022E+01</rscale>
<asrwt>0</asrwt>
<pdfrwt beam="1">0</pdfrwt>
<pdfrwt beam="2">0</pdfrwt>
<totfact> 0.19064230E+12</totfact>
</mgrwt>
</event>
<event>
 4    2  0.1060494E+006  0.3058782E+01  0.7546771E-02  0.2503925E+00
         22   -1    0    0    0    0  0.00000000000E+00  0.00000000000E+00  0.10709158060E+01  0.10709158060E+01  0.00000000000E+00 0. -1.
         22   -1    0    0    0    0 -0.00000000000E+00 -0.00000000000E+00 -0.20793973239E+02  0.20793973239E+02  0.00000000000E+00 0.  1.
          4    1    1    2  501    0  0.30260810487E+01 -0.44607157914E+00 -0.18186354899E+02  0.18441790880E+02  0.00000000000E+00 0.  1.
         -4    1    1    2    0  501 -0.30260810487E+01  0.44607157914E+00 -0.15367025344E+01  0.34230981649E+01  0.00000000000E+00 0. -1.
<mgrwt>
<rscale>  0 0.30587818E+01</rscale>
<asrwt>0</asrwt>
<pdfrwt beam="1">0</pdfrwt>
<pdfrwt beam="2">0</pdfrwt>
<totfact> 0.59671099E+11</totfact>
</mgrwt>
</event>
<event>
 4    2  0.1060494E+006  0.6201602E+01  0.7546771E-02  0.2002066E+00
         22   -1    0    0    0    0  0.00000000000E+00  0.00000000000E+00  0.64333101507E+01  0.64333101507E+01  0.00000000000E+00 0. -1.
         22   -1    0    0    0    0 -0.00000000000E+00 -0.00000000000E+00 -0.69916160861E+01  0.69916160861E+01  0.00000000000E+00 0.  1.
          4    1    1    2  501    0  0.51501850172E+01  0.34547743689E+01 -0.28346681527E+01  0.68187400000E+01  0.00000000000E+00 0.  1.
         -4    1    1    2    0  501 -0.51501850172E+01 -0.34547743689E+01  0.22763622173E+01  0.66061862368E+01  0.00000000000E+00 0. -1.
<mgrwt>
<rscale>  0 0.62016023E+01</rscale>
<asrwt>0</asrwt>
<pdfrwt beam="1">0</pdfrwt>
<pdfrwt beam="2">0</pdfrwt>
<totfact> 0.27915679E+11</totfact>
</mgrwt>
</event>
<event>
 4    2  0.1060494E+006  0.3640508E+01  0.7546771E-02  0.2351774E+00
         22   -1    0    0    0    0  0.00000000000E+00  0.00000000000E+00  0.31185404904E+01  0.31185404904E+01  0.00000000000E+00 0.  1.
         22   -1    0    0    0    0 -0.00000000000E+00 -0.00000000000E+00 -0.51030681321E+01  0.51030681321E+01  0.00000000000E+00 0. -1.
          4    1    1    2  501    0 -0.24647396102E+01  0.26792449611E+01 -0.26731719020E+01  0.45165410355E+01  0.00000000000E+00 0. -1.
         -4    1    1    2    0  501  0.24647396102E+01 -0.26792449611E+01  0.68864426028E+00  0.37050675871E+01  0.00000000000E+00 0.  1.
<mgrwt>
<rscale>  0 0.36405075E+01</rscale>
<asrwt>0</asrwt>
<pdfrwt beam="1">0</pdfrwt>
<pdfrwt beam="2">0</pdfrwt>
<totfact> 0.95475911E+11</totfact>
</mgrwt>
</event>
<event>
 4    2  0.1060494E+006  0.2747824E+01  0.7546771E-02  0.2608425E+00
         22   -1    0    0    0    0  0.00000000000E+00  0.00000000000E+00  0.16929513585E+02  0.16929513585E+02  0.00000000000E+00 0.  1.
         22   -1    0    0    0    0 -0.00000000000E+00 -0.00000000000E+00 -0.87484480286E+00  0.87484480286E+00  0.00000000000E+00 0. -1.
          4    1    1    2  501    0 -0.99445505737E+00 -0.25615611971E+01  0.17945559358E+01  0.32819152388E+01  0.00000000000E+00 0. -1.
         -4    1    1    2    0  501  0.99445505737E+00  0.25615611971E+01  0.14260112846E+02  0.14522443149E+02  0.00000000000E+00 0.  1.
<mgrwt>
<rscale>  0 0.27478240E+01</rscale>
<asrwt>0</asrwt>
<pdfrwt beam="1">0</pdfrwt>
<pdfrwt beam="2">0</pdfrwt>
<totfact> 0.97051890E+11</totfact>
</mgrwt>
</event>
<event>
 4    2  0.1060494E+006  0.3522581E+01  0.7546771E-02  0.2379043E+00
         22   -1    0    0    0    0  0.00000000000E+00  0.00000000000E+00  0.20022117724E+01  0.20022117724E+01  0.00000000000E+00 0.  1.
         22   -1    0    0    0    0 -0.00000000000E+00 -0.00000000000E+00 -0.13877650793E+02  0.13877650793E+02  0.00000000000E+00 0. -1.
          4    1    1    2  501    0  0.21299955615E+01 -0.28056542793E+01 -0.11844427236E+02  0.12357145041E+02  0.00000000000E+00 0. -1.
         -4    1    1    2    0  501 -0.21299955615E+01  0.28056542793E+01 -0.31011785137E-01  0.35227175245E+01  0.00000000000E+00 0.  1.
<mgrwt>
<rscale>  0 0.35225810E+01</rscale>
<asrwt>0</asrwt>
<pdfrwt beam="1">0</pdfrwt>
<pdfrwt beam="2">0</pdfrwt>
<totfact> 0.47923017E+11</totfact>
</mgrwt>
</event>
<event>
 4    2  0.1060494E+006  0.7002263E+01  0.7546771E-02  0.1939969E+00
         22   -1    0    0    0    0  0.00000000000E+00  0.00000000000E+00  0.10838055972E+01  0.10838055972E+01  0.00000000000E+00 0.  1.
         22   -1    0    0    0    0 -0.00000000000E+00 -0.00000000000E+00 -0.45572828071E+02  0.45572828071E+02  0.00000000000E+00 0. -1.
          4    1    1    2  501    0 -0.57967741948E+01 -0.39279887655E+01 -0.24237233221E+02  0.25228459346E+02  0.00000000000E+00 0. -1.
         -4    1    1    2    0  501  0.57967741948E+01  0.39279887655E+01 -0.20251789253E+02  0.21428174322E+02  0.00000000000E+00 0.  1.
<mgrwt>
<rscale>  0 0.70022630E+01</rscale>
<asrwt>0</asrwt>
<pdfrwt beam="1">0</pdfrwt>
<pdfrwt beam="2">0</pdfrwt>
<totfact> 0.21603283E+11</totfact>
</mgrwt>
</event>
<event>
 4    2  0.1060494E+006  0.2265133E+01  0.7546771E-02  0.2822101E+00
         22   -1    0    0    0    0  0.00000000000E+00  0.00000000000E+00  0.93098366359E+01  0.93098366359E+01  0.00000000000E+00 0.  1.
         22   -1    0    0    0    0 -0.00000000000E+00 -0.00000000000E+00 -0.17262930949E+01  0.17262930949E+01  0.00000000000E+00 0. -1.
          4    1    1    2  501    0 -0.16078897382E+01 -0.15954680558E+01 -0.76104992307E+00  0.23895658001E+01  0.00000000000E+00 0. -1.
         -4    1    1    2    0  501  0.16078897382E+01  0.15954680558E+01  0.83445934641E+01  0.86465639308E+01  0.00000000000E+00 0.  1.
<mgrwt>
<rscale>  0 0.22651330E+01</rscale>
<asrwt>0</asrwt>
<pdfrwt beam="1">0</pdfrwt>
<pdfrwt beam="2">0</pdfrwt>
<totfact> 0.92451684E+11</totfact>
</mgrwt>
</event>
<event>
 4    2  0.1060494E+006  0.2126476E+01  0.7546771E-02  0.2900290E+00
         22   -1    0    0    0    0  0.00000000000E+00  0.00000000000E+00  0.78941116317E+00  0.78941116317E+00  0.00000000000E+00 0.  1.
         22   -1    0    0    0    0 -0.00000000000E+00 -0.00000000000E+00 -0.57687957451E+01  0.57687957451E+01  0.00000000000E+00 0. -1.
          4    1    1    2  501    0 -0.96401659618E+00  0.18954076673E+01 -0.27647975417E+01  0.34879798838E+01  0.00000000000E+00 0. -1.
         -4    1    1    2    0  501  0.96401659618E+00 -0.18954076673E+01 -0.22145870402E+01  0.30702270245E+01  0.00000000000E+00 0.  1.
<mgrwt>
<rscale>  0 0.21264755E+01</rscale>
<asrwt>0</asrwt>
<pdfrwt beam="1">0</pdfrwt>
<pdfrwt beam="2">0</pdfrwt>
<totfact> 0.40190082E+12</totfact>
</mgrwt>
</event>
<event>
 4    2  0.1060494E+006  0.2248364E+01  0.7546771E-02  0.2831066E+00
         22   -1    0    0    0    0  0.00000000000E+00  0.00000000000E+00  0.17698304022E+01  0.17698304022E+01  0.00000000000E+00 0. -1.
         22   -1    0    0    0    0 -0.00000000000E+00 -0.00000000000E+00 -0.28562857416E+01  0.28562857416E+01  0.00000000000E+00 0.  1.
          4    1    1    2  501    0 -0.15421612351E+01 -0.16361173482E+01 -0.54353684891E+00  0.23131306834E+01  0.00000000000E+00 0.  1.
         -4    1    1    2    0  501  0.15421612351E+01  0.16361173482E+01 -0.54291849054E+00  0.23129854603E+01  0.00000000000E+00 0. -1.
<mgrwt>
<rscale>  0 0.22483641E+01</rscale>
<asrwt>0</asrwt>
<pdfrwt beam="1">0</pdfrwt>
<pdfrwt beam="2">0</pdfrwt>
<totfact> 0.36467769E+12</totfact>
</mgrwt>
</event>
<event>
 4    2  0.1060494E+006  0.2092646E+01  0.7546771E-02  0.2920878E+00
         22   -1    0    0    0    0  0.00000000000E+00  0.00000000000E+00  0.31813633188E+01  0.31813633188E+01  0.00000000000E+00 0. -1.
         22   -1    0    0    0    0 -0.00000000000E+00 -0.00000000000E+00 -0.22690510955E+01  0.22690510955E+01  0.00000000000E+00 0.  1.
          4    1    1    2  501    0  0.20474987427E+01 -0.43233819150E+00 -0.12530417612E+01  0.24391148125E+01  0.00000000000E+00 0.  1.
         -4    1    1    2    0  501 -0.20474987427E+01  0.43233819150E+00  0.21653539845E+01  0.30112996017E+01  0.00000000000E+00 0. -1.
<mgrwt>
<rscale>  0 0.20926460E+01</rscale>
<asrwt>0</asrwt>
<pdfrwt beam="1">0</pdfrwt>
<pdfrwt beam="2">0</pdfrwt>
<totfact> 0.24115203E+12</totfact>
</mgrwt>
</event>
<event>
 4    2  0.1060494E+006  0.2685359E+01  0.7546771E-02  0.2632053E+00
         22   -1    0    0    0    0  0.00000000000E+00  0.00000000000E+00  0.17639312814E+01  0.17639312814E+01  0.00000000000E+00 0. -1.
         22   -1    0    0    0    0 -0.00000000000E+00 -0.00000000000E+00 -0.40891622253E+01  0.40891622253E+01  0.00000000000E+00 0.  1.
          4    1    1    2  501    0  0.24191692781E+01  0.11656639663E+01 -0.11157633833E+01  0.29079340443E+01  0.00000000000E+00 0. -1.
         -4    1    1    2    0  501 -0.24191692781E+01 -0.11656639663E+01 -0.12094675606E+01  0.29451594623E+01  0.00000000000E+00 0.  1.
<mgrwt>
<rscale>  0 0.26853589E+01</rscale>
<asrwt>0</asrwt>
<pdfrwt beam="1">0</pdfrwt>
<pdfrwt beam="2">0</pdfrwt>
<totfact> 0.24041529E+12</totfact>
</mgrwt>
</event>
<event>
 4    2  0.1060494E+006  0.2693597E+01  0.7546771E-02  0.2628880E+00
         22   -1    0    0    0    0  0.00000000000E+00  0.00000000000E+00  0.13441506318E+01  0.13441506318E+01  0.00000000000E+00 0. -1.
         22   -1    0    0    0    0 -0.00000000000E+00 -0.00000000000E+00 -0.99837679630E+01  0.99837679630E+01  0.00000000000E+00 0.  1.
          4    1    1    2  501    0 -0.20339769585E+01  0.17658992481E+01 -0.81585440526E+01  0.85916996852E+01  0.00000000000E+00 0.  1.
         -4    1    1    2    0  501  0.20339769585E+01 -0.17658992481E+01 -0.48107327862E+00  0.27362189097E+01  0.00000000000E+00 0. -1.
<mgrwt>
<rscale>  0 0.26935966E+01</rscale>
<asrwt>0</asrwt>
<pdfrwt beam="1">0</pdfrwt>
<pdfrwt beam="2">0</pdfrwt>
<totfact> 0.11331909E+12</totfact>
</mgrwt>
</event>
<event>
 4    2  0.1060494E+006  0.3181203E+01  0.7546771E-02  0.2467844E+00
         22   -1    0    0    0    0  0.00000000000E+00  0.00000000000E+00  0.10248826577E+02  0.10248826577E+02  0.00000000000E+00 0. -1.
         22   -1    0    0    0    0 -0.00000000000E+00 -0.00000000000E+00 -0.21221291215E+01  0.21221291215E+01  0.00000000000E+00 0.  1.
          4    1    1    2  501    0  0.27417218289E+00  0.31693659761E+01 -0.45965282789E+00  0.32142389144E+01  0.00000000000E+00 0.  1.
         -4    1    1    2    0  501 -0.27417218289E+00 -0.31693659761E+01  0.85863502831E+01  0.91567167839E+01  0.00000000000E+00 0. -1.
<mgrwt>
<rscale>  0 0.31812028E+01</rscale>
<asrwt>0</asrwt>
<pdfrwt beam="1">0</pdfrwt>
<pdfrwt beam="2">0</pdfrwt>
<totfact> 0.64829139E+11</totfact>
</mgrwt>
</event>
<event>
 4    2  0.1060494E+006  0.2227661E+01  0.7546771E-02  0.2842311E+00
         22   -1    0    0    0    0  0.00000000000E+00  0.00000000000E+00  0.17870059302E+01  0.17870059302E+01  0.00000000000E+00 0. -1.
         22   -1    0    0    0    0 -0.00000000000E+00 -0.00000000000E+00 -0.27786330936E+01  0.27786330936E+01  0.00000000000E+00 0.  1.
          4    1    1    2  501    0  0.21977486893E+01 -0.36383501914E+00 -0.44009043340E+00  0.22707168058E+01  0.00000000000E+00 0.  1.
         -4    1    1    2    0  501 -0.21977486893E+01  0.36383501914E+00 -0.55153672999E+00  0.22949222181E+01  0.00000000000E+00 0. -1.
<mgrwt>
<rscale>  0 0.22276614E+01</rscale>
<asrwt>0</asrwt>
<pdfrwt beam="1">0</pdfrwt>
<pdfrwt beam="2">0</pdfrwt>
<totfact> 0.37241538E+12</totfact>
</mgrwt>
</event>
<event>
 4    2  0.1060494E+006  0.3752184E+01  0.7546771E-02  0.2327325E+00
         22   -1    0    0    0    0  0.00000000000E+00  0.00000000000E+00  0.45904908441E+01  0.45904908441E+01  0.00000000000E+00 0. -1.
         22   -1    0    0    0    0 -0.00000000000E+00 -0.00000000000E+00 -0.30703281704E+01  0.30703281704E+01  0.00000000000E+00 0.  1.
          4    1    1    2  501    0 -0.31932384754E+01 -0.19703083778E+01  0.63335876109E+00  0.38052635106E+01  0.00000000000E+00 0.  1.
         -4    1    1    2    0  501  0.31932384754E+01  0.19703083778E+01  0.88680391265E+00  0.38555555039E+01  0.00000000000E+00 0. -1.
<mgrwt>
<rscale>  0 0.37521843E+01</rscale>
<asrwt>0</asrwt>
<pdfrwt beam="1">0</pdfrwt>
<pdfrwt beam="2">0</pdfrwt>
<totfact> 0.11020102E+12</totfact>
</mgrwt>
</event>
<event>
 4    2  0.1060494E+006  0.3583125E+01  0.7546771E-02  0.2364848E+00
         22   -1    0    0    0    0  0.00000000000E+00  0.00000000000E+00  0.38563620642E+00  0.38563620642E+00  0.00000000000E+00 0.  1.
         22   -1    0    0    0    0 -0.00000000000E+00 -0.00000000000E+00 -0.35714923636E+02  0.35714923636E+02  0.00000000000E+00 0. -1.
          4    1    1    2  501    0  0.11503815647E+01 -0.33934359144E+01 -0.12963689000E+02  0.13449759014E+02  0.00000000000E+00 0.  1.
         -4    1    1    2    0  501 -0.11503815647E+01  0.33934359144E+01 -0.22365598430E+02  0.22650800828E+02  0.00000000000E+00 0. -1.
<mgrwt>
<rscale>  0 0.35831250E+01</rscale>
<asrwt>0</asrwt>
<pdfrwt beam="1">0</pdfrwt>
<pdfrwt beam="2">0</pdfrwt>
<totfact> 0.95687746E+11</totfact>
</mgrwt>
</event>
<event>
 4    2  0.1060494E+006  0.3137361E+01  0.7546771E-02  0.2480477E+00
         22   -1    0    0    0    0  0.00000000000E+00  0.00000000000E+00  0.56019066488E+01  0.56019066488E+01  0.00000000000E+00 0.  1.
         22   -1    0    0    0    0 -0.00000000000E+00 -0.00000000000E+00 -0.27758121388E+01  0.27758121388E+01  0.00000000000E+00 0. -1.
          4    1    1    2  501    0 -0.24734760680E+01 -0.19300130558E+01 -0.11245890372E+01  0.33328268418E+01  0.00000000000E+00 0. -1.
         -4    1    1    2    0  501  0.24734760680E+01  0.19300130558E+01  0.39506835472E+01  0.50448919458E+01  0.00000000000E+00 0.  1.
<mgrwt>
<rscale>  0 0.31373610E+01</rscale>
<asrwt>0</asrwt>
<pdfrwt beam="1">0</pdfrwt>
<pdfrwt beam="2">0</pdfrwt>
<totfact> 0.97921762E+11</totfact>
</mgrwt>
</event>
<event>
 4    2  0.1060494E+006  0.2082386E+01  0.7546771E-02  0.2927251E+00
         22   -1    0    0    0    0  0.00000000000E+00  0.00000000000E+00  0.20335904603E+01  0.20335904603E+01  0.00000000000E+00 0.  1.
         22   -1    0    0    0    0 -0.00000000000E+00 -0.00000000000E+00 -0.28510860076E+01  0.28510860076E+01  0.00000000000E+00 0. -1.
          4    1    1    2  501    0 -0.14776136264E+01 -0.14673067619E+01 -0.16350137404E+01  0.26475651255E+01  0.00000000000E+00 0. -1.
         -4    1    1    2    0  501  0.14776136264E+01  0.14673067619E+01  0.81751819305E+00  0.22371113425E+01  0.00000000000E+00 0.  1.
<mgrwt>
<rscale>  0 0.20823859E+01</rscale>
<asrwt>0</asrwt>
<pdfrwt beam="1">0</pdfrwt>
<pdfrwt beam="2">0</pdfrwt>
<totfact> 0.31121671E+12</totfact>
</mgrwt>
</event>
<event>
 4    2  0.1060494E+006  0.2734064E+01  0.7546771E-02  0.2613545E+00
         22   -1    0    0    0    0  0.00000000000E+00  0.00000000000E+00  0.47830215468E+02  0.47830215468E+02  0.00000000000E+00 0.  1.
         22   -1    0    0    0    0 -0.00000000000E+00 -0.00000000000E+00 -0.30632283929E+00  0.30632283929E+00  0.00000000000E+00 0. -1.
          4    1    1    2  501    0 -0.26936291895E+01 -0.46847348210E+00  0.69174988668E+01  0.74382051724E+01  0.00000000000E+00 0. -1.
         -4    1    1    2    0  501  0.26936291895E+01  0.46847348210E+00  0.40606393762E+02  0.40698333135E+02  0.00000000000E+00 0.  1.
<mgrwt>
<rscale>  0 0.27340639E+01</rscale>
<asrwt>0</asrwt>
<pdfrwt beam="1">0</pdfrwt>
<pdfrwt beam="2">0</pdfrwt>
<totfact> 0.84751694E+11</totfact>
</mgrwt>
</event>
<event>
 4    2  0.1060494E+006  0.2069435E+01  0.7546771E-02  0.2935382E+00
         22   -1    0    0    0    0  0.00000000000E+00  0.00000000000E+00  0.42369923152E+01  0.42369923152E+01  0.00000000000E+00 0.  1.
         22   -1    0    0    0    0 -0.00000000000E+00 -0.00000000000E+00 -0.17150258566E+01  0.17150258566E+01  0.00000000000E+00 0. -1.
          4    1    1    2  501    0  0.28468308096E+00  0.20497604434E+01 -0.64609580035E+00  0.21679488267E+01  0.00000000000E+00 0. -1.
         -4    1    1    2    0  501 -0.28468308096E+00 -0.20497604434E+01  0.31680622589E+01  0.37840693451E+01  0.00000000000E+00 0.  1.
<mgrwt>
<rscale>  0 0.20694353E+01</rscale>
<asrwt>0</asrwt>
<pdfrwt beam="1">0</pdfrwt>
<pdfrwt beam="2">0</pdfrwt>
<totfact> 0.23814953E+12</totfact>
</mgrwt>
</event>
<event>
 4    2  0.1060494E+006  0.2006436E+01  0.7546771E-02  0.2976396E+00
         22   -1    0    0    0    0  0.00000000000E+00  0.00000000000E+00  0.12156446064E+00  0.12156446064E+00  0.00000000000E+00 0. -1.
         22   -1    0    0    0    0 -0.00000000000E+00 -0.00000000000E+00 -0.50910529366E+02  0.50910529366E+02  0.00000000000E+00 0.  1.
          4    1    1    2  501    0 -0.10493694417E+01  0.17101492438E+01 -0.40479541625E+02  0.40529237309E+02  0.00000000000E+00 0.  1.
         -4    1    1    2    0  501  0.10493694417E+01 -0.17101492438E+01 -0.10309423280E+02  0.10502856518E+02  0.00000000000E+00 0. -1.
<mgrwt>
<rscale>  0 0.20064363E+01</rscale>
<asrwt>0</asrwt>
<pdfrwt beam="1">0</pdfrwt>
<pdfrwt beam="2">0</pdfrwt>
<totfact> 0.21876635E+12</totfact>
</mgrwt>
</event>
<event>
 4    2  0.1060494E+006  0.2937952E+01  0.7546771E-02  0.2542159E+00
         22   -1    0    0    0    0  0.00000000000E+00  0.00000000000E+00  0.12558518801E+01  0.12558518801E+01  0.00000000000E+00 0.  1.
         22   -1    0    0    0    0 -0.00000000000E+00 -0.00000000000E+00 -0.10252513199E+02  0.10252513199E+02  0.00000000000E+00 0. -1.
          4    1    1    2  501    0 -0.29063004330E+01 -0.43009149620E+00 -0.78019567510E+01  0.83367913520E+01  0.00000000000E+00 0. -1.
         -4    1    1    2    0  501  0.29063004330E+01  0.43009149620E+00 -0.11947045679E+01  0.31715737271E+01  0.00000000000E+00 0.  1.
<mgrwt>
<rscale>  0 0.29379518E+01</rscale>
<asrwt>0</asrwt>
<pdfrwt beam="1">0</pdfrwt>
<pdfrwt beam="2">0</pdfrwt>
<totfact> 0.11862941E+12</totfact>
</mgrwt>
</event>
<event>
 4    2  0.1060494E+006  0.2734141E+01  0.7546771E-02  0.2613516E+00
         22   -1    0    0    0    0  0.00000000000E+00  0.00000000000E+00  0.32327673106E+02  0.32327673106E+02  0.00000000000E+00 0.  1.
         22   -1    0    0    0    0 -0.00000000000E+00 -0.00000000000E+00 -0.38068358531E+00  0.38068358531E+00  0.00000000000E+00 0. -1.
          4    1    1    2  501    0  0.16590733714E+01 -0.21732471066E+01  0.57268456753E+01  0.63460451327E+01  0.00000000000E+00 0. -1.
         -4    1    1    2    0  501 -0.16590733714E+01  0.21732471066E+01  0.26220143846E+02  0.26362311559E+02  0.00000000000E+00 0.  1.
<mgrwt>
<rscale>  0 0.27341411E+01</rscale>
<asrwt>0</asrwt>
<pdfrwt beam="1">0</pdfrwt>
<pdfrwt beam="2">0</pdfrwt>
<totfact> 0.11034037E+12</totfact>
</mgrwt>
</event>
<event>
 4    2  0.1060494E+006  0.2012117E+01  0.7546771E-02  0.2972595E+00
         22   -1    0    0    0    0  0.00000000000E+00  0.00000000000E+00  0.33040742369E+02  0.33040742369E+02  0.00000000000E+00 0. -1.
         22   -1    0    0    0    0 -0.00000000000E+00 -0.00000000000E+00 -0.12351890636E+00  0.12351890636E+00  0.00000000000E+00 0.  1.
          4    1    1    2  501    0  0.17449131706E+01  0.10019450953E+01  0.14977934955E+02  0.15112483299E+02  0.00000000000E+00 0.  1.
         -4    1    1    2    0  501 -0.17449131706E+01 -0.10019450953E+01  0.17939288508E+02  0.18051777977E+02  0.00000000000E+00 0. -1.
<mgrwt>
<rscale>  0 0.20121173E+01</rscale>
<asrwt>0</asrwt>
<pdfrwt beam="1">0</pdfrwt>
<pdfrwt beam="2">0</pdfrwt>
<totfact> 0.37711710E+12</totfact>
</mgrwt>
</event>
<event>
 4    2  0.1060494E+006  0.2047892E+01  0.7546771E-02  0.2949130E+00
         22   -1    0    0    0    0  0.00000000000E+00  0.00000000000E+00  0.52406394350E+01  0.52406394350E+01  0.00000000000E+00 0. -1.
         22   -1    0    0    0    0 -0.00000000000E+00 -0.00000000000E+00 -0.13382225592E+01  0.13382225592E+01  0.00000000000E+00 0.  1.
          4    1    1    2  501    0 -0.80794133084E+00  0.18817794741E+01 -0.13440335851E+00  0.20522980890E+01  0.00000000000E+00 0.  1.
         -4    1    1    2    0  501  0.80794133084E+00 -0.18817794741E+01  0.40368202343E+01  0.45265639052E+01  0.00000000000E+00 0. -1.
<mgrwt>
<rscale>  0 0.20478924E+01</rscale>
<asrwt>0</asrwt>
<pdfrwt beam="1">0</pdfrwt>
<pdfrwt beam="2">0</pdfrwt>
<totfact> 0.24643967E+12</totfact>
</mgrwt>
</event>
<event>
 4    2  0.1060494E+006  0.2251305E+01  0.7546771E-02  0.2829484E+00
         22   -1    0    0    0    0  0.00000000000E+00  0.00000000000E+00  0.32005043627E+01  0.32005043627E+01  0.00000000000E+00 0. -1.
         22   -1    0    0    0    0 -0.00000000000E+00 -0.00000000000E+00 -0.16730952152E+01  0.16730952152E+01  0.00000000000E+00 0.  1.
          4    1    1    2  501    0 -0.20112172283E+00  0.22423033975E+01  0.20017443532E+00  0.22601867795E+01  0.00000000000E+00 0.  1.
         -4    1    1    2    0  501  0.20112172283E+00 -0.22423033975E+01  0.13272347122E+01  0.26134127984E+01  0.00000000000E+00 0. -1.
<mgrwt>
<rscale>  0 0.22513051E+01</rscale>
<asrwt>0</asrwt>
<pdfrwt beam="1">0</pdfrwt>
<pdfrwt beam="2">0</pdfrwt>
<totfact> 0.34067134E+12</totfact>
</mgrwt>
</event>
<event>
 4    2  0.1060494E+006  0.2104085E+01  0.7546771E-02  0.2913845E+00
         22   -1    0    0    0    0  0.00000000000E+00  0.00000000000E+00  0.82700026569E+00  0.82700026569E+00  0.00000000000E+00 0.  1.
         22   -1    0    0    0    0 -0.00000000000E+00 -0.00000000000E+00 -0.54146982117E+01  0.54146982117E+01  0.00000000000E+00 0. -1.
          4    1    1    2  501    0 -0.71833810714E+00 -0.19776661540E+01 -0.19614991417E+01  0.28765694735E+01  0.00000000000E+00 0.  1.
         -4    1    1    2    0  501  0.71833810714E+00  0.19776661540E+01 -0.26261988043E+01  0.33651290039E+01  0.00000000000E+00 0. -1.
<mgrwt>
<rscale>  0 0.21040848E+01</rscale>
<asrwt>0</asrwt>
<pdfrwt beam="1">0</pdfrwt>
<pdfrwt beam="2">0</pdfrwt>
<totfact> 0.41096922E+12</totfact>
</mgrwt>
</event>
<event>
 4    2  0.1060494E+006  0.2208356E+01  0.7546771E-02  0.2852980E+00
         22   -1    0    0    0    0  0.00000000000E+00  0.00000000000E+00  0.34810477088E+01  0.34810477088E+01  0.00000000000E+00 0. -1.
         22   -1    0    0    0    0 -0.00000000000E+00 -0.00000000000E+00 -0.22962178819E+01  0.22962178819E+01  0.00000000000E+00 0.  1.
          4    1    1    2  501    0 -0.71102781098E+00  0.20907590693E+01 -0.12112592925E+01  0.25187264852E+01  0.00000000000E+00 0.  1.
         -4    1    1    2    0  501  0.71102781098E+00 -0.20907590693E+01  0.23960891194E+01  0.32585391055E+01  0.00000000000E+00 0. -1.
<mgrwt>
<rscale>  0 0.22083555E+01</rscale>
<asrwt>0</asrwt>
<pdfrwt beam="1">0</pdfrwt>
<pdfrwt beam="2">0</pdfrwt>
<totfact> 0.21404914E+12</totfact>
</mgrwt>
</event>
<event>
 4    2  0.1060494E+006  0.3322214E+01  0.7546771E-02  0.2429220E+00
         22   -1    0    0    0    0  0.00000000000E+00  0.00000000000E+00  0.12442326155E+01  0.12442326155E+01  0.00000000000E+00 0. -1.
         22   -1    0    0    0    0 -0.00000000000E+00 -0.00000000000E+00 -0.25109930864E+02  0.25109930864E+02  0.00000000000E+00 0.  1.
          4    1    1    2  501    0  0.31934866936E+01  0.91583327170E+00 -0.22529786142E+02  0.22773413698E+02  0.00000000000E+00 0.  1.
         -4    1    1    2    0  501 -0.31934866936E+01 -0.91583327170E+00 -0.13359121066E+01  0.35807497819E+01  0.00000000000E+00 0. -1.
<mgrwt>
<rscale>  0 0.33222143E+01</rscale>
<asrwt>0</asrwt>
<pdfrwt beam="1">0</pdfrwt>
<pdfrwt beam="2">0</pdfrwt>
<totfact> 0.39659747E+11</totfact>
</mgrwt>
</event>
<event>
 4    2  0.1060494E+006  0.2244351E+01  0.7546771E-02  0.2833230E+00
         22   -1    0    0    0    0  0.00000000000E+00  0.00000000000E+00  0.45148321672E+01  0.45148321672E+01  0.00000000000E+00 0.  1.
         22   -1    0    0    0    0 -0.00000000000E+00 -0.00000000000E+00 -0.37460341899E+01  0.37460341899E+01  0.00000000000E+00 0. -1.
          4    1    1    2  501    0  0.50404230940E+00  0.21870194698E+01 -0.30767218288E+01  0.38083237813E+01  0.00000000000E+00 0. -1.
         -4    1    1    2    0  501 -0.50404230940E+00 -0.21870194698E+01  0.38455198061E+01  0.44525425759E+01  0.00000000000E+00 0.  1.
<mgrwt>
<rscale>  0 0.22443513E+01</rscale>
<asrwt>0</asrwt>
<pdfrwt beam="1">0</pdfrwt>
<pdfrwt beam="2">0</pdfrwt>
<totfact> 0.89013999E+11</totfact>
</mgrwt>
</event>
<event>
 4    2  0.1060494E+006  0.2400631E+01  0.7546771E-02  0.2754029E+00
         22   -1    0    0    0    0  0.00000000000E+00  0.00000000000E+00  0.26472508546E+02  0.26472508546E+02  0.00000000000E+00 0. -1.
         22   -1    0    0    0    0 -0.00000000000E+00 -0.00000000000E+00 -0.33100825344E+00  0.33100825344E+00  0.00000000000E+00 0.  1.
          4    1    1    2  501    0  0.13446411008E+00  0.23968618335E+01  0.52296701102E+01  0.57543441596E+01  0.00000000000E+00 0.  1.
         -4    1    1    2    0  501 -0.13446411008E+00 -0.23968618335E+01  0.20911830183E+02  0.21049172640E+02  0.00000000000E+00 0. -1.
<mgrwt>
<rscale>  0 0.24006306E+01</rscale>
<asrwt>0</asrwt>
<pdfrwt beam="1">0</pdfrwt>
<pdfrwt beam="2">0</pdfrwt>
<totfact> 0.16649417E+12</totfact>
</mgrwt>
</event>
<event>
 4    2  0.1060494E+006  0.6370670E+01  0.7546771E-02  0.1987958E+00
         22   -1    0    0    0    0  0.00000000000E+00  0.00000000000E+00  0.31021045898E+02  0.31021045898E+02  0.00000000000E+00 0. -1.
         22   -1    0    0    0    0 -0.00000000000E+00 -0.00000000000E+00 -0.22417926844E+01  0.22417926844E+01  0.00000000000E+00 0.  1.
          4    1    1    2  501    0  0.17899430296E+01 -0.61140444484E+01  0.36575802533E+01  0.73459736507E+01  0.00000000000E+00 0.  1.
         -4    1    1    2    0  501 -0.17899430296E+01  0.61140444484E+01  0.25121672960E+02  0.25916864931E+02  0.00000000000E+00 0. -1.
<mgrwt>
<rscale>  0 0.63706699E+01</rscale>
<asrwt>0</asrwt>
<pdfrwt beam="1">0</pdfrwt>
<pdfrwt beam="2">0</pdfrwt>
<totfact> 0.15380173E+11</totfact>
</mgrwt>
</event>
<event>
 4    2  0.1060494E+006  0.2352315E+01  0.7546771E-02  0.2777451E+00
         22   -1    0    0    0    0  0.00000000000E+00  0.00000000000E+00  0.39724813712E+01  0.39724813712E+01  0.00000000000E+00 0. -1.
         22   -1    0    0    0    0 -0.00000000000E+00 -0.00000000000E+00 -0.19617823482E+01  0.19617823482E+01  0.00000000000E+00 0.  1.
          4    1    1    2  501    0  0.21007213807E+01 -0.10584679909E+01 -0.59241056732E+00  0.24257648458E+01  0.00000000000E+00 0.  1.
         -4    1    1    2    0  501 -0.21007213807E+01  0.10584679909E+01  0.26031095904E+01  0.35084988736E+01  0.00000000000E+00 0. -1.
<mgrwt>
<rscale>  0 0.23523148E+01</rscale>
<asrwt>0</asrwt>
<pdfrwt beam="1">0</pdfrwt>
<pdfrwt beam="2">0</pdfrwt>
<totfact> 0.21998431E+12</totfact>
</mgrwt>
</event>
<event>
 4    2  0.1060494E+006  0.3272615E+01  0.7546771E-02  0.2442471E+00
         22   -1    0    0    0    0  0.00000000000E+00  0.00000000000E+00  0.26562642982E+01  0.26562642982E+01  0.00000000000E+00 0. -1.
         22   -1    0    0    0    0 -0.00000000000E+00 -0.00000000000E+00 -0.16595853879E+02  0.16595853879E+02  0.00000000000E+00 0.  1.
          4    1    1    2  501    0 -0.32725036904E+01  0.26935959160E-01 -0.15345290044E+02  0.15690377067E+02  0.00000000000E+00 0.  1.
         -4    1    1    2    0  501  0.32725036904E+01 -0.26935959160E-01  0.14057004631E+01  0.35617411110E+01  0.00000000000E+00 0. -1.
<mgrwt>
<rscale>  0 0.32726145E+01</rscale>
<asrwt>0</asrwt>
<pdfrwt beam="1">0</pdfrwt>
<pdfrwt beam="2">0</pdfrwt>
<totfact> 0.27692191E+11</totfact>
</mgrwt>
</event>
<event>
 4    2  0.1060494E+006  0.2588307E+01  0.7546771E-02  0.2670834E+00
         22   -1    0    0    0    0  0.00000000000E+00  0.00000000000E+00  0.12619411175E+02  0.12619411175E+02  0.00000000000E+00 0. -1.
         22   -1    0    0    0    0 -0.00000000000E+00 -0.00000000000E+00 -0.62993408198E+00  0.62993408198E+00  0.00000000000E+00 0.  1.
          4    1    1    2  501    0 -0.23620172532E+01 -0.10583980771E+01  0.86217602183E+01  0.90018932040E+01  0.00000000000E+00 0. -1.
         -4    1    1    2    0  501  0.23620172532E+01  0.10583980771E+01  0.33677168746E+01  0.42474520529E+01  0.00000000000E+00 0.  1.
<mgrwt>
<rscale>  0 0.25883068E+01</rscale>
<asrwt>0</asrwt>
<pdfrwt beam="1">0</pdfrwt>
<pdfrwt beam="2">0</pdfrwt>
<totfact> 0.20227161E+12</totfact>
</mgrwt>
</event>
<event>
 4    2  0.1060494E+006  0.2520407E+01  0.7546771E-02  0.2699601E+00
         22   -1    0    0    0    0  0.00000000000E+00  0.00000000000E+00  0.42365507728E+01  0.42365507728E+01  0.00000000000E+00 0.  1.
         22   -1    0    0    0    0 -0.00000000000E+00 -0.00000000000E+00 -0.18867976836E+01  0.18867976836E+01  0.00000000000E+00 0. -1.
          4    1    1    2  501    0 -0.23478784874E+01  0.91647172676E+00 -0.21236594428E+00  0.25293384732E+01  0.00000000000E+00 0.  1.
         -4    1    1    2    0  501  0.23478784874E+01 -0.91647172676E+00  0.25621190335E+01  0.35940099832E+01  0.00000000000E+00 0. -1.
<mgrwt>
<rscale>  0 0.25204075E+01</rscale>
<asrwt>0</asrwt>
<pdfrwt beam="1">0</pdfrwt>
<pdfrwt beam="2">0</pdfrwt>
<totfact> 0.21333403E+12</totfact>
</mgrwt>
</event>
<event>
 4    2  0.1060494E+006  0.2240573E+01  0.7546771E-02  0.2835275E+00
         22   -1    0    0    0    0  0.00000000000E+00  0.00000000000E+00  0.43989795537E-01  0.43989795537E-01  0.00000000000E+00 0. -1.
         22   -1    0    0    0    0 -0.00000000000E+00 -0.00000000000E+00 -0.12406615055E+03  0.12406615055E+03  0.00000000000E+00 0.  1.
          4    1    1    2  501    0  0.17171558113E+01 -0.14392858894E+01 -0.79580284221E+02  0.79611819503E+02  0.00000000000E+00 0.  1.
         -4    1    1    2    0  501 -0.17171558113E+01  0.14392858894E+01 -0.44441876536E+02  0.44498320845E+02  0.00000000000E+00 0. -1.
<mgrwt>
<rscale>  0 0.22405731E+01</rscale>
<asrwt>0</asrwt>
<pdfrwt beam="1">0</pdfrwt>
<pdfrwt beam="2">0</pdfrwt>
<totfact> 0.19707051E+12</totfact>
</mgrwt>
</event>
<event>
 4    2  0.1060494E+006  0.2293940E+01  0.7546771E-02  0.2806992E+00
         22   -1    0    0    0    0  0.00000000000E+00  0.00000000000E+00  0.53454157981E+01  0.53454157981E+01  0.00000000000E+00 0. -1.
         22   -1    0    0    0    0 -0.00000000000E+00 -0.00000000000E+00 -0.99681681464E+00  0.99681681464E+00  0.00000000000E+00 0.  1.
          4    1    1    2  501    0 -0.19327083290E+01 -0.12356367795E+01  0.18207290772E+01  0.29286881207E+01  0.00000000000E+00 0. -1.
         -4    1    1    2    0  501  0.19327083290E+01  0.12356367795E+01  0.25278699063E+01  0.34135444920E+01  0.00000000000E+00 0.  1.
<mgrwt>
<rscale>  0 0.22939398E+01</rscale>
<asrwt>0</asrwt>
<pdfrwt beam="1">0</pdfrwt>
<pdfrwt beam="2">0</pdfrwt>
<totfact> 0.33728177E+12</totfact>
</mgrwt>
</event>
<event>
 4    2  0.1060494E+006  0.3189706E+01  0.7546771E-02  0.2465430E+00
         22   -1    0    0    0    0  0.00000000000E+00  0.00000000000E+00  0.38794033667E+02  0.38794033667E+02  0.00000000000E+00 0.  1.
         22   -1    0    0    0    0 -0.00000000000E+00 -0.00000000000E+00 -0.37078913278E+01  0.37078913278E+01  0.00000000000E+00 0. -1.
          4    1    1    2  501    0  0.25934672959E+01  0.18569191084E+01 -0.29425600770E+01  0.43396867395E+01  0.00000000000E+00 0. -1.
         -4    1    1    2    0  501 -0.25934672959E+01 -0.18569191084E+01  0.38028702416E+02  0.38162238255E+02  0.00000000000E+00 0.  1.
<mgrwt>
<rscale>  0 0.31897055E+01</rscale>
<asrwt>0</asrwt>
<pdfrwt beam="1">0</pdfrwt>
<pdfrwt beam="2">0</pdfrwt>
<totfact> 0.64124986E+10</totfact>
</mgrwt>
</event>
<event>
 4    2  0.1060494E+006  0.3195338E+01  0.7546771E-02  0.2463837E+00
         22   -1    0    0    0    0  0.00000000000E+00  0.00000000000E+00  0.25546699995E+00  0.25546699995E+00  0.00000000000E+00 0. -1.
         22   -1    0    0    0    0 -0.00000000000E+00 -0.00000000000E+00 -0.55693621215E+02  0.55693621215E+02  0.00000000000E+00 0.  1.
          4    1    1    2  501    0 -0.31308524354E+01  0.63870600010E+00 -0.42584649559E+02  0.42704362311E+02  0.00000000000E+00 0.  1.
         -4    1    1    2    0  501  0.31308524354E+01 -0.63870600010E+00 -0.12853504655E+02  0.13244725903E+02  0.00000000000E+00 0. -1.
<mgrwt>
<rscale>  0 0.31953376E+01</rscale>
<asrwt>0</asrwt>
<pdfrwt beam="1">0</pdfrwt>
<pdfrwt beam="2">0</pdfrwt>
<totfact> 0.84932910E+11</totfact>
</mgrwt>
</event>
<event>
 4    2  0.1060494E+006  0.2073909E+01  0.7546771E-02  0.2932562E+00
         22   -1    0    0    0    0  0.00000000000E+00  0.00000000000E+00  0.13872329110E+01  0.13872329110E+01  0.00000000000E+00 0.  1.
         22   -1    0    0    0    0 -0.00000000000E+00 -0.00000000000E+00 -0.20326671438E+02  0.20326671438E+02  0.00000000000E+00 0. -1.
          4    1    1    2  501    0  0.14790832535E+01  0.14537570309E+01 -0.19464409648E+02  0.19574584024E+02  0.00000000000E+00 0. -1.
         -4    1    1    2    0  501 -0.14790832535E+01 -0.14537570309E+01  0.52497112075E+00  0.21393203250E+01  0.00000000000E+00 0.  1.
<mgrwt>
<rscale>  0 0.20739086E+01</rscale>
<asrwt>0</asrwt>
<pdfrwt beam="1">0</pdfrwt>
<pdfrwt beam="2">0</pdfrwt>
<totfact> 0.45627831E+11</totfact>
</mgrwt>
</event>
<event>
 4    2  0.1060494E+006  0.2162120E+01  0.7546771E-02  0.2879270E+00
         22   -1    0    0    0    0  0.00000000000E+00  0.00000000000E+00  0.16898703321E+02  0.16898703321E+02  0.00000000000E+00 0. -1.
         22   -1    0    0    0    0 -0.00000000000E+00 -0.00000000000E+00 -0.32662896746E+00  0.32662896746E+00  0.00000000000E+00 0.  1.
          4    1    1    2  501    0  0.68243163405E+00 -0.20515973773E+01  0.49164931368E+01  0.53709095596E+01  0.00000000000E+00 0.  1.
         -4    1    1    2    0  501 -0.68243163405E+00  0.20515973773E+01  0.11655581216E+02  0.11854422729E+02  0.00000000000E+00 0. -1.
<mgrwt>
<rscale>  0 0.21621204E+01</rscale>
<asrwt>0</asrwt>
<pdfrwt beam="1">0</pdfrwt>
<pdfrwt beam="2">0</pdfrwt>
<totfact> 0.29627034E+12</totfact>
</mgrwt>
</event>
<event>
 4    2  0.1060494E+006  0.2751921E+01  0.7546771E-02  0.2606910E+00
         22   -1    0    0    0    0  0.00000000000E+00  0.00000000000E+00  0.41138700042E+02  0.41138700042E+02  0.00000000000E+00 0. -1.
         22   -1    0    0    0    0 -0.00000000000E+00 -0.00000000000E+00 -0.18927876922E+00  0.18927876922E+00  0.00000000000E+00 0.  1.
          4    1    1    2  501    0  0.86620565940E+00  0.26120404912E+01  0.17052131139E+02  0.17272760178E+02  0.00000000000E+00 0. -1.
         -4    1    1    2    0  501 -0.86620565940E+00 -0.26120404912E+01  0.23897290134E+02  0.24055218634E+02  0.00000000000E+00 0.  1.
<mgrwt>
<rscale>  0 0.27519207E+01</rscale>
<asrwt>0</asrwt>
<pdfrwt beam="1">0</pdfrwt>
<pdfrwt beam="2">0</pdfrwt>
<totfact> 0.17680219E+12</totfact>
</mgrwt>
</event>
<event>
 4    2  0.1060494E+006  0.3572205E+01  0.7546771E-02  0.2367377E+00
         22   -1    0    0    0    0  0.00000000000E+00  0.00000000000E+00  0.25482870762E+01  0.25482870762E+01  0.00000000000E+00 0. -1.
         22   -1    0    0    0    0 -0.00000000000E+00 -0.00000000000E+00 -0.75735504021E+01  0.75735504021E+01  0.00000000000E+00 0.  1.
          4    1    1    2  501    0 -0.12252254240E+01 -0.33555138354E+01 -0.54584691066E+01  0.65234603875E+01  0.00000000000E+00 0.  1.
         -4    1    1    2    0  501  0.12252254240E+01  0.33555138354E+01  0.43320578081E+00  0.35983770908E+01  0.00000000000E+00 0. -1.
<mgrwt>
<rscale>  0 0.35722053E+01</rscale>
<asrwt>0</asrwt>
<pdfrwt beam="1">0</pdfrwt>
<pdfrwt beam="2">0</pdfrwt>
<totfact> 0.75482273E+11</totfact>
</mgrwt>
</event>
<event>
 4    2  0.1060494E+006  0.2002306E+01  0.7546771E-02  0.2979174E+00
         22   -1    0    0    0    0  0.00000000000E+00  0.00000000000E+00  0.16305570012E+02  0.16305570012E+02  0.00000000000E+00 0.  1.
         22   -1    0    0    0    0 -0.00000000000E+00 -0.00000000000E+00 -0.17160393836E+01  0.17160393836E+01  0.00000000000E+00 0. -1.
          4    1    1    2  501    0 -0.16796804442E+01 -0.10899087617E+01 -0.10455416510E+01  0.22588459105E+01  0.00000000000E+00 0. -1.
         -4    1    1    2    0  501  0.16796804442E+01  0.10899087617E+01  0.15635072279E+02  0.15762763485E+02  0.00000000000E+00 0.  1.
<mgrwt>
<rscale>  0 0.20023055E+01</rscale>
<asrwt>0</asrwt>
<pdfrwt beam="1">0</pdfrwt>
<pdfrwt beam="2">0</pdfrwt>
<totfact> 0.46957817E+11</totfact>
</mgrwt>
</event>
<event>
 4    2  0.1060494E+006  0.3618806E+01  0.7546771E-02  0.2356676E+00
         22   -1    0    0    0    0  0.00000000000E+00  0.00000000000E+00  0.12149977937E+01  0.12149977937E+01  0.00000000000E+00 0. -1.
         22   -1    0    0    0    0 -0.00000000000E+00 -0.00000000000E+00 -0.10925322705E+02  0.10925322705E+02  0.00000000000E+00 0.  1.
          4    1    1    2  501    0 -0.36188051386E+01 -0.17826342956E-02 -0.55590466520E+01  0.66331556207E+01  0.00000000000E+00 0. -1.
         -4    1    1    2    0  501  0.36188051386E+01  0.17826342956E-02 -0.41512782596E+01  0.55071648784E+01  0.00000000000E+00 0.  1.
<mgrwt>
<rscale>  0 0.36188056E+01</rscale>
<asrwt>0</asrwt>
<pdfrwt beam="1">0</pdfrwt>
<pdfrwt beam="2">0</pdfrwt>
<totfact> 0.11406820E+12</totfact>
</mgrwt>
</event>
<event>
 4    2  0.1060494E+006  0.2075497E+01  0.7546771E-02  0.2931564E+00
         22   -1    0    0    0    0  0.00000000000E+00  0.00000000000E+00  0.12946413161E+00  0.12946413161E+00  0.00000000000E+00 0. -1.
         22   -1    0    0    0    0 -0.00000000000E+00 -0.00000000000E+00 -0.33273236970E+02  0.33273236970E+02  0.00000000000E+00 0.  1.
          4    1    1    2  501    0 -0.36195147615E+00  0.20436920207E+01 -0.16589486288E+02  0.16718813991E+02  0.00000000000E+00 0.  1.
         -4    1    1    2    0  501  0.36195147615E+00 -0.20436920207E+01 -0.16554286550E+02  0.16683887111E+02  0.00000000000E+00 0. -1.
<mgrwt>
<rscale>  0 0.20754966E+01</rscale>
<asrwt>0</asrwt>
<pdfrwt beam="1">0</pdfrwt>
<pdfrwt beam="2">0</pdfrwt>
<totfact> 0.35475266E+12</totfact>
</mgrwt>
</event>
<event>
 4    2  0.1060494E+006  0.4217494E+01  0.7546771E-02  0.2237553E+00
         22   -1    0    0    0    0  0.00000000000E+00  0.00000000000E+00  0.21034444487E+01  0.21034444487E+01  0.00000000000E+00 0. -1.
         22   -1    0    0    0    0 -0.00000000000E+00 -0.00000000000E+00 -0.27626386320E+02  0.27626386320E+02  0.00000000000E+00 0.  1.
          4    1    1    2  501    0 -0.37851556902E+01 -0.18600685534E+01 -0.25144102947E+02  0.25495355883E+02  0.00000000000E+00 0.  1.
         -4    1    1    2    0  501  0.37851556902E+01  0.18600685534E+01 -0.37883892444E+00  0.42344748852E+01  0.00000000000E+00 0. -1.
<mgrwt>
<rscale>  0 0.42174944E+01</rscale>
<asrwt>0</asrwt>
<pdfrwt beam="1">0</pdfrwt>
<pdfrwt beam="2">0</pdfrwt>
<totfact> 0.19190715E+11</totfact>
</mgrwt>
</event>
<event>
 4    2  0.1060494E+006  0.2561681E+01  0.7546771E-02  0.2681946E+00
         22   -1    0    0    0    0  0.00000000000E+00  0.00000000000E+00  0.50351018111E+01  0.50351018111E+01  0.00000000000E+00 0. -1.
         22   -1    0    0    0    0 -0.00000000000E+00 -0.00000000000E+00 -0.13587143655E+01  0.13587143655E+01  0.00000000000E+00 0.  1.
          4    1    1    2  501    0 -0.44778193246E-01  0.25612891118E+01  0.24838617822E+01  0.35681614809E+01  0.00000000000E+00 0. -1.
         -4    1    1    2    0  501  0.44778193246E-01 -0.25612891118E+01  0.11925256634E+01  0.28256546956E+01  0.00000000000E+00 0.  1.
<mgrwt>
<rscale>  0 0.25616805E+01</rscale>
<asrwt>0</asrwt>
<pdfrwt beam="1">0</pdfrwt>
<pdfrwt beam="2">0</pdfrwt>
<totfact> 0.25395565E+12</totfact>
</mgrwt>
</event>
<event>
 4    2  0.1060494E+006  0.3091479E+01  0.7546771E-02  0.2494039E+00
         22   -1    0    0    0    0  0.00000000000E+00  0.00000000000E+00  0.26920606593E+01  0.26920606593E+01  0.00000000000E+00 0. -1.
         22   -1    0    0    0    0 -0.00000000000E+00 -0.00000000000E+00 -0.40668989275E+01  0.40668989275E+01  0.00000000000E+00 0.  1.
          4    1    1    2  501    0  0.30914790613E+01  0.83945415040E-03 -0.18920504717E+01  0.36245135506E+01  0.00000000000E+00 0.  1.
         -4    1    1    2    0  501 -0.30914790613E+01 -0.83945415040E-03  0.51721220342E+00  0.31344460363E+01  0.00000000000E+00 0. -1.
<mgrwt>
<rscale>  0 0.30914792E+01</rscale>
<asrwt>0</asrwt>
<pdfrwt beam="1">0</pdfrwt>
<pdfrwt beam="2">0</pdfrwt>
<totfact> 0.14819706E+12</totfact>
</mgrwt>
</event>
<event>
 4    2  0.1060494E+006  0.2199788E+01  0.7546771E-02  0.2857771E+00
         22   -1    0    0    0    0  0.00000000000E+00  0.00000000000E+00  0.13556260289E+02  0.13556260289E+02  0.00000000000E+00 0. -1.
         22   -1    0    0    0    0 -0.00000000000E+00 -0.00000000000E+00 -0.36301097517E+00  0.36301097517E+00  0.00000000000E+00 0.  1.
          4    1    1    2  501    0 -0.64294147986E+00  0.21037330085E+01  0.56982102479E+01  0.61080820514E+01  0.00000000000E+00 0. -1.
         -4    1    1    2    0  501  0.64294147986E+00 -0.21037330085E+01  0.74950390663E+01  0.78111892131E+01  0.00000000000E+00 0.  1.
<mgrwt>
<rscale>  0 0.21997878E+01</rscale>
<asrwt>0</asrwt>
<pdfrwt beam="1">0</pdfrwt>
<pdfrwt beam="2">0</pdfrwt>
<totfact> 0.34515084E+12</totfact>
</mgrwt>
</event>
<event>
 4    2  0.1060494E+006  0.2617226E+01  0.7546771E-02  0.2659001E+00
         22   -1    0    0    0    0  0.00000000000E+00  0.00000000000E+00  0.41279647162E+01  0.41279647162E+01  0.00000000000E+00 0. -1.
         22   -1    0    0    0    0 -0.00000000000E+00 -0.00000000000E+00 -0.31485172121E+01  0.31485172121E+01  0.00000000000E+00 0.  1.
          4    1    1    2  501    0  0.12216151916E+01 -0.23146334133E+01 -0.20123807757E+01  0.33014463347E+01  0.00000000000E+00 0.  1.
         -4    1    1    2    0  501 -0.12216151916E+01  0.23146334133E+01  0.29918282798E+01  0.39750355936E+01  0.00000000000E+00 0. -1.
<mgrwt>
<rscale>  0 0.26172259E+01</rscale>
<asrwt>0</asrwt>
<pdfrwt beam="1">0</pdfrwt>
<pdfrwt beam="2">0</pdfrwt>
<totfact> 0.12128490E+12</totfact>
</mgrwt>
</event>
<event>
 4    2  0.1060494E+006  0.2114033E+01  0.7546771E-02  0.2907788E+00
         22   -1    0    0    0    0  0.00000000000E+00  0.00000000000E+00  0.35916809370E+01  0.35916809370E+01  0.00000000000E+00 0. -1.
         22   -1    0    0    0    0 -0.00000000000E+00 -0.00000000000E+00 -0.15011655883E+01  0.15011655883E+01  0.00000000000E+00 0.  1.
          4    1    1    2  501    0  0.10366737974E+01 -0.18424013585E+01 -0.80801276390E-02  0.21140483950E+01  0.00000000000E+00 0.  1.
         -4    1    1    2    0  501 -0.10366737974E+01  0.18424013585E+01  0.20985954763E+01  0.29787981303E+01  0.00000000000E+00 0. -1.
<mgrwt>
<rscale>  0 0.21140330E+01</rscale>
<asrwt>0</asrwt>
<pdfrwt beam="1">0</pdfrwt>
<pdfrwt beam="2">0</pdfrwt>
<totfact> 0.33720067E+12</totfact>
</mgrwt>
</event>
<event>
 4    2  0.1060494E+006  0.2030896E+01  0.7546771E-02  0.2960177E+00
         22   -1    0    0    0    0  0.00000000000E+00  0.00000000000E+00  0.12289706308E+01  0.12289706308E+01  0.00000000000E+00 0.  1.
         22   -1    0    0    0    0 -0.00000000000E+00 -0.00000000000E+00 -0.42547609927E+01  0.42547609927E+01  0.00000000000E+00 0. -1.
          4    1    1    2  501    0 -0.79439228674E+00  0.18690852353E+01 -0.27730051496E+01  0.34371639882E+01  0.00000000000E+00 0. -1.
         -4    1    1    2    0  501  0.79439228674E+00 -0.18690852353E+01 -0.25278521231E+00  0.20465676352E+01  0.00000000000E+00 0.  1.
<mgrwt>
<rscale>  0 0.20308960E+01</rscale>
<asrwt>0</asrwt>
<pdfrwt beam="1">0</pdfrwt>
<pdfrwt beam="2">0</pdfrwt>
<totfact> 0.34764035E+12</totfact>
</mgrwt>
</event>
<event>
 4    2  0.1060494E+006  0.2171888E+01  0.7546771E-02  0.2873627E+00
         22   -1    0    0    0    0  0.00000000000E+00  0.00000000000E+00  0.71655348675E+02  0.71655348675E+02  0.00000000000E+00 0.  1.
         22   -1    0    0    0    0 -0.00000000000E+00 -0.00000000000E+00 -0.66701438170E-01  0.66701438170E-01  0.00000000000E+00 0. -1.
          4    1    1    2  501    0  0.19212115920E+01 -0.10129371869E+01  0.31696158173E+02  0.31770482192E+02  0.00000000000E+00 0.  1.
         -4    1    1    2    0  501 -0.19212115920E+01  0.10129371869E+01  0.39892489063E+02  0.39951567921E+02  0.00000000000E+00 0. -1.
<mgrwt>
<rscale>  0 0.21718876E+01</rscale>
<asrwt>0</asrwt>
<pdfrwt beam="1">0</pdfrwt>
<pdfrwt beam="2">0</pdfrwt>
<totfact> 0.26879988E+12</totfact>
</mgrwt>
</event>
<event>
 4    2  0.1060494E+006  0.2180045E+01  0.7546771E-02  0.2868950E+00
         22   -1    0    0    0    0  0.00000000000E+00  0.00000000000E+00  0.13160163310E+01  0.13160163310E+01  0.00000000000E+00 0. -1.
         22   -1    0    0    0    0 -0.00000000000E+00 -0.00000000000E+00 -0.44994635263E+01  0.44994635263E+01  0.00000000000E+00 0.  1.
          4    1    1    2  501    0 -0.16934399815E+01  0.13729017113E+01 -0.28835643172E+01  0.36149054277E+01  0.00000000000E+00 0.  1.
         -4    1    1    2    0  501  0.16934399815E+01 -0.13729017113E+01 -0.29988287811E+00  0.22005744296E+01  0.00000000000E+00 0. -1.
<mgrwt>
<rscale>  0 0.21800454E+01</rscale>
<asrwt>0</asrwt>
<pdfrwt beam="1">0</pdfrwt>
<pdfrwt beam="2">0</pdfrwt>
<totfact> 0.30089351E+12</totfact>
</mgrwt>
</event>
<event>
 4    2  0.1060494E+006  0.2297335E+01  0.7546771E-02  0.2805234E+00
         22   -1    0    0    0    0  0.00000000000E+00  0.00000000000E+00  0.26959938595E+02  0.26959938595E+02  0.00000000000E+00 0. -1.
         22   -1    0    0    0    0 -0.00000000000E+00 -0.00000000000E+00 -0.21007446200E+00  0.21007446200E+00  0.00000000000E+00 0.  1.
          4    1    1    2  501    0 -0.20680414686E+01  0.10004768440E+01  0.16920781605E+02  0.17076024114E+02  0.00000000000E+00 0. -1.
         -4    1    1    2    0  501  0.20680414686E+01 -0.10004768440E+01  0.98290825279E+01  0.10093988943E+02  0.00000000000E+00 0.  1.
<mgrwt>
<rscale>  0 0.22973353E+01</rscale>
<asrwt>0</asrwt>
<pdfrwt beam="1">0</pdfrwt>
<pdfrwt beam="2">0</pdfrwt>
<totfact> 0.27064767E+12</totfact>
</mgrwt>
</event>
<event>
 4    2  0.1060494E+006  0.2479163E+01  0.7546771E-02  0.2717788E+00
         22   -1    0    0    0    0  0.00000000000E+00  0.00000000000E+00  0.82099796111E+00  0.82099796111E+00  0.00000000000E+00 0.  1.
         22   -1    0    0    0    0 -0.00000000000E+00 -0.00000000000E+00 -0.78385829627E+01  0.78385829627E+01  0.00000000000E+00 0. -1.
          4    1    1    2  501    0 -0.98096412355E+00  0.22768304152E+01 -0.44266730676E+01  0.50736260996E+01  0.00000000000E+00 0.  1.
         -4    1    1    2    0  501  0.98096412355E+00 -0.22768304152E+01 -0.25909119339E+01  0.35859548241E+01  0.00000000000E+00 0. -1.
<mgrwt>
<rscale>  0 0.24791626E+01</rscale>
<asrwt>0</asrwt>
<pdfrwt beam="1">0</pdfrwt>
<pdfrwt beam="2">0</pdfrwt>
<totfact> 0.26649142E+12</totfact>
</mgrwt>
</event>
<event>
 4    2  0.1060494E+006  0.2172779E+01  0.7546771E-02  0.2873114E+00
         22   -1    0    0    0    0  0.00000000000E+00  0.00000000000E+00  0.61998493303E+01  0.61998493303E+01  0.00000000000E+00 0. -1.
         22   -1    0    0    0    0 -0.00000000000E+00 -0.00000000000E+00 -0.15023291510E+01  0.15023291510E+01  0.00000000000E+00 0.  1.
          4    1    1    2  501    0  0.20754579365E+01  0.64299494314E+00 -0.35563620193E+00  0.22016914523E+01  0.00000000000E+00 0.  1.
         -4    1    1    2    0  501 -0.20754579365E+01 -0.64299494314E+00  0.50531563812E+01  0.55004870290E+01  0.00000000000E+00 0. -1.
<mgrwt>
<rscale>  0 0.21727789E+01</rscale>
<asrwt>0</asrwt>
<pdfrwt beam="1">0</pdfrwt>
<pdfrwt beam="2">0</pdfrwt>
<totfact> 0.17669459E+12</totfact>
</mgrwt>
</event>
<event>
 4    2  0.1060494E+006  0.2490394E+01  0.7546771E-02  0.2712780E+00
         22   -1    0    0    0    0  0.00000000000E+00  0.00000000000E+00  0.47302304342E+01  0.47302304342E+01  0.00000000000E+00 0. -1.
         22   -1    0    0    0    0 -0.00000000000E+00 -0.00000000000E+00 -0.30133101726E+01  0.30133101726E+01  0.00000000000E+00 0.  1.
          4    1    1    2  501    0  0.17856300653E+01 -0.17359684150E+01 -0.20515021106E+01  0.32265650431E+01  0.00000000000E+00 0.  1.
         -4    1    1    2    0  501 -0.17856300653E+01  0.17359684150E+01  0.37684223722E+01  0.45169755637E+01  0.00000000000E+00 0. -1.
<mgrwt>
<rscale>  0 0.24903938E+01</rscale>
<asrwt>0</asrwt>
<pdfrwt beam="1">0</pdfrwt>
<pdfrwt beam="2">0</pdfrwt>
<totfact> 0.10871704E+12</totfact>
</mgrwt>
</event>
<event>
 4    2  0.1060494E+006  0.2009857E+01  0.7546771E-02  0.2974105E+00
         22   -1    0    0    0    0  0.00000000000E+00  0.00000000000E+00  0.29329537236E+02  0.29329537236E+02  0.00000000000E+00 0. -1.
         22   -1    0    0    0    0 -0.00000000000E+00 -0.00000000000E+00 -0.14657698210E+00  0.14657698210E+00  0.00000000000E+00 0.  1.
          4    1    1    2  501    0 -0.16500062253E+01 -0.11476076529E+01  0.10970444625E+02  0.11153034526E+02  0.00000000000E+00 0. -1.
         -4    1    1    2    0  501  0.16500062253E+01  0.11476076529E+01  0.18212515628E+02  0.18323079692E+02  0.00000000000E+00 0.  1.
<mgrwt>
<rscale>  0 0.20098567E+01</rscale>
<asrwt>0</asrwt>
<pdfrwt beam="1">0</pdfrwt>
<pdfrwt beam="2">0</pdfrwt>
<totfact> 0.36309531E+12</totfact>
</mgrwt>
</event>
<event>
 4    2  0.1060494E+006  0.2393200E+01  0.7546771E-02  0.2757573E+00
         22   -1    0    0    0    0  0.00000000000E+00  0.00000000000E+00  0.47837298569E+01  0.47837298569E+01  0.00000000000E+00 0.  1.
         22   -1    0    0    0    0 -0.00000000000E+00 -0.00000000000E+00 -0.22269181696E+01  0.22269181696E+01  0.00000000000E+00 0. -1.
          4    1    1    2  501    0  0.80933932296E+00  0.22521932019E+01 -0.11051261656E+01  0.26360402502E+01  0.00000000000E+00 0. -1.
         -4    1    1    2    0  501 -0.80933932296E+00 -0.22521932019E+01  0.36619378529E+01  0.43746077764E+01  0.00000000000E+00 0.  1.
<mgrwt>
<rscale>  0 0.23931996E+01</rscale>
<asrwt>0</asrwt>
<pdfrwt beam="1">0</pdfrwt>
<pdfrwt beam="2">0</pdfrwt>
<totfact> 0.15255294E+12</totfact>
</mgrwt>
</event>
<event>
 4    2  0.1060494E+006  0.2677675E+01  0.7546771E-02  0.2635029E+00
         22   -1    0    0    0    0  0.00000000000E+00  0.00000000000E+00  0.39425716286E+01  0.39425716286E+01  0.00000000000E+00 0.  1.
         22   -1    0    0    0    0 -0.00000000000E+00 -0.00000000000E+00 -0.18591859260E+01  0.18591859260E+01  0.00000000000E+00 0. -1.
          4    1    1    2  501    0 -0.13415780117E+01  0.23173500051E+01  0.61306485254E+00  0.27469603421E+01  0.00000000000E+00 0. -1.
         -4    1    1    2    0  501  0.13415780117E+01 -0.23173500051E+01  0.14703208500E+01  0.30547972125E+01  0.00000000000E+00 0.  1.
<mgrwt>
<rscale>  0 0.26776749E+01</rscale>
<asrwt>0</asrwt>
<pdfrwt beam="1">0</pdfrwt>
<pdfrwt beam="2">0</pdfrwt>
<totfact> 0.23617753E+12</totfact>
</mgrwt>
</event>
<event>
 4    2  0.1060494E+006  0.5734988E+01  0.7546771E-02  0.2044302E+00
         22   -1    0    0    0    0  0.00000000000E+00  0.00000000000E+00  0.46501359573E+00  0.46501359573E+00  0.00000000000E+00 0. -1.
         22   -1    0    0    0    0 -0.00000000000E+00 -0.00000000000E+00 -0.71232050117E+02  0.71232050117E+02  0.00000000000E+00 0.  1.
          4    1    1    2  501    0  0.56844347052E+01  0.75979210056E+00 -0.38395231435E+02  0.38821178227E+02  0.00000000000E+00 0.  1.
         -4    1    1    2    0  501 -0.56844347052E+01 -0.75979210056E+00 -0.32371805086E+02  0.32875885486E+02  0.00000000000E+00 0. -1.
<mgrwt>
<rscale>  0 0.57349875E+01</rscale>
<asrwt>0</asrwt>
<pdfrwt beam="1">0</pdfrwt>
<pdfrwt beam="2">0</pdfrwt>
<totfact> 0.31131694E+11</totfact>
</mgrwt>
</event>
<event>
 4    2  0.1060494E+006  0.2155688E+01  0.7546771E-02  0.2883014E+00
         22   -1    0    0    0    0  0.00000000000E+00  0.00000000000E+00  0.48710294085E+01  0.48710294085E+01  0.00000000000E+00 0. -1.
         22   -1    0    0    0    0 -0.00000000000E+00 -0.00000000000E+00 -0.10806698771E+01  0.10806698771E+01  0.00000000000E+00 0.  1.
          4    1    1    2  501    0 -0.19765467619E+01  0.86038100890E+00  0.87637635018E+00  0.23270212912E+01  0.00000000000E+00 0.  1.
         -4    1    1    2    0  501  0.19765467619E+01 -0.86038100890E+00  0.29139831813E+01  0.36246779944E+01  0.00000000000E+00 0. -1.
<mgrwt>
<rscale>  0 0.21556884E+01</rscale>
<asrwt>0</asrwt>
<pdfrwt beam="1">0</pdfrwt>
<pdfrwt beam="2">0</pdfrwt>
<totfact> 0.34333124E+12</totfact>
</mgrwt>
</event>
<event>
 4    2  0.1060494E+006  0.2438259E+01  0.7546771E-02  0.2736391E+00
         22   -1    0    0    0    0  0.00000000000E+00  0.00000000000E+00  0.14832545072E+01  0.14832545072E+01  0.00000000000E+00 0.  1.
         22   -1    0    0    0    0 -0.00000000000E+00 -0.00000000000E+00 -0.40091309936E+01  0.40091309936E+01  0.00000000000E+00 0. -1.
          4    1    1    2  501    0 -0.73229625485E+00 -0.23256937376E+01 -0.12200193290E+01  0.27264549013E+01  0.00000000000E+00 0.  1.
         -4    1    1    2    0  501  0.73229625485E+00  0.23256937376E+01 -0.13058571574E+01  0.27659305995E+01  0.00000000000E+00 0. -1.
<mgrwt>
<rscale>  0 0.24382595E+01</rscale>
<asrwt>0</asrwt>
<pdfrwt beam="1">0</pdfrwt>
<pdfrwt beam="2">0</pdfrwt>
<totfact> 0.30046493E+12</totfact>
</mgrwt>
</event>
<event>
 4    2  0.1060494E+006  0.2603863E+01  0.7546771E-02  0.2664438E+00
         22   -1    0    0    0    0  0.00000000000E+00  0.00000000000E+00  0.44966040195E+01  0.44966040195E+01  0.00000000000E+00 0.  1.
         22   -1    0    0    0    0 -0.00000000000E+00 -0.00000000000E+00 -0.90110306109E+01  0.90110306109E+01  0.00000000000E+00 0. -1.
          4    1    1    2  501    0 -0.17906370373E+01  0.18904295161E+01 -0.84201175136E+01  0.88135397938E+01  0.00000000000E+00 0. -1.
         -4    1    1    2    0  501  0.17906370373E+01 -0.18904295161E+01  0.39056909222E+01  0.46940948365E+01  0.00000000000E+00 0.  1.
<mgrwt>
<rscale>  0 0.26038634E+01</rscale>
<asrwt>0</asrwt>
<pdfrwt beam="1">0</pdfrwt>
<pdfrwt beam="2">0</pdfrwt>
<totfact> 0.31480840E+11</totfact>
</mgrwt>
</event>
<event>
 4    2  0.1060494E+006  0.4566240E+01  0.7546771E-02  0.2180573E+00
         22   -1    0    0    0    0  0.00000000000E+00  0.00000000000E+00  0.52336624217E+02  0.52336624217E+02  0.00000000000E+00 0. -1.
         22   -1    0    0    0    0 -0.00000000000E+00 -0.00000000000E+00 -0.40538539021E+00  0.40538539021E+00  0.00000000000E+00 0.  1.
          4    1    1    2  501    0  0.81303579018E+00 -0.44932747706E+01  0.29429038821E+02  0.29781183175E+02  0.00000000000E+00 0.  1.
         -4    1    1    2    0  501 -0.81303579018E+00  0.44932747706E+01  0.22502200005E+02  0.22960826432E+02  0.00000000000E+00 0. -1.
<mgrwt>
<rscale>  0 0.45662397E+01</rscale>
<asrwt>0</asrwt>
<pdfrwt beam="1">0</pdfrwt>
<pdfrwt beam="2">0</pdfrwt>
<totfact> 0.54934272E+11</totfact>
</mgrwt>
</event>
<event>
 4    2  0.1060494E+006  0.2098943E+01  0.7546771E-02  0.2916997E+00
         22   -1    0    0    0    0  0.00000000000E+00  0.00000000000E+00  0.40881263274E+00  0.40881263274E+00  0.00000000000E+00 0. -1.
         22   -1    0    0    0    0 -0.00000000000E+00 -0.00000000000E+00 -0.55726557431E+02  0.55726557431E+02  0.00000000000E+00 0.  1.
          4    1    1    2  501    0 -0.16700443257E+01 -0.12714223907E+01 -0.52867005769E+02  0.52908655832E+02  0.00000000000E+00 0.  1.
         -4    1    1    2    0  501  0.16700443257E+01  0.12714223907E+01 -0.24507390292E+01  0.32267142319E+01  0.00000000000E+00 0. -1.
<mgrwt>
<rscale>  0 0.20989433E+01</rscale>
<asrwt>0</asrwt>
<pdfrwt beam="1">0</pdfrwt>
<pdfrwt beam="2">0</pdfrwt>
<totfact> 0.50061770E+11</totfact>
</mgrwt>
</event>
<event>
 4    2  0.1060494E+006  0.2184588E+01  0.7546771E-02  0.2866361E+00
         22   -1    0    0    0    0  0.00000000000E+00  0.00000000000E+00  0.46703379108E+01  0.46703379108E+01  0.00000000000E+00 0. -1.
         22   -1    0    0    0    0 -0.00000000000E+00 -0.00000000000E+00 -0.10219341503E+01  0.10219341503E+01  0.00000000000E+00 0.  1.
          4    1    1    2  501    0 -0.17313767656E+01 -0.13322013674E+01  0.18486377764E+01  0.28617979691E+01  0.00000000000E+00 0. -1.
         -4    1    1    2    0  501  0.17313767656E+01  0.13322013674E+01  0.17997659841E+01  0.28304740920E+01  0.00000000000E+00 0.  1.
<mgrwt>
<rscale>  0 0.21845883E+01</rscale>
<asrwt>0</asrwt>
<pdfrwt beam="1">0</pdfrwt>
<pdfrwt beam="2">0</pdfrwt>
<totfact> 0.38464656E+12</totfact>
</mgrwt>
</event>
<event>
 4    2  0.1060494E+006  0.2047552E+01  0.7546771E-02  0.2949349E+00
         22   -1    0    0    0    0  0.00000000000E+00  0.00000000000E+00  0.86837059101E+00  0.86837059101E+00  0.00000000000E+00 0. -1.
         22   -1    0    0    0    0 -0.00000000000E+00 -0.00000000000E+00 -0.63617703665E+01  0.63617703665E+01  0.00000000000E+00 0.  1.
          4    1    1    2  501    0 -0.19897371105E+01  0.48313137271E+00 -0.45217547494E+01  0.49637421072E+01  0.00000000000E+00 0.  1.
         -4    1    1    2    0  501  0.19897371105E+01 -0.48313137271E+00 -0.97164502611E+00  0.22663988504E+01  0.00000000000E+00 0. -1.
<mgrwt>
<rscale>  0 0.20475521E+01</rscale>
<asrwt>0</asrwt>
<pdfrwt beam="1">0</pdfrwt>
<pdfrwt beam="2">0</pdfrwt>
<totfact> 0.32091088E+12</totfact>
</mgrwt>
</event>
<event>
 4    2  0.1060494E+006  0.7199257E+01  0.7546771E-02  0.1926337E+00
         22   -1    0    0    0    0  0.00000000000E+00  0.00000000000E+00  0.63586394584E+01  0.63586394584E+01  0.00000000000E+00 0.  1.
         22   -1    0    0    0    0 -0.00000000000E+00 -0.00000000000E+00 -0.11114925732E+02  0.11114925732E+02  0.00000000000E+00 0. -1.
          4    1    1    2  501    0  0.51988136689E+01  0.49801249771E+01 -0.68897522547E+01  0.99648379055E+01  0.00000000000E+00 0. -1.
         -4    1    1    2    0  501 -0.51988136689E+01 -0.49801249771E+01  0.21334659809E+01  0.75087272852E+01  0.00000000000E+00 0.  1.
<mgrwt>
<rscale>  0 0.71992575E+01</rscale>
<asrwt>0</asrwt>
<pdfrwt beam="1">0</pdfrwt>
<pdfrwt beam="2">0</pdfrwt>
<totfact> 0.16187354E+11</totfact>
</mgrwt>
</event>
<event>
 4    2  0.1060494E+006  0.2095720E+01  0.7546771E-02  0.2918981E+00
         22   -1    0    0    0    0  0.00000000000E+00  0.00000000000E+00  0.96994394725E+01  0.96994394725E+01  0.00000000000E+00 0. -1.
         22   -1    0    0    0    0 -0.00000000000E+00 -0.00000000000E+00 -0.91784072652E+00  0.91784072652E+00  0.00000000000E+00 0.  1.
          4    1    1    2  501    0  0.20940656869E+01  0.83259646185E-01  0.61213328369E+00  0.21832889013E+01  0.00000000000E+00 0.  1.
         -4    1    1    2    0  501 -0.20940656869E+01 -0.83259646185E-01  0.81694654622E+01  0.84339912976E+01  0.00000000000E+00 0. -1.
<mgrwt>
<rscale>  0 0.20957202E+01</rscale>
<asrwt>0</asrwt>
<pdfrwt beam="1">0</pdfrwt>
<pdfrwt beam="2">0</pdfrwt>
<totfact> 0.18155831E+12</totfact>
</mgrwt>
</event>
<event>
 4    2  0.1060494E+006  0.3017179E+01  0.7546771E-02  0.2516779E+00
         22   -1    0    0    0    0  0.00000000000E+00  0.00000000000E+00  0.88721425833E+00  0.88721425833E+00  0.00000000000E+00 0.  1.
         22   -1    0    0    0    0 -0.00000000000E+00 -0.00000000000E+00 -0.12445196134E+02  0.12445196134E+02  0.00000000000E+00 0. -1.
          4    1    1    2  501    0  0.13471643046E+01 -0.26997249546E+01 -0.85719309442E+01  0.90874290427E+01  0.00000000000E+00 0. -1.
         -4    1    1    2    0  501 -0.13471643046E+01  0.26997249546E+01 -0.29860509317E+01  0.42449813499E+01  0.00000000000E+00 0.  1.
<mgrwt>
<rscale>  0 0.30171786E+01</rscale>
<asrwt>0</asrwt>
<pdfrwt beam="1">0</pdfrwt>
<pdfrwt beam="2">0</pdfrwt>
<totfact> 0.13941273E+12</totfact>
</mgrwt>
</event>
<event>
 4    2  0.1060494E+006  0.3073951E+01  0.7546771E-02  0.2499315E+00
         22   -1    0    0    0    0  0.00000000000E+00  0.00000000000E+00  0.18774539352E+02  0.18774539352E+02  0.00000000000E+00 0. -1.
         22   -1    0    0    0    0 -0.00000000000E+00 -0.00000000000E+00 -0.58119098697E+00  0.58119098697E+00  0.00000000000E+00 0.  1.
          4    1    1    2  501    0 -0.30576300870E+01 -0.31634323491E+00  0.55536730744E+01  0.63476341583E+01  0.00000000000E+00 0.  1.
         -4    1    1    2    0  501  0.30576300870E+01  0.31634323491E+00  0.12639675291E+02  0.13008096181E+02  0.00000000000E+00 0. -1.
<mgrwt>
<rscale>  0 0.30739510E+01</rscale>
<asrwt>0</asrwt>
<pdfrwt beam="1">0</pdfrwt>
<pdfrwt beam="2">0</pdfrwt>
<totfact> 0.13582190E+12</totfact>
</mgrwt>
</event>
<event>
 4    2  0.1060494E+006  0.2583990E+01  0.7546771E-02  0.2672621E+00
         22   -1    0    0    0    0  0.00000000000E+00  0.00000000000E+00  0.19601347584E+01  0.19601347584E+01  0.00000000000E+00 0. -1.
         22   -1    0    0    0    0 -0.00000000000E+00 -0.00000000000E+00 -0.63530909699E+01  0.63530909699E+01  0.00000000000E+00 0.  1.
          4    1    1    2  501    0 -0.14346159196E+01  0.21491581577E+01 -0.50273115285E+01  0.56525096044E+01  0.00000000000E+00 0.  1.
         -4    1    1    2    0  501  0.14346159196E+01 -0.21491581577E+01  0.63435531699E+00  0.26607161239E+01  0.00000000000E+00 0. -1.
<mgrwt>
<rscale>  0 0.25839899E+01</rscale>
<asrwt>0</asrwt>
<pdfrwt beam="1">0</pdfrwt>
<pdfrwt beam="2">0</pdfrwt>
<totfact> 0.12627617E+12</totfact>
</mgrwt>
</event>
<event>
 4    2  0.1060494E+006  0.2624006E+01  0.7546771E-02  0.2656262E+00
         22   -1    0    0    0    0  0.00000000000E+00  0.00000000000E+00  0.81956690725E+01  0.81956690725E+01  0.00000000000E+00 0.  1.
         22   -1    0    0    0    0 -0.00000000000E+00 -0.00000000000E+00 -0.86348918937E+00  0.86348918937E+00  0.00000000000E+00 0. -1.
          4    1    1    2  501    0 -0.12017890606E+01  0.23326188105E+01  0.29210475871E+01  0.39265667532E+01  0.00000000000E+00 0. -1.
         -4    1    1    2    0  501  0.12017890606E+01 -0.23326188105E+01  0.44111322961E+01  0.51325915087E+01  0.00000000000E+00 0.  1.
<mgrwt>
<rscale>  0 0.26240060E+01</rscale>
<asrwt>0</asrwt>
<pdfrwt beam="1">0</pdfrwt>
<pdfrwt beam="2">0</pdfrwt>
<totfact> 0.23850125E+12</totfact>
</mgrwt>
</event>
<event>
 4    2  0.1060494E+006  0.2308466E+01  0.7546771E-02  0.2799509E+00
         22   -1    0    0    0    0  0.00000000000E+00  0.00000000000E+00  0.79809114899E+01  0.79809114899E+01  0.00000000000E+00 0. -1.
         22   -1    0    0    0    0 -0.00000000000E+00 -0.00000000000E+00 -0.71360503359E+00  0.71360503359E+00  0.00000000000E+00 0.  1.
          4    1    1    2  501    0 -0.55001055739E+00  0.22419866220E+01  0.25312989751E+01  0.34258561161E+01  0.00000000000E+00 0.  1.
         -4    1    1    2    0  501  0.55001055739E+00 -0.22419866220E+01  0.47360074812E+01  0.52686604074E+01  0.00000000000E+00 0. -1.
<mgrwt>
<rscale>  0 0.23084661E+01</rscale>
<asrwt>0</asrwt>
<pdfrwt beam="1">0</pdfrwt>
<pdfrwt beam="2">0</pdfrwt>
<totfact> 0.30584476E+12</totfact>
</mgrwt>
</event>
<event>
 4    2  0.1060494E+006  0.2196196E+01  0.7546771E-02  0.2859791E+00
         22   -1    0    0    0    0  0.00000000000E+00  0.00000000000E+00  0.74850110600E+01  0.74850110600E+01  0.00000000000E+00 0.  1.
         22   -1    0    0    0    0 -0.00000000000E+00 -0.00000000000E+00 -0.31552484064E+01  0.31552484064E+01  0.00000000000E+00 0. -1.
          4    1    1    2  501    0 -0.16753297488E+01 -0.14200510855E+01 -0.25809954398E+01  0.33889249494E+01  0.00000000000E+00 0. -1.
         -4    1    1    2    0  501  0.16753297488E+01  0.14200510855E+01  0.69107580934E+01  0.72513345171E+01  0.00000000000E+00 0.  1.
<mgrwt>
<rscale>  0 0.21961955E+01</rscale>
<asrwt>0</asrwt>
<pdfrwt beam="1">0</pdfrwt>
<pdfrwt beam="2">0</pdfrwt>
<totfact> 0.59661056E+11</totfact>
</mgrwt>
</event>
<event>
 4    2  0.1060494E+006  0.3251243E+01  0.7546771E-02  0.2448290E+00
         22   -1    0    0    0    0  0.00000000000E+00  0.00000000000E+00  0.18846600771E+01  0.18846600771E+01  0.00000000000E+00 0.  1.
         22   -1    0    0    0    0 -0.00000000000E+00 -0.00000000000E+00 -0.68771834010E+01  0.68771834010E+01  0.00000000000E+00 0. -1.
          4    1    1    2  501    0 -0.46741003595E+00 -0.32174696125E+01 -0.43777192051E+01  0.54529815961E+01  0.00000000000E+00 0. -1.
         -4    1    1    2    0  501  0.46741003595E+00  0.32174696125E+01 -0.61480411889E+00  0.33088618820E+01  0.00000000000E+00 0.  1.
<mgrwt>
<rscale>  0 0.32512433E+01</rscale>
<asrwt>0</asrwt>
<pdfrwt beam="1">0</pdfrwt>
<pdfrwt beam="2">0</pdfrwt>
<totfact> 0.12021205E+12</totfact>
</mgrwt>
</event>
<event>
 4    2  0.1060494E+006  0.2819606E+01  0.7546771E-02  0.2582455E+00
         22   -1    0    0    0    0  0.00000000000E+00  0.00000000000E+00  0.33575118286E+01  0.33575118286E+01  0.00000000000E+00 0.  1.
         22   -1    0    0    0    0 -0.00000000000E+00 -0.00000000000E+00 -0.26393809358E+01  0.26393809358E+01  0.00000000000E+00 0. -1.
          4    1    1    2  501    0 -0.86817405481E+00 -0.26826200498E+01 -0.60261981589E+00  0.28832840934E+01  0.00000000000E+00 0.  1.
         -4    1    1    2    0  501  0.86817405481E+00  0.26826200498E+01  0.13207507087E+01  0.31136086709E+01  0.00000000000E+00 0. -1.
<mgrwt>
<rscale>  0 0.28196057E+01</rscale>
<asrwt>0</asrwt>
<pdfrwt beam="1">0</pdfrwt>
<pdfrwt beam="2">0</pdfrwt>
<totfact> 0.18992936E+12</totfact>
</mgrwt>
</event>
<event>
 4    2  0.1060494E+006  0.3973920E+01  0.7546771E-02  0.2282308E+00
         22   -1    0    0    0    0  0.00000000000E+00  0.00000000000E+00  0.77469547394E+01  0.77469547394E+01  0.00000000000E+00 0. -1.
         22   -1    0    0    0    0 -0.00000000000E+00 -0.00000000000E+00 -0.38382328527E+01  0.38382328527E+01  0.00000000000E+00 0.  1.
          4    1    1    2  501    0  0.39151815674E+01 -0.68073100972E+00 -0.20121932975E+01  0.44543196203E+01  0.00000000000E+00 0.  1.
         -4    1    1    2    0  501 -0.39151815674E+01  0.68073100972E+00  0.59209151842E+01  0.71308679718E+01  0.00000000000E+00 0. -1.
<mgrwt>
<rscale>  0 0.39739202E+01</rscale>
<asrwt>0</asrwt>
<pdfrwt beam="1">0</pdfrwt>
<pdfrwt beam="2">0</pdfrwt>
<totfact> 0.45501647E+11</totfact>
</mgrwt>
</event>
<event>
 4    2  0.1060494E+006  0.2014357E+01  0.7546771E-02  0.2971102E+00
         22   -1    0    0    0    0  0.00000000000E+00  0.00000000000E+00  0.25109438100E+02  0.25109438100E+02  0.00000000000E+00 0. -1.
         22   -1    0    0    0    0 -0.00000000000E+00 -0.00000000000E+00 -0.16699190143E+00  0.16699190143E+00  0.00000000000E+00 0.  1.
          4    1    1    2  501    0 -0.65389893935E+00 -0.19052688045E+01  0.10199828210E+02  0.10396832621E+02  0.00000000000E+00 0.  1.
         -4    1    1    2    0  501  0.65389893935E+00  0.19052688045E+01  0.14742617988E+02  0.14879597380E+02  0.00000000000E+00 0. -1.
<mgrwt>
<rscale>  0 0.20143567E+01</rscale>
<asrwt>0</asrwt>
<pdfrwt beam="1">0</pdfrwt>
<pdfrwt beam="2">0</pdfrwt>
<totfact> 0.38240142E+12</totfact>
</mgrwt>
</event>
<event>
 4    2  0.1060494E+006  0.2402038E+01  0.7546771E-02  0.2753360E+00
         22   -1    0    0    0    0  0.00000000000E+00  0.00000000000E+00  0.48077822735E+00  0.48077822735E+00  0.00000000000E+00 0.  1.
         22   -1    0    0    0    0 -0.00000000000E+00 -0.00000000000E+00 -0.12437437024E+02  0.12437437024E+02  0.00000000000E+00 0. -1.
          4    1    1    2  501    0 -0.40924595794E+00  0.23669184231E+01 -0.47682788997E+01  0.53391262151E+01  0.00000000000E+00 0.  1.
         -4    1    1    2    0  501  0.40924595794E+00 -0.23669184231E+01 -0.71883798969E+01  0.75790890362E+01  0.00000000000E+00 0. -1.
<mgrwt>
<rscale>  0 0.24020377E+01</rscale>
<asrwt>0</asrwt>
<pdfrwt beam="1">0</pdfrwt>
<pdfrwt beam="2">0</pdfrwt>
<totfact> 0.27947421E+12</totfact>
</mgrwt>
</event>
<event>
 4    2  0.1060494E+006  0.2434533E+01  0.7546771E-02  0.2738115E+00
         22   -1    0    0    0    0  0.00000000000E+00  0.00000000000E+00  0.26972063182E+01  0.26972063182E+01  0.00000000000E+00 0.  1.
         22   -1    0    0    0    0 -0.00000000000E+00 -0.00000000000E+00 -0.22748080633E+01  0.22748080633E+01  0.00000000000E+00 0. -1.
          4    1    1    2  501    0  0.11297788094E+01 -0.21565140017E+01 -0.24726669533E+00  0.24470581555E+01  0.00000000000E+00 0. -1.
         -4    1    1    2    0  501 -0.11297788094E+01  0.21565140017E+01  0.66966495021E+00  0.25249562260E+01  0.00000000000E+00 0.  1.
<mgrwt>
<rscale>  0 0.24345334E+01</rscale>
<asrwt>0</asrwt>
<pdfrwt beam="1">0</pdfrwt>
<pdfrwt beam="2">0</pdfrwt>
<totfact> 0.29157486E+12</totfact>
</mgrwt>
</event>
<event>
 4    2  0.1060494E+006  0.2060587E+01  0.7546771E-02  0.2940995E+00
         22   -1    0    0    0    0  0.00000000000E+00  0.00000000000E+00  0.34573126149E+01  0.34573126149E+01  0.00000000000E+00 0.  1.
         22   -1    0    0    0    0 -0.00000000000E+00 -0.00000000000E+00 -0.12513395749E+01  0.12513395749E+01  0.00000000000E+00 0. -1.
          4    1    1    2  501    0  0.11172784871E+01 -0.17313886926E+01  0.78232765695E+00  0.22040994953E+01  0.00000000000E+00 0. -1.
         -4    1    1    2    0  501 -0.11172784871E+01  0.17313886926E+01  0.14236453831E+01  0.25045526945E+01  0.00000000000E+00 0.  1.
<mgrwt>
<rscale>  0 0.20605868E+01</rscale>
<asrwt>0</asrwt>
<pdfrwt beam="1">0</pdfrwt>
<pdfrwt beam="2">0</pdfrwt>
<totfact> 0.43461645E+12</totfact>
</mgrwt>
</event>
<event>
 4    2  0.1060494E+006  0.2073935E+01  0.7546771E-02  0.2932546E+00
         22   -1    0    0    0    0  0.00000000000E+00  0.00000000000E+00  0.76061207922E+01  0.76061207922E+01  0.00000000000E+00 0. -1.
         22   -1    0    0    0    0 -0.00000000000E+00 -0.00000000000E+00 -0.57323492606E+00  0.57323492606E+00  0.00000000000E+00 0.  1.
          4    1    1    2  501    0  0.56938075365E+00  0.19942443025E+01  0.30411521427E+01  0.36810068101E+01  0.00000000000E+00 0.  1.
         -4    1    1    2    0  501 -0.56938075365E+00 -0.19942443025E+01  0.39917337234E+01  0.44983489082E+01  0.00000000000E+00 0. -1.
<mgrwt>
<rscale>  0 0.20739346E+01</rscale>
<asrwt>0</asrwt>
<pdfrwt beam="1">0</pdfrwt>
<pdfrwt beam="2">0</pdfrwt>
<totfact> 0.41531575E+12</totfact>
</mgrwt>
</event>
<event>
 4    2  0.1060494E+006  0.3155106E+01  0.7546771E-02  0.2475327E+00
         22   -1    0    0    0    0  0.00000000000E+00  0.00000000000E+00  0.18026526424E+01  0.18026526424E+01  0.00000000000E+00 0. -1.
         22   -1    0    0    0    0 -0.00000000000E+00 -0.00000000000E+00 -0.70111377940E+01  0.70111377940E+01  0.00000000000E+00 0.  1.
          4    1    1    2  501    0  0.10047397022E+01 -0.29908509262E+01 -0.46350561541E+01  0.56069989017E+01  0.00000000000E+00 0.  1.
         -4    1    1    2    0  501 -0.10047397022E+01  0.29908509262E+01 -0.57342899753E+00  0.32067915347E+01  0.00000000000E+00 0. -1.
<mgrwt>
<rscale>  0 0.31551056E+01</rscale>
<asrwt>0</asrwt>
<pdfrwt beam="1">0</pdfrwt>
<pdfrwt beam="2">0</pdfrwt>
<totfact> 0.12366689E+12</totfact>
</mgrwt>
</event>
<event>
 4    2  0.1060494E+006  0.3824640E+01  0.7546771E-02  0.2312123E+00
         22   -1    0    0    0    0  0.00000000000E+00  0.00000000000E+00  0.17160478386E+01  0.17160478386E+01  0.00000000000E+00 0.  1.
         22   -1    0    0    0    0 -0.00000000000E+00 -0.00000000000E+00 -0.85390280688E+01  0.85390280688E+01  0.00000000000E+00 0. -1.
          4    1    1    2  501    0 -0.27422909195E+01 -0.26660293430E+01 -0.31975539193E+01  0.49852003983E+01  0.00000000000E+00 0. -1.
         -4    1    1    2    0  501  0.27422909195E+01  0.26660293430E+01 -0.36254263110E+01  0.52698755091E+01  0.00000000000E+00 0.  1.
<mgrwt>
<rscale>  0 0.38246401E+01</rscale>
<asrwt>0</asrwt>
<pdfrwt beam="1">0</pdfrwt>
<pdfrwt beam="2">0</pdfrwt>
<totfact> 0.10332028E+12</totfact>
</mgrwt>
</event>
<event>
 4    2  0.1060494E+006  0.2827738E+01  0.7546771E-02  0.2579588E+00
         22   -1    0    0    0    0  0.00000000000E+00  0.00000000000E+00  0.67790002117E+02  0.67790002117E+02  0.00000000000E+00 0.  1.
         22   -1    0    0    0    0 -0.00000000000E+00 -0.00000000000E+00 -0.29889300927E+00  0.29889300927E+00  0.00000000000E+00 0. -1.
          4    1    1    2  501    0  0.17655205412E+01  0.22088553894E+01  0.72572315671E+01  0.77886786383E+01  0.00000000000E+00 0. -1.
         -4    1    1    2    0  501 -0.17655205412E+01 -0.22088553894E+01  0.60233877541E+02  0.60300216488E+02  0.00000000000E+00 0.  1.
<mgrwt>
<rscale>  0 0.28277385E+01</rscale>
<asrwt>0</asrwt>
<pdfrwt beam="1">0</pdfrwt>
<pdfrwt beam="2">0</pdfrwt>
<totfact> 0.54729041E+11</totfact>
</mgrwt>
</event>
<event>
 4    2  0.1060494E+006  0.2192993E+01  0.7546771E-02  0.2861597E+00
         22   -1    0    0    0    0  0.00000000000E+00  0.00000000000E+00  0.77926235818E+00  0.77926235818E+00  0.00000000000E+00 0.  1.
         22   -1    0    0    0    0 -0.00000000000E+00 -0.00000000000E+00 -0.65456610380E+01  0.65456610380E+01  0.00000000000E+00 0. -1.
          4    1    1    2  501    0  0.14412931221E+01  0.16528434375E+01 -0.37588399150E+01  0.43517921366E+01  0.00000000000E+00 0. -1.
         -4    1    1    2    0  501 -0.14412931221E+01 -0.16528434375E+01 -0.20075587648E+01  0.29731312596E+01  0.00000000000E+00 0.  1.
<mgrwt>
<rscale>  0 0.21929928E+01</rscale>
<asrwt>0</asrwt>
<pdfrwt beam="1">0</pdfrwt>
<pdfrwt beam="2">0</pdfrwt>
<totfact> 0.35087552E+12</totfact>
</mgrwt>
</event>
<event>
 4    2  0.1060494E+006  0.2193894E+01  0.7546771E-02  0.2861088E+00
         22   -1    0    0    0    0  0.00000000000E+00  0.00000000000E+00  0.58574956377E+01  0.58574956377E+01  0.00000000000E+00 0.  1.
         22   -1    0    0    0    0 -0.00000000000E+00 -0.00000000000E+00 -0.19285154806E+01  0.19285154806E+01  0.00000000000E+00 0. -1.
          4    1    1    2  501    0  0.91025763335E+00 -0.19961467647E+01 -0.98474124286E+00  0.24047632275E+01  0.00000000000E+00 0. -1.
         -4    1    1    2    0  501 -0.91025763335E+00  0.19961467647E+01  0.49137214000E+01  0.53812478907E+01  0.00000000000E+00 0.  1.
<mgrwt>
<rscale>  0 0.21938940E+01</rscale>
<asrwt>0</asrwt>
<pdfrwt beam="1">0</pdfrwt>
<pdfrwt beam="2">0</pdfrwt>
<totfact> 0.14173617E+12</totfact>
</mgrwt>
</event>
<event>
 4    2  0.1060494E+006  0.2621121E+01  0.7546771E-02  0.2657426E+00
         22   -1    0    0    0    0  0.00000000000E+00  0.00000000000E+00  0.50086099728E+00  0.50086099728E+00  0.00000000000E+00 0. -1.
         22   -1    0    0    0    0 -0.00000000000E+00 -0.00000000000E+00 -0.13855591202E+02  0.13855591202E+02  0.00000000000E+00 0.  1.
          4    1    1    2  501    0  0.92055613094E-01 -0.26195037894E+01 -0.59592651466E+01  0.65102315954E+01  0.00000000000E+00 0. -1.
         -4    1    1    2    0  501 -0.92055613094E-01  0.26195037894E+01 -0.73954650582E+01  0.78462206039E+01  0.00000000000E+00 0.  1.
<mgrwt>
<rscale>  0 0.26211208E+01</rscale>
<asrwt>0</asrwt>
<pdfrwt beam="1">0</pdfrwt>
<pdfrwt beam="2">0</pdfrwt>
<totfact> 0.23382943E+12</totfact>
</mgrwt>
</event>
<event>
 4    2  0.1060494E+006  0.2388157E+01  0.7546771E-02  0.2759990E+00
         22   -1    0    0    0    0  0.00000000000E+00  0.00000000000E+00  0.11536715795E+02  0.11536715795E+02  0.00000000000E+00 0. -1.
         22   -1    0    0    0    0 -0.00000000000E+00 -0.00000000000E+00 -0.50773270116E+00  0.50773270116E+00  0.00000000000E+00 0.  1.
          4    1    1    2  501    0 -0.15598311133E+01 -0.18083753174E+01  0.64918275554E+01  0.69171612240E+01  0.00000000000E+00 0.  1.
         -4    1    1    2    0  501  0.15598311133E+01  0.18083753174E+01  0.45371555384E+01  0.51272872721E+01  0.00000000000E+00 0. -1.
<mgrwt>
<rscale>  0 0.23881571E+01</rscale>
<asrwt>0</asrwt>
<pdfrwt beam="1">0</pdfrwt>
<pdfrwt beam="2">0</pdfrwt>
<totfact> 0.28800538E+12</totfact>
</mgrwt>
</event>
<event>
 4    2  0.1060494E+006  0.4510608E+01  0.7546771E-02  0.2189165E+00
         22   -1    0    0    0    0  0.00000000000E+00  0.00000000000E+00  0.91607886189E+02  0.91607886189E+02  0.00000000000E+00 0. -1.
         22   -1    0    0    0    0 -0.00000000000E+00 -0.00000000000E+00 -0.55075364306E+00  0.55075364306E+00  0.00000000000E+00 0.  1.
          4    1    1    2  501    0 -0.37648887114E+01  0.24841901601E+01  0.99326337880E+01  0.10908840531E+02  0.00000000000E+00 0.  1.
         -4    1    1    2    0  501  0.37648887114E+01 -0.24841901601E+01  0.81124498758E+02  0.81249799301E+02  0.00000000000E+00 0. -1.
<mgrwt>
<rscale>  0 0.45106084E+01</rscale>
<asrwt>0</asrwt>
<pdfrwt beam="1">0</pdfrwt>
<pdfrwt beam="2">0</pdfrwt>
<totfact> 0.18191203E+11</totfact>
</mgrwt>
</event>
<event>
 4    2  0.1060494E+006  0.3304497E+01  0.7546771E-02  0.2433913E+00
         22   -1    0    0    0    0  0.00000000000E+00  0.00000000000E+00  0.35548684682E+02  0.35548684682E+02  0.00000000000E+00 0. -1.
         22   -1    0    0    0    0 -0.00000000000E+00 -0.00000000000E+00 -0.13066661537E+01  0.13066661537E+01  0.00000000000E+00 0.  1.
          4    1    1    2  501    0  0.31026179287E+01 -0.11373039076E+01  0.10042573381E+01  0.34537271158E+01  0.00000000000E+00 0.  1.
         -4    1    1    2    0  501 -0.31026179287E+01  0.11373039076E+01  0.33237761190E+02  0.33401623720E+02  0.00000000000E+00 0. -1.
<mgrwt>
<rscale>  0 0.33044967E+01</rscale>
<asrwt>0</asrwt>
<pdfrwt beam="1">0</pdfrwt>
<pdfrwt beam="2">0</pdfrwt>
<totfact> 0.24075168E+11</totfact>
</mgrwt>
</event>
<event>
 4    2  0.1060494E+006  0.2481659E+01  0.7546771E-02  0.2716672E+00
         22   -1    0    0    0    0  0.00000000000E+00  0.00000000000E+00  0.96738549823E+00  0.96738549823E+00  0.00000000000E+00 0. -1.
         22   -1    0    0    0    0 -0.00000000000E+00 -0.00000000000E+00 -0.97345451389E+01  0.97345451389E+01  0.00000000000E+00 0.  1.
          4    1    1    2  501    0  0.22742187291E+01  0.99325637521E+00 -0.75311732661E+01  0.79295144756E+01  0.00000000000E+00 0.  1.
         -4    1    1    2    0  501 -0.22742187291E+01 -0.99325637521E+00 -0.12359863746E+01  0.27724161615E+01  0.00000000000E+00 0. -1.
<mgrwt>
<rscale>  0 0.24816585E+01</rscale>
<asrwt>0</asrwt>
<pdfrwt beam="1">0</pdfrwt>
<pdfrwt beam="2">0</pdfrwt>
<totfact> 0.17025519E+12</totfact>
</mgrwt>
</event>
<event>
 4    2  0.1060494E+006  0.2020092E+01  0.7546771E-02  0.2967294E+00
         22   -1    0    0    0    0  0.00000000000E+00  0.00000000000E+00  0.10138666531E+02  0.10138666531E+02  0.00000000000E+00 0.  1.
         22   -1    0    0    0    0 -0.00000000000E+00 -0.00000000000E+00 -0.11365953093E+02  0.11365953093E+02  0.00000000000E+00 0. -1.
          4    1    1    2  501    0 -0.16291713638E+01 -0.11943914698E+01 -0.11173854508E+02  0.11354989867E+02  0.00000000000E+00 0. -1.
         -4    1    1    2    0  501  0.16291713638E+01  0.11943914698E+01  0.99465679453E+01  0.10149629757E+02  0.00000000000E+00 0.  1.
<mgrwt>
<rscale>  0 0.20200917E+01</rscale>
<asrwt>0</asrwt>
<pdfrwt beam="1">0</pdfrwt>
<pdfrwt beam="2">0</pdfrwt>
<totfact> 0.89913866E+10</totfact>
</mgrwt>
</event>
<event>
 4    2  0.1060494E+006  0.2671392E+01  0.7546771E-02  0.2637474E+00
         22   -1    0    0    0    0  0.00000000000E+00  0.00000000000E+00  0.53782539764E+01  0.53782539764E+01  0.00000000000E+00 0.  1.
         22   -1    0    0    0    0 -0.00000000000E+00 -0.00000000000E+00 -0.15734144665E+01  0.15734144665E+01  0.00000000000E+00 0. -1.
          4    1    1    2  501    0 -0.25041808182E+01  0.93027530105E+00  0.32782675748E+01  0.42288736087E+01  0.00000000000E+00 0.  1.
         -4    1    1    2    0  501  0.25041808182E+01 -0.93027530105E+00  0.52657193509E+00  0.27227948342E+01  0.00000000000E+00 0. -1.
<mgrwt>
<rscale>  0 0.26713917E+01</rscale>
<asrwt>0</asrwt>
<pdfrwt beam="1">0</pdfrwt>
<pdfrwt beam="2">0</pdfrwt>
<totfact> 0.19840108E+12</totfact>
</mgrwt>
</event>
<event>
 4    2  0.1060494E+006  0.2384856E+01  0.7546771E-02  0.2761578E+00
         22   -1    0    0    0    0  0.00000000000E+00  0.00000000000E+00  0.30653918056E+01  0.30653918056E+01  0.00000000000E+00 0.  1.
         22   -1    0    0    0    0 -0.00000000000E+00 -0.00000000000E+00 -0.21119976692E+01  0.21119976692E+01  0.00000000000E+00 0. -1.
          4    1    1    2  501    0  0.23410424222E+01  0.45503645867E+00  0.13790111998E+01  0.27548520270E+01  0.00000000000E+00 0.  1.
         -4    1    1    2    0  501 -0.23410424222E+01 -0.45503645867E+00 -0.42561706332E+00  0.24225374478E+01  0.00000000000E+00 0. -1.
<mgrwt>
<rscale>  0 0.23848559E+01</rscale>
<asrwt>0</asrwt>
<pdfrwt beam="1">0</pdfrwt>
<pdfrwt beam="2">0</pdfrwt>
<totfact> 0.27371525E+12</totfact>
</mgrwt>
</event>
<event>
 4    2  0.1060494E+006  0.2064839E+01  0.7546771E-02  0.2938292E+00
         22   -1    0    0    0    0  0.00000000000E+00  0.00000000000E+00  0.91443608815E+00  0.91443608815E+00  0.00000000000E+00 0. -1.
         22   -1    0    0    0    0 -0.00000000000E+00 -0.00000000000E+00 -0.98502290699E+01  0.98502290699E+01  0.00000000000E+00 0.  1.
          4    1    1    2  501    0 -0.11563295172E+01  0.17106907671E+01 -0.83739293225E+01  0.86247465558E+01  0.00000000000E+00 0.  1.
         -4    1    1    2    0  501  0.11563295172E+01 -0.17106907671E+01 -0.56186365928E+00  0.21399186023E+01  0.00000000000E+00 0. -1.
<mgrwt>
<rscale>  0 0.20648392E+01</rscale>
<asrwt>0</asrwt>
<pdfrwt beam="1">0</pdfrwt>
<pdfrwt beam="2">0</pdfrwt>
<totfact> 0.17895596E+12</totfact>
</mgrwt>
</event>
<event>
 4    2  0.1060494E+006  0.2802789E+01  0.7546771E-02  0.2588431E+00
         22   -1    0    0    0    0  0.00000000000E+00  0.00000000000E+00  0.34767370497E+02  0.34767370497E+02  0.00000000000E+00 0.  1.
         22   -1    0    0    0    0 -0.00000000000E+00 -0.00000000000E+00 -0.38539472252E+00  0.38539472252E+00  0.00000000000E+00 0. -1.
          4    1    1    2  501    0 -0.16184878641E+01  0.22882578970E+01  0.58856369350E+01  0.65189224033E+01  0.00000000000E+00 0. -1.
         -4    1    1    2    0  501  0.16184878641E+01 -0.22882578970E+01  0.28496338840E+02  0.28633842816E+02  0.00000000000E+00 0.  1.
<mgrwt>
<rscale>  0 0.28027892E+01</rscale>
<asrwt>0</asrwt>
<pdfrwt beam="1">0</pdfrwt>
<pdfrwt beam="2">0</pdfrwt>
<totfact> 0.99125812E+11</totfact>
</mgrwt>
</event>
<event>
 4    2  0.1060494E+006  0.2365085E+01  0.7546771E-02  0.2771173E+00
         22   -1    0    0    0    0  0.00000000000E+00  0.00000000000E+00  0.74887560016E+01  0.74887560016E+01  0.00000000000E+00 0. -1.
         22   -1    0    0    0    0 -0.00000000000E+00 -0.00000000000E+00 -0.74695802930E+00  0.74695802930E+00  0.00000000000E+00 0.  1.
          4    1    1    2  501    0 -0.19858186711E+01 -0.12845826887E+01  0.33927802842E+01  0.41357691589E+01  0.00000000000E+00 0. -1.
         -4    1    1    2    0  501  0.19858186711E+01  0.12845826887E+01  0.33490176880E+01  0.40999448720E+01  0.00000000000E+00 0.  1.
<mgrwt>
<rscale>  0 0.23650853E+01</rscale>
<asrwt>0</asrwt>
<pdfrwt beam="1">0</pdfrwt>
<pdfrwt beam="2">0</pdfrwt>
<totfact> 0.31343160E+12</totfact>
</mgrwt>
</event>
<event>
 4    2  0.1060494E+006  0.3467008E+01  0.7546771E-02  0.2392451E+00
         22   -1    0    0    0    0  0.00000000000E+00  0.00000000000E+00  0.28721772057E+02  0.28721772057E+02  0.00000000000E+00 0. -1.
         22   -1    0    0    0    0 -0.00000000000E+00 -0.00000000000E+00 -0.41856371354E+00  0.41856371354E+00  0.00000000000E+00 0.  1.
          4    1    1    2  501    0  0.12027743214E+01 -0.32516888701E+01  0.13976064492E+02  0.14399671012E+02  0.00000000000E+00 0.  1.
         -4    1    1    2    0  501 -0.12027743214E+01  0.32516888701E+01  0.14327143852E+02  0.14740664759E+02  0.00000000000E+00 0. -1.
<mgrwt>
<rscale>  0 0.34670083E+01</rscale>
<asrwt>0</asrwt>
<pdfrwt beam="1">0</pdfrwt>
<pdfrwt beam="2">0</pdfrwt>
<totfact> 0.11531580E+12</totfact>
</mgrwt>
</event>
<event>
 4    2  0.1060494E+006  0.4828088E+01  0.7546771E-02  0.2144100E+00
         22   -1    0    0    0    0  0.00000000000E+00  0.00000000000E+00  0.31221439795E+00  0.31221439795E+00  0.00000000000E+00 0. -1.
         22   -1    0    0    0    0 -0.00000000000E+00 -0.00000000000E+00 -0.75504621500E+02  0.75504621500E+02  0.00000000000E+00 0.  1.
          4    1    1    2  501    0  0.18140073829E+01  0.44743507246E+01 -0.41601728046E+02  0.41880952874E+02  0.00000000000E+00 0.  1.
         -4    1    1    2    0  501 -0.18140073829E+01 -0.44743507246E+01 -0.33590679056E+02  0.33935883024E+02  0.00000000000E+00 0. -1.
<mgrwt>
<rscale>  0 0.48280884E+01</rscale>
<asrwt>0</asrwt>
<pdfrwt beam="1">0</pdfrwt>
<pdfrwt beam="2">0</pdfrwt>
<totfact> 0.45013831E+11</totfact>
</mgrwt>
</event>
<event>
 4    2  0.1060494E+006  0.6180010E+01  0.7546771E-02  0.2003911E+00
         22   -1    0    0    0    0  0.00000000000E+00  0.00000000000E+00  0.16841579175E+02  0.16841579175E+02  0.00000000000E+00 0.  1.
         22   -1    0    0    0    0 -0.00000000000E+00 -0.00000000000E+00 -0.11055399823E+02  0.11055399823E+02  0.00000000000E+00 0. -1.
          4    1    1    2  501    0  0.43343409649E+01 -0.44052250065E+01 -0.95427834753E+01  0.11369135210E+02  0.00000000000E+00 0. -1.
         -4    1    1    2    0  501 -0.43343409649E+01  0.44052250065E+01  0.15328962827E+02  0.16527843789E+02  0.00000000000E+00 0.  1.
<mgrwt>
<rscale>  0 0.61800096E+01</rscale>
<asrwt>0</asrwt>
<pdfrwt beam="1">0</pdfrwt>
<pdfrwt beam="2">0</pdfrwt>
<totfact> 0.49981463E+10</totfact>
</mgrwt>
</event>
<event>
 4    2  0.1060494E+006  0.2005697E+01  0.7546771E-02  0.2976893E+00
         22   -1    0    0    0    0  0.00000000000E+00  0.00000000000E+00  0.49842456785E+01  0.49842456785E+01  0.00000000000E+00 0.  1.
         22   -1    0    0    0    0 -0.00000000000E+00 -0.00000000000E+00 -0.11211731567E+01  0.11211731567E+01  0.00000000000E+00 0. -1.
          4    1    1    2  501    0 -0.14336100529E+01 -0.14027047953E+01  0.31583956612E+00  0.20304120661E+01  0.00000000000E+00 0. -1.
         -4    1    1    2    0  501  0.14336100529E+01  0.14027047953E+01  0.35472329556E+01  0.40750067691E+01  0.00000000000E+00 0.  1.
<mgrwt>
<rscale>  0 0.20056965E+01</rscale>
<asrwt>0</asrwt>
<pdfrwt beam="1">0</pdfrwt>
<pdfrwt beam="2">0</pdfrwt>
<totfact> 0.32033492E+12</totfact>
</mgrwt>
</event>
<event>
 4    2  0.1060494E+006  0.2244402E+01  0.7546771E-02  0.2833203E+00
         22   -1    0    0    0    0  0.00000000000E+00  0.00000000000E+00  0.28095068487E+01  0.28095068487E+01  0.00000000000E+00 0. -1.
         22   -1    0    0    0    0 -0.00000000000E+00 -0.00000000000E+00 -0.10576171484E+02  0.10576171484E+02  0.00000000000E+00 0.  1.
          4    1    1    2  501    0 -0.22189742281E+01  0.33689002900E+00 -0.99825305010E+01  0.10231727944E+02  0.00000000000E+00 0.  1.
         -4    1    1    2    0  501  0.22189742281E+01 -0.33689002900E+00  0.22158658660E+01  0.31539503884E+01  0.00000000000E+00 0. -1.
<mgrwt>
<rscale>  0 0.22444023E+01</rscale>
<asrwt>0</asrwt>
<pdfrwt beam="1">0</pdfrwt>
<pdfrwt beam="2">0</pdfrwt>
<totfact> 0.45031253E+11</totfact>
</mgrwt>
</event>
<event>
 4    2  0.1060494E+006  0.2377626E+01  0.7546771E-02  0.2765069E+00
         22   -1    0    0    0    0  0.00000000000E+00  0.00000000000E+00  0.74859253553E+01  0.74859253553E+01  0.00000000000E+00 0.  1.
         22   -1    0    0    0    0 -0.00000000000E+00 -0.00000000000E+00 -0.14084191886E+01  0.14084191886E+01  0.00000000000E+00 0. -1.
          4    1    1    2  501    0  0.35810711212E+00 -0.23505029686E+01  0.10032132492E-01  0.23776470623E+01  0.00000000000E+00 0.  1.
         -4    1    1    2    0  501 -0.35810711212E+00  0.23505029686E+01  0.60674740343E+01  0.65166974815E+01  0.00000000000E+00 0. -1.
<mgrwt>
<rscale>  0 0.23776259E+01</rscale>
<asrwt>0</asrwt>
<pdfrwt beam="1">0</pdfrwt>
<pdfrwt beam="2">0</pdfrwt>
<totfact> 0.15192729E+12</totfact>
</mgrwt>
</event>
<event>
 4    2  0.1060494E+006  0.2689386E+01  0.7546771E-02  0.2630499E+00
         22   -1    0    0    0    0  0.00000000000E+00  0.00000000000E+00  0.18083647678E+01  0.18083647678E+01  0.00000000000E+00 0.  1.
         22   -1    0    0    0    0 -0.00000000000E+00 -0.00000000000E+00 -0.44875447320E+01  0.44875447320E+01  0.00000000000E+00 0. -1.
          4    1    1    2  501    0  0.17318395646E+01  0.20575541086E+01 -0.23775826281E+01  0.35896652129E+01  0.00000000000E+00 0. -1.
         -4    1    1    2    0  501 -0.17318395646E+01 -0.20575541086E+01 -0.30159733613E+00  0.27062442869E+01  0.00000000000E+00 0.  1.
<mgrwt>
<rscale>  0 0.26893860E+01</rscale>
<asrwt>0</asrwt>
<pdfrwt beam="1">0</pdfrwt>
<pdfrwt beam="2">0</pdfrwt>
<totfact> 0.20935743E+12</totfact>
</mgrwt>
</event>
<event>
 4    2  0.1060494E+006  0.2649746E+01  0.7546771E-02  0.2645980E+00
         22   -1    0    0    0    0  0.00000000000E+00  0.00000000000E+00  0.94041742801E+01  0.94041742801E+01  0.00000000000E+00 0. -1.
         22   -1    0    0    0    0 -0.00000000000E+00 -0.00000000000E+00 -0.10388113150E+01  0.10388113150E+01  0.00000000000E+00 0.  1.
          4    1    1    2  501    0  0.20460452522E+01  0.16837015843E+01  0.14133483405E+01  0.30031160035E+01  0.00000000000E+00 0. -1.
         -4    1    1    2    0  501 -0.20460452522E+01 -0.16837015843E+01  0.69520146247E+01  0.74398695916E+01  0.00000000000E+00 0.  1.
<mgrwt>
<rscale>  0 0.26497457E+01</rscale>
<asrwt>0</asrwt>
<pdfrwt beam="1">0</pdfrwt>
<pdfrwt beam="2">0</pdfrwt>
<totfact> 0.16364515E+12</totfact>
</mgrwt>
</event>
<event>
 4    2  0.1060494E+006  0.2354275E+01  0.7546771E-02  0.2776483E+00
         22   -1    0    0    0    0  0.00000000000E+00  0.00000000000E+00  0.42783924719E+00  0.42783924719E+00  0.00000000000E+00 0. -1.
         22   -1    0    0    0    0 -0.00000000000E+00 -0.00000000000E+00 -0.15064774727E+02  0.15064774727E+02  0.00000000000E+00 0.  1.
          4    1    1    2  501    0 -0.99720473681E+00 -0.21326497251E+01 -0.44195070521E+01  0.50074599070E+01  0.00000000000E+00 0. -1.
         -4    1    1    2    0  501  0.99720473681E+00  0.21326497251E+01 -0.10217428428E+02  0.10485154067E+02  0.00000000000E+00 0.  1.
<mgrwt>
<rscale>  0 0.23542753E+01</rscale>
<asrwt>0</asrwt>
<pdfrwt beam="1">0</pdfrwt>
<pdfrwt beam="2">0</pdfrwt>
<totfact> 0.25202142E+12</totfact>
</mgrwt>
</event>
<event>
 4    2  0.1060494E+006  0.2555176E+01  0.7546771E-02  0.2684693E+00
         22   -1    0    0    0    0  0.00000000000E+00  0.00000000000E+00  0.30694342433E+01  0.30694342433E+01  0.00000000000E+00 0.  1.
         22   -1    0    0    0    0 -0.00000000000E+00 -0.00000000000E+00 -0.46196061570E+01  0.46196061570E+01  0.00000000000E+00 0. -1.
          4    1    1    2  501    0  0.25228637020E+01  0.40507267271E+00 -0.35990537157E+01  0.44138546394E+01  0.00000000000E+00 0. -1.
         -4    1    1    2    0  501 -0.25228637020E+01 -0.40507267271E+00  0.20488818021E+01  0.32751857608E+01  0.00000000000E+00 0.  1.
<mgrwt>
<rscale>  0 0.25551761E+01</rscale>
<asrwt>0</asrwt>
<pdfrwt beam="1">0</pdfrwt>
<pdfrwt beam="2">0</pdfrwt>
<totfact> 0.10941565E+12</totfact>
</mgrwt>
</event>
<event>
 4    2  0.1060494E+006  0.4442986E+01  0.7546771E-02  0.2199851E+00
         22   -1    0    0    0    0  0.00000000000E+00  0.00000000000E+00  0.16496380638E+02  0.16496380638E+02  0.00000000000E+00 0.  1.
         22   -1    0    0    0    0 -0.00000000000E+00 -0.00000000000E+00 -0.12978268617E+01  0.12978268617E+01  0.00000000000E+00 0. -1.
          4    1    1    2  501    0  0.75960900168E+00 -0.43775701904E+01  0.51149104759E+01  0.67751336358E+01  0.00000000000E+00 0.  1.
         -4    1    1    2    0  501 -0.75960900168E+00  0.43775701904E+01  0.10083643301E+02  0.11019073864E+02  0.00000000000E+00 0. -1.
<mgrwt>
<rscale>  0 0.44429862E+01</rscale>
<asrwt>0</asrwt>
<pdfrwt beam="1">0</pdfrwt>
<pdfrwt beam="2">0</pdfrwt>
<totfact> 0.63841068E+11</totfact>
</mgrwt>
</event>
<event>
 4    2  0.1060494E+006  0.2523295E+01  0.7546771E-02  0.2698348E+00
         22   -1    0    0    0    0  0.00000000000E+00  0.00000000000E+00  0.11556407921E+01  0.11556407921E+01  0.00000000000E+00 0. -1.
         22   -1    0    0    0    0 -0.00000000000E+00 -0.00000000000E+00 -0.55297367012E+01  0.55297367012E+01  0.00000000000E+00 0.  1.
          4    1    1    2  501    0 -0.10135386647E+01 -0.23107913352E+01 -0.23892013220E+01  0.34749532625E+01  0.00000000000E+00 0.  1.
         -4    1    1    2    0  501  0.10135386647E+01  0.23107913352E+01 -0.19848945871E+01  0.32104242308E+01  0.00000000000E+00 0. -1.
<mgrwt>
<rscale>  0 0.25232949E+01</rscale>
<asrwt>0</asrwt>
<pdfrwt beam="1">0</pdfrwt>
<pdfrwt beam="2">0</pdfrwt>
<totfact> 0.27359850E+12</totfact>
</mgrwt>
</event>
<event>
 4    2  0.1060494E+006  0.2396014E+01  0.7546771E-02  0.2756228E+00
         22   -1    0    0    0    0  0.00000000000E+00  0.00000000000E+00  0.13005701769E+02  0.13005701769E+02  0.00000000000E+00 0.  1.
         22   -1    0    0    0    0 -0.00000000000E+00 -0.00000000000E+00 -0.46435039004E+00  0.46435039004E+00  0.00000000000E+00 0. -1.
          4    1    1    2  501    0 -0.16174619204E+01  0.17676826839E+01  0.77675622308E+01  0.81287088854E+01  0.00000000000E+00 0.  1.
         -4    1    1    2    0  501  0.16174619204E+01 -0.17676826839E+01  0.47737891478E+01  0.53413432732E+01  0.00000000000E+00 0. -1.
<mgrwt>
<rscale>  0 0.23960144E+01</rscale>
<asrwt>0</asrwt>
<pdfrwt beam="1">0</pdfrwt>
<pdfrwt beam="2">0</pdfrwt>
<totfact> 0.27520997E+12</totfact>
</mgrwt>
</event>
<event>
 4    2  0.1060494E+006  0.2225972E+01  0.7546771E-02  0.2843238E+00
         22   -1    0    0    0    0  0.00000000000E+00  0.00000000000E+00  0.13941763536E+01  0.13941763536E+01  0.00000000000E+00 0.  1.
         22   -1    0    0    0    0 -0.00000000000E+00 -0.00000000000E+00 -0.39831808078E+01  0.39831808078E+01  0.00000000000E+00 0. -1.
          4    1    1    2  501    0  0.18962157799E+01  0.11658967045E+01 -0.21770273830E+01  0.31135827652E+01  0.00000000000E+00 0. -1.
         -4    1    1    2    0  501 -0.18962157799E+01 -0.11658967045E+01 -0.41197707115E+00  0.22637743962E+01  0.00000000000E+00 0.  1.
<mgrwt>
<rscale>  0 0.22259716E+01</rscale>
<asrwt>0</asrwt>
<pdfrwt beam="1">0</pdfrwt>
<pdfrwt beam="2">0</pdfrwt>
<totfact> 0.32510550E+12</totfact>
</mgrwt>
</event>
<event>
 4    2  0.1060494E+006  0.2071373E+01  0.7546771E-02  0.2934159E+00
         22   -1    0    0    0    0  0.00000000000E+00  0.00000000000E+00  0.32883769531E+01  0.32883769531E+01  0.00000000000E+00 0.  1.
         22   -1    0    0    0    0 -0.00000000000E+00 -0.00000000000E+00 -0.25232958165E+01  0.25232958165E+01  0.00000000000E+00 0. -1.
          4    1    1    2  501    0  0.18553049716E+01  0.92110336735E+00 -0.16367730376E+01  0.26400026378E+01  0.00000000000E+00 0. -1.
         -4    1    1    2    0  501 -0.18553049716E+01 -0.92110336735E+00  0.24018541742E+01  0.31716701318E+01  0.00000000000E+00 0.  1.
<mgrwt>
<rscale>  0 0.20713734E+01</rscale>
<asrwt>0</asrwt>
<pdfrwt beam="1">0</pdfrwt>
<pdfrwt beam="2">0</pdfrwt>
<totfact> 0.20505693E+12</totfact>
</mgrwt>
</event>
<event>
 4    2  0.1060494E+006  0.2183160E+01  0.7546771E-02  0.2867174E+00
         22   -1    0    0    0    0  0.00000000000E+00  0.00000000000E+00  0.77764075291E+00  0.77764075291E+00  0.00000000000E+00 0. -1.
         22   -1    0    0    0    0 -0.00000000000E+00 -0.00000000000E+00 -0.62241145087E+01  0.62241145087E+01  0.00000000000E+00 0.  1.
          4    1    1    2  501    0 -0.20757817940E+01  0.67625131346E+00 -0.31559359895E+01  0.38374624253E+01  0.00000000000E+00 0. -1.
         -4    1    1    2    0  501  0.20757817940E+01 -0.67625131346E+00 -0.22905377663E+01  0.31642928363E+01  0.00000000000E+00 0.  1.
<mgrwt>
<rscale>  0 0.21831596E+01</rscale>
<asrwt>0</asrwt>
<pdfrwt beam="1">0</pdfrwt>
<pdfrwt beam="2">0</pdfrwt>
<totfact> 0.37348359E+12</totfact>
</mgrwt>
</event>
<event>
 4    2  0.1060494E+006  0.2429730E+01  0.7546771E-02  0.2740345E+00
         22   -1    0    0    0    0  0.00000000000E+00  0.00000000000E+00  0.26227614528E+02  0.26227614528E+02  0.00000000000E+00 0. -1.
         22   -1    0    0    0    0 -0.00000000000E+00 -0.00000000000E+00 -0.38068620689E+00  0.38068620689E+00  0.00000000000E+00 0.  1.
          4    1    1    2  501    0  0.91479122389E-01  0.24280069921E+01  0.44179141057E+01  0.50419789199E+01  0.00000000000E+00 0.  1.
         -4    1    1    2    0  501 -0.91479122389E-01 -0.24280069921E+01  0.21429014215E+02  0.21566321815E+02  0.00000000000E+00 0. -1.
<mgrwt>
<rscale>  0 0.24297297E+01</rscale>
<asrwt>0</asrwt>
<pdfrwt beam="1">0</pdfrwt>
<pdfrwt beam="2">0</pdfrwt>
<totfact> 0.14396670E+12</totfact>
</mgrwt>
</event>
<event>
 4    2  0.1060494E+006  0.2670375E+01  0.7546771E-02  0.2637871E+00
         22   -1    0    0    0    0  0.00000000000E+00  0.00000000000E+00  0.64742597466E+01  0.64742597466E+01  0.00000000000E+00 0. -1.
         22   -1    0    0    0    0 -0.00000000000E+00 -0.00000000000E+00 -0.56539530720E+01  0.56539530720E+01  0.00000000000E+00 0.  1.
          4    1    1    2  501    0 -0.40761191154E+00  0.26390822158E+01 -0.50313274129E+01  0.56960651285E+01  0.00000000000E+00 0.  1.
         -4    1    1    2    0  501  0.40761191154E+00 -0.26390822158E+01  0.58516340876E+01  0.64321476901E+01  0.00000000000E+00 0. -1.
<mgrwt>
<rscale>  0 0.26703750E+01</rscale>
<asrwt>0</asrwt>
<pdfrwt beam="1">0</pdfrwt>
<pdfrwt beam="2">0</pdfrwt>
<totfact> 0.35685811E+11</totfact>
</mgrwt>
</event>
<event>
 4    2  0.1060494E+006  0.2257218E+01  0.7546771E-02  0.2826316E+00
         22   -1    0    0    0    0  0.00000000000E+00  0.00000000000E+00  0.19306289702E+00  0.19306289702E+00  0.00000000000E+00 0. -1.
         22   -1    0    0    0    0 -0.00000000000E+00 -0.00000000000E+00 -0.49478403701E+02  0.49478403701E+02  0.00000000000E+00 0.  1.
          4    1    1    2  501    0 -0.14496248171E+01 -0.17302089769E+01 -0.41607947935E+02  0.41669129660E+02  0.00000000000E+00 0.  1.
         -4    1    1    2    0  501  0.14496248171E+01  0.17302089769E+01 -0.76773928690E+01  0.80023369386E+01  0.00000000000E+00 0. -1.
<mgrwt>
<rscale>  0 0.22572185E+01</rscale>
<asrwt>0</asrwt>
<pdfrwt beam="1">0</pdfrwt>
<pdfrwt beam="2">0</pdfrwt>
<totfact> 0.13581512E+12</totfact>
</mgrwt>
</event>
<event>
 4    2  0.1060494E+006  0.2661895E+01  0.7546771E-02  0.2641190E+00
         22   -1    0    0    0    0  0.00000000000E+00  0.00000000000E+00  0.16924057621E+01  0.16924057621E+01  0.00000000000E+00 0.  1.
         22   -1    0    0    0    0 -0.00000000000E+00 -0.00000000000E+00 -0.52251208257E+01  0.52251208257E+01  0.00000000000E+00 0. -1.
          4    1    1    2  501    0  0.24215298728E+01  0.11053861489E+01 -0.33082291513E+01  0.42461824715E+01  0.00000000000E+00 0. -1.
         -4    1    1    2    0  501 -0.24215298728E+01 -0.11053861489E+01 -0.22448591223E+00  0.26713441164E+01  0.00000000000E+00 0.  1.
<mgrwt>
<rscale>  0 0.26618951E+01</rscale>
<asrwt>0</asrwt>
<pdfrwt beam="1">0</pdfrwt>
<pdfrwt beam="2">0</pdfrwt>
<totfact> 0.18876888E+12</totfact>
</mgrwt>
</event>
<event>
 4    2  0.1060494E+006  0.3250419E+01  0.7546771E-02  0.2448516E+00
         22   -1    0    0    0    0  0.00000000000E+00  0.00000000000E+00  0.15836469834E+01  0.15836469834E+01  0.00000000000E+00 0.  1.
         22   -1    0    0    0    0 -0.00000000000E+00 -0.00000000000E+00 -0.13485062752E+02  0.13485062752E+02  0.00000000000E+00 0. -1.
          4    1    1    2  501    0 -0.32503945819E+01  0.12521513464E-01 -0.59510572428E+00  0.33044473894E+01  0.00000000000E+00 0.  1.
         -4    1    1    2    0  501  0.32503945819E+01 -0.12521513464E-01 -0.11306310045E+02  0.11764262346E+02  0.00000000000E+00 0. -1.
<mgrwt>
<rscale>  0 0.32504187E+01</rscale>
<asrwt>0</asrwt>
<pdfrwt beam="1">0</pdfrwt>
<pdfrwt beam="2">0</pdfrwt>
<totfact> 0.65076235E+11</totfact>
</mgrwt>
</event>
<event>
 4    2  0.1060494E+006  0.2250315E+01  0.7546771E-02  0.2830016E+00
         22   -1    0    0    0    0  0.00000000000E+00  0.00000000000E+00  0.25418497374E+01  0.25418497374E+01  0.00000000000E+00 0. -1.
         22   -1    0    0    0    0 -0.00000000000E+00 -0.00000000000E+00 -0.24523946169E+01  0.24523946169E+01  0.00000000000E+00 0.  1.
          4    1    1    2  501    0 -0.22205237621E+01  0.36495530394E+00 -0.10369728849E+01  0.24777471453E+01  0.00000000000E+00 0. -1.
         -4    1    1    2    0  501  0.22205237621E+01 -0.36495530394E+00  0.11264280054E+01  0.25164972090E+01  0.00000000000E+00 0.  1.
<mgrwt>
<rscale>  0 0.22503151E+01</rscale>
<asrwt>0</asrwt>
<pdfrwt beam="1">0</pdfrwt>
<pdfrwt beam="2">0</pdfrwt>
<totfact> 0.28629687E+12</totfact>
</mgrwt>
</event>
<event>
 4    2  0.1060494E+006  0.2239379E+01  0.7546771E-02  0.2835922E+00
         22   -1    0    0    0    0  0.00000000000E+00  0.00000000000E+00  0.82297178578E+01  0.82297178578E+01  0.00000000000E+00 0.  1.
         22   -1    0    0    0    0 -0.00000000000E+00 -0.00000000000E+00 -0.18434624987E+01  0.18434624987E+01  0.00000000000E+00 0. -1.
          4    1    1    2  501    0  0.16465294887E+01  0.15178134740E+01 -0.92780967338E+00  0.24239735743E+01  0.00000000000E+00 0. -1.
         -4    1    1    2    0  501 -0.16465294887E+01 -0.15178134740E+01  0.73140650325E+01  0.76492067823E+01  0.00000000000E+00 0.  1.
<mgrwt>
<rscale>  0 0.22393787E+01</rscale>
<asrwt>0</asrwt>
<pdfrwt beam="1">0</pdfrwt>
<pdfrwt beam="2">0</pdfrwt>
<totfact> 0.99432022E+11</totfact>
</mgrwt>
</event>
<event>
 4    2  0.1060494E+006  0.2363607E+01  0.7546771E-02  0.2771897E+00
         22   -1    0    0    0    0  0.00000000000E+00  0.00000000000E+00  0.43624806320E+01  0.43624806320E+01  0.00000000000E+00 0.  1.
         22   -1    0    0    0    0 -0.00000000000E+00 -0.00000000000E+00 -0.13905008349E+01  0.13905008349E+01  0.00000000000E+00 0. -1.
          4    1    1    2  501    0 -0.17123128542E+01 -0.16293009372E+01  0.67734500654E+00  0.24587462481E+01  0.00000000000E+00 0. -1.
         -4    1    1    2    0  501  0.17123128542E+01  0.16293009372E+01  0.22946347906E+01  0.32942352188E+01  0.00000000000E+00 0.  1.
<mgrwt>
<rscale>  0 0.23636067E+01</rscale>
<asrwt>0</asrwt>
<pdfrwt beam="1">0</pdfrwt>
<pdfrwt beam="2">0</pdfrwt>
<totfact> 0.29296335E+12</totfact>
</mgrwt>
</event>
<event>
 4    2  0.1060494E+006  0.2790121E+01  0.7546771E-02  0.2592975E+00
         22   -1    0    0    0    0  0.00000000000E+00  0.00000000000E+00  0.24216848420E+02  0.24216848420E+02  0.00000000000E+00 0. -1.
         22   -1    0    0    0    0 -0.00000000000E+00 -0.00000000000E+00 -0.98648469697E+00  0.98648469697E+00  0.00000000000E+00 0.  1.
          4    1    1    2  501    0 -0.26959295320E+01 -0.71884441467E+00  0.12684938377E+01  0.30649388167E+01  0.00000000000E+00 0.  1.
         -4    1    1    2    0  501  0.26959295320E+01  0.71884441467E+00  0.21961869885E+02  0.22138394300E+02  0.00000000000E+00 0. -1.
<mgrwt>
<rscale>  0 0.27901207E+01</rscale>
<asrwt>0</asrwt>
<pdfrwt beam="1">0</pdfrwt>
<pdfrwt beam="2">0</pdfrwt>
<totfact> 0.54138174E+11</totfact>
</mgrwt>
</event>
<event>
 4    2  0.1060494E+006  0.2226383E+01  0.7546771E-02  0.2843012E+00
         22   -1    0    0    0    0  0.00000000000E+00  0.00000000000E+00  0.21751122829E+02  0.21751122829E+02  0.00000000000E+00 0. -1.
         22   -1    0    0    0    0 -0.00000000000E+00 -0.00000000000E+00 -0.22843837201E+00  0.22843837201E+00  0.00000000000E+00 0.  1.
          4    1    1    2  501    0 -0.12629506180E+01 -0.18335041001E+01  0.10221052343E+02  0.10460721416E+02  0.00000000000E+00 0. -1.
         -4    1    1    2    0  501  0.12629506180E+01  0.18335041001E+01  0.11301632114E+02  0.11518839785E+02  0.00000000000E+00 0.  1.
<mgrwt>
<rscale>  0 0.22263831E+01</rscale>
<asrwt>0</asrwt>
<pdfrwt beam="1">0</pdfrwt>
<pdfrwt beam="2">0</pdfrwt>
<totfact> 0.32297128E+12</totfact>
</mgrwt>
</event>
<event>
 4    2  0.1060494E+006  0.2025505E+01  0.7546771E-02  0.2963719E+00
         22   -1    0    0    0    0  0.00000000000E+00  0.00000000000E+00  0.28018069208E+02  0.28018069208E+02  0.00000000000E+00 0. -1.
         22   -1    0    0    0    0 -0.00000000000E+00 -0.00000000000E+00 -0.15052719442E+00  0.15052719442E+00  0.00000000000E+00 0.  1.
          4    1    1    2  501    0 -0.59607025605E+00 -0.19358129835E+01  0.11609975513E+02  0.11785338479E+02  0.00000000000E+00 0.  1.
         -4    1    1    2    0  501  0.59607025605E+00  0.19358129835E+01  0.16257566501E+02  0.16383257923E+02  0.00000000000E+00 0. -1.
<mgrwt>
<rscale>  0 0.20255053E+01</rscale>
<asrwt>0</asrwt>
<pdfrwt beam="1">0</pdfrwt>
<pdfrwt beam="2">0</pdfrwt>
<totfact> 0.37362526E+12</totfact>
</mgrwt>
</event>
<event>
 4    2  0.1060494E+006  0.2118105E+01  0.7546771E-02  0.2905324E+00
         22   -1    0    0    0    0  0.00000000000E+00  0.00000000000E+00  0.38479261992E+00  0.38479261992E+00  0.00000000000E+00 0. -1.
         22   -1    0    0    0    0 -0.00000000000E+00 -0.00000000000E+00 -0.17567424678E+02  0.17567424678E+02  0.00000000000E+00 0.  1.
          4    1    1    2  501    0 -0.13867505313E+01  0.16010287342E+01 -0.13796821900E+02  0.13958462114E+02  0.00000000000E+00 0.  1.
         -4    1    1    2    0  501  0.13867505313E+01 -0.16010287342E+01 -0.33858101580E+01  0.39937551840E+01  0.00000000000E+00 0. -1.
<mgrwt>
<rscale>  0 0.21181053E+01</rscale>
<asrwt>0</asrwt>
<pdfrwt beam="1">0</pdfrwt>
<pdfrwt beam="2">0</pdfrwt>
<totfact> 0.23487321E+12</totfact>
</mgrwt>
</event>
<event>
 4    2  0.1060494E+006  0.2970077E+01  0.7546771E-02  0.2531721E+00
         22   -1    0    0    0    0  0.00000000000E+00  0.00000000000E+00  0.54818004265E+02  0.54818004265E+02  0.00000000000E+00 0. -1.
         22   -1    0    0    0    0 -0.00000000000E+00 -0.00000000000E+00 -0.27140523052E+00  0.27140523052E+00  0.00000000000E+00 0.  1.
          4    1    1    2  501    0 -0.14125261600E+01  0.26126858173E+01  0.96989383441E+01  0.10143508384E+02  0.00000000000E+00 0.  1.
         -4    1    1    2    0  501  0.14125261600E+01 -0.26126858173E+01  0.44847660690E+02  0.44945901111E+02  0.00000000000E+00 0. -1.
<mgrwt>
<rscale>  0 0.29700770E+01</rscale>
<asrwt>0</asrwt>
<pdfrwt beam="1">0</pdfrwt>
<pdfrwt beam="2">0</pdfrwt>
<totfact> 0.81059305E+11</totfact>
</mgrwt>
</event>
<event>
 4    2  0.1060494E+006  0.5384905E+01  0.7546771E-02  0.2079681E+00
         22   -1    0    0    0    0  0.00000000000E+00  0.00000000000E+00  0.12644791072E+02  0.12644791072E+02  0.00000000000E+00 0. -1.
         22   -1    0    0    0    0 -0.00000000000E+00 -0.00000000000E+00 -0.33984595385E+01  0.33984595385E+01  0.00000000000E+00 0.  1.
          4    1    1    2  501    0  0.31496768243E+01  0.43676930194E+01  0.48590359117E-01  0.53851246440E+01  0.00000000000E+00 0.  1.
         -4    1    1    2    0  501 -0.31496768243E+01 -0.43676930194E+01  0.91977411748E+01  0.10658125967E+02  0.00000000000E+00 0. -1.
<mgrwt>
<rscale>  0 0.53849054E+01</rscale>
<asrwt>0</asrwt>
<pdfrwt beam="1">0</pdfrwt>
<pdfrwt beam="2">0</pdfrwt>
<totfact> 0.29003802E+11</totfact>
</mgrwt>
</event>
<event>
 4    2  0.1060494E+006  0.5441488E+01  0.7546771E-02  0.2073722E+00
         22   -1    0    0    0    0  0.00000000000E+00  0.00000000000E+00  0.11019252273E+01  0.11019252273E+01  0.00000000000E+00 0. -1.
         22   -1    0    0    0    0 -0.00000000000E+00 -0.00000000000E+00 -0.27284959280E+02  0.27284959280E+02  0.00000000000E+00 0.  1.
          4    1    1    2  501    0  0.49718416737E+00  0.54187271382E+01 -0.14839843168E+02  0.15806034960E+02  0.00000000000E+00 0.  1.
         -4    1    1    2    0  501 -0.49718416737E+00 -0.54187271382E+01 -0.11343190884E+02  0.12580849547E+02  0.00000000000E+00 0. -1.
<mgrwt>
<rscale>  0 0.54414884E+01</rscale>
<asrwt>0</asrwt>
<pdfrwt beam="1">0</pdfrwt>
<pdfrwt beam="2">0</pdfrwt>
<totfact> 0.41033598E+11</totfact>
</mgrwt>
</event>
<event>
 4    2  0.1060494E+006  0.3605087E+01  0.7546771E-02  0.2359802E+00
         22   -1    0    0    0    0  0.00000000000E+00  0.00000000000E+00  0.39523459701E+00  0.39523459701E+00  0.00000000000E+00 0. -1.
         22   -1    0    0    0    0 -0.00000000000E+00 -0.00000000000E+00 -0.33869430561E+02  0.33869430561E+02  0.00000000000E+00 0.  1.
          4    1    1    2  501    0 -0.14395968586E+01 -0.33051802715E+01 -0.13813897303E+02  0.14276568721E+02  0.00000000000E+00 0.  1.
         -4    1    1    2    0  501  0.14395968586E+01  0.33051802715E+01 -0.19660298661E+02  0.19988096437E+02  0.00000000000E+00 0. -1.
<mgrwt>
<rscale>  0 0.36050875E+01</rscale>
<asrwt>0</asrwt>
<pdfrwt beam="1">0</pdfrwt>
<pdfrwt beam="2">0</pdfrwt>
<totfact> 0.99649068E+11</totfact>
</mgrwt>
</event>
<event>
 4    2  0.1060494E+006  0.2106881E+01  0.7546771E-02  0.2912137E+00
         22   -1    0    0    0    0  0.00000000000E+00  0.00000000000E+00  0.10907230260E+01  0.10907230260E+01  0.00000000000E+00 0. -1.
         22   -1    0    0    0    0 -0.00000000000E+00 -0.00000000000E+00 -0.10946949522E+02  0.10946949522E+02  0.00000000000E+00 0.  1.
          4    1    1    2  501    0 -0.31603697963E+00  0.20830426929E+01 -0.96987074185E+01  0.99249116784E+01  0.00000000000E+00 0.  1.
         -4    1    1    2    0  501  0.31603697963E+00 -0.20830426929E+01 -0.15751907760E+00  0.21127608697E+01  0.00000000000E+00 0. -1.
<mgrwt>
<rscale>  0 0.21068807E+01</rscale>
<asrwt>0</asrwt>
<pdfrwt beam="1">0</pdfrwt>
<pdfrwt beam="2">0</pdfrwt>
<totfact> 0.12874470E+12</totfact>
</mgrwt>
</event>
<event>
 4    2  0.1060494E+006  0.2969836E+01  0.7546771E-02  0.2531799E+00
         22   -1    0    0    0    0  0.00000000000E+00  0.00000000000E+00  0.23238191879E+00  0.23238191879E+00  0.00000000000E+00 0. -1.
         22   -1    0    0    0    0 -0.00000000000E+00 -0.00000000000E+00 -0.38361121822E+02  0.38361121822E+02  0.00000000000E+00 0.  1.
          4    1    1    2  501    0  0.10036599422E+01  0.27951019762E+01 -0.21051195064E+02  0.21259650561E+02  0.00000000000E+00 0. -1.
         -4    1    1    2    0  501 -0.10036599422E+01 -0.27951019762E+01 -0.17077544839E+02  0.17333853180E+02  0.00000000000E+00 0.  1.
<mgrwt>
<rscale>  0 0.29698364E+01</rscale>
<asrwt>0</asrwt>
<pdfrwt beam="1">0</pdfrwt>
<pdfrwt beam="2">0</pdfrwt>
<totfact> 0.15396416E+12</totfact>
</mgrwt>
</event>
<event>
 4    2  0.1060494E+006  0.2403734E+01  0.7546771E-02  0.2752555E+00
         22   -1    0    0    0    0  0.00000000000E+00  0.00000000000E+00  0.56369937132E+00  0.56369937132E+00  0.00000000000E+00 0.  1.
         22   -1    0    0    0    0 -0.00000000000E+00 -0.00000000000E+00 -0.74677007983E+02  0.74677007983E+02  0.00000000000E+00 0. -1.
          4    1    1    2  501    0 -0.17175511266E+01  0.16816522337E+01 -0.71999904367E+02  0.72040017802E+02  0.00000000000E+00 0. -1.
         -4    1    1    2    0  501  0.17175511266E+01 -0.16816522337E+01 -0.21134042452E+01  0.32006895524E+01  0.00000000000E+00 0.  1.
<mgrwt>
<rscale>  0 0.24037338E+01</rscale>
<asrwt>0</asrwt>
<pdfrwt beam="1">0</pdfrwt>
<pdfrwt beam="2">0</pdfrwt>
<totfact> 0.23486777E+11</totfact>
</mgrwt>
</event>
<event>
 4    2  0.1060494E+006  0.2797631E+01  0.7546771E-02  0.2590277E+00
         22   -1    0    0    0    0  0.00000000000E+00  0.00000000000E+00  0.63129333270E+00  0.63129333270E+00  0.00000000000E+00 0. -1.
         22   -1    0    0    0    0 -0.00000000000E+00 -0.00000000000E+00 -0.22033569906E+02  0.22033569906E+02  0.00000000000E+00 0.  1.
          4    1    1    2  501    0 -0.50416684786E+00  0.27518274853E+01 -0.18195258622E+02  0.18409078603E+02  0.00000000000E+00 0. -1.
         -4    1    1    2    0  501  0.50416684786E+00 -0.27518274853E+01 -0.32070179517E+01  0.42557846353E+01  0.00000000000E+00 0.  1.
<mgrwt>
<rscale>  0 0.27976309E+01</rscale>
<asrwt>0</asrwt>
<pdfrwt beam="1">0</pdfrwt>
<pdfrwt beam="2">0</pdfrwt>
<totfact> 0.10128306E+12</totfact>
</mgrwt>
</event>
<event>
 4    2  0.1060494E+006  0.2373032E+01  0.7546771E-02  0.2767298E+00
         22   -1    0    0    0    0  0.00000000000E+00  0.00000000000E+00  0.64410344291E+00  0.64410344291E+00  0.00000000000E+00 0. -1.
         22   -1    0    0    0    0 -0.00000000000E+00 -0.00000000000E+00 -0.12807718705E+02  0.12807718705E+02  0.00000000000E+00 0.  1.
          4    1    1    2  501    0 -0.10063904445E+01 -0.21490599581E+01 -0.98709427932E+01  0.10152181640E+02  0.00000000000E+00 0.  1.
         -4    1    1    2    0  501  0.10063904445E+01  0.21490599581E+01 -0.22926724690E+01  0.32996405077E+01  0.00000000000E+00 0. -1.
<mgrwt>
<rscale>  0 0.23730319E+01</rscale>
<asrwt>0</asrwt>
<pdfrwt beam="1">0</pdfrwt>
<pdfrwt beam="2">0</pdfrwt>
<totfact> 0.19369368E+12</totfact>
</mgrwt>
</event>
<event>
 4    2  0.1060494E+006  0.2575775E+01  0.7546771E-02  0.2676037E+00
         22   -1    0    0    0    0  0.00000000000E+00  0.00000000000E+00  0.43166190206E+01  0.43166190206E+01  0.00000000000E+00 0. -1.
         22   -1    0    0    0    0 -0.00000000000E+00 -0.00000000000E+00 -0.41789578794E+01  0.41789578794E+01  0.00000000000E+00 0.  1.
          4    1    1    2  501    0 -0.29747357877E+00  0.25585402402E+01 -0.33086456393E+01  0.41930602973E+01  0.00000000000E+00 0.  1.
         -4    1    1    2    0  501  0.29747357877E+00 -0.25585402402E+01  0.34463067804E+01  0.43025166026E+01  0.00000000000E+00 0. -1.
<mgrwt>
<rscale>  0 0.25757754E+01</rscale>
<asrwt>0</asrwt>
<pdfrwt beam="1">0</pdfrwt>
<pdfrwt beam="2">0</pdfrwt>
<totfact> 0.82528710E+11</totfact>
</mgrwt>
</event>
<event>
 4    2  0.1060494E+006  0.2569327E+01  0.7546771E-02  0.2678733E+00
         22   -1    0    0    0    0  0.00000000000E+00  0.00000000000E+00  0.11887720010E+01  0.11887720010E+01  0.00000000000E+00 0.  1.
         22   -1    0    0    0    0 -0.00000000000E+00 -0.00000000000E+00 -0.25074430077E+02  0.25074430077E+02  0.00000000000E+00 0. -1.
          4    1    1    2  501    0  0.21995779006E+01 -0.13278929452E+01 -0.23529433070E+02  0.23669297903E+02  0.00000000000E+00 0. -1.
         -4    1    1    2    0  501 -0.21995779006E+01  0.13278929452E+01 -0.35622500594E+00  0.25939041751E+01  0.00000000000E+00 0.  1.
<mgrwt>
<rscale>  0 0.25693273E+01</rscale>
<asrwt>0</asrwt>
<pdfrwt beam="1">0</pdfrwt>
<pdfrwt beam="2">0</pdfrwt>
<totfact> 0.41860960E+11</totfact>
</mgrwt>
</event>
<event>
 4    2  0.1060494E+006  0.2527917E+01  0.7546771E-02  0.2696349E+00
         22   -1    0    0    0    0  0.00000000000E+00  0.00000000000E+00  0.80033811989E+01  0.80033811989E+01  0.00000000000E+00 0.  1.
         22   -1    0    0    0    0 -0.00000000000E+00 -0.00000000000E+00 -0.15113489260E+02  0.15113489260E+02  0.00000000000E+00 0. -1.
          4    1    1    2  501    0  0.23274864729E+01  0.98649452272E+00 -0.14804025656E+02  0.15018306840E+02  0.00000000000E+00 0. -1.
         -4    1    1    2    0  501 -0.23274864729E+01 -0.98649452272E+00  0.76939175950E+01  0.80985636185E+01  0.00000000000E+00 0.  1.
<mgrwt>
<rscale>  0 0.25279171E+01</rscale>
<asrwt>0</asrwt>
<pdfrwt beam="1">0</pdfrwt>
<pdfrwt beam="2">0</pdfrwt>
<totfact> 0.84398649E+10</totfact>
</mgrwt>
</event>
<event>
 4    2  0.1060494E+006  0.3954974E+01  0.7546771E-02  0.2285985E+00
         22   -1    0    0    0    0  0.00000000000E+00  0.00000000000E+00  0.76563533511E+01  0.76563533511E+01  0.00000000000E+00 0.  1.
         22   -1    0    0    0    0 -0.00000000000E+00 -0.00000000000E+00 -0.32464271463E+01  0.32464271463E+01  0.00000000000E+00 0. -1.
          4    1    1    2  501    0 -0.26968187956E+01 -0.28929200819E+01 -0.11141112111E+01  0.41089003404E+01  0.00000000000E+00 0. -1.
         -4    1    1    2    0  501  0.26968187956E+01  0.28929200819E+01  0.55240374158E+01  0.67938801570E+01  0.00000000000E+00 0.  1.
<mgrwt>
<rscale>  0 0.39549739E+01</rscale>
<asrwt>0</asrwt>
<pdfrwt beam="1">0</pdfrwt>
<pdfrwt beam="2">0</pdfrwt>
<totfact> 0.56164213E+11</totfact>
</mgrwt>
</event>
<event>
 4    2  0.1060494E+006  0.2500167E+01  0.7546771E-02  0.2708457E+00
         22   -1    0    0    0    0  0.00000000000E+00  0.00000000000E+00  0.19072174771E+00  0.19072174771E+00  0.00000000000E+00 0.  1.
         22   -1    0    0    0    0 -0.00000000000E+00 -0.00000000000E+00 -0.40445902832E+02  0.40445902832E+02  0.00000000000E+00 0. -1.
          4    1    1    2  501    0  0.17125127526E+01  0.18215747947E+01 -0.11278796511E+02  0.11552579167E+02  0.00000000000E+00 0.  1.
         -4    1    1    2    0  501 -0.17125127526E+01 -0.18215747947E+01 -0.28976384573E+02  0.29084045413E+02  0.00000000000E+00 0. -1.
<mgrwt>
<rscale>  0 0.25001669E+01</rscale>
<asrwt>0</asrwt>
<pdfrwt beam="1">0</pdfrwt>
<pdfrwt beam="2">0</pdfrwt>
<totfact> 0.17922065E+12</totfact>
</mgrwt>
</event>
<event>
 4    2  0.1060494E+006  0.2673920E+01  0.7546771E-02  0.2636489E+00
         22   -1    0    0    0    0  0.00000000000E+00  0.00000000000E+00  0.16847337660E+02  0.16847337660E+02  0.00000000000E+00 0. -1.
         22   -1    0    0    0    0 -0.00000000000E+00 -0.00000000000E+00 -0.63610792410E+00  0.63610792410E+00  0.00000000000E+00 0.  1.
          4    1    1    2  501    0  0.90382707437E+00 -0.25165340216E+01  0.30623692177E+01  0.40654584105E+01  0.00000000000E+00 0.  1.
         -4    1    1    2    0  501 -0.90382707437E+00  0.25165340216E+01  0.13148860519E+02  0.13417987174E+02  0.00000000000E+00 0. -1.
<mgrwt>
<rscale>  0 0.26739198E+01</rscale>
<asrwt>0</asrwt>
<pdfrwt beam="1">0</pdfrwt>
<pdfrwt beam="2">0</pdfrwt>
<totfact> 0.14024332E+12</totfact>
</mgrwt>
</event>
<event>
 4    2  0.1060494E+006  0.3313373E+01  0.7546771E-02  0.2431556E+00
         22   -1    0    0    0    0  0.00000000000E+00  0.00000000000E+00  0.31086773009E+01  0.31086773009E+01  0.00000000000E+00 0. -1.
         22   -1    0    0    0    0 -0.00000000000E+00 -0.00000000000E+00 -0.40303794970E+01  0.40303794970E+01  0.00000000000E+00 0.  1.
          4    1    1    2  501    0  0.28577233292E+01  0.16768588995E+01 -0.17166365990E+01  0.37316590959E+01  0.00000000000E+00 0.  1.
         -4    1    1    2    0  501 -0.28577233292E+01 -0.16768588995E+01  0.79493440296E+00  0.34073977021E+01  0.00000000000E+00 0. -1.
<mgrwt>
<rscale>  0 0.33133727E+01</rscale>
<asrwt>0</asrwt>
<pdfrwt beam="1">0</pdfrwt>
<pdfrwt beam="2">0</pdfrwt>
<totfact> 0.12662350E+12</totfact>
</mgrwt>
</event>
<event>
 4    2  0.1060494E+006  0.2485699E+01  0.7546771E-02  0.2714869E+00
         22   -1    0    0    0    0  0.00000000000E+00  0.00000000000E+00  0.29470628562E+01  0.29470628562E+01  0.00000000000E+00 0. -1.
         22   -1    0    0    0    0 -0.00000000000E+00 -0.00000000000E+00 -0.24748564756E+01  0.24748564756E+01  0.00000000000E+00 0.  1.
          4    1    1    2  501    0 -0.19712421020E+01 -0.15142330168E+01 -0.82379370439E+00  0.26186510117E+01  0.00000000000E+00 0.  1.
         -4    1    1    2    0  501  0.19712421020E+01  0.15142330168E+01  0.12960000850E+01  0.28032683200E+01  0.00000000000E+00 0. -1.
<mgrwt>
<rscale>  0 0.24856985E+01</rscale>
<asrwt>0</asrwt>
<pdfrwt beam="1">0</pdfrwt>
<pdfrwt beam="2">0</pdfrwt>
<totfact> 0.23842072E+12</totfact>
</mgrwt>
</event>
<event>
 4    2  0.1060494E+006  0.2233321E+01  0.7546771E-02  0.2839217E+00
         22   -1    0    0    0    0  0.00000000000E+00  0.00000000000E+00  0.46481670389E+00  0.46481670389E+00  0.00000000000E+00 0.  1.
         22   -1    0    0    0    0 -0.00000000000E+00 -0.00000000000E+00 -0.11715278101E+02  0.11715278101E+02  0.00000000000E+00 0. -1.
          4    1    1    2  501    0 -0.98173224235E+00  0.20059720801E+01 -0.73909044474E+01  0.77209578896E+01  0.00000000000E+00 0. -1.
         -4    1    1    2    0  501  0.98173224235E+00 -0.20059720801E+01 -0.38595569499E+01  0.44591369156E+01  0.00000000000E+00 0.  1.
<mgrwt>
<rscale>  0 0.22333209E+01</rscale>
<asrwt>0</asrwt>
<pdfrwt beam="1">0</pdfrwt>
<pdfrwt beam="2">0</pdfrwt>
<totfact> 0.31229081E+12</totfact>
</mgrwt>
</event>
<event>
 4    2  0.1060494E+006  0.2324462E+01  0.7546771E-02  0.2791371E+00
         22   -1    0    0    0    0  0.00000000000E+00  0.00000000000E+00  0.85354192454E+02  0.85354192454E+02  0.00000000000E+00 0. -1.
         22   -1    0    0    0    0 -0.00000000000E+00 -0.00000000000E+00 -0.65110297039E-01  0.65110297039E-01  0.00000000000E+00 0.  1.
          4    1    1    2  501    0  0.20503891396E+01 -0.10950018890E+01  0.35527676556E+02  0.35603636418E+02  0.00000000000E+00 0.  1.
         -4    1    1    2    0  501 -0.20503891396E+01  0.10950018890E+01  0.49761405602E+02  0.49815666333E+02  0.00000000000E+00 0. -1.
<mgrwt>
<rscale>  0 0.23244623E+01</rscale>
<asrwt>0</asrwt>
<pdfrwt beam="1">0</pdfrwt>
<pdfrwt beam="2">0</pdfrwt>
<totfact> 0.21717532E+12</totfact>
</mgrwt>
</event>
<event>
 4    2  0.1060494E+006  0.2309131E+01  0.7546771E-02  0.2799168E+00
         22   -1    0    0    0    0  0.00000000000E+00  0.00000000000E+00  0.29611070847E+01  0.29611070847E+01  0.00000000000E+00 0. -1.
         22   -1    0    0    0    0 -0.00000000000E+00 -0.00000000000E+00 -0.36962075815E+01  0.36962075815E+01  0.00000000000E+00 0.  1.
          4    1    1    2  501    0 -0.53516555132E-01  0.23085108406E+01 -0.27512572431E+01  0.35918661919E+01  0.00000000000E+00 0.  1.
         -4    1    1    2    0  501  0.53516555132E-01 -0.23085108406E+01  0.20161567463E+01  0.30654484743E+01  0.00000000000E+00 0. -1.
<mgrwt>
<rscale>  0 0.23091311E+01</rscale>
<asrwt>0</asrwt>
<pdfrwt beam="1">0</pdfrwt>
<pdfrwt beam="2">0</pdfrwt>
<totfact> 0.14837704E+12</totfact>
</mgrwt>
</event>
<event>
 4    2  0.1060494E+006  0.3434961E+01  0.7546771E-02  0.2400355E+00
         22   -1    0    0    0    0  0.00000000000E+00  0.00000000000E+00  0.61520451677E+02  0.61520451677E+02  0.00000000000E+00 0. -1.
         22   -1    0    0    0    0 -0.00000000000E+00 -0.00000000000E+00 -0.19282519176E+00  0.19282519176E+00  0.00000000000E+00 0.  1.
          4    1    1    2  501    0  0.15219609650E+01  0.30793817238E+01  0.28402039952E+02  0.28608999116E+02  0.00000000000E+00 0.  1.
         -4    1    1    2    0  501 -0.15219609650E+01 -0.30793817238E+01  0.32925586533E+02  0.33104277753E+02  0.00000000000E+00 0. -1.
<mgrwt>
<rscale>  0 0.34349610E+01</rscale>
<asrwt>0</asrwt>
<pdfrwt beam="1">0</pdfrwt>
<pdfrwt beam="2">0</pdfrwt>
<totfact> 0.10181717E+12</totfact>
</mgrwt>
</event>
<event>
 4    2  0.1060494E+006  0.3227711E+01  0.7546771E-02  0.2454776E+00
         22   -1    0    0    0    0  0.00000000000E+00  0.00000000000E+00  0.24773691272E+01  0.24773691272E+01  0.00000000000E+00 0. -1.
         22   -1    0    0    0    0 -0.00000000000E+00 -0.00000000000E+00 -0.77124075857E+01  0.77124075857E+01  0.00000000000E+00 0.  1.
          4    1    1    2  501    0 -0.29445243179E+01  0.13220808806E+01 -0.60532031853E+01  0.68599847023E+01  0.00000000000E+00 0.  1.
         -4    1    1    2    0  501  0.29445243179E+01 -0.13220808806E+01  0.81816472692E+00  0.33297920106E+01  0.00000000000E+00 0. -1.
<mgrwt>
<rscale>  0 0.32277115E+01</rscale>
<asrwt>0</asrwt>
<pdfrwt beam="1">0</pdfrwt>
<pdfrwt beam="2">0</pdfrwt>
<totfact> 0.76319955E+11</totfact>
</mgrwt>
</event>
<event>
 4    2  0.1060494E+006  0.2195050E+01  0.7546771E-02  0.2860436E+00
         22   -1    0    0    0    0  0.00000000000E+00  0.00000000000E+00  0.90090747799E+00  0.90090747799E+00  0.00000000000E+00 0.  1.
         22   -1    0    0    0    0 -0.00000000000E+00 -0.00000000000E+00 -0.33003294755E+02  0.33003294755E+02  0.00000000000E+00 0. -1.
          4    1    1    2  501    0  0.82940887549E-01 -0.21934828522E+01 -0.31569072192E+02  0.31645292940E+02  0.00000000000E+00 0. -1.
         -4    1    1    2    0  501 -0.82940887549E-01  0.21934828522E+01 -0.53331508524E+00  0.22589092929E+01  0.00000000000E+00 0.  1.
<mgrwt>
<rscale>  0 0.21950504E+01</rscale>
<asrwt>0</asrwt>
<pdfrwt beam="1">0</pdfrwt>
<pdfrwt beam="2">0</pdfrwt>
<totfact> 0.40520048E+11</totfact>
</mgrwt>
</event>
<event>
 4    2  0.1060494E+006  0.2860154E+01  0.7546771E-02  0.2568309E+00
         22   -1    0    0    0    0  0.00000000000E+00  0.00000000000E+00  0.50816232002E+00  0.50816232002E+00  0.00000000000E+00 0. -1.
         22   -1    0    0    0    0 -0.00000000000E+00 -0.00000000000E+00 -0.28867432973E+02  0.28867432973E+02  0.00000000000E+00 0.  1.
          4    1    1    2  501    0 -0.16071073189E+01  0.23659425598E+01 -0.23948310977E+02  0.24118500716E+02  0.00000000000E+00 0.  1.
         -4    1    1    2    0  501  0.16071073189E+01 -0.23659425598E+01 -0.44109596766E+01  0.52570945778E+01  0.00000000000E+00 0. -1.
<mgrwt>
<rscale>  0 0.28601535E+01</rscale>
<asrwt>0</asrwt>
<pdfrwt beam="1">0</pdfrwt>
<pdfrwt beam="2">0</pdfrwt>
<totfact> 0.92060863E+11</totfact>
</mgrwt>
</event>
<event>
 4    2  0.1060494E+006  0.3090192E+01  0.7546771E-02  0.2494425E+00
         22   -1    0    0    0    0  0.00000000000E+00  0.00000000000E+00  0.43456940979E+01  0.43456940979E+01  0.00000000000E+00 0. -1.
         22   -1    0    0    0    0 -0.00000000000E+00 -0.00000000000E+00 -0.24299293308E+01  0.24299293308E+01  0.00000000000E+00 0.  1.
          4    1    1    2  501    0 -0.17575871491E-01 -0.30901423469E+01  0.20058511268E+01  0.36841182633E+01  0.00000000000E+00 0. -1.
         -4    1    1    2    0  501  0.17575871491E-01  0.30901423469E+01 -0.90086359650E-01  0.30915051654E+01  0.00000000000E+00 0.  1.
<mgrwt>
<rscale>  0 0.30901923E+01</rscale>
<asrwt>0</asrwt>
<pdfrwt beam="1">0</pdfrwt>
<pdfrwt beam="2">0</pdfrwt>
<totfact> 0.15441446E+12</totfact>
</mgrwt>
</event>
<event>
 4    2  0.1060494E+006  0.2494891E+01  0.7546771E-02  0.2710787E+00
         22   -1    0    0    0    0  0.00000000000E+00  0.00000000000E+00  0.14716853223E+01  0.14716853223E+01  0.00000000000E+00 0. -1.
         22   -1    0    0    0    0 -0.00000000000E+00 -0.00000000000E+00 -0.15747975135E+02  0.15747975135E+02  0.00000000000E+00 0.  1.
          4    1    1    2  501    0 -0.23700187669E+01 -0.77941672761E+00 -0.14501570413E+02  0.14714619392E+02  0.00000000000E+00 0.  1.
         -4    1    1    2    0  501  0.23700187669E+01  0.77941672761E+00  0.22528060074E+00  0.25050410655E+01  0.00000000000E+00 0. -1.
<mgrwt>
<rscale>  0 0.24948907E+01</rscale>
<asrwt>0</asrwt>
<pdfrwt beam="1">0</pdfrwt>
<pdfrwt beam="2">0</pdfrwt>
<totfact> 0.58513489E+11</totfact>
</mgrwt>
</event>
<event>
 4    2  0.1060494E+006  0.4377158E+01  0.7546771E-02  0.2210519E+00
         22   -1    0    0    0    0  0.00000000000E+00  0.00000000000E+00  0.12872410404E+01  0.12872410404E+01  0.00000000000E+00 0.  1.
         22   -1    0    0    0    0 -0.00000000000E+00 -0.00000000000E+00 -0.14887231574E+02  0.14887231574E+02  0.00000000000E+00 0. -1.
          4    1    1    2  501    0  0.20926769782E+01  0.38445047648E+01 -0.66840103250E+01  0.79897126260E+01  0.00000000000E+00 0.  1.
         -4    1    1    2    0  501 -0.20926769782E+01 -0.38445047648E+01 -0.69159802081E+01  0.81847599880E+01  0.00000000000E+00 0. -1.
<mgrwt>
<rscale>  0 0.43771582E+01</rscale>
<asrwt>0</asrwt>
<pdfrwt beam="1">0</pdfrwt>
<pdfrwt beam="2">0</pdfrwt>
<totfact> 0.73137511E+11</totfact>
</mgrwt>
</event>
<event>
 4    2  0.1060494E+006  0.2158504E+01  0.7546771E-02  0.2881372E+00
         22   -1    0    0    0    0  0.00000000000E+00  0.00000000000E+00  0.46975862709E+01  0.46975862709E+01  0.00000000000E+00 0.  1.
         22   -1    0    0    0    0 -0.00000000000E+00 -0.00000000000E+00 -0.10032144865E+01  0.10032144865E+01  0.00000000000E+00 0. -1.
          4    1    1    2  501    0  0.81164797294E+00 -0.20000922191E+01  0.15433548165E+01  0.26535043634E+01  0.00000000000E+00 0.  1.
         -4    1    1    2    0  501 -0.81164797294E+00  0.20000922191E+01  0.21510169679E+01  0.30472963940E+01  0.00000000000E+00 0. -1.
<mgrwt>
<rscale>  0 0.21585044E+01</rscale>
<asrwt>0</asrwt>
<pdfrwt beam="1">0</pdfrwt>
<pdfrwt beam="2">0</pdfrwt>
<totfact> 0.39016162E+12</totfact>
</mgrwt>
</event>
<event>
 4    2  0.1060494E+006  0.2122332E+01  0.7546771E-02  0.2902777E+00
         22   -1    0    0    0    0  0.00000000000E+00  0.00000000000E+00  0.27727554586E+01  0.27727554586E+01  0.00000000000E+00 0. -1.
         22   -1    0    0    0    0 -0.00000000000E+00 -0.00000000000E+00 -0.17800020018E+01  0.17800020018E+01  0.00000000000E+00 0.  1.
          4    1    1    2  501    0 -0.20813974433E+01 -0.41482027045E+00 -0.17648756143E+00  0.21296570224E+01  0.00000000000E+00 0.  1.
         -4    1    1    2    0  501  0.20813974433E+01  0.41482027045E+00  0.11692410183E+01  0.24231004380E+01  0.00000000000E+00 0. -1.
<mgrwt>
<rscale>  0 0.21223315E+01</rscale>
<asrwt>0</asrwt>
<pdfrwt beam="1">0</pdfrwt>
<pdfrwt beam="2">0</pdfrwt>
<totfact> 0.37502437E+12</totfact>
</mgrwt>
</event>
<event>
 4    2  0.1060494E+006  0.2610130E+01  0.7546771E-02  0.2661882E+00
         22   -1    0    0    0    0  0.00000000000E+00  0.00000000000E+00  0.60738705289E+00  0.60738705289E+00  0.00000000000E+00 0.  1.
         22   -1    0    0    0    0 -0.00000000000E+00 -0.00000000000E+00 -0.11631926799E+02  0.11631926799E+02  0.00000000000E+00 0. -1.
          4    1    1    2  501    0 -0.21633163610E+01  0.14604255543E+01 -0.66687234156E+01  0.71613303562E+01  0.00000000000E+00 0. -1.
         -4    1    1    2    0  501  0.21633163610E+01 -0.14604255543E+01 -0.43558163307E+01  0.50779834958E+01  0.00000000000E+00 0.  1.
<mgrwt>
<rscale>  0 0.26101304E+01</rscale>
<asrwt>0</asrwt>
<pdfrwt beam="1">0</pdfrwt>
<pdfrwt beam="2">0</pdfrwt>
<totfact> 0.23282747E+12</totfact>
</mgrwt>
</event>
<event>
 4    2  0.1060494E+006  0.2489244E+01  0.7546771E-02  0.2713291E+00
         22   -1    0    0    0    0  0.00000000000E+00  0.00000000000E+00  0.32486227214E+01  0.32486227214E+01  0.00000000000E+00 0.  1.
         22   -1    0    0    0    0 -0.00000000000E+00 -0.00000000000E+00 -0.19194418497E+01  0.19194418497E+01  0.00000000000E+00 0. -1.
          4    1    1    2  501    0  0.12293495100E-01  0.24892137984E+01  0.86948798313E+00  0.26367301373E+01  0.00000000000E+00 0. -1.
         -4    1    1    2    0  501 -0.12293495100E-01 -0.24892137984E+01  0.45969288854E+00  0.25313344338E+01  0.00000000000E+00 0.  1.
<mgrwt>
<rscale>  0 0.24892442E+01</rscale>
<asrwt>0</asrwt>
<pdfrwt beam="1">0</pdfrwt>
<pdfrwt beam="2">0</pdfrwt>
<totfact> 0.28567718E+12</totfact>
</mgrwt>
</event>
<event>
 4    2  0.1060494E+006  0.3049633E+01  0.7546771E-02  0.2506724E+00
         22   -1    0    0    0    0  0.00000000000E+00  0.00000000000E+00  0.38996829230E+01  0.38996829230E+01  0.00000000000E+00 0.  1.
         22   -1    0    0    0    0 -0.00000000000E+00 -0.00000000000E+00 -0.86372750622E+01  0.86372750622E+01  0.00000000000E+00 0. -1.
          4    1    1    2  501    0 -0.11120049160E+01 -0.28396668618E+01 -0.77021096690E+01  0.82838853307E+01  0.00000000000E+00 0. -1.
         -4    1    1    2    0  501  0.11120049160E+01  0.28396668618E+01  0.29645175298E+01  0.42530726544E+01  0.00000000000E+00 0.  1.
<mgrwt>
<rscale>  0 0.30496332E+01</rscale>
<asrwt>0</asrwt>
<pdfrwt beam="1">0</pdfrwt>
<pdfrwt beam="2">0</pdfrwt>
<totfact> 0.39184027E+11</totfact>
</mgrwt>
</event>
<event>
 4    2  0.1060494E+006  0.3142161E+01  0.7546771E-02  0.2479079E+00
         22   -1    0    0    0    0  0.00000000000E+00  0.00000000000E+00  0.14761736833E+01  0.14761736833E+01  0.00000000000E+00 0.  1.
         22   -1    0    0    0    0 -0.00000000000E+00 -0.00000000000E+00 -0.19476476129E+02  0.19476476129E+02  0.00000000000E+00 0. -1.
          4    1    1    2  501    0 -0.64099112240E-01  0.31415070733E+01 -0.17489162645E+02  0.17769186402E+02  0.00000000000E+00 0. -1.
         -4    1    1    2    0  501  0.64099112240E-01 -0.31415070733E+01 -0.51113980116E+00  0.31834634102E+01  0.00000000000E+00 0.  1.
<mgrwt>
<rscale>  0 0.31421609E+01</rscale>
<asrwt>0</asrwt>
<pdfrwt beam="1">0</pdfrwt>
<pdfrwt beam="2">0</pdfrwt>
<totfact> 0.44811189E+11</totfact>
</mgrwt>
</event>
<event>
 4    2  0.1060494E+006  0.2324075E+01  0.7546771E-02  0.2791566E+00
         22   -1    0    0    0    0  0.00000000000E+00  0.00000000000E+00  0.25823300820E+00  0.25823300820E+00  0.00000000000E+00 0.  1.
         22   -1    0    0    0    0 -0.00000000000E+00 -0.00000000000E+00 -0.26578572616E+02  0.26578572616E+02  0.00000000000E+00 0. -1.
          4    1    1    2  501    0 -0.18438760678E+01  0.14147252320E+01 -0.19353487399E+02  0.19492531927E+02  0.00000000000E+00 0. -1.
         -4    1    1    2    0  501  0.18438760678E+01 -0.14147252320E+01 -0.69668522094E+01  0.73442736975E+01  0.00000000000E+00 0.  1.
<mgrwt>
<rscale>  0 0.23240754E+01</rscale>
<asrwt>0</asrwt>
<pdfrwt beam="1">0</pdfrwt>
<pdfrwt beam="2">0</pdfrwt>
<totfact> 0.21880471E+12</totfact>
</mgrwt>
</event>
<event>
 4    2  0.1060494E+006  0.2757200E+01  0.7546771E-02  0.2604963E+00
         22   -1    0    0    0    0  0.00000000000E+00  0.00000000000E+00  0.10690903535E+03  0.10690903535E+03  0.00000000000E+00 0. -1.
         22   -1    0    0    0    0 -0.00000000000E+00 -0.00000000000E+00 -0.85212967806E-01  0.85212967806E-01  0.00000000000E+00 0.  1.
          4    1    1    2  501    0 -0.25235333868E+01  0.11108241492E+01  0.31647119432E+02  0.31767000478E+02  0.00000000000E+00 0. -1.
         -4    1    1    2    0  501  0.25235333868E+01 -0.11108241492E+01  0.75176702946E+02  0.75227247836E+02  0.00000000000E+00 0.  1.
<mgrwt>
<rscale>  0 0.27571999E+01</rscale>
<asrwt>0</asrwt>
<pdfrwt beam="1">0</pdfrwt>
<pdfrwt beam="2">0</pdfrwt>
<totfact> 0.11772742E+12</totfact>
</mgrwt>
</event>
<event>
 4    2  0.1060494E+006  0.3122970E+01  0.7546771E-02  0.2484693E+00
         22   -1    0    0    0    0  0.00000000000E+00  0.00000000000E+00  0.16297461675E+01  0.16297461675E+01  0.00000000000E+00 0. -1.
         22   -1    0    0    0    0 -0.00000000000E+00 -0.00000000000E+00 -0.81905991979E+01  0.81905991979E+01  0.00000000000E+00 0.  1.
          4    1    1    2  501    0 -0.18732663378E+00 -0.31173471550E+01 -0.58288279272E+01  0.66127286015E+01  0.00000000000E+00 0.  1.
         -4    1    1    2    0  501  0.18732663378E+00  0.31173471550E+01 -0.73202510322E+00  0.32076167639E+01  0.00000000000E+00 0. -1.
<mgrwt>
<rscale>  0 0.31229705E+01</rscale>
<asrwt>0</asrwt>
<pdfrwt beam="1">0</pdfrwt>
<pdfrwt beam="2">0</pdfrwt>
<totfact> 0.11529075E+12</totfact>
</mgrwt>
</event>
<event>
 4    2  0.1060494E+006  0.2128972E+01  0.7546771E-02  0.2898795E+00
         22   -1    0    0    0    0  0.00000000000E+00  0.00000000000E+00  0.57573525054E+02  0.57573525054E+02  0.00000000000E+00 0.  1.
         22   -1    0    0    0    0 -0.00000000000E+00 -0.00000000000E+00 -0.92411368138E-01  0.92411368138E-01  0.00000000000E+00 0. -1.
          4    1    1    2  501    0 -0.36535221098E+00  0.20973892292E+01  0.17644784996E+02  0.17772758969E+02  0.00000000000E+00 0. -1.
         -4    1    1    2    0  501  0.36535221098E+00 -0.20973892292E+01  0.39836328690E+02  0.39893177453E+02  0.00000000000E+00 0.  1.
<mgrwt>
<rscale>  0 0.21289725E+01</rscale>
<asrwt>0</asrwt>
<pdfrwt beam="1">0</pdfrwt>
<pdfrwt beam="2">0</pdfrwt>
<totfact> 0.25177595E+12</totfact>
</mgrwt>
</event>
<event>
 4    2  0.1060494E+006  0.2466964E+01  0.7546771E-02  0.2723276E+00
         22   -1    0    0    0    0  0.00000000000E+00  0.00000000000E+00  0.82500093903E+01  0.82500093903E+01  0.00000000000E+00 0. -1.
         22   -1    0    0    0    0 -0.00000000000E+00 -0.00000000000E+00 -0.87532083215E+00  0.87532083215E+00  0.00000000000E+00 0.  1.
          4    1    1    2  501    0 -0.20373890921E+01  0.13910268363E+01  0.18780868079E+01  0.31005031898E+01  0.00000000000E+00 0. -1.
         -4    1    1    2    0  501  0.20373890921E+01 -0.13910268363E+01  0.54966017502E+01  0.60248270326E+01  0.00000000000E+00 0.  1.
<mgrwt>
<rscale>  0 0.24669637E+01</rscale>
<asrwt>0</asrwt>
<pdfrwt beam="1">0</pdfrwt>
<pdfrwt beam="2">0</pdfrwt>
<totfact> 0.23297080E+12</totfact>
</mgrwt>
</event>
<event>
 4    2  0.1060494E+006  0.3413694E+01  0.7546771E-02  0.2405671E+00
         22   -1    0    0    0    0  0.00000000000E+00  0.00000000000E+00  0.17200524751E+01  0.17200524751E+01  0.00000000000E+00 0. -1.
         22   -1    0    0    0    0 -0.00000000000E+00 -0.00000000000E+00 -0.20056647333E+02  0.20056647333E+02  0.00000000000E+00 0.  1.
          4    1    1    2  501    0 -0.30961563844E+01  0.14377500727E+01 -0.18028819424E+02  0.18349159094E+02  0.00000000000E+00 0.  1.
         -4    1    1    2    0  501  0.30961563844E+01 -0.14377500727E+01 -0.30777543366E+00  0.34275407140E+01  0.00000000000E+00 0. -1.
<mgrwt>
<rscale>  0 0.34136944E+01</rscale>
<asrwt>0</asrwt>
<pdfrwt beam="1">0</pdfrwt>
<pdfrwt beam="2">0</pdfrwt>
<totfact> 0.36224437E+11</totfact>
</mgrwt>
</event>
<event>
 4    2  0.1060494E+006  0.2136148E+01  0.7546771E-02  0.2894519E+00
         22   -1    0    0    0    0  0.00000000000E+00  0.00000000000E+00  0.39387286452E+01  0.39387286452E+01  0.00000000000E+00 0.  1.
         22   -1    0    0    0    0 -0.00000000000E+00 -0.00000000000E+00 -0.11873777985E+01  0.11873777985E+01  0.00000000000E+00 0. -1.
          4    1    1    2  501    0  0.21260207494E+01 -0.20775505615E+00  0.97615726596E+00  0.23486186148E+01  0.00000000000E+00 0. -1.
         -4    1    1    2    0  501 -0.21260207494E+01  0.20775505615E+00  0.17751935808E+01  0.27774878288E+01  0.00000000000E+00 0.  1.
<mgrwt>
<rscale>  0 0.21361476E+01</rscale>
<asrwt>0</asrwt>
<pdfrwt beam="1">0</pdfrwt>
<pdfrwt beam="2">0</pdfrwt>
<totfact> 0.39604582E+12</totfact>
</mgrwt>
</event>
<event>
 4    2  0.1060494E+006  0.3597233E+01  0.7546771E-02  0.2361600E+00
         22   -1    0    0    0    0  0.00000000000E+00  0.00000000000E+00  0.45056743212E+01  0.45056743212E+01  0.00000000000E+00 0. -1.
         22   -1    0    0    0    0 -0.00000000000E+00 -0.00000000000E+00 -0.40837372072E+01  0.40837372072E+01  0.00000000000E+00 0.  1.
          4    1    1    2  501    0 -0.33460463517E+01  0.13206293002E+01 -0.21284990936E+01  0.41797842442E+01  0.00000000000E+00 0.  1.
         -4    1    1    2    0  501  0.33460463517E+01 -0.13206293002E+01  0.25504362076E+01  0.44096272842E+01  0.00000000000E+00 0. -1.
<mgrwt>
<rscale>  0 0.35972334E+01</rscale>
<asrwt>0</asrwt>
<pdfrwt beam="1">0</pdfrwt>
<pdfrwt beam="2">0</pdfrwt>
<totfact> 0.80619543E+11</totfact>
</mgrwt>
</event>
<event>
 4    2  0.1060494E+006  0.2376379E+01  0.7546771E-02  0.2765674E+00
         22   -1    0    0    0    0  0.00000000000E+00  0.00000000000E+00  0.20457071554E+01  0.20457071554E+01  0.00000000000E+00 0.  1.
         22   -1    0    0    0    0 -0.00000000000E+00 -0.00000000000E+00 -0.61082433302E+01  0.61082433302E+01  0.00000000000E+00 0. -1.
          4    1    1    2  501    0 -0.21120527683E+01 -0.10892238940E+01 -0.50495232700E+01  0.55807580884E+01  0.00000000000E+00 0. -1.
         -4    1    1    2    0  501  0.21120527683E+01  0.10892238940E+01  0.98698709509E+00  0.25731923972E+01  0.00000000000E+00 0.  1.
<mgrwt>
<rscale>  0 0.23763787E+01</rscale>
<asrwt>0</asrwt>
<pdfrwt beam="1">0</pdfrwt>
<pdfrwt beam="2">0</pdfrwt>
<totfact> 0.12594334E+12</totfact>
</mgrwt>
</event>
<event>
 4    2  0.1060494E+006  0.3053600E+01  0.7546771E-02  0.2505509E+00
         22   -1    0    0    0    0  0.00000000000E+00  0.00000000000E+00  0.13360104170E+00  0.13360104170E+00  0.00000000000E+00 0. -1.
         22   -1    0    0    0    0 -0.00000000000E+00 -0.00000000000E+00 -0.71252823781E+02  0.71252823781E+02  0.00000000000E+00 0.  1.
          4    1    1    2  501    0  0.28378701737E+01 -0.11273723084E+01 -0.30451383137E+02  0.30604104470E+02  0.00000000000E+00 0. -1.
         -4    1    1    2    0  501 -0.28378701737E+01  0.11273723084E+01 -0.40667839602E+02  0.40782320353E+02  0.00000000000E+00 0.  1.
<mgrwt>
<rscale>  0 0.30536004E+01</rscale>
<asrwt>0</asrwt>
<pdfrwt beam="1">0</pdfrwt>
<pdfrwt beam="2">0</pdfrwt>
<totfact> 0.12561009E+12</totfact>
</mgrwt>
</event>
<event>
 4    2  0.1060494E+006  0.2392402E+01  0.7546771E-02  0.2757955E+00
         22   -1    0    0    0    0  0.00000000000E+00  0.00000000000E+00  0.27162703607E+01  0.27162703607E+01  0.00000000000E+00 0.  1.
         22   -1    0    0    0    0 -0.00000000000E+00 -0.00000000000E+00 -0.21254489730E+01  0.21254489730E+01  0.00000000000E+00 0. -1.
          4    1    1    2  501    0 -0.63379144754E+00 -0.23069229573E+01  0.70776981760E-01  0.23934482470E+01  0.00000000000E+00 0. -1.
         -4    1    1    2    0  501  0.63379144754E+00  0.23069229573E+01  0.52004440596E+00  0.24482710867E+01  0.00000000000E+00 0.  1.
<mgrwt>
<rscale>  0 0.23924015E+01</rscale>
<asrwt>0</asrwt>
<pdfrwt beam="1">0</pdfrwt>
<pdfrwt beam="2">0</pdfrwt>
<totfact> 0.31289033E+12</totfact>
</mgrwt>
</event>
<event>
 4    2  0.1060494E+006  0.2008555E+01  0.7546771E-02  0.2974976E+00
         22   -1    0    0    0    0  0.00000000000E+00  0.00000000000E+00  0.48239067878E+00  0.48239067878E+00  0.00000000000E+00 0.  1.
         22   -1    0    0    0    0 -0.00000000000E+00 -0.00000000000E+00 -0.10728096186E+02  0.10728096186E+02  0.00000000000E+00 0. -1.
          4    1    1    2  501    0 -0.20084983727E+01  0.15088630305E-01 -0.77546116981E+01  0.80105115921E+01  0.00000000000E+00 0. -1.
         -4    1    1    2    0  501  0.20084983727E+01 -0.15088630305E-01 -0.24910938092E+01  0.31999752727E+01  0.00000000000E+00 0.  1.
<mgrwt>
<rscale>  0 0.20085550E+01</rscale>
<asrwt>0</asrwt>
<pdfrwt beam="1">0</pdfrwt>
<pdfrwt beam="2">0</pdfrwt>
<totfact> 0.33330240E+12</totfact>
</mgrwt>
</event>
<event>
 4    2  0.1060494E+006  0.3151645E+01  0.7546771E-02  0.2476327E+00
         22   -1    0    0    0    0  0.00000000000E+00  0.00000000000E+00  0.12135999814E+01  0.12135999814E+01  0.00000000000E+00 0.  1.
         22   -1    0    0    0    0 -0.00000000000E+00 -0.00000000000E+00 -0.10284181896E+02  0.10284181896E+02  0.00000000000E+00 0. -1.
          4    1    1    2  501    0 -0.31376071264E+01  0.29713464145E+00 -0.71328321648E+01  0.77980870837E+01  0.00000000000E+00 0.  1.
         -4    1    1    2    0  501  0.31376071264E+01 -0.29713464145E+00 -0.19377497502E+01  0.36996947940E+01  0.00000000000E+00 0. -1.
<mgrwt>
<rscale>  0 0.31516452E+01</rscale>
<asrwt>0</asrwt>
<pdfrwt beam="1">0</pdfrwt>
<pdfrwt beam="2">0</pdfrwt>
<totfact> 0.12291599E+12</totfact>
</mgrwt>
</event>
<event>
 4    2  0.1060494E+006  0.2373523E+01  0.7546771E-02  0.2767059E+00
         22   -1    0    0    0    0  0.00000000000E+00  0.00000000000E+00  0.52442073511E+01  0.52442073511E+01  0.00000000000E+00 0. -1.
         22   -1    0    0    0    0 -0.00000000000E+00 -0.00000000000E+00 -0.10784158757E+01  0.10784158757E+01  0.00000000000E+00 0.  1.
          4    1    1    2  501    0  0.23733271768E+01  0.30506441588E-01  0.18865141618E+01  0.30319215382E+01  0.00000000000E+00 0. -1.
         -4    1    1    2    0  501 -0.23733271768E+01 -0.30506441588E-01  0.22792773136E+01  0.32907016886E+01  0.00000000000E+00 0.  1.
<mgrwt>
<rscale>  0 0.23735232E+01</rscale>
<asrwt>0</asrwt>
<pdfrwt beam="1">0</pdfrwt>
<pdfrwt beam="2">0</pdfrwt>
<totfact> 0.31535221E+12</totfact>
</mgrwt>
</event>
<event>
 4    2  0.1060494E+006  0.2872026E+01  0.7546771E-02  0.2564236E+00
         22   -1    0    0    0    0  0.00000000000E+00  0.00000000000E+00  0.89382399252E+00  0.89382399252E+00  0.00000000000E+00 0.  1.
         22   -1    0    0    0    0 -0.00000000000E+00 -0.00000000000E+00 -0.22163294634E+02  0.22163294634E+02  0.00000000000E+00 0. -1.
          4    1    1    2  501    0 -0.16526220165E+01  0.23489094799E+01 -0.19441976525E+02  0.19652963809E+02  0.00000000000E+00 0. -1.
         -4    1    1    2    0  501  0.16526220165E+01 -0.23489094799E+01 -0.18274941157E+01  0.34041548169E+01  0.00000000000E+00 0.  1.
<mgrwt>
<rscale>  0 0.28720263E+01</rscale>
<asrwt>0</asrwt>
<pdfrwt beam="1">0</pdfrwt>
<pdfrwt beam="2">0</pdfrwt>
<totfact> 0.67719930E+11</totfact>
</mgrwt>
</event>
<event>
 4    2  0.1060494E+006  0.3734484E+01  0.7546771E-02  0.2331116E+00
         22   -1    0    0    0    0  0.00000000000E+00  0.00000000000E+00  0.48521873449E+02  0.48521873449E+02  0.00000000000E+00 0.  1.
         22   -1    0    0    0    0 -0.00000000000E+00 -0.00000000000E+00 -0.31621605747E+00  0.31621605747E+00  0.00000000000E+00 0. -1.
          4    1    1    2  501    0  0.32641714355E+01  0.18142645539E+01  0.16734483893E+02  0.17146116825E+02  0.00000000000E+00 0. -1.
         -4    1    1    2    0  501 -0.32641714355E+01 -0.18142645539E+01  0.31471173499E+02  0.31691972681E+02  0.00000000000E+00 0.  1.
<mgrwt>
<rscale>  0 0.37344840E+01</rscale>
<asrwt>0</asrwt>
<pdfrwt beam="1">0</pdfrwt>
<pdfrwt beam="2">0</pdfrwt>
<totfact> 0.80254625E+11</totfact>
</mgrwt>
</event>
<event>
 4    2  0.1060494E+006  0.2396548E+01  0.7546771E-02  0.2755973E+00
         22   -1    0    0    0    0  0.00000000000E+00  0.00000000000E+00  0.92065357124E+00  0.92065357124E+00  0.00000000000E+00 0.  1.
         22   -1    0    0    0    0 -0.00000000000E+00 -0.00000000000E+00 -0.31946880329E+02  0.31946880329E+02  0.00000000000E+00 0. -1.
          4    1    1    2  501    0  0.21658296689E+01 -0.10259758784E+01 -0.30255260383E+02  0.30350028427E+02  0.00000000000E+00 0. -1.
         -4    1    1    2    0  501 -0.21658296689E+01  0.10259758784E+01 -0.77096637462E+00  0.25175054734E+01  0.00000000000E+00 0.  1.
<mgrwt>
<rscale>  0 0.23965485E+01</rscale>
<asrwt>0</asrwt>
<pdfrwt beam="1">0</pdfrwt>
<pdfrwt beam="2">0</pdfrwt>
<totfact> 0.41213851E+11</totfact>
</mgrwt>
</event>
<event>
 4    2  0.1060494E+006  0.2095722E+01  0.7546771E-02  0.2918979E+00
         22   -1    0    0    0    0  0.00000000000E+00  0.00000000000E+00  0.36493370842E+01  0.36493370842E+01  0.00000000000E+00 0.  1.
         22   -1    0    0    0    0 -0.00000000000E+00 -0.00000000000E+00 -0.15091630716E+01  0.15091630716E+01  0.00000000000E+00 0. -1.
          4    1    1    2  501    0 -0.11238167386E+01 -0.17689228780E+01 -0.90645768714E-01  0.20976817837E+01  0.00000000000E+00 0. -1.
         -4    1    1    2    0  501  0.11238167386E+01  0.17689228780E+01  0.22308197814E+01  0.30608183721E+01  0.00000000000E+00 0.  1.
<mgrwt>
<rscale>  0 0.20957224E+01</rscale>
<asrwt>0</asrwt>
<pdfrwt beam="1">0</pdfrwt>
<pdfrwt beam="2">0</pdfrwt>
<totfact> 0.32893753E+12</totfact>
</mgrwt>
</event>
<event>
 4    2  0.1060494E+006  0.2323368E+01  0.7546771E-02  0.2791924E+00
         22   -1    0    0    0    0  0.00000000000E+00  0.00000000000E+00  0.92009140379E-01  0.92009140379E-01  0.00000000000E+00 0. -1.
         22   -1    0    0    0    0 -0.00000000000E+00 -0.00000000000E+00 -0.10772522882E+03  0.10772522882E+03  0.00000000000E+00 0.  1.
          4    1    1    2  501    0  0.21429164427E+01 -0.89774534229E+00 -0.90195447496E+02  0.90225366647E+02  0.00000000000E+00 0.  1.
         -4    1    1    2    0  501 -0.21429164427E+01  0.89774534229E+00 -0.17437772187E+02  0.17591871316E+02  0.00000000000E+00 0. -1.
<mgrwt>
<rscale>  0 0.23233677E+01</rscale>
<asrwt>0</asrwt>
<pdfrwt beam="1">0</pdfrwt>
<pdfrwt beam="2">0</pdfrwt>
<totfact> 0.10698332E+12</totfact>
</mgrwt>
</event>
<event>
 4    2  0.1060494E+006  0.2672953E+01  0.7546771E-02  0.2636866E+00
         22   -1    0    0    0    0  0.00000000000E+00  0.00000000000E+00  0.15415155277E+01  0.15415155277E+01  0.00000000000E+00 0.  1.
         22   -1    0    0    0    0 -0.00000000000E+00 -0.00000000000E+00 -0.10754362674E+02  0.10754362674E+02  0.00000000000E+00 0. -1.
          4    1    1    2  501    0  0.26248257894E+01  0.50494533405E+00 -0.92440518666E+01  0.96227425990E+01  0.00000000000E+00 0. -1.
         -4    1    1    2    0  501 -0.26248257894E+01 -0.50494533405E+00  0.31204720423E-01  0.26731356026E+01  0.00000000000E+00 0.  1.
<mgrwt>
<rscale>  0 0.26729535E+01</rscale>
<asrwt>0</asrwt>
<pdfrwt beam="1">0</pdfrwt>
<pdfrwt beam="2">0</pdfrwt>
<totfact> 0.88459316E+11</totfact>
</mgrwt>
</event>
<event>
 4    2  0.1060494E+006  0.3306160E+01  0.7546771E-02  0.2433471E+00
         22   -1    0    0    0    0  0.00000000000E+00  0.00000000000E+00  0.10489639809E+02  0.10489639809E+02  0.00000000000E+00 0.  1.
         22   -1    0    0    0    0 -0.00000000000E+00 -0.00000000000E+00 -0.23992656689E+01  0.23992656689E+01  0.00000000000E+00 0. -1.
          4    1    1    2  501    0 -0.73547751376E+00 -0.32233158517E+01 -0.80180008329E+00  0.34019958299E+01  0.00000000000E+00 0. -1.
         -4    1    1    2    0  501  0.73547751376E+00  0.32233158517E+01  0.88921742237E+01  0.94869096484E+01  0.00000000000E+00 0.  1.
<mgrwt>
<rscale>  0 0.33061597E+01</rscale>
<asrwt>0</asrwt>
<pdfrwt beam="1">0</pdfrwt>
<pdfrwt beam="2">0</pdfrwt>
<totfact> 0.54661101E+11</totfact>
</mgrwt>
</event>
<event>
 4    2  0.1060494E+006  0.2806841E+01  0.7546771E-02  0.2586985E+00
         22   -1    0    0    0    0  0.00000000000E+00  0.00000000000E+00  0.11394262395E+01  0.11394262395E+01  0.00000000000E+00 0.  1.
         22   -1    0    0    0    0 -0.00000000000E+00 -0.00000000000E+00 -0.70848575888E+01  0.70848575888E+01  0.00000000000E+00 0. -1.
          4    1    1    2  501    0  0.26823156634E+01 -0.82676291635E+00 -0.36107093725E+01  0.45733550497E+01  0.00000000000E+00 0.  1.
         -4    1    1    2    0  501 -0.26823156634E+01  0.82676291635E+00 -0.23347219768E+01  0.36509287787E+01  0.00000000000E+00 0. -1.
<mgrwt>
<rscale>  0 0.28068406E+01</rscale>
<asrwt>0</asrwt>
<pdfrwt beam="1">0</pdfrwt>
<pdfrwt beam="2">0</pdfrwt>
<totfact> 0.20694613E+12</totfact>
</mgrwt>
</event>
<event>
 4    2  0.1060494E+006  0.2677263E+01  0.7546771E-02  0.2635189E+00
         22   -1    0    0    0    0  0.00000000000E+00  0.00000000000E+00  0.17900446097E+01  0.17900446097E+01  0.00000000000E+00 0. -1.
         22   -1    0    0    0    0 -0.00000000000E+00 -0.00000000000E+00 -0.10088555934E+02  0.10088555934E+02  0.00000000000E+00 0.  1.
          4    1    1    2  501    0  0.92315090614E+00  0.25130714257E+01 -0.87616593277E+01  0.91615724502E+01  0.00000000000E+00 0.  1.
         -4    1    1    2    0  501 -0.92315090614E+00 -0.25130714257E+01  0.46314800360E+00  0.27170280932E+01  0.00000000000E+00 0. -1.
<mgrwt>
<rscale>  0 0.26772627E+01</rscale>
<asrwt>0</asrwt>
<pdfrwt beam="1">0</pdfrwt>
<pdfrwt beam="2">0</pdfrwt>
<totfact> 0.80455649E+11</totfact>
</mgrwt>
</event>
<event>
 4    2  0.1060494E+006  0.2413969E+01  0.7546771E-02  0.2747718E+00
         22   -1    0    0    0    0  0.00000000000E+00  0.00000000000E+00  0.11476719039E+02  0.11476719039E+02  0.00000000000E+00 0. -1.
         22   -1    0    0    0    0 -0.00000000000E+00 -0.00000000000E+00 -0.14943819188E+01  0.14943819188E+01  0.00000000000E+00 0.  1.
          4    1    1    2  501    0  0.20436470173E+01 -0.12848156954E+01 -0.27863910999E+00  0.24299967605E+01  0.00000000000E+00 0.  1.
         -4    1    1    2    0  501 -0.20436470173E+01  0.12848156954E+01  0.10260976230E+02  0.10541104197E+02  0.00000000000E+00 0. -1.
<mgrwt>
<rscale>  0 0.24139686E+01</rscale>
<asrwt>0</asrwt>
<pdfrwt beam="1">0</pdfrwt>
<pdfrwt beam="2">0</pdfrwt>
<totfact> 0.84709797E+11</totfact>
</mgrwt>
</event>
<event>
 4    2  0.1060494E+006  0.2616965E+01  0.7546771E-02  0.2659107E+00
         22   -1    0    0    0    0  0.00000000000E+00  0.00000000000E+00  0.49146164857E+01  0.49146164857E+01  0.00000000000E+00 0.  1.
         22   -1    0    0    0    0 -0.00000000000E+00 -0.00000000000E+00 -0.17797682011E+01  0.17797682011E+01  0.00000000000E+00 0. -1.
          4    1    1    2  501    0 -0.34590775813E+00  0.25940030596E+01  0.80690228171E-02  0.26169771033E+01  0.00000000000E+00 0. -1.
         -4    1    1    2    0  501  0.34590775813E+00 -0.25940030596E+01  0.31267792617E+01  0.40774075835E+01  0.00000000000E+00 0.  1.
<mgrwt>
<rscale>  0 0.26169647E+01</rscale>
<asrwt>0</asrwt>
<pdfrwt beam="1">0</pdfrwt>
<pdfrwt beam="2">0</pdfrwt>
<totfact> 0.19152187E+12</totfact>
</mgrwt>
</event>
<event>
 4    2  0.1060494E+006  0.2715551E+01  0.7546771E-02  0.2620509E+00
         22   -1    0    0    0    0  0.00000000000E+00  0.00000000000E+00  0.10581265989E+01  0.10581265989E+01  0.00000000000E+00 0.  1.
         22   -1    0    0    0    0 -0.00000000000E+00 -0.00000000000E+00 -0.78458610362E+01  0.78458610362E+01  0.00000000000E+00 0. -1.
          4    1    1    2  501    0  0.14562925127E+01  0.22920359575E+01 -0.19056420895E+01  0.33174822511E+01  0.00000000000E+00 0.  1.
         -4    1    1    2    0  501 -0.14562925127E+01 -0.22920359575E+01 -0.48820923478E+01  0.55865053840E+01  0.00000000000E+00 0. -1.
<mgrwt>
<rscale>  0 0.27155509E+01</rscale>
<asrwt>0</asrwt>
<pdfrwt beam="1">0</pdfrwt>
<pdfrwt beam="2">0</pdfrwt>
<totfact> 0.19930580E+12</totfact>
</mgrwt>
</event>
<event>
 4    2  0.1060494E+006  0.2288298E+01  0.7546771E-02  0.2809922E+00
         22   -1    0    0    0    0  0.00000000000E+00  0.00000000000E+00  0.71564589701E+01  0.71564589701E+01  0.00000000000E+00 0. -1.
         22   -1    0    0    0    0 -0.00000000000E+00 -0.00000000000E+00 -0.74123544465E+00  0.74123544465E+00  0.00000000000E+00 0.  1.
          4    1    1    2  501    0  0.22753893078E+01  0.24271782903E+00  0.27594925584E+01  0.35848441565E+01  0.00000000000E+00 0.  1.
         -4    1    1    2    0  501 -0.22753893078E+01 -0.24271782903E+00  0.36557309671E+01  0.43128502583E+01  0.00000000000E+00 0. -1.
<mgrwt>
<rscale>  0 0.22882982E+01</rscale>
<asrwt>0</asrwt>
<pdfrwt beam="1">0</pdfrwt>
<pdfrwt beam="2">0</pdfrwt>
<totfact> 0.33384550E+12</totfact>
</mgrwt>
</event>
<event>
 4    2  0.1060494E+006  0.3754281E+01  0.7546771E-02  0.2326878E+00
         22   -1    0    0    0    0  0.00000000000E+00  0.00000000000E+00  0.31956903298E+01  0.31956903298E+01  0.00000000000E+00 0. -1.
         22   -1    0    0    0    0 -0.00000000000E+00 -0.00000000000E+00 -0.60692487085E+01  0.60692487085E+01  0.00000000000E+00 0.  1.
          4    1    1    2  501    0 -0.28080611067E+01  0.24918708898E+01 -0.38585550572E+01  0.53835931161E+01  0.00000000000E+00 0.  1.
         -4    1    1    2    0  501  0.28080611067E+01 -0.24918708898E+01  0.98499667853E+00  0.38813459221E+01  0.00000000000E+00 0. -1.
<mgrwt>
<rscale>  0 0.37542813E+01</rscale>
<asrwt>0</asrwt>
<pdfrwt beam="1">0</pdfrwt>
<pdfrwt beam="2">0</pdfrwt>
<totfact> 0.75516368E+11</totfact>
</mgrwt>
</event>
<event>
 4    2  0.1060494E+006  0.6930892E+01  0.7546771E-02  0.1945054E+00
         22   -1    0    0    0    0  0.00000000000E+00  0.00000000000E+00  0.10380222239E+02  0.10380222239E+02  0.00000000000E+00 0. -1.
         22   -1    0    0    0    0 -0.00000000000E+00 -0.00000000000E+00 -0.92411461378E+01  0.92411461378E+01  0.00000000000E+00 0.  1.
          4    1    1    2  501    0  0.46953979501E+01  0.50980880776E+01 -0.63622597632E+01  0.94082736595E+01  0.00000000000E+00 0.  1.
         -4    1    1    2    0  501 -0.46953979501E+01 -0.50980880776E+01  0.75013358648E+01  0.10213094718E+02  0.00000000000E+00 0. -1.
<mgrwt>
<rscale>  0 0.69308920E+01</rscale>
<asrwt>0</asrwt>
<pdfrwt beam="1">0</pdfrwt>
<pdfrwt beam="2">0</pdfrwt>
<totfact> 0.11231430E+11</totfact>
</mgrwt>
</event>
<event>
 4    2  0.1060494E+006  0.2254869E+01  0.7546771E-02  0.2827572E+00
         22   -1    0    0    0    0  0.00000000000E+00  0.00000000000E+00  0.19798606900E+02  0.19798606900E+02  0.00000000000E+00 0.  1.
         22   -1    0    0    0    0 -0.00000000000E+00 -0.00000000000E+00 -0.66808470184E+00  0.66808470184E+00  0.00000000000E+00 0. -1.
          4    1    1    2  501    0  0.47664210493E+00  0.22039165253E+01  0.15361203538E+01  0.27283880751E+01  0.00000000000E+00 0. -1.
         -4    1    1    2    0  501 -0.47664210493E+00 -0.22039165253E+01  0.17594401844E+02  0.17738303527E+02  0.00000000000E+00 0.  1.
<mgrwt>
<rscale>  0 0.22548693E+01</rscale>
<asrwt>0</asrwt>
<pdfrwt beam="1">0</pdfrwt>
<pdfrwt beam="2">0</pdfrwt>
<totfact> 0.10856034E+12</totfact>
</mgrwt>
</event>
<event>
 4    2  0.1060494E+006  0.2336015E+01  0.7546771E-02  0.2785559E+00
         22   -1    0    0    0    0  0.00000000000E+00  0.00000000000E+00  0.24539778997E+01  0.24539778997E+01  0.00000000000E+00 0.  1.
         22   -1    0    0    0    0 -0.00000000000E+00 -0.00000000000E+00 -0.22344146318E+01  0.22344146318E+01  0.00000000000E+00 0. -1.
          4    1    1    2  501    0  0.39811858274E+00  0.23018396481E+01 -0.52383802480E-01  0.23366018561E+01  0.00000000000E+00 0.  1.
         -4    1    1    2    0  501 -0.39811858274E+00 -0.23018396481E+01  0.27194707042E+00  0.23517906753E+01  0.00000000000E+00 0. -1.
<mgrwt>
<rscale>  0 0.23360146E+01</rscale>
<asrwt>0</asrwt>
<pdfrwt beam="1">0</pdfrwt>
<pdfrwt beam="2">0</pdfrwt>
<totfact> 0.33231356E+12</totfact>
</mgrwt>
</event>
<event>
 4    2  0.1060494E+006  0.2283209E+01  0.7546771E-02  0.2812577E+00
         22   -1    0    0    0    0  0.00000000000E+00  0.00000000000E+00  0.65617525382E+00  0.65617525382E+00  0.00000000000E+00 0.  1.
         22   -1    0    0    0    0 -0.00000000000E+00 -0.00000000000E+00 -0.10656282118E+02  0.10656282118E+02  0.00000000000E+00 0. -1.
          4    1    1    2  501    0 -0.12559539388E+01 -0.19067315611E+01 -0.78533310406E+01  0.81784994941E+01  0.00000000000E+00 0. -1.
         -4    1    1    2    0  501  0.12559539388E+01  0.19067315611E+01 -0.21467758237E+01  0.31339578778E+01  0.00000000000E+00 0.  1.
<mgrwt>
<rscale>  0 0.22832095E+01</rscale>
<asrwt>0</asrwt>
<pdfrwt beam="1">0</pdfrwt>
<pdfrwt beam="2">0</pdfrwt>
<totfact> 0.23727398E+12</totfact>
</mgrwt>
</event>
<event>
 4    2  0.1060494E+006  0.2219564E+01  0.7546771E-02  0.2846765E+00
         22   -1    0    0    0    0  0.00000000000E+00  0.00000000000E+00  0.46739973592E+00  0.46739973592E+00  0.00000000000E+00 0.  1.
         22   -1    0    0    0    0 -0.00000000000E+00 -0.00000000000E+00 -0.21089721083E+02  0.21089721083E+02  0.00000000000E+00 0. -1.
          4    1    1    2  501    0  0.19683129814E+01  0.10257710875E+01 -0.17934456759E+02  0.18071281127E+02  0.00000000000E+00 0. -1.
         -4    1    1    2    0  501 -0.19683129814E+01 -0.10257710875E+01 -0.26878645882E+01  0.34858396925E+01  0.00000000000E+00 0.  1.
<mgrwt>
<rscale>  0 0.22195635E+01</rscale>
<asrwt>0</asrwt>
<pdfrwt beam="1">0</pdfrwt>
<pdfrwt beam="2">0</pdfrwt>
<totfact> 0.15028286E+12</totfact>
</mgrwt>
</event>
<event>
 4    2  0.1060494E+006  0.3526560E+01  0.7546771E-02  0.2378097E+00
         22   -1    0    0    0    0  0.00000000000E+00  0.00000000000E+00  0.34871707220E+01  0.34871707220E+01  0.00000000000E+00 0.  1.
         22   -1    0    0    0    0 -0.00000000000E+00 -0.00000000000E+00 -0.37822507725E+01  0.37822507725E+01  0.00000000000E+00 0. -1.
          4    1    1    2  501    0  0.20616640930E+01 -0.28611479969E+01  0.72077431076E+00  0.35994641684E+01  0.00000000000E+00 0.  1.
         -4    1    1    2    0  501 -0.20616640930E+01  0.28611479969E+01 -0.10158543612E+01  0.36699573261E+01  0.00000000000E+00 0. -1.
<mgrwt>
<rscale>  0 0.35265602E+01</rscale>
<asrwt>0</asrwt>
<pdfrwt beam="1">0</pdfrwt>
<pdfrwt beam="2">0</pdfrwt>
<totfact> 0.11927341E+12</totfact>
</mgrwt>
</event>
<event>
 4    2  0.1060494E+006  0.2548689E+01  0.7546771E-02  0.2687446E+00
         22   -1    0    0    0    0  0.00000000000E+00  0.00000000000E+00  0.72426843371E+00  0.72426843371E+00  0.00000000000E+00 0.  1.
         22   -1    0    0    0    0 -0.00000000000E+00 -0.00000000000E+00 -0.15111584328E+02  0.15111584328E+02  0.00000000000E+00 0. -1.
          4    1    1    2  501    0 -0.17560172871E+01  0.18472188911E+01 -0.12241889974E+02  0.12504386609E+02  0.00000000000E+00 0. -1.
         -4    1    1    2    0  501  0.17560172871E+01 -0.18472188911E+01 -0.21454259204E+01  0.33314661524E+01  0.00000000000E+00 0.  1.
<mgrwt>
<rscale>  0 0.25486887E+01</rscale>
<asrwt>0</asrwt>
<pdfrwt beam="1">0</pdfrwt>
<pdfrwt beam="2">0</pdfrwt>
<totfact> 0.13841842E+12</totfact>
</mgrwt>
</event>
<event>
 4    2  0.1060494E+006  0.2513444E+01  0.7546771E-02  0.2702632E+00
         22   -1    0    0    0    0  0.00000000000E+00  0.00000000000E+00  0.61247196949E+01  0.61247196949E+01  0.00000000000E+00 0.  1.
         22   -1    0    0    0    0 -0.00000000000E+00 -0.00000000000E+00 -0.47534495677E+02  0.47534495677E+02  0.00000000000E+00 0. -1.
          4    1    1    2  501    0 -0.72824957403E+00  0.24056298370E+01 -0.47241808888E+02  0.47308624048E+02  0.00000000000E+00 0. -1.
         -4    1    1    2    0  501  0.72824957403E+00 -0.24056298370E+01  0.58320329053E+01  0.63505913239E+01  0.00000000000E+00 0.  1.
<mgrwt>
<rscale>  0 0.25134443E+01</rscale>
<asrwt>0</asrwt>
<pdfrwt beam="1">0</pdfrwt>
<pdfrwt beam="2">0</pdfrwt>
<totfact> 0.27175297E+10</totfact>
</mgrwt>
</event>
<event>
 4    2  0.1060494E+006  0.3059163E+01  0.7546771E-02  0.2503808E+00
         22   -1    0    0    0    0  0.00000000000E+00  0.00000000000E+00  0.29318010009E+00  0.29318010009E+00  0.00000000000E+00 0. -1.
         22   -1    0    0    0    0 -0.00000000000E+00 -0.00000000000E+00 -0.33802019763E+02  0.33802019763E+02  0.00000000000E+00 0.  1.
          4    1    1    2  501    0 -0.30566587023E+01 -0.12376376903E+00 -0.20776369797E+02  0.21000381469E+02  0.00000000000E+00 0. -1.
         -4    1    1    2    0  501  0.30566587023E+01  0.12376376903E+00 -0.12732469866E+02  0.13094818394E+02  0.00000000000E+00 0.  1.
<mgrwt>
<rscale>  0 0.30591633E+01</rscale>
<asrwt>0</asrwt>
<pdfrwt beam="1">0</pdfrwt>
<pdfrwt beam="2">0</pdfrwt>
<totfact> 0.13972532E+12</totfact>
</mgrwt>
</event>
<event>
 4    2  0.1060494E+006  0.2838393E+01  0.7546771E-02  0.2575855E+00
         22   -1    0    0    0    0  0.00000000000E+00  0.00000000000E+00  0.67712009270E+00  0.67712009270E+00  0.00000000000E+00 0.  1.
         22   -1    0    0    0    0 -0.00000000000E+00 -0.00000000000E+00 -0.15527882702E+02  0.15527882702E+02  0.00000000000E+00 0. -1.
          4    1    1    2  501    0  0.14239484324E-01 -0.28383569744E+01 -0.11342805598E+02  0.11692549419E+02  0.00000000000E+00 0. -1.
         -4    1    1    2    0  501 -0.14239484324E-01  0.28383569744E+01 -0.35079570115E+01  0.45124533761E+01  0.00000000000E+00 0.  1.
<mgrwt>
<rscale>  0 0.28383927E+01</rscale>
<asrwt>0</asrwt>
<pdfrwt beam="1">0</pdfrwt>
<pdfrwt beam="2">0</pdfrwt>
<totfact> 0.14449308E+12</totfact>
</mgrwt>
</event>
<event>
 4    2  0.1060494E+006  0.2444774E+01  0.7546771E-02  0.2733390E+00
         22   -1    0    0    0    0  0.00000000000E+00  0.00000000000E+00  0.47216140444E+00  0.47216140444E+00  0.00000000000E+00 0.  1.
         22   -1    0    0    0    0 -0.00000000000E+00 -0.00000000000E+00 -0.13898431601E+02  0.13898431601E+02  0.00000000000E+00 0. -1.
          4    1    1    2  501    0 -0.23271436939E+01 -0.74921349541E+00 -0.88591716220E+01  0.91903123158E+01  0.00000000000E+00 0. -1.
         -4    1    1    2    0  501  0.23271436939E+01  0.74921349541E+00 -0.45670985746E+01  0.51802806897E+01  0.00000000000E+00 0.  1.
<mgrwt>
<rscale>  0 0.24447737E+01</rscale>
<asrwt>0</asrwt>
<pdfrwt beam="1">0</pdfrwt>
<pdfrwt beam="2">0</pdfrwt>
<totfact> 0.24898648E+12</totfact>
</mgrwt>
</event>
<event>
 4    2  0.1060494E+006  0.2534698E+01  0.7546771E-02  0.2693428E+00
         22   -1    0    0    0    0  0.00000000000E+00  0.00000000000E+00  0.45923078227E+00  0.45923078227E+00  0.00000000000E+00 0.  1.
         22   -1    0    0    0    0 -0.00000000000E+00 -0.00000000000E+00 -0.14929289385E+02  0.14929289385E+02  0.00000000000E+00 0. -1.
          4    1    1    2  501    0 -0.17772586795E+01  0.18072210730E+01 -0.91648542380E+01  0.95089037025E+01  0.00000000000E+00 0.  1.
         -4    1    1    2    0  501  0.17772586795E+01 -0.18072210730E+01 -0.53052043646E+01  0.58796164646E+01  0.00000000000E+00 0. -1.
<mgrwt>
<rscale>  0 0.25346985E+01</rscale>
<asrwt>0</asrwt>
<pdfrwt beam="1">0</pdfrwt>
<pdfrwt beam="2">0</pdfrwt>
<totfact> 0.23529350E+12</totfact>
</mgrwt>
</event>
<event>
 4    2  0.1060494E+006  0.2001611E+01  0.7546771E-02  0.2979642E+00
         22   -1    0    0    0    0  0.00000000000E+00  0.00000000000E+00  0.11782999971E+02  0.11782999971E+02  0.00000000000E+00 0.  1.
         22   -1    0    0    0    0 -0.00000000000E+00 -0.00000000000E+00 -0.59003927825E+00  0.59003927825E+00  0.00000000000E+00 0. -1.
          4    1    1    2  501    0 -0.14198309292E+01  0.14108600327E+01  0.15693711978E+01  0.25434959910E+01  0.00000000000E+00 0. -1.
         -4    1    1    2    0  501  0.14198309292E+01 -0.14108600327E+01  0.96235894949E+01  0.98295432582E+01  0.00000000000E+00 0.  1.
<mgrwt>
<rscale>  0 0.20016108E+01</rscale>
<asrwt>0</asrwt>
<pdfrwt beam="1">0</pdfrwt>
<pdfrwt beam="2">0</pdfrwt>
<totfact> 0.23681546E+12</totfact>
</mgrwt>
</event>
<event>
 4    2  0.1060494E+006  0.4575335E+01  0.7546771E-02  0.2179185E+00
         22   -1    0    0    0    0  0.00000000000E+00  0.00000000000E+00  0.59419756800E+01  0.59419756800E+01  0.00000000000E+00 0.  1.
         22   -1    0    0    0    0 -0.00000000000E+00 -0.00000000000E+00 -0.54494537883E+01  0.54494537883E+01  0.00000000000E+00 0. -1.
          4    1    1    2  501    0 -0.37939726535E+01 -0.25572374901E+01 -0.31402222164E+01  0.55492961395E+01  0.00000000000E+00 0. -1.
         -4    1    1    2    0  501  0.37939726535E+01  0.25572374901E+01  0.36327441081E+01  0.58421333288E+01  0.00000000000E+00 0.  1.
<mgrwt>
<rscale>  0 0.45753352E+01</rscale>
<asrwt>0</asrwt>
<pdfrwt beam="1">0</pdfrwt>
<pdfrwt beam="2">0</pdfrwt>
<totfact> 0.41295553E+11</totfact>
</mgrwt>
</event>
<event>
 4    2  0.1060494E+006  0.2570012E+01  0.7546771E-02  0.2678446E+00
         22   -1    0    0    0    0  0.00000000000E+00  0.00000000000E+00  0.39038619838E+01  0.39038619838E+01  0.00000000000E+00 0. -1.
         22   -1    0    0    0    0 -0.00000000000E+00 -0.00000000000E+00 -0.19407917147E+01  0.19407917147E+01  0.00000000000E+00 0.  1.
          4    1    1    2  501    0 -0.88583600893E+00  0.24125207284E+01 -0.64968179046E-01  0.25708330487E+01  0.00000000000E+00 0.  1.
         -4    1    1    2    0  501  0.88583600893E+00 -0.24125207284E+01  0.20280384481E+01  0.32738206498E+01  0.00000000000E+00 0. -1.
<mgrwt>
<rscale>  0 0.25700120E+01</rscale>
<asrwt>0</asrwt>
<pdfrwt beam="1">0</pdfrwt>
<pdfrwt beam="2">0</pdfrwt>
<totfact> 0.22735581E+12</totfact>
</mgrwt>
</event>
<event>
 4    2  0.1060494E+006  0.3256478E+01  0.7546771E-02  0.2446858E+00
         22   -1    0    0    0    0  0.00000000000E+00  0.00000000000E+00  0.38580232457E+02  0.38580232457E+02  0.00000000000E+00 0.  1.
         22   -1    0    0    0    0 -0.00000000000E+00 -0.00000000000E+00 -0.92143335264E+00  0.92143335264E+00  0.00000000000E+00 0. -1.
          4    1    1    2  501    0 -0.29817608540E+01 -0.13091043861E+01  0.22847302235E+01  0.39780201455E+01  0.00000000000E+00 0. -1.
         -4    1    1    2    0  501  0.29817608540E+01  0.13091043861E+01  0.35374068880E+02  0.35523645664E+02  0.00000000000E+00 0.  1.
<mgrwt>
<rscale>  0 0.32564785E+01</rscale>
<asrwt>0</asrwt>
<pdfrwt beam="1">0</pdfrwt>
<pdfrwt beam="2">0</pdfrwt>
<totfact> 0.32300295E+11</totfact>
</mgrwt>
</event>
<event>
 4    2  0.1060494E+006  0.2071712E+01  0.7546771E-02  0.2933946E+00
         22   -1    0    0    0    0  0.00000000000E+00  0.00000000000E+00  0.26982827036E+01  0.26982827036E+01  0.00000000000E+00 0. -1.
         22   -1    0    0    0    0 -0.00000000000E+00 -0.00000000000E+00 -0.17781652280E+01  0.17781652280E+01  0.00000000000E+00 0.  1.
          4    1    1    2  501    0  0.17283743264E+01 -0.11422398083E+01 -0.26680040504E+00  0.20888207314E+01  0.00000000000E+00 0.  1.
         -4    1    1    2    0  501 -0.17283743264E+01  0.11422398083E+01  0.11869178806E+01  0.23876272002E+01  0.00000000000E+00 0. -1.
<mgrwt>
<rscale>  0 0.20717118E+01</rscale>
<asrwt>0</asrwt>
<pdfrwt beam="1">0</pdfrwt>
<pdfrwt beam="2">0</pdfrwt>
<totfact> 0.38757308E+12</totfact>
</mgrwt>
</event>
<event>
 4    2  0.1060494E+006  0.2084670E+01  0.7546771E-02  0.2925827E+00
         22   -1    0    0    0    0  0.00000000000E+00  0.00000000000E+00  0.35209773590E+02  0.35209773590E+02  0.00000000000E+00 0. -1.
         22   -1    0    0    0    0 -0.00000000000E+00 -0.00000000000E+00 -0.12345846967E+00  0.12345846967E+00  0.00000000000E+00 0.  1.
          4    1    1    2  501    0  0.62536470703E+00 -0.19886593738E+01  0.17823889546E+02  0.17945386194E+02  0.00000000000E+00 0. -1.
         -4    1    1    2    0  501 -0.62536470703E+00  0.19886593738E+01  0.17262425575E+02  0.17387845866E+02  0.00000000000E+00 0.  1.
<mgrwt>
<rscale>  0 0.20846695E+01</rscale>
<asrwt>0</asrwt>
<pdfrwt beam="1">0</pdfrwt>
<pdfrwt beam="2">0</pdfrwt>
<totfact> 0.34774229E+12</totfact>
</mgrwt>
</event>
<event>
 4    2  0.1060494E+006  0.3416306E+01  0.7546771E-02  0.2405015E+00
         22   -1    0    0    0    0  0.00000000000E+00  0.00000000000E+00  0.17024183553E+01  0.17024183553E+01  0.00000000000E+00 0.  1.
         22   -1    0    0    0    0 -0.00000000000E+00 -0.00000000000E+00 -0.83382267353E+01  0.83382267353E+01  0.00000000000E+00 0. -1.
          4    1    1    2  501    0 -0.78884447703E+00 -0.33239844109E+01 -0.54348341753E+01  0.64193901958E+01  0.00000000000E+00 0. -1.
         -4    1    1    2    0  501  0.78884447703E+00  0.33239844109E+01 -0.12009742048E+01  0.36212548949E+01  0.00000000000E+00 0.  1.
<mgrwt>
<rscale>  0 0.34163062E+01</rscale>
<asrwt>0</asrwt>
<pdfrwt beam="1">0</pdfrwt>
<pdfrwt beam="2">0</pdfrwt>
<totfact> 0.10730474E+12</totfact>
</mgrwt>
</event>
<event>
 4    2  0.1060494E+006  0.2453396E+01  0.7546771E-02  0.2729440E+00
         22   -1    0    0    0    0  0.00000000000E+00  0.00000000000E+00  0.21544390610E+01  0.21544390610E+01  0.00000000000E+00 0.  1.
         22   -1    0    0    0    0 -0.00000000000E+00 -0.00000000000E+00 -0.30357388843E+01  0.30357388843E+01  0.00000000000E+00 0. -1.
          4    1    1    2  501    0  0.17651438044E+01 -0.17039426021E+01  0.29190309492E+00  0.24707003983E+01  0.00000000000E+00 0.  1.
         -4    1    1    2    0  501 -0.17651438044E+01  0.17039426021E+01 -0.11732029183E+01  0.27194775470E+01  0.00000000000E+00 0. -1.
<mgrwt>
<rscale>  0 0.24533962E+01</rscale>
<asrwt>0</asrwt>
<pdfrwt beam="1">0</pdfrwt>
<pdfrwt beam="2">0</pdfrwt>
<totfact> 0.27053303E+12</totfact>
</mgrwt>
</event>
<event>
 4    2  0.1060494E+006  0.4160546E+01  0.7546771E-02  0.2247617E+00
         22   -1    0    0    0    0  0.00000000000E+00  0.00000000000E+00  0.51273877358E+01  0.51273877358E+01  0.00000000000E+00 0. -1.
         22   -1    0    0    0    0 -0.00000000000E+00 -0.00000000000E+00 -0.45214562562E+01  0.45214562562E+01  0.00000000000E+00 0.  1.
          4    1    1    2  501    0 -0.26695905326E+01 -0.31911481915E+01 -0.21252789122E+01  0.46719322390E+01  0.00000000000E+00 0. -1.
         -4    1    1    2    0  501  0.26695905326E+01  0.31911481915E+01  0.27312103918E+01  0.49769117529E+01  0.00000000000E+00 0.  1.
<mgrwt>
<rscale>  0 0.41605457E+01</rscale>
<asrwt>0</asrwt>
<pdfrwt beam="1">0</pdfrwt>
<pdfrwt beam="2">0</pdfrwt>
<totfact> 0.61363911E+11</totfact>
</mgrwt>
</event>
<event>
 4    2  0.1060494E+006  0.3411732E+01  0.7546771E-02  0.2406165E+00
         22   -1    0    0    0    0  0.00000000000E+00  0.00000000000E+00  0.66472655324E+00  0.66472655324E+00  0.00000000000E+00 0.  1.
         22   -1    0    0    0    0 -0.00000000000E+00 -0.00000000000E+00 -0.24985747916E+02  0.24985747916E+02  0.00000000000E+00 0. -1.
          4    1    1    2  501    0  0.33682124071E+00  0.33950653833E+01 -0.19175423477E+02  0.19476570104E+02  0.00000000000E+00 0. -1.
         -4    1    1    2    0  501 -0.33682124071E+00 -0.33950653833E+01 -0.51455978853E+01  0.61739043645E+01  0.00000000000E+00 0.  1.
<mgrwt>
<rscale>  0 0.34117323E+01</rscale>
<asrwt>0</asrwt>
<pdfrwt beam="1">0</pdfrwt>
<pdfrwt beam="2">0</pdfrwt>
<totfact> 0.81561402E+11</totfact>
</mgrwt>
</event>
<event>
 4    2  0.1060494E+006  0.2076606E+01  0.7546771E-02  0.2930868E+00
         22   -1    0    0    0    0  0.00000000000E+00  0.00000000000E+00  0.21164060480E+00  0.21164060480E+00  0.00000000000E+00 0. -1.
         22   -1    0    0    0    0 -0.00000000000E+00 -0.00000000000E+00 -0.32330518770E+02  0.32330518770E+02  0.00000000000E+00 0.  1.
          4    1    1    2  501    0 -0.71589745355E-01 -0.20753713935E+01 -0.25953724821E+02  0.26036668827E+02  0.00000000000E+00 0.  1.
         -4    1    1    2    0  501  0.71589745355E-01  0.20753713935E+01 -0.61651533445E+01  0.65054905483E+01  0.00000000000E+00 0. -1.
<mgrwt>
<rscale>  0 0.20766058E+01</rscale>
<asrwt>0</asrwt>
<pdfrwt beam="1">0</pdfrwt>
<pdfrwt beam="2">0</pdfrwt>
<totfact> 0.21297337E+12</totfact>
</mgrwt>
</event>
<event>
 4    2  0.1060494E+006  0.2385048E+01  0.7546771E-02  0.2761485E+00
         22   -1    0    0    0    0  0.00000000000E+00  0.00000000000E+00  0.96433565065E+00  0.96433565065E+00  0.00000000000E+00 0. -1.
         22   -1    0    0    0    0 -0.00000000000E+00 -0.00000000000E+00 -0.11878273032E+02  0.11878273032E+02  0.00000000000E+00 0.  1.
          4    1    1    2  501    0 -0.23838030423E+01 -0.77046553844E-01 -0.10012897498E+02  0.10293034995E+02  0.00000000000E+00 0.  1.
         -4    1    1    2    0  501  0.23838030423E+01  0.77046553844E-01 -0.90103988387E+00  0.25495736875E+01  0.00000000000E+00 0. -1.
<mgrwt>
<rscale>  0 0.23850478E+01</rscale>
<asrwt>0</asrwt>
<pdfrwt beam="1">0</pdfrwt>
<pdfrwt beam="2">0</pdfrwt>
<totfact> 0.13418613E+12</totfact>
</mgrwt>
</event>
<event>
 4    2  0.1060494E+006  0.2174990E+01  0.7546771E-02  0.2871844E+00
         22   -1    0    0    0    0  0.00000000000E+00  0.00000000000E+00  0.20354100621E+01  0.20354100621E+01  0.00000000000E+00 0. -1.
         22   -1    0    0    0    0 -0.00000000000E+00 -0.00000000000E+00 -0.23586413159E+01  0.23586413159E+01  0.00000000000E+00 0.  1.
          4    1    1    2  501    0  0.13932972995E+01  0.16701214533E+01 -0.42732462921E+00  0.22165715356E+01  0.00000000000E+00 0.  1.
         -4    1    1    2    0  501 -0.13932972995E+01 -0.16701214533E+01  0.10409337540E+00  0.21774798425E+01  0.00000000000E+00 0. -1.
<mgrwt>
<rscale>  0 0.21749904E+01</rscale>
<asrwt>0</asrwt>
<pdfrwt beam="1">0</pdfrwt>
<pdfrwt beam="2">0</pdfrwt>
<totfact> 0.38769662E+12</totfact>
</mgrwt>
</event>
<event>
 4    2  0.1060494E+006  0.2993775E+01  0.7546771E-02  0.2524151E+00
         22   -1    0    0    0    0  0.00000000000E+00  0.00000000000E+00  0.28797917122E+01  0.28797917122E+01  0.00000000000E+00 0.  1.
         22   -1    0    0    0    0 -0.00000000000E+00 -0.00000000000E+00 -0.68090214244E+01  0.68090214244E+01  0.00000000000E+00 0. -1.
          4    1    1    2  501    0 -0.72618116583E+00  0.29043673662E+01 -0.55341229246E+01  0.62919953455E+01  0.00000000000E+00 0. -1.
         -4    1    1    2    0  501  0.72618116583E+00 -0.29043673662E+01  0.16048932123E+01  0.33968177911E+01  0.00000000000E+00 0.  1.
<mgrwt>
<rscale>  0 0.29937750E+01</rscale>
<asrwt>0</asrwt>
<pdfrwt beam="1">0</pdfrwt>
<pdfrwt beam="2">0</pdfrwt>
<totfact> 0.74348537E+11</totfact>
</mgrwt>
</event>
<event>
 4    2  0.1060494E+006  0.2796568E+01  0.7546771E-02  0.2590658E+00
         22   -1    0    0    0    0  0.00000000000E+00  0.00000000000E+00  0.11779719558E+01  0.11779719558E+01  0.00000000000E+00 0. -1.
         22   -1    0    0    0    0 -0.00000000000E+00 -0.00000000000E+00 -0.12974962998E+02  0.12974962998E+02  0.00000000000E+00 0.  1.
          4    1    1    2  501    0  0.24112078211E+01  0.14166402181E+01 -0.10843456582E+02  0.11198274122E+02  0.00000000000E+00 0. -1.
         -4    1    1    2    0  501 -0.24112078211E+01 -0.14166402181E+01 -0.95353446010E+00  0.29546608317E+01  0.00000000000E+00 0.  1.
<mgrwt>
<rscale>  0 0.27965680E+01</rscale>
<asrwt>0</asrwt>
<pdfrwt beam="1">0</pdfrwt>
<pdfrwt beam="2">0</pdfrwt>
<totfact> 0.95837297E+11</totfact>
</mgrwt>
</event>
<event>
 4    2  0.1060494E+006  0.3000405E+01  0.7546771E-02  0.2522052E+00
         22   -1    0    0    0    0  0.00000000000E+00  0.00000000000E+00  0.20674543109E+02  0.20674543109E+02  0.00000000000E+00 0. -1.
         22   -1    0    0    0    0 -0.00000000000E+00 -0.00000000000E+00 -0.43604756498E+00  0.43604756498E+00  0.00000000000E+00 0.  1.
          4    1    1    2  501    0  0.14993424241E+01  0.25989233156E+01  0.10514706066E+02  0.10934416938E+02  0.00000000000E+00 0.  1.
         -4    1    1    2    0  501 -0.14993424241E+01 -0.25989233156E+01  0.97237894778E+01  0.10176173736E+02  0.00000000000E+00 0. -1.
<mgrwt>
<rscale>  0 0.30004050E+01</rscale>
<asrwt>0</asrwt>
<pdfrwt beam="1">0</pdfrwt>
<pdfrwt beam="2">0</pdfrwt>
<totfact> 0.16662050E+12</totfact>
</mgrwt>
</event>
<event>
 4    2  0.1060494E+006  0.3083687E+01  0.7546771E-02  0.2496378E+00
         22   -1    0    0    0    0  0.00000000000E+00  0.00000000000E+00  0.35499166120E+00  0.35499166120E+00  0.00000000000E+00 0.  1.
         22   -1    0    0    0    0 -0.00000000000E+00 -0.00000000000E+00 -0.38349903417E+02  0.38349903417E+02  0.00000000000E+00 0. -1.
          4    1    1    2  501    0  0.26194010174E+01 -0.16272267468E+01 -0.29623924378E+02  0.29783989393E+02  0.00000000000E+00 0. -1.
         -4    1    1    2    0  501 -0.26194010174E+01  0.16272267468E+01 -0.83709873780E+01  0.89209056860E+01  0.00000000000E+00 0.  1.
<mgrwt>
<rscale>  0 0.30836875E+01</rscale>
<asrwt>0</asrwt>
<pdfrwt beam="1">0</pdfrwt>
<pdfrwt beam="2">0</pdfrwt>
<totfact> 0.95801502E+11</totfact>
</mgrwt>
</event>
<event>
 4    2  0.1060494E+006  0.2976238E+01  0.7546771E-02  0.2529743E+00
         22   -1    0    0    0    0  0.00000000000E+00  0.00000000000E+00  0.51279604628E+01  0.51279604628E+01  0.00000000000E+00 0. -1.
         22   -1    0    0    0    0 -0.00000000000E+00 -0.00000000000E+00 -0.18221954939E+01  0.18221954939E+01  0.00000000000E+00 0.  1.
          4    1    1    2  501    0  0.28862530788E+01 -0.72631845069E+00  0.24455305100E+01  0.38520922629E+01  0.00000000000E+00 0. -1.
         -4    1    1    2    0  501 -0.28862530788E+01  0.72631845069E+00  0.86023445889E+00  0.30980636938E+01  0.00000000000E+00 0.  1.
<mgrwt>
<rscale>  0 0.29762385E+01</rscale>
<asrwt>0</asrwt>
<pdfrwt beam="1">0</pdfrwt>
<pdfrwt beam="2">0</pdfrwt>
<totfact> 0.17723693E+12</totfact>
</mgrwt>
</event>
<event>
 4    2  0.1060494E+006  0.3695743E+01  0.7546771E-02  0.2339522E+00
         22   -1    0    0    0    0  0.00000000000E+00  0.00000000000E+00  0.41541498290E+02  0.41541498290E+02  0.00000000000E+00 0.  1.
         22   -1    0    0    0    0 -0.00000000000E+00 -0.00000000000E+00 -0.36468274283E+00  0.36468274283E+00  0.00000000000E+00 0. -1.
          4    1    1    2  501    0  0.34762547610E+01 -0.12546577218E+01  0.14015136106E+02  0.14494224823E+02  0.00000000000E+00 0.  1.
         -4    1    1    2    0  501 -0.34762547610E+01  0.12546577218E+01  0.27161679441E+02  0.27411956209E+02  0.00000000000E+00 0. -1.
<mgrwt>
<rscale>  0 0.36957426E+01</rscale>
<asrwt>0</asrwt>
<pdfrwt beam="1">0</pdfrwt>
<pdfrwt beam="2">0</pdfrwt>
<totfact> 0.83786958E+11</totfact>
</mgrwt>
</event>
<event>
 4    2  0.1060494E+006  0.2085930E+01  0.7546771E-02  0.2925043E+00
         22   -1    0    0    0    0  0.00000000000E+00  0.00000000000E+00  0.64312571461E-01  0.64312571461E-01  0.00000000000E+00 0. -1.
         22   -1    0    0    0    0 -0.00000000000E+00 -0.00000000000E+00 -0.78701958234E+02  0.78701958234E+02  0.00000000000E+00 0.  1.
          4    1    1    2  501    0  0.20842305081E+01  0.84175140320E-01 -0.54073445360E+02  0.54113663667E+02  0.00000000000E+00 0.  1.
         -4    1    1    2    0  501 -0.20842305081E+01 -0.84175140320E-01 -0.24564200302E+02  0.24652607139E+02  0.00000000000E+00 0. -1.
<mgrwt>
<rscale>  0 0.20859296E+01</rscale>
<asrwt>0</asrwt>
<pdfrwt beam="1">0</pdfrwt>
<pdfrwt beam="2">0</pdfrwt>
<totfact> 0.24616637E+12</totfact>
</mgrwt>
</event>
<event>
 4    2  0.1060494E+006  0.2897112E+01  0.7546771E-02  0.2555728E+00
         22   -1    0    0    0    0  0.00000000000E+00  0.00000000000E+00  0.34626155359E+01  0.34626155359E+01  0.00000000000E+00 0. -1.
         22   -1    0    0    0    0 -0.00000000000E+00 -0.00000000000E+00 -0.48282479440E+01  0.48282479440E+01  0.00000000000E+00 0.  1.
          4    1    1    2  501    0 -0.28753539661E+01 -0.35439999718E+00 -0.36080982788E+01  0.46272705754E+01  0.00000000000E+00 0.  1.
         -4    1    1    2    0  501  0.28753539661E+01  0.35439999718E+00  0.22424658708E+01  0.36635929045E+01  0.00000000000E+00 0. -1.
<mgrwt>
<rscale>  0 0.28971123E+01</rscale>
<asrwt>0</asrwt>
<pdfrwt beam="1">0</pdfrwt>
<pdfrwt beam="2">0</pdfrwt>
<totfact> 0.90184702E+11</totfact>
</mgrwt>
</event>
<event>
 4    2  0.1060494E+006  0.2867027E+01  0.7546771E-02  0.2565947E+00
         22   -1    0    0    0    0  0.00000000000E+00  0.00000000000E+00  0.14457605786E+00  0.14457605786E+00  0.00000000000E+00 0. -1.
         22   -1    0    0    0    0 -0.00000000000E+00 -0.00000000000E+00 -0.58888000047E+02  0.58888000047E+02  0.00000000000E+00 0.  1.
          4    1    1    2  501    0 -0.15457829393E+01  0.24146223833E+01 -0.34856198335E+02  0.34973910397E+02  0.00000000000E+00 0.  1.
         -4    1    1    2    0  501  0.15457829393E+01 -0.24146223833E+01 -0.23887225654E+02  0.24058665707E+02  0.00000000000E+00 0. -1.
<mgrwt>
<rscale>  0 0.28670274E+01</rscale>
<asrwt>0</asrwt>
<pdfrwt beam="1">0</pdfrwt>
<pdfrwt beam="2">0</pdfrwt>
<totfact> 0.14875366E+12</totfact>
</mgrwt>
</event>
<event>
 4    2  0.1060494E+006  0.4354655E+01  0.7546771E-02  0.2214228E+00
         22   -1    0    0    0    0  0.00000000000E+00  0.00000000000E+00  0.20081913114E+01  0.20081913114E+01  0.00000000000E+00 0. -1.
         22   -1    0    0    0    0 -0.00000000000E+00 -0.00000000000E+00 -0.50014161818E+02  0.50014161818E+02  0.00000000000E+00 0.  1.
          4    1    1    2  501    0 -0.42664244125E+01 -0.87215025054E+00 -0.47430331380E+02  0.47629815853E+02  0.00000000000E+00 0.  1.
         -4    1    1    2    0  501  0.42664244125E+01  0.87215025054E+00 -0.57563912675E+00  0.43925372771E+01  0.00000000000E+00 0. -1.
<mgrwt>
<rscale>  0 0.43546554E+01</rscale>
<asrwt>0</asrwt>
<pdfrwt beam="1">0</pdfrwt>
<pdfrwt beam="2">0</pdfrwt>
<totfact> 0.94039472E+10</totfact>
</mgrwt>
</event>
<event>
 4    2  0.1060494E+006  0.2544959E+01  0.7546771E-02  0.2689035E+00
         22   -1    0    0    0    0  0.00000000000E+00  0.00000000000E+00  0.35390215583E+02  0.35390215583E+02  0.00000000000E+00 0. -1.
         22   -1    0    0    0    0 -0.00000000000E+00 -0.00000000000E+00 -0.22899203245E+00  0.22899203245E+00  0.00000000000E+00 0.  1.
          4    1    1    2  501    0  0.25448694137E+01  0.21389446844E-01  0.25561126134E+02  0.25687506439E+02  0.00000000000E+00 0. -1.
         -4    1    1    2    0  501 -0.25448694137E+01 -0.21389446844E-01  0.96000974165E+01  0.99317011759E+01  0.00000000000E+00 0.  1.
<mgrwt>
<rscale>  0 0.25449593E+01</rscale>
<asrwt>0</asrwt>
<pdfrwt beam="1">0</pdfrwt>
<pdfrwt beam="2">0</pdfrwt>
<totfact> 0.17367211E+12</totfact>
</mgrwt>
</event>
<event>
 4    2  0.1060494E+006  0.1247197E+02  0.7546771E-02  0.1691977E+00
         22   -1    0    0    0    0  0.00000000000E+00  0.00000000000E+00  0.56412423367E+01  0.56412423367E+01  0.00000000000E+00 0.  1.
         22   -1    0    0    0    0 -0.00000000000E+00 -0.00000000000E+00 -0.44921858248E+02  0.44921858248E+02  0.00000000000E+00 0. -1.
          4    1    1    2  501    0  0.47428665960E+01  0.11534952790E+02 -0.35351225259E+02  0.37486784961E+02  0.00000000000E+00 0.  1.
         -4    1    1    2    0  501 -0.47428665960E+01 -0.11534952790E+02 -0.39293906531E+01  0.13076315625E+02  0.00000000000E+00 0. -1.
<mgrwt>
<rscale>  0 0.12471965E+02</rscale>
<asrwt>0</asrwt>
<pdfrwt beam="1">0</pdfrwt>
<pdfrwt beam="2">0</pdfrwt>
<totfact> 0.32275001E+10</totfact>
</mgrwt>
</event>
<event>
 4    2  0.1060494E+006  0.2068192E+01  0.7546771E-02  0.2936168E+00
         22   -1    0    0    0    0  0.00000000000E+00  0.00000000000E+00  0.13404508338E+02  0.13404508338E+02  0.00000000000E+00 0. -1.
         22   -1    0    0    0    0 -0.00000000000E+00 -0.00000000000E+00 -0.14179731997E+01  0.14179731997E+01  0.00000000000E+00 0.  1.
          4    1    1    2  501    0 -0.72241012668E+00 -0.19379220821E+01 -0.53097523922E+00  0.21352641739E+01  0.00000000000E+00 0.  1.
         -4    1    1    2    0  501  0.72241012668E+00  0.19379220821E+01  0.12517510378E+02  0.12687217364E+02  0.00000000000E+00 0. -1.
<mgrwt>
<rscale>  0 0.20681921E+01</rscale>
<asrwt>0</asrwt>
<pdfrwt beam="1">0</pdfrwt>
<pdfrwt beam="2">0</pdfrwt>
<totfact> 0.74435639E+11</totfact>
</mgrwt>
</event>
<event>
 4    2  0.1060494E+006  0.3255262E+01  0.7546771E-02  0.2447190E+00
         22   -1    0    0    0    0  0.00000000000E+00  0.00000000000E+00  0.69603805893E+01  0.69603805893E+01  0.00000000000E+00 0. -1.
         22   -1    0    0    0    0 -0.00000000000E+00 -0.00000000000E+00 -0.16993977345E+01  0.16993977345E+01  0.00000000000E+00 0.  1.
          4    1    1    2  501    0  0.24702414197E+01 -0.21200557308E+01  0.12332552299E+01  0.34810411424E+01  0.00000000000E+00 0. -1.
         -4    1    1    2    0  501 -0.24702414197E+01  0.21200557308E+01  0.40277276249E+01  0.51787371814E+01  0.00000000000E+00 0.  1.
<mgrwt>
<rscale>  0 0.32552617E+01</rscale>
<asrwt>0</asrwt>
<pdfrwt beam="1">0</pdfrwt>
<pdfrwt beam="2">0</pdfrwt>
<totfact> 0.13353516E+12</totfact>
</mgrwt>
</event>
<event>
 4    2  0.1060494E+006  0.3207669E+01  0.7546771E-02  0.2460366E+00
         22   -1    0    0    0    0  0.00000000000E+00  0.00000000000E+00  0.39339539811E+02  0.39339539811E+02  0.00000000000E+00 0. -1.
         22   -1    0    0    0    0 -0.00000000000E+00 -0.00000000000E+00 -0.47551061918E+00  0.47551061918E+00  0.00000000000E+00 0.  1.
          4    1    1    2  501    0  0.36043882852E+00  0.31873538847E+01  0.60781468014E+01  0.68726275524E+01  0.00000000000E+00 0.  1.
         -4    1    1    2    0  501 -0.36043882852E+00 -0.31873538847E+01  0.32785882391E+02  0.32942422878E+02  0.00000000000E+00 0. -1.
<mgrwt>
<rscale>  0 0.32076691E+01</rscale>
<asrwt>0</asrwt>
<pdfrwt beam="1">0</pdfrwt>
<pdfrwt beam="2">0</pdfrwt>
<totfact> 0.66695664E+11</totfact>
</mgrwt>
</event>
<event>
 4    2  0.1060494E+006  0.2806434E+01  0.7546771E-02  0.2587130E+00
         22   -1    0    0    0    0  0.00000000000E+00  0.00000000000E+00  0.96930886271E+01  0.96930886271E+01  0.00000000000E+00 0. -1.
         22   -1    0    0    0    0 -0.00000000000E+00 -0.00000000000E+00 -0.12440317078E+01  0.12440317078E+01  0.00000000000E+00 0.  1.
          4    1    1    2  501    0 -0.21353822915E+01  0.18210470272E+01  0.10038970285E+01  0.29805836760E+01  0.00000000000E+00 0. -1.
         -4    1    1    2    0  501  0.21353822915E+01 -0.18210470272E+01  0.74451598908E+01  0.79565366589E+01  0.00000000000E+00 0.  1.
<mgrwt>
<rscale>  0 0.28064336E+01</rscale>
<asrwt>0</asrwt>
<pdfrwt beam="1">0</pdfrwt>
<pdfrwt beam="2">0</pdfrwt>
<totfact> 0.12835233E+12</totfact>
</mgrwt>
</event>
<event>
 4    2  0.1060494E+006  0.2206662E+01  0.7546771E-02  0.2853924E+00
         22   -1    0    0    0    0  0.00000000000E+00  0.00000000000E+00  0.26294052242E+01  0.26294052242E+01  0.00000000000E+00 0.  1.
         22   -1    0    0    0    0 -0.00000000000E+00 -0.00000000000E+00 -0.16617781008E+02  0.16617781008E+02  0.00000000000E+00 0. -1.
          4    1    1    2  501    0  0.22044549281E+01 -0.98674940494E-01 -0.16065719699E+02  0.16216556593E+02  0.00000000000E+00 0. -1.
         -4    1    1    2    0  501 -0.22044549281E+01  0.98674940494E-01  0.20773439149E+01  0.30306296400E+01  0.00000000000E+00 0.  1.
<mgrwt>
<rscale>  0 0.22066622E+01</rscale>
<asrwt>0</asrwt>
<pdfrwt beam="1">0</pdfrwt>
<pdfrwt beam="2">0</pdfrwt>
<totfact> 0.27974147E+11</totfact>
</mgrwt>
</event>
<event>
 4    2  0.1060494E+006  0.6809489E+01  0.7546771E-02  0.1953890E+00
         22   -1    0    0    0    0  0.00000000000E+00  0.00000000000E+00  0.67436363315E+01  0.67436363315E+01  0.00000000000E+00 0.  1.
         22   -1    0    0    0    0 -0.00000000000E+00 -0.00000000000E+00 -0.36876150476E+02  0.36876150476E+02  0.00000000000E+00 0. -1.
          4    1    1    2  501    0  0.67455501002E+01 -0.93096173459E+00 -0.34737988462E+02  0.35399109852E+02  0.00000000000E+00 0. -1.
         -4    1    1    2    0  501 -0.67455501002E+01  0.93096173459E+00  0.46054743182E+01  0.82206769551E+01  0.00000000000E+00 0.  1.
<mgrwt>
<rscale>  0 0.68094887E+01</rscale>
<asrwt>0</asrwt>
<pdfrwt beam="1">0</pdfrwt>
<pdfrwt beam="2">0</pdfrwt>
<totfact> 0.33720012E+10</totfact>
</mgrwt>
</event>
<event>
 4    2  0.1060494E+006  0.2053848E+01  0.7546771E-02  0.2945301E+00
         22   -1    0    0    0    0  0.00000000000E+00  0.00000000000E+00  0.16102879097E+00  0.16102879097E+00  0.00000000000E+00 0. -1.
         22   -1    0    0    0    0 -0.00000000000E+00 -0.00000000000E+00 -0.31734532091E+02  0.31734532091E+02  0.00000000000E+00 0.  1.
          4    1    1    2  501    0 -0.48236794107E+00  0.19963999329E+01 -0.91242690776E+01  0.93525706479E+01  0.00000000000E+00 0. -1.
         -4    1    1    2    0  501  0.48236794107E+00 -0.19963999329E+01 -0.22449234223E+02  0.22542990235E+02  0.00000000000E+00 0.  1.
<mgrwt>
<rscale>  0 0.20538480E+01</rscale>
<asrwt>0</asrwt>
<pdfrwt beam="1">0</pdfrwt>
<pdfrwt beam="2">0</pdfrwt>
<totfact> 0.29576534E+12</totfact>
</mgrwt>
</event>
<event>
 4    2  0.1060494E+006  0.4127205E+01  0.7546771E-02  0.2253619E+00
         22   -1    0    0    0    0  0.00000000000E+00  0.00000000000E+00  0.48034530906E+00  0.48034530906E+00  0.00000000000E+00 0.  1.
         22   -1    0    0    0    0 -0.00000000000E+00 -0.00000000000E+00 -0.35514230932E+02  0.35514230932E+02  0.00000000000E+00 0. -1.
          4    1    1    2  501    0  0.21965070964E+00  0.41213556612E+01 -0.16824191505E+02  0.17323026258E+02  0.00000000000E+00 0.  1.
         -4    1    1    2    0  501 -0.21965070964E+00 -0.41213556612E+01 -0.18209694118E+02  0.18671549984E+02  0.00000000000E+00 0. -1.
<mgrwt>
<rscale>  0 0.41272047E+01</rscale>
<asrwt>0</asrwt>
<pdfrwt beam="1">0</pdfrwt>
<pdfrwt beam="2">0</pdfrwt>
<totfact> 0.75255881E+11</totfact>
</mgrwt>
</event>
<event>
 4    2  0.1060494E+006  0.2118489E+01  0.7546771E-02  0.2905093E+00
         22   -1    0    0    0    0  0.00000000000E+00  0.00000000000E+00  0.23761114199E+02  0.23761114199E+02  0.00000000000E+00 0. -1.
         22   -1    0    0    0    0 -0.00000000000E+00 -0.00000000000E+00 -0.22924509077E+01  0.22924509077E+01  0.00000000000E+00 0.  1.
          4    1    1    2  501    0  0.21091719391E+01 -0.19847025148E+00 -0.17442645354E+01  0.27441675384E+01  0.00000000000E+00 0.  1.
         -4    1    1    2    0  501 -0.21091719391E+01  0.19847025148E+00  0.23212927827E+02  0.23309397568E+02  0.00000000000E+00 0. -1.
<mgrwt>
<rscale>  0 0.21184893E+01</rscale>
<asrwt>0</asrwt>
<pdfrwt beam="1">0</pdfrwt>
<pdfrwt beam="2">0</pdfrwt>
<totfact> 0.21007829E+11</totfact>
</mgrwt>
</event>
<event>
 4    2  0.1060494E+006  0.3379634E+01  0.7546771E-02  0.2414308E+00
         22   -1    0    0    0    0  0.00000000000E+00  0.00000000000E+00  0.31013110163E+01  0.31013110163E+01  0.00000000000E+00 0.  1.
         22   -1    0    0    0    0 -0.00000000000E+00 -0.00000000000E+00 -0.38728976192E+01  0.38728976192E+01  0.00000000000E+00 0. -1.
          4    1    1    2  501    0  0.13399050339E+01 -0.31026735275E+01 -0.11580832901E+01  0.35725460703E+01  0.00000000000E+00 0.  1.
         -4    1    1    2    0  501 -0.13399050339E+01  0.31026735275E+01  0.38649668719E+00  0.34016625651E+01  0.00000000000E+00 0. -1.
<mgrwt>
<rscale>  0 0.33796344E+01</rscale>
<asrwt>0</asrwt>
<pdfrwt beam="1">0</pdfrwt>
<pdfrwt beam="2">0</pdfrwt>
<totfact> 0.13307051E+12</totfact>
</mgrwt>
</event>
<event>
 4    2  0.1060494E+006  0.2084163E+01  0.7546771E-02  0.2926143E+00
         22   -1    0    0    0    0  0.00000000000E+00  0.00000000000E+00  0.10449594844E+02  0.10449594844E+02  0.00000000000E+00 0.  1.
         22   -1    0    0    0    0 -0.00000000000E+00 -0.00000000000E+00 -0.83605473930E+00  0.83605473930E+00  0.00000000000E+00 0. -1.
          4    1    1    2  501    0  0.11642522173E+01  0.17286559095E+01  0.80552457236E+00  0.22344136402E+01  0.00000000000E+00 0. -1.
         -4    1    1    2    0  501 -0.11642522173E+01 -0.17286559095E+01  0.88080155327E+01  0.90512359434E+01  0.00000000000E+00 0.  1.
<mgrwt>
<rscale>  0 0.20841628E+01</rscale>
<asrwt>0</asrwt>
<pdfrwt beam="1">0</pdfrwt>
<pdfrwt beam="2">0</pdfrwt>
<totfact> 0.18450542E+12</totfact>
</mgrwt>
</event>
<event>
 4    2  0.1060494E+006  0.2845514E+01  0.7546771E-02  0.2573374E+00
         22   -1    0    0    0    0  0.00000000000E+00  0.00000000000E+00  0.13672615729E+01  0.13672615729E+01  0.00000000000E+00 0.  1.
         22   -1    0    0    0    0 -0.00000000000E+00 -0.00000000000E+00 -0.59554503610E+01  0.59554503610E+01  0.00000000000E+00 0. -1.
          4    1    1    2  501    0 -0.24762495512E+01  0.14018341729E+01 -0.20197773645E+01  0.34894772518E+01  0.00000000000E+00 0.  1.
         -4    1    1    2    0  501  0.24762495512E+01 -0.14018341729E+01 -0.25684114235E+01  0.38332346822E+01  0.00000000000E+00 0. -1.
<mgrwt>
<rscale>  0 0.28455142E+01</rscale>
<asrwt>0</asrwt>
<pdfrwt beam="1">0</pdfrwt>
<pdfrwt beam="2">0</pdfrwt>
<totfact> 0.20657843E+12</totfact>
</mgrwt>
</event>
<event>
 4    2  0.1060494E+006  0.2449334E+01  0.7546771E-02  0.2731297E+00
         22   -1    0    0    0    0  0.00000000000E+00  0.00000000000E+00  0.51814290211E+00  0.51814290211E+00  0.00000000000E+00 0.  1.
         22   -1    0    0    0    0 -0.00000000000E+00 -0.00000000000E+00 -0.23719515895E+02  0.23719515895E+02  0.00000000000E+00 0. -1.
          4    1    1    2  501    0 -0.23838819746E+01  0.56244515329E+00 -0.20271064437E+02  0.20418503648E+02  0.00000000000E+00 0. -1.
         -4    1    1    2    0  501  0.23838819746E+01 -0.56244515329E+00 -0.29303085560E+01  0.38191551491E+01  0.00000000000E+00 0.  1.
<mgrwt>
<rscale>  0 0.24493342E+01</rscale>
<asrwt>0</asrwt>
<pdfrwt beam="1">0</pdfrwt>
<pdfrwt beam="2">0</pdfrwt>
<totfact> 0.11544954E+12</totfact>
</mgrwt>
</event>
<event>
 4    2  0.1060494E+006  0.3507216E+01  0.7546771E-02  0.2382713E+00
         22   -1    0    0    0    0  0.00000000000E+00  0.00000000000E+00  0.76865460659E+00  0.76865460659E+00  0.00000000000E+00 0. -1.
         22   -1    0    0    0    0 -0.00000000000E+00 -0.00000000000E+00 -0.16149848314E+02  0.16149848314E+02  0.00000000000E+00 0.  1.
          4    1    1    2  501    0  0.35071560848E+01  0.20569364785E-01 -0.84980012795E+01  0.91932906322E+01  0.00000000000E+00 0. -1.
         -4    1    1    2    0  501 -0.35071560848E+01 -0.20569364785E-01 -0.68831924283E+01  0.77252122888E+01  0.00000000000E+00 0.  1.
<mgrwt>
<rscale>  0 0.35072164E+01</rscale>
<asrwt>0</asrwt>
<pdfrwt beam="1">0</pdfrwt>
<pdfrwt beam="2">0</pdfrwt>
<totfact> 0.11919987E+12</totfact>
</mgrwt>
</event>
<event>
 4    2  0.1060494E+006  0.2511643E+01  0.7546771E-02  0.2703419E+00
         22   -1    0    0    0    0  0.00000000000E+00  0.00000000000E+00  0.87373155614E-01  0.87373155614E-01  0.00000000000E+00 0. -1.
         22   -1    0    0    0    0 -0.00000000000E+00 -0.00000000000E+00 -0.72499502302E+02  0.72499502302E+02  0.00000000000E+00 0.  1.
          4    1    1    2  501    0 -0.25051651213E+01 -0.18027118191E+00 -0.33873718199E+02  0.33966706267E+02  0.00000000000E+00 0. -1.
         -4    1    1    2    0  501  0.25051651213E+01  0.18027118191E+00 -0.38538410948E+02  0.38620169191E+02  0.00000000000E+00 0.  1.
<mgrwt>
<rscale>  0 0.25116429E+01</rscale>
<asrwt>0</asrwt>
<pdfrwt beam="1">0</pdfrwt>
<pdfrwt beam="2">0</pdfrwt>
<totfact> 0.19638011E+12</totfact>
</mgrwt>
</event>
<event>
 4    2  0.1060494E+006  0.2223498E+01  0.7546771E-02  0.2844597E+00
         22   -1    0    0    0    0  0.00000000000E+00  0.00000000000E+00  0.58293424287E+00  0.58293424287E+00  0.00000000000E+00 0. -1.
         22   -1    0    0    0    0 -0.00000000000E+00 -0.00000000000E+00 -0.16013821610E+02  0.16013821610E+02  0.00000000000E+00 0.  1.
          4    1    1    2  501    0  0.50016978216E+00  0.21665117386E+01 -0.13406864788E+02  0.13589995083E+02  0.00000000000E+00 0.  1.
         -4    1    1    2    0  501 -0.50016978216E+00 -0.21665117386E+01 -0.20240225795E+01  0.30067607698E+01  0.00000000000E+00 0. -1.
<mgrwt>
<rscale>  0 0.22234979E+01</rscale>
<asrwt>0</asrwt>
<pdfrwt beam="1">0</pdfrwt>
<pdfrwt beam="2">0</pdfrwt>
<totfact> 0.16482629E+12</totfact>
</mgrwt>
</event>
<event>
 4    2  0.1060494E+006  0.4932921E+01  0.7546771E-02  0.2131097E+00
         22   -1    0    0    0    0  0.00000000000E+00  0.00000000000E+00  0.70194092122E+01  0.70194092122E+01  0.00000000000E+00 0.  1.
         22   -1    0    0    0    0 -0.00000000000E+00 -0.00000000000E+00 -0.39722477312E+01  0.39722477312E+01  0.00000000000E+00 0. -1.
          4    1    1    2  501    0 -0.47296136846E+01 -0.14015928197E+01 -0.43718328310E+00  0.49522557750E+01  0.00000000000E+00 0. -1.
         -4    1    1    2    0  501  0.47296136846E+01  0.14015928197E+01  0.34843447641E+01  0.60394011684E+01  0.00000000000E+00 0.  1.
<mgrwt>
<rscale>  0 0.49329208E+01</rscale>
<asrwt>0</asrwt>
<pdfrwt beam="1">0</pdfrwt>
<pdfrwt beam="2">0</pdfrwt>
<totfact> 0.49183296E+11</totfact>
</mgrwt>
</event>
<event>
 4    2  0.1060494E+006  0.6475532E+01  0.7546771E-02  0.1979495E+00
         22   -1    0    0    0    0  0.00000000000E+00  0.00000000000E+00  0.14430007892E+02  0.14430007892E+02  0.00000000000E+00 0. -1.
         22   -1    0    0    0    0 -0.00000000000E+00 -0.00000000000E+00 -0.31535458427E+01  0.31535458427E+01  0.00000000000E+00 0.  1.
          4    1    1    2  501    0 -0.18183917726E+01  0.62149796306E+01  0.31746281854E+01  0.72118502871E+01  0.00000000000E+00 0.  1.
         -4    1    1    2    0  501  0.18183917726E+01 -0.62149796306E+01  0.81018338642E+01  0.10371703448E+02  0.00000000000E+00 0. -1.
<mgrwt>
<rscale>  0 0.64755324E+01</rscale>
<asrwt>0</asrwt>
<pdfrwt beam="1">0</pdfrwt>
<pdfrwt beam="2">0</pdfrwt>
<totfact> 0.26928509E+11</totfact>
</mgrwt>
</event>
<event>
 4    2  0.1060494E+006  0.3408618E+01  0.7546771E-02  0.2406949E+00
         22   -1    0    0    0    0  0.00000000000E+00  0.00000000000E+00  0.23981021755E+01  0.23981021755E+01  0.00000000000E+00 0.  1.
         22   -1    0    0    0    0 -0.00000000000E+00 -0.00000000000E+00 -0.51164286150E+01  0.51164286150E+01  0.00000000000E+00 0. -1.
          4    1    1    2  501    0 -0.40013479771E+00 -0.33850512082E+01 -0.22246453240E+01  0.40703472034E+01  0.00000000000E+00 0. -1.
         -4    1    1    2    0  501  0.40013479771E+00  0.33850512082E+01 -0.49368111552E+00  0.34441835872E+01  0.00000000000E+00 0.  1.
<mgrwt>
<rscale>  0 0.34086184E+01</rscale>
<asrwt>0</asrwt>
<pdfrwt beam="1">0</pdfrwt>
<pdfrwt beam="2">0</pdfrwt>
<totfact> 0.12927901E+12</totfact>
</mgrwt>
</event>
<event>
 4    2  0.1060494E+006  0.2010063E+01  0.7546771E-02  0.2973967E+00
         22   -1    0    0    0    0  0.00000000000E+00  0.00000000000E+00  0.40958794035E+02  0.40958794035E+02  0.00000000000E+00 0.  1.
         22   -1    0    0    0    0 -0.00000000000E+00 -0.00000000000E+00 -0.23566151625E+00  0.23566151625E+00  0.00000000000E+00 0. -1.
          4    1    1    2  501    0 -0.39568898862E+00  0.19707318708E+01  0.46560607974E+01  0.50714155846E+01  0.00000000000E+00 0. -1.
         -4    1    1    2    0  501  0.39568898862E+00 -0.19707318708E+01  0.36067071722E+02  0.36123039967E+02  0.00000000000E+00 0.  1.
<mgrwt>
<rscale>  0 0.20100632E+01</rscale>
<asrwt>0</asrwt>
<pdfrwt beam="1">0</pdfrwt>
<pdfrwt beam="2">0</pdfrwt>
<totfact> 0.13920271E+12</totfact>
</mgrwt>
</event>
<event>
 4    2  0.1060494E+006  0.2019062E+01  0.7546771E-02  0.2967976E+00
         22   -1    0    0    0    0  0.00000000000E+00  0.00000000000E+00  0.90039658854E+01  0.90039658854E+01  0.00000000000E+00 0. -1.
         22   -1    0    0    0    0 -0.00000000000E+00 -0.00000000000E+00 -0.68950952806E+00  0.68950952806E+00  0.00000000000E+00 0.  1.
          4    1    1    2  501    0 -0.20179869345E+01 -0.65891425395E-01  0.13171764565E+01  0.24107191386E+01  0.00000000000E+00 0.  1.
         -4    1    1    2    0  501  0.20179869345E+01  0.65891425395E-01  0.69972799009E+01  0.72827562748E+01  0.00000000000E+00 0. -1.
<mgrwt>
<rscale>  0 0.20190624E+01</rscale>
<asrwt>0</asrwt>
<pdfrwt beam="1">0</pdfrwt>
<pdfrwt beam="2">0</pdfrwt>
<totfact> 0.27500906E+12</totfact>
</mgrwt>
</event>
<event>
 4    2  0.1060494E+006  0.2141233E+01  0.7546771E-02  0.2891505E+00
         22   -1    0    0    0    0  0.00000000000E+00  0.00000000000E+00  0.36556350328E+02  0.36556350328E+02  0.00000000000E+00 0. -1.
         22   -1    0    0    0    0 -0.00000000000E+00 -0.00000000000E+00 -0.43431904430E+00  0.43431904430E+00  0.00000000000E+00 0.  1.
          4    1    1    2  501    0 -0.84829858009E+00 -0.19660290033E+01  0.24631072242E+01  0.32637061327E+01  0.00000000000E+00 0.  1.
         -4    1    1    2    0  501  0.84829858009E+00  0.19660290033E+01  0.33658924059E+02  0.33726963239E+02  0.00000000000E+00 0. -1.
<mgrwt>
<rscale>  0 0.21412334E+01</rscale>
<asrwt>0</asrwt>
<pdfrwt beam="1">0</pdfrwt>
<pdfrwt beam="2">0</pdfrwt>
<totfact> 0.81215971E+11</totfact>
</mgrwt>
</event>
<event>
 4    2  0.1060494E+006  0.2752111E+01  0.7546771E-02  0.2606839E+00
         22   -1    0    0    0    0  0.00000000000E+00  0.00000000000E+00  0.30022440577E+01  0.30022440577E+01  0.00000000000E+00 0.  1.
         22   -1    0    0    0    0 -0.00000000000E+00 -0.00000000000E+00 -0.41130319299E+01  0.41130319299E+01  0.00000000000E+00 0. -1.
          4    1    1    2  501    0  0.12394716327E+01 -0.24571991317E+01 -0.27675124619E+01  0.39029786994E+01  0.00000000000E+00 0. -1.
         -4    1    1    2    0  501 -0.12394716327E+01  0.24571991317E+01  0.16567245897E+01  0.32122972881E+01  0.00000000000E+00 0.  1.
<mgrwt>
<rscale>  0 0.27521115E+01</rscale>
<asrwt>0</asrwt>
<pdfrwt beam="1">0</pdfrwt>
<pdfrwt beam="2">0</pdfrwt>
<totfact> 0.12876930E+12</totfact>
</mgrwt>
</event>
<event>
 4    2  0.1060494E+006  0.2092767E+01  0.7546771E-02  0.2920803E+00
         22   -1    0    0    0    0  0.00000000000E+00  0.00000000000E+00  0.33776470428E+02  0.33776470428E+02  0.00000000000E+00 0. -1.
         22   -1    0    0    0    0 -0.00000000000E+00 -0.00000000000E+00 -0.13032108395E+00  0.13032108395E+00  0.00000000000E+00 0.  1.
          4    1    1    2  501    0  0.22882458030E+00  0.20802198663E+01  0.18024633437E+02  0.18145718115E+02  0.00000000000E+00 0. -1.
         -4    1    1    2    0  501 -0.22882458030E+00 -0.20802198663E+01  0.15621515907E+02  0.15761073397E+02  0.00000000000E+00 0.  1.
<mgrwt>
<rscale>  0 0.20927674E+01</rscale>
<asrwt>0</asrwt>
<pdfrwt beam="1">0</pdfrwt>
<pdfrwt beam="2">0</pdfrwt>
<totfact> 0.34544908E+12</totfact>
</mgrwt>
</event>
<event>
 4    2  0.1060494E+006  0.2218092E+01  0.7546771E-02  0.2847577E+00
         22   -1    0    0    0    0  0.00000000000E+00  0.00000000000E+00  0.55261685954E+01  0.55261685954E+01  0.00000000000E+00 0. -1.
         22   -1    0    0    0    0 -0.00000000000E+00 -0.00000000000E+00 -0.25712990916E+01  0.25712990916E+01  0.00000000000E+00 0.  1.
          4    1    1    2  501    0  0.20804442845E+01 -0.76920987867E+00 -0.17961759725E+01  0.28541514295E+01  0.00000000000E+00 0.  1.
         -4    1    1    2    0  501 -0.20804442845E+01  0.76920987867E+00  0.47510454763E+01  0.52433162575E+01  0.00000000000E+00 0. -1.
<mgrwt>
<rscale>  0 0.22180920E+01</rscale>
<asrwt>0</asrwt>
<pdfrwt beam="1">0</pdfrwt>
<pdfrwt beam="2">0</pdfrwt>
<totfact> 0.10879145E+12</totfact>
</mgrwt>
</event>
<event>
 4    2  0.1060494E+006  0.4282196E+01  0.7546771E-02  0.2226393E+00
         22   -1    0    0    0    0  0.00000000000E+00  0.00000000000E+00  0.15644636544E+01  0.15644636544E+01  0.00000000000E+00 0. -1.
         22   -1    0    0    0    0 -0.00000000000E+00 -0.00000000000E+00 -0.12084539195E+02  0.12084539195E+02  0.00000000000E+00 0.  1.
          4    1    1    2  501    0  0.39354772051E+01 -0.16879636632E+01 -0.64435814218E+01  0.77367269371E+01  0.00000000000E+00 0.  1.
         -4    1    1    2    0  501 -0.39354772051E+01  0.16879636632E+01 -0.40764941186E+01  0.59122759119E+01  0.00000000000E+00 0. -1.
<mgrwt>
<rscale>  0 0.42821960E+01</rscale>
<asrwt>0</asrwt>
<pdfrwt beam="1">0</pdfrwt>
<pdfrwt beam="2">0</pdfrwt>
<totfact> 0.75462675E+11</totfact>
</mgrwt>
</event>
<event>
 4    2  0.1060494E+006  0.2069306E+01  0.7546771E-02  0.2935464E+00
         22   -1    0    0    0    0  0.00000000000E+00  0.00000000000E+00  0.70251545741E+00  0.70251545741E+00  0.00000000000E+00 0.  1.
         22   -1    0    0    0    0 -0.00000000000E+00 -0.00000000000E+00 -0.34186126006E+02  0.34186126006E+02  0.00000000000E+00 0. -1.
          4    1    1    2  501    0  0.13209179234E+01  0.15928597075E+01 -0.32554706286E+02  0.32620406613E+02  0.00000000000E+00 0. -1.
         -4    1    1    2    0  501 -0.13209179234E+01 -0.15928597075E+01 -0.92890426230E+00  0.22682348504E+01  0.00000000000E+00 0.  1.
<mgrwt>
<rscale>  0 0.20693057E+01</rscale>
<asrwt>0</asrwt>
<pdfrwt beam="1">0</pdfrwt>
<pdfrwt beam="2">0</pdfrwt>
<totfact> 0.51393473E+11</totfact>
</mgrwt>
</event>
<event>
 4    2  0.1060494E+006  0.2482898E+01  0.7546771E-02  0.2716118E+00
         22   -1    0    0    0    0  0.00000000000E+00  0.00000000000E+00  0.64932483329E+01  0.64932483329E+01  0.00000000000E+00 0.  1.
         22   -1    0    0    0    0 -0.00000000000E+00 -0.00000000000E+00 -0.24850365213E+01  0.24850365213E+01  0.00000000000E+00 0. -1.
          4    1    1    2  501    0 -0.22198945511E+01 -0.11121385047E+01 -0.15247925990E+01  0.29137220769E+01  0.00000000000E+00 0. -1.
         -4    1    1    2    0  501  0.22198945511E+01  0.11121385047E+01  0.55330044106E+01  0.60645627773E+01  0.00000000000E+00 0.  1.
<mgrwt>
<rscale>  0 0.24828983E+01</rscale>
<asrwt>0</asrwt>
<pdfrwt beam="1">0</pdfrwt>
<pdfrwt beam="2">0</pdfrwt>
<totfact> 0.93429431E+11</totfact>
</mgrwt>
</event>
<event>
 4    2  0.1060494E+006  0.2611380E+01  0.7546771E-02  0.2661374E+00
         22   -1    0    0    0    0  0.00000000000E+00  0.00000000000E+00  0.47422379193E+00  0.47422379193E+00  0.00000000000E+00 0.  1.
         22   -1    0    0    0    0 -0.00000000000E+00 -0.00000000000E+00 -0.16193592746E+02  0.16193592746E+02  0.00000000000E+00 0. -1.
          4    1    1    2  501    0 -0.15334159872E+01 -0.21137502723E+01 -0.10648728749E+02  0.10964247752E+02  0.00000000000E+00 0. -1.
         -4    1    1    2    0  501  0.15334159872E+01  0.21137502723E+01 -0.50706402051E+01  0.57035687857E+01  0.00000000000E+00 0.  1.
<mgrwt>
<rscale>  0 0.26113799E+01</rscale>
<asrwt>0</asrwt>
<pdfrwt beam="1">0</pdfrwt>
<pdfrwt beam="2">0</pdfrwt>
<totfact> 0.20528576E+12</totfact>
</mgrwt>
</event>
<event>
 4    2  0.1060494E+006  0.2221303E+01  0.7546771E-02  0.2845806E+00
         22   -1    0    0    0    0  0.00000000000E+00  0.00000000000E+00  0.36279324967E+00  0.36279324967E+00  0.00000000000E+00 0.  1.
         22   -1    0    0    0    0 -0.00000000000E+00 -0.00000000000E+00 -0.14580252563E+02  0.14580252563E+02  0.00000000000E+00 0. -1.
          4    1    1    2  501    0 -0.15708008415E+01 -0.15705953400E+01 -0.51719714881E+01  0.56288075184E+01  0.00000000000E+00 0.  1.
         -4    1    1    2    0  501  0.15708008415E+01  0.15705953400E+01 -0.90454878251E+01  0.93142382941E+01  0.00000000000E+00 0. -1.
<mgrwt>
<rscale>  0 0.22213025E+01</rscale>
<asrwt>0</asrwt>
<pdfrwt beam="1">0</pdfrwt>
<pdfrwt beam="2">0</pdfrwt>
<totfact> 0.31585839E+12</totfact>
</mgrwt>
</event>
<event>
 4    2  0.1060494E+006  0.2190660E+01  0.7546771E-02  0.2862916E+00
         22   -1    0    0    0    0  0.00000000000E+00  0.00000000000E+00  0.58504819838E+00  0.58504819838E+00  0.00000000000E+00 0.  1.
         22   -1    0    0    0    0 -0.00000000000E+00 -0.00000000000E+00 -0.13718826370E+02  0.13718826370E+02  0.00000000000E+00 0. -1.
          4    1    1    2  501    0 -0.73809355111E+00  0.20625733588E+01 -0.11101930300E+02  0.11315999617E+02  0.00000000000E+00 0. -1.
         -4    1    1    2    0  501  0.73809355111E+00 -0.20625733588E+01 -0.20318478716E+01  0.29878749511E+01  0.00000000000E+00 0.  1.
<mgrwt>
<rscale>  0 0.21906599E+01</rscale>
<asrwt>0</asrwt>
<pdfrwt beam="1">0</pdfrwt>
<pdfrwt beam="2">0</pdfrwt>
<totfact> 0.19855166E+12</totfact>
</mgrwt>
</event>
<event>
 4    2  0.1060494E+006  0.7259162E+01  0.7546771E-02  0.1922303E+00
         22   -1    0    0    0    0  0.00000000000E+00  0.00000000000E+00  0.46588467786E+01  0.46588467786E+01  0.00000000000E+00 0. -1.
         22   -1    0    0    0    0 -0.00000000000E+00 -0.00000000000E+00 -0.36573703640E+02  0.36573703640E+02  0.00000000000E+00 0.  1.
          4    1    1    2  501    0 -0.34073158874E+01 -0.64098070692E+01 -0.33091757337E+02  0.33878604338E+02  0.00000000000E+00 0.  1.
         -4    1    1    2    0  501  0.34073158874E+01  0.64098070692E+01  0.11769004762E+01  0.73539460803E+01  0.00000000000E+00 0. -1.
<mgrwt>
<rscale>  0 0.72591617E+01</rscale>
<asrwt>0</asrwt>
<pdfrwt beam="1">0</pdfrwt>
<pdfrwt beam="2">0</pdfrwt>
<totfact> 0.52883329E+10</totfact>
</mgrwt>
</event>
<event>
 4    2  0.1060494E+006  0.3706280E+01  0.7546771E-02  0.2337221E+00
         22   -1    0    0    0    0  0.00000000000E+00  0.00000000000E+00  0.12921977147E+01  0.12921977147E+01  0.00000000000E+00 0.  1.
         22   -1    0    0    0    0 -0.00000000000E+00 -0.00000000000E+00 -0.20210517397E+02  0.20210517397E+02  0.00000000000E+00 0. -1.
          4    1    1    2  501    0  0.90100944683E-01  0.37051848708E+01 -0.16861365609E+02  0.17263897686E+02  0.00000000000E+00 0. -1.
         -4    1    1    2    0  501 -0.90100944683E-01 -0.37051848708E+01 -0.20569540726E+01  0.42388174251E+01  0.00000000000E+00 0.  1.
<mgrwt>
<rscale>  0 0.37062802E+01</rscale>
<asrwt>0</asrwt>
<pdfrwt beam="1">0</pdfrwt>
<pdfrwt beam="2">0</pdfrwt>
<totfact> 0.49862088E+11</totfact>
</mgrwt>
</event>
<event>
 4    2  0.1060494E+006  0.2235876E+01  0.7546771E-02  0.2837825E+00
         22   -1    0    0    0    0  0.00000000000E+00  0.00000000000E+00  0.15517115569E+02  0.15517115569E+02  0.00000000000E+00 0. -1.
         22   -1    0    0    0    0 -0.00000000000E+00 -0.00000000000E+00 -0.37821810346E+00  0.37821810346E+00  0.00000000000E+00 0.  1.
          4    1    1    2  501    0  0.10799217597E+01 -0.19577825413E+01  0.45099493831E+01  0.50337646871E+01  0.00000000000E+00 0.  1.
         -4    1    1    2    0  501 -0.10799217597E+01  0.19577825413E+01  0.10628948082E+02  0.10861568985E+02  0.00000000000E+00 0. -1.
<mgrwt>
<rscale>  0 0.22358764E+01</rscale>
<asrwt>0</asrwt>
<pdfrwt beam="1">0</pdfrwt>
<pdfrwt beam="2">0</pdfrwt>
<totfact> 0.27917303E+12</totfact>
</mgrwt>
</event>
<event>
 4    2  0.1060494E+006  0.2340784E+01  0.7546771E-02  0.2783176E+00
         22   -1    0    0    0    0  0.00000000000E+00  0.00000000000E+00  0.31523827501E+01  0.31523827501E+01  0.00000000000E+00 0. -1.
         22   -1    0    0    0    0 -0.00000000000E+00 -0.00000000000E+00 -0.31242388811E+01  0.31242388811E+01  0.00000000000E+00 0.  1.
          4    1    1    2  501    0  0.19958140584E+01 -0.12231083268E+01 -0.20762909227E+01  0.31289377959E+01  0.00000000000E+00 0. -1.
         -4    1    1    2    0  501 -0.19958140584E+01  0.12231083268E+01  0.21044347917E+01  0.31476838353E+01  0.00000000000E+00 0.  1.
<mgrwt>
<rscale>  0 0.23407836E+01</rscale>
<asrwt>0</asrwt>
<pdfrwt beam="1">0</pdfrwt>
<pdfrwt beam="2">0</pdfrwt>
<totfact> 0.16793972E+12</totfact>
</mgrwt>
</event>
<event>
 4    2  0.1060494E+006  0.2537415E+01  0.7546771E-02  0.2692261E+00
         22   -1    0    0    0    0  0.00000000000E+00  0.00000000000E+00  0.47731508292E+00  0.47731508292E+00  0.00000000000E+00 0. -1.
         22   -1    0    0    0    0 -0.00000000000E+00 -0.00000000000E+00 -0.14893971446E+02  0.14893971446E+02  0.00000000000E+00 0.  1.
          4    1    1    2  501    0 -0.12232928561E+01 -0.22230672788E+01 -0.95689058942E+01  0.98996178487E+01  0.00000000000E+00 0.  1.
         -4    1    1    2    0  501  0.12232928561E+01  0.22230672788E+01 -0.48477504689E+01  0.54716686803E+01  0.00000000000E+00 0. -1.
<mgrwt>
<rscale>  0 0.25374147E+01</rscale>
<asrwt>0</asrwt>
<pdfrwt beam="1">0</pdfrwt>
<pdfrwt beam="2">0</pdfrwt>
<totfact> 0.22591846E+12</totfact>
</mgrwt>
</event>
<event>
 4    2  0.1060494E+006  0.2387772E+01  0.7546771E-02  0.2760175E+00
         22   -1    0    0    0    0  0.00000000000E+00  0.00000000000E+00  0.55350102417E+02  0.55350102417E+02  0.00000000000E+00 0.  1.
         22   -1    0    0    0    0 -0.00000000000E+00 -0.00000000000E+00 -0.11064398392E+00  0.11064398392E+00  0.00000000000E+00 0. -1.
          4    1    1    2  501    0 -0.20705567841E+01  0.11892213861E+01  0.20334382380E+02  0.20474094844E+02  0.00000000000E+00 0. -1.
         -4    1    1    2    0  501  0.20705567841E+01 -0.11892213861E+01  0.34905076053E+02  0.34986651557E+02  0.00000000000E+00 0.  1.
<mgrwt>
<rscale>  0 0.23877715E+01</rscale>
<asrwt>0</asrwt>
<pdfrwt beam="1">0</pdfrwt>
<pdfrwt beam="2">0</pdfrwt>
<totfact> 0.21738875E+12</totfact>
</mgrwt>
</event>
<event>
 4    2  0.1060494E+006  0.5216956E+01  0.7546771E-02  0.2097964E+00
         22   -1    0    0    0    0  0.00000000000E+00  0.00000000000E+00  0.48845647192E+00  0.48845647192E+00  0.00000000000E+00 0. -1.
         22   -1    0    0    0    0 -0.00000000000E+00 -0.00000000000E+00 -0.72422168579E+02  0.72422168579E+02  0.00000000000E+00 0.  1.
          4    1    1    2  501    0 -0.84800770890E+00  0.51475735767E+01 -0.53474022259E+02  0.53727904178E+02  0.00000000000E+00 0.  1.
         -4    1    1    2    0  501  0.84800770890E+00 -0.51475735767E+01 -0.18459689848E+02  0.19182720873E+02  0.00000000000E+00 0. -1.
<mgrwt>
<rscale>  0 0.52169561E+01</rscale>
<asrwt>0</asrwt>
<pdfrwt beam="1">0</pdfrwt>
<pdfrwt beam="2">0</pdfrwt>
<totfact> 0.28794646E+11</totfact>
</mgrwt>
</event>
<event>
 4    2  0.1060494E+006  0.3283104E+01  0.7546771E-02  0.2439639E+00
         22   -1    0    0    0    0  0.00000000000E+00  0.00000000000E+00  0.84954292428E+01  0.84954292428E+01  0.00000000000E+00 0.  1.
         22   -1    0    0    0    0 -0.00000000000E+00 -0.00000000000E+00 -0.34109621221E+01  0.34109621221E+01  0.00000000000E+00 0. -1.
          4    1    1    2  501    0 -0.20941362008E+01  0.25285099737E+01 -0.21755785410E+01  0.39385163580E+01  0.00000000000E+00 0. -1.
         -4    1    1    2    0  501  0.20941362008E+01 -0.25285099737E+01  0.72600456618E+01  0.79678750069E+01  0.00000000000E+00 0.  1.
<mgrwt>
<rscale>  0 0.32831036E+01</rscale>
<asrwt>0</asrwt>
<pdfrwt beam="1">0</pdfrwt>
<pdfrwt beam="2">0</pdfrwt>
<totfact> 0.46777432E+11</totfact>
</mgrwt>
</event>
<event>
 4    2  0.1060494E+006  0.2644726E+01  0.7546771E-02  0.2647970E+00
         22   -1    0    0    0    0  0.00000000000E+00  0.00000000000E+00  0.66459729748E+00  0.66459729748E+00  0.00000000000E+00 0. -1.
         22   -1    0    0    0    0 -0.00000000000E+00 -0.00000000000E+00 -0.11304069094E+02  0.11304069094E+02  0.00000000000E+00 0.  1.
          4    1    1    2  501    0  0.22458611912E+01 -0.13966695158E+01 -0.68912403841E+01  0.73813123669E+01  0.00000000000E+00 0.  1.
         -4    1    1    2    0  501 -0.22458611912E+01  0.13966695158E+01 -0.37482314128E+01  0.45873540250E+01  0.00000000000E+00 0. -1.
<mgrwt>
<rscale>  0 0.26447265E+01</rscale>
<asrwt>0</asrwt>
<pdfrwt beam="1">0</pdfrwt>
<pdfrwt beam="2">0</pdfrwt>
<totfact> 0.21769150E+12</totfact>
</mgrwt>
</event>
<event>
 4    2  0.1060494E+006  0.3973725E+01  0.7546771E-02  0.2282345E+00
         22   -1    0    0    0    0  0.00000000000E+00  0.00000000000E+00  0.37083670623E+01  0.37083670623E+01  0.00000000000E+00 0.  1.
         22   -1    0    0    0    0 -0.00000000000E+00 -0.00000000000E+00 -0.27235658774E+02  0.27235658774E+02  0.00000000000E+00 0. -1.
          4    1    1    2  501    0  0.28356198133E+01  0.27838372555E+01 -0.25974824396E+02  0.26277024033E+02  0.00000000000E+00 0. -1.
         -4    1    1    2    0  501 -0.28356198133E+01 -0.27838372555E+01  0.24475326848E+01  0.46670018035E+01  0.00000000000E+00 0.  1.
<mgrwt>
<rscale>  0 0.39737249E+01</rscale>
<asrwt>0</asrwt>
<pdfrwt beam="1">0</pdfrwt>
<pdfrwt beam="2">0</pdfrwt>
<totfact> 0.10086200E+11</totfact>
</mgrwt>
</event>
<event>
 4    2  0.1060494E+006  0.2036746E+01  0.7546771E-02  0.2956354E+00
         22   -1    0    0    0    0  0.00000000000E+00  0.00000000000E+00  0.63970278808E+01  0.63970278808E+01  0.00000000000E+00 0.  1.
         22   -1    0    0    0    0 -0.00000000000E+00 -0.00000000000E+00 -0.13118882147E+01  0.13118882147E+01  0.00000000000E+00 0. -1.
          4    1    1    2  501    0  0.20339322668E+01 -0.10703123227E+00 -0.19840952331E+00  0.20463876684E+01  0.00000000000E+00 0. -1.
         -4    1    1    2    0  501 -0.20339322668E+01  0.10703123227E+00  0.52835491894E+01  0.56625284271E+01  0.00000000000E+00 0.  1.
<mgrwt>
<rscale>  0 0.20367465E+01</rscale>
<asrwt>0</asrwt>
<pdfrwt beam="1">0</pdfrwt>
<pdfrwt beam="2">0</pdfrwt>
<totfact> 0.19890454E+12</totfact>
</mgrwt>
</event>
<event>
 4    2  0.1060494E+006  0.2587810E+01  0.7546771E-02  0.2671039E+00
         22   -1    0    0    0    0  0.00000000000E+00  0.00000000000E+00  0.37031649660E+01  0.37031649660E+01  0.00000000000E+00 0.  1.
         22   -1    0    0    0    0 -0.00000000000E+00 -0.00000000000E+00 -0.18837127997E+01  0.18837127997E+01  0.00000000000E+00 0. -1.
          4    1    1    2  501    0  0.25531820701E+01  0.42192849194E+00  0.14683226897E+01  0.29753544085E+01  0.00000000000E+00 0.  1.
         -4    1    1    2    0  501 -0.25531820701E+01 -0.42192849194E+00  0.35112947667E+00  0.26115233571E+01  0.00000000000E+00 0. -1.
<mgrwt>
<rscale>  0 0.25878103E+01</rscale>
<asrwt>0</asrwt>
<pdfrwt beam="1">0</pdfrwt>
<pdfrwt beam="2">0</pdfrwt>
<totfact> 0.25039999E+12</totfact>
</mgrwt>
</event>
<event>
 4    2  0.1060494E+006  0.2348421E+01  0.7546771E-02  0.2779378E+00
         22   -1    0    0    0    0  0.00000000000E+00  0.00000000000E+00  0.60888759106E+00  0.60888759106E+00  0.00000000000E+00 0.  1.
         22   -1    0    0    0    0 -0.00000000000E+00 -0.00000000000E+00 -0.11068825672E+02  0.11068825672E+02  0.00000000000E+00 0. -1.
          4    1    1    2  501    0 -0.12499398509E+00  0.23450926086E+01 -0.27410920464E+01  0.36095246842E+01  0.00000000000E+00 0.  1.
         -4    1    1    2    0  501  0.12499398509E+00 -0.23450926086E+01 -0.77188460349E+01  0.80681885792E+01  0.00000000000E+00 0. -1.
<mgrwt>
<rscale>  0 0.23484214E+01</rscale>
<asrwt>0</asrwt>
<pdfrwt beam="1">0</pdfrwt>
<pdfrwt beam="2">0</pdfrwt>
<totfact> 0.24662085E+12</totfact>
</mgrwt>
</event>
<event>
 4    2  0.1060494E+006  0.6455321E+01  0.7546771E-02  0.1981110E+00
         22   -1    0    0    0    0  0.00000000000E+00  0.00000000000E+00  0.43527144252E+02  0.43527144252E+02  0.00000000000E+00 0. -1.
         22   -1    0    0    0    0 -0.00000000000E+00 -0.00000000000E+00 -0.12028264757E+01  0.12028264757E+01  0.00000000000E+00 0.  1.
          4    1    1    2  501    0  0.23899265782E+01 -0.59966176513E+01  0.11058871550E+02  0.12805069787E+02  0.00000000000E+00 0.  1.
         -4    1    1    2    0  501 -0.23899265782E+01  0.59966176513E+01  0.31265446227E+02  0.31924900941E+02  0.00000000000E+00 0. -1.
<mgrwt>
<rscale>  0 0.64553212E+01</rscale>
<asrwt>0</asrwt>
<pdfrwt beam="1">0</pdfrwt>
<pdfrwt beam="2">0</pdfrwt>
<totfact> 0.20361171E+11</totfact>
</mgrwt>
</event>
<event>
 4    2  0.1060494E+006  0.2208324E+01  0.7546771E-02  0.2852997E+00
         22   -1    0    0    0    0  0.00000000000E+00  0.00000000000E+00  0.24525326322E+02  0.24525326322E+02  0.00000000000E+00 0.  1.
         22   -1    0    0    0    0 -0.00000000000E+00 -0.00000000000E+00 -0.21582481423E+00  0.21582481423E+00  0.00000000000E+00 0. -1.
          4    1    1    2  501    0 -0.34406925397E+00 -0.21813554262E+01  0.86847601614E+01  0.89611246062E+01  0.00000000000E+00 0.  1.
         -4    1    1    2    0  501  0.34406925397E+00  0.21813554262E+01  0.15624741346E+02  0.15780026530E+02  0.00000000000E+00 0. -1.
<mgrwt>
<rscale>  0 0.22083241E+01</rscale>
<asrwt>0</asrwt>
<pdfrwt beam="1">0</pdfrwt>
<pdfrwt beam="2">0</pdfrwt>
<totfact> 0.29595860E+12</totfact>
</mgrwt>
</event>
<event>
 4    2  0.1060494E+006  0.2039511E+01  0.7546771E-02  0.2954555E+00
         22   -1    0    0    0    0  0.00000000000E+00  0.00000000000E+00  0.17500438290E+01  0.17500438290E+01  0.00000000000E+00 0.  1.
         22   -1    0    0    0    0 -0.00000000000E+00 -0.00000000000E+00 -0.24225248173E+01  0.24225248173E+01  0.00000000000E+00 0. -1.
          4    1    1    2  501    0  0.91307381315E-01 -0.20374659538E+01 -0.49794465691E-01  0.20401186337E+01  0.00000000000E+00 0.  1.
         -4    1    1    2    0  501 -0.91307381315E-01  0.20374659538E+01 -0.62268652255E+00  0.21324500126E+01  0.00000000000E+00 0. -1.
<mgrwt>
<rscale>  0 0.20395109E+01</rscale>
<asrwt>0</asrwt>
<pdfrwt beam="1">0</pdfrwt>
<pdfrwt beam="2">0</pdfrwt>
<totfact> 0.44753747E+12</totfact>
</mgrwt>
</event>
<event>
 4    2  0.1060494E+006  0.2037494E+01  0.7546771E-02  0.2955867E+00
         22   -1    0    0    0    0  0.00000000000E+00  0.00000000000E+00  0.13120882839E+00  0.13120882839E+00  0.00000000000E+00 0. -1.
         22   -1    0    0    0    0 -0.00000000000E+00 -0.00000000000E+00 -0.39882930610E+02  0.39882930610E+02  0.00000000000E+00 0.  1.
          4    1    1    2  501    0  0.22786525987E+00 -0.20247123991E+01 -0.28971719828E+02  0.29043276893E+02  0.00000000000E+00 0.  1.
         -4    1    1    2    0  501 -0.22786525987E+00  0.20247123991E+01 -0.10780001954E+02  0.10970862546E+02  0.00000000000E+00 0. -1.
<mgrwt>
<rscale>  0 0.20374943E+01</rscale>
<asrwt>0</asrwt>
<pdfrwt beam="1">0</pdfrwt>
<pdfrwt beam="2">0</pdfrwt>
<totfact> 0.27666999E+12</totfact>
</mgrwt>
</event>
<event>
 4    2  0.1060494E+006  0.2161635E+01  0.7546771E-02  0.2879552E+00
         22   -1    0    0    0    0  0.00000000000E+00  0.00000000000E+00  0.19012824932E+02  0.19012824932E+02  0.00000000000E+00 0. -1.
         22   -1    0    0    0    0 -0.00000000000E+00 -0.00000000000E+00 -0.28903475278E+00  0.28903475278E+00  0.00000000000E+00 0.  1.
          4    1    1    2  501    0 -0.14672707478E+01  0.15873817861E+01  0.56277405970E+01  0.60286091771E+01  0.00000000000E+00 0.  1.
         -4    1    1    2    0  501  0.14672707478E+01 -0.15873817861E+01  0.13096049582E+02  0.13273250508E+02  0.00000000000E+00 0. -1.
<mgrwt>
<rscale>  0 0.21616347E+01</rscale>
<asrwt>0</asrwt>
<pdfrwt beam="1">0</pdfrwt>
<pdfrwt beam="2">0</pdfrwt>
<totfact> 0.29359214E+12</totfact>
</mgrwt>
</event>
<event>
 4    2  0.1060494E+006  0.2030514E+01  0.7546771E-02  0.2960427E+00
         22   -1    0    0    0    0  0.00000000000E+00  0.00000000000E+00  0.79618673101E-01  0.79618673101E-01  0.00000000000E+00 0. -1.
         22   -1    0    0    0    0 -0.00000000000E+00 -0.00000000000E+00 -0.61114004601E+02  0.61114004601E+02  0.00000000000E+00 0.  1.
          4    1    1    2  501    0  0.13625877446E+01 -0.15054377651E+01 -0.42471994950E+02  0.42520504975E+02  0.00000000000E+00 0.  1.
         -4    1    1    2    0  501 -0.13625877446E+01  0.15054377651E+01 -0.18562390978E+02  0.18673118300E+02  0.00000000000E+00 0. -1.
<mgrwt>
<rscale>  0 0.20305143E+01</rscale>
<asrwt>0</asrwt>
<pdfrwt beam="1">0</pdfrwt>
<pdfrwt beam="2">0</pdfrwt>
<totfact> 0.27406950E+12</totfact>
</mgrwt>
</event>
<event>
 4    2  0.1060494E+006  0.4129707E+01  0.7546771E-02  0.2253166E+00
         22   -1    0    0    0    0  0.00000000000E+00  0.00000000000E+00  0.11181499259E+02  0.11181499259E+02  0.00000000000E+00 0.  1.
         22   -1    0    0    0    0 -0.00000000000E+00 -0.00000000000E+00 -0.48222005346E+01  0.48222005346E+01  0.00000000000E+00 0. -1.
          4    1    1    2  501    0 -0.80745330734E+00  0.40499995809E+01 -0.34367939653E+01  0.53727116253E+01  0.00000000000E+00 0. -1.
         -4    1    1    2    0  501  0.80745330734E+00 -0.40499995809E+01  0.97960926895E+01  0.10630988168E+02  0.00000000000E+00 0.  1.
<mgrwt>
<rscale>  0 0.41297067E+01</rscale>
<asrwt>0</asrwt>
<pdfrwt beam="1">0</pdfrwt>
<pdfrwt beam="2">0</pdfrwt>
<totfact> 0.22318809E+11</totfact>
</mgrwt>
</event>
<event>
 4    2  0.1060494E+006  0.2593007E+01  0.7546771E-02  0.2668894E+00
         22   -1    0    0    0    0  0.00000000000E+00  0.00000000000E+00  0.16262173304E+02  0.16262173304E+02  0.00000000000E+00 0.  1.
         22   -1    0    0    0    0 -0.00000000000E+00 -0.00000000000E+00 -0.61561987264E+00  0.61561987264E+00  0.00000000000E+00 0. -1.
          4    1    1    2  501    0 -0.20425359191E+01 -0.15974134587E+01  0.29873266277E+01  0.39557304154E+01  0.00000000000E+00 0. -1.
         -4    1    1    2    0  501  0.20425359191E+01  0.15974134587E+01  0.12659226803E+02  0.12922062761E+02  0.00000000000E+00 0.  1.
<mgrwt>
<rscale>  0 0.25930065E+01</rscale>
<asrwt>0</asrwt>
<pdfrwt beam="1">0</pdfrwt>
<pdfrwt beam="2">0</pdfrwt>
<totfact> 0.15204290E+12</totfact>
</mgrwt>
</event>
<event>
 4    2  0.1060494E+006  0.2670166E+01  0.7546771E-02  0.2637953E+00
         22   -1    0    0    0    0  0.00000000000E+00  0.00000000000E+00  0.25597145944E+02  0.25597145944E+02  0.00000000000E+00 0.  1.
         22   -1    0    0    0    0 -0.00000000000E+00 -0.00000000000E+00 -0.33748302255E+00  0.33748302255E+00  0.00000000000E+00 0. -1.
          4    1    1    2  501    0  0.26688343684E+01 -0.84313020606E-01  0.72104897680E+01  0.76890147786E+01  0.00000000000E+00 0. -1.
         -4    1    1    2    0  501 -0.26688343684E+01  0.84313020606E-01  0.18049173153E+02  0.18245614188E+02  0.00000000000E+00 0.  1.
<mgrwt>
<rscale>  0 0.26701658E+01</rscale>
<asrwt>0</asrwt>
<pdfrwt beam="1">0</pdfrwt>
<pdfrwt beam="2">0</pdfrwt>
<totfact> 0.16998997E+12</totfact>
</mgrwt>
</event>
<event>
 4    2  0.1060494E+006  0.2292567E+01  0.7546771E-02  0.2807703E+00
         22   -1    0    0    0    0  0.00000000000E+00  0.00000000000E+00  0.49165806186E+00  0.49165806186E+00  0.00000000000E+00 0. -1.
         22   -1    0    0    0    0 -0.00000000000E+00 -0.00000000000E+00 -0.10696831023E+02  0.10696831023E+02  0.00000000000E+00 0.  1.
          4    1    1    2  501    0  0.21186777302E+01 -0.87582469127E+00 -0.49620511282E+01  0.54660603374E+01  0.00000000000E+00 0.  1.
         -4    1    1    2    0  501 -0.21186777302E+01  0.87582469127E+00 -0.52431218335E+01  0.57224287479E+01  0.00000000000E+00 0. -1.
<mgrwt>
<rscale>  0 0.22925672E+01</rscale>
<asrwt>0</asrwt>
<pdfrwt beam="1">0</pdfrwt>
<pdfrwt beam="2">0</pdfrwt>
<totfact> 0.32740104E+12</totfact>
</mgrwt>
</event>
<event>
 4    2  0.1060494E+006  0.2116768E+01  0.7546771E-02  0.2906132E+00
         22   -1    0    0    0    0  0.00000000000E+00  0.00000000000E+00  0.96243483216E-01  0.96243483216E-01  0.00000000000E+00 0.  1.
         22   -1    0    0    0    0 -0.00000000000E+00 -0.00000000000E+00 -0.75497728298E+02  0.75497728298E+02  0.00000000000E+00 0. -1.
          4    1    1    2  501    0  0.18091361633E+01 -0.10989699106E+01 -0.61102727475E+02  0.61139381853E+02  0.00000000000E+00 0. -1.
         -4    1    1    2    0  501 -0.18091361633E+01  0.10989699106E+01 -0.14298757340E+02  0.14454589928E+02  0.00000000000E+00 0.  1.
<mgrwt>
<rscale>  0 0.21167684E+01</rscale>
<asrwt>0</asrwt>
<pdfrwt beam="1">0</pdfrwt>
<pdfrwt beam="2">0</pdfrwt>
<totfact> 0.16696024E+12</totfact>
</mgrwt>
</event>
<event>
 4    2  0.1060494E+006  0.3819166E+01  0.7546771E-02  0.2313254E+00
         22   -1    0    0    0    0  0.00000000000E+00  0.00000000000E+00  0.23413823260E+02  0.23413823260E+02  0.00000000000E+00 0.  1.
         22   -1    0    0    0    0 -0.00000000000E+00 -0.00000000000E+00 -0.63762098976E+00  0.63762098976E+00  0.00000000000E+00 0. -1.
          4    1    1    2  501    0 -0.98727608762E+00 -0.36893517176E+01  0.95649883311E+01  0.10299273370E+02  0.00000000000E+00 0. -1.
         -4    1    1    2    0  501  0.98727608762E+00  0.36893517176E+01  0.13211213939E+02  0.13752170880E+02  0.00000000000E+00 0.  1.
<mgrwt>
<rscale>  0 0.38191662E+01</rscale>
<asrwt>0</asrwt>
<pdfrwt beam="1">0</pdfrwt>
<pdfrwt beam="2">0</pdfrwt>
<totfact> 0.92793589E+11</totfact>
</mgrwt>
</event>
<event>
 4    2  0.1060494E+006  0.2200109E+01  0.7546771E-02  0.2857591E+00
         22   -1    0    0    0    0  0.00000000000E+00  0.00000000000E+00  0.52447823526E+01  0.52447823526E+01  0.00000000000E+00 0. -1.
         22   -1    0    0    0    0 -0.00000000000E+00 -0.00000000000E+00 -0.98093396503E+00  0.98093396503E+00  0.00000000000E+00 0.  1.
          4    1    1    2  501    0 -0.16395831639E+01 -0.14670532265E+01  0.13748617506E+01  0.25943636896E+01  0.00000000000E+00 0.  1.
         -4    1    1    2    0  501  0.16395831639E+01  0.14670532265E+01  0.28889866369E+01  0.36313526280E+01  0.00000000000E+00 0. -1.
<mgrwt>
<rscale>  0 0.22001087E+01</rscale>
<asrwt>0</asrwt>
<pdfrwt beam="1">0</pdfrwt>
<pdfrwt beam="2">0</pdfrwt>
<totfact> 0.35134934E+12</totfact>
</mgrwt>
</event>
<event>
 4    2  0.1060494E+006  0.2786028E+01  0.7546771E-02  0.2594451E+00
         22   -1    0    0    0    0  0.00000000000E+00  0.00000000000E+00  0.22461844446E+01  0.22461844446E+01  0.00000000000E+00 0. -1.
         22   -1    0    0    0    0 -0.00000000000E+00 -0.00000000000E+00 -0.38909820225E+01  0.38909820225E+01  0.00000000000E+00 0.  1.
          4    1    1    2  501    0 -0.13973845264E+00 -0.27825218128E+01 -0.18488416284E+01  0.33436760969E+01  0.00000000000E+00 0.  1.
         -4    1    1    2    0  501  0.13973845264E+00  0.27825218128E+01  0.20404405046E+00  0.27934903702E+01  0.00000000000E+00 0. -1.
<mgrwt>
<rscale>  0 0.27860284E+01</rscale>
<asrwt>0</asrwt>
<pdfrwt beam="1">0</pdfrwt>
<pdfrwt beam="2">0</pdfrwt>
<totfact> 0.19269488E+12</totfact>
</mgrwt>
</event>
<event>
 4    2  0.1060494E+006  0.2015248E+01  0.7546771E-02  0.2970509E+00
         22   -1    0    0    0    0  0.00000000000E+00  0.00000000000E+00  0.17684731002E+01  0.17684731002E+01  0.00000000000E+00 0.  1.
         22   -1    0    0    0    0 -0.00000000000E+00 -0.00000000000E+00 -0.30176832350E+01  0.30176832350E+01  0.00000000000E+00 0. -1.
          4    1    1    2  501    0 -0.12495710958E+01  0.15810741379E+01 -0.17945237073E+01  0.26984326357E+01  0.00000000000E+00 0. -1.
         -4    1    1    2    0  501  0.12495710958E+01 -0.15810741379E+01  0.54531357257E+00  0.20877236995E+01  0.00000000000E+00 0.  1.
<mgrwt>
<rscale>  0 0.20152477E+01</rscale>
<asrwt>0</asrwt>
<pdfrwt beam="1">0</pdfrwt>
<pdfrwt beam="2">0</pdfrwt>
<totfact> 0.34229109E+12</totfact>
</mgrwt>
</event>
<event>
 4    2  0.1060494E+006  0.2518962E+01  0.7546771E-02  0.2700229E+00
         22   -1    0    0    0    0  0.00000000000E+00  0.00000000000E+00  0.20050220530E+01  0.20050220530E+01  0.00000000000E+00 0.  1.
         22   -1    0    0    0    0 -0.00000000000E+00 -0.00000000000E+00 -0.84833394146E+01  0.84833394146E+01  0.00000000000E+00 0. -1.
          4    1    1    2  501    0 -0.53699466954E+00 -0.24610581827E+01 -0.73915378152E+01  0.78089693255E+01  0.00000000000E+00 0. -1.
         -4    1    1    2    0  501  0.53699466954E+00  0.24610581827E+01  0.91322045356E+00  0.26793921420E+01  0.00000000000E+00 0.  1.
<mgrwt>
<rscale>  0 0.25189622E+01</rscale>
<asrwt>0</asrwt>
<pdfrwt beam="1">0</pdfrwt>
<pdfrwt beam="2">0</pdfrwt>
<totfact> 0.86993550E+11</totfact>
</mgrwt>
</event>
<event>
 4    2  0.1060494E+006  0.2081452E+01  0.7546771E-02  0.2927834E+00
         22   -1    0    0    0    0  0.00000000000E+00  0.00000000000E+00  0.25066941616E+01  0.25066941616E+01  0.00000000000E+00 0.  1.
         22   -1    0    0    0    0 -0.00000000000E+00 -0.00000000000E+00 -0.43656564320E+01  0.43656564320E+01  0.00000000000E+00 0. -1.
          4    1    1    2  501    0  0.20000808597E+01 -0.57629710933E+00 -0.36002169547E+01  0.41586060073E+01  0.00000000000E+00 0. -1.
         -4    1    1    2    0  501 -0.20000808597E+01  0.57629710933E+00  0.17412546843E+01  0.27137445862E+01  0.00000000000E+00 0.  1.
<mgrwt>
<rscale>  0 0.20814518E+01</rscale>
<asrwt>0</asrwt>
<pdfrwt beam="1">0</pdfrwt>
<pdfrwt beam="2">0</pdfrwt>
<totfact> 0.14811283E+12</totfact>
</mgrwt>
</event>
<event>
 4    2  0.1060494E+006  0.3408693E+01  0.7546771E-02  0.2406930E+00
         22   -1    0    0    0    0  0.00000000000E+00  0.00000000000E+00  0.10538880035E+02  0.10538880035E+02  0.00000000000E+00 0.  1.
         22   -1    0    0    0    0 -0.00000000000E+00 -0.00000000000E+00 -0.44237686853E+01  0.44237686853E+01  0.00000000000E+00 0. -1.
          4    1    1    2  501    0  0.27241827455E+01 -0.20489061058E+01 -0.34248145971E+01  0.48320329972E+01  0.00000000000E+00 0. -1.
         -4    1    1    2    0  501 -0.27241827455E+01  0.20489061058E+01  0.95399259463E+01  0.10130615723E+02  0.00000000000E+00 0.  1.
<mgrwt>
<rscale>  0 0.34086930E+01</rscale>
<asrwt>0</asrwt>
<pdfrwt beam="1">0</pdfrwt>
<pdfrwt beam="2">0</pdfrwt>
<totfact> 0.26554444E+11</totfact>
</mgrwt>
</event>
<event>
 4    2  0.1060494E+006  0.2089959E+01  0.7546771E-02  0.2922541E+00
         22   -1    0    0    0    0  0.00000000000E+00  0.00000000000E+00  0.10349382751E+01  0.10349382751E+01  0.00000000000E+00 0. -1.
         22   -1    0    0    0    0 -0.00000000000E+00 -0.00000000000E+00 -0.73735309280E+01  0.73735309280E+01  0.00000000000E+00 0.  1.
          4    1    1    2  501    0  0.11120429251E+01  0.17695449862E+01 -0.59185522662E+01  0.62767180798E+01  0.00000000000E+00 0. -1.
         -4    1    1    2    0  501 -0.11120429251E+01 -0.17695449862E+01 -0.42004038680E+00  0.21317511233E+01  0.00000000000E+00 0.  1.
<mgrwt>
<rscale>  0 0.20899591E+01</rscale>
<asrwt>0</asrwt>
<pdfrwt beam="1">0</pdfrwt>
<pdfrwt beam="2">0</pdfrwt>
<totfact> 0.22020396E+12</totfact>
</mgrwt>
</event>
<event>
 4    2  0.1060494E+006  0.2239475E+01  0.7546771E-02  0.2835870E+00
         22   -1    0    0    0    0  0.00000000000E+00  0.00000000000E+00  0.49065767621E+00  0.49065767621E+00  0.00000000000E+00 0.  1.
         22   -1    0    0    0    0 -0.00000000000E+00 -0.00000000000E+00 -0.15695688554E+03  0.15695688554E+03  0.00000000000E+00 0. -1.
          4    1    1    2  501    0  0.14408118724E+01  0.17144413997E+01 -0.15435037684E+03  0.15436662230E+03  0.00000000000E+00 0. -1.
         -4    1    1    2    0  501 -0.14408118724E+01 -0.17144413997E+01 -0.21158510227E+01  0.30809209200E+01  0.00000000000E+00 0.  1.
<mgrwt>
<rscale>  0 0.22394750E+01</rscale>
<asrwt>0</asrwt>
<pdfrwt beam="1">0</pdfrwt>
<pdfrwt beam="2">0</pdfrwt>
<totfact> 0.95384143E+10</totfact>
</mgrwt>
</event>
<event>
 4    2  0.1060494E+006  0.3507996E+01  0.7546771E-02  0.2382526E+00
         22   -1    0    0    0    0  0.00000000000E+00  0.00000000000E+00  0.70073882801E+00  0.70073882801E+00  0.00000000000E+00 0.  1.
         22   -1    0    0    0    0 -0.00000000000E+00 -0.00000000000E+00 -0.21506774036E+02  0.21506774036E+02  0.00000000000E+00 0. -1.
          4    1    1    2  501    0  0.26178119405E+01 -0.23351862324E+01 -0.15158780101E+02  0.15559390998E+02  0.00000000000E+00 0.  1.
         -4    1    1    2    0  501 -0.26178119405E+01  0.23351862324E+01 -0.56472551077E+01  0.66481218661E+01  0.00000000000E+00 0. -1.
<mgrwt>
<rscale>  0 0.35079957E+01</rscale>
<asrwt>0</asrwt>
<pdfrwt beam="1">0</pdfrwt>
<pdfrwt beam="2">0</pdfrwt>
<totfact> 0.92746074E+11</totfact>
</mgrwt>
</event>
<event>
 4    2  0.1060494E+006  0.2002947E+01  0.7546771E-02  0.2978742E+00
         22   -1    0    0    0    0  0.00000000000E+00  0.00000000000E+00  0.86527913264E+01  0.86527913264E+01  0.00000000000E+00 0. -1.
         22   -1    0    0    0    0 -0.00000000000E+00 -0.00000000000E+00 -0.27412652838E+01  0.27412652838E+01  0.00000000000E+00 0.  1.
          4    1    1    2  501    0  0.66131074754E+00  0.18906260142E+01 -0.22371826425E+01  0.30027961646E+01  0.00000000000E+00 0.  1.
         -4    1    1    2    0  501 -0.66131074754E+00 -0.18906260142E+01  0.81487086852E+01  0.83912604456E+01  0.00000000000E+00 0. -1.
<mgrwt>
<rscale>  0 0.20029475E+01</rscale>
<asrwt>0</asrwt>
<pdfrwt beam="1">0</pdfrwt>
<pdfrwt beam="2">0</pdfrwt>
<totfact> 0.59064160E+11</totfact>
</mgrwt>
</event>
<event>
 4    2  0.1060494E+006  0.4134548E+01  0.7546771E-02  0.2252290E+00
         22   -1    0    0    0    0  0.00000000000E+00  0.00000000000E+00  0.20727287969E+02  0.20727287969E+02  0.00000000000E+00 0.  1.
         22   -1    0    0    0    0 -0.00000000000E+00 -0.00000000000E+00 -0.31436235888E+01  0.31436235888E+01  0.00000000000E+00 0. -1.
          4    1    1    2  501    0 -0.41020153965E+01  0.51764266427E+00 -0.14591113408E+01  0.43844600746E+01  0.00000000000E+00 0. -1.
         -4    1    1    2    0  501  0.41020153965E+01 -0.51764266427E+00  0.19042775721E+02  0.19486451483E+02  0.00000000000E+00 0.  1.
<mgrwt>
<rscale>  0 0.41345476E+01</rscale>
<asrwt>0</asrwt>
<pdfrwt beam="1">0</pdfrwt>
<pdfrwt beam="2">0</pdfrwt>
<totfact> 0.17258968E+11</totfact>
</mgrwt>
</event>
<event>
 4    2  0.1060494E+006  0.2176665E+01  0.7546771E-02  0.2870884E+00
         22   -1    0    0    0    0  0.00000000000E+00  0.00000000000E+00  0.35590596959E+02  0.35590596959E+02  0.00000000000E+00 0. -1.
         22   -1    0    0    0    0 -0.00000000000E+00 -0.00000000000E+00 -0.64862348942E+00  0.64862348942E+00  0.00000000000E+00 0.  1.
          4    1    1    2  501    0 -0.20424026069E+01  0.75263631412E+00  0.13174459271E+01  0.25443139745E+01  0.00000000000E+00 0.  1.
         -4    1    1    2    0  501  0.20424026069E+01 -0.75263631412E+00  0.33624527543E+02  0.33694906474E+02  0.00000000000E+00 0. -1.
<mgrwt>
<rscale>  0 0.21766648E+01</rscale>
<asrwt>0</asrwt>
<pdfrwt beam="1">0</pdfrwt>
<pdfrwt beam="2">0</pdfrwt>
<totfact> 0.53426593E+11</totfact>
</mgrwt>
</event>
<event>
 4    2  0.1060494E+006  0.2493005E+01  0.7546771E-02  0.2711622E+00
         22   -1    0    0    0    0  0.00000000000E+00  0.00000000000E+00  0.25368042022E+02  0.25368042022E+02  0.00000000000E+00 0.  1.
         22   -1    0    0    0    0 -0.00000000000E+00 -0.00000000000E+00 -0.24528900545E+00  0.24528900545E+00  0.00000000000E+00 0. -1.
          4    1    1    2  501    0 -0.24247926943E+01  0.57918362309E+00  0.13003867719E+02  0.13240681589E+02  0.00000000000E+00 0.  1.
         -4    1    1    2    0  501  0.24247926943E+01 -0.57918362309E+00  0.12118885297E+02  0.12372649438E+02  0.00000000000E+00 0. -1.
<mgrwt>
<rscale>  0 0.24930049E+01</rscale>
<asrwt>0</asrwt>
<pdfrwt beam="1">0</pdfrwt>
<pdfrwt beam="2">0</pdfrwt>
<totfact> 0.24583261E+12</totfact>
</mgrwt>
</event>
<event>
 4    2  0.1060494E+006  0.2733792E+01  0.7546771E-02  0.2613647E+00
         22   -1    0    0    0    0  0.00000000000E+00  0.00000000000E+00  0.31702827390E+01  0.31702827390E+01  0.00000000000E+00 0.  1.
         22   -1    0    0    0    0 -0.00000000000E+00 -0.00000000000E+00 -0.37419238690E+01  0.37419238690E+01  0.00000000000E+00 0. -1.
          4    1    1    2  501    0  0.26340875794E+01 -0.73157446850E+00 -0.23880966966E+01  0.36299620399E+01  0.00000000000E+00 0. -1.
         -4    1    1    2    0  501 -0.26340875794E+01  0.73157446850E+00  0.18164555667E+01  0.32822445681E+01  0.00000000000E+00 0.  1.
<mgrwt>
<rscale>  0 0.27337920E+01</rscale>
<asrwt>0</asrwt>
<pdfrwt beam="1">0</pdfrwt>
<pdfrwt beam="2">0</pdfrwt>
<totfact> 0.13504047E+12</totfact>
</mgrwt>
</event>
<event>
 4    2  0.1060494E+006  0.2045595E+01  0.7546771E-02  0.2950613E+00
         22   -1    0    0    0    0  0.00000000000E+00  0.00000000000E+00  0.19716107481E+02  0.19716107481E+02  0.00000000000E+00 0. -1.
         22   -1    0    0    0    0 -0.00000000000E+00 -0.00000000000E+00 -0.34519519574E+00  0.34519519574E+00  0.00000000000E+00 0.  1.
          4    1    1    2  501    0  0.11894786927E+01 -0.16642107700E+01  0.34602054866E+01  0.40196366822E+01  0.00000000000E+00 0.  1.
         -4    1    1    2    0  501 -0.11894786927E+01  0.16642107700E+01  0.15910706799E+02  0.16041665995E+02  0.00000000000E+00 0. -1.
<mgrwt>
<rscale>  0 0.20455945E+01</rscale>
<asrwt>0</asrwt>
<pdfrwt beam="1">0</pdfrwt>
<pdfrwt beam="2">0</pdfrwt>
<totfact> 0.22991418E+12</totfact>
</mgrwt>
</event>
<event>
 4    2  0.1060494E+006  0.2006968E+01  0.7546771E-02  0.2976040E+00
         22   -1    0    0    0    0  0.00000000000E+00  0.00000000000E+00  0.55821583949E+00  0.55821583949E+00  0.00000000000E+00 0.  1.
         22   -1    0    0    0    0 -0.00000000000E+00 -0.00000000000E+00 -0.10066571253E+02  0.10066571253E+02  0.00000000000E+00 0. -1.
          4    1    1    2  501    0 -0.12320455448E+01  0.15842928789E+01 -0.75812568584E+01  0.78424087947E+01  0.00000000000E+00 0. -1.
         -4    1    1    2    0  501  0.12320455448E+01 -0.15842928789E+01 -0.19270985550E+01  0.27823782977E+01  0.00000000000E+00 0.  1.
<mgrwt>
<rscale>  0 0.20069679E+01</rscale>
<asrwt>0</asrwt>
<pdfrwt beam="1">0</pdfrwt>
<pdfrwt beam="2">0</pdfrwt>
<totfact> 0.30529465E+12</totfact>
</mgrwt>
</event>
<event>
 4    2  0.1060494E+006  0.2616115E+01  0.7546771E-02  0.2659451E+00
         22   -1    0    0    0    0  0.00000000000E+00  0.00000000000E+00  0.86503960257E+02  0.86503960257E+02  0.00000000000E+00 0.  1.
         22   -1    0    0    0    0 -0.00000000000E+00 -0.00000000000E+00 -0.12604986528E+00  0.12604986528E+00  0.00000000000E+00 0. -1.
          4    1    1    2  501    0  0.19222126116E+01 -0.17745862857E+01  0.16758838576E+02  0.16961802033E+02  0.00000000000E+00 0. -1.
         -4    1    1    2    0  501 -0.19222126116E+01  0.17745862857E+01  0.69619071816E+02  0.69668208089E+02  0.00000000000E+00 0.  1.
<mgrwt>
<rscale>  0 0.26161150E+01</rscale>
<asrwt>0</asrwt>
<pdfrwt beam="1">0</pdfrwt>
<pdfrwt beam="2">0</pdfrwt>
<totfact> 0.10268359E+12</totfact>
</mgrwt>
</event>
<event>
 4    2  0.1060494E+006  0.2103306E+01  0.7546771E-02  0.2914321E+00
         22   -1    0    0    0    0  0.00000000000E+00  0.00000000000E+00  0.38954735391E+01  0.38954735391E+01  0.00000000000E+00 0. -1.
         22   -1    0    0    0    0 -0.00000000000E+00 -0.00000000000E+00 -0.20178170151E+01  0.20178170151E+01  0.00000000000E+00 0.  1.
          4    1    1    2  501    0  0.73553044607E+00 -0.19705057075E+01 -0.10161121988E+01  0.23358899334E+01  0.00000000000E+00 0.  1.
         -4    1    1    2    0  501 -0.73553044607E+00  0.19705057075E+01  0.28937687228E+01  0.35774006208E+01  0.00000000000E+00 0. -1.
<mgrwt>
<rscale>  0 0.21033064E+01</rscale>
<asrwt>0</asrwt>
<pdfrwt beam="1">0</pdfrwt>
<pdfrwt beam="2">0</pdfrwt>
<totfact> 0.21787918E+12</totfact>
</mgrwt>
</event>
<event>
 4    2  0.1060494E+006  0.2011407E+01  0.7546771E-02  0.2973069E+00
         22   -1    0    0    0    0  0.00000000000E+00  0.00000000000E+00  0.19432911727E+00  0.19432911727E+00  0.00000000000E+00 0.  1.
         22   -1    0    0    0    0 -0.00000000000E+00 -0.00000000000E+00 -0.33925032362E+02  0.33925032362E+02  0.00000000000E+00 0. -1.
          4    1    1    2  501    0  0.20174344904E+00  0.20012636233E+01 -0.27468743074E+02  0.27542287533E+02  0.00000000000E+00 0. -1.
         -4    1    1    2    0  501 -0.20174344904E+00 -0.20012636233E+01 -0.62619601708E+01  0.65770739459E+01  0.00000000000E+00 0.  1.
<mgrwt>
<rscale>  0 0.20114066E+01</rscale>
<asrwt>0</asrwt>
<pdfrwt beam="1">0</pdfrwt>
<pdfrwt beam="2">0</pdfrwt>
<totfact> 0.22022146E+12</totfact>
</mgrwt>
</event>
<event>
 4    2  0.1060494E+006  0.2827302E+01  0.7546771E-02  0.2579742E+00
         22   -1    0    0    0    0  0.00000000000E+00  0.00000000000E+00  0.88964530255E+00  0.88964530255E+00  0.00000000000E+00 0. -1.
         22   -1    0    0    0    0 -0.00000000000E+00 -0.00000000000E+00 -0.17720325547E+02  0.17720325547E+02  0.00000000000E+00 0.  1.
          4    1    1    2  501    0 -0.15280987711E+01  0.23787713727E+01 -0.14948367485E+02  0.15213393098E+02  0.00000000000E+00 0.  1.
         -4    1    1    2    0  501  0.15280987711E+01 -0.23787713727E+01 -0.18823127602E+01  0.33965777519E+01  0.00000000000E+00 0. -1.
<mgrwt>
<rscale>  0 0.28273024E+01</rscale>
<asrwt>0</asrwt>
<pdfrwt beam="1">0</pdfrwt>
<pdfrwt beam="2">0</pdfrwt>
<totfact> 0.89980186E+11</totfact>
</mgrwt>
</event>
<event>
 4    2  0.1060494E+006  0.2097375E+01  0.7546771E-02  0.2917961E+00
         22   -1    0    0    0    0  0.00000000000E+00  0.00000000000E+00  0.19217683224E+01  0.19217683224E+01  0.00000000000E+00 0.  1.
         22   -1    0    0    0    0 -0.00000000000E+00 -0.00000000000E+00 -0.27112814653E+01  0.27112814653E+01  0.00000000000E+00 0. -1.
          4    1    1    2  501    0  0.66883752888E+00 -0.19878731957E+01 -0.13089450628E+01  0.24723107934E+01  0.00000000000E+00 0. -1.
         -4    1    1    2    0  501 -0.66883752888E+00  0.19878731957E+01  0.51943191983E+00  0.21607389943E+01  0.00000000000E+00 0.  1.
<mgrwt>
<rscale>  0 0.20973754E+01</rscale>
<asrwt>0</asrwt>
<pdfrwt beam="1">0</pdfrwt>
<pdfrwt beam="2">0</pdfrwt>
<totfact> 0.35233013E+12</totfact>
</mgrwt>
</event>
<event>
 4    2  0.1060494E+006  0.2196077E+01  0.7546771E-02  0.2859858E+00
         22   -1    0    0    0    0  0.00000000000E+00  0.00000000000E+00  0.23291589033E+00  0.23291589033E+00  0.00000000000E+00 0.  1.
         22   -1    0    0    0    0 -0.00000000000E+00 -0.00000000000E+00 -0.20778179413E+02  0.20778179413E+02  0.00000000000E+00 0. -1.
          4    1    1    2  501    0  0.18230882950E+01 -0.12243793957E+01 -0.10891829318E+02  0.11111017133E+02  0.00000000000E+00 0. -1.
         -4    1    1    2    0  501 -0.18230882950E+01  0.12243793957E+01 -0.96534342049E+01  0.99000781706E+01  0.00000000000E+00 0.  1.
<mgrwt>
<rscale>  0 0.21960774E+01</rscale>
<asrwt>0</asrwt>
<pdfrwt beam="1">0</pdfrwt>
<pdfrwt beam="2">0</pdfrwt>
<totfact> 0.33465578E+12</totfact>
</mgrwt>
</event>
<event>
 4    2  0.1060494E+006  0.2114398E+01  0.7546771E-02  0.2907567E+00
         22   -1    0    0    0    0  0.00000000000E+00  0.00000000000E+00  0.72349814878E+00  0.72349814878E+00  0.00000000000E+00 0. -1.
         22   -1    0    0    0    0 -0.00000000000E+00 -0.00000000000E+00 -0.62206974540E+01  0.62206974540E+01  0.00000000000E+00 0.  1.
          4    1    1    2  501    0  0.18199086732E+01 -0.10763878326E+01 -0.30320022940E+01  0.36964464362E+01  0.00000000000E+00 0. -1.
         -4    1    1    2    0  501 -0.18199086732E+01  0.10763878326E+01 -0.24651970112E+01  0.32477491666E+01  0.00000000000E+00 0.  1.
<mgrwt>
<rscale>  0 0.21143979E+01</rscale>
<asrwt>0</asrwt>
<pdfrwt beam="1">0</pdfrwt>
<pdfrwt beam="2">0</pdfrwt>
<totfact> 0.40566269E+12</totfact>
</mgrwt>
</event>
<event>
 4    2  0.1060494E+006  0.3032530E+01  0.7546771E-02  0.2511999E+00
         22   -1    0    0    0    0  0.00000000000E+00  0.00000000000E+00  0.14692685805E+02  0.14692685805E+02  0.00000000000E+00 0. -1.
         22   -1    0    0    0    0 -0.00000000000E+00 -0.00000000000E+00 -0.67087062064E+00  0.67087062064E+00  0.00000000000E+00 0.  1.
          4    1    1    2  501    0  0.11700016734E+01 -0.27977368390E+01  0.50221610231E+01  0.58667143001E+01  0.00000000000E+00 0.  1.
         -4    1    1    2    0  501 -0.11700016734E+01  0.27977368390E+01  0.89996541609E+01  0.94968421252E+01  0.00000000000E+00 0. -1.
<mgrwt>
<rscale>  0 0.30325295E+01</rscale>
<asrwt>0</asrwt>
<pdfrwt beam="1">0</pdfrwt>
<pdfrwt beam="2">0</pdfrwt>
<totfact> 0.15630561E+12</totfact>
</mgrwt>
</event>
<event>
 4    2  0.1060494E+006  0.2068453E+01  0.7546771E-02  0.2936003E+00
         22   -1    0    0    0    0  0.00000000000E+00  0.00000000000E+00  0.72167648856E+01  0.72167648856E+01  0.00000000000E+00 0. -1.
         22   -1    0    0    0    0 -0.00000000000E+00 -0.00000000000E+00 -0.60731624524E+00  0.60731624524E+00  0.00000000000E+00 0.  1.
          4    1    1    2  501    0 -0.20474748629E+01 -0.29384190451E+00  0.27010590639E+01  0.34020900114E+01  0.00000000000E+00 0. -1.
         -4    1    1    2    0  501  0.20474748629E+01  0.29384190451E+00  0.39083895764E+01  0.44219911194E+01  0.00000000000E+00 0.  1.
<mgrwt>
<rscale>  0 0.20684527E+01</rscale>
<asrwt>0</asrwt>
<pdfrwt beam="1">0</pdfrwt>
<pdfrwt beam="2">0</pdfrwt>
<totfact> 0.41431459E+12</totfact>
</mgrwt>
</event>
<event>
 4    2  0.1060494E+006  0.3397333E+01  0.7546771E-02  0.2409801E+00
         22   -1    0    0    0    0  0.00000000000E+00  0.00000000000E+00  0.38739348177E+02  0.38739348177E+02  0.00000000000E+00 0. -1.
         22   -1    0    0    0    0 -0.00000000000E+00 -0.00000000000E+00 -0.57376197237E+01  0.57376197237E+01  0.00000000000E+00 0.  1.
          4    1    1    2  501    0 -0.33966268814E+01  0.69256565658E-01 -0.51525356647E+01  0.61717497049E+01  0.00000000000E+00 0.  1.
         -4    1    1    2    0  501  0.33966268814E+01 -0.69256565658E-01  0.38154264118E+02  0.38305218196E+02  0.00000000000E+00 0. -1.
<mgrwt>
<rscale>  0 0.33973329E+01</rscale>
<asrwt>0</asrwt>
<pdfrwt beam="1">0</pdfrwt>
<pdfrwt beam="2">0</pdfrwt>
<totfact> 0.38355039E+10</totfact>
</mgrwt>
</event>
<event>
 4    2  0.1060494E+006  0.3523860E+01  0.7546771E-02  0.2378739E+00
         22   -1    0    0    0    0  0.00000000000E+00  0.00000000000E+00  0.11615649987E+01  0.11615649987E+01  0.00000000000E+00 0. -1.
         22   -1    0    0    0    0 -0.00000000000E+00 -0.00000000000E+00 -0.16930223254E+02  0.16930223254E+02  0.00000000000E+00 0.  1.
          4    1    1    2  501    0 -0.11003117881E+01 -0.33476710755E+01 -0.13376025349E+02  0.13832412725E+02  0.00000000000E+00 0.  1.
         -4    1    1    2    0  501  0.11003117881E+01  0.33476710755E+01 -0.23926329066E+01  0.42593755278E+01  0.00000000000E+00 0. -1.
<mgrwt>
<rscale>  0 0.35238598E+01</rscale>
<asrwt>0</asrwt>
<pdfrwt beam="1">0</pdfrwt>
<pdfrwt beam="2">0</pdfrwt>
<totfact> 0.70206283E+11</totfact>
</mgrwt>
</event>
<event>
 4    2  0.1060494E+006  0.2082117E+01  0.7546771E-02  0.2927419E+00
         22   -1    0    0    0    0  0.00000000000E+00  0.00000000000E+00  0.98420860586E+00  0.98420860586E+00  0.00000000000E+00 0.  1.
         22   -1    0    0    0    0 -0.00000000000E+00 -0.00000000000E+00 -0.70592804650E+02  0.70592804650E+02  0.00000000000E+00 0. -1.
          4    1    1    2  501    0 -0.13829192895E+01 -0.15565169396E+01 -0.69458276957E+02  0.69489477251E+02  0.00000000000E+00 0. -1.
         -4    1    1    2    0  501  0.13829192895E+01  0.15565169396E+01 -0.15031908710E+00  0.20875360051E+01  0.00000000000E+00 0.  1.
<mgrwt>
<rscale>  0 0.20821169E+01</rscale>
<asrwt>0</asrwt>
<pdfrwt beam="1">0</pdfrwt>
<pdfrwt beam="2">0</pdfrwt>
<totfact> 0.13458757E+11</totfact>
</mgrwt>
</event>
<event>
 4    2  0.1060494E+006  0.2193351E+01  0.7546771E-02  0.2861395E+00
         22   -1    0    0    0    0  0.00000000000E+00  0.00000000000E+00  0.18867070626E+03  0.18867070626E+03  0.00000000000E+00 0. -1.
         22   -1    0    0    0    0 -0.00000000000E+00 -0.00000000000E+00 -0.27529630574E-01  0.27529630574E-01  0.00000000000E+00 0.  1.
          4    1    1    2  501    0  0.21815564641E+01  0.22715341840E+00  0.68692974583E+02  0.68727982252E+02  0.00000000000E+00 0. -1.
         -4    1    1    2    0  501 -0.21815564641E+01 -0.22715341840E+00  0.11995020205E+03  0.11997025364E+03  0.00000000000E+00 0.  1.
<mgrwt>
<rscale>  0 0.21933507E+01</rscale>
<asrwt>0</asrwt>
<pdfrwt beam="1">0</pdfrwt>
<pdfrwt beam="2">0</pdfrwt>
<totfact> 0.17630939E+12</totfact>
</mgrwt>
</event>
<event>
 4    2  0.1060494E+006  0.2299397E+01  0.7546771E-02  0.2804170E+00
         22   -1    0    0    0    0  0.00000000000E+00  0.00000000000E+00  0.24981938658E+01  0.24981938658E+01  0.00000000000E+00 0.  1.
         22   -1    0    0    0    0 -0.00000000000E+00 -0.00000000000E+00 -0.30105202771E+01  0.30105202771E+01  0.00000000000E+00 0. -1.
          4    1    1    2  501    0  0.53004975930E+00  0.22374702062E+01 -0.17572048849E+01  0.28939583063E+01  0.00000000000E+00 0. -1.
         -4    1    1    2    0  501 -0.53004975930E+00 -0.22374702062E+01  0.12448784736E+01  0.26147558366E+01  0.00000000000E+00 0.  1.
<mgrwt>
<rscale>  0 0.22993968E+01</rscale>
<asrwt>0</asrwt>
<pdfrwt beam="1">0</pdfrwt>
<pdfrwt beam="2">0</pdfrwt>
<totfact> 0.23003185E+12</totfact>
</mgrwt>
</event>
<event>
 4    2  0.1060494E+006  0.2927049E+01  0.7546771E-02  0.2545748E+00
         22   -1    0    0    0    0  0.00000000000E+00  0.00000000000E+00  0.95597836667E+01  0.95597836667E+01  0.00000000000E+00 0. -1.
         22   -1    0    0    0    0 -0.00000000000E+00 -0.00000000000E+00 -0.98886782403E+00  0.98886782403E+00  0.00000000000E+00 0.  1.
          4    1    1    2  501    0  0.21213298499E+01 -0.20168237879E+01  0.26709956871E+01  0.39625542879E+01  0.00000000000E+00 0.  1.
         -4    1    1    2    0  501 -0.21213298499E+01  0.20168237879E+01  0.58999201556E+01  0.65860972029E+01  0.00000000000E+00 0. -1.
<mgrwt>
<rscale>  0 0.29270495E+01</rscale>
<asrwt>0</asrwt>
<pdfrwt beam="1">0</pdfrwt>
<pdfrwt beam="2">0</pdfrwt>
<totfact> 0.16972100E+12</totfact>
</mgrwt>
</event>
<event>
 4    2  0.1060494E+006  0.2292487E+01  0.7546771E-02  0.2807745E+00
         22   -1    0    0    0    0  0.00000000000E+00  0.00000000000E+00  0.20158406906E+01  0.20158406906E+01  0.00000000000E+00 0.  1.
         22   -1    0    0    0    0 -0.00000000000E+00 -0.00000000000E+00 -0.70634214796E+01  0.70634214796E+01  0.00000000000E+00 0. -1.
          4    1    1    2  501    0 -0.11544941914E+01  0.19805653791E+01 -0.61295877038E+01  0.65442601933E+01  0.00000000000E+00 0. -1.
         -4    1    1    2    0  501  0.11544941914E+01 -0.19805653791E+01  0.10820069149E+01  0.25350019769E+01  0.00000000000E+00 0.  1.
<mgrwt>
<rscale>  0 0.22924869E+01</rscale>
<asrwt>0</asrwt>
<pdfrwt beam="1">0</pdfrwt>
<pdfrwt beam="2">0</pdfrwt>
<totfact> 0.10770649E+12</totfact>
</mgrwt>
</event>
<event>
 4    2  0.1060494E+006  0.2397486E+01  0.7546771E-02  0.2755526E+00
         22   -1    0    0    0    0  0.00000000000E+00  0.00000000000E+00  0.31912645817E+00  0.31912645817E+00  0.00000000000E+00 0.  1.
         22   -1    0    0    0    0 -0.00000000000E+00 -0.00000000000E+00 -0.24656148445E+02  0.24656148445E+02  0.00000000000E+00 0. -1.
          4    1    1    2  501    0  0.18444077658E+01 -0.15316983234E+01 -0.18651187154E+02  0.18804646288E+02  0.00000000000E+00 0. -1.
         -4    1    1    2    0  501 -0.18444077658E+01  0.15316983234E+01 -0.56858348323E+01  0.61706286147E+01  0.00000000000E+00 0.  1.
<mgrwt>
<rscale>  0 0.23974861E+01</rscale>
<asrwt>0</asrwt>
<pdfrwt beam="1">0</pdfrwt>
<pdfrwt beam="2">0</pdfrwt>
<totfact> 0.18975912E+12</totfact>
</mgrwt>
</event>
<event>
 4    2  0.1060494E+006  0.2083952E+01  0.7546771E-02  0.2926274E+00
         22   -1    0    0    0    0  0.00000000000E+00  0.00000000000E+00  0.31736193161E+01  0.31736193161E+01  0.00000000000E+00 0. -1.
         22   -1    0    0    0    0 -0.00000000000E+00 -0.00000000000E+00 -0.58163080060E+01  0.58163080060E+01  0.00000000000E+00 0.  1.
          4    1    1    2  501    0  0.13634712174E+01  0.15760085151E+01 -0.52521286821E+01  0.56504612460E+01  0.00000000000E+00 0.  1.
         -4    1    1    2    0  501 -0.13634712174E+01 -0.15760085151E+01  0.26094399921E+01  0.33394660760E+01  0.00000000000E+00 0. -1.
<mgrwt>
<rscale>  0 0.20839522E+01</rscale>
<asrwt>0</asrwt>
<pdfrwt beam="1">0</pdfrwt>
<pdfrwt beam="2">0</pdfrwt>
<totfact> 0.80079043E+11</totfact>
</mgrwt>
</event>
<event>
 4    2  0.1060494E+006  0.2011054E+01  0.7546771E-02  0.2973305E+00
         22   -1    0    0    0    0  0.00000000000E+00  0.00000000000E+00  0.24397296051E+02  0.24397296051E+02  0.00000000000E+00 0.  1.
         22   -1    0    0    0    0 -0.00000000000E+00 -0.00000000000E+00 -0.22650533804E+00  0.22650533804E+00  0.00000000000E+00 0. -1.
          4    1    1    2  501    0 -0.55310167426E-01 -0.20102934555E+01  0.57100058512E+01  0.60538009392E+01  0.00000000000E+00 0. -1.
         -4    1    1    2    0  501  0.55310167426E-01  0.20102934555E+01  0.18460784862E+02  0.18570000450E+02  0.00000000000E+00 0.  1.
<mgrwt>
<rscale>  0 0.20110542E+01</rscale>
<asrwt>0</asrwt>
<pdfrwt beam="1">0</pdfrwt>
<pdfrwt beam="2">0</pdfrwt>
<totfact> 0.28225272E+12</totfact>
</mgrwt>
</event>
<event>
 4    2  0.1060494E+006  0.2337721E+01  0.7546771E-02  0.2784706E+00
         22   -1    0    0    0    0  0.00000000000E+00  0.00000000000E+00  0.25100588533E+00  0.25100588533E+00  0.00000000000E+00 0. -1.
         22   -1    0    0    0    0 -0.00000000000E+00 -0.00000000000E+00 -0.22989831942E+02  0.22989831942E+02  0.00000000000E+00 0.  1.
          4    1    1    2  501    0  0.42124849386E+00 -0.22994542895E+01 -0.14043767789E+02  0.14237006498E+02  0.00000000000E+00 0.  1.
         -4    1    1    2    0  501 -0.42124849386E+00  0.22994542895E+01 -0.86950582683E+01  0.90038313296E+01  0.00000000000E+00 0. -1.
<mgrwt>
<rscale>  0 0.23377212E+01</rscale>
<asrwt>0</asrwt>
<pdfrwt beam="1">0</pdfrwt>
<pdfrwt beam="2">0</pdfrwt>
<totfact> 0.27118477E+12</totfact>
</mgrwt>
</event>
<event>
 4    2  0.1060494E+006  0.3036261E+01  0.7546771E-02  0.2510844E+00
         22   -1    0    0    0    0  0.00000000000E+00  0.00000000000E+00  0.83815870010E+01  0.83815870010E+01  0.00000000000E+00 0. -1.
         22   -1    0    0    0    0 -0.00000000000E+00 -0.00000000000E+00 -0.11061312652E+01  0.11061312652E+01  0.00000000000E+00 0.  1.
          4    1    1    2  501    0 -0.25724585195E+01 -0.16128662776E+01  0.39938747302E+01  0.50169628087E+01  0.00000000000E+00 0.  1.
         -4    1    1    2    0  501  0.25724585195E+01  0.16128662776E+01  0.32815810057E+01  0.44707554575E+01  0.00000000000E+00 0. -1.
<mgrwt>
<rscale>  0 0.30362609E+01</rscale>
<asrwt>0</asrwt>
<pdfrwt beam="1">0</pdfrwt>
<pdfrwt beam="2">0</pdfrwt>
<totfact> 0.17498836E+12</totfact>
</mgrwt>
</event>
<event>
 4    2  0.1060494E+006  0.3095063E+01  0.7546771E-02  0.2492967E+00
         22   -1    0    0    0    0  0.00000000000E+00  0.00000000000E+00  0.37797264392E+02  0.37797264392E+02  0.00000000000E+00 0. -1.
         22   -1    0    0    0    0 -0.00000000000E+00 -0.00000000000E+00 -0.37998700387E+00  0.37998700387E+00  0.00000000000E+00 0.  1.
          4    1    1    2  501    0  0.33115814548E+00  0.30772953700E+01  0.76929190962E+01  0.82921901047E+01  0.00000000000E+00 0.  1.
         -4    1    1    2    0  501 -0.33115814548E+00 -0.30772953700E+01  0.29724358292E+02  0.29885061292E+02  0.00000000000E+00 0. -1.
<mgrwt>
<rscale>  0 0.30950626E+01</rscale>
<asrwt>0</asrwt>
<pdfrwt beam="1">0</pdfrwt>
<pdfrwt beam="2">0</pdfrwt>
<totfact> 0.90428152E+11</totfact>
</mgrwt>
</event>
<event>
 4    2  0.1060494E+006  0.3668075E+01  0.7546771E-02  0.2345619E+00
         22   -1    0    0    0    0  0.00000000000E+00  0.00000000000E+00  0.21984569742E+01  0.21984569742E+01  0.00000000000E+00 0.  1.
         22   -1    0    0    0    0 -0.00000000000E+00 -0.00000000000E+00 -0.61398563501E+01  0.61398563501E+01  0.00000000000E+00 0. -1.
          4    1    1    2  501    0  0.27452700573E+01 -0.24327490515E+01 -0.22071973922E+01  0.42809456856E+01  0.00000000000E+00 0.  1.
         -4    1    1    2    0  501 -0.27452700573E+01  0.24327490515E+01 -0.17342019837E+01  0.40573676387E+01  0.00000000000E+00 0. -1.
<mgrwt>
<rscale>  0 0.36680752E+01</rscale>
<asrwt>0</asrwt>
<pdfrwt beam="1">0</pdfrwt>
<pdfrwt beam="2">0</pdfrwt>
<totfact> 0.11515364E+12</totfact>
</mgrwt>
</event>
<event>
 4    2  0.1060494E+006  0.2401355E+01  0.7546771E-02  0.2753684E+00
         22   -1    0    0    0    0  0.00000000000E+00  0.00000000000E+00  0.35378806040E+01  0.35378806040E+01  0.00000000000E+00 0.  1.
         22   -1    0    0    0    0 -0.00000000000E+00 -0.00000000000E+00 -0.16299955074E+01  0.16299955074E+01  0.00000000000E+00 0. -1.
          4    1    1    2  501    0  0.95560221631E+00  0.22030277406E+01  0.96999889261E+00  0.25898657636E+01  0.00000000000E+00 0.  1.
         -4    1    1    2    0  501 -0.95560221631E+00 -0.22030277406E+01  0.93788620395E+00  0.25780103478E+01  0.00000000000E+00 0. -1.
<mgrwt>
<rscale>  0 0.24013552E+01</rscale>
<asrwt>0</asrwt>
<pdfrwt beam="1">0</pdfrwt>
<pdfrwt beam="2">0</pdfrwt>
<totfact> 0.31219157E+12</totfact>
</mgrwt>
</event>
<event>
 4    2  0.1060494E+006  0.2798635E+01  0.7546771E-02  0.2589917E+00
         22   -1    0    0    0    0  0.00000000000E+00  0.00000000000E+00  0.69287837502E+01  0.69287837502E+01  0.00000000000E+00 0.  1.
         22   -1    0    0    0    0 -0.00000000000E+00 -0.00000000000E+00 -0.19904164380E+01  0.19904164380E+01  0.00000000000E+00 0. -1.
          4    1    1    2  501    0  0.21285029686E+01  0.18170944889E+01 -0.46221663393E+00  0.28365474587E+01  0.00000000000E+00 0. -1.
         -4    1    1    2    0  501 -0.21285029686E+01 -0.18170944889E+01  0.54005839460E+01  0.60826527295E+01  0.00000000000E+00 0.  1.
<mgrwt>
<rscale>  0 0.27986349E+01</rscale>
<asrwt>0</asrwt>
<pdfrwt beam="1">0</pdfrwt>
<pdfrwt beam="2">0</pdfrwt>
<totfact> 0.11185031E+12</totfact>
</mgrwt>
</event>
<event>
 4    2  0.1060494E+006  0.2332296E+01  0.7546771E-02  0.2787424E+00
         22   -1    0    0    0    0  0.00000000000E+00  0.00000000000E+00  0.80228210983E+01  0.80228210983E+01  0.00000000000E+00 0.  1.
         22   -1    0    0    0    0 -0.00000000000E+00 -0.00000000000E+00 -0.68728724134E+00  0.68728724134E+00  0.00000000000E+00 0. -1.
          4    1    1    2  501    0  0.15224149941E+01 -0.17668776850E+01  0.41735733270E+01  0.47810373857E+01  0.00000000000E+00 0. -1.
         -4    1    1    2    0  501 -0.15224149941E+01  0.17668776850E+01  0.31619605300E+01  0.39290709539E+01  0.00000000000E+00 0.  1.
<mgrwt>
<rscale>  0 0.23322959E+01</rscale>
<asrwt>0</asrwt>
<pdfrwt beam="1">0</pdfrwt>
<pdfrwt beam="2">0</pdfrwt>
<totfact> 0.31717176E+12</totfact>
</mgrwt>
</event>
<event>
 4    2  0.1060494E+006  0.3099303E+01  0.7546771E-02  0.2491701E+00
         22   -1    0    0    0    0  0.00000000000E+00  0.00000000000E+00  0.31528292805E+02  0.31528292805E+02  0.00000000000E+00 0.  1.
         22   -1    0    0    0    0 -0.00000000000E+00 -0.00000000000E+00 -0.40065460379E+00  0.40065460379E+00  0.00000000000E+00 0. -1.
          4    1    1    2  501    0  0.12568889478E+01 -0.28330037127E+01  0.77498163103E+01  0.83465761068E+01  0.00000000000E+00 0. -1.
         -4    1    1    2    0  501 -0.12568889478E+01  0.28330037127E+01  0.23377821891E+02  0.23582371302E+02  0.00000000000E+00 0.  1.
<mgrwt>
<rscale>  0 0.30993031E+01</rscale>
<asrwt>0</asrwt>
<pdfrwt beam="1">0</pdfrwt>
<pdfrwt beam="2">0</pdfrwt>
<totfact> 0.10756268E+12</totfact>
</mgrwt>
</event>
<event>
 4    2  0.1060494E+006  0.2191847E+01  0.7546771E-02  0.2862244E+00
         22   -1    0    0    0    0  0.00000000000E+00  0.00000000000E+00  0.50177861381E+01  0.50177861381E+01  0.00000000000E+00 0. -1.
         22   -1    0    0    0    0 -0.00000000000E+00 -0.00000000000E+00 -0.14330204096E+01  0.14330204096E+01  0.00000000000E+00 0.  1.
          4    1    1    2  501    0 -0.18252293520E+01  0.12135615566E+01 -0.65734007710E-01  0.21928325971E+01  0.00000000000E+00 0.  1.
         -4    1    1    2    0  501  0.18252293520E+01 -0.12135615566E+01  0.36504997363E+01  0.42579739506E+01  0.00000000000E+00 0. -1.
<mgrwt>
<rscale>  0 0.21918471E+01</rscale>
<asrwt>0</asrwt>
<pdfrwt beam="1">0</pdfrwt>
<pdfrwt beam="2">0</pdfrwt>
<totfact> 0.23985022E+12</totfact>
</mgrwt>
</event>
<event>
 4    2  0.1060494E+006  0.2183884E+01  0.7546771E-02  0.2866762E+00
         22   -1    0    0    0    0  0.00000000000E+00  0.00000000000E+00  0.46770142409E+00  0.46770142409E+00  0.00000000000E+00 0.  1.
         22   -1    0    0    0    0 -0.00000000000E+00 -0.00000000000E+00 -0.12538793787E+02  0.12538793787E+02  0.00000000000E+00 0. -1.
          4    1    1    2  501    0  0.13957634966E+01 -0.16796409683E+01 -0.88457476436E+01  0.91113446261E+01  0.00000000000E+00 0. -1.
         -4    1    1    2    0  501 -0.13957634966E+01  0.16796409683E+01 -0.32253447189E+01  0.38951505846E+01  0.00000000000E+00 0.  1.
<mgrwt>
<rscale>  0 0.21838840E+01</rscale>
<asrwt>0</asrwt>
<pdfrwt beam="1">0</pdfrwt>
<pdfrwt beam="2">0</pdfrwt>
<totfact> 0.28545336E+12</totfact>
</mgrwt>
</event>
<event>
 4    2  0.1060494E+006  0.2162718E+01  0.7546771E-02  0.2878923E+00
         22   -1    0    0    0    0  0.00000000000E+00  0.00000000000E+00  0.46926667894E+01  0.46926667894E+01  0.00000000000E+00 0. -1.
         22   -1    0    0    0    0 -0.00000000000E+00 -0.00000000000E+00 -0.16959096303E+01  0.16959096303E+01  0.00000000000E+00 0.  1.
          4    1    1    2  501    0 -0.16793560382E+01 -0.13627596280E+01 -0.55261937359E+00  0.22322048918E+01  0.00000000000E+00 0.  1.
         -4    1    1    2    0  501  0.16793560382E+01  0.13627596280E+01  0.35493765327E+01  0.41563715278E+01  0.00000000000E+00 0. -1.
<mgrwt>
<rscale>  0 0.21627183E+01</rscale>
<asrwt>0</asrwt>
<pdfrwt beam="1">0</pdfrwt>
<pdfrwt beam="2">0</pdfrwt>
<totfact> 0.21385510E+12</totfact>
</mgrwt>
</event>
<event>
 4    2  0.1060494E+006  0.3347092E+01  0.7546771E-02  0.2422704E+00
         22   -1    0    0    0    0  0.00000000000E+00  0.00000000000E+00  0.64732628411E+01  0.64732628411E+01  0.00000000000E+00 0.  1.
         22   -1    0    0    0    0 -0.00000000000E+00 -0.00000000000E+00 -0.18509606722E+01  0.18509606722E+01  0.00000000000E+00 0. -1.
          4    1    1    2  501    0  0.33306608920E+01 -0.33124055755E+00  0.12500720972E+01  0.35729123321E+01  0.00000000000E+00 0. -1.
         -4    1    1    2    0  501 -0.33306608920E+01  0.33124055755E+00  0.33722300717E+01  0.47513111812E+01  0.00000000000E+00 0.  1.
<mgrwt>
<rscale>  0 0.33470916E+01</rscale>
<asrwt>0</asrwt>
<pdfrwt beam="1">0</pdfrwt>
<pdfrwt beam="2">0</pdfrwt>
<totfact> 0.13194723E+12</totfact>
</mgrwt>
</event>
<event>
 4    2  0.1060494E+006  0.2227156E+01  0.7546771E-02  0.2842589E+00
         22   -1    0    0    0    0  0.00000000000E+00  0.00000000000E+00  0.18414939785E+03  0.18414939785E+03  0.00000000000E+00 0.  1.
         22   -1    0    0    0    0 -0.00000000000E+00 -0.00000000000E+00 -0.26941658712E-01  0.26941658712E-01  0.00000000000E+00 0. -1.
          4    1    1    2  501    0 -0.12018855490E+01  0.18750180896E+01  0.93412671228E+02  0.93439217504E+02  0.00000000000E+00 0.  1.
         -4    1    1    2    0  501  0.12018855490E+01 -0.18750180896E+01  0.90709784965E+02  0.90737122007E+02  0.00000000000E+00 0. -1.
<mgrwt>
<rscale>  0 0.22271555E+01</rscale>
<asrwt>0</asrwt>
<pdfrwt beam="1">0</pdfrwt>
<pdfrwt beam="2">0</pdfrwt>
<totfact> 0.18739245E+12</totfact>
</mgrwt>
</event>
<event>
 4    2  0.1060494E+006  0.2619037E+01  0.7546771E-02  0.2658268E+00
         22   -1    0    0    0    0  0.00000000000E+00  0.00000000000E+00  0.69215352263E+01  0.69215352263E+01  0.00000000000E+00 0. -1.
         22   -1    0    0    0    0 -0.00000000000E+00 -0.00000000000E+00 -0.77202829841E+01  0.77202829841E+01  0.00000000000E+00 0.  1.
          4    1    1    2  501    0  0.24499522063E+01  0.92579136393E+00 -0.72342755214E+01  0.76937700630E+01  0.00000000000E+00 0.  1.
         -4    1    1    2    0  501 -0.24499522063E+01 -0.92579136393E+00  0.64355277636E+01  0.69480481474E+01  0.00000000000E+00 0. -1.
<mgrwt>
<rscale>  0 0.26190371E+01</rscale>
<asrwt>0</asrwt>
<pdfrwt beam="1">0</pdfrwt>
<pdfrwt beam="2">0</pdfrwt>
<totfact> 0.22715097E+11</totfact>
</mgrwt>
</event>
<event>
 4    2  0.1060494E+006  0.2399459E+01  0.7546771E-02  0.2754586E+00
         22   -1    0    0    0    0  0.00000000000E+00  0.00000000000E+00  0.28731999154E+00  0.28731999154E+00  0.00000000000E+00 0.  1.
         22   -1    0    0    0    0 -0.00000000000E+00 -0.00000000000E+00 -0.20048700315E+02  0.20048700315E+02  0.00000000000E+00 0. -1.
          4    1    1    2  501    0 -0.21789509865E+01  0.10047768974E+01 -0.96490954942E+01  0.99429597139E+01  0.00000000000E+00 0. -1.
         -4    1    1    2    0  501  0.21789509865E+01 -0.10047768974E+01 -0.10112284829E+02  0.10393060593E+02  0.00000000000E+00 0.  1.
<mgrwt>
<rscale>  0 0.23994591E+01</rscale>
<asrwt>0</asrwt>
<pdfrwt beam="1">0</pdfrwt>
<pdfrwt beam="2">0</pdfrwt>
<totfact> 0.27666990E+12</totfact>
</mgrwt>
</event>
<event>
 4    2  0.1060494E+006  0.7944969E+01  0.7546771E-02  0.1879470E+00
         22   -1    0    0    0    0  0.00000000000E+00  0.00000000000E+00  0.65424686076E+01  0.65424686076E+01  0.00000000000E+00 0. -1.
         22   -1    0    0    0    0 -0.00000000000E+00 -0.00000000000E+00 -0.10217483388E+02  0.10217483388E+02  0.00000000000E+00 0.  1.
          4    1    1    2  501    0  0.60598041534E+01 -0.51382202397E+01 -0.38156833027E+01  0.88137377245E+01  0.00000000000E+00 0.  1.
         -4    1    1    2    0  501 -0.60598041534E+01  0.51382202397E+01  0.14066852226E+00  0.79462142711E+01  0.00000000000E+00 0. -1.
<mgrwt>
<rscale>  0 0.79449691E+01</rscale>
<asrwt>0</asrwt>
<pdfrwt beam="1">0</pdfrwt>
<pdfrwt beam="2">0</pdfrwt>
<totfact> 0.17329561E+11</totfact>
</mgrwt>
</event>
<event>
 4    2  0.1060494E+006  0.3436167E+01  0.7546771E-02  0.2400055E+00
         22   -1    0    0    0    0  0.00000000000E+00  0.00000000000E+00  0.31966358650E+01  0.31966358650E+01  0.00000000000E+00 0. -1.
         22   -1    0    0    0    0 -0.00000000000E+00 -0.00000000000E+00 -0.45504830687E+01  0.45504830687E+01  0.00000000000E+00 0.  1.
          4    1    1    2  501    0 -0.21111845011E+01 -0.27111142114E+01  0.10039330602E+01  0.35798214836E+01  0.00000000000E+00 0. -1.
         -4    1    1    2    0  501  0.21111845011E+01  0.27111142114E+01 -0.23577802639E+01  0.41672974501E+01  0.00000000000E+00 0.  1.
<mgrwt>
<rscale>  0 0.34361665E+01</rscale>
<asrwt>0</asrwt>
<pdfrwt beam="1">0</pdfrwt>
<pdfrwt beam="2">0</pdfrwt>
<totfact> 0.10621846E+12</totfact>
</mgrwt>
</event>
<event>
 4    2  0.1060494E+006  0.3675903E+01  0.7546771E-02  0.2343886E+00
         22   -1    0    0    0    0  0.00000000000E+00  0.00000000000E+00  0.55481801651E+01  0.55481801651E+01  0.00000000000E+00 0.  1.
         22   -1    0    0    0    0 -0.00000000000E+00 -0.00000000000E+00 -0.50785169016E+01  0.50785169016E+01  0.00000000000E+00 0. -1.
          4    1    1    2  501    0 -0.10235936548E+01  0.35305121123E+01 -0.35983090223E+01  0.51439369713E+01  0.00000000000E+00 0. -1.
         -4    1    1    2    0  501  0.10235936548E+01 -0.35305121123E+01  0.40679722857E+01  0.54827600953E+01  0.00000000000E+00 0.  1.
<mgrwt>
<rscale>  0 0.36759026E+01</rscale>
<asrwt>0</asrwt>
<pdfrwt beam="1">0</pdfrwt>
<pdfrwt beam="2">0</pdfrwt>
<totfact> 0.48708893E+11</totfact>
</mgrwt>
</event>
<event>
 4    2  0.1060494E+006  0.2164800E+01  0.7546771E-02  0.2877717E+00
         22   -1    0    0    0    0  0.00000000000E+00  0.00000000000E+00  0.66939832464E+01  0.66939832464E+01  0.00000000000E+00 0.  1.
         22   -1    0    0    0    0 -0.00000000000E+00 -0.00000000000E+00 -0.23398372769E+01  0.23398372769E+01  0.00000000000E+00 0. -1.
          4    1    1    2  501    0 -0.16517647348E+01  0.13992965808E+01 -0.16041975286E+01  0.26944029711E+01  0.00000000000E+00 0. -1.
         -4    1    1    2    0  501  0.16517647348E+01 -0.13992965808E+01  0.59583434981E+01  0.63394175522E+01  0.00000000000E+00 0.  1.
<mgrwt>
<rscale>  0 0.21647997E+01</rscale>
<asrwt>0</asrwt>
<pdfrwt beam="1">0</pdfrwt>
<pdfrwt beam="2">0</pdfrwt>
<totfact> 0.96619727E+11</totfact>
</mgrwt>
</event>
<event>
 4    2  0.1060494E+006  0.2120086E+01  0.7546771E-02  0.2904129E+00
         22   -1    0    0    0    0  0.00000000000E+00  0.00000000000E+00  0.35353608870E+01  0.35353608870E+01  0.00000000000E+00 0.  1.
         22   -1    0    0    0    0 -0.00000000000E+00 -0.00000000000E+00 -0.19417525841E+01  0.19417525841E+01  0.00000000000E+00 0. -1.
          4    1    1    2  501    0  0.20665232021E+01  0.47354826838E+00 -0.81230255514E+00  0.22703747595E+01  0.00000000000E+00 0. -1.
         -4    1    1    2    0  501 -0.20665232021E+01 -0.47354826838E+00  0.24059108581E+01  0.32067387116E+01  0.00000000000E+00 0.  1.
<mgrwt>
<rscale>  0 0.21200863E+01</rscale>
<asrwt>0</asrwt>
<pdfrwt beam="1">0</pdfrwt>
<pdfrwt beam="2">0</pdfrwt>
<totfact> 0.25527253E+12</totfact>
</mgrwt>
</event>
<event>
 4    2  0.1060494E+006  0.2225623E+01  0.7546771E-02  0.2843430E+00
         22   -1    0    0    0    0  0.00000000000E+00  0.00000000000E+00  0.69299905837E+01  0.69299905837E+01  0.00000000000E+00 0. -1.
         22   -1    0    0    0    0 -0.00000000000E+00 -0.00000000000E+00 -0.73346724880E+00  0.73346724880E+00  0.00000000000E+00 0.  1.
          4    1    1    2  501    0 -0.85868162076E+00 -0.20533050529E+01  0.24865940377E+01  0.33371463370E+01  0.00000000000E+00 0.  1.
         -4    1    1    2    0  501  0.85868162076E+00  0.20533050529E+01  0.37099292972E+01  0.43263114955E+01  0.00000000000E+00 0. -1.
<mgrwt>
<rscale>  0 0.22256226E+01</rscale>
<asrwt>0</asrwt>
<pdfrwt beam="1">0</pdfrwt>
<pdfrwt beam="2">0</pdfrwt>
<totfact> 0.35111317E+12</totfact>
</mgrwt>
</event>
<event>
 4    2  0.1060494E+006  0.2376314E+01  0.7546771E-02  0.2765705E+00
         22   -1    0    0    0    0  0.00000000000E+00  0.00000000000E+00  0.28411325550E+01  0.28411325550E+01  0.00000000000E+00 0. -1.
         22   -1    0    0    0    0 -0.00000000000E+00 -0.00000000000E+00 -0.55255015186E+01  0.55255015186E+01  0.00000000000E+00 0.  1.
          4    1    1    2  501    0 -0.20048924776E+01 -0.12756460432E+01 -0.46896139543E+01  0.52573135454E+01  0.00000000000E+00 0.  1.
         -4    1    1    2    0  501  0.20048924776E+01  0.12756460432E+01  0.20052449908E+01  0.31093205282E+01  0.00000000000E+00 0. -1.
<mgrwt>
<rscale>  0 0.23763137E+01</rscale>
<asrwt>0</asrwt>
<pdfrwt beam="1">0</pdfrwt>
<pdfrwt beam="2">0</pdfrwt>
<totfact> 0.96864619E+11</totfact>
</mgrwt>
</event>
<event>
 4    2  0.1060494E+006  0.3269319E+01  0.7546771E-02  0.2443364E+00
         22   -1    0    0    0    0  0.00000000000E+00  0.00000000000E+00  0.54435952367E+02  0.54435952367E+02  0.00000000000E+00 0.  1.
         22   -1    0    0    0    0 -0.00000000000E+00 -0.00000000000E+00 -0.11854408354E+01  0.11854408354E+01  0.00000000000E+00 0. -1.
          4    1    1    2  501    0 -0.18741566947E+01  0.26788023787E+01  0.12219502621E+01  0.34902160311E+01  0.00000000000E+00 0. -1.
         -4    1    1    2    0  501  0.18741566947E+01 -0.26788023787E+01  0.52028561270E+02  0.52131177171E+02  0.00000000000E+00 0.  1.
<mgrwt>
<rscale>  0 0.32693188E+01</rscale>
<asrwt>0</asrwt>
<pdfrwt beam="1">0</pdfrwt>
<pdfrwt beam="2">0</pdfrwt>
<totfact> 0.15423894E+11</totfact>
</mgrwt>
</event>
<event>
 4    2  0.1060494E+006  0.2847126E+01  0.7546771E-02  0.2572814E+00
         22   -1    0    0    0    0  0.00000000000E+00  0.00000000000E+00  0.51069079435E+02  0.51069079435E+02  0.00000000000E+00 0.  1.
         22   -1    0    0    0    0 -0.00000000000E+00 -0.00000000000E+00 -0.18906146078E+00  0.18906146078E+00  0.00000000000E+00 0. -1.
          4    1    1    2  501    0  0.14849296656E+01  0.24292202958E+01  0.15174334411E+02  0.15439124074E+02  0.00000000000E+00 0. -1.
         -4    1    1    2    0  501 -0.14849296656E+01 -0.24292202958E+01  0.35705683564E+02  0.35819016822E+02  0.00000000000E+00 0.  1.
<mgrwt>
<rscale>  0 0.28471262E+01</rscale>
<asrwt>0</asrwt>
<pdfrwt beam="1">0</pdfrwt>
<pdfrwt beam="2">0</pdfrwt>
<totfact> 0.13334710E+12</totfact>
</mgrwt>
</event>
<event>
 4    2  0.1060494E+006  0.3637623E+01  0.7546771E-02  0.2352423E+00
         22   -1    0    0    0    0  0.00000000000E+00  0.00000000000E+00  0.37331234142E+01  0.37331234142E+01  0.00000000000E+00 0.  1.
         22   -1    0    0    0    0 -0.00000000000E+00 -0.00000000000E+00 -0.62088774153E+01  0.62088774153E+01  0.00000000000E+00 0. -1.
          4    1    1    2  501    0 -0.35745312827E+01  0.67455652901E+00 -0.44942173564E+01  0.57818932927E+01  0.00000000000E+00 0. -1.
         -4    1    1    2    0  501  0.35745312827E+01 -0.67455652901E+00  0.20184633553E+01  0.41601075369E+01  0.00000000000E+00 0.  1.
<mgrwt>
<rscale>  0 0.36376229E+01</rscale>
<asrwt>0</asrwt>
<pdfrwt beam="1">0</pdfrwt>
<pdfrwt beam="2">0</pdfrwt>
<totfact> 0.61254192E+11</totfact>
</mgrwt>
</event>
<event>
 4    2  0.1060494E+006  0.2048549E+01  0.7546771E-02  0.2948706E+00
         22   -1    0    0    0    0  0.00000000000E+00  0.00000000000E+00  0.12359446699E+01  0.12359446699E+01  0.00000000000E+00 0. -1.
         22   -1    0    0    0    0 -0.00000000000E+00 -0.00000000000E+00 -0.38512153549E+01  0.38512153549E+01  0.00000000000E+00 0.  1.
          4    1    1    2  501    0  0.17691908775E+01 -0.10327236064E+01 -0.21826800285E+01  0.29934339003E+01  0.00000000000E+00 0. -1.
         -4    1    1    2    0  501 -0.17691908775E+01  0.10327236064E+01 -0.43259065643E+00  0.20937261245E+01  0.00000000000E+00 0.  1.
<mgrwt>
<rscale>  0 0.20485493E+01</rscale>
<asrwt>0</asrwt>
<pdfrwt beam="1">0</pdfrwt>
<pdfrwt beam="2">0</pdfrwt>
<totfact> 0.38838171E+12</totfact>
</mgrwt>
</event>
<event>
 4    2  0.1060494E+006  0.2065493E+01  0.7546771E-02  0.2937877E+00
         22   -1    0    0    0    0  0.00000000000E+00  0.00000000000E+00  0.16006922902E+02  0.16006922902E+02  0.00000000000E+00 0.  1.
         22   -1    0    0    0    0 -0.00000000000E+00 -0.00000000000E+00 -0.26724629063E+00  0.26724629063E+00  0.00000000000E+00 0. -1.
          4    1    1    2  501    0  0.80377678379E-01  0.20639286964E+01  0.74474167037E+01  0.77285365881E+01  0.00000000000E+00 0. -1.
         -4    1    1    2    0  501 -0.80377678379E-01 -0.20639286964E+01  0.82922599076E+01  0.85456326045E+01  0.00000000000E+00 0.  1.
<mgrwt>
<rscale>  0 0.20654932E+01</rscale>
<asrwt>0</asrwt>
<pdfrwt beam="1">0</pdfrwt>
<pdfrwt beam="2">0</pdfrwt>
<totfact> 0.39669666E+12</totfact>
</mgrwt>
</event>
<event>
 4    2  0.1060494E+006  0.2976154E+01  0.7546771E-02  0.2529770E+00
         22   -1    0    0    0    0  0.00000000000E+00  0.00000000000E+00  0.23906402343E+00  0.23906402343E+00  0.00000000000E+00 0.  1.
         22   -1    0    0    0    0 -0.00000000000E+00 -0.00000000000E+00 -0.38704739129E+02  0.38704739129E+02  0.00000000000E+00 0. -1.
          4    1    1    2  501    0  0.70940624545E-02 -0.29761456722E+01 -0.23258125939E+02  0.23447769949E+02  0.00000000000E+00 0. -1.
         -4    1    1    2    0  501 -0.70940624545E-02  0.29761456722E+01 -0.15207549167E+02  0.15496033204E+02  0.00000000000E+00 0.  1.
<mgrwt>
<rscale>  0 0.29761541E+01</rscale>
<asrwt>0</asrwt>
<pdfrwt beam="1">0</pdfrwt>
<pdfrwt beam="2">0</pdfrwt>
<totfact> 0.14744971E+12</totfact>
</mgrwt>
</event>
<event>
 4    2  0.1060494E+006  0.2990112E+01  0.7546771E-02  0.2525314E+00
         22   -1    0    0    0    0  0.00000000000E+00  0.00000000000E+00  0.77422321562E+01  0.77422321562E+01  0.00000000000E+00 0. -1.
         22   -1    0    0    0    0 -0.00000000000E+00 -0.00000000000E+00 -0.21325935655E+01  0.21325935655E+01  0.00000000000E+00 0.  1.
          4    1    1    2  501    0 -0.24864006959E+01 -0.16608973312E+01 -0.53842317324E+00  0.30382014217E+01  0.00000000000E+00 0.  1.
         -4    1    1    2    0  501  0.24864006959E+01  0.16608973312E+01  0.61480617639E+01  0.68366242999E+01  0.00000000000E+00 0. -1.
<mgrwt>
<rscale>  0 0.29901118E+01</rscale>
<asrwt>0</asrwt>
<pdfrwt beam="1">0</pdfrwt>
<pdfrwt beam="2">0</pdfrwt>
<totfact> 0.90403446E+11</totfact>
</mgrwt>
</event>
<event>
 4    2  0.1060494E+006  0.2489831E+01  0.7546771E-02  0.2713030E+00
         22   -1    0    0    0    0  0.00000000000E+00  0.00000000000E+00  0.17843924947E+02  0.17843924947E+02  0.00000000000E+00 0.  1.
         22   -1    0    0    0    0 -0.00000000000E+00 -0.00000000000E+00 -0.52205715522E+00  0.52205715522E+00  0.00000000000E+00 0. -1.
          4    1    1    2  501    0  0.20157453271E+01 -0.14615158202E+01  0.33496570144E+01  0.41736626398E+01  0.00000000000E+00 0. -1.
         -4    1    1    2    0  501 -0.20157453271E+01  0.14615158202E+01  0.13972210777E+02  0.14192319462E+02  0.00000000000E+00 0.  1.
<mgrwt>
<rscale>  0 0.24898309E+01</rscale>
<asrwt>0</asrwt>
<pdfrwt beam="1">0</pdfrwt>
<pdfrwt beam="2">0</pdfrwt>
<totfact> 0.16333305E+12</totfact>
</mgrwt>
</event>
<event>
 4    2  0.1060494E+006  0.2120164E+01  0.7546771E-02  0.2904082E+00
         22   -1    0    0    0    0  0.00000000000E+00  0.00000000000E+00  0.12655130318E+01  0.12655130318E+01  0.00000000000E+00 0.  1.
         22   -1    0    0    0    0 -0.00000000000E+00 -0.00000000000E+00 -0.20958264379E+02  0.20958264379E+02  0.00000000000E+00 0. -1.
          4    1    1    2  501    0 -0.16554501807E+01  0.13246062981E+01 -0.19972961881E+02  0.20085176211E+02  0.00000000000E+00 0. -1.
         -4    1    1    2    0  501  0.16554501807E+01 -0.13246062981E+01  0.28021053398E+00  0.21386011992E+01  0.00000000000E+00 0.  1.
<mgrwt>
<rscale>  0 0.21201644E+01</rscale>
<asrwt>0</asrwt>
<pdfrwt beam="1">0</pdfrwt>
<pdfrwt beam="2">0</pdfrwt>
<totfact> 0.48800011E+11</totfact>
</mgrwt>
</event>
<event>
 4    2  0.1060494E+006  0.2497688E+01  0.7546771E-02  0.2709550E+00
         22   -1    0    0    0    0  0.00000000000E+00  0.00000000000E+00  0.14877150665E+00  0.14877150665E+00  0.00000000000E+00 0.  1.
         22   -1    0    0    0    0 -0.00000000000E+00 -0.00000000000E+00 -0.44236980766E+02  0.44236980766E+02  0.00000000000E+00 0. -1.
          4    1    1    2  501    0  0.41270040490E+00  0.24633565615E+01 -0.27108795416E+02  0.27223615411E+02  0.00000000000E+00 0. -1.
         -4    1    1    2    0  501 -0.41270040490E+00 -0.24633565615E+01 -0.16979413843E+02  0.17162136861E+02  0.00000000000E+00 0.  1.
<mgrwt>
<rscale>  0 0.24976884E+01</rscale>
<asrwt>0</asrwt>
<pdfrwt beam="1">0</pdfrwt>
<pdfrwt beam="2">0</pdfrwt>
<totfact> 0.21027959E+12</totfact>
</mgrwt>
</event>
<event>
 4    2  0.1060494E+006  0.3925228E+01  0.7546771E-02  0.2291819E+00
         22   -1    0    0    0    0  0.00000000000E+00  0.00000000000E+00  0.37887877057E+02  0.37887877057E+02  0.00000000000E+00 0.  1.
         22   -1    0    0    0    0 -0.00000000000E+00 -0.00000000000E+00 -0.41467665437E+00  0.41467665437E+00  0.00000000000E+00 0. -1.
          4    1    1    2  501    0  0.22390562479E+01  0.32239796942E+01  0.16073504353E+02  0.16545844196E+02  0.00000000000E+00 0.  1.
         -4    1    1    2    0  501 -0.22390562479E+01 -0.32239796942E+01  0.21399696049E+02  0.21756709516E+02  0.00000000000E+00 0. -1.
<mgrwt>
<rscale>  0 0.39252284E+01</rscale>
<asrwt>0</asrwt>
<pdfrwt beam="1">0</pdfrwt>
<pdfrwt beam="2">0</pdfrwt>
<totfact> 0.81707055E+11</totfact>
</mgrwt>
</event>
<event>
 4    2  0.1060494E+006  0.2598045E+01  0.7546771E-02  0.2666822E+00
         22   -1    0    0    0    0  0.00000000000E+00  0.00000000000E+00  0.20824819590E+00  0.20824819590E+00  0.00000000000E+00 0.  1.
         22   -1    0    0    0    0 -0.00000000000E+00 -0.00000000000E+00 -0.36140964616E+02  0.36140964616E+02  0.00000000000E+00 0. -1.
          4    1    1    2  501    0  0.25482387597E+01 -0.50627591277E+00 -0.23803934310E+02  0.23945294417E+02  0.00000000000E+00 0. -1.
         -4    1    1    2    0  501 -0.25482387597E+01  0.50627591277E+00 -0.12128782110E+02  0.12403918395E+02  0.00000000000E+00 0.  1.
<mgrwt>
<rscale>  0 0.25980447E+01</rscale>
<asrwt>0</asrwt>
<pdfrwt beam="1">0</pdfrwt>
<pdfrwt beam="2">0</pdfrwt>
<totfact> 0.18794920E+12</totfact>
</mgrwt>
</event>
<event>
 4    2  0.1060494E+006  0.2070263E+01  0.7546771E-02  0.2934859E+00
         22   -1    0    0    0    0  0.00000000000E+00  0.00000000000E+00  0.76872951967E+01  0.76872951967E+01  0.00000000000E+00 0. -1.
         22   -1    0    0    0    0 -0.00000000000E+00 -0.00000000000E+00 -0.70791837699E+00  0.70791837699E+00  0.00000000000E+00 0.  1.
          4    1    1    2  501    0  0.14790655930E+01 -0.14485700206E+01  0.15550494372E+01  0.25892409863E+01  0.00000000000E+00 0. -1.
         -4    1    1    2    0  501 -0.14790655930E+01  0.14485700206E+01  0.54243273824E+01  0.58059725873E+01  0.00000000000E+00 0.  1.
<mgrwt>
<rscale>  0 0.20702633E+01</rscale>
<asrwt>0</asrwt>
<pdfrwt beam="1">0</pdfrwt>
<pdfrwt beam="2">0</pdfrwt>
<totfact> 0.32282548E+12</totfact>
</mgrwt>
</event>
<event>
 4    2  0.1060494E+006  0.2373693E+01  0.7546771E-02  0.2766977E+00
         22   -1    0    0    0    0  0.00000000000E+00  0.00000000000E+00  0.43708397924E+00  0.43708397924E+00  0.00000000000E+00 0.  1.
         22   -1    0    0    0    0 -0.00000000000E+00 -0.00000000000E+00 -0.27562830140E+02  0.27562830140E+02  0.00000000000E+00 0. -1.
          4    1    1    2  501    0  0.10273814040E+01 -0.21398373867E+01 -0.23777160197E+02  0.23895350251E+02  0.00000000000E+00 0.  1.
         -4    1    1    2    0  501 -0.10273814040E+01  0.21398373867E+01 -0.33485859637E+01  0.41045638681E+01  0.00000000000E+00 0. -1.
<mgrwt>
<rscale>  0 0.23736926E+01</rscale>
<asrwt>0</asrwt>
<pdfrwt beam="1">0</pdfrwt>
<pdfrwt beam="2">0</pdfrwt>
<totfact> 0.11571644E+12</totfact>
</mgrwt>
</event>
<event>
 4    2  0.1060494E+006  0.2324376E+01  0.7546771E-02  0.2791414E+00
         22   -1    0    0    0    0  0.00000000000E+00  0.00000000000E+00  0.20863897012E+02  0.20863897012E+02  0.00000000000E+00 0.  1.
         22   -1    0    0    0    0 -0.00000000000E+00 -0.00000000000E+00 -0.62853681381E+00  0.62853681381E+00  0.00000000000E+00 0. -1.
          4    1    1    2  501    0  0.53257697193E+00  0.22625400888E+01  0.18772871761E+01  0.29877973536E+01  0.00000000000E+00 0. -1.
         -4    1    1    2    0  501 -0.53257697193E+00 -0.22625400888E+01  0.18358073022E+02  0.18504636472E+02  0.00000000000E+00 0.  1.
<mgrwt>
<rscale>  0 0.23243765E+01</rscale>
<asrwt>0</asrwt>
<pdfrwt beam="1">0</pdfrwt>
<pdfrwt beam="2">0</pdfrwt>
<totfact> 0.10897232E+12</totfact>
</mgrwt>
</event>
<event>
 4    2  0.1060494E+006  0.2514558E+01  0.7546771E-02  0.2702147E+00
         22   -1    0    0    0    0  0.00000000000E+00  0.00000000000E+00  0.51688636896E+00  0.51688636896E+00  0.00000000000E+00 0.  1.
         22   -1    0    0    0    0 -0.00000000000E+00 -0.00000000000E+00 -0.12247982541E+02  0.12247982541E+02  0.00000000000E+00 0. -1.
          4    1    1    2  501    0 -0.23348041921E+01  0.93364417804E+00 -0.60897657341E+01  0.65884936642E+01  0.00000000000E+00 0. -1.
         -4    1    1    2    0  501  0.23348041921E+01 -0.93364417804E+00 -0.56413304380E+01  0.61763752459E+01  0.00000000000E+00 0.  1.
<mgrwt>
<rscale>  0 0.25145580E+01</rscale>
<asrwt>0</asrwt>
<pdfrwt beam="1">0</pdfrwt>
<pdfrwt beam="2">0</pdfrwt>
<totfact> 0.26240399E+12</totfact>
</mgrwt>
</event>
<event>
 4    2  0.1060494E+006  0.2026283E+01  0.7546771E-02  0.2963206E+00
         22   -1    0    0    0    0  0.00000000000E+00  0.00000000000E+00  0.14138274925E+00  0.14138274925E+00  0.00000000000E+00 0.  1.
         22   -1    0    0    0    0 -0.00000000000E+00 -0.00000000000E+00 -0.38961293953E+02  0.38961293953E+02  0.00000000000E+00 0. -1.
          4    1    1    2  501    0  0.10920196007E+01  0.17068440491E+01 -0.29275779942E+02  0.29345819372E+02  0.00000000000E+00 0.  1.
         -4    1    1    2    0  501 -0.10920196007E+01 -0.17068440491E+01 -0.95441312612E+01  0.97568573294E+01  0.00000000000E+00 0. -1.
<mgrwt>
<rscale>  0 0.20262832E+01</rscale>
<asrwt>0</asrwt>
<pdfrwt beam="1">0</pdfrwt>
<pdfrwt beam="2">0</pdfrwt>
<totfact> 0.26248401E+12</totfact>
</mgrwt>
</event>
<event>
 4    2  0.1060494E+006  0.3026031E+01  0.7546771E-02  0.2514017E+00
         22   -1    0    0    0    0  0.00000000000E+00  0.00000000000E+00  0.38466198216E+01  0.38466198216E+01  0.00000000000E+00 0. -1.
         22   -1    0    0    0    0 -0.00000000000E+00 -0.00000000000E+00 -0.55964328069E+01  0.55964328069E+01  0.00000000000E+00 0.  1.
          4    1    1    2  501    0 -0.14129305074E+01  0.26759094439E+01 -0.44540614836E+01  0.53847495458E+01  0.00000000000E+00 0.  1.
         -4    1    1    2    0  501  0.14129305074E+01 -0.26759094439E+01  0.27042484982E+01  0.40583030827E+01  0.00000000000E+00 0. -1.
<mgrwt>
<rscale>  0 0.30260311E+01</rscale>
<asrwt>0</asrwt>
<pdfrwt beam="1">0</pdfrwt>
<pdfrwt beam="2">0</pdfrwt>
<totfact> 0.66912792E+11</totfact>
</mgrwt>
</event>
<event>
 4    2  0.1060494E+006  0.2214533E+01  0.7546771E-02  0.2849547E+00
         22   -1    0    0    0    0  0.00000000000E+00  0.00000000000E+00  0.29256764183E+02  0.29256764183E+02  0.00000000000E+00 0. -1.
         22   -1    0    0    0    0 -0.00000000000E+00 -0.00000000000E+00 -0.67524259955E+00  0.67524259955E+00  0.00000000000E+00 0.  1.
          4    1    1    2  501    0  0.99160350632E+00 -0.19801205453E+01  0.13146541064E+01  0.25753582871E+01  0.00000000000E+00 0.  1.
         -4    1    1    2    0  501 -0.99160350632E+00  0.19801205453E+01  0.27266867477E+02  0.27356648496E+02  0.00000000000E+00 0. -1.
<mgrwt>
<rscale>  0 0.22145327E+01</rscale>
<asrwt>0</asrwt>
<pdfrwt beam="1">0</pdfrwt>
<pdfrwt beam="2">0</pdfrwt>
<totfact> 0.65599075E+11</totfact>
</mgrwt>
</event>
<event>
 4    2  0.1060494E+006  0.3754474E+01  0.7546771E-02  0.2326837E+00
         22   -1    0    0    0    0  0.00000000000E+00  0.00000000000E+00  0.94515567570E+00  0.94515567570E+00  0.00000000000E+00 0. -1.
         22   -1    0    0    0    0 -0.00000000000E+00 -0.00000000000E+00 -0.20381916479E+02  0.20381916479E+02  0.00000000000E+00 0.  1.
          4    1    1    2  501    0 -0.36834335863E+01  0.72690354871E+00 -0.15241555724E+02  0.15697168301E+02  0.00000000000E+00 0.  1.
         -4    1    1    2    0  501  0.36834335863E+01 -0.72690354871E+00 -0.41952050789E+01  0.56299038542E+01  0.00000000000E+00 0. -1.
<mgrwt>
<rscale>  0 0.37544736E+01</rscale>
<asrwt>0</asrwt>
<pdfrwt beam="1">0</pdfrwt>
<pdfrwt beam="2">0</pdfrwt>
<totfact> 0.70563769E+11</totfact>
</mgrwt>
</event>
<event>
 4    2  0.1060494E+006  0.2363548E+01  0.7546771E-02  0.2771925E+00
         22   -1    0    0    0    0  0.00000000000E+00  0.00000000000E+00  0.14652723647E+01  0.14652723647E+01  0.00000000000E+00 0.  1.
         22   -1    0    0    0    0 -0.00000000000E+00 -0.00000000000E+00 -0.66821518892E+01  0.66821518892E+01  0.00000000000E+00 0. -1.
          4    1    1    2  501    0 -0.77810868964E+00 -0.22317948016E+01 -0.52780400582E+01  0.57830846462E+01  0.00000000000E+00 0. -1.
         -4    1    1    2    0  501  0.77810868964E+00  0.22317948016E+01  0.61160533653E-01  0.23643396077E+01  0.00000000000E+00 0.  1.
<mgrwt>
<rscale>  0 0.23635484E+01</rscale>
<asrwt>0</asrwt>
<pdfrwt beam="1">0</pdfrwt>
<pdfrwt beam="2">0</pdfrwt>
<totfact> 0.16630354E+12</totfact>
</mgrwt>
</event>
<event>
 4    2  0.1060494E+006  0.2052732E+01  0.7546771E-02  0.2946017E+00
         22   -1    0    0    0    0  0.00000000000E+00  0.00000000000E+00  0.19647691920E+01  0.19647691920E+01  0.00000000000E+00 0.  1.
         22   -1    0    0    0    0 -0.00000000000E+00 -0.00000000000E+00 -0.21629217934E+01  0.21629217934E+01  0.00000000000E+00 0. -1.
          4    1    1    2  501    0 -0.28301744452E+00  0.20331281910E+01 -0.28885509281E+00  0.20729559522E+01  0.00000000000E+00 0. -1.
         -4    1    1    2    0  501  0.28301744452E+00 -0.20331281910E+01  0.90702491364E-01  0.20547350333E+01  0.00000000000E+00 0.  1.
<mgrwt>
<rscale>  0 0.20527321E+01</rscale>
<asrwt>0</asrwt>
<pdfrwt beam="1">0</pdfrwt>
<pdfrwt beam="2">0</pdfrwt>
<totfact> 0.44657518E+12</totfact>
</mgrwt>
</event>
<event>
 4    2  0.1060494E+006  0.4411681E+01  0.7546771E-02  0.2204891E+00
         22   -1    0    0    0    0  0.00000000000E+00  0.00000000000E+00  0.43427598900E+01  0.43427598900E+01  0.00000000000E+00 0.  1.
         22   -1    0    0    0    0 -0.00000000000E+00 -0.00000000000E+00 -0.44834392801E+01  0.44834392801E+01  0.00000000000E+00 0. -1.
          4    1    1    2  501    0 -0.39725889865E+01  0.19187147761E+01  0.16680710633E-01  0.44117125806E+01  0.00000000000E+00 0. -1.
         -4    1    1    2    0  501  0.39725889865E+01 -0.19187147761E+01 -0.15736010078E+00  0.44144865895E+01  0.00000000000E+00 0.  1.
<mgrwt>
<rscale>  0 0.44116810E+01</rscale>
<asrwt>0</asrwt>
<pdfrwt beam="1">0</pdfrwt>
<pdfrwt beam="2">0</pdfrwt>
<totfact> 0.75423295E+11</totfact>
</mgrwt>
</event>
<event>
 4    2  0.1060494E+006  0.3947906E+01  0.7546771E-02  0.2287364E+00
         22   -1    0    0    0    0  0.00000000000E+00  0.00000000000E+00  0.63863469342E+00  0.63863469342E+00  0.00000000000E+00 0.  1.
         22   -1    0    0    0    0 -0.00000000000E+00 -0.00000000000E+00 -0.25221507151E+02  0.25221507151E+02  0.00000000000E+00 0. -1.
          4    1    1    2  501    0  0.37487347248E+01 -0.12381227537E+01 -0.14617716005E+02  0.15141452413E+02  0.00000000000E+00 0. -1.
         -4    1    1    2    0  501 -0.37487347248E+01  0.12381227537E+01 -0.99651564525E+01  0.10718689431E+02  0.00000000000E+00 0.  1.
<mgrwt>
<rscale>  0 0.39479058E+01</rscale>
<asrwt>0</asrwt>
<pdfrwt beam="1">0</pdfrwt>
<pdfrwt beam="2">0</pdfrwt>
<totfact> 0.84344666E+11</totfact>
</mgrwt>
</event>
<event>
 4    2  0.1060494E+006  0.2743739E+01  0.7546771E-02  0.2609940E+00
         22   -1    0    0    0    0  0.00000000000E+00  0.00000000000E+00  0.13429987667E+02  0.13429987667E+02  0.00000000000E+00 0. -1.
         22   -1    0    0    0    0 -0.00000000000E+00 -0.00000000000E+00 -0.65619149988E+00  0.65619149988E+00  0.00000000000E+00 0.  1.
          4    1    1    2  501    0 -0.18832424369E+01 -0.19953703560E+01  0.36979419244E+01  0.46046584466E+01  0.00000000000E+00 0.  1.
         -4    1    1    2    0  501  0.18832424369E+01  0.19953703560E+01  0.90758542428E+01  0.94815207203E+01  0.00000000000E+00 0. -1.
<mgrwt>
<rscale>  0 0.27437392E+01</rscale>
<asrwt>0</asrwt>
<pdfrwt beam="1">0</pdfrwt>
<pdfrwt beam="2">0</pdfrwt>
<totfact> 0.17896144E+12</totfact>
</mgrwt>
</event>
<event>
 4    2  0.1060494E+006  0.2700252E+01  0.7546771E-02  0.2626329E+00
         22   -1    0    0    0    0  0.00000000000E+00  0.00000000000E+00  0.23238118709E+01  0.23238118709E+01  0.00000000000E+00 0. -1.
         22   -1    0    0    0    0 -0.00000000000E+00 -0.00000000000E+00 -0.39981380985E+01  0.39981380985E+01  0.00000000000E+00 0.  1.
          4    1    1    2  501    0  0.22301759019E+01  0.15223915392E+01 -0.23035849699E+01  0.35493470197E+01  0.00000000000E+00 0.  1.
         -4    1    1    2    0  501 -0.22301759019E+01 -0.15223915392E+01  0.62925874223E+00  0.27726029498E+01  0.00000000000E+00 0. -1.
<mgrwt>
<rscale>  0 0.27002519E+01</rscale>
<asrwt>0</asrwt>
<pdfrwt beam="1">0</pdfrwt>
<pdfrwt beam="2">0</pdfrwt>
<totfact> 0.17941612E+12</totfact>
</mgrwt>
</event>
<event>
 4    2  0.1060494E+006  0.2310383E+01  0.7546771E-02  0.2798528E+00
         22   -1    0    0    0    0  0.00000000000E+00  0.00000000000E+00  0.72130549529E+00  0.72130549529E+00  0.00000000000E+00 0.  1.
         22   -1    0    0    0    0 -0.00000000000E+00 -0.00000000000E+00 -0.74012790023E+01  0.74012790023E+01  0.00000000000E+00 0. -1.
          4    1    1    2  501    0 -0.88193236828E+00  0.21354309045E+01 -0.33869337191E+01  0.40999012022E+01  0.00000000000E+00 0. -1.
         -4    1    1    2    0  501  0.88193236828E+00 -0.21354309045E+01 -0.32930397878E+01  0.40226832953E+01  0.00000000000E+00 0.  1.
<mgrwt>
<rscale>  0 0.23103831E+01</rscale>
<asrwt>0</asrwt>
<pdfrwt beam="1">0</pdfrwt>
<pdfrwt beam="2">0</pdfrwt>
<totfact> 0.33074755E+12</totfact>
</mgrwt>
</event>
<event>
 4    2  0.1060494E+006  0.3106548E+01  0.7546771E-02  0.2489546E+00
         22   -1    0    0    0    0  0.00000000000E+00  0.00000000000E+00  0.17784198439E+02  0.17784198439E+02  0.00000000000E+00 0. -1.
         22   -1    0    0    0    0 -0.00000000000E+00 -0.00000000000E+00 -0.35341567103E+01  0.35341567103E+01  0.00000000000E+00 0.  1.
          4    1    1    2  501    0  0.26930758679E+01 -0.15485423293E+01 -0.26817403336E+01  0.41039459296E+01  0.00000000000E+00 0.  1.
         -4    1    1    2    0  501 -0.26930758679E+01  0.15485423293E+01  0.16931782063E+02  0.17214409220E+02  0.00000000000E+00 0. -1.
<mgrwt>
<rscale>  0 0.31065481E+01</rscale>
<asrwt>0</asrwt>
<pdfrwt beam="1">0</pdfrwt>
<pdfrwt beam="2">0</pdfrwt>
<totfact> 0.18206268E+11</totfact>
</mgrwt>
</event>
<event>
 4    2  0.1060494E+006  0.3116296E+01  0.7546771E-02  0.2486660E+00
         22   -1    0    0    0    0  0.00000000000E+00  0.00000000000E+00  0.20316429738E+01  0.20316429738E+01  0.00000000000E+00 0.  1.
         22   -1    0    0    0    0 -0.00000000000E+00 -0.00000000000E+00 -0.17966115455E+02  0.17966115455E+02  0.00000000000E+00 0. -1.
          4    1    1    2  501    0  0.30986929856E+01 -0.33076254563E+00 -0.16533319112E+02  0.16824444803E+02  0.00000000000E+00 0. -1.
         -4    1    1    2    0  501 -0.30986929856E+01  0.33076254563E+00  0.59884663047E+00  0.31733136258E+01  0.00000000000E+00 0.  1.
<mgrwt>
<rscale>  0 0.31162962E+01</rscale>
<asrwt>0</asrwt>
<pdfrwt beam="1">0</pdfrwt>
<pdfrwt beam="2">0</pdfrwt>
<totfact> 0.34268118E+11</totfact>
</mgrwt>
</event>
<event>
 4    2  0.1060494E+006  0.2071596E+01  0.7546771E-02  0.2934019E+00
         22   -1    0    0    0    0  0.00000000000E+00  0.00000000000E+00  0.11527472760E+02  0.11527472760E+02  0.00000000000E+00 0. -1.
         22   -1    0    0    0    0 -0.00000000000E+00 -0.00000000000E+00 -0.48831600600E+00  0.48831600600E+00  0.00000000000E+00 0.  1.
          4    1    1    2  501    0  0.11281457452E+01 -0.17374683530E+01  0.25909908764E+01  0.33173397206E+01  0.00000000000E+00 0.  1.
         -4    1    1    2    0  501 -0.11281457452E+01  0.17374683530E+01  0.84481658781E+01  0.86984490459E+01  0.00000000000E+00 0. -1.
<mgrwt>
<rscale>  0 0.20715958E+01</rscale>
<asrwt>0</asrwt>
<pdfrwt beam="1">0</pdfrwt>
<pdfrwt beam="2">0</pdfrwt>
<totfact> 0.30124406E+12</totfact>
</mgrwt>
</event>
<event>
 4    2  0.1060494E+006  0.2740103E+01  0.7546771E-02  0.2611292E+00
         22   -1    0    0    0    0  0.00000000000E+00  0.00000000000E+00  0.19061693210E+01  0.19061693210E+01  0.00000000000E+00 0. -1.
         22   -1    0    0    0    0 -0.00000000000E+00 -0.00000000000E+00 -0.60412942333E+01  0.60412942333E+01  0.00000000000E+00 0.  1.
          4    1    1    2  501    0 -0.70398529272E+00 -0.26481260647E+01 -0.44117534052E+01  0.51934319150E+01  0.00000000000E+00 0.  1.
         -4    1    1    2    0  501  0.70398529272E+00  0.26481260647E+01  0.27662849299E+00  0.27540316393E+01  0.00000000000E+00 0. -1.
<mgrwt>
<rscale>  0 0.27401035E+01</rscale>
<asrwt>0</asrwt>
<pdfrwt beam="1">0</pdfrwt>
<pdfrwt beam="2">0</pdfrwt>
<totfact> 0.13848085E+12</totfact>
</mgrwt>
</event>
<event>
 4    2  0.1060494E+006  0.2136910E+01  0.7546771E-02  0.2894066E+00
         22   -1    0    0    0    0  0.00000000000E+00  0.00000000000E+00  0.31846803383E+01  0.31846803383E+01  0.00000000000E+00 0. -1.
         22   -1    0    0    0    0 -0.00000000000E+00 -0.00000000000E+00 -0.29539914087E+01  0.29539914087E+01  0.00000000000E+00 0.  1.
          4    1    1    2  501    0  0.21357560192E+01 -0.70222318910E-01 -0.20864683932E+01  0.29865925909E+01  0.00000000000E+00 0.  1.
         -4    1    1    2    0  501 -0.21357560192E+01  0.70222318910E-01  0.23171573228E+01  0.31520791561E+01  0.00000000000E+00 0. -1.
<mgrwt>
<rscale>  0 0.21369101E+01</rscale>
<asrwt>0</asrwt>
<pdfrwt beam="1">0</pdfrwt>
<pdfrwt beam="2">0</pdfrwt>
<totfact> 0.17717214E+12</totfact>
</mgrwt>
</event>
<event>
 4    2  0.1060494E+006  0.2143126E+01  0.7546771E-02  0.2890387E+00
         22   -1    0    0    0    0  0.00000000000E+00  0.00000000000E+00  0.21712771329E+01  0.21712771329E+01  0.00000000000E+00 0.  1.
         22   -1    0    0    0    0 -0.00000000000E+00 -0.00000000000E+00 -0.21675079340E+01  0.21675079340E+01  0.00000000000E+00 0. -1.
          4    1    1    2  501    0  0.21288834703E+01 -0.24666619896E+00  0.33844284733E+00  0.21696849091E+01  0.00000000000E+00 0.  1.
         -4    1    1    2    0  501 -0.21288834703E+01  0.24666619896E+00 -0.33467364841E+00  0.21691001578E+01  0.00000000000E+00 0. -1.
<mgrwt>
<rscale>  0 0.21431260E+01</rscale>
<asrwt>0</asrwt>
<pdfrwt beam="1">0</pdfrwt>
<pdfrwt beam="2">0</pdfrwt>
<totfact> 0.39679466E+12</totfact>
</mgrwt>
</event>
<event>
 4    2  0.1060494E+006  0.2223331E+01  0.7546771E-02  0.2844689E+00
         22   -1    0    0    0    0  0.00000000000E+00  0.00000000000E+00  0.91501963088E+00  0.91501963088E+00  0.00000000000E+00 0.  1.
         22   -1    0    0    0    0 -0.00000000000E+00 -0.00000000000E+00 -0.65642370202E+01  0.65642370202E+01  0.00000000000E+00 0. -1.
          4    1    1    2  501    0 -0.58367249138E-01  0.22225648424E+01 -0.12512435851E+01  0.25512372927E+01  0.00000000000E+00 0.  1.
         -4    1    1    2    0  501  0.58367249138E-01 -0.22225648424E+01 -0.43979738042E+01  0.49280193584E+01  0.00000000000E+00 0. -1.
<mgrwt>
<rscale>  0 0.22233311E+01</rscale>
<asrwt>0</asrwt>
<pdfrwt beam="1">0</pdfrwt>
<pdfrwt beam="2">0</pdfrwt>
<totfact> 0.29125292E+12</totfact>
</mgrwt>
</event>
<event>
 4    2  0.1060494E+006  0.3026673E+01  0.7546771E-02  0.2513818E+00
         22   -1    0    0    0    0  0.00000000000E+00  0.00000000000E+00  0.41248135680E+01  0.41248135680E+01  0.00000000000E+00 0.  1.
         22   -1    0    0    0    0 -0.00000000000E+00 -0.00000000000E+00 -0.61546967613E+01  0.61546967613E+01  0.00000000000E+00 0. -1.
          4    1    1    2  501    0  0.26882407770E+01 -0.13907223373E+01 -0.51240324898E+01  0.59511726619E+01  0.00000000000E+00 0. -1.
         -4    1    1    2    0  501 -0.26882407770E+01  0.13907223373E+01  0.30941492965E+01  0.43283376675E+01  0.00000000000E+00 0.  1.
<mgrwt>
<rscale>  0 0.30266726E+01</rscale>
<asrwt>0</asrwt>
<pdfrwt beam="1">0</pdfrwt>
<pdfrwt beam="2">0</pdfrwt>
<totfact> 0.55043184E+11</totfact>
</mgrwt>
</event>
<event>
 4    2  0.1060494E+006  0.2441850E+01  0.7546771E-02  0.2734735E+00
         22   -1    0    0    0    0  0.00000000000E+00  0.00000000000E+00  0.11706471623E+02  0.11706471623E+02  0.00000000000E+00 0. -1.
         22   -1    0    0    0    0 -0.00000000000E+00 -0.00000000000E+00 -0.51023930825E+00  0.51023930825E+00  0.00000000000E+00 0.  1.
          4    1    1    2  501    0 -0.19856575056E+01 -0.14211958595E+01  0.53423940480E+01  0.58739941747E+01  0.00000000000E+00 0.  1.
         -4    1    1    2    0  501  0.19856575056E+01  0.14211958595E+01  0.58538382668E+01  0.63427167566E+01  0.00000000000E+00 0. -1.
<mgrwt>
<rscale>  0 0.24418504E+01</rscale>
<asrwt>0</asrwt>
<pdfrwt beam="1">0</pdfrwt>
<pdfrwt beam="2">0</pdfrwt>
<totfact> 0.28135960E+12</totfact>
</mgrwt>
</event>
<event>
 4    2  0.1060494E+006  0.2250184E+01  0.7546771E-02  0.2830086E+00
         22   -1    0    0    0    0  0.00000000000E+00  0.00000000000E+00  0.52208665703E+00  0.52208665703E+00  0.00000000000E+00 0.  1.
         22   -1    0    0    0    0 -0.00000000000E+00 -0.00000000000E+00 -0.10430240951E+02  0.10430240951E+02  0.00000000000E+00 0. -1.
          4    1    1    2  501    0 -0.17945930031E+01  0.13574837984E+01 -0.64047933551E+01  0.67885715899E+01  0.00000000000E+00 0. -1.
         -4    1    1    2    0  501  0.17945930031E+01 -0.13574837984E+01 -0.35033609386E+01  0.41637560178E+01  0.00000000000E+00 0.  1.
<mgrwt>
<rscale>  0 0.22501836E+01</rscale>
<asrwt>0</asrwt>
<pdfrwt beam="1">0</pdfrwt>
<pdfrwt beam="2">0</pdfrwt>
<totfact> 0.31544286E+12</totfact>
</mgrwt>
</event>
<event>
 4    2  0.1060494E+006  0.2185740E+01  0.7546771E-02  0.2865706E+00
         22   -1    0    0    0    0  0.00000000000E+00  0.00000000000E+00  0.20386906048E+00  0.20386906048E+00  0.00000000000E+00 0.  1.
         22   -1    0    0    0    0 -0.00000000000E+00 -0.00000000000E+00 -0.58473614292E+02  0.58473614292E+02  0.00000000000E+00 0. -1.
          4    1    1    2  501    0 -0.15549532101E+01  0.15360924856E+01 -0.64236029436E+01  0.67852880843E+01  0.00000000000E+00 0.  1.
         -4    1    1    2    0  501  0.15549532101E+01 -0.15360924856E+01 -0.51846142288E+02  0.51892195268E+02  0.00000000000E+00 0. -1.
<mgrwt>
<rscale>  0 0.21857401E+01</rscale>
<asrwt>0</asrwt>
<pdfrwt beam="1">0</pdfrwt>
<pdfrwt beam="2">0</pdfrwt>
<totfact> 0.10240579E+12</totfact>
</mgrwt>
</event>
<event>
 4    2  0.1060494E+006  0.2120478E+01  0.7546771E-02  0.2903893E+00
         22   -1    0    0    0    0  0.00000000000E+00  0.00000000000E+00  0.88789828031E+01  0.88789828031E+01  0.00000000000E+00 0. -1.
         22   -1    0    0    0    0 -0.00000000000E+00 -0.00000000000E+00 -0.43840950729E+01  0.43840950729E+01  0.00000000000E+00 0.  1.
          4    1    1    2  501    0 -0.75672835142E+00 -0.19808555711E+01 -0.39893368956E+01  0.45178795311E+01  0.00000000000E+00 0.  1.
         -4    1    1    2    0  501  0.75672835142E+00  0.19808555711E+01  0.84842246258E+01  0.87451983449E+01  0.00000000000E+00 0. -1.
<mgrwt>
<rscale>  0 0.21204779E+01</rscale>
<asrwt>0</asrwt>
<pdfrwt beam="1">0</pdfrwt>
<pdfrwt beam="2">0</pdfrwt>
<totfact> 0.33016618E+11</totfact>
</mgrwt>
</event>
<event>
 4    2  0.1060494E+006  0.3760417E+01  0.7546771E-02  0.2325572E+00
         22   -1    0    0    0    0  0.00000000000E+00  0.00000000000E+00  0.17063823571E+02  0.17063823571E+02  0.00000000000E+00 0. -1.
         22   -1    0    0    0    0 -0.00000000000E+00 -0.00000000000E+00 -0.27007432716E+01  0.27007432716E+01  0.00000000000E+00 0.  1.
          4    1    1    2  501    0  0.65512654059E+00  0.37029101603E+01 -0.10460751488E+01  0.39032047931E+01  0.00000000000E+00 0.  1.
         -4    1    1    2    0  501 -0.65512654059E+00 -0.37029101603E+01  0.15409155448E+02  0.15861362050E+02  0.00000000000E+00 0. -1.
<mgrwt>
<rscale>  0 0.37604168E+01</rscale>
<asrwt>0</asrwt>
<pdfrwt beam="1">0</pdfrwt>
<pdfrwt beam="2">0</pdfrwt>
<totfact> 0.26243327E+11</totfact>
</mgrwt>
</event>
<event>
 4    2  0.1060494E+006  0.2781871E+01  0.7546771E-02  0.2595955E+00
         22   -1    0    0    0    0  0.00000000000E+00  0.00000000000E+00  0.24219772425E+01  0.24219772425E+01  0.00000000000E+00 0. -1.
         22   -1    0    0    0    0 -0.00000000000E+00 -0.00000000000E+00 -0.54524394063E+01  0.54524394063E+01  0.00000000000E+00 0.  1.
          4    1    1    2  501    0  0.14521822389E+01 -0.23727564621E+01 -0.40484785650E+01  0.49121263395E+01  0.00000000000E+00 0.  1.
         -4    1    1    2    0  501 -0.14521822389E+01  0.23727564621E+01  0.10180164013E+01  0.29622903093E+01  0.00000000000E+00 0. -1.
<mgrwt>
<rscale>  0 0.27818710E+01</rscale>
<asrwt>0</asrwt>
<pdfrwt beam="1">0</pdfrwt>
<pdfrwt beam="2">0</pdfrwt>
<totfact> 0.11851258E+12</totfact>
</mgrwt>
</event>
<event>
 4    2  0.1060494E+006  0.3363924E+01  0.7546771E-02  0.2418344E+00
         22   -1    0    0    0    0  0.00000000000E+00  0.00000000000E+00  0.47414963233E+00  0.47414963233E+00  0.00000000000E+00 0. -1.
         22   -1    0    0    0    0 -0.00000000000E+00 -0.00000000000E+00 -0.29923818990E+02  0.29923818990E+02  0.00000000000E+00 0.  1.
          4    1    1    2  501    0 -0.13363691680E+01  0.30870865857E+01 -0.21563469581E+02  0.21824280207E+02  0.00000000000E+00 0.  1.
         -4    1    1    2    0  501  0.13363691680E+01 -0.30870865857E+01 -0.78861997757E+01  0.85736884154E+01  0.00000000000E+00 0. -1.
<mgrwt>
<rscale>  0 0.33639242E+01</rscale>
<asrwt>0</asrwt>
<pdfrwt beam="1">0</pdfrwt>
<pdfrwt beam="2">0</pdfrwt>
<totfact> 0.95099276E+11</totfact>
</mgrwt>
</event>
<event>
 4    2  0.1060494E+006  0.2148996E+01  0.7546771E-02  0.2886931E+00
         22   -1    0    0    0    0  0.00000000000E+00  0.00000000000E+00  0.16209048398E+01  0.16209048398E+01  0.00000000000E+00 0. -1.
         22   -1    0    0    0    0 -0.00000000000E+00 -0.00000000000E+00 -0.31704338848E+01  0.31704338848E+01  0.00000000000E+00 0.  1.
          4    1    1    2  501    0  0.21283833253E+01 -0.29693458851E+00 -0.15374024101E+01  0.26423080630E+01  0.00000000000E+00 0.  1.
         -4    1    1    2    0  501 -0.21283833253E+01  0.29693458851E+00 -0.12126634845E-01  0.21490306616E+01  0.00000000000E+00 0. -1.
<mgrwt>
<rscale>  0 0.21489964E+01</rscale>
<asrwt>0</asrwt>
<pdfrwt beam="1">0</pdfrwt>
<pdfrwt beam="2">0</pdfrwt>
<totfact> 0.35726383E+12</totfact>
</mgrwt>
</event>
<event>
 4    2  0.1060494E+006  0.2613633E+01  0.7546771E-02  0.2660458E+00
         22   -1    0    0    0    0  0.00000000000E+00  0.00000000000E+00  0.58061122381E+00  0.58061122381E+00  0.00000000000E+00 0.  1.
         22   -1    0    0    0    0 -0.00000000000E+00 -0.00000000000E+00 -0.14701507230E+02  0.14701507230E+02  0.00000000000E+00 0. -1.
          4    1    1    2  501    0 -0.87189012986E-01  0.26121784054E+01 -0.10475240885E+02  0.10796376686E+02  0.00000000000E+00 0. -1.
         -4    1    1    2    0  501  0.87189012986E-01 -0.26121784054E+01 -0.36456551213E+01  0.44857417680E+01  0.00000000000E+00 0.  1.
<mgrwt>
<rscale>  0 0.26136331E+01</rscale>
<asrwt>0</asrwt>
<pdfrwt beam="1">0</pdfrwt>
<pdfrwt beam="2">0</pdfrwt>
<totfact> 0.18397159E+12</totfact>
</mgrwt>
</event>
<event>
 4    2  0.1060494E+006  0.2126974E+01  0.7546771E-02  0.2899991E+00
         22   -1    0    0    0    0  0.00000000000E+00  0.00000000000E+00  0.20719068450E+01  0.20719068450E+01  0.00000000000E+00 0. -1.
         22   -1    0    0    0    0 -0.00000000000E+00 -0.00000000000E+00 -0.30300703894E+01  0.30300703894E+01  0.00000000000E+00 0.  1.
          4    1    1    2  501    0  0.77555632004E+00 -0.19805384152E+01  0.86929817388E+00  0.22977596338E+01  0.00000000000E+00 0. -1.
         -4    1    1    2    0  501 -0.77555632004E+00  0.19805384152E+01 -0.18274617183E+01  0.28042176006E+01  0.00000000000E+00 0.  1.
<mgrwt>
<rscale>  0 0.21269744E+01</rscale>
<asrwt>0</asrwt>
<pdfrwt beam="1">0</pdfrwt>
<pdfrwt beam="2">0</pdfrwt>
<totfact> 0.28366454E+12</totfact>
</mgrwt>
</event>
<event>
 4    2  0.1060494E+006  0.5802493E+01  0.7546771E-02  0.2037866E+00
         22   -1    0    0    0    0  0.00000000000E+00  0.00000000000E+00  0.27558560951E+02  0.27558560951E+02  0.00000000000E+00 0. -1.
         22   -1    0    0    0    0 -0.00000000000E+00 -0.00000000000E+00 -0.30035545401E+01  0.30035545401E+01  0.00000000000E+00 0.  1.
          4    1    1    2  501    0  0.52859600246E+01 -0.23932310979E+01  0.50770617460E+00  0.58246625679E+01  0.00000000000E+00 0.  1.
         -4    1    1    2    0  501 -0.52859600246E+01  0.23932310979E+01  0.24047300236E+02  0.24737452923E+02  0.00000000000E+00 0. -1.
<mgrwt>
<rscale>  0 0.58024933E+01</rscale>
<asrwt>0</asrwt>
<pdfrwt beam="1">0</pdfrwt>
<pdfrwt beam="2">0</pdfrwt>
<totfact> 0.12719387E+11</totfact>
</mgrwt>
</event>
<event>
 4    2  0.1060494E+006  0.3289560E+01  0.7546771E-02  0.2437904E+00
         22   -1    0    0    0    0  0.00000000000E+00  0.00000000000E+00  0.33854016991E+01  0.33854016991E+01  0.00000000000E+00 0. -1.
         22   -1    0    0    0    0 -0.00000000000E+00 -0.00000000000E+00 -0.40029338699E+01  0.40029338699E+01  0.00000000000E+00 0.  1.
          4    1    1    2  501    0  0.32007417037E+01 -0.75924900815E+00 -0.19669400178E+01  0.38327613471E+01  0.00000000000E+00 0.  1.
         -4    1    1    2    0  501 -0.32007417037E+01  0.75924900815E+00  0.13494078469E+01  0.35555742219E+01  0.00000000000E+00 0. -1.
<mgrwt>
<rscale>  0 0.32895602E+01</rscale>
<asrwt>0</asrwt>
<pdfrwt beam="1">0</pdfrwt>
<pdfrwt beam="2">0</pdfrwt>
<totfact> 0.11552077E+12</totfact>
</mgrwt>
</event>
<event>
 4    2  0.1060494E+006  0.2225376E+01  0.7546771E-02  0.2843565E+00
         22   -1    0    0    0    0  0.00000000000E+00  0.00000000000E+00  0.37682214965E+00  0.37682214965E+00  0.00000000000E+00 0.  1.
         22   -1    0    0    0    0 -0.00000000000E+00 -0.00000000000E+00 -0.18558855716E+02  0.18558855716E+02  0.00000000000E+00 0. -1.
          4    1    1    2  501    0 -0.22054167208E+01  0.29738004446E+00 -0.14205928479E+02  0.14379175976E+02  0.00000000000E+00 0. -1.
         -4    1    1    2    0  501  0.22054167208E+01 -0.29738004446E+00 -0.39761050877E+01  0.45565018898E+01  0.00000000000E+00 0.  1.
<mgrwt>
<rscale>  0 0.22253759E+01</rscale>
<asrwt>0</asrwt>
<pdfrwt beam="1">0</pdfrwt>
<pdfrwt beam="2">0</pdfrwt>
<totfact> 0.22463780E+12</totfact>
</mgrwt>
</event>
<event>
 4    2  0.1060494E+006  0.2024275E+01  0.7546771E-02  0.2964530E+00
         22   -1    0    0    0    0  0.00000000000E+00  0.00000000000E+00  0.57083337421E+01  0.57083337421E+01  0.00000000000E+00 0.  1.
         22   -1    0    0    0    0 -0.00000000000E+00 -0.00000000000E+00 -0.77516976267E+00  0.77516976267E+00  0.00000000000E+00 0. -1.
          4    1    1    2  501    0 -0.16662440781E+00  0.20174051549E+01  0.15850051722E+01  0.25709781501E+01  0.00000000000E+00 0. -1.
         -4    1    1    2    0  501  0.16662440781E+00 -0.20174051549E+01  0.33481588073E+01  0.39125253547E+01  0.00000000000E+00 0.  1.
<mgrwt>
<rscale>  0 0.20242745E+01</rscale>
<asrwt>0</asrwt>
<pdfrwt beam="1">0</pdfrwt>
<pdfrwt beam="2">0</pdfrwt>
<totfact> 0.41546666E+12</totfact>
</mgrwt>
</event>
<event>
 4    2  0.1060494E+006  0.3237899E+01  0.7546771E-02  0.2451958E+00
         22   -1    0    0    0    0  0.00000000000E+00  0.00000000000E+00  0.97686421203E+00  0.97686421203E+00  0.00000000000E+00 0. -1.
         22   -1    0    0    0    0 -0.00000000000E+00 -0.00000000000E+00 -0.25684791418E+02  0.25684791418E+02  0.00000000000E+00 0.  1.
          4    1    1    2  501    0  0.32162042321E+01  0.37419261109E+00 -0.22525253372E+02  0.22756779852E+02  0.00000000000E+00 0.  1.
         -4    1    1    2    0  501 -0.32162042321E+01 -0.37419261109E+00 -0.21826738336E+01  0.39048757774E+01  0.00000000000E+00 0. -1.
<mgrwt>
<rscale>  0 0.32378990E+01</rscale>
<asrwt>0</asrwt>
<pdfrwt beam="1">0</pdfrwt>
<pdfrwt beam="2">0</pdfrwt>
<totfact> 0.50831460E+11</totfact>
</mgrwt>
</event>
<event>
 4    2  0.1060494E+006  0.2108025E+01  0.7546771E-02  0.2911439E+00
         22   -1    0    0    0    0  0.00000000000E+00  0.00000000000E+00  0.66906936347E+00  0.66906936347E+00  0.00000000000E+00 0. -1.
         22   -1    0    0    0    0 -0.00000000000E+00 -0.00000000000E+00 -0.10992248267E+02  0.10992248267E+02  0.00000000000E+00 0.  1.
          4    1    1    2  501    0 -0.35900093274E+00 -0.20772305336E+01 -0.88297267839E+01  0.90778765930E+01  0.00000000000E+00 0.  1.
         -4    1    1    2    0  501  0.35900093274E+00  0.20772305336E+01 -0.14934521192E+01  0.25834410370E+01  0.00000000000E+00 0. -1.
<mgrwt>
<rscale>  0 0.21080248E+01</rscale>
<asrwt>0</asrwt>
<pdfrwt beam="1">0</pdfrwt>
<pdfrwt beam="2">0</pdfrwt>
<totfact> 0.22349947E+12</totfact>
</mgrwt>
</event>
<event>
 4    2  0.1060494E+006  0.3612471E+01  0.7546771E-02  0.2358117E+00
         22   -1    0    0    0    0  0.00000000000E+00  0.00000000000E+00  0.14446149455E+02  0.14446149455E+02  0.00000000000E+00 0. -1.
         22   -1    0    0    0    0 -0.00000000000E+00 -0.00000000000E+00 -0.11520886553E+01  0.11520886553E+01  0.00000000000E+00 0.  1.
          4    1    1    2  501    0 -0.27165333119E+01  0.23812587896E+01  0.10270905164E+02  0.10887673743E+02  0.00000000000E+00 0.  1.
         -4    1    1    2    0  501  0.27165333119E+01 -0.23812587896E+01  0.30231556361E+01  0.47105643672E+01  0.00000000000E+00 0. -1.
<mgrwt>
<rscale>  0 0.36124710E+01</rscale>
<asrwt>0</asrwt>
<pdfrwt beam="1">0</pdfrwt>
<pdfrwt beam="2">0</pdfrwt>
<totfact> 0.86180178E+11</totfact>
</mgrwt>
</event>
<event>
 4    2  0.1060494E+006  0.2962084E+01  0.7546771E-02  0.2534299E+00
         22   -1    0    0    0    0  0.00000000000E+00  0.00000000000E+00  0.39751580693E+01  0.39751580693E+01  0.00000000000E+00 0. -1.
         22   -1    0    0    0    0 -0.00000000000E+00 -0.00000000000E+00 -0.34046130094E+01  0.34046130094E+01  0.00000000000E+00 0.  1.
          4    1    1    2  501    0  0.24860348908E+01  0.16104568629E+01 -0.19030044193E+01  0.35207054131E+01  0.00000000000E+00 0.  1.
         -4    1    1    2    0  501 -0.24860348908E+01 -0.16104568629E+01  0.24735494792E+01  0.38590656657E+01  0.00000000000E+00 0. -1.
<mgrwt>
<rscale>  0 0.29620839E+01</rscale>
<asrwt>0</asrwt>
<pdfrwt beam="1">0</pdfrwt>
<pdfrwt beam="2">0</pdfrwt>
<totfact> 0.11570085E+12</totfact>
</mgrwt>
</event>
<event>
 4    2  0.1060494E+006  0.3284270E+01  0.7546771E-02  0.2439325E+00
         22   -1    0    0    0    0  0.00000000000E+00  0.00000000000E+00  0.17073076941E+02  0.17073076941E+02  0.00000000000E+00 0.  1.
         22   -1    0    0    0    0 -0.00000000000E+00 -0.00000000000E+00 -0.15580195460E+01  0.15580195460E+01  0.00000000000E+00 0. -1.
          4    1    1    2  501    0  0.26538990309E+01 -0.19347470483E+01  0.57489596629E+00  0.33342062892E+01  0.00000000000E+00 0. -1.
         -4    1    1    2    0  501 -0.26538990309E+01  0.19347470483E+01  0.14940161428E+02  0.15296890198E+02  0.00000000000E+00 0.  1.
<mgrwt>
<rscale>  0 0.32842695E+01</rscale>
<asrwt>0</asrwt>
<pdfrwt beam="1">0</pdfrwt>
<pdfrwt beam="2">0</pdfrwt>
<totfact> 0.49593831E+11</totfact>
</mgrwt>
</event>
<event>
 4    2  0.1060494E+006  0.7782315E+01  0.7546771E-02  0.1889109E+00
         22   -1    0    0    0    0  0.00000000000E+00  0.00000000000E+00  0.12739607239E+03  0.12739607239E+03  0.00000000000E+00 0.  1.
         22   -1    0    0    0    0 -0.00000000000E+00 -0.00000000000E+00 -0.85569115214E+00  0.85569115214E+00  0.00000000000E+00 0. -1.
          4    1    1    2  501    0 -0.75247760977E+01  0.19854912420E+01  0.20520652675E+02  0.21946790586E+02  0.00000000000E+00 0. -1.
         -4    1    1    2    0  501  0.75247760977E+01 -0.19854912420E+01  0.10601972856E+03  0.10630497296E+03  0.00000000000E+00 0.  1.
<mgrwt>
<rscale>  0 0.77823153E+01</rscale>
<asrwt>0</asrwt>
<pdfrwt beam="1">0</pdfrwt>
<pdfrwt beam="2">0</pdfrwt>
<totfact> 0.69046619E+10</totfact>
</mgrwt>
</event>
<event>
 4    2  0.1060494E+006  0.2235283E+01  0.7546771E-02  0.2838148E+00
         22   -1    0    0    0    0  0.00000000000E+00  0.00000000000E+00  0.62255231199E+00  0.62255231199E+00  0.00000000000E+00 0. -1.
         22   -1    0    0    0    0 -0.00000000000E+00 -0.00000000000E+00 -0.10738655231E+02  0.10738655231E+02  0.00000000000E+00 0.  1.
          4    1    1    2  501    0 -0.10104955991E+01  0.19938374406E+01 -0.79132198868E+01  0.82228667794E+01  0.00000000000E+00 0.  1.
         -4    1    1    2    0  501  0.10104955991E+01 -0.19938374406E+01 -0.22028830326E+01  0.31383407640E+01  0.00000000000E+00 0. -1.
<mgrwt>
<rscale>  0 0.22352828E+01</rscale>
<asrwt>0</asrwt>
<pdfrwt beam="1">0</pdfrwt>
<pdfrwt beam="2">0</pdfrwt>
<totfact> 0.24950544E+12</totfact>
</mgrwt>
</event>
<event>
 4    2  0.1060494E+006  0.2756473E+01  0.7546771E-02  0.2605231E+00
         22   -1    0    0    0    0  0.00000000000E+00  0.00000000000E+00  0.70310572244E-01  0.70310572244E-01  0.00000000000E+00 0.  1.
         22   -1    0    0    0    0 -0.00000000000E+00 -0.00000000000E+00 -0.12327530850E+03  0.12327530850E+03  0.00000000000E+00 0. -1.
          4    1    1    2  501    0  0.27130010134E+01  0.48761523650E+00 -0.83265487770E+02  0.83311101281E+02  0.00000000000E+00 0. -1.
         -4    1    1    2    0  501 -0.27130010134E+01 -0.48761523650E+00 -0.39939510163E+02  0.40034517796E+02  0.00000000000E+00 0.  1.
<mgrwt>
<rscale>  0 0.27564729E+01</rscale>
<asrwt>0</asrwt>
<pdfrwt beam="1">0</pdfrwt>
<pdfrwt beam="2">0</pdfrwt>
<totfact> 0.11871138E+12</totfact>
</mgrwt>
</event>
<event>
 4    2  0.1060494E+006  0.2148454E+01  0.7546771E-02  0.2887249E+00
         22   -1    0    0    0    0  0.00000000000E+00  0.00000000000E+00  0.24541368408E+02  0.24541368408E+02  0.00000000000E+00 0.  1.
         22   -1    0    0    0    0 -0.00000000000E+00 -0.00000000000E+00 -0.27628070424E+00  0.27628070424E+00  0.00000000000E+00 0. -1.
          4    1    1    2  501    0 -0.20900614108E+01 -0.49749335232E+00  0.51215468786E+01  0.55539264278E+01  0.00000000000E+00 0. -1.
         -4    1    1    2    0  501  0.20900614108E+01  0.49749335232E+00  0.19143540825E+02  0.19263722685E+02  0.00000000000E+00 0.  1.
<mgrwt>
<rscale>  0 0.21484544E+01</rscale>
<asrwt>0</asrwt>
<pdfrwt beam="1">0</pdfrwt>
<pdfrwt beam="2">0</pdfrwt>
<totfact> 0.22435224E+12</totfact>
</mgrwt>
</event>
<event>
 4    2  0.1060494E+006  0.2369162E+01  0.7546771E-02  0.2769182E+00
         22   -1    0    0    0    0  0.00000000000E+00  0.00000000000E+00  0.76876463813E+01  0.76876463813E+01  0.00000000000E+00 0.  1.
         22   -1    0    0    0    0 -0.00000000000E+00 -0.00000000000E+00 -0.19380051458E+01  0.19380051458E+01  0.00000000000E+00 0. -1.
          4    1    1    2  501    0  0.42177595096E+00 -0.23313153872E+01 -0.92475403658E+00  0.25432452528E+01  0.00000000000E+00 0. -1.
         -4    1    1    2    0  501 -0.42177595096E+00  0.23313153872E+01  0.66743952720E+01  0.70824062743E+01  0.00000000000E+00 0.  1.
<mgrwt>
<rscale>  0 0.23691615E+01</rscale>
<asrwt>0</asrwt>
<pdfrwt beam="1">0</pdfrwt>
<pdfrwt beam="2">0</pdfrwt>
<totfact> 0.10185203E+12</totfact>
</mgrwt>
</event>
<event>
 4    2  0.1060494E+006  0.4126652E+01  0.7546771E-02  0.2253719E+00
         22   -1    0    0    0    0  0.00000000000E+00  0.00000000000E+00  0.36513516304E+01  0.36513516304E+01  0.00000000000E+00 0.  1.
         22   -1    0    0    0    0 -0.00000000000E+00 -0.00000000000E+00 -0.62176323262E+01  0.62176323262E+01  0.00000000000E+00 0. -1.
          4    1    1    2  501    0  0.35680893453E+01  0.20731612958E+01 -0.37499107497E+01  0.55759384829E+01  0.00000000000E+00 0. -1.
         -4    1    1    2    0  501 -0.35680893453E+01 -0.20731612958E+01  0.11836300539E+01  0.42930454737E+01  0.00000000000E+00 0.  1.
<mgrwt>
<rscale>  0 0.41266523E+01</rscale>
<asrwt>0</asrwt>
<pdfrwt beam="1">0</pdfrwt>
<pdfrwt beam="2">0</pdfrwt>
<totfact> 0.62762772E+11</totfact>
</mgrwt>
</event>
<event>
 4    2  0.1060494E+006  0.3040390E+01  0.7546771E-02  0.2509568E+00
         22   -1    0    0    0    0  0.00000000000E+00  0.00000000000E+00  0.24302876061E+01  0.24302876061E+01  0.00000000000E+00 0.  1.
         22   -1    0    0    0    0 -0.00000000000E+00 -0.00000000000E+00 -0.15062172354E+02  0.15062172354E+02  0.00000000000E+00 0. -1.
          4    1    1    2  501    0 -0.16208705821E+01 -0.25723047514E+01 -0.13877612132E+02  0.14206762181E+02  0.00000000000E+00 0. -1.
         -4    1    1    2    0  501  0.16208705821E+01  0.25723047514E+01  0.12457273844E+01  0.32856977789E+01  0.00000000000E+00 0.  1.
<mgrwt>
<rscale>  0 0.30403903E+01</rscale>
<asrwt>0</asrwt>
<pdfrwt beam="1">0</pdfrwt>
<pdfrwt beam="2">0</pdfrwt>
<totfact> 0.34612287E+11</totfact>
</mgrwt>
</event>
<event>
 4    2  0.1060494E+006  0.2789599E+01  0.7546771E-02  0.2593163E+00
         22   -1    0    0    0    0  0.00000000000E+00  0.00000000000E+00  0.25300978321E+00  0.25300978321E+00  0.00000000000E+00 0. -1.
         22   -1    0    0    0    0 -0.00000000000E+00 -0.00000000000E+00 -0.33846442128E+02  0.33846442128E+02  0.00000000000E+00 0.  1.
          4    1    1    2  501    0 -0.26262332687E+01 -0.94061842034E+00 -0.21947687995E+02  0.22124259818E+02  0.00000000000E+00 0.  1.
         -4    1    1    2    0  501  0.26262332687E+01  0.94061842034E+00 -0.11645744350E+02  0.11975192093E+02  0.00000000000E+00 0. -1.
<mgrwt>
<rscale>  0 0.27895993E+01</rscale>
<asrwt>0</asrwt>
<pdfrwt beam="1">0</pdfrwt>
<pdfrwt beam="2">0</pdfrwt>
<totfact> 0.16451511E+12</totfact>
</mgrwt>
</event>
<event>
 4    2  0.1060494E+006  0.2648370E+01  0.7546771E-02  0.2646525E+00
         22   -1    0    0    0    0  0.00000000000E+00  0.00000000000E+00  0.32104252299E+02  0.32104252299E+02  0.00000000000E+00 0. -1.
         22   -1    0    0    0    0 -0.00000000000E+00 -0.00000000000E+00 -0.21964998191E+00  0.21964998191E+00  0.00000000000E+00 0.  1.
          4    1    1    2  501    0 -0.25946659518E+01 -0.53063355753E+00  0.14758458040E+02  0.14994197114E+02  0.00000000000E+00 0. -1.
         -4    1    1    2    0  501  0.25946659518E+01  0.53063355753E+00  0.17126144277E+02  0.17329705167E+02  0.00000000000E+00 0.  1.
<mgrwt>
<rscale>  0 0.26483699E+01</rscale>
<asrwt>0</asrwt>
<pdfrwt beam="1">0</pdfrwt>
<pdfrwt beam="2">0</pdfrwt>
<totfact> 0.20618526E+12</totfact>
</mgrwt>
</event>
<event>
 4    2  0.1060494E+006  0.2419510E+01  0.7546771E-02  0.2745115E+00
         22   -1    0    0    0    0  0.00000000000E+00  0.00000000000E+00  0.23104564666E+02  0.23104564666E+02  0.00000000000E+00 0.  1.
         22   -1    0    0    0    0 -0.00000000000E+00 -0.00000000000E+00 -0.12333520488E+01  0.12333520488E+01  0.00000000000E+00 0. -1.
          4    1    1    2  501    0  0.37082543758E+00  0.23909238394E+01  0.88380079354E-01  0.24211235717E+01  0.00000000000E+00 0. -1.
         -4    1    1    2    0  501 -0.37082543758E+00 -0.23909238394E+01  0.21782832538E+02  0.21916793143E+02  0.00000000000E+00 0.  1.
<mgrwt>
<rscale>  0 0.24195099E+01</rscale>
<asrwt>0</asrwt>
<pdfrwt beam="1">0</pdfrwt>
<pdfrwt beam="2">0</pdfrwt>
<totfact> 0.44484737E+11</totfact>
</mgrwt>
</event>
<event>
 4    2  0.1060494E+006  0.2051693E+01  0.7546771E-02  0.2946684E+00
         22   -1    0    0    0    0  0.00000000000E+00  0.00000000000E+00  0.83352851705E+02  0.83352851705E+02  0.00000000000E+00 0.  1.
         22   -1    0    0    0    0 -0.00000000000E+00 -0.00000000000E+00 -0.59321628753E-01  0.59321628753E-01  0.00000000000E+00 0. -1.
          4    1    1    2  501    0  0.95578676381E+00 -0.18154659154E+01  0.25565132368E+02  0.25647328083E+02  0.00000000000E+00 0. -1.
         -4    1    1    2    0  501 -0.95578676381E+00  0.18154659154E+01  0.57728397709E+02  0.57764845251E+02  0.00000000000E+00 0.  1.
<mgrwt>
<rscale>  0 0.20516932E+01</rscale>
<asrwt>0</asrwt>
<pdfrwt beam="1">0</pdfrwt>
<pdfrwt beam="2">0</pdfrwt>
<totfact> 0.24863698E+12</totfact>
</mgrwt>
</event>
<event>
 4    2  0.1060494E+006  0.2404496E+01  0.7546771E-02  0.2752193E+00
         22   -1    0    0    0    0  0.00000000000E+00  0.00000000000E+00  0.10091524269E+01  0.10091524269E+01  0.00000000000E+00 0.  1.
         22   -1    0    0    0    0 -0.00000000000E+00 -0.00000000000E+00 -0.57371259782E+01  0.57371259782E+01  0.00000000000E+00 0. -1.
          4    1    1    2  501    0 -0.27139931677E-01  0.24043424414E+01 -0.24896516375E+01  0.34612085213E+01  0.00000000000E+00 0. -1.
         -4    1    1    2    0  501  0.27139931677E-01 -0.24043424414E+01 -0.22383219138E+01  0.32850698838E+01  0.00000000000E+00 0.  1.
<mgrwt>
<rscale>  0 0.24044956E+01</rscale>
<asrwt>0</asrwt>
<pdfrwt beam="1">0</pdfrwt>
<pdfrwt beam="2">0</pdfrwt>
<totfact> 0.30579213E+12</totfact>
</mgrwt>
</event>
<event>
 4    2  0.1060494E+006  0.2267870E+01  0.7546771E-02  0.2820649E+00
         22   -1    0    0    0    0  0.00000000000E+00  0.00000000000E+00  0.13974424204E+02  0.13974424204E+02  0.00000000000E+00 0.  1.
         22   -1    0    0    0    0 -0.00000000000E+00 -0.00000000000E+00 -0.36900225077E+00  0.36900225077E+00  0.00000000000E+00 0. -1.
          4    1    1    2  501    0 -0.22602627389E+01  0.18560362342E+00  0.64376997979E+01  0.68254827698E+01  0.00000000000E+00 0.  1.
         -4    1    1    2    0  501  0.22602627389E+01 -0.18560362342E+00  0.71677221558E+01  0.75179436853E+01  0.00000000000E+00 0. -1.
<mgrwt>
<rscale>  0 0.22678704E+01</rscale>
<asrwt>0</asrwt>
<pdfrwt beam="1">0</pdfrwt>
<pdfrwt beam="2">0</pdfrwt>
<totfact> 0.32647089E+12</totfact>
</mgrwt>
</event>
<event>
 4    2  0.1060494E+006  0.3629421E+01  0.7546771E-02  0.2354272E+00
         22   -1    0    0    0    0  0.00000000000E+00  0.00000000000E+00  0.83315135457E+01  0.83315135457E+01  0.00000000000E+00 0.  1.
         22   -1    0    0    0    0 -0.00000000000E+00 -0.00000000000E+00 -0.33217458647E+01  0.33217458647E+01  0.00000000000E+00 0. -1.
          4    1    1    2  501    0  0.35979604833E+01 -0.47684396791E+00 -0.17129868912E+01  0.40133556906E+01  0.00000000000E+00 0. -1.
         -4    1    1    2    0  501 -0.35979604833E+01  0.47684396791E+00  0.67227545722E+01  0.76399037198E+01  0.00000000000E+00 0.  1.
<mgrwt>
<rscale>  0 0.36294214E+01</rscale>
<asrwt>0</asrwt>
<pdfrwt beam="1">0</pdfrwt>
<pdfrwt beam="2">0</pdfrwt>
<totfact> 0.49397533E+11</totfact>
</mgrwt>
</event>
<event>
 4    2  0.1060494E+006  0.3684166E+01  0.7546771E-02  0.2342064E+00
         22   -1    0    0    0    0  0.00000000000E+00  0.00000000000E+00  0.15489534431E+02  0.15489534431E+02  0.00000000000E+00 0.  1.
         22   -1    0    0    0    0 -0.00000000000E+00 -0.00000000000E+00 -0.87696496185E+00  0.87696496185E+00  0.00000000000E+00 0. -1.
          4    1    1    2  501    0  0.67570287716E+00 -0.36216716912E+01  0.75359430164E+01  0.83882964518E+01  0.00000000000E+00 0.  1.
         -4    1    1    2    0  501 -0.67570287716E+00  0.36216716912E+01  0.70766264529E+01  0.79782029412E+01  0.00000000000E+00 0. -1.
<mgrwt>
<rscale>  0 0.36841661E+01</rscale>
<asrwt>0</asrwt>
<pdfrwt beam="1">0</pdfrwt>
<pdfrwt beam="2">0</pdfrwt>
<totfact> 0.10801444E+12</totfact>
</mgrwt>
</event>
<event>
 4    2  0.1060494E+006  0.3292415E+01  0.7546771E-02  0.2437139E+00
         22   -1    0    0    0    0  0.00000000000E+00  0.00000000000E+00  0.14056956032E+01  0.14056956032E+01  0.00000000000E+00 0. -1.
         22   -1    0    0    0    0 -0.00000000000E+00 -0.00000000000E+00 -0.98411445901E+01  0.98411445901E+01  0.00000000000E+00 0.  1.
          4    1    1    2  501    0 -0.12284990423E+01 -0.30546332911E+01 -0.16017514691E+01  0.36613661670E+01  0.00000000000E+00 0. -1.
         -4    1    1    2    0  501  0.12284990423E+01  0.30546332911E+01 -0.68336975178E+01  0.75854740263E+01  0.00000000000E+00 0.  1.
<mgrwt>
<rscale>  0 0.32924147E+01</rscale>
<asrwt>0</asrwt>
<pdfrwt beam="1">0</pdfrwt>
<pdfrwt beam="2">0</pdfrwt>
<totfact> 0.10953158E+12</totfact>
</mgrwt>
</event>
<event>
 4    2  0.1060494E+006  0.2029096E+01  0.7546771E-02  0.2961358E+00
         22   -1    0    0    0    0  0.00000000000E+00  0.00000000000E+00  0.40108630882E+01  0.40108630882E+01  0.00000000000E+00 0.  1.
         22   -1    0    0    0    0 -0.00000000000E+00 -0.00000000000E+00 -0.10334339200E+01  0.10334339200E+01  0.00000000000E+00 0. -1.
          4    1    1    2  501    0  0.18816943345E+01  0.75924651082E+00  0.16950196210E+01  0.26439213960E+01  0.00000000000E+00 0.  1.
         -4    1    1    2    0  501 -0.18816943345E+01 -0.75924651082E+00  0.12824095471E+01  0.24003756121E+01  0.00000000000E+00 0. -1.
<mgrwt>
<rscale>  0 0.20290956E+01</rscale>
<asrwt>0</asrwt>
<pdfrwt beam="1">0</pdfrwt>
<pdfrwt beam="2">0</pdfrwt>
<totfact> 0.45441486E+12</totfact>
</mgrwt>
</event>
<event>
 4    2  0.1060494E+006  0.2761252E+01  0.7546771E-02  0.2603473E+00
         22   -1    0    0    0    0  0.00000000000E+00  0.00000000000E+00  0.10040440326E+01  0.10040440326E+01  0.00000000000E+00 0. -1.
         22   -1    0    0    0    0 -0.00000000000E+00 -0.00000000000E+00 -0.79747143528E+01  0.79747143528E+01  0.00000000000E+00 0.  1.
          4    1    1    2  501    0 -0.74095502021E+00  0.26599813231E+01 -0.25041763222E+01  0.37276552998E+01  0.00000000000E+00 0. -1.
         -4    1    1    2    0  501  0.74095502021E+00 -0.26599813231E+01 -0.44664939980E+01  0.52511030856E+01  0.00000000000E+00 0.  1.
<mgrwt>
<rscale>  0 0.27612524E+01</rscale>
<asrwt>0</asrwt>
<pdfrwt beam="1">0</pdfrwt>
<pdfrwt beam="2">0</pdfrwt>
<totfact> 0.20751898E+12</totfact>
</mgrwt>
</event>
<event>
 4    2  0.1060494E+006  0.2096006E+01  0.7546771E-02  0.2918804E+00
         22   -1    0    0    0    0  0.00000000000E+00  0.00000000000E+00  0.24284632445E+02  0.24284632445E+02  0.00000000000E+00 0.  1.
         22   -1    0    0    0    0 -0.00000000000E+00 -0.00000000000E+00 -0.82805213167E+00  0.82805213167E+00  0.00000000000E+00 0. -1.
          4    1    1    2  501    0 -0.32610631939E+00 -0.20704822833E+01  0.62797277597E+00  0.21880566776E+01  0.00000000000E+00 0. -1.
         -4    1    1    2    0  501  0.32610631939E+00  0.20704822833E+01  0.22828607538E+02  0.22924627899E+02  0.00000000000E+00 0.  1.
<mgrwt>
<rscale>  0 0.20960063E+01</rscale>
<asrwt>0</asrwt>
<pdfrwt beam="1">0</pdfrwt>
<pdfrwt beam="2">0</pdfrwt>
<totfact> 0.65857876E+11</totfact>
</mgrwt>
</event>
<event>
 4    2  0.1060494E+006  0.2119028E+01  0.7546771E-02  0.2904767E+00
         22   -1    0    0    0    0  0.00000000000E+00  0.00000000000E+00  0.20700279704E+02  0.20700279704E+02  0.00000000000E+00 0.  1.
         22   -1    0    0    0    0 -0.00000000000E+00 -0.00000000000E+00 -0.23070477107E+00  0.23070477107E+00  0.00000000000E+00 0. -1.
          4    1    1    2  501    0  0.19031099777E+01 -0.93190847565E+00  0.76765010213E+01  0.79636015046E+01  0.00000000000E+00 0. -1.
         -4    1    1    2    0  501 -0.19031099777E+01  0.93190847565E+00  0.12793073911E+02  0.12967382970E+02  0.00000000000E+00 0.  1.
<mgrwt>
<rscale>  0 0.21190283E+01</rscale>
<asrwt>0</asrwt>
<pdfrwt beam="1">0</pdfrwt>
<pdfrwt beam="2">0</pdfrwt>
<totfact> 0.33982652E+12</totfact>
</mgrwt>
</event>
<event>
 4    2  0.1060494E+006  0.2977259E+01  0.7546771E-02  0.2529416E+00
         22   -1    0    0    0    0  0.00000000000E+00  0.00000000000E+00  0.38153238536E+01  0.38153238536E+01  0.00000000000E+00 0.  1.
         22   -1    0    0    0    0 -0.00000000000E+00 -0.00000000000E+00 -0.24763411696E+01  0.24763411696E+01  0.00000000000E+00 0. -1.
          4    1    1    2  501    0  0.87912621828E-01 -0.29759606515E+01  0.14515891650E+01  0.33122773936E+01  0.00000000000E+00 0.  1.
         -4    1    1    2    0  501 -0.87912621828E-01  0.29759606515E+01 -0.11260648102E+00  0.29793876297E+01  0.00000000000E+00 0. -1.
<mgrwt>
<rscale>  0 0.29772589E+01</rscale>
<asrwt>0</asrwt>
<pdfrwt beam="1">0</pdfrwt>
<pdfrwt beam="2">0</pdfrwt>
<totfact> 0.17606949E+12</totfact>
</mgrwt>
</event>
<event>
 4    2  0.1060494E+006  0.3377063E+01  0.7546771E-02  0.2414967E+00
         22   -1    0    0    0    0  0.00000000000E+00  0.00000000000E+00  0.10794865709E+01  0.10794865709E+01  0.00000000000E+00 0.  1.
         22   -1    0    0    0    0 -0.00000000000E+00 -0.00000000000E+00 -0.14015380747E+02  0.14015380747E+02  0.00000000000E+00 0. -1.
          4    1    1    2  501    0 -0.73591529981E+00  0.32959036503E+01 -0.10212874379E+02  0.10756735345E+02  0.00000000000E+00 0. -1.
         -4    1    1    2    0  501  0.73591529981E+00 -0.32959036503E+01 -0.27230197975E+01  0.43381319734E+01  0.00000000000E+00 0.  1.
<mgrwt>
<rscale>  0 0.33770627E+01</rscale>
<asrwt>0</asrwt>
<pdfrwt beam="1">0</pdfrwt>
<pdfrwt beam="2">0</pdfrwt>
<totfact> 0.96359398E+11</totfact>
</mgrwt>
</event>
<event>
 4    2  0.1060494E+006  0.2050558E+01  0.7546771E-02  0.2947413E+00
         22   -1    0    0    0    0  0.00000000000E+00  0.00000000000E+00  0.35951252338E+00  0.35951252338E+00  0.00000000000E+00 0. -1.
         22   -1    0    0    0    0 -0.00000000000E+00 -0.00000000000E+00 -0.21760889959E+02  0.21760889959E+02  0.00000000000E+00 0.  1.
          4    1    1    2  501    0 -0.88368043848E+00  0.18503777290E+01 -0.18222689875E+02  0.18337699287E+02  0.00000000000E+00 0.  1.
         -4    1    1    2    0  501  0.88368043848E+00 -0.18503777290E+01 -0.31786875611E+01  0.37827031959E+01  0.00000000000E+00 0. -1.
<mgrwt>
<rscale>  0 0.20505582E+01</rscale>
<asrwt>0</asrwt>
<pdfrwt beam="1">0</pdfrwt>
<pdfrwt beam="2">0</pdfrwt>
<totfact> 0.19417864E+12</totfact>
</mgrwt>
</event>
<event>
 4    2  0.1060494E+006  0.2108213E+01  0.7546771E-02  0.2911325E+00
         22   -1    0    0    0    0  0.00000000000E+00  0.00000000000E+00  0.83135629591E+01  0.83135629591E+01  0.00000000000E+00 0.  1.
         22   -1    0    0    0    0 -0.00000000000E+00 -0.00000000000E+00 -0.56498741189E+00  0.56498741189E+00  0.00000000000E+00 0. -1.
          4    1    1    2  501    0 -0.16334180867E+00  0.21018753200E+01  0.28450207270E+01  0.35410031551E+01  0.00000000000E+00 0. -1.
         -4    1    1    2    0  501  0.16334180867E+00 -0.21018753200E+01  0.49035548202E+01  0.53375472159E+01  0.00000000000E+00 0.  1.
<mgrwt>
<rscale>  0 0.21082126E+01</rscale>
<asrwt>0</asrwt>
<pdfrwt beam="1">0</pdfrwt>
<pdfrwt beam="2">0</pdfrwt>
<totfact> 0.37941036E+12</totfact>
</mgrwt>
</event>
<event>
 4    2  0.1060494E+006  0.2129945E+01  0.7546771E-02  0.2898214E+00
         22   -1    0    0    0    0  0.00000000000E+00  0.00000000000E+00  0.22985184728E+00  0.22985184728E+00  0.00000000000E+00 0. -1.
         22   -1    0    0    0    0 -0.00000000000E+00 -0.00000000000E+00 -0.22208149073E+02  0.22208149073E+02  0.00000000000E+00 0.  1.
          4    1    1    2  501    0  0.12040419364E+00  0.21265390054E+01 -0.14731263345E+02  0.14884447758E+02  0.00000000000E+00 0.  1.
         -4    1    1    2    0  501 -0.12040419364E+00 -0.21265390054E+01 -0.72470338802E+01  0.75535531621E+01  0.00000000000E+00 0. -1.
<mgrwt>
<rscale>  0 0.21299449E+01</rscale>
<asrwt>0</asrwt>
<pdfrwt beam="1">0</pdfrwt>
<pdfrwt beam="2">0</pdfrwt>
<totfact> 0.31249695E+12</totfact>
</mgrwt>
</event>
<event>
 4    2  0.1060494E+006  0.2016568E+01  0.7546771E-02  0.2969631E+00
         22   -1    0    0    0    0  0.00000000000E+00  0.00000000000E+00  0.29021876472E+01  0.29021876472E+01  0.00000000000E+00 0.  1.
         22   -1    0    0    0    0 -0.00000000000E+00 -0.00000000000E+00 -0.15678259363E+01  0.15678259363E+01  0.00000000000E+00 0. -1.
          4    1    1    2  501    0 -0.14663351972E+01  0.13843437579E+01  0.13958001687E+01  0.24525098698E+01  0.00000000000E+00 0.  1.
         -4    1    1    2    0  501  0.14663351972E+01 -0.13843437579E+01 -0.61438457798E-01  0.20175037137E+01  0.00000000000E+00 0. -1.
<mgrwt>
<rscale>  0 0.20165680E+01</rscale>
<asrwt>0</asrwt>
<pdfrwt beam="1">0</pdfrwt>
<pdfrwt beam="2">0</pdfrwt>
<totfact> 0.41161692E+12</totfact>
</mgrwt>
</event>
<event>
 4    2  0.1060494E+006  0.2639614E+01  0.7546771E-02  0.2650005E+00
         22   -1    0    0    0    0  0.00000000000E+00  0.00000000000E+00  0.14997503860E+02  0.14997503860E+02  0.00000000000E+00 0. -1.
         22   -1    0    0    0    0 -0.00000000000E+00 -0.00000000000E+00 -0.62701427014E+00  0.62701427014E+00  0.00000000000E+00 0.  1.
          4    1    1    2  501    0  0.88630219713E+00 -0.24863690770E+01  0.32089849661E+01  0.41551350501E+01  0.00000000000E+00 0.  1.
         -4    1    1    2    0  501 -0.88630219713E+00  0.24863690770E+01  0.11161504624E+02  0.11469383081E+02  0.00000000000E+00 0. -1.
<mgrwt>
<rscale>  0 0.26396141E+01</rscale>
<asrwt>0</asrwt>
<pdfrwt beam="1">0</pdfrwt>
<pdfrwt beam="2">0</pdfrwt>
<totfact> 0.16454606E+12</totfact>
</mgrwt>
</event>
<event>
 4    2  0.1060494E+006  0.2736002E+01  0.7546771E-02  0.2612821E+00
         22   -1    0    0    0    0  0.00000000000E+00  0.00000000000E+00  0.32826524283E+01  0.32826524283E+01  0.00000000000E+00 0. -1.
         22   -1    0    0    0    0 -0.00000000000E+00 -0.00000000000E+00 -0.24081257640E+01  0.24081257640E+01  0.00000000000E+00 0.  1.
          4    1    1    2  501    0  0.16872882919E+01  0.21537796439E+01  0.10926057777E+01  0.29460984233E+01  0.00000000000E+00 0. -1.
         -4    1    1    2    0  501 -0.16872882919E+01 -0.21537796439E+01 -0.21807911343E+00  0.27446797689E+01  0.00000000000E+00 0.  1.
<mgrwt>
<rscale>  0 0.27360023E+01</rscale>
<asrwt>0</asrwt>
<pdfrwt beam="1">0</pdfrwt>
<pdfrwt beam="2">0</pdfrwt>
<totfact> 0.21696494E+12</totfact>
</mgrwt>
</event>
<event>
 4    2  0.1060494E+006  0.4395262E+01  0.7546771E-02  0.2207558E+00
         22   -1    0    0    0    0  0.00000000000E+00  0.00000000000E+00  0.10237666022E+02  0.10237666022E+02  0.00000000000E+00 0. -1.
         22   -1    0    0    0    0 -0.00000000000E+00 -0.00000000000E+00 -0.18963888060E+01  0.18963888060E+01  0.00000000000E+00 0.  1.
          4    1    1    2  501    0 -0.40665423092E+01 -0.16678016117E+01  0.45978568356E+01  0.63607087694E+01  0.00000000000E+00 0.  1.
         -4    1    1    2    0  501  0.40665423092E+01  0.16678016117E+01  0.37434203804E+01  0.57733460586E+01  0.00000000000E+00 0. -1.
<mgrwt>
<rscale>  0 0.43952621E+01</rscale>
<asrwt>0</asrwt>
<pdfrwt beam="1">0</pdfrwt>
<pdfrwt beam="2">0</pdfrwt>
<totfact> 0.73940933E+11</totfact>
</mgrwt>
</event>
<event>
 4    2  0.1060494E+006  0.3860304E+01  0.7546771E-02  0.2304820E+00
         22   -1    0    0    0    0  0.00000000000E+00  0.00000000000E+00  0.13096020425E+02  0.13096020425E+02  0.00000000000E+00 0. -1.
         22   -1    0    0    0    0 -0.00000000000E+00 -0.00000000000E+00 -0.17096799226E+01  0.17096799226E+01  0.00000000000E+00 0.  1.
          4    1    1    2  501    0  0.20742669532E+01  0.32556663126E+01  0.99742808031E+01  0.10695243058E+02  0.00000000000E+00 0. -1.
         -4    1    1    2    0  501 -0.20742669532E+01 -0.32556663126E+01  0.14120596990E+01  0.41104572891E+01  0.00000000000E+00 0.  1.
<mgrwt>
<rscale>  0 0.38603039E+01</rscale>
<asrwt>0</asrwt>
<pdfrwt beam="1">0</pdfrwt>
<pdfrwt beam="2">0</pdfrwt>
<totfact> 0.61752310E+11</totfact>
</mgrwt>
</event>
<event>
 4    2  0.1060494E+006  0.2486273E+01  0.7546771E-02  0.2714613E+00
         22   -1    0    0    0    0  0.00000000000E+00  0.00000000000E+00  0.13286710341E+02  0.13286710341E+02  0.00000000000E+00 0.  1.
         22   -1    0    0    0    0 -0.00000000000E+00 -0.00000000000E+00 -0.70269699026E+00  0.70269699026E+00  0.00000000000E+00 0. -1.
          4    1    1    2  501    0 -0.15025077244E+01  0.19809154786E+01  0.22259394559E+01  0.33371188257E+01  0.00000000000E+00 0. -1.
         -4    1    1    2    0  501  0.15025077244E+01 -0.19809154786E+01  0.10358073895E+02  0.10652288506E+02  0.00000000000E+00 0.  1.
<mgrwt>
<rscale>  0 0.24862734E+01</rscale>
<asrwt>0</asrwt>
<pdfrwt beam="1">0</pdfrwt>
<pdfrwt beam="2">0</pdfrwt>
<totfact> 0.16777139E+12</totfact>
</mgrwt>
</event>
<event>
 4    2  0.1060494E+006  0.5161999E+01  0.7546771E-02  0.2104149E+00
         22   -1    0    0    0    0  0.00000000000E+00  0.00000000000E+00  0.17944715440E+02  0.17944715440E+02  0.00000000000E+00 0. -1.
         22   -1    0    0    0    0 -0.00000000000E+00 -0.00000000000E+00 -0.16215556619E+01  0.16215556619E+01  0.00000000000E+00 0.  1.
          4    1    1    2  501    0 -0.31849290258E+01 -0.40623221019E+01  0.53216029383E+01  0.74138850539E+01  0.00000000000E+00 0. -1.
         -4    1    1    2    0  501  0.31849290258E+01  0.40623221019E+01  0.11001556840E+02  0.12152386048E+02  0.00000000000E+00 0.  1.
<mgrwt>
<rscale>  0 0.51619990E+01</rscale>
<asrwt>0</asrwt>
<pdfrwt beam="1">0</pdfrwt>
<pdfrwt beam="2">0</pdfrwt>
<totfact> 0.44528432E+11</totfact>
</mgrwt>
</event>
<event>
 4    2  0.1060494E+006  0.1049716E+02  0.7546771E-02  0.1758907E+00
         22   -1    0    0    0    0  0.00000000000E+00  0.00000000000E+00  0.14112190176E+02  0.14112190176E+02  0.00000000000E+00 0.  1.
         22   -1    0    0    0    0 -0.00000000000E+00 -0.00000000000E+00 -0.15760341385E+02  0.15760341385E+02  0.00000000000E+00 0. -1.
          4    1    1    2  501    0 -0.62727984574E+01 -0.84167850153E+01 -0.11433755971E+02  0.15521631553E+02  0.00000000000E+00 0. -1.
         -4    1    1    2    0  501  0.62727984574E+01  0.84167850153E+01  0.97856047615E+01  0.14350900008E+02  0.00000000000E+00 0.  1.
<mgrwt>
<rscale>  0 0.10497155E+02</rscale>
<asrwt>0</asrwt>
<pdfrwt beam="1">0</pdfrwt>
<pdfrwt beam="2">0</pdfrwt>
<totfact> 0.40263922E+10</totfact>
</mgrwt>
</event>
<event>
 4    2  0.1060494E+006  0.2299795E+01  0.7546771E-02  0.2803964E+00
         22   -1    0    0    0    0  0.00000000000E+00  0.00000000000E+00  0.20108047251E+00  0.20108047251E+00  0.00000000000E+00 0. -1.
         22   -1    0    0    0    0 -0.00000000000E+00 -0.00000000000E+00 -0.26735814052E+02  0.26735814052E+02  0.00000000000E+00 0.  1.
          4    1    1    2  501    0 -0.21752178476E+01  0.74664941181E+00 -0.14980636620E+02  0.15156138413E+02  0.00000000000E+00 0.  1.
         -4    1    1    2    0  501  0.21752178476E+01 -0.74664941181E+00 -0.11554096959E+02  0.11780756111E+02  0.00000000000E+00 0. -1.
<mgrwt>
<rscale>  0 0.22997952E+01</rscale>
<asrwt>0</asrwt>
<pdfrwt beam="1">0</pdfrwt>
<pdfrwt beam="2">0</pdfrwt>
<totfact> 0.28721130E+12</totfact>
</mgrwt>
</event>
<event>
 4    2  0.1060494E+006  0.3023538E+01  0.7546771E-02  0.2514794E+00
         22   -1    0    0    0    0  0.00000000000E+00  0.00000000000E+00  0.53218084528E+00  0.53218084528E+00  0.00000000000E+00 0. -1.
         22   -1    0    0    0    0 -0.00000000000E+00 -0.00000000000E+00 -0.21276839896E+02  0.21276839896E+02  0.00000000000E+00 0.  1.
          4    1    1    2  501    0 -0.37215743108E+00 -0.30005465891E+01 -0.15158467696E+02  0.15457067117E+02  0.00000000000E+00 0.  1.
         -4    1    1    2    0  501  0.37215743108E+00  0.30005465891E+01 -0.55861913555E+01  0.63519536244E+01  0.00000000000E+00 0. -1.
<mgrwt>
<rscale>  0 0.30235378E+01</rscale>
<asrwt>0</asrwt>
<pdfrwt beam="1">0</pdfrwt>
<pdfrwt beam="2">0</pdfrwt>
<totfact> 0.12837656E+12</totfact>
</mgrwt>
</event>
<event>
 4    2  0.1060494E+006  0.2927436E+01  0.7546771E-02  0.2545620E+00
         22   -1    0    0    0    0  0.00000000000E+00  0.00000000000E+00  0.28335370180E+02  0.28335370180E+02  0.00000000000E+00 0.  1.
         22   -1    0    0    0    0 -0.00000000000E+00 -0.00000000000E+00 -0.34124226213E+00  0.34124226213E+00  0.00000000000E+00 0. -1.
          4    1    1    2  501    0 -0.29274245817E+01  0.82860967872E-02  0.91623753840E+01  0.96186800559E+01  0.00000000000E+00 0.  1.
         -4    1    1    2    0  501  0.29274245817E+01 -0.82860967872E-02  0.18831752534E+02  0.19057932387E+02  0.00000000000E+00 0. -1.
<mgrwt>
<rscale>  0 0.29274363E+01</rscale>
<asrwt>0</asrwt>
<pdfrwt beam="1">0</pdfrwt>
<pdfrwt beam="2">0</pdfrwt>
<totfact> 0.14761230E+12</totfact>
</mgrwt>
</event>
<event>
 4    2  0.1060494E+006  0.3587091E+01  0.7546771E-02  0.2363933E+00
         22   -1    0    0    0    0  0.00000000000E+00  0.00000000000E+00  0.26300598896E+02  0.26300598896E+02  0.00000000000E+00 0.  1.
         22   -1    0    0    0    0 -0.00000000000E+00 -0.00000000000E+00 -0.63875409882E+00  0.63875409882E+00  0.00000000000E+00 0. -1.
          4    1    1    2  501    0 -0.23817220387E+01 -0.26822791231E+01  0.63140979986E+01  0.72618905734E+01  0.00000000000E+00 0. -1.
         -4    1    1    2    0  501  0.23817220387E+01  0.26822791231E+01  0.19347746798E+02  0.19677462421E+02  0.00000000000E+00 0.  1.
<mgrwt>
<rscale>  0 0.35870909E+01</rscale>
<asrwt>0</asrwt>
<pdfrwt beam="1">0</pdfrwt>
<pdfrwt beam="2">0</pdfrwt>
<totfact> 0.79979360E+11</totfact>
</mgrwt>
</event>
<event>
 4    2  0.1060494E+006  0.2125704E+01  0.7546771E-02  0.2900752E+00
         22   -1    0    0    0    0  0.00000000000E+00  0.00000000000E+00  0.17501354648E+00  0.17501354648E+00  0.00000000000E+00 0.  1.
         22   -1    0    0    0    0 -0.00000000000E+00 -0.00000000000E+00 -0.40020240723E+02  0.40020240723E+02  0.00000000000E+00 0. -1.
          4    1    1    2  501    0  0.21240748803E+01 -0.83209988455E-01 -0.31894788127E+02  0.31965545946E+02  0.00000000000E+00 0. -1.
         -4    1    1    2    0  501 -0.21240748803E+01  0.83209988455E-01 -0.79504390502E+01  0.82297083235E+01  0.00000000000E+00 0.  1.
<mgrwt>
<rscale>  0 0.21257041E+01</rscale>
<asrwt>0</asrwt>
<pdfrwt beam="1">0</pdfrwt>
<pdfrwt beam="2">0</pdfrwt>
<totfact> 0.19994992E+12</totfact>
</mgrwt>
</event>
<event>
 4    2  0.1060494E+006  0.2176750E+01  0.7546771E-02  0.2870836E+00
         22   -1    0    0    0    0  0.00000000000E+00  0.00000000000E+00  0.54073413547E+01  0.54073413547E+01  0.00000000000E+00 0.  1.
         22   -1    0    0    0    0 -0.00000000000E+00 -0.00000000000E+00 -0.10204183320E+01  0.10204183320E+01  0.00000000000E+00 0. -1.
          4    1    1    2  501    0  0.16967112875E+01 -0.13636015570E+01  0.98548086521E+00  0.23894373679E+01  0.00000000000E+00 0. -1.
         -4    1    1    2    0  501 -0.16967112875E+01  0.13636015570E+01  0.34014421576E+01  0.40383223188E+01  0.00000000000E+00 0.  1.
<mgrwt>
<rscale>  0 0.21767495E+01</rscale>
<asrwt>0</asrwt>
<pdfrwt beam="1">0</pdfrwt>
<pdfrwt beam="2">0</pdfrwt>
<totfact> 0.32392256E+12</totfact>
</mgrwt>
</event>
<event>
 4    2  0.1060494E+006  0.2927354E+01  0.7546771E-02  0.2545647E+00
         22   -1    0    0    0    0  0.00000000000E+00  0.00000000000E+00  0.12679626764E+02  0.12679626764E+02  0.00000000000E+00 0.  1.
         22   -1    0    0    0    0 -0.00000000000E+00 -0.00000000000E+00 -0.23346138711E+01  0.23346138711E+01  0.00000000000E+00 0. -1.
          4    1    1    2  501    0  0.10544171177E+01  0.27308614742E+01 -0.11553909583E+01  0.31471142521E+01  0.00000000000E+00 0. -1.
         -4    1    1    2    0  501 -0.10544171177E+01 -0.27308614742E+01  0.11500403851E+02  0.11867126383E+02  0.00000000000E+00 0.  1.
<mgrwt>
<rscale>  0 0.29273537E+01</rscale>
<asrwt>0</asrwt>
<pdfrwt beam="1">0</pdfrwt>
<pdfrwt beam="2">0</pdfrwt>
<totfact> 0.44792421E+11</totfact>
</mgrwt>
</event>
<event>
 4    2  0.1060494E+006  0.3836247E+01  0.7546771E-02  0.2309733E+00
         22   -1    0    0    0    0  0.00000000000E+00  0.00000000000E+00  0.24496414025E+02  0.24496414025E+02  0.00000000000E+00 0.  1.
         22   -1    0    0    0    0 -0.00000000000E+00 -0.00000000000E+00 -0.83739637896E+00  0.83739637896E+00  0.00000000000E+00 0. -1.
          4    1    1    2  501    0 -0.32425774693E+01  0.20499958474E+01  0.50961225878E+01  0.63786563671E+01  0.00000000000E+00 0. -1.
         -4    1    1    2    0  501  0.32425774693E+01 -0.20499958474E+01  0.18562895058E+02  0.18955154037E+02  0.00000000000E+00 0.  1.
<mgrwt>
<rscale>  0 0.38362471E+01</rscale>
<asrwt>0</asrwt>
<pdfrwt beam="1">0</pdfrwt>
<pdfrwt beam="2">0</pdfrwt>
<totfact> 0.64321629E+11</totfact>
</mgrwt>
</event>
<event>
 4    2  0.1060494E+006  0.3069671E+01  0.7546771E-02  0.2500612E+00
         22   -1    0    0    0    0  0.00000000000E+00  0.00000000000E+00  0.63197217540E+00  0.63197217540E+00  0.00000000000E+00 0.  1.
         22   -1    0    0    0    0 -0.00000000000E+00 -0.00000000000E+00 -0.24233988519E+02  0.24233988519E+02  0.00000000000E+00 0. -1.
          4    1    1    2  501    0 -0.27370517604E+01 -0.13897573200E+01 -0.19512835594E+02  0.19752813234E+02  0.00000000000E+00 0. -1.
         -4    1    1    2    0  501  0.27370517604E+01  0.13897573200E+01 -0.40891807500E+01  0.51131474606E+01  0.00000000000E+00 0.  1.
<mgrwt>
<rscale>  0 0.30696706E+01</rscale>
<asrwt>0</asrwt>
<pdfrwt beam="1">0</pdfrwt>
<pdfrwt beam="2">0</pdfrwt>
<totfact> 0.89760090E+11</totfact>
</mgrwt>
</event>
<event>
 4    2  0.1060494E+006  0.2063392E+01  0.7546771E-02  0.2939210E+00
         22   -1    0    0    0    0  0.00000000000E+00  0.00000000000E+00  0.20184824705E+01  0.20184824705E+01  0.00000000000E+00 0. -1.
         22   -1    0    0    0    0 -0.00000000000E+00 -0.00000000000E+00 -0.23614940089E+01  0.23614940089E+01  0.00000000000E+00 0.  1.
          4    1    1    2  501    0  0.78663784612E+00  0.19075606125E+01 -0.88717952950E+00  0.22460351976E+01  0.00000000000E+00 0. -1.
         -4    1    1    2    0  501 -0.78663784612E+00 -0.19075606125E+01  0.54416799106E+00  0.21339412818E+01  0.00000000000E+00 0.  1.
<mgrwt>
<rscale>  0 0.20633920E+01</rscale>
<asrwt>0</asrwt>
<pdfrwt beam="1">0</pdfrwt>
<pdfrwt beam="2">0</pdfrwt>
<totfact> 0.39090301E+12</totfact>
</mgrwt>
</event>
<event>
 4    2  0.1060494E+006  0.2905648E+01  0.7546771E-02  0.2552864E+00
         22   -1    0    0    0    0  0.00000000000E+00  0.00000000000E+00  0.18102918414E+02  0.18102918414E+02  0.00000000000E+00 0. -1.
         22   -1    0    0    0    0 -0.00000000000E+00 -0.00000000000E+00 -0.62625018787E+00  0.62625018787E+00  0.00000000000E+00 0.  1.
          4    1    1    2  501    0  0.28855189138E+01 -0.34142490738E+00  0.40068000918E+01  0.49494683902E+01  0.00000000000E+00 0.  1.
         -4    1    1    2    0  501 -0.28855189138E+01  0.34142490738E+00  0.13469868134E+02  0.13779700212E+02  0.00000000000E+00 0. -1.
<mgrwt>
<rscale>  0 0.29056480E+01</rscale>
<asrwt>0</asrwt>
<pdfrwt beam="1">0</pdfrwt>
<pdfrwt beam="2">0</pdfrwt>
<totfact> 0.13058547E+12</totfact>
</mgrwt>
</event>
<event>
 4    2  0.1060494E+006  0.2118545E+01  0.7546771E-02  0.2905059E+00
         22   -1    0    0    0    0  0.00000000000E+00  0.00000000000E+00  0.37406554911E+00  0.37406554911E+00  0.00000000000E+00 0.  1.
         22   -1    0    0    0    0 -0.00000000000E+00 -0.00000000000E+00 -0.12673466581E+02  0.12673466581E+02  0.00000000000E+00 0. -1.
          4    1    1    2  501    0  0.18575318767E+01 -0.10187297603E+01 -0.46441905790E+01  0.51045804070E+01  0.00000000000E+00 0.  1.
         -4    1    1    2    0  501 -0.18575318767E+01  0.10187297603E+01 -0.76552104530E+01  0.79429517232E+01  0.00000000000E+00 0. -1.
<mgrwt>
<rscale>  0 0.21185455E+01</rscale>
<asrwt>0</asrwt>
<pdfrwt beam="1">0</pdfrwt>
<pdfrwt beam="2">0</pdfrwt>
<totfact> 0.36235816E+12</totfact>
</mgrwt>
</event>
<event>
 4    2  0.1060494E+006  0.2143972E+01  0.7546771E-02  0.2889888E+00
         22   -1    0    0    0    0  0.00000000000E+00  0.00000000000E+00  0.20238380803E+01  0.20238380803E+01  0.00000000000E+00 0.  1.
         22   -1    0    0    0    0 -0.00000000000E+00 -0.00000000000E+00 -0.35371182771E+01  0.35371182771E+01  0.00000000000E+00 0. -1.
          4    1    1    2  501    0  0.81604442897E-01  0.21424184504E+01 -0.24200189426E+01  0.32331266267E+01  0.00000000000E+00 0. -1.
         -4    1    1    2    0  501 -0.81604442897E-01 -0.21424184504E+01  0.90673874577E+00  0.23278297306E+01  0.00000000000E+00 0.  1.
<mgrwt>
<rscale>  0 0.21439720E+01</rscale>
<asrwt>0</asrwt>
<pdfrwt beam="1">0</pdfrwt>
<pdfrwt beam="2">0</pdfrwt>
<totfact> 0.24318917E+12</totfact>
</mgrwt>
</event>
<event>
 4    2  0.1060494E+006  0.2789241E+01  0.7546771E-02  0.2593293E+00
         22   -1    0    0    0    0  0.00000000000E+00  0.00000000000E+00  0.13488909976E+02  0.13488909976E+02  0.00000000000E+00 0.  1.
         22   -1    0    0    0    0 -0.00000000000E+00 -0.00000000000E+00 -0.95200037162E+00  0.95200037162E+00  0.00000000000E+00 0. -1.
          4    1    1    2  501    0  0.26534025387E+01 -0.85983581968E+00  0.17352969639E+01  0.32849837476E+01  0.00000000000E+00 0. -1.
         -4    1    1    2    0  501 -0.26534025387E+01  0.85983581968E+00  0.10801612641E+02  0.11155926600E+02  0.00000000000E+00 0.  1.
<mgrwt>
<rscale>  0 0.27892405E+01</rscale>
<asrwt>0</asrwt>
<pdfrwt beam="1">0</pdfrwt>
<pdfrwt beam="2">0</pdfrwt>
<totfact> 0.11657890E+12</totfact>
</mgrwt>
</event>
<event>
 4    2  0.1060494E+006  0.2112424E+01  0.7546771E-02  0.2908764E+00
         22   -1    0    0    0    0  0.00000000000E+00  0.00000000000E+00  0.61525067621E+00  0.61525067621E+00  0.00000000000E+00 0. -1.
         22   -1    0    0    0    0 -0.00000000000E+00 -0.00000000000E+00 -0.33282651745E+02  0.33282651745E+02  0.00000000000E+00 0.  1.
          4    1    1    2  501    0  0.21029280053E+01  0.20006973338E+00 -0.31322578370E+02  0.31393729467E+02  0.00000000000E+00 0.  1.
         -4    1    1    2    0  501 -0.21029280053E+01 -0.20006973338E+00 -0.13448226985E+01  0.25041729541E+01  0.00000000000E+00 0. -1.
<mgrwt>
<rscale>  0 0.21124237E+01</rscale>
<asrwt>0</asrwt>
<pdfrwt beam="1">0</pdfrwt>
<pdfrwt beam="2">0</pdfrwt>
<totfact> 0.61825365E+11</totfact>
</mgrwt>
</event>
<event>
 4    2  0.1060494E+006  0.3519195E+01  0.7546771E-02  0.2379849E+00
         22   -1    0    0    0    0  0.00000000000E+00  0.00000000000E+00  0.11131947502E+01  0.11131947502E+01  0.00000000000E+00 0. -1.
         22   -1    0    0    0    0 -0.00000000000E+00 -0.00000000000E+00 -0.13152588375E+02  0.13152588375E+02  0.00000000000E+00 0.  1.
          4    1    1    2  501    0 -0.28017091964E+01  0.21295919872E+01 -0.88200131968E+01  0.94961765592E+01  0.00000000000E+00 0.  1.
         -4    1    1    2    0  501  0.28017091964E+01 -0.21295919872E+01 -0.32193804277E+01  0.47696065657E+01  0.00000000000E+00 0. -1.
<mgrwt>
<rscale>  0 0.35191954E+01</rscale>
<asrwt>0</asrwt>
<pdfrwt beam="1">0</pdfrwt>
<pdfrwt beam="2">0</pdfrwt>
<totfact> 0.10056203E+12</totfact>
</mgrwt>
</event>
<event>
 4    2  0.1060494E+006  0.3857284E+01  0.7546771E-02  0.2305434E+00
         22   -1    0    0    0    0  0.00000000000E+00  0.00000000000E+00  0.74175364307E+01  0.74175364307E+01  0.00000000000E+00 0.  1.
         22   -1    0    0    0    0 -0.00000000000E+00 -0.00000000000E+00 -0.22608917561E+01  0.22608917561E+01  0.00000000000E+00 0. -1.
          4    1    1    2  501    0 -0.33417439711E+01 -0.19264958317E+01  0.95307044909E+00  0.39732835588E+01  0.00000000000E+00 0. -1.
         -4    1    1    2    0  501  0.33417439711E+01  0.19264958317E+01  0.42035742254E+01  0.57051446280E+01  0.00000000000E+00 0.  1.
<mgrwt>
<rscale>  0 0.38572839E+01</rscale>
<asrwt>0</asrwt>
<pdfrwt beam="1">0</pdfrwt>
<pdfrwt beam="2">0</pdfrwt>
<totfact> 0.88935636E+11</totfact>
</mgrwt>
</event>
<event>
 4    2  0.1060494E+006  0.2276741E+01  0.7546771E-02  0.2815969E+00
         22   -1    0    0    0    0  0.00000000000E+00  0.00000000000E+00  0.10440358275E+01  0.10440358275E+01  0.00000000000E+00 0.  1.
         22   -1    0    0    0    0 -0.00000000000E+00 -0.00000000000E+00 -0.58260369212E+01  0.58260369212E+01  0.00000000000E+00 0. -1.
          4    1    1    2  501    0 -0.18766319305E+01 -0.12891086388E+01 -0.37116185236E+01  0.43542692326E+01  0.00000000000E+00 0. -1.
         -4    1    1    2    0  501  0.18766319305E+01  0.12891086388E+01 -0.10703825700E+01  0.25158035161E+01  0.00000000000E+00 0.  1.
<mgrwt>
<rscale>  0 0.22767408E+01</rscale>
<asrwt>0</asrwt>
<pdfrwt beam="1">0</pdfrwt>
<pdfrwt beam="2">0</pdfrwt>
<totfact> 0.28881258E+12</totfact>
</mgrwt>
</event>
<event>
 4    2  0.1060494E+006  0.2037536E+01  0.7546771E-02  0.2955840E+00
         22   -1    0    0    0    0  0.00000000000E+00  0.00000000000E+00  0.45223507012E+02  0.45223507012E+02  0.00000000000E+00 0.  1.
         22   -1    0    0    0    0 -0.00000000000E+00 -0.00000000000E+00 -0.91999989142E-01  0.91999989142E-01  0.00000000000E+00 0. -1.
          4    1    1    2  501    0 -0.16763261654E+01  0.11582238145E+01  0.23620167966E+02  0.23707886590E+02  0.00000000000E+00 0. -1.
         -4    1    1    2    0  501  0.16763261654E+01 -0.11582238145E+01  0.21511339057E+02  0.21607620411E+02  0.00000000000E+00 0.  1.
<mgrwt>
<rscale>  0 0.20375357E+01</rscale>
<asrwt>0</asrwt>
<pdfrwt beam="1">0</pdfrwt>
<pdfrwt beam="2">0</pdfrwt>
<totfact> 0.34807647E+12</totfact>
</mgrwt>
</event>
<event>
 4    2  0.1060494E+006  0.2637922E+01  0.7546771E-02  0.2650680E+00
         22   -1    0    0    0    0  0.00000000000E+00  0.00000000000E+00  0.33745019695E+00  0.33745019695E+00  0.00000000000E+00 0.  1.
         22   -1    0    0    0    0 -0.00000000000E+00 -0.00000000000E+00 -0.20881952901E+02  0.20881952901E+02  0.00000000000E+00 0. -1.
          4    1    1    2  501    0 -0.33931495180E+00 -0.26160080296E+01 -0.90866990441E+01  0.94618566975E+01  0.00000000000E+00 0.  1.
         -4    1    1    2    0  501  0.33931495180E+00  0.26160080296E+01 -0.11457803660E+02  0.11757546400E+02  0.00000000000E+00 0. -1.
<mgrwt>
<rscale>  0 0.26379220E+01</rscale>
<asrwt>0</asrwt>
<pdfrwt beam="1">0</pdfrwt>
<pdfrwt beam="2">0</pdfrwt>
<totfact> 0.21955483E+12</totfact>
</mgrwt>
</event>
<event>
 4    2  0.1060494E+006  0.2264012E+01  0.7546771E-02  0.2822696E+00
         22   -1    0    0    0    0  0.00000000000E+00  0.00000000000E+00  0.67629904045E-01  0.67629904045E-01  0.00000000000E+00 0.  1.
         22   -1    0    0    0    0 -0.00000000000E+00 -0.00000000000E+00 -0.81890957355E+02  0.81890957355E+02  0.00000000000E+00 0. -1.
          4    1    1    2  501    0 -0.14327568343E+01 -0.17529857186E+01 -0.29727512239E+02  0.29813599833E+02  0.00000000000E+00 0.  1.
         -4    1    1    2    0  501  0.14327568343E+01  0.17529857186E+01 -0.52095815212E+02  0.52144987426E+02  0.00000000000E+00 0. -1.
<mgrwt>
<rscale>  0 0.22640122E+01</rscale>
<asrwt>0</asrwt>
<pdfrwt beam="1">0</pdfrwt>
<pdfrwt beam="2">0</pdfrwt>
<totfact> 0.22052398E+12</totfact>
</mgrwt>
</event>
<event>
 4    2  0.1060494E+006  0.2276603E+01  0.7546771E-02  0.2816041E+00
         22   -1    0    0    0    0  0.00000000000E+00  0.00000000000E+00  0.40426179228E+01  0.40426179228E+01  0.00000000000E+00 0. -1.
         22   -1    0    0    0    0 -0.00000000000E+00 -0.00000000000E+00 -0.12907653617E+01  0.12907653617E+01  0.00000000000E+00 0.  1.
          4    1    1    2  501    0 -0.22732867170E+01  0.12283097969E+00  0.15947972255E+01  0.27796219415E+01  0.00000000000E+00 0.  1.
         -4    1    1    2    0  501  0.22732867170E+01 -0.12283097969E+00  0.11570553356E+01  0.25537613430E+01  0.00000000000E+00 0. -1.
<mgrwt>
<rscale>  0 0.22766027E+01</rscale>
<asrwt>0</asrwt>
<pdfrwt beam="1">0</pdfrwt>
<pdfrwt beam="2">0</pdfrwt>
<totfact> 0.34904904E+12</totfact>
</mgrwt>
</event>
<event>
 4    2  0.1060494E+006  0.2342192E+01  0.7546771E-02  0.2782474E+00
         22   -1    0    0    0    0  0.00000000000E+00  0.00000000000E+00  0.26750659620E+01  0.26750659620E+01  0.00000000000E+00 0.  1.
         22   -1    0    0    0    0 -0.00000000000E+00 -0.00000000000E+00 -0.26488008061E+01  0.26488008061E+01  0.00000000000E+00 0. -1.
          4    1    1    2  501    0 -0.14526510426E+01  0.18372986479E+01 -0.12517367606E+01  0.26556931846E+01  0.00000000000E+00 0. -1.
         -4    1    1    2    0  501  0.14526510426E+01 -0.18372986479E+01  0.12780019164E+01  0.26681735834E+01  0.00000000000E+00 0.  1.
<mgrwt>
<rscale>  0 0.23421916E+01</rscale>
<asrwt>0</asrwt>
<pdfrwt beam="1">0</pdfrwt>
<pdfrwt beam="2">0</pdfrwt>
<totfact> 0.24663575E+12</totfact>
</mgrwt>
</event>
<event>
 4    2  0.1060494E+006  0.2137727E+01  0.7546771E-02  0.2893582E+00
         22   -1    0    0    0    0  0.00000000000E+00  0.00000000000E+00  0.18915251405E+01  0.18915251405E+01  0.00000000000E+00 0.  1.
         22   -1    0    0    0    0 -0.00000000000E+00 -0.00000000000E+00 -0.29572159577E+01  0.29572159577E+01  0.00000000000E+00 0. -1.
          4    1    1    2  501    0 -0.20826688530E+01  0.48204268724E+00 -0.15700236299E+01  0.26523289581E+01  0.00000000000E+00 0. -1.
         -4    1    1    2    0  501  0.20826688530E+01 -0.48204268724E+00  0.50433281264E+00  0.21964121401E+01  0.00000000000E+00 0.  1.
<mgrwt>
<rscale>  0 0.21377265E+01</rscale>
<asrwt>0</asrwt>
<pdfrwt beam="1">0</pdfrwt>
<pdfrwt beam="2">0</pdfrwt>
<totfact> 0.32428728E+12</totfact>
</mgrwt>
</event>
<event>
 4    2  0.1060494E+006  0.2134102E+01  0.7546771E-02  0.2895735E+00
         22   -1    0    0    0    0  0.00000000000E+00  0.00000000000E+00  0.15391697961E+01  0.15391697961E+01  0.00000000000E+00 0.  1.
         22   -1    0    0    0    0 -0.00000000000E+00 -0.00000000000E+00 -0.34829814156E+01  0.34829814156E+01  0.00000000000E+00 0. -1.
          4    1    1    2  501    0 -0.15579636544E+01 -0.14584721797E+01 -0.19458751145E+01  0.28880480967E+01  0.00000000000E+00 0. -1.
         -4    1    1    2    0  501  0.15579636544E+01  0.14584721797E+01  0.20634950413E-02  0.21341031150E+01  0.00000000000E+00 0.  1.
<mgrwt>
<rscale>  0 0.21341021E+01</rscale>
<asrwt>0</asrwt>
<pdfrwt beam="1">0</pdfrwt>
<pdfrwt beam="2">0</pdfrwt>
<totfact> 0.33966379E+12</totfact>
</mgrwt>
</event>
<event>
 4    2  0.1060494E+006  0.2328360E+01  0.7546771E-02  0.2789404E+00
         22   -1    0    0    0    0  0.00000000000E+00  0.00000000000E+00  0.27716348241E+01  0.27716348241E+01  0.00000000000E+00 0.  1.
         22   -1    0    0    0    0 -0.00000000000E+00 -0.00000000000E+00 -0.23435719064E+01  0.23435719064E+01  0.00000000000E+00 0. -1.
          4    1    1    2  501    0  0.23262046556E+01 -0.10016602630E+00 -0.82608410521E+00  0.24705619363E+01  0.00000000000E+00 0. -1.
         -4    1    1    2    0  501 -0.23262046556E+01  0.10016602630E+00  0.12541470229E+01  0.26446447942E+01  0.00000000000E+00 0.  1.
<mgrwt>
<rscale>  0 0.23283602E+01</rscale>
<asrwt>0</asrwt>
<pdfrwt beam="1">0</pdfrwt>
<pdfrwt beam="2">0</pdfrwt>
<totfact> 0.27286526E+12</totfact>
</mgrwt>
</event>
<event>
 4    2  0.1060494E+006  0.2661157E+01  0.7546771E-02  0.2641480E+00
         22   -1    0    0    0    0  0.00000000000E+00  0.00000000000E+00  0.14961902878E+03  0.14961902878E+03  0.00000000000E+00 0. -1.
         22   -1    0    0    0    0 -0.00000000000E+00 -0.00000000000E+00 -0.55563760143E-01  0.55563760143E-01  0.00000000000E+00 0.  1.
          4    1    1    2  501    0  0.26433986684E+01  0.30691995185E+00  0.10358691659E+03  0.10362109363E+03  0.00000000000E+00 0. -1.
         -4    1    1    2    0  501 -0.26433986684E+01 -0.30691995185E+00  0.45976548425E+02  0.46053498906E+02  0.00000000000E+00 0.  1.
<mgrwt>
<rscale>  0 0.26611570E+01</rscale>
<asrwt>0</asrwt>
<pdfrwt beam="1">0</pdfrwt>
<pdfrwt beam="2">0</pdfrwt>
<totfact> 0.11587534E+12</totfact>
</mgrwt>
</event>
<event>
 4    2  0.1060494E+006  0.5136416E+01  0.7546771E-02  0.2107064E+00
         22   -1    0    0    0    0  0.00000000000E+00  0.00000000000E+00  0.32983579295E+01  0.32983579295E+01  0.00000000000E+00 0. -1.
         22   -1    0    0    0    0 -0.00000000000E+00 -0.00000000000E+00 -0.88196794716E+01  0.88196794716E+01  0.00000000000E+00 0.  1.
          4    1    1    2  501    0  0.18486730912E+01 -0.47921999271E+01 -0.46091897409E+01  0.69012609288E+01  0.00000000000E+00 0.  1.
         -4    1    1    2    0  501 -0.18486730912E+01  0.47921999271E+01 -0.91213180125E+00  0.52167764723E+01  0.00000000000E+00 0. -1.
<mgrwt>
<rscale>  0 0.51364163E+01</rscale>
<asrwt>0</asrwt>
<pdfrwt beam="1">0</pdfrwt>
<pdfrwt beam="2">0</pdfrwt>
<totfact> 0.46507128E+11</totfact>
</mgrwt>
</event>
<event>
 4    2  0.1060494E+006  0.2440943E+01  0.7546771E-02  0.2735153E+00
         22   -1    0    0    0    0  0.00000000000E+00  0.00000000000E+00  0.92725839782E+00  0.92725839782E+00  0.00000000000E+00 0. -1.
         22   -1    0    0    0    0 -0.00000000000E+00 -0.00000000000E+00 -0.11067114270E+02  0.11067114270E+02  0.00000000000E+00 0.  1.
          4    1    1    2  501    0  0.13246548030E+01 -0.20502414745E+01 -0.89537537335E+01  0.92805121826E+01  0.00000000000E+00 0.  1.
         -4    1    1    2    0  501 -0.13246548030E+01  0.20502414745E+01 -0.11861021390E+01  0.27138604855E+01  0.00000000000E+00 0. -1.
<mgrwt>
<rscale>  0 0.24409425E+01</rscale>
<asrwt>0</asrwt>
<pdfrwt beam="1">0</pdfrwt>
<pdfrwt beam="2">0</pdfrwt>
<totfact> 0.15294170E+12</totfact>
</mgrwt>
</event>
<event>
 4    2  0.1060494E+006  0.2130383E+01  0.7546771E-02  0.2897952E+00
         22   -1    0    0    0    0  0.00000000000E+00  0.00000000000E+00  0.15990714192E+00  0.15990714192E+00  0.00000000000E+00 0. -1.
         22   -1    0    0    0    0 -0.00000000000E+00 -0.00000000000E+00 -0.29972721018E+02  0.29972721018E+02  0.00000000000E+00 0.  1.
          4    1    1    2  501    0  0.15819798476E+01  0.14268396214E+01 -0.18376976703E+02  0.18500048765E+02  0.00000000000E+00 0.  1.
         -4    1    1    2    0  501 -0.15819798476E+01 -0.14268396214E+01 -0.11435837173E+02  0.11632579395E+02  0.00000000000E+00 0. -1.
<mgrwt>
<rscale>  0 0.21303830E+01</rscale>
<asrwt>0</asrwt>
<pdfrwt beam="1">0</pdfrwt>
<pdfrwt beam="2">0</pdfrwt>
<totfact> 0.32062818E+12</totfact>
</mgrwt>
</event>
<event>
 4    2  0.1060494E+006  0.2174867E+01  0.7546771E-02  0.2871915E+00
         22   -1    0    0    0    0  0.00000000000E+00  0.00000000000E+00  0.69600825770E+02  0.69600825770E+02  0.00000000000E+00 0. -1.
         22   -1    0    0    0    0 -0.00000000000E+00 -0.00000000000E+00 -0.12279313561E+00  0.12279313561E+00  0.00000000000E+00 0.  1.
          4    1    1    2  501    0 -0.15805975186E+01 -0.14939076210E+01  0.11442779903E+02  0.11647628961E+02  0.00000000000E+00 0.  1.
         -4    1    1    2    0  501  0.15805975186E+01  0.14939076210E+01  0.58035252731E+02  0.58075989945E+02  0.00000000000E+00 0. -1.
<mgrwt>
<rscale>  0 0.21748675E+01</rscale>
<asrwt>0</asrwt>
<pdfrwt beam="1">0</pdfrwt>
<pdfrwt beam="2">0</pdfrwt>
<totfact> 0.14238985E+12</totfact>
</mgrwt>
</event>
<event>
 4    2  0.1060494E+006  0.2706483E+01  0.7546771E-02  0.2623951E+00
         22   -1    0    0    0    0  0.00000000000E+00  0.00000000000E+00  0.19383801610E+03  0.19383801610E+03  0.00000000000E+00 0.  1.
         22   -1    0    0    0    0 -0.00000000000E+00 -0.00000000000E+00 -0.43311526503E-01  0.43311526503E-01  0.00000000000E+00 0. -1.
          4    1    1    2  501    0  0.24921304590E+01  0.10556208420E+01  0.62283344323E+02  0.62342120831E+02  0.00000000000E+00 0. -1.
         -4    1    1    2    0  501 -0.24921304590E+01 -0.10556208420E+01  0.13151136025E+03  0.13153920680E+03  0.00000000000E+00 0.  1.
<mgrwt>
<rscale>  0 0.27064829E+01</rscale>
<asrwt>0</asrwt>
<pdfrwt beam="1">0</pdfrwt>
<pdfrwt beam="2">0</pdfrwt>
<totfact> 0.10290779E+12</totfact>
</mgrwt>
</event>
<event>
 4    2  0.1060494E+006  0.3508365E+01  0.7546771E-02  0.2382437E+00
         22   -1    0    0    0    0  0.00000000000E+00  0.00000000000E+00  0.59175686322E+02  0.59175686322E+02  0.00000000000E+00 0.  1.
         22   -1    0    0    0    0 -0.00000000000E+00 -0.00000000000E+00 -0.21032532748E+00  0.21032532748E+00  0.00000000000E+00 0. -1.
          4    1    1    2  501    0 -0.34828216631E+01 -0.42258553532E+00  0.32603870321E+02  0.32792087234E+02  0.00000000000E+00 0.  1.
         -4    1    1    2    0  501  0.34828216631E+01  0.42258553532E+00  0.26361490673E+02  0.26593924415E+02  0.00000000000E+00 0. -1.
<mgrwt>
<rscale>  0 0.35083650E+01</rscale>
<asrwt>0</asrwt>
<pdfrwt beam="1">0</pdfrwt>
<pdfrwt beam="2">0</pdfrwt>
<totfact> 0.97348253E+11</totfact>
</mgrwt>
</event>
<event>
 4    2  0.1060494E+006  0.2611991E+01  0.7546771E-02  0.2661125E+00
         22   -1    0    0    0    0  0.00000000000E+00  0.00000000000E+00  0.10679881101E+02  0.10679881101E+02  0.00000000000E+00 0.  1.
         22   -1    0    0    0    0 -0.00000000000E+00 -0.00000000000E+00 -0.70118349905E+00  0.70118349905E+00  0.00000000000E+00 0. -1.
          4    1    1    2  501    0  0.11982452059E+01 -0.23209273938E+01  0.32922356579E+01  0.42025362780E+01  0.00000000000E+00 0. -1.
         -4    1    1    2    0  501 -0.11982452059E+01  0.23209273938E+01  0.66864619438E+01  0.71785283218E+01  0.00000000000E+00 0.  1.
<mgrwt>
<rscale>  0 0.26119907E+01</rscale>
<asrwt>0</asrwt>
<pdfrwt beam="1">0</pdfrwt>
<pdfrwt beam="2">0</pdfrwt>
<totfact> 0.21948759E+12</totfact>
</mgrwt>
</event>
<event>
 4    2  0.1060494E+006  0.2031004E+01  0.7546771E-02  0.2960106E+00
         22   -1    0    0    0    0  0.00000000000E+00  0.00000000000E+00  0.21660473094E+02  0.21660473094E+02  0.00000000000E+00 0.  1.
         22   -1    0    0    0    0 -0.00000000000E+00 -0.00000000000E+00 -0.21803589841E+00  0.21803589841E+00  0.00000000000E+00 0. -1.
          4    1    1    2  501    0  0.15471682029E+01  0.13157689756E+01  0.14613118231E+02  0.14753582680E+02  0.00000000000E+00 0.  1.
         -4    1    1    2    0  501 -0.15471682029E+01 -0.13157689756E+01  0.68293189645E+01  0.71249263129E+01  0.00000000000E+00 0. -1.
<mgrwt>
<rscale>  0 0.20310040E+01</rscale>
<asrwt>0</asrwt>
<pdfrwt beam="1">0</pdfrwt>
<pdfrwt beam="2">0</pdfrwt>
<totfact> 0.34199545E+12</totfact>
</mgrwt>
</event>
<event>
 4    2  0.1060494E+006  0.2341940E+01  0.7546771E-02  0.2782600E+00
         22   -1    0    0    0    0  0.00000000000E+00  0.00000000000E+00  0.59199208323E+01  0.59199208323E+01  0.00000000000E+00 0. -1.
         22   -1    0    0    0    0 -0.00000000000E+00 -0.00000000000E+00 -0.11588976860E+01  0.11588976860E+01  0.00000000000E+00 0.  1.
          4    1    1    2  501    0 -0.20885837728E+01  0.10594802880E+01  0.79545772758E+00  0.24733446288E+01  0.00000000000E+00 0.  1.
         -4    1    1    2    0  501  0.20885837728E+01 -0.10594802880E+01  0.39655654187E+01  0.46054738894E+01  0.00000000000E+00 0. -1.
<mgrwt>
<rscale>  0 0.23419395E+01</rscale>
<asrwt>0</asrwt>
<pdfrwt beam="1">0</pdfrwt>
<pdfrwt beam="2">0</pdfrwt>
<totfact> 0.25148260E+12</totfact>
</mgrwt>
</event>
<event>
 4    2  0.1060494E+006  0.3003452E+01  0.7546771E-02  0.2521090E+00
         22   -1    0    0    0    0  0.00000000000E+00  0.00000000000E+00  0.65585465713E+01  0.65585465713E+01  0.00000000000E+00 0. -1.
         22   -1    0    0    0    0 -0.00000000000E+00 -0.00000000000E+00 -0.14957185905E+01  0.14957185905E+01  0.00000000000E+00 0.  1.
          4    1    1    2  501    0  0.30028073214E+01  0.62215371534E-01  0.36735307079E+01  0.47450553657E+01  0.00000000000E+00 0. -1.
         -4    1    1    2    0  501 -0.30028073214E+01 -0.62215371534E-01  0.13892972728E+01  0.33092097961E+01  0.00000000000E+00 0.  1.
<mgrwt>
<rscale>  0 0.30034518E+01</rscale>
<asrwt>0</asrwt>
<pdfrwt beam="1">0</pdfrwt>
<pdfrwt beam="2">0</pdfrwt>
<totfact> 0.16608272E+12</totfact>
</mgrwt>
</event>
<event>
 4    2  0.1060494E+006  0.2947034E+01  0.7546771E-02  0.2539187E+00
         22   -1    0    0    0    0  0.00000000000E+00  0.00000000000E+00  0.61791705655E+01  0.61791705655E+01  0.00000000000E+00 0. -1.
         22   -1    0    0    0    0 -0.00000000000E+00 -0.00000000000E+00 -0.15499959030E+01  0.15499959030E+01  0.00000000000E+00 0.  1.
          4    1    1    2  501    0  0.26315979011E+01  0.13265375898E+01  0.11347555344E+01  0.31579549733E+01  0.00000000000E+00 0. -1.
         -4    1    1    2    0  501 -0.26315979011E+01 -0.13265375898E+01  0.34944191282E+01  0.45712114952E+01  0.00000000000E+00 0.  1.
<mgrwt>
<rscale>  0 0.29470340E+01</rscale>
<asrwt>0</asrwt>
<pdfrwt beam="1">0</pdfrwt>
<pdfrwt beam="2">0</pdfrwt>
<totfact> 0.17114592E+12</totfact>
</mgrwt>
</event>
<event>
 4    2  0.1060494E+006  0.3713985E+01  0.7546771E-02  0.2335545E+00
         22   -1    0    0    0    0  0.00000000000E+00  0.00000000000E+00  0.38420693932E+02  0.38420693932E+02  0.00000000000E+00 0. -1.
         22   -1    0    0    0    0 -0.00000000000E+00 -0.00000000000E+00 -0.44995779641E+00  0.44995779641E+00  0.00000000000E+00 0.  1.
          4    1    1    2  501    0 -0.37137563450E+01  0.41192373395E-01  0.10247906723E+02  0.10900150238E+02  0.00000000000E+00 0. -1.
         -4    1    1    2    0  501  0.37137563450E+01 -0.41192373395E-01  0.27722829412E+02  0.27970501490E+02  0.00000000000E+00 0.  1.
<mgrwt>
<rscale>  0 0.37139848E+01</rscale>
<asrwt>0</asrwt>
<pdfrwt beam="1">0</pdfrwt>
<pdfrwt beam="2">0</pdfrwt>
<totfact> 0.73190151E+11</totfact>
</mgrwt>
</event>
<event>
 4    2  0.1060494E+006  0.2640949E+01  0.7546771E-02  0.2649473E+00
         22   -1    0    0    0    0  0.00000000000E+00  0.00000000000E+00  0.28968134657E+01  0.28968134657E+01  0.00000000000E+00 0. -1.
         22   -1    0    0    0    0 -0.00000000000E+00 -0.00000000000E+00 -0.24770148271E+01  0.24770148271E+01  0.00000000000E+00 0.  1.
          4    1    1    2  501    0 -0.25327065853E+01 -0.74833701515E+00 -0.23962502332E+00  0.26517977086E+01  0.00000000000E+00 0.  1.
         -4    1    1    2    0  501  0.25327065853E+01  0.74833701515E+00  0.65942366190E+00  0.27220305842E+01  0.00000000000E+00 0. -1.
<mgrwt>
<rscale>  0 0.26409489E+01</rscale>
<asrwt>0</asrwt>
<pdfrwt beam="1">0</pdfrwt>
<pdfrwt beam="2">0</pdfrwt>
<totfact> 0.24301192E+12</totfact>
</mgrwt>
</event>
<event>
 4    2  0.1060494E+006  0.2514200E+01  0.7546771E-02  0.2702303E+00
         22   -1    0    0    0    0  0.00000000000E+00  0.00000000000E+00  0.19818015348E+02  0.19818015348E+02  0.00000000000E+00 0.  1.
         22   -1    0    0    0    0 -0.00000000000E+00 -0.00000000000E+00 -0.32155101250E+00  0.32155101250E+00  0.00000000000E+00 0. -1.
          4    1    1    2  501    0  0.25098988266E+01 -0.14699483215E+00  0.88447122068E+01  0.91951146606E+01  0.00000000000E+00 0.  1.
         -4    1    1    2    0  501 -0.25098988266E+01  0.14699483215E+00  0.10651752129E+02  0.10944451700E+02  0.00000000000E+00 0. -1.
<mgrwt>
<rscale>  0 0.25141996E+01</rscale>
<asrwt>0</asrwt>
<pdfrwt beam="1">0</pdfrwt>
<pdfrwt beam="2">0</pdfrwt>
<totfact> 0.24740772E+12</totfact>
</mgrwt>
</event>
<event>
 4    2  0.1060494E+006  0.5734819E+01  0.7546771E-02  0.2044319E+00
         22   -1    0    0    0    0  0.00000000000E+00  0.00000000000E+00  0.19436818922E+01  0.19436818922E+01  0.00000000000E+00 0. -1.
         22   -1    0    0    0    0 -0.00000000000E+00 -0.00000000000E+00 -0.19117208257E+02  0.19117208257E+02  0.00000000000E+00 0.  1.
          4    1    1    2  501    0 -0.50007412524E+01  0.28072653129E+01 -0.12156338128E+02  0.13441157253E+02  0.00000000000E+00 0.  1.
         -4    1    1    2    0  501  0.50007412524E+01 -0.28072653129E+01 -0.50171882366E+01  0.76197328963E+01  0.00000000000E+00 0. -1.
<mgrwt>
<rscale>  0 0.57348192E+01</rscale>
<asrwt>0</asrwt>
<pdfrwt beam="1">0</pdfrwt>
<pdfrwt beam="2">0</pdfrwt>
<totfact> 0.33391085E+11</totfact>
</mgrwt>
</event>
<event>
 4    2  0.1060494E+006  0.2067837E+01  0.7546771E-02  0.2936392E+00
         22   -1    0    0    0    0  0.00000000000E+00  0.00000000000E+00  0.11617380718E+01  0.11617380718E+01  0.00000000000E+00 0.  1.
         22   -1    0    0    0    0 -0.00000000000E+00 -0.00000000000E+00 -0.42681477181E+01  0.42681477181E+01  0.00000000000E+00 0. -1.
          4    1    1    2  501    0  0.13988367083E+01  0.15228938191E+01 -0.25604716979E+01  0.32911950772E+01  0.00000000000E+00 0. -1.
         -4    1    1    2    0  501 -0.13988367083E+01 -0.15228938191E+01 -0.54593794838E+00  0.21386907126E+01  0.00000000000E+00 0.  1.
<mgrwt>
<rscale>  0 0.20678370E+01</rscale>
<asrwt>0</asrwt>
<pdfrwt beam="1">0</pdfrwt>
<pdfrwt beam="2">0</pdfrwt>
<totfact> 0.36941898E+12</totfact>
</mgrwt>
</event>
<event>
 4    2  0.1060494E+006  0.2040396E+01  0.7546771E-02  0.2953980E+00
         22   -1    0    0    0    0  0.00000000000E+00  0.00000000000E+00  0.63839122900E+01  0.63839122900E+01  0.00000000000E+00 0. -1.
         22   -1    0    0    0    0 -0.00000000000E+00 -0.00000000000E+00 -0.44091134646E+01  0.44091134646E+01  0.00000000000E+00 0.  1.
          4    1    1    2  501    0 -0.15085567174E+01  0.13738536287E+01 -0.39940592396E+01  0.44850558940E+01  0.00000000000E+00 0.  1.
         -4    1    1    2    0  501  0.15085567174E+01 -0.13738536287E+01  0.59688580650E+01  0.63079698607E+01  0.00000000000E+00 0. -1.
<mgrwt>
<rscale>  0 0.20403963E+01</rscale>
<asrwt>0</asrwt>
<pdfrwt beam="1">0</pdfrwt>
<pdfrwt beam="2">0</pdfrwt>
<totfact> 0.48708297E+11</totfact>
</mgrwt>
</event>
<event>
 4    2  0.1060494E+006  0.4293707E+01  0.7546771E-02  0.2224437E+00
         22   -1    0    0    0    0  0.00000000000E+00  0.00000000000E+00  0.11227088488E+02  0.11227088488E+02  0.00000000000E+00 0.  1.
         22   -1    0    0    0    0 -0.00000000000E+00 -0.00000000000E+00 -0.26953897454E+01  0.26953897454E+01  0.00000000000E+00 0. -1.
          4    1    1    2  501    0 -0.10787676514E+01  0.41559815569E+01 -0.85772559523E-01  0.42945639218E+01  0.00000000000E+00 0. -1.
         -4    1    1    2    0  501  0.10787676514E+01 -0.41559815569E+01  0.86174713023E+01  0.96279143117E+01  0.00000000000E+00 0.  1.
<mgrwt>
<rscale>  0 0.42937073E+01</rscale>
<asrwt>0</asrwt>
<pdfrwt beam="1">0</pdfrwt>
<pdfrwt beam="2">0</pdfrwt>
<totfact> 0.43956894E+11</totfact>
</mgrwt>
</event>
<event>
 4    2  0.1060494E+006  0.2130039E+01  0.7546771E-02  0.2898158E+00
         22   -1    0    0    0    0  0.00000000000E+00  0.00000000000E+00  0.12015368549E+00  0.12015368549E+00  0.00000000000E+00 0.  1.
         22   -1    0    0    0    0 -0.00000000000E+00 -0.00000000000E+00 -0.38238291348E+02  0.38238291348E+02  0.00000000000E+00 0. -1.
          4    1    1    2  501    0  0.18811606650E+01  0.99914915693E+00 -0.21202927704E+02  0.21309650577E+02  0.00000000000E+00 0. -1.
         -4    1    1    2    0  501 -0.18811606650E+01 -0.99914915693E+00 -0.16915209959E+02  0.17048794457E+02  0.00000000000E+00 0.  1.
<mgrwt>
<rscale>  0 0.21300386E+01</rscale>
<asrwt>0</asrwt>
<pdfrwt beam="1">0</pdfrwt>
<pdfrwt beam="2">0</pdfrwt>
<totfact> 0.32217517E+12</totfact>
</mgrwt>
</event>
<event>
 4    2  0.1060494E+006  0.2089982E+01  0.7546771E-02  0.2922527E+00
         22   -1    0    0    0    0  0.00000000000E+00  0.00000000000E+00  0.47084959331E+01  0.47084959331E+01  0.00000000000E+00 0. -1.
         22   -1    0    0    0    0 -0.00000000000E+00 -0.00000000000E+00 -0.19299090081E+01  0.19299090081E+01  0.00000000000E+00 0.  1.
          4    1    1    2  501    0  0.17020079022E+01  0.12129285246E+01 -0.10026260304E+01  0.23180348276E+01  0.00000000000E+00 0.  1.
         -4    1    1    2    0  501 -0.17020079022E+01 -0.12129285246E+01  0.37812129553E+01  0.43203701136E+01  0.00000000000E+00 0. -1.
<mgrwt>
<rscale>  0 0.20899824E+01</rscale>
<asrwt>0</asrwt>
<pdfrwt beam="1">0</pdfrwt>
<pdfrwt beam="2">0</pdfrwt>
<totfact> 0.18346239E+12</totfact>
</mgrwt>
</event>
<event>
 4    2  0.1060494E+006  0.4015455E+01  0.7546771E-02  0.2274350E+00
         22   -1    0    0    0    0  0.00000000000E+00  0.00000000000E+00  0.58444142667E+01  0.58444142667E+01  0.00000000000E+00 0.  1.
         22   -1    0    0    0    0 -0.00000000000E+00 -0.00000000000E+00 -0.52447139209E+01  0.52447139209E+01  0.00000000000E+00 0. -1.
          4    1    1    2  501    0 -0.23131600595E+01  0.32822512571E+01 -0.35173494802E+01  0.53381298356E+01  0.00000000000E+00 0. -1.
         -4    1    1    2    0  501  0.23131600595E+01 -0.32822512571E+01  0.41170498259E+01  0.57509983520E+01  0.00000000000E+00 0.  1.
<mgrwt>
<rscale>  0 0.40154555E+01</rscale>
<asrwt>0</asrwt>
<pdfrwt beam="1">0</pdfrwt>
<pdfrwt beam="2">0</pdfrwt>
<totfact> 0.44074409E+11</totfact>
</mgrwt>
</event>
<event>
 4    2  0.1060494E+006  0.2089095E+01  0.7546771E-02  0.2923077E+00
         22   -1    0    0    0    0  0.00000000000E+00  0.00000000000E+00  0.70532177371E+01  0.70532177371E+01  0.00000000000E+00 0.  1.
         22   -1    0    0    0    0 -0.00000000000E+00 -0.00000000000E+00 -0.10745632465E+01  0.10745632465E+01  0.00000000000E+00 0. -1.
          4    1    1    2  501    0 -0.12018770253E+01  0.17087453806E+01  0.34259520893E+00  0.21170003866E+01  0.00000000000E+00 0. -1.
         -4    1    1    2    0  501  0.12018770253E+01 -0.17087453806E+01  0.56360592816E+01  0.60107805970E+01  0.00000000000E+00 0.  1.
<mgrwt>
<rscale>  0 0.20890953E+01</rscale>
<asrwt>0</asrwt>
<pdfrwt beam="1">0</pdfrwt>
<pdfrwt beam="2">0</pdfrwt>
<totfact> 0.22246787E+12</totfact>
</mgrwt>
</event>
<event>
 4    2  0.1060494E+006  0.4797068E+01  0.7546771E-02  0.2148035E+00
         22   -1    0    0    0    0  0.00000000000E+00  0.00000000000E+00  0.63352147440E+02  0.63352147440E+02  0.00000000000E+00 0.  1.
         22   -1    0    0    0    0 -0.00000000000E+00 -0.00000000000E+00 -0.12206674251E+01  0.12206674251E+01  0.00000000000E+00 0. -1.
          4    1    1    2  501    0  0.39477411087E+01  0.27252885915E+01  0.40061984011E+01  0.62499186713E+01  0.00000000000E+00 0. -1.
         -4    1    1    2    0  501 -0.39477411087E+01 -0.27252885915E+01  0.58125281614E+02  0.58322896194E+02  0.00000000000E+00 0.  1.
<mgrwt>
<rscale>  0 0.47970676E+01</rscale>
<asrwt>0</asrwt>
<pdfrwt beam="1">0</pdfrwt>
<pdfrwt beam="2">0</pdfrwt>
<totfact> 0.12179006E+11</totfact>
</mgrwt>
</event>
<event>
 4    2  0.1060494E+006  0.3290928E+01  0.7546771E-02  0.2437537E+00
         22   -1    0    0    0    0  0.00000000000E+00  0.00000000000E+00  0.25119261192E+02  0.25119261192E+02  0.00000000000E+00 0. -1.
         22   -1    0    0    0    0 -0.00000000000E+00 -0.00000000000E+00 -0.49025353895E+00  0.49025353895E+00  0.00000000000E+00 0.  1.
          4    1    1    2  501    0 -0.11829615473E+01  0.30709627604E+01  0.78685826864E+01  0.85290564420E+01  0.00000000000E+00 0.  1.
         -4    1    1    2    0  501  0.11829615473E+01 -0.30709627604E+01  0.16760424966E+02  0.17080458289E+02  0.00000000000E+00 0. -1.
<mgrwt>
<rscale>  0 0.32909285E+01</rscale>
<asrwt>0</asrwt>
<pdfrwt beam="1">0</pdfrwt>
<pdfrwt beam="2">0</pdfrwt>
<totfact> 0.11433399E+12</totfact>
</mgrwt>
</event>
<event>
 4    2  0.1060494E+006  0.4350885E+01  0.7546771E-02  0.2214852E+00
         22   -1    0    0    0    0  0.00000000000E+00  0.00000000000E+00  0.23159539742E+01  0.23159539742E+01  0.00000000000E+00 0.  1.
         22   -1    0    0    0    0 -0.00000000000E+00 -0.00000000000E+00 -0.94153011734E+01  0.94153011734E+01  0.00000000000E+00 0. -1.
          4    1    1    2  501    0 -0.43171822303E+01 -0.54049683991E+00 -0.56796108866E+01  0.71545914675E+01  0.00000000000E+00 0. -1.
         -4    1    1    2    0  501  0.43171822303E+01  0.54049683991E+00 -0.14197363126E+01  0.45766636801E+01  0.00000000000E+00 0.  1.
<mgrwt>
<rscale>  0 0.43508849E+01</rscale>
<asrwt>0</asrwt>
<pdfrwt beam="1">0</pdfrwt>
<pdfrwt beam="2">0</pdfrwt>
<totfact> 0.64911198E+11</totfact>
</mgrwt>
</event>
<event>
 4    2  0.1060494E+006  0.4304151E+01  0.7546771E-02  0.2222670E+00
         22   -1    0    0    0    0  0.00000000000E+00  0.00000000000E+00  0.25178301648E+01  0.25178301648E+01  0.00000000000E+00 0. -1.
         22   -1    0    0    0    0 -0.00000000000E+00 -0.00000000000E+00 -0.73900516026E+01  0.73900516026E+01  0.00000000000E+00 0.  1.
          4    1    1    2  501    0 -0.35725931184E+01 -0.24004778699E+01 -0.27633281176E+01  0.51148507191E+01  0.00000000000E+00 0. -1.
         -4    1    1    2    0  501  0.35725931184E+01  0.24004778699E+01 -0.21088933202E+01  0.47930310483E+01  0.00000000000E+00 0.  1.
<mgrwt>
<rscale>  0 0.43041510E+01</rscale>
<asrwt>0</asrwt>
<pdfrwt beam="1">0</pdfrwt>
<pdfrwt beam="2">0</pdfrwt>
<totfact> 0.78829836E+11</totfact>
</mgrwt>
</event>
<event>
 4    2  0.1060494E+006  0.2520867E+01  0.7546771E-02  0.2699401E+00
         22   -1    0    0    0    0  0.00000000000E+00  0.00000000000E+00  0.86164771977E+00  0.86164771977E+00  0.00000000000E+00 0. -1.
         22   -1    0    0    0    0 -0.00000000000E+00 -0.00000000000E+00 -0.73860752191E+01  0.73860752191E+01  0.00000000000E+00 0.  1.
          4    1    1    2  501    0 -0.49005375854E+00 -0.24727757193E+01 -0.34208906488E+01  0.42493841054E+01  0.00000000000E+00 0.  1.
         -4    1    1    2    0  501  0.49005375854E+00  0.24727757193E+01 -0.31035368505E+01  0.39983388334E+01  0.00000000000E+00 0. -1.
<mgrwt>
<rscale>  0 0.25208674E+01</rscale>
<asrwt>0</asrwt>
<pdfrwt beam="1">0</pdfrwt>
<pdfrwt beam="2">0</pdfrwt>
<totfact> 0.27087095E+12</totfact>
</mgrwt>
</event>
<event>
 4    2  0.1060494E+006  0.2009156E+01  0.7546771E-02  0.2974574E+00
         22   -1    0    0    0    0  0.00000000000E+00  0.00000000000E+00  0.33005230196E+01  0.33005230196E+01  0.00000000000E+00 0.  1.
         22   -1    0    0    0    0 -0.00000000000E+00 -0.00000000000E+00 -0.35194850035E+01  0.35194850035E+01  0.00000000000E+00 0. -1.
          4    1    1    2  501    0 -0.13732349949E+01  0.14666055509E+01 -0.28639783871E+01  0.34984394228E+01  0.00000000000E+00 0. -1.
         -4    1    1    2    0  501  0.13732349949E+01 -0.14666055509E+01  0.26450164033E+01  0.33215686003E+01  0.00000000000E+00 0.  1.
<mgrwt>
<rscale>  0 0.20091556E+01</rscale>
<asrwt>0</asrwt>
<pdfrwt beam="1">0</pdfrwt>
<pdfrwt beam="2">0</pdfrwt>
<totfact> 0.13841830E+12</totfact>
</mgrwt>
</event>
<event>
 4    2  0.1060494E+006  0.2011934E+01  0.7546771E-02  0.2972717E+00
         22   -1    0    0    0    0  0.00000000000E+00  0.00000000000E+00  0.96190673480E+01  0.96190673480E+01  0.00000000000E+00 0. -1.
         22   -1    0    0    0    0 -0.00000000000E+00 -0.00000000000E+00 -0.42399019851E+00  0.42399019851E+00  0.00000000000E+00 0.  1.
          4    1    1    2  501    0 -0.10161047293E+01  0.17364937426E+01  0.50318680720E+01  0.54191858829E+01  0.00000000000E+00 0.  1.
         -4    1    1    2    0  501  0.10161047293E+01 -0.17364937426E+01  0.41632090775E+01  0.46238716637E+01  0.00000000000E+00 0. -1.
<mgrwt>
<rscale>  0 0.20119342E+01</rscale>
<asrwt>0</asrwt>
<pdfrwt beam="1">0</pdfrwt>
<pdfrwt beam="2">0</pdfrwt>
<totfact> 0.43999854E+12</totfact>
</mgrwt>
</event>
<event>
 4    2  0.1060494E+006  0.2870481E+01  0.7546771E-02  0.2564764E+00
         22   -1    0    0    0    0  0.00000000000E+00  0.00000000000E+00  0.13505193031E+01  0.13505193031E+01  0.00000000000E+00 0. -1.
         22   -1    0    0    0    0 -0.00000000000E+00 -0.00000000000E+00 -0.70968937917E+01  0.70968937917E+01  0.00000000000E+00 0.  1.
          4    1    1    2  501    0  0.11044194094E+01  0.26495125153E+01 -0.12910527246E+01  0.31474554704E+01  0.00000000000E+00 0.  1.
         -4    1    1    2    0  501 -0.11044194094E+01 -0.26495125153E+01 -0.44553217640E+01  0.52999576245E+01  0.00000000000E+00 0. -1.
<mgrwt>
<rscale>  0 0.28704806E+01</rscale>
<asrwt>0</asrwt>
<pdfrwt beam="1">0</pdfrwt>
<pdfrwt beam="2">0</pdfrwt>
<totfact> 0.16996191E+12</totfact>
</mgrwt>
</event>
<event>
 4    2  0.1060494E+006  0.6457517E+01  0.7546771E-02  0.1980934E+00
         22   -1    0    0    0    0  0.00000000000E+00  0.00000000000E+00  0.54744411608E+01  0.54744411608E+01  0.00000000000E+00 0. -1.
         22   -1    0    0    0    0 -0.00000000000E+00 -0.00000000000E+00 -0.13845487165E+02  0.13845487165E+02  0.00000000000E+00 0.  1.
          4    1    1    2  501    0 -0.50867811918E+01 -0.39779620907E+01 -0.10664525974E+02  0.12467222607E+02  0.00000000000E+00 0.  1.
         -4    1    1    2    0  501  0.50867811918E+01  0.39779620907E+01  0.22934799701E+01  0.68527057183E+01  0.00000000000E+00 0. -1.
<mgrwt>
<rscale>  0 0.64575170E+01</rscale>
<asrwt>0</asrwt>
<pdfrwt beam="1">0</pdfrwt>
<pdfrwt beam="2">0</pdfrwt>
<totfact> 0.14793059E+11</totfact>
</mgrwt>
</event>
<event>
 4    2  0.1060494E+006  0.2160603E+01  0.7546771E-02  0.2880152E+00
         22   -1    0    0    0    0  0.00000000000E+00  0.00000000000E+00  0.18715582760E+01  0.18715582760E+01  0.00000000000E+00 0.  1.
         22   -1    0    0    0    0 -0.00000000000E+00 -0.00000000000E+00 -0.35560874119E+01  0.35560874119E+01  0.00000000000E+00 0. -1.
          4    1    1    2  501    0  0.20584637649E+01 -0.65645288595E+00 -0.23251811665E+01  0.31740622111E+01  0.00000000000E+00 0. -1.
         -4    1    1    2    0  501 -0.20584637649E+01  0.65645288595E+00  0.64065203052E+00  0.22535834768E+01  0.00000000000E+00 0.  1.
<mgrwt>
<rscale>  0 0.21606026E+01</rscale>
<asrwt>0</asrwt>
<pdfrwt beam="1">0</pdfrwt>
<pdfrwt beam="2">0</pdfrwt>
<totfact> 0.26455736E+12</totfact>
</mgrwt>
</event>
<event>
 4    2  0.1060494E+006  0.3803106E+01  0.7546771E-02  0.2316589E+00
         22   -1    0    0    0    0  0.00000000000E+00  0.00000000000E+00  0.23711005166E+02  0.23711005166E+02  0.00000000000E+00 0. -1.
         22   -1    0    0    0    0 -0.00000000000E+00 -0.00000000000E+00 -0.61070751950E+00  0.61070751950E+00  0.00000000000E+00 0.  1.
          4    1    1    2  501    0 -0.36829073695E+01  0.94858301419E+00  0.11965260669E+02  0.12555121636E+02  0.00000000000E+00 0. -1.
         -4    1    1    2    0  501  0.36829073695E+01 -0.94858301419E+00  0.11135036978E+02  0.11766591049E+02  0.00000000000E+00 0.  1.
<mgrwt>
<rscale>  0 0.38031062E+01</rscale>
<asrwt>0</asrwt>
<pdfrwt beam="1">0</pdfrwt>
<pdfrwt beam="2">0</pdfrwt>
<totfact> 0.95907323E+11</totfact>
</mgrwt>
</event>
<event>
 4    2  0.1060494E+006  0.2547102E+01  0.7546771E-02  0.2688122E+00
         22   -1    0    0    0    0  0.00000000000E+00  0.00000000000E+00  0.12587362734E+02  0.12587362734E+02  0.00000000000E+00 0.  1.
         22   -1    0    0    0    0 -0.00000000000E+00 -0.00000000000E+00 -0.16291712287E+02  0.16291712287E+02  0.00000000000E+00 0. -1.
          4    1    1    2  501    0  0.23142829530E+01  0.10638719475E+01 -0.16061466915E+02  0.16262178470E+02  0.00000000000E+00 0. -1.
         -4    1    1    2    0  501 -0.23142829530E+01 -0.10638719475E+01  0.12357117362E+02  0.12616896552E+02  0.00000000000E+00 0.  1.
<mgrwt>
<rscale>  0 0.25471021E+01</rscale>
<asrwt>0</asrwt>
<pdfrwt beam="1">0</pdfrwt>
<pdfrwt beam="2">0</pdfrwt>
<totfact> 0.44456596E+10</totfact>
</mgrwt>
</event>
<event>
 4    2  0.1060494E+006  0.7941737E+01  0.7546771E-02  0.1879659E+00
         22   -1    0    0    0    0  0.00000000000E+00  0.00000000000E+00  0.28605598228E+02  0.28605598228E+02  0.00000000000E+00 0.  1.
         22   -1    0    0    0    0 -0.00000000000E+00 -0.00000000000E+00 -0.29046013004E+01  0.29046013004E+01  0.00000000000E+00 0. -1.
          4    1    1    2  501    0  0.41578315609E+01  0.67663594925E+01  0.51174927371E+01  0.94477466088E+01  0.00000000000E+00 0. -1.
         -4    1    1    2    0  501 -0.41578315609E+01 -0.67663594925E+01  0.20583504190E+02  0.22062452919E+02  0.00000000000E+00 0.  1.
<mgrwt>
<rscale>  0 0.79417368E+01</rscale>
<asrwt>0</asrwt>
<pdfrwt beam="1">0</pdfrwt>
<pdfrwt beam="2">0</pdfrwt>
<totfact> 0.12615271E+11</totfact>
</mgrwt>
</event>
<event>
 4    2  0.1060494E+006  0.4330646E+01  0.7546771E-02  0.2218221E+00
         22   -1    0    0    0    0  0.00000000000E+00  0.00000000000E+00  0.33453418190E+00  0.33453418190E+00  0.00000000000E+00 0. -1.
         22   -1    0    0    0    0 -0.00000000000E+00 -0.00000000000E+00 -0.12431570450E+03  0.12431570450E+03  0.00000000000E+00 0.  1.
          4    1    1    2  501    0  0.37726323922E+01 -0.21264373981E+01 -0.10817174073E+03  0.10825839452E+03  0.00000000000E+00 0.  1.
         -4    1    1    2    0  501 -0.37726323922E+01  0.21264373981E+01 -0.15809429588E+02  0.16391844163E+02  0.00000000000E+00 0. -1.
<mgrwt>
<rscale>  0 0.43306456E+01</rscale>
<asrwt>0</asrwt>
<pdfrwt beam="1">0</pdfrwt>
<pdfrwt beam="2">0</pdfrwt>
<totfact> 0.20685354E+11</totfact>
</mgrwt>
</event>
<event>
 4    2  0.1060494E+006  0.2347165E+01  0.7546771E-02  0.2780002E+00
         22   -1    0    0    0    0  0.00000000000E+00  0.00000000000E+00  0.67038107950E+01  0.67038107950E+01  0.00000000000E+00 0.  1.
         22   -1    0    0    0    0 -0.00000000000E+00 -0.00000000000E+00 -0.11238989753E+01  0.11238989753E+01  0.00000000000E+00 0. -1.
          4    1    1    2  501    0 -0.18458424549E+01 -0.14498441523E+01  0.76079399561E+00  0.24673852431E+01  0.00000000000E+00 0. -1.
         -4    1    1    2    0  501  0.18458424549E+01  0.14498441523E+01  0.48191178241E+01  0.53603245272E+01  0.00000000000E+00 0.  1.
<mgrwt>
<rscale>  0 0.23471648E+01</rscale>
<asrwt>0</asrwt>
<pdfrwt beam="1">0</pdfrwt>
<pdfrwt beam="2">0</pdfrwt>
<totfact> 0.22457838E+12</totfact>
</mgrwt>
</event>
<event>
 4    2  0.1060494E+006  0.2448650E+01  0.7546771E-02  0.2731611E+00
         22   -1    0    0    0    0  0.00000000000E+00  0.00000000000E+00  0.42710132862E+01  0.42710132862E+01  0.00000000000E+00 0. -1.
         22   -1    0    0    0    0 -0.00000000000E+00 -0.00000000000E+00 -0.24031455325E+01  0.24031455325E+01  0.00000000000E+00 0.  1.
          4    1    1    2  501    0 -0.21556253302E+01 -0.11615365140E+01 -0.12179665606E+01  0.27348364083E+01  0.00000000000E+00 0.  1.
         -4    1    1    2    0  501  0.21556253302E+01  0.11615365140E+01  0.30858343144E+01  0.39393224104E+01  0.00000000000E+00 0. -1.
<mgrwt>
<rscale>  0 0.24486502E+01</rscale>
<asrwt>0</asrwt>
<pdfrwt beam="1">0</pdfrwt>
<pdfrwt beam="2">0</pdfrwt>
<totfact> 0.15964211E+12</totfact>
</mgrwt>
</event>
<event>
 4    2  0.1060494E+006  0.3523951E+01  0.7546771E-02  0.2378717E+00
         22   -1    0    0    0    0  0.00000000000E+00  0.00000000000E+00  0.62181972100E+01  0.62181972100E+01  0.00000000000E+00 0. -1.
         22   -1    0    0    0    0 -0.00000000000E+00 -0.00000000000E+00 -0.22000775074E+01  0.22000775074E+01  0.00000000000E+00 0.  1.
          4    1    1    2  501    0  0.11602859219E+00 -0.35220399102E+01  0.73049989471E+00  0.35988689694E+01  0.00000000000E+00 0.  1.
         -4    1    1    2    0  501 -0.11602859219E+00  0.35220399102E+01  0.32876198078E+01  0.48194057480E+01  0.00000000000E+00 0. -1.
<mgrwt>
<rscale>  0 0.35239506E+01</rscale>
<asrwt>0</asrwt>
<pdfrwt beam="1">0</pdfrwt>
<pdfrwt beam="2">0</pdfrwt>
<totfact> 0.11333022E+12</totfact>
</mgrwt>
</event>
<event>
 4    2  0.1060494E+006  0.3092923E+01  0.7546771E-02  0.2493607E+00
         22   -1    0    0    0    0  0.00000000000E+00  0.00000000000E+00  0.31952180501E+02  0.31952180501E+02  0.00000000000E+00 0.  1.
         22   -1    0    0    0    0 -0.00000000000E+00 -0.00000000000E+00 -0.48221003785E+00  0.48221003785E+00  0.00000000000E+00 0. -1.
          4    1    1    2  501    0  0.14223899834E+01 -0.27464482886E+01  0.57494990001E+01  0.65286223830E+01  0.00000000000E+00 0. -1.
         -4    1    1    2    0  501 -0.14223899834E+01  0.27464482886E+01  0.25720471463E+02  0.25905768155E+02  0.00000000000E+00 0.  1.
<mgrwt>
<rscale>  0 0.30929228E+01</rscale>
<asrwt>0</asrwt>
<pdfrwt beam="1">0</pdfrwt>
<pdfrwt beam="2">0</pdfrwt>
<totfact> 0.85812265E+11</totfact>
</mgrwt>
</event>
<event>
 4    2  0.1060494E+006  0.2382828E+01  0.7546771E-02  0.2762555E+00
         22   -1    0    0    0    0  0.00000000000E+00  0.00000000000E+00  0.21526733213E+01  0.21526733213E+01  0.00000000000E+00 0.  1.
         22   -1    0    0    0    0 -0.00000000000E+00 -0.00000000000E+00 -0.26499311208E+01  0.26499311208E+01  0.00000000000E+00 0. -1.
          4    1    1    2  501    0 -0.66972250207E-01  0.23818862043E+01 -0.84748550414E-01  0.23843341816E+01  0.00000000000E+00 0. -1.
         -4    1    1    2    0  501  0.66972250207E-01 -0.23818862043E+01 -0.41250924910E+00  0.24182702606E+01  0.00000000000E+00 0.  1.
<mgrwt>
<rscale>  0 0.23828276E+01</rscale>
<asrwt>0</asrwt>
<pdfrwt beam="1">0</pdfrwt>
<pdfrwt beam="2">0</pdfrwt>
<totfact> 0.31731883E+12</totfact>
</mgrwt>
</event>
<event>
 4    2  0.1060494E+006  0.4209411E+01  0.7546771E-02  0.2238967E+00
         22   -1    0    0    0    0  0.00000000000E+00  0.00000000000E+00  0.24095245053E+01  0.24095245053E+01  0.00000000000E+00 0. -1.
         22   -1    0    0    0    0 -0.00000000000E+00 -0.00000000000E+00 -0.74747732462E+01  0.74747732462E+01  0.00000000000E+00 0.  1.
          4    1    1    2  501    0  0.45125565284E+00  0.41851534368E+01 -0.31613724066E+01  0.52643533741E+01  0.00000000000E+00 0.  1.
         -4    1    1    2    0  501 -0.45125565284E+00 -0.41851534368E+01 -0.19038763343E+01  0.46199443774E+01  0.00000000000E+00 0. -1.
<mgrwt>
<rscale>  0 0.42094110E+01</rscale>
<asrwt>0</asrwt>
<pdfrwt beam="1">0</pdfrwt>
<pdfrwt beam="2">0</pdfrwt>
<totfact> 0.81839137E+11</totfact>
</mgrwt>
</event>
<event>
 4    2  0.1060494E+006  0.2910198E+01  0.7546771E-02  0.2551343E+00
         22   -1    0    0    0    0  0.00000000000E+00  0.00000000000E+00  0.11313676401E+02  0.11313676401E+02  0.00000000000E+00 0.  1.
         22   -1    0    0    0    0 -0.00000000000E+00 -0.00000000000E+00 -0.16082023896E+01  0.16082023896E+01  0.00000000000E+00 0. -1.
          4    1    1    2  501    0 -0.48148902911E+00  0.28700906748E+01  0.12908572242E+00  0.29130594382E+01  0.00000000000E+00 0. -1.
         -4    1    1    2    0  501  0.48148902911E+00 -0.28700906748E+01  0.95763882891E+01  0.10008819352E+02  0.00000000000E+00 0.  1.
<mgrwt>
<rscale>  0 0.29101980E+01</rscale>
<asrwt>0</asrwt>
<pdfrwt beam="1">0</pdfrwt>
<pdfrwt beam="2">0</pdfrwt>
<totfact> 0.79214165E+11</totfact>
</mgrwt>
</event>
<event>
 4    2  0.1060494E+006  0.2357629E+01  0.7546771E-02  0.2774831E+00
         22   -1    0    0    0    0  0.00000000000E+00  0.00000000000E+00  0.16503374365E+02  0.16503374365E+02  0.00000000000E+00 0. -1.
         22   -1    0    0    0    0 -0.00000000000E+00 -0.00000000000E+00 -0.64505899581E+00  0.64505899581E+00  0.00000000000E+00 0.  1.
          4    1    1    2  501    0 -0.28124532388E+00 -0.23407941271E+01  0.20019626397E+01  0.30929388110E+01  0.00000000000E+00 0.  1.
         -4    1    1    2    0  501  0.28124532388E+00  0.23407941271E+01  0.13856352730E+02  0.14055494550E+02  0.00000000000E+00 0. -1.
<mgrwt>
<rscale>  0 0.23576293E+01</rscale>
<asrwt>0</asrwt>
<pdfrwt beam="1">0</pdfrwt>
<pdfrwt beam="2">0</pdfrwt>
<totfact> 0.14160141E+12</totfact>
</mgrwt>
</event>
<event>
 4    2  0.1060494E+006  0.2105934E+01  0.7546771E-02  0.2912715E+00
         22   -1    0    0    0    0  0.00000000000E+00  0.00000000000E+00  0.32143696901E+02  0.32143696901E+02  0.00000000000E+00 0.  1.
         22   -1    0    0    0    0 -0.00000000000E+00 -0.00000000000E+00 -0.18696680835E+00  0.18696680835E+00  0.00000000000E+00 0. -1.
          4    1    1    2  501    0  0.21021014332E+01  0.12699723271E+00  0.77032611012E+01  0.79859370350E+01  0.00000000000E+00 0. -1.
         -4    1    1    2    0  501 -0.21021014332E+01 -0.12699723271E+00  0.24253468991E+02  0.24344726674E+02  0.00000000000E+00 0.  1.
<mgrwt>
<rscale>  0 0.21059342E+01</rscale>
<asrwt>0</asrwt>
<pdfrwt beam="1">0</pdfrwt>
<pdfrwt beam="2">0</pdfrwt>
<totfact> 0.24637877E+12</totfact>
</mgrwt>
</event>
<event>
 4    2  0.1060494E+006  0.2650258E+01  0.7546771E-02  0.2645777E+00
         22   -1    0    0    0    0  0.00000000000E+00  0.00000000000E+00  0.11966698554E+02  0.11966698554E+02  0.00000000000E+00 0. -1.
         22   -1    0    0    0    0 -0.00000000000E+00 -0.00000000000E+00 -0.58788527363E+00  0.58788527363E+00  0.00000000000E+00 0.  1.
          4    1    1    2  501    0 -0.23236802329E+01 -0.12745112468E+01  0.59396160554E+01  0.65040685443E+01  0.00000000000E+00 0. -1.
         -4    1    1    2    0  501  0.23236802329E+01  0.12745112468E+01  0.54391972253E+01  0.60505152837E+01  0.00000000000E+00 0.  1.
<mgrwt>
<rscale>  0 0.26502582E+01</rscale>
<asrwt>0</asrwt>
<pdfrwt beam="1">0</pdfrwt>
<pdfrwt beam="2">0</pdfrwt>
<totfact> 0.23338217E+12</totfact>
</mgrwt>
</event>
<event>
 4    2  0.1060494E+006  0.2295412E+01  0.7546771E-02  0.2806229E+00
         22   -1    0    0    0    0  0.00000000000E+00  0.00000000000E+00  0.11969734599E+01  0.11969734599E+01  0.00000000000E+00 0. -1.
         22   -1    0    0    0    0 -0.00000000000E+00 -0.00000000000E+00 -0.46980117748E+01  0.46980117748E+01  0.00000000000E+00 0.  1.
          4    1    1    2  501    0 -0.18782441315E+01  0.13195124787E+01 -0.24905503481E+01  0.33869979680E+01  0.00000000000E+00 0. -1.
         -4    1    1    2    0  501  0.18782441315E+01 -0.13195124787E+01 -0.10104879668E+01  0.25079872667E+01  0.00000000000E+00 0.  1.
<mgrwt>
<rscale>  0 0.22954116E+01</rscale>
<asrwt>0</asrwt>
<pdfrwt beam="1">0</pdfrwt>
<pdfrwt beam="2">0</pdfrwt>
<totfact> 0.31877717E+12</totfact>
</mgrwt>
</event>
<event>
 4    2  0.1060494E+006  0.2575615E+01  0.7546771E-02  0.2676104E+00
         22   -1    0    0    0    0  0.00000000000E+00  0.00000000000E+00  0.31634946522E+01  0.31634946522E+01  0.00000000000E+00 0.  1.
         22   -1    0    0    0    0 -0.00000000000E+00 -0.00000000000E+00 -0.21346682519E+01  0.21346682519E+01  0.00000000000E+00 0. -1.
          4    1    1    2  501    0  0.25748543119E+01 -0.62611632253E-01  0.86639080340E+00  0.27174303981E+01  0.00000000000E+00 0.  1.
         -4    1    1    2    0  501 -0.25748543119E+01  0.62611632253E-01  0.16243559688E+00  0.25807325060E+01  0.00000000000E+00 0. -1.
<mgrwt>
<rscale>  0 0.25756154E+01</rscale>
<asrwt>0</asrwt>
<pdfrwt beam="1">0</pdfrwt>
<pdfrwt beam="2">0</pdfrwt>
<totfact> 0.26057644E+12</totfact>
</mgrwt>
</event>
<event>
 4    2  0.1060494E+006  0.2720496E+01  0.7546771E-02  0.2618640E+00
         22   -1    0    0    0    0  0.00000000000E+00  0.00000000000E+00  0.83809079532E+01  0.83809079532E+01  0.00000000000E+00 0.  1.
         22   -1    0    0    0    0 -0.00000000000E+00 -0.00000000000E+00 -0.11920774624E+01  0.11920774624E+01  0.00000000000E+00 0. -1.
          4    1    1    2  501    0 -0.52266013259E-01  0.27199937953E+01  0.60313024410E+01  0.66164724073E+01  0.00000000000E+00 0.  1.
         -4    1    1    2    0  501  0.52266013259E-01 -0.27199937953E+01  0.11575280498E+01  0.29565130083E+01  0.00000000000E+00 0. -1.
<mgrwt>
<rscale>  0 0.27204959E+01</rscale>
<asrwt>0</asrwt>
<pdfrwt beam="1">0</pdfrwt>
<pdfrwt beam="2">0</pdfrwt>
<totfact> 0.16063644E+12</totfact>
</mgrwt>
</event>
<event>
 4    2  0.1060494E+006  0.2226905E+01  0.7546771E-02  0.2842726E+00
         22   -1    0    0    0    0  0.00000000000E+00  0.00000000000E+00  0.52159093851E+02  0.52159093851E+02  0.00000000000E+00 0. -1.
         22   -1    0    0    0    0 -0.00000000000E+00 -0.00000000000E+00 -0.10672319306E+00  0.10672319306E+00  0.00000000000E+00 0.  1.
          4    1    1    2  501    0 -0.59802032197E-01  0.22261016669E+01  0.34659138043E+02  0.34730605448E+02  0.00000000000E+00 0. -1.
         -4    1    1    2    0  501  0.59802032197E-01 -0.22261016669E+01  0.17393232615E+02  0.17535211596E+02  0.00000000000E+00 0.  1.
<mgrwt>
<rscale>  0 0.22269048E+01</rscale>
<asrwt>0</asrwt>
<pdfrwt beam="1">0</pdfrwt>
<pdfrwt beam="2">0</pdfrwt>
<totfact> 0.24478722E+12</totfact>
</mgrwt>
</event>
<event>
 4    2  0.1060494E+006  0.2267037E+01  0.7546771E-02  0.2821091E+00
         22   -1    0    0    0    0  0.00000000000E+00  0.00000000000E+00  0.13779829983E+02  0.13779829983E+02  0.00000000000E+00 0.  1.
         22   -1    0    0    0    0 -0.00000000000E+00 -0.00000000000E+00 -0.54432100290E+00  0.54432100290E+00  0.00000000000E+00 0. -1.
          4    1    1    2  501    0  0.22322368015E+01  0.39569437049E+00  0.25993337106E+01  0.34490565248E+01  0.00000000000E+00 0. -1.
         -4    1    1    2    0  501 -0.22322368015E+01 -0.39569437049E+00  0.10636175269E+02  0.10875094461E+02  0.00000000000E+00 0.  1.
<mgrwt>
<rscale>  0 0.22670367E+01</rscale>
<asrwt>0</asrwt>
<pdfrwt beam="1">0</pdfrwt>
<pdfrwt beam="2">0</pdfrwt>
<totfact> 0.21427353E+12</totfact>
</mgrwt>
</event>
<event>
 4    2  0.1060494E+006  0.3770489E+01  0.7546771E-02  0.2323437E+00
         22   -1    0    0    0    0  0.00000000000E+00  0.00000000000E+00  0.24545481997E+01  0.24545481997E+01  0.00000000000E+00 0.  1.
         22   -1    0    0    0    0 -0.00000000000E+00 -0.00000000000E+00 -0.13721767167E+02  0.13721767167E+02  0.00000000000E+00 0. -1.
          4    1    1    2  501    0  0.34817464892E+01 -0.14470748584E+01 -0.11782214249E+02  0.12370818763E+02  0.00000000000E+00 0. -1.
         -4    1    1    2    0  501 -0.34817464892E+01  0.14470748584E+01  0.51499528154E+00  0.38054966038E+01  0.00000000000E+00 0.  1.
<mgrwt>
<rscale>  0 0.37704886E+01</rscale>
<asrwt>0</asrwt>
<pdfrwt beam="1">0</pdfrwt>
<pdfrwt beam="2">0</pdfrwt>
<totfact> 0.38365412E+11</totfact>
</mgrwt>
</event>
<event>
 4    2  0.1060494E+006  0.2460871E+01  0.7546771E-02  0.2726036E+00
         22   -1    0    0    0    0  0.00000000000E+00  0.00000000000E+00  0.14902357586E+02  0.14902357586E+02  0.00000000000E+00 0. -1.
         22   -1    0    0    0    0 -0.00000000000E+00 -0.00000000000E+00 -0.60323993346E+00  0.60323993346E+00  0.00000000000E+00 0.  1.
          4    1    1    2  501    0 -0.99055058914E+00  0.22527088356E+01  0.27205969266E+01  0.36684513360E+01  0.00000000000E+00 0.  1.
         -4    1    1    2    0  501  0.99055058914E+00 -0.22527088356E+01  0.11578520726E+02  0.11837146184E+02  0.00000000000E+00 0. -1.
<mgrwt>
<rscale>  0 0.24608713E+01</rscale>
<asrwt>0</asrwt>
<pdfrwt beam="1">0</pdfrwt>
<pdfrwt beam="2">0</pdfrwt>
<totfact> 0.17326038E+12</totfact>
</mgrwt>
</event>
<event>
 4    2  0.1060494E+006  0.4718454E+01  0.7546771E-02  0.2158189E+00
         22   -1    0    0    0    0  0.00000000000E+00  0.00000000000E+00  0.14009796280E+03  0.14009796280E+03  0.00000000000E+00 0.  1.
         22   -1    0    0    0    0 -0.00000000000E+00 -0.00000000000E+00 -0.15972344875E+00  0.15972344875E+00  0.00000000000E+00 0. -1.
          4    1    1    2  501    0 -0.12328442341E+00  0.47168430212E+01  0.74955336981E+02  0.75103703963E+02  0.00000000000E+00 0.  1.
         -4    1    1    2    0  501  0.12328442341E+00 -0.47168430212E+01  0.64982902369E+02  0.65153982284E+02  0.00000000000E+00 0. -1.
<mgrwt>
<rscale>  0 0.47184539E+01</rscale>
<asrwt>0</asrwt>
<pdfrwt beam="1">0</pdfrwt>
<pdfrwt beam="2">0</pdfrwt>
<totfact> 0.39701640E+11</totfact>
</mgrwt>
</event>
<event>
 4    2  0.1060494E+006  0.2133201E+01  0.7546771E-02  0.2896272E+00
         22   -1    0    0    0    0  0.00000000000E+00  0.00000000000E+00  0.20125351666E+00  0.20125351666E+00  0.00000000000E+00 0. -1.
         22   -1    0    0    0    0 -0.00000000000E+00 -0.00000000000E+00 -0.22631884216E+02  0.22631884216E+02  0.00000000000E+00 0.  1.
          4    1    1    2  501    0 -0.12629078228E+01 -0.17191892994E+01 -0.11561923483E+02  0.11757066923E+02  0.00000000000E+00 0.  1.
         -4    1    1    2    0  501  0.12629078228E+01  0.17191892994E+01 -0.10868707216E+02  0.11076070809E+02  0.00000000000E+00 0. -1.
<mgrwt>
<rscale>  0 0.21332014E+01</rscale>
<asrwt>0</asrwt>
<pdfrwt beam="1">0</pdfrwt>
<pdfrwt beam="2">0</pdfrwt>
<totfact> 0.35398191E+12</totfact>
</mgrwt>
</event>
<event>
 4    2  0.1060494E+006  0.2162405E+01  0.7546771E-02  0.2879105E+00
         22   -1    0    0    0    0  0.00000000000E+00  0.00000000000E+00  0.12328386328E+02  0.12328386328E+02  0.00000000000E+00 0.  1.
         22   -1    0    0    0    0 -0.00000000000E+00 -0.00000000000E+00 -0.43507039744E+00  0.43507039744E+00  0.00000000000E+00 0. -1.
          4    1    1    2  501    0 -0.17915855271E+01 -0.12108747208E+01  0.82317891980E+01  0.85110721822E+01  0.00000000000E+00 0.  1.
         -4    1    1    2    0  501  0.17915855271E+01  0.12108747208E+01  0.36615267324E+01  0.42523845431E+01  0.00000000000E+00 0. -1.
<mgrwt>
<rscale>  0 0.21624052E+01</rscale>
<asrwt>0</asrwt>
<pdfrwt beam="1">0</pdfrwt>
<pdfrwt beam="2">0</pdfrwt>
<totfact> 0.31617135E+12</totfact>
</mgrwt>
</event>
<event>
 4    2  0.1060494E+006  0.3267674E+01  0.7546771E-02  0.2443810E+00
         22   -1    0    0    0    0  0.00000000000E+00  0.00000000000E+00  0.10718366383E+02  0.10718366383E+02  0.00000000000E+00 0.  1.
         22   -1    0    0    0    0 -0.00000000000E+00 -0.00000000000E+00 -0.16750119580E+01  0.16750119580E+01  0.00000000000E+00 0. -1.
          4    1    1    2  501    0  0.31734258801E+01 -0.77914323947E+00  0.57688869621E+00  0.33182068308E+01  0.00000000000E+00 0. -1.
         -4    1    1    2    0  501 -0.31734258801E+01  0.77914323947E+00  0.84664657288E+01  0.90751715103E+01  0.00000000000E+00 0.  1.
<mgrwt>
<rscale>  0 0.32676744E+01</rscale>
<asrwt>0</asrwt>
<pdfrwt beam="1">0</pdfrwt>
<pdfrwt beam="2">0</pdfrwt>
<totfact> 0.80715651E+11</totfact>
</mgrwt>
</event>
<event>
 4    2  0.1060494E+006  0.2478846E+01  0.7546771E-02  0.2717930E+00
         22   -1    0    0    0    0  0.00000000000E+00  0.00000000000E+00  0.21521126462E+01  0.21521126462E+01  0.00000000000E+00 0.  1.
         22   -1    0    0    0    0 -0.00000000000E+00 -0.00000000000E+00 -0.52759540295E+01  0.52759540295E+01  0.00000000000E+00 0. -1.
          4    1    1    2  501    0 -0.22065740764E+01  0.11294723339E+01 -0.40776973992E+01  0.47720323749E+01  0.00000000000E+00 0. -1.
         -4    1    1    2    0  501  0.22065740764E+01 -0.11294723339E+01  0.95385601587E+00  0.26560343008E+01  0.00000000000E+00 0.  1.
<mgrwt>
<rscale>  0 0.24788459E+01</rscale>
<asrwt>0</asrwt>
<pdfrwt beam="1">0</pdfrwt>
<pdfrwt beam="2">0</pdfrwt>
<totfact> 0.14134026E+12</totfact>
</mgrwt>
</event>
<event>
 4    2  0.1060494E+006  0.2267903E+01  0.7546771E-02  0.2820632E+00
         22   -1    0    0    0    0  0.00000000000E+00  0.00000000000E+00  0.52948690293E+01  0.52948690293E+01  0.00000000000E+00 0. -1.
         22   -1    0    0    0    0 -0.00000000000E+00 -0.00000000000E+00 -0.98081399973E+00  0.98081399973E+00  0.00000000000E+00 0.  1.
          4    1    1    2  501    0 -0.38075391471E+00 -0.22357126810E+01  0.18494553702E+01  0.29264090456E+01  0.00000000000E+00 0. -1.
         -4    1    1    2    0  501  0.38075391471E+00  0.22357126810E+01  0.24645996594E+01  0.33492739835E+01  0.00000000000E+00 0.  1.
<mgrwt>
<rscale>  0 0.22679032E+01</rscale>
<asrwt>0</asrwt>
<pdfrwt beam="1">0</pdfrwt>
<pdfrwt beam="2">0</pdfrwt>
<totfact> 0.34746441E+12</totfact>
</mgrwt>
</event>
<event>
 4    2  0.1060494E+006  0.2770199E+01  0.7546771E-02  0.2600199E+00
         22   -1    0    0    0    0  0.00000000000E+00  0.00000000000E+00  0.74358657798E+00  0.74358657798E+00  0.00000000000E+00 0.  1.
         22   -1    0    0    0    0 -0.00000000000E+00 -0.00000000000E+00 -0.13018641012E+02  0.13018641012E+02  0.00000000000E+00 0. -1.
          4    1    1    2  501    0 -0.62189761583E+00 -0.26994895560E+01 -0.92702952111E+01  0.96753487694E+01  0.00000000000E+00 0. -1.
         -4    1    1    2    0  501  0.62189761583E+00  0.26994895560E+01 -0.30047592231E+01  0.40868788208E+01  0.00000000000E+00 0.  1.
<mgrwt>
<rscale>  0 0.27701986E+01</rscale>
<asrwt>0</asrwt>
<pdfrwt beam="1">0</pdfrwt>
<pdfrwt beam="2">0</pdfrwt>
<totfact> 0.16131005E+12</totfact>
</mgrwt>
</event>
<event>
 4    2  0.1060494E+006  0.2366411E+01  0.7546771E-02  0.2770525E+00
         22   -1    0    0    0    0  0.00000000000E+00  0.00000000000E+00  0.21208123050E+01  0.21208123050E+01  0.00000000000E+00 0. -1.
         22   -1    0    0    0    0 -0.00000000000E+00 -0.00000000000E+00 -0.43267161320E+01  0.43267161320E+01  0.00000000000E+00 0.  1.
          4    1    1    2  501    0  0.70686041383E+00  0.22583734331E+01 -0.31155030500E+01  0.39123217483E+01  0.00000000000E+00 0.  1.
         -4    1    1    2    0  501 -0.70686041383E+00 -0.22583734331E+01  0.90959922294E+00  0.25352066887E+01  0.00000000000E+00 0. -1.
<mgrwt>
<rscale>  0 0.23664113E+01</rscale>
<asrwt>0</asrwt>
<pdfrwt beam="1">0</pdfrwt>
<pdfrwt beam="2">0</pdfrwt>
<totfact> 0.18176041E+12</totfact>
</mgrwt>
</event>
<event>
 4    2  0.1060494E+006  0.2024109E+01  0.7546771E-02  0.2964639E+00
         22   -1    0    0    0    0  0.00000000000E+00  0.00000000000E+00  0.12943358631E+01  0.12943358631E+01  0.00000000000E+00 0. -1.
         22   -1    0    0    0    0 -0.00000000000E+00 -0.00000000000E+00 -0.34354291680E+01  0.34354291680E+01  0.00000000000E+00 0.  1.
          4    1    1    2  501    0  0.19855669353E+01 -0.39311497726E+00 -0.17336346843E+01  0.26650524682E+01  0.00000000000E+00 0.  1.
         -4    1    1    2    0  501 -0.19855669353E+01  0.39311497726E+00 -0.40745862060E+00  0.20647125629E+01  0.00000000000E+00 0. -1.
<mgrwt>
<rscale>  0 0.20241086E+01</rscale>
<asrwt>0</asrwt>
<pdfrwt beam="1">0</pdfrwt>
<pdfrwt beam="2">0</pdfrwt>
<totfact> 0.42121612E+12</totfact>
</mgrwt>
</event>
<event>
 4    2  0.1060494E+006  0.2181062E+01  0.7546771E-02  0.2868370E+00
         22   -1    0    0    0    0  0.00000000000E+00  0.00000000000E+00  0.47571806338E+00  0.47571806338E+00  0.00000000000E+00 0.  1.
         22   -1    0    0    0    0 -0.00000000000E+00 -0.00000000000E+00 -0.10687853142E+02  0.10687853142E+02  0.00000000000E+00 0. -1.
          4    1    1    2  501    0  0.16711095775E+01  0.14015795924E+01 -0.65224286902E+01  0.68774347393E+01  0.00000000000E+00 0. -1.
         -4    1    1    2    0  501 -0.16711095775E+01 -0.14015795924E+01 -0.36897063886E+01  0.42861364663E+01  0.00000000000E+00 0.  1.
<mgrwt>
<rscale>  0 0.21810623E+01</rscale>
<asrwt>0</asrwt>
<pdfrwt beam="1">0</pdfrwt>
<pdfrwt beam="2">0</pdfrwt>
<totfact> 0.34014905E+12</totfact>
</mgrwt>
</event>
<event>
 4    2  0.1060494E+006  0.2571067E+01  0.7546771E-02  0.2678005E+00
         22   -1    0    0    0    0  0.00000000000E+00  0.00000000000E+00  0.68802068605E+01  0.68802068605E+01  0.00000000000E+00 0.  1.
         22   -1    0    0    0    0 -0.00000000000E+00 -0.00000000000E+00 -0.96859875441E+00  0.96859875441E+00  0.00000000000E+00 0. -1.
          4    1    1    2  501    0 -0.10345910915E+01 -0.23537215908E+01  0.33083324294E+01  0.41899221374E+01  0.00000000000E+00 0.  1.
         -4    1    1    2    0  501  0.10345910915E+01  0.23537215908E+01  0.26032756767E+01  0.36588834776E+01  0.00000000000E+00 0. -1.
<mgrwt>
<rscale>  0 0.25710667E+01</rscale>
<asrwt>0</asrwt>
<pdfrwt beam="1">0</pdfrwt>
<pdfrwt beam="2">0</pdfrwt>
<totfact> 0.25805078E+12</totfact>
</mgrwt>
</event>
<event>
 4    2  0.1060494E+006  0.3381736E+01  0.7546771E-02  0.2413771E+00
         22   -1    0    0    0    0  0.00000000000E+00  0.00000000000E+00  0.23579044676E+00  0.23579044676E+00  0.00000000000E+00 0. -1.
         22   -1    0    0    0    0 -0.00000000000E+00 -0.00000000000E+00 -0.71296844591E+02  0.71296844591E+02  0.00000000000E+00 0.  1.
          4    1    1    2  501    0  0.29474233704E+01 -0.16579603788E+01 -0.55754398868E+02  0.55856862876E+02  0.00000000000E+00 0.  1.
         -4    1    1    2    0  501 -0.29474233704E+01  0.16579603788E+01 -0.15306655275E+02  0.15675772162E+02  0.00000000000E+00 0. -1.
<mgrwt>
<rscale>  0 0.33817358E+01</rscale>
<asrwt>0</asrwt>
<pdfrwt beam="1">0</pdfrwt>
<pdfrwt beam="2">0</pdfrwt>
<totfact> 0.66652240E+11</totfact>
</mgrwt>
</event>
<event>
 4    2  0.1060494E+006  0.3213630E+01  0.7546771E-02  0.2458697E+00
         22   -1    0    0    0    0  0.00000000000E+00  0.00000000000E+00  0.38971584648E+01  0.38971584648E+01  0.00000000000E+00 0. -1.
         22   -1    0    0    0    0 -0.00000000000E+00 -0.00000000000E+00 -0.27345298479E+01  0.27345298479E+01  0.00000000000E+00 0.  1.
          4    1    1    2  501    0 -0.31985247905E+01 -0.31121559762E+00 -0.17190160746E-02  0.32136301807E+01  0.00000000000E+00 0.  1.
         -4    1    1    2    0  501  0.31985247905E+01  0.31121559762E+00  0.11643476329E+01  0.34180581320E+01  0.00000000000E+00 0. -1.
<mgrwt>
<rscale>  0 0.32136297E+01</rscale>
<asrwt>0</asrwt>
<pdfrwt beam="1">0</pdfrwt>
<pdfrwt beam="2">0</pdfrwt>
<totfact> 0.15300413E+12</totfact>
</mgrwt>
</event>
<event>
 4    2  0.1060494E+006  0.2772257E+01  0.7546771E-02  0.2599448E+00
         22   -1    0    0    0    0  0.00000000000E+00  0.00000000000E+00  0.10373098881E+02  0.10373098881E+02  0.00000000000E+00 0. -1.
         22   -1    0    0    0    0 -0.00000000000E+00 -0.00000000000E+00 -0.74573582636E+00  0.74573582636E+00  0.00000000000E+00 0.  1.
          4    1    1    2  501    0  0.26834451228E+01  0.69608329876E+00  0.43659109547E+01  0.51717103699E+01  0.00000000000E+00 0.  1.
         -4    1    1    2    0  501 -0.26834451228E+01 -0.69608329876E+00  0.52614521002E+01  0.59471243377E+01  0.00000000000E+00 0. -1.
<mgrwt>
<rscale>  0 0.27722571E+01</rscale>
<asrwt>0</asrwt>
<pdfrwt beam="1">0</pdfrwt>
<pdfrwt beam="2">0</pdfrwt>
<totfact> 0.21202432E+12</totfact>
</mgrwt>
</event>
<event>
 4    2  0.1060494E+006  0.2143360E+01  0.7546771E-02  0.2890249E+00
         22   -1    0    0    0    0  0.00000000000E+00  0.00000000000E+00  0.27265133332E+00  0.27265133332E+00  0.00000000000E+00 0.  1.
         22   -1    0    0    0    0 -0.00000000000E+00 -0.00000000000E+00 -0.20711934022E+02  0.20711934022E+02  0.00000000000E+00 0. -1.
          4    1    1    2  501    0  0.35327590054E+00 -0.21140456005E+01 -0.14750704200E+02  0.14905611932E+02  0.00000000000E+00 0. -1.
         -4    1    1    2    0  501 -0.35327590054E+00  0.21140456005E+01 -0.56885784883E+01  0.60789734232E+01  0.00000000000E+00 0.  1.
<mgrwt>
<rscale>  0 0.21433601E+01</rscale>
<asrwt>0</asrwt>
<pdfrwt beam="1">0</pdfrwt>
<pdfrwt beam="2">0</pdfrwt>
<totfact> 0.28170486E+12</totfact>
</mgrwt>
</event>
<event>
 4    2  0.1060494E+006  0.2287795E+01  0.7546771E-02  0.2810184E+00
         22   -1    0    0    0    0  0.00000000000E+00  0.00000000000E+00  0.39776792746E+00  0.39776792746E+00  0.00000000000E+00 0. -1.
         22   -1    0    0    0    0 -0.00000000000E+00 -0.00000000000E+00 -0.13894209295E+02  0.13894209295E+02  0.00000000000E+00 0.  1.
          4    1    1    2  501    0  0.19068314929E+01 -0.12641199007E+01 -0.83926537018E+01  0.86988873785E+01  0.00000000000E+00 0. -1.
         -4    1    1    2    0  501 -0.19068314929E+01  0.12641199007E+01 -0.51037876658E+01  0.55930898440E+01  0.00000000000E+00 0.  1.
<mgrwt>
<rscale>  0 0.22877949E+01</rscale>
<asrwt>0</asrwt>
<pdfrwt beam="1">0</pdfrwt>
<pdfrwt beam="2">0</pdfrwt>
<totfact> 0.30216132E+12</totfact>
</mgrwt>
</event>
<event>
 4    2  0.1060494E+006  0.2046496E+01  0.7546771E-02  0.2950031E+00
         22   -1    0    0    0    0  0.00000000000E+00  0.00000000000E+00  0.11244940852E+00  0.11244940852E+00  0.00000000000E+00 0.  1.
         22   -1    0    0    0    0 -0.00000000000E+00 -0.00000000000E+00 -0.37244712024E+02  0.37244712024E+02  0.00000000000E+00 0. -1.
          4    1    1    2  501    0  0.45795960258E+00 -0.19945972617E+01 -0.18559039318E+02  0.18671531422E+02  0.00000000000E+00 0.  1.
         -4    1    1    2    0  501 -0.45795960258E+00  0.19945972617E+01 -0.18573223297E+02  0.18685630010E+02  0.00000000000E+00 0. -1.
<mgrwt>
<rscale>  0 0.20464958E+01</rscale>
<asrwt>0</asrwt>
<pdfrwt beam="1">0</pdfrwt>
<pdfrwt beam="2">0</pdfrwt>
<totfact> 0.35873213E+12</totfact>
</mgrwt>
</event>
<event>
 4    2  0.1060494E+006  0.2385049E+01  0.7546771E-02  0.2761485E+00
         22   -1    0    0    0    0  0.00000000000E+00  0.00000000000E+00  0.21922551857E+00  0.21922551857E+00  0.00000000000E+00 0.  1.
         22   -1    0    0    0    0 -0.00000000000E+00 -0.00000000000E+00 -0.25948223131E+02  0.25948223131E+02  0.00000000000E+00 0. -1.
          4    1    1    2  501    0 -0.83585789904E+00 -0.22337864024E+01 -0.12904266440E+02  0.13122825628E+02  0.00000000000E+00 0.  1.
         -4    1    1    2    0  501  0.83585789904E+00  0.22337864024E+01 -0.12824731172E+02  0.13044623021E+02  0.00000000000E+00 0. -1.
<mgrwt>
<rscale>  0 0.23850493E+01</rscale>
<asrwt>0</asrwt>
<pdfrwt beam="1">0</pdfrwt>
<pdfrwt beam="2">0</pdfrwt>
<totfact> 0.27086448E+12</totfact>
</mgrwt>
</event>
<event>
 4    2  0.1060494E+006  0.4449897E+01  0.7546771E-02  0.2198746E+00
         22   -1    0    0    0    0  0.00000000000E+00  0.00000000000E+00  0.21641444127E+01  0.21641444127E+01  0.00000000000E+00 0.  1.
         22   -1    0    0    0    0 -0.00000000000E+00 -0.00000000000E+00 -0.93643141530E+01  0.93643141530E+01  0.00000000000E+00 0. -1.
          4    1    1    2  501    0 -0.19953146094E+01 -0.39774746847E+01 -0.27277444528E+01  0.52194037071E+01  0.00000000000E+00 0.  1.
         -4    1    1    2    0  501  0.19953146094E+01  0.39774746847E+01 -0.44724252874E+01  0.63090548586E+01  0.00000000000E+00 0. -1.
<mgrwt>
<rscale>  0 0.44498972E+01</rscale>
<asrwt>0</asrwt>
<pdfrwt beam="1">0</pdfrwt>
<pdfrwt beam="2">0</pdfrwt>
<totfact> 0.70685805E+11</totfact>
</mgrwt>
</event>
<event>
 4    2  0.1060494E+006  0.3121701E+01  0.7546771E-02  0.2485066E+00
         22   -1    0    0    0    0  0.00000000000E+00  0.00000000000E+00  0.10513585382E+01  0.10513585382E+01  0.00000000000E+00 0.  1.
         22   -1    0    0    0    0 -0.00000000000E+00 -0.00000000000E+00 -0.11191512159E+02  0.11191512159E+02  0.00000000000E+00 0. -1.
          4    1    1    2  501    0 -0.27283909567E+01 -0.15168712093E+01 -0.25329258432E+01  0.40200408959E+01  0.00000000000E+00 0.  1.
         -4    1    1    2    0  501  0.27283909567E+01  0.15168712093E+01 -0.76072277773E+01  0.82228298009E+01  0.00000000000E+00 0. -1.
<mgrwt>
<rscale>  0 0.31217007E+01</rscale>
<asrwt>0</asrwt>
<pdfrwt beam="1">0</pdfrwt>
<pdfrwt beam="2">0</pdfrwt>
<totfact> 0.13072445E+12</totfact>
</mgrwt>
</event>
<event>
 4    2  0.1060494E+006  0.2727155E+01  0.7546771E-02  0.2616134E+00
         22   -1    0    0    0    0  0.00000000000E+00  0.00000000000E+00  0.94630454382E+01  0.94630454382E+01  0.00000000000E+00 0. -1.
         22   -1    0    0    0    0 -0.00000000000E+00 -0.00000000000E+00 -0.79680514718E+00  0.79680514718E+00  0.00000000000E+00 0.  1.
          4    1    1    2  501    0 -0.71157130745E+00  0.26326868763E+01  0.37340493323E+01  0.46239050953E+01  0.00000000000E+00 0.  1.
         -4    1    1    2    0  501  0.71157130745E+00 -0.26326868763E+01  0.49321909586E+01  0.56359454900E+01  0.00000000000E+00 0. -1.
<mgrwt>
<rscale>  0 0.27271549E+01</rscale>
<asrwt>0</asrwt>
<pdfrwt beam="1">0</pdfrwt>
<pdfrwt beam="2">0</pdfrwt>
<totfact> 0.21976121E+12</totfact>
</mgrwt>
</event>
<event>
 4    2  0.1060494E+006  0.2492861E+01  0.7546771E-02  0.2711686E+00
         22   -1    0    0    0    0  0.00000000000E+00  0.00000000000E+00  0.61558394418E+01  0.61558394418E+01  0.00000000000E+00 0. -1.
         22   -1    0    0    0    0 -0.00000000000E+00 -0.00000000000E+00 -0.11778729607E+01  0.11778729607E+01  0.00000000000E+00 0.  1.
          4    1    1    2  501    0 -0.20454713414E+01 -0.14249225876E+01  0.11026329540E+01  0.27258313998E+01  0.00000000000E+00 0.  1.
         -4    1    1    2    0  501  0.20454713414E+01  0.14249225876E+01  0.38753335270E+01  0.46078810027E+01  0.00000000000E+00 0. -1.
<mgrwt>
<rscale>  0 0.24928613E+01</rscale>
<asrwt>0</asrwt>
<pdfrwt beam="1">0</pdfrwt>
<pdfrwt beam="2">0</pdfrwt>
<totfact> 0.23563026E+12</totfact>
</mgrwt>
</event>
<event>
 4    2  0.1060494E+006  0.2349396E+01  0.7546771E-02  0.2778895E+00
         22   -1    0    0    0    0  0.00000000000E+00  0.00000000000E+00  0.48895724513E-01  0.48895724513E-01  0.00000000000E+00 0.  1.
         22   -1    0    0    0    0 -0.00000000000E+00 -0.00000000000E+00 -0.15036244206E+03  0.15036244206E+03  0.00000000000E+00 0. -1.
          4    1    1    2  501    0 -0.22953964835E+01 -0.50081822027E+00 -0.11270224474E+03  0.11272672990E+03  0.00000000000E+00 0. -1.
         -4    1    1    2    0  501  0.22953964835E+01  0.50081822027E+00 -0.37611301599E+02  0.37684607891E+02  0.00000000000E+00 0.  1.
<mgrwt>
<rscale>  0 0.23493965E+01</rscale>
<asrwt>0</asrwt>
<pdfrwt beam="1">0</pdfrwt>
<pdfrwt beam="2">0</pdfrwt>
<totfact> 0.13238334E+12</totfact>
</mgrwt>
</event>
<event>
 4    2  0.1060494E+006  0.2212506E+01  0.7546771E-02  0.2850671E+00
         22   -1    0    0    0    0  0.00000000000E+00  0.00000000000E+00  0.82458741466E+00  0.82458741466E+00  0.00000000000E+00 0. -1.
         22   -1    0    0    0    0 -0.00000000000E+00 -0.00000000000E+00 -0.60444094552E+01  0.60444094552E+01  0.00000000000E+00 0.  1.
          4    1    1    2  501    0 -0.56491773603E+00 -0.21391708527E+01 -0.30687553541E+01  0.37831790082E+01  0.00000000000E+00 0.  1.
         -4    1    1    2    0  501  0.56491773603E+00  0.21391708527E+01 -0.21510666865E+01  0.30858178616E+01  0.00000000000E+00 0. -1.
<mgrwt>
<rscale>  0 0.22125063E+01</rscale>
<asrwt>0</asrwt>
<pdfrwt beam="1">0</pdfrwt>
<pdfrwt beam="2">0</pdfrwt>
<totfact> 0.36180061E+12</totfact>
</mgrwt>
</event>
<event>
 4    2  0.1060494E+006  0.2747847E+01  0.7546771E-02  0.2608417E+00
         22   -1    0    0    0    0  0.00000000000E+00  0.00000000000E+00  0.45982148817E+00  0.45982148817E+00  0.00000000000E+00 0. -1.
         22   -1    0    0    0    0 -0.00000000000E+00 -0.00000000000E+00 -0.22658250007E+02  0.22658250007E+02  0.00000000000E+00 0.  1.
          4    1    1    2  501    0  0.64826743637E+00  0.26702828463E+01 -0.17163925282E+02  0.17382490968E+02  0.00000000000E+00 0.  1.
         -4    1    1    2    0  501 -0.64826743637E+00 -0.26702828463E+01 -0.50345032367E+01  0.57355805276E+01  0.00000000000E+00 0. -1.
<mgrwt>
<rscale>  0 0.27478466E+01</rscale>
<asrwt>0</asrwt>
<pdfrwt beam="1">0</pdfrwt>
<pdfrwt beam="2">0</pdfrwt>
<totfact> 0.13993239E+12</totfact>
</mgrwt>
</event>
<event>
 4    2  0.1060494E+006  0.2384820E+01  0.7546771E-02  0.2761595E+00
         22   -1    0    0    0    0  0.00000000000E+00  0.00000000000E+00  0.13802016667E+01  0.13802016667E+01  0.00000000000E+00 0. -1.
         22   -1    0    0    0    0 -0.00000000000E+00 -0.00000000000E+00 -0.11815410843E+02  0.11815410843E+02  0.00000000000E+00 0.  1.
          4    1    1    2  501    0 -0.23014816270E+01  0.62494034083E+00 -0.10542019457E+02  0.10808401471E+02  0.00000000000E+00 0.  1.
         -4    1    1    2    0  501  0.23014816270E+01 -0.62494034083E+00  0.10681028108E+00  0.23872110391E+01  0.00000000000E+00 0. -1.
<mgrwt>
<rscale>  0 0.23848204E+01</rscale>
<asrwt>0</asrwt>
<pdfrwt beam="1">0</pdfrwt>
<pdfrwt beam="2">0</pdfrwt>
<totfact> 0.89584667E+11</totfact>
</mgrwt>
</event>
<event>
 4    2  0.1060494E+006  0.2399591E+01  0.7546771E-02  0.2754523E+00
         22   -1    0    0    0    0  0.00000000000E+00  0.00000000000E+00  0.58904864572E+01  0.58904864572E+01  0.00000000000E+00 0.  1.
         22   -1    0    0    0    0 -0.00000000000E+00 -0.00000000000E+00 -0.23353871512E+01  0.23353871512E+01  0.00000000000E+00 0. -1.
          4    1    1    2  501    0  0.20977289590E+01 -0.11651476156E+01 -0.13586385631E+01  0.27575232540E+01  0.00000000000E+00 0. -1.
         -4    1    1    2    0  501 -0.20977289590E+01  0.11651476156E+01  0.49137378691E+01  0.54683503543E+01  0.00000000000E+00 0.  1.
<mgrwt>
<rscale>  0 0.23995907E+01</rscale>
<asrwt>0</asrwt>
<pdfrwt beam="1">0</pdfrwt>
<pdfrwt beam="2">0</pdfrwt>
<totfact> 0.11278276E+12</totfact>
</mgrwt>
</event>
<event>
 4    2  0.1060494E+006  0.2194836E+01  0.7546771E-02  0.2860557E+00
         22   -1    0    0    0    0  0.00000000000E+00  0.00000000000E+00  0.13287722049E+02  0.13287722049E+02  0.00000000000E+00 0.  1.
         22   -1    0    0    0    0 -0.00000000000E+00 -0.00000000000E+00 -0.44987674220E+00  0.44987674220E+00  0.00000000000E+00 0. -1.
          4    1    1    2  501    0 -0.10565250543E+01  0.19238142109E+01  0.33924473818E+01  0.40405452041E+01  0.00000000000E+00 0. -1.
         -4    1    1    2    0  501  0.10565250543E+01 -0.19238142109E+01  0.94453979245E+01  0.96970535866E+01  0.00000000000E+00 0.  1.
<mgrwt>
<rscale>  0 0.21948363E+01</rscale>
<asrwt>0</asrwt>
<pdfrwt beam="1">0</pdfrwt>
<pdfrwt beam="2">0</pdfrwt>
<totfact> 0.27781623E+12</totfact>
</mgrwt>
</event>
<event>
 4    2  0.1060494E+006  0.2966619E+01  0.7546771E-02  0.2532835E+00
         22   -1    0    0    0    0  0.00000000000E+00  0.00000000000E+00  0.43595041048E+00  0.43595041048E+00  0.00000000000E+00 0.  1.
         22   -1    0    0    0    0 -0.00000000000E+00 -0.00000000000E+00 -0.21705512072E+02  0.21705512072E+02  0.00000000000E+00 0. -1.
          4    1    1    2  501    0 -0.10090181651E+01  0.27897504796E+01 -0.13562327348E+02  0.13882994939E+02  0.00000000000E+00 0. -1.
         -4    1    1    2    0  501  0.10090181651E+01 -0.27897504796E+01 -0.77072343142E+01  0.82584675436E+01  0.00000000000E+00 0.  1.
<mgrwt>
<rscale>  0 0.29666185E+01</rscale>
<asrwt>0</asrwt>
<pdfrwt beam="1">0</pdfrwt>
<pdfrwt beam="2">0</pdfrwt>
<totfact> 0.15682242E+12</totfact>
</mgrwt>
</event>
<event>
 4    2  0.1060494E+006  0.2413012E+01  0.7546771E-02  0.2748168E+00
         22   -1    0    0    0    0  0.00000000000E+00  0.00000000000E+00  0.72431388333E+00  0.72431388333E+00  0.00000000000E+00 0.  1.
         22   -1    0    0    0    0 -0.00000000000E+00 -0.00000000000E+00 -0.16419813032E+02  0.16419813032E+02  0.00000000000E+00 0. -1.
          4    1    1    2  501    0  0.52777180377E+00 -0.23545877381E+01 -0.13971945843E+02  0.14178783345E+02  0.00000000000E+00 0. -1.
         -4    1    1    2    0  501 -0.52777180377E+00  0.23545877381E+01 -0.17235533049E+01  0.29653435700E+01  0.00000000000E+00 0.  1.
<mgrwt>
<rscale>  0 0.24130119E+01</rscale>
<asrwt>0</asrwt>
<pdfrwt beam="1">0</pdfrwt>
<pdfrwt beam="2">0</pdfrwt>
<totfact> 0.12493633E+12</totfact>
</mgrwt>
</event>
<event>
 4    2  0.1060494E+006  0.2347856E+01  0.7546771E-02  0.2779659E+00
         22   -1    0    0    0    0  0.00000000000E+00  0.00000000000E+00  0.45740015265E+01  0.45740015265E+01  0.00000000000E+00 0. -1.
         22   -1    0    0    0    0 -0.00000000000E+00 -0.00000000000E+00 -0.12059822946E+01  0.12059822946E+01  0.00000000000E+00 0.  1.
          4    1    1    2  501    0 -0.16302257840E+00 -0.23421899174E+01  0.17592094190E+01  0.29338111306E+01  0.00000000000E+00 0. -1.
         -4    1    1    2    0  501  0.16302257840E+00  0.23421899174E+01  0.16088098128E+01  0.28461726905E+01  0.00000000000E+00 0.  1.
<mgrwt>
<rscale>  0 0.23478565E+01</rscale>
<asrwt>0</asrwt>
<pdfrwt beam="1">0</pdfrwt>
<pdfrwt beam="2">0</pdfrwt>
<totfact> 0.32620105E+12</totfact>
</mgrwt>
</event>
<event>
 4    2  0.1060494E+006  0.3203200E+01  0.7546771E-02  0.2461621E+00
         22   -1    0    0    0    0  0.00000000000E+00  0.00000000000E+00  0.13994653895E+01  0.13994653895E+01  0.00000000000E+00 0. -1.
         22   -1    0    0    0    0 -0.00000000000E+00 -0.00000000000E+00 -0.43695975075E+02  0.43695975075E+02  0.00000000000E+00 0.  1.
          4    1    1    2  501    0 -0.30713464867E+01 -0.90957041304E+00 -0.41717543421E+02  0.41840338390E+02  0.00000000000E+00 0.  1.
         -4    1    1    2    0  501  0.30713464867E+01  0.90957041304E+00 -0.57896626507E+00  0.32551020742E+01  0.00000000000E+00 0. -1.
<mgrwt>
<rscale>  0 0.32031996E+01</rscale>
<asrwt>0</asrwt>
<pdfrwt beam="1">0</pdfrwt>
<pdfrwt beam="2">0</pdfrwt>
<totfact> 0.17027533E+11</totfact>
</mgrwt>
</event>
<event>
 4    2  0.1060494E+006  0.2556420E+01  0.7546771E-02  0.2684167E+00
         22   -1    0    0    0    0  0.00000000000E+00  0.00000000000E+00  0.53739886361E+00  0.53739886361E+00  0.00000000000E+00 0. -1.
         22   -1    0    0    0    0 -0.00000000000E+00 -0.00000000000E+00 -0.13825711873E+02  0.13825711873E+02  0.00000000000E+00 0.  1.
          4    1    1    2  501    0  0.11044724400E+01 -0.23055201881E+01 -0.91361696996E+01  0.94870901486E+01  0.00000000000E+00 0.  1.
         -4    1    1    2    0  501 -0.11044724400E+01  0.23055201881E+01 -0.41521433094E+01  0.48760205876E+01  0.00000000000E+00 0. -1.
<mgrwt>
<rscale>  0 0.25564199E+01</rscale>
<asrwt>0</asrwt>
<pdfrwt beam="1">0</pdfrwt>
<pdfrwt beam="2">0</pdfrwt>
<totfact> 0.21651928E+12</totfact>
</mgrwt>
</event>
<event>
 4    2  0.1060494E+006  0.2055980E+01  0.7546771E-02  0.2943936E+00
         22   -1    0    0    0    0  0.00000000000E+00  0.00000000000E+00  0.52668698809E+01  0.52668698809E+01  0.00000000000E+00 0.  1.
         22   -1    0    0    0    0 -0.00000000000E+00 -0.00000000000E+00 -0.80257978889E+00  0.80257978889E+00  0.00000000000E+00 0. -1.
          4    1    1    2  501    0 -0.38861962703E+00  0.20189175346E+01  0.22240481397E+01  0.30287692804E+01  0.00000000000E+00 0. -1.
         -4    1    1    2    0  501  0.38861962703E+00 -0.20189175346E+01  0.22402419523E+01  0.30406803894E+01  0.00000000000E+00 0.  1.
<mgrwt>
<rscale>  0 0.20559799E+01</rscale>
<asrwt>0</asrwt>
<pdfrwt beam="1">0</pdfrwt>
<pdfrwt beam="2">0</pdfrwt>
<totfact> 0.43941734E+12</totfact>
</mgrwt>
</event>
<event>
 4    2  0.1060494E+006  0.3404344E+01  0.7546771E-02  0.2408027E+00
         22   -1    0    0    0    0  0.00000000000E+00  0.00000000000E+00  0.11096399609E+01  0.11096399609E+01  0.00000000000E+00 0.  1.
         22   -1    0    0    0    0 -0.00000000000E+00 -0.00000000000E+00 -0.11954060184E+02  0.11954060184E+02  0.00000000000E+00 0. -1.
          4    1    1    2  501    0 -0.23012178514E+01  0.25087755186E+01 -0.77434156856E+01  0.84587259491E+01  0.00000000000E+00 0.  1.
         -4    1    1    2    0  501  0.23012178514E+01 -0.25087755186E+01 -0.31010045375E+01  0.46049741958E+01  0.00000000000E+00 0. -1.
<mgrwt>
<rscale>  0 0.34043440E+01</rscale>
<asrwt>0</asrwt>
<pdfrwt beam="1">0</pdfrwt>
<pdfrwt beam="2">0</pdfrwt>
<totfact> 0.11342498E+12</totfact>
</mgrwt>
</event>
<event>
 4    2  0.1060494E+006  0.2415119E+01  0.7546771E-02  0.2747177E+00
         22   -1    0    0    0    0  0.00000000000E+00  0.00000000000E+00  0.15093562511E+01  0.15093562511E+01  0.00000000000E+00 0.  1.
         22   -1    0    0    0    0 -0.00000000000E+00 -0.00000000000E+00 -0.41217082058E+01  0.41217082058E+01  0.00000000000E+00 0. -1.
          4    1    1    2  501    0  0.23948028581E+01 -0.31260001849E+00 -0.20096118988E+01  0.31418687886E+01  0.00000000000E+00 0. -1.
         -4    1    1    2    0  501 -0.23948028581E+01  0.31260001849E+00 -0.60274005586E+00  0.24891956684E+01  0.00000000000E+00 0.  1.
<mgrwt>
<rscale>  0 0.24151189E+01</rscale>
<asrwt>0</asrwt>
<pdfrwt beam="1">0</pdfrwt>
<pdfrwt beam="2">0</pdfrwt>
<totfact> 0.28504748E+12</totfact>
</mgrwt>
</event>
<event>
 4    2  0.1060494E+006  0.2469082E+01  0.7546771E-02  0.2722320E+00
         22   -1    0    0    0    0  0.00000000000E+00  0.00000000000E+00  0.11810909397E+00  0.11810909397E+00  0.00000000000E+00 0. -1.
         22   -1    0    0    0    0 -0.00000000000E+00 -0.00000000000E+00 -0.55599428731E+02  0.55599428731E+02  0.00000000000E+00 0.  1.
          4    1    1    2  501    0  0.23818838654E+01 -0.65038257383E+00 -0.35197117398E+02  0.35283614347E+02  0.00000000000E+00 0.  1.
         -4    1    1    2    0  501 -0.23818838654E+01  0.65038257383E+00 -0.20284202238E+02  0.20433923478E+02  0.00000000000E+00 0. -1.
<mgrwt>
<rscale>  0 0.24690825E+01</rscale>
<asrwt>0</asrwt>
<pdfrwt beam="1">0</pdfrwt>
<pdfrwt beam="2">0</pdfrwt>
<totfact> 0.20100701E+12</totfact>
</mgrwt>
</event>
<event>
 4    2  0.1060494E+006  0.3410480E+01  0.7546771E-02  0.2406480E+00
         22   -1    0    0    0    0  0.00000000000E+00  0.00000000000E+00  0.85196138888E+01  0.85196138888E+01  0.00000000000E+00 0. -1.
         22   -1    0    0    0    0 -0.00000000000E+00 -0.00000000000E+00 -0.17806736987E+01  0.17806736987E+01  0.00000000000E+00 0.  1.
          4    1    1    2  501    0 -0.11607727001E+01  0.32068642940E+01  0.88190348419E+00  0.35226588845E+01  0.00000000000E+00 0.  1.
         -4    1    1    2    0  501  0.11607727001E+01 -0.32068642940E+01  0.58570367059E+01  0.67776287030E+01  0.00000000000E+00 0. -1.
<mgrwt>
<rscale>  0 0.34104797E+01</rscale>
<asrwt>0</asrwt>
<pdfrwt beam="1">0</pdfrwt>
<pdfrwt beam="2">0</pdfrwt>
<totfact> 0.99276087E+11</totfact>
</mgrwt>
</event>
<event>
 4    2  0.1060494E+006  0.2361633E+01  0.7546771E-02  0.2772864E+00
         22   -1    0    0    0    0  0.00000000000E+00  0.00000000000E+00  0.71273849598E+00  0.71273849598E+00  0.00000000000E+00 0. -1.
         22   -1    0    0    0    0 -0.00000000000E+00 -0.00000000000E+00 -0.99838583055E+01  0.99838583055E+01  0.00000000000E+00 0.  1.
          4    1    1    2  501    0 -0.23466395646E+01 -0.26569001115E+00 -0.71224706057E+01  0.75037921051E+01  0.00000000000E+00 0.  1.
         -4    1    1    2    0  501  0.23466395646E+01  0.26569001115E+00 -0.21486492038E+01  0.31928046964E+01  0.00000000000E+00 0. -1.
<mgrwt>
<rscale>  0 0.23616326E+01</rscale>
<asrwt>0</asrwt>
<pdfrwt beam="1">0</pdfrwt>
<pdfrwt beam="2">0</pdfrwt>
<totfact> 0.23378912E+12</totfact>
</mgrwt>
</event>
<event>
 4    2  0.1060494E+006  0.2176294E+01  0.7546771E-02  0.2871097E+00
         22   -1    0    0    0    0  0.00000000000E+00  0.00000000000E+00  0.17635244583E+01  0.17635244583E+01  0.00000000000E+00 0.  1.
         22   -1    0    0    0    0 -0.00000000000E+00 -0.00000000000E+00 -0.43216409895E+01  0.43216409895E+01  0.00000000000E+00 0. -1.
          4    1    1    2  501    0  0.74580312203E+00 -0.20445126212E+01 -0.31510552370E+01  0.38295434795E+01  0.00000000000E+00 0. -1.
         -4    1    1    2    0  501 -0.74580312203E+00  0.20445126212E+01  0.59293870580E+00  0.22556219683E+01  0.00000000000E+00 0.  1.
<mgrwt>
<rscale>  0 0.21762937E+01</rscale>
<asrwt>0</asrwt>
<pdfrwt beam="1">0</pdfrwt>
<pdfrwt beam="2">0</pdfrwt>
<totfact> 0.22529807E+12</totfact>
</mgrwt>
</event>
<event>
 4    2  0.1060494E+006  0.2795648E+01  0.7546771E-02  0.2590988E+00
         22   -1    0    0    0    0  0.00000000000E+00  0.00000000000E+00  0.32997873691E+01  0.32997873691E+01  0.00000000000E+00 0. -1.
         22   -1    0    0    0    0 -0.00000000000E+00 -0.00000000000E+00 -0.24196242633E+01  0.24196242633E+01  0.00000000000E+00 0.  1.
          4    1    1    2  501    0  0.27642146512E+01  0.41805150626E+00  0.24527141725E-01  0.27957559408E+01  0.00000000000E+00 0. -1.
         -4    1    1    2    0  501 -0.27642146512E+01 -0.41805150626E+00  0.85563596412E+00  0.29236556916E+01  0.00000000000E+00 0.  1.
<mgrwt>
<rscale>  0 0.27956484E+01</rscale>
<asrwt>0</asrwt>
<pdfrwt beam="1">0</pdfrwt>
<pdfrwt beam="2">0</pdfrwt>
<totfact> 0.21445624E+12</totfact>
</mgrwt>
</event>
<event>
 4    2  0.1060494E+006  0.2057984E+01  0.7546771E-02  0.2942655E+00
         22   -1    0    0    0    0  0.00000000000E+00  0.00000000000E+00  0.11473276715E+01  0.11473276715E+01  0.00000000000E+00 0.  1.
         22   -1    0    0    0    0 -0.00000000000E+00 -0.00000000000E+00 -0.38858304087E+01  0.38858304087E+01  0.00000000000E+00 0. -1.
          4    1    1    2  501    0 -0.20400004199E+01 -0.27146958809E+00 -0.19321109232E+01  0.28228266100E+01  0.00000000000E+00 0.  1.
         -4    1    1    2    0  501  0.20400004199E+01  0.27146958809E+00 -0.80639181391E+00  0.22103314702E+01  0.00000000000E+00 0. -1.
<mgrwt>
<rscale>  0 0.20579838E+01</rscale>
<asrwt>0</asrwt>
<pdfrwt beam="1">0</pdfrwt>
<pdfrwt beam="2">0</pdfrwt>
<totfact> 0.41851064E+12</totfact>
</mgrwt>
</event>
<event>
 4    2  0.1060494E+006  0.2324242E+01  0.7546771E-02  0.2791482E+00
         22   -1    0    0    0    0  0.00000000000E+00  0.00000000000E+00  0.41287496972E+01  0.41287496972E+01  0.00000000000E+00 0. -1.
         22   -1    0    0    0    0 -0.00000000000E+00 -0.00000000000E+00 -0.15764383055E+01  0.15764383055E+01  0.00000000000E+00 0.  1.
          4    1    1    2  501    0  0.20861253375E+01  0.10247844848E+01  0.99929442002E-01  0.23263894896E+01  0.00000000000E+00 0.  1.
         -4    1    1    2    0  501 -0.20861253375E+01 -0.10247844848E+01  0.24523819497E+01  0.33787985130E+01  0.00000000000E+00 0. -1.
<mgrwt>
<rscale>  0 0.23242423E+01</rscale>
<asrwt>0</asrwt>
<pdfrwt beam="1">0</pdfrwt>
<pdfrwt beam="2">0</pdfrwt>
<totfact> 0.27058121E+12</totfact>
</mgrwt>
</event>
<event>
 4    2  0.1060494E+006  0.3483334E+01  0.7546771E-02  0.2388473E+00
         22   -1    0    0    0    0  0.00000000000E+00  0.00000000000E+00  0.13986112977E+00  0.13986112977E+00  0.00000000000E+00 0. -1.
         22   -1    0    0    0    0 -0.00000000000E+00 -0.00000000000E+00 -0.10410477341E+03  0.10410477341E+03  0.00000000000E+00 0.  1.
          4    1    1    2  501    0 -0.31604194087E+01  0.14647063518E+01 -0.73260837520E+02  0.73343601832E+02  0.00000000000E+00 0.  1.
         -4    1    1    2    0  501  0.31604194087E+01 -0.14647063518E+01 -0.30704074763E+02  0.30901032711E+02  0.00000000000E+00 0. -1.
<mgrwt>
<rscale>  0 0.34833340E+01</rscale>
<asrwt>0</asrwt>
<pdfrwt beam="1">0</pdfrwt>
<pdfrwt beam="2">0</pdfrwt>
<totfact> 0.70598606E+11</totfact>
</mgrwt>
</event>
<event>
 4    2  0.1060494E+006  0.2175596E+01  0.7546771E-02  0.2871496E+00
         22   -1    0    0    0    0  0.00000000000E+00  0.00000000000E+00  0.10486407005E+01  0.10486407005E+01  0.00000000000E+00 0. -1.
         22   -1    0    0    0    0 -0.00000000000E+00 -0.00000000000E+00 -0.93804827484E+01  0.93804827484E+01  0.00000000000E+00 0.  1.
          4    1    1    2  501    0 -0.20317168948E+01  0.77804016046E+00 -0.79219371920E+01  0.82152485602E+01  0.00000000000E+00 0.  1.
         -4    1    1    2    0  501  0.20317168948E+01 -0.77804016046E+00 -0.40990485584E+00  0.22138748887E+01  0.00000000000E+00 0. -1.
<mgrwt>
<rscale>  0 0.21755965E+01</rscale>
<asrwt>0</asrwt>
<pdfrwt beam="1">0</pdfrwt>
<pdfrwt beam="2">0</pdfrwt>
<totfact> 0.16237830E+12</totfact>
</mgrwt>
</event>
<event>
 4    2  0.1060494E+006  0.2226852E+01  0.7546771E-02  0.2842755E+00
         22   -1    0    0    0    0  0.00000000000E+00  0.00000000000E+00  0.48617003129E+02  0.48617003129E+02  0.00000000000E+00 0.  1.
         22   -1    0    0    0    0 -0.00000000000E+00 -0.00000000000E+00 -0.20598798126E+00  0.20598798126E+00  0.00000000000E+00 0. -1.
          4    1    1    2  501    0 -0.42553701101E+00 -0.21858153945E+01  0.68607692129E+01  0.72131147835E+01  0.00000000000E+00 0. -1.
         -4    1    1    2    0  501  0.42553701101E+00  0.21858153945E+01  0.41550245934E+02  0.41609876326E+02  0.00000000000E+00 0.  1.
<mgrwt>
<rscale>  0 0.22268522E+01</rscale>
<asrwt>0</asrwt>
<pdfrwt beam="1">0</pdfrwt>
<pdfrwt beam="2">0</pdfrwt>
<totfact> 0.12929951E+12</totfact>
</mgrwt>
</event>
<event>
 4    2  0.1060494E+006  0.3997229E+01  0.7546771E-02  0.2277824E+00
         22   -1    0    0    0    0  0.00000000000E+00  0.00000000000E+00  0.32437534251E+01  0.32437534251E+01  0.00000000000E+00 0.  1.
         22   -1    0    0    0    0 -0.00000000000E+00 -0.00000000000E+00 -0.57598294272E+02  0.57598294272E+02  0.00000000000E+00 0. -1.
          4    1    1    2  501    0 -0.39390631577E+01  0.67942787162E+00 -0.56268445398E+02  0.56410245420E+02  0.00000000000E+00 0. -1.
         -4    1    1    2    0  501  0.39390631577E+01 -0.67942787162E+00  0.19139045513E+01  0.44318022772E+01  0.00000000000E+00 0.  1.
<mgrwt>
<rscale>  0 0.39972291E+01</rscale>
<asrwt>0</asrwt>
<pdfrwt beam="1">0</pdfrwt>
<pdfrwt beam="2">0</pdfrwt>
<totfact> 0.44630345E+10</totfact>
</mgrwt>
</event>
<event>
 4    2  0.1060494E+006  0.2838339E+01  0.7546771E-02  0.2575874E+00
         22   -1    0    0    0    0  0.00000000000E+00  0.00000000000E+00  0.56188367591E+01  0.56188367591E+01  0.00000000000E+00 0. -1.
         22   -1    0    0    0    0 -0.00000000000E+00 -0.00000000000E+00 -0.21105235178E+01  0.21105235178E+01  0.00000000000E+00 0.  1.
          4    1    1    2  501    0  0.28175414189E+01  0.34296991684E+00 -0.43426477712E+00  0.28713679506E+01  0.00000000000E+00 0.  1.
         -4    1    1    2    0  501 -0.28175414189E+01 -0.34296991684E+00  0.39425780184E+01  0.48579923263E+01  0.00000000000E+00 0. -1.
<mgrwt>
<rscale>  0 0.28383390E+01</rscale>
<asrwt>0</asrwt>
<pdfrwt beam="1">0</pdfrwt>
<pdfrwt beam="2">0</pdfrwt>
<totfact> 0.13416514E+12</totfact>
</mgrwt>
</event>
<event>
 4    2  0.1060494E+006  0.2014564E+01  0.7546771E-02  0.2970964E+00
         22   -1    0    0    0    0  0.00000000000E+00  0.00000000000E+00  0.48501144743E-01  0.48501144743E-01  0.00000000000E+00 0.  1.
         22   -1    0    0    0    0 -0.00000000000E+00 -0.00000000000E+00 -0.99614513206E+02  0.99614513206E+02  0.00000000000E+00 0. -1.
          4    1    1    2  501    0  0.20107909212E+00  0.20045039510E+01 -0.69714605379E+02  0.69743707042E+02  0.00000000000E+00 0.  1.
         -4    1    1    2    0  501 -0.20107909212E+00 -0.20045039510E+01 -0.29851406682E+02  0.29919307308E+02  0.00000000000E+00 0. -1.
<mgrwt>
<rscale>  0 0.20145642E+01</rscale>
<asrwt>0</asrwt>
<pdfrwt beam="1">0</pdfrwt>
<pdfrwt beam="2">0</pdfrwt>
<totfact> 0.24206583E+12</totfact>
</mgrwt>
</event>
<event>
 4    2  0.1060494E+006  0.4340793E+01  0.7546771E-02  0.2216529E+00
         22   -1    0    0    0    0  0.00000000000E+00  0.00000000000E+00  0.37308379591E+01  0.37308379591E+01  0.00000000000E+00 0.  1.
         22   -1    0    0    0    0 -0.00000000000E+00 -0.00000000000E+00 -0.17161063293E+02  0.17161063293E+02  0.00000000000E+00 0. -1.
          4    1    1    2  501    0 -0.41261741095E+01 -0.13480243607E+01 -0.15490344423E+02  0.16087052334E+02  0.00000000000E+00 0. -1.
         -4    1    1    2    0  501  0.41261741095E+01  0.13480243607E+01  0.20601190894E+01  0.48048489176E+01  0.00000000000E+00 0.  1.
<mgrwt>
<rscale>  0 0.43407928E+01</rscale>
<asrwt>0</asrwt>
<pdfrwt beam="1">0</pdfrwt>
<pdfrwt beam="2">0</pdfrwt>
<totfact> 0.17856999E+11</totfact>
</mgrwt>
</event>
<event>
 4    2  0.1060494E+006  0.3118069E+01  0.7546771E-02  0.2486136E+00
         22   -1    0    0    0    0  0.00000000000E+00  0.00000000000E+00  0.35884953488E+01  0.35884953488E+01  0.00000000000E+00 0.  1.
         22   -1    0    0    0    0 -0.00000000000E+00 -0.00000000000E+00 -0.36713412668E+01  0.36713412668E+01  0.00000000000E+00 0. -1.
          4    1    1    2  501    0 -0.18560453317E+01  0.25054841355E+01 -0.18995633341E+01  0.36511225515E+01  0.00000000000E+00 0. -1.
         -4    1    1    2    0  501  0.18560453317E+01 -0.25054841355E+01  0.18167174161E+01  0.36087140641E+01  0.00000000000E+00 0.  1.
<mgrwt>
<rscale>  0 0.31180691E+01</rscale>
<asrwt>0</asrwt>
<pdfrwt beam="1">0</pdfrwt>
<pdfrwt beam="2">0</pdfrwt>
<totfact> 0.11943534E+12</totfact>
</mgrwt>
</event>
<event>
 4    2  0.1060494E+006  0.2165526E+01  0.7546771E-02  0.2877297E+00
         22   -1    0    0    0    0  0.00000000000E+00  0.00000000000E+00  0.10655976587E+02  0.10655976587E+02  0.00000000000E+00 0. -1.
         22   -1    0    0    0    0 -0.00000000000E+00 -0.00000000000E+00 -0.45396491341E+00  0.45396491341E+00  0.00000000000E+00 0.  1.
          4    1    1    2  501    0 -0.94092767461E+00 -0.19504248996E+01  0.60724388617E+01  0.64470160467E+01  0.00000000000E+00 0. -1.
         -4    1    1    2    0  501  0.94092767461E+00  0.19504248996E+01  0.41295728116E+01  0.46629254534E+01  0.00000000000E+00 0.  1.
<mgrwt>
<rscale>  0 0.21655258E+01</rscale>
<asrwt>0</asrwt>
<pdfrwt beam="1">0</pdfrwt>
<pdfrwt beam="2">0</pdfrwt>
<totfact> 0.35989208E+12</totfact>
</mgrwt>
</event>
<event>
 4    2  0.1060494E+006  0.2510765E+01  0.7546771E-02  0.2703803E+00
         22   -1    0    0    0    0  0.00000000000E+00  0.00000000000E+00  0.88837481886E+01  0.88837481886E+01  0.00000000000E+00 0.  1.
         22   -1    0    0    0    0 -0.00000000000E+00 -0.00000000000E+00 -0.16752183652E+01  0.16752183652E+01  0.00000000000E+00 0. -1.
          4    1    1    2  501    0  0.42710364374E+00  0.24741709461E+01 -0.40401149548E+00  0.25430620680E+01  0.00000000000E+00 0. -1.
         -4    1    1    2    0  501 -0.42710364374E+00 -0.24741709461E+01  0.76125413189E+01  0.80159044858E+01  0.00000000000E+00 0.  1.
<mgrwt>
<rscale>  0 0.25107647E+01</rscale>
<asrwt>0</asrwt>
<pdfrwt beam="1">0</pdfrwt>
<pdfrwt beam="2">0</pdfrwt>
<totfact> 0.10128057E+12</totfact>
</mgrwt>
</event>
<event>
 4    2  0.1060494E+006  0.5603367E+01  0.7546771E-02  0.2057197E+00
         22   -1    0    0    0    0  0.00000000000E+00  0.00000000000E+00  0.15845037572E+02  0.15845037572E+02  0.00000000000E+00 0.  1.
         22   -1    0    0    0    0 -0.00000000000E+00 -0.00000000000E+00 -0.22840912308E+01  0.22840912308E+01  0.00000000000E+00 0. -1.
          4    1    1    2  501    0  0.54738115485E+01  0.11979586417E+01  0.34814661155E+01  0.65968419785E+01  0.00000000000E+00 0. -1.
         -4    1    1    2    0  501 -0.54738115485E+01 -0.11979586417E+01  0.10079480225E+02  0.11532286824E+02  0.00000000000E+00 0.  1.
<mgrwt>
<rscale>  0 0.56033666E+01</rscale>
<asrwt>0</asrwt>
<pdfrwt beam="1">0</pdfrwt>
<pdfrwt beam="2">0</pdfrwt>
<totfact> 0.34947643E+11</totfact>
</mgrwt>
</event>
<event>
 4    2  0.1060494E+006  0.2004991E+01  0.7546771E-02  0.2977367E+00
         22   -1    0    0    0    0  0.00000000000E+00  0.00000000000E+00  0.12998655233E+00  0.12998655233E+00  0.00000000000E+00 0. -1.
         22   -1    0    0    0    0 -0.00000000000E+00 -0.00000000000E+00 -0.31009575143E+02  0.31009575143E+02  0.00000000000E+00 0.  1.
          4    1    1    2  501    0 -0.16591090406E+01 -0.11257648773E+01 -0.14632433125E+02  0.14769160048E+02  0.00000000000E+00 0.  1.
         -4    1    1    2    0  501  0.16591090406E+01  0.11257648773E+01 -0.16247155465E+02  0.16370401647E+02  0.00000000000E+00 0. -1.
<mgrwt>
<rscale>  0 0.20049911E+01</rscale>
<asrwt>0</asrwt>
<pdfrwt beam="1">0</pdfrwt>
<pdfrwt beam="2">0</pdfrwt>
<totfact> 0.38648129E+12</totfact>
</mgrwt>
</event>
<event>
 4    2  0.1060494E+006  0.3117799E+01  0.7546771E-02  0.2486216E+00
         22   -1    0    0    0    0  0.00000000000E+00  0.00000000000E+00  0.33750358438E+01  0.33750358438E+01  0.00000000000E+00 0. -1.
         22   -1    0    0    0    0 -0.00000000000E+00 -0.00000000000E+00 -0.41261354388E+01  0.41261354388E+01  0.00000000000E+00 0.  1.
          4    1    1    2  501    0  0.23590076956E+01 -0.20385661996E+01 -0.24365628092E+01  0.39569568839E+01  0.00000000000E+00 0. -1.
         -4    1    1    2    0  501 -0.23590076956E+01  0.20385661996E+01  0.16854632142E+01  0.35442143988E+01  0.00000000000E+00 0.  1.
<mgrwt>
<rscale>  0 0.31177988E+01</rscale>
<asrwt>0</asrwt>
<pdfrwt beam="1">0</pdfrwt>
<pdfrwt beam="2">0</pdfrwt>
<totfact> 0.11187193E+12</totfact>
</mgrwt>
</event>
<event>
 4    2  0.1060494E+006  0.2335821E+01  0.7546771E-02  0.2785656E+00
         22   -1    0    0    0    0  0.00000000000E+00  0.00000000000E+00  0.84086769930E+00  0.84086769930E+00  0.00000000000E+00 0. -1.
         22   -1    0    0    0    0 -0.00000000000E+00 -0.00000000000E+00 -0.12187033360E+02  0.12187033360E+02  0.00000000000E+00 0.  1.
          4    1    1    2  501    0 -0.69074405757E+00  0.22313523297E+01 -0.10127315532E+02  0.10393198759E+02  0.00000000000E+00 0.  1.
         -4    1    1    2    0  501  0.69074405757E+00 -0.22313523297E+01 -0.12188501289E+01  0.26347022999E+01  0.00000000000E+00 0. -1.
<mgrwt>
<rscale>  0 0.23358212E+01</rscale>
<asrwt>0</asrwt>
<pdfrwt beam="1">0</pdfrwt>
<pdfrwt beam="2">0</pdfrwt>
<totfact> 0.15203304E+12</totfact>
</mgrwt>
</event>
<event>
 4    2  0.1060494E+006  0.5726759E+01  0.7546771E-02  0.2045095E+00
         22   -1    0    0    0    0  0.00000000000E+00  0.00000000000E+00  0.14053716360E+02  0.14053716360E+02  0.00000000000E+00 0. -1.
         22   -1    0    0    0    0 -0.00000000000E+00 -0.00000000000E+00 -0.23455563289E+01  0.23455563289E+01  0.00000000000E+00 0.  1.
          4    1    1    2  501    0  0.54170047718E+01 -0.18579109564E+01  0.52686930786E+01  0.77817029355E+01  0.00000000000E+00 0. -1.
         -4    1    1    2    0  501 -0.54170047718E+01  0.18579109564E+01  0.64394669523E+01  0.86175697531E+01  0.00000000000E+00 0.  1.
<mgrwt>
<rscale>  0 0.57267595E+01</rscale>
<asrwt>0</asrwt>
<pdfrwt beam="1">0</pdfrwt>
<pdfrwt beam="2">0</pdfrwt>
<totfact> 0.39276296E+11</totfact>
</mgrwt>
</event>
<event>
 4    2  0.1060494E+006  0.2025581E+01  0.7546771E-02  0.2963669E+00
         22   -1    0    0    0    0  0.00000000000E+00  0.00000000000E+00  0.17868509296E+00  0.17868509296E+00  0.00000000000E+00 0. -1.
         22   -1    0    0    0    0 -0.00000000000E+00 -0.00000000000E+00 -0.55845167100E+02  0.55845167100E+02  0.00000000000E+00 0.  1.
          4    1    1    2  501    0  0.15311351926E+01  0.13261237339E+01 -0.49328196464E+02  0.49369767526E+02  0.00000000000E+00 0.  1.
         -4    1    1    2    0  501 -0.15311351926E+01 -0.13261237339E+01 -0.63382855427E+01  0.66540846671E+01  0.00000000000E+00 0. -1.
<mgrwt>
<rscale>  0 0.20255812E+01</rscale>
<asrwt>0</asrwt>
<pdfrwt beam="1">0</pdfrwt>
<pdfrwt beam="2">0</pdfrwt>
<totfact> 0.12611556E+12</totfact>
</mgrwt>
</event>
<event>
 4    2  0.1060494E+006  0.2010821E+01  0.7546771E-02  0.2973460E+00
         22   -1    0    0    0    0  0.00000000000E+00  0.00000000000E+00  0.50415347725E+01  0.50415347725E+01  0.00000000000E+00 0. -1.
         22   -1    0    0    0    0 -0.00000000000E+00 -0.00000000000E+00 -0.80714680427E+00  0.80714680427E+00  0.00000000000E+00 0.  1.
          4    1    1    2  501    0  0.87484580611E+00  0.18105379108E+01  0.18840894382E+01  0.27555753886E+01  0.00000000000E+00 0. -1.
         -4    1    1    2    0  501 -0.87484580611E+00 -0.18105379108E+01  0.23502985301E+01  0.30931061882E+01  0.00000000000E+00 0.  1.
<mgrwt>
<rscale>  0 0.20108214E+01</rscale>
<asrwt>0</asrwt>
<pdfrwt beam="1">0</pdfrwt>
<pdfrwt beam="2">0</pdfrwt>
<totfact> 0.45980147E+12</totfact>
</mgrwt>
</event>
<event>
 4    2  0.1060494E+006  0.2298320E+01  0.7546771E-02  0.2804726E+00
         22   -1    0    0    0    0  0.00000000000E+00  0.00000000000E+00  0.53507745590E+01  0.53507745590E+01  0.00000000000E+00 0.  1.
         22   -1    0    0    0    0 -0.00000000000E+00 -0.00000000000E+00 -0.99048172313E+00  0.99048172313E+00  0.00000000000E+00 0. -1.
          4    1    1    2  501    0 -0.22959707089E+01  0.10389609616E+00  0.19975966773E+01  0.30451056435E+01  0.00000000000E+00 0. -1.
         -4    1    1    2    0  501  0.22959707089E+01 -0.10389609616E+00  0.23626961586E+01  0.32961506386E+01  0.00000000000E+00 0.  1.
<mgrwt>
<rscale>  0 0.22983202E+01</rscale>
<asrwt>0</asrwt>
<pdfrwt beam="1">0</pdfrwt>
<pdfrwt beam="2">0</pdfrwt>
<totfact> 0.33934270E+12</totfact>
</mgrwt>
</event>
<event>
 4    2  0.1060494E+006  0.2284438E+01  0.7546771E-02  0.2811935E+00
         22   -1    0    0    0    0  0.00000000000E+00  0.00000000000E+00  0.35314487747E+01  0.35314487747E+01  0.00000000000E+00 0. -1.
         22   -1    0    0    0    0 -0.00000000000E+00 -0.00000000000E+00 -0.15045262872E+01  0.15045262872E+01  0.00000000000E+00 0.  1.
          4    1    1    2  501    0  0.15749001130E+01 -0.16547946331E+01  0.67764830125E+00  0.23828266542E+01  0.00000000000E+00 0.  1.
         -4    1    1    2    0  501 -0.15749001130E+01  0.16547946331E+01  0.13492741862E+01  0.26531484077E+01  0.00000000000E+00 0. -1.
<mgrwt>
<rscale>  0 0.22844377E+01</rscale>
<asrwt>0</asrwt>
<pdfrwt beam="1">0</pdfrwt>
<pdfrwt beam="2">0</pdfrwt>
<totfact> 0.34308571E+12</totfact>
</mgrwt>
</event>
<event>
 4    2  0.1060494E+006  0.2302125E+01  0.7546771E-02  0.2802764E+00
         22   -1    0    0    0    0  0.00000000000E+00  0.00000000000E+00  0.12414386087E+01  0.12414386087E+01  0.00000000000E+00 0.  1.
         22   -1    0    0    0    0 -0.00000000000E+00 -0.00000000000E+00 -0.75777622653E+01  0.75777622653E+01  0.00000000000E+00 0. -1.
          4    1    1    2  501    0  0.17414802242E+01  0.15056651398E+01 -0.60819456800E+01  0.65030642115E+01  0.00000000000E+00 0. -1.
         -4    1    1    2    0  501 -0.17414802242E+01 -0.15056651398E+01 -0.25437797655E+00  0.23161366625E+01  0.00000000000E+00 0.  1.
<mgrwt>
<rscale>  0 0.23021253E+01</rscale>
<asrwt>0</asrwt>
<pdfrwt beam="1">0</pdfrwt>
<pdfrwt beam="2">0</pdfrwt>
<totfact> 0.17305760E+12</totfact>
</mgrwt>
</event>
<event>
 4    2  0.1060494E+006  0.2108725E+01  0.7546771E-02  0.2911013E+00
         22   -1    0    0    0    0  0.00000000000E+00  0.00000000000E+00  0.90793984917E+01  0.90793984917E+01  0.00000000000E+00 0. -1.
         22   -1    0    0    0    0 -0.00000000000E+00 -0.00000000000E+00 -0.15785102426E+01  0.15785102426E+01  0.00000000000E+00 0.  1.
          4    1    1    2  501    0 -0.18508837561E+01 -0.10104205452E+01 -0.67526187244E+00  0.22142039095E+01  0.00000000000E+00 0.  1.
         -4    1    1    2    0  501  0.18508837561E+01  0.10104205452E+01  0.81761501216E+01  0.84437048247E+01  0.00000000000E+00 0. -1.
<mgrwt>
<rscale>  0 0.21087248E+01</rscale>
<asrwt>0</asrwt>
<pdfrwt beam="1">0</pdfrwt>
<pdfrwt beam="2">0</pdfrwt>
<totfact> 0.10564462E+12</totfact>
</mgrwt>
</event>
<event>
 4    2  0.1060494E+006  0.2076843E+01  0.7546771E-02  0.2930719E+00
         22   -1    0    0    0    0  0.00000000000E+00  0.00000000000E+00  0.16892110455E+01  0.16892110455E+01  0.00000000000E+00 0.  1.
         22   -1    0    0    0    0 -0.00000000000E+00 -0.00000000000E+00 -0.49513104230E+01  0.49513104230E+01  0.00000000000E+00 0. -1.
          4    1    1    2  501    0  0.15679888973E+01  0.13618696768E+01 -0.39416566910E+01  0.44553266624E+01  0.00000000000E+00 0. -1.
         -4    1    1    2    0  501 -0.15679888973E+01 -0.13618696768E+01  0.67955731340E+00  0.21851948062E+01  0.00000000000E+00 0.  1.
<mgrwt>
<rscale>  0 0.20768433E+01</rscale>
<asrwt>0</asrwt>
<pdfrwt beam="1">0</pdfrwt>
<pdfrwt beam="2">0</pdfrwt>
<totfact> 0.20161966E+12</totfact>
</mgrwt>
</event>
<event>
 4    2  0.1060494E+006  0.2081004E+01  0.7546771E-02  0.2928114E+00
         22   -1    0    0    0    0  0.00000000000E+00  0.00000000000E+00  0.61916187830E+00  0.61916187830E+00  0.00000000000E+00 0. -1.
         22   -1    0    0    0    0 -0.00000000000E+00 -0.00000000000E+00 -0.13589630277E+02  0.13589630277E+02  0.00000000000E+00 0.  1.
          4    1    1    2  501    0  0.19519347476E+01  0.72147665062E+00 -0.11434525410E+02  0.11622346973E+02  0.00000000000E+00 0.  1.
         -4    1    1    2    0  501 -0.19519347476E+01 -0.72147665062E+00 -0.15359429894E+01  0.25864451826E+01  0.00000000000E+00 0. -1.
<mgrwt>
<rscale>  0 0.20810040E+01</rscale>
<asrwt>0</asrwt>
<pdfrwt beam="1">0</pdfrwt>
<pdfrwt beam="2">0</pdfrwt>
<totfact> 0.18837610E+12</totfact>
</mgrwt>
</event>
<event>
 4    2  0.1060494E+006  0.2161696E+01  0.7546771E-02  0.2879516E+00
         22   -1    0    0    0    0  0.00000000000E+00  0.00000000000E+00  0.53167831660E+02  0.53167831660E+02  0.00000000000E+00 0.  1.
         22   -1    0    0    0    0 -0.00000000000E+00 -0.00000000000E+00 -0.20731145387E+01  0.20731145387E+01  0.00000000000E+00 0. -1.
          4    1    1    2  501    0 -0.53095604836E+00  0.20954750744E+01 -0.14812857135E+01  0.26205223674E+01  0.00000000000E+00 0. -1.
         -4    1    1    2    0  501  0.53095604836E+00 -0.20954750744E+01  0.52576002835E+02  0.52620423831E+02  0.00000000000E+00 0.  1.
<mgrwt>
<rscale>  0 0.21616961E+01</rscale>
<asrwt>0</asrwt>
<pdfrwt beam="1">0</pdfrwt>
<pdfrwt beam="2">0</pdfrwt>
<totfact> 0.83589905E+10</totfact>
</mgrwt>
</event>
<event>
 4    2  0.1060494E+006  0.2578589E+01  0.7546771E-02  0.2674865E+00
         22   -1    0    0    0    0  0.00000000000E+00  0.00000000000E+00  0.66364274578E+01  0.66364274578E+01  0.00000000000E+00 0. -1.
         22   -1    0    0    0    0 -0.00000000000E+00 -0.00000000000E+00 -0.27029502250E+01  0.27029502250E+01  0.00000000000E+00 0.  1.
          4    1    1    2  501    0 -0.18335986849E+01  0.18130193761E+01 -0.17377291390E+01  0.31094735818E+01  0.00000000000E+00 0.  1.
         -4    1    1    2    0  501  0.18335986849E+01 -0.18130193761E+01  0.56712063718E+01  0.62299041010E+01  0.00000000000E+00 0. -1.
<mgrwt>
<rscale>  0 0.25785894E+01</rscale>
<asrwt>0</asrwt>
<pdfrwt beam="1">0</pdfrwt>
<pdfrwt beam="2">0</pdfrwt>
<totfact> 0.82543322E+11</totfact>
</mgrwt>
</event>
<event>
 4    2  0.1060494E+006  0.3682425E+01  0.7546771E-02  0.2342447E+00
         22   -1    0    0    0    0  0.00000000000E+00  0.00000000000E+00  0.17051214811E+01  0.17051214811E+01  0.00000000000E+00 0.  1.
         22   -1    0    0    0    0 -0.00000000000E+00 -0.00000000000E+00 -0.15709144219E+02  0.15709144219E+02  0.00000000000E+00 0. -1.
          4    1    1    2  501    0 -0.20864184073E+01 -0.30343226636E+01 -0.13120318748E+02  0.13627289527E+02  0.00000000000E+00 0. -1.
         -4    1    1    2    0  501  0.20864184073E+01  0.30343226636E+01 -0.88370399012E+00  0.37869761736E+01  0.00000000000E+00 0.  1.
<mgrwt>
<rscale>  0 0.36824253E+01</rscale>
<asrwt>0</asrwt>
<pdfrwt beam="1">0</pdfrwt>
<pdfrwt beam="2">0</pdfrwt>
<totfact> 0.49538167E+11</totfact>
</mgrwt>
</event>
<event>
 4    2  0.1060494E+006  0.2276343E+01  0.7546771E-02  0.2816178E+00
         22   -1    0    0    0    0  0.00000000000E+00  0.00000000000E+00  0.83747590461E+01  0.83747590461E+01  0.00000000000E+00 0.  1.
         22   -1    0    0    0    0 -0.00000000000E+00 -0.00000000000E+00 -0.16306360546E+01  0.16306360546E+01  0.00000000000E+00 0. -1.
          4    1    1    2  501    0  0.21371875003E+01 -0.78368698877E+00 -0.56883732706E+00  0.23463400462E+01  0.00000000000E+00 0. -1.
         -4    1    1    2    0  501 -0.21371875003E+01  0.78368698877E+00  0.73129603185E+01  0.76590550545E+01  0.00000000000E+00 0.  1.
<mgrwt>
<rscale>  0 0.22763426E+01</rscale>
<asrwt>0</asrwt>
<pdfrwt beam="1">0</pdfrwt>
<pdfrwt beam="2">0</pdfrwt>
<totfact> 0.11217182E+12</totfact>
</mgrwt>
</event>
<event>
 4    2  0.1060494E+006  0.3274964E+01  0.7546771E-02  0.2441835E+00
         22   -1    0    0    0    0  0.00000000000E+00  0.00000000000E+00  0.30142242733E+01  0.30142242733E+01  0.00000000000E+00 0. -1.
         22   -1    0    0    0    0 -0.00000000000E+00 -0.00000000000E+00 -0.44077975065E+01  0.44077975065E+01  0.00000000000E+00 0.  1.
          4    1    1    2  501    0 -0.24653687285E+01 -0.21557707887E+01  0.93240791844E+00  0.34051101579E+01  0.00000000000E+00 0. -1.
         -4    1    1    2    0  501  0.24653687285E+01  0.21557707887E+01 -0.23259811517E+01  0.40169116220E+01  0.00000000000E+00 0.  1.
<mgrwt>
<rscale>  0 0.32749642E+01</rscale>
<asrwt>0</asrwt>
<pdfrwt beam="1">0</pdfrwt>
<pdfrwt beam="2">0</pdfrwt>
<totfact> 0.11813123E+12</totfact>
</mgrwt>
</event>
<event>
 4    2  0.1060494E+006  0.2090952E+01  0.7546771E-02  0.2921926E+00
         22   -1    0    0    0    0  0.00000000000E+00  0.00000000000E+00  0.22980348929E+02  0.22980348929E+02  0.00000000000E+00 0.  1.
         22   -1    0    0    0    0 -0.00000000000E+00 -0.00000000000E+00 -0.50144747300E+00  0.50144747300E+00  0.00000000000E+00 0. -1.
          4    1    1    2  501    0 -0.26415109576E-01  0.20907851926E+01  0.19902430329E+01  0.28867192121E+01  0.00000000000E+00 0. -1.
         -4    1    1    2    0  501  0.26415109576E-01 -0.20907851926E+01  0.20488658423E+02  0.20595077190E+02  0.00000000000E+00 0.  1.
<mgrwt>
<rscale>  0 0.20909521E+01</rscale>
<asrwt>0</asrwt>
<pdfrwt beam="1">0</pdfrwt>
<pdfrwt beam="2">0</pdfrwt>
<totfact> 0.12465461E+12</totfact>
</mgrwt>
</event>
<event>
 4    2  0.1060494E+006  0.3751131E+01  0.7546771E-02  0.2327550E+00
         22   -1    0    0    0    0  0.00000000000E+00  0.00000000000E+00  0.11878991144E+02  0.11878991144E+02  0.00000000000E+00 0. -1.
         22   -1    0    0    0    0 -0.00000000000E+00 -0.00000000000E+00 -0.27400330334E+01  0.27400330334E+01  0.00000000000E+00 0.  1.
          4    1    1    2  501    0 -0.37440116346E+01 -0.23099171254E+00 -0.93791819505E+00  0.38666097336E+01  0.00000000000E+00 0.  1.
         -4    1    1    2    0  501  0.37440116346E+01  0.23099171254E+00  0.10076876305E+02  0.10752414444E+02  0.00000000000E+00 0. -1.
<mgrwt>
<rscale>  0 0.37511305E+01</rscale>
<asrwt>0</asrwt>
<pdfrwt beam="1">0</pdfrwt>
<pdfrwt beam="2">0</pdfrwt>
<totfact> 0.40259480E+11</totfact>
</mgrwt>
</event>
<event>
 4    2  0.1060494E+006  0.2162001E+01  0.7546771E-02  0.2879340E+00
         22   -1    0    0    0    0  0.00000000000E+00  0.00000000000E+00  0.28557072661E+01  0.28557072661E+01  0.00000000000E+00 0.  1.
         22   -1    0    0    0    0 -0.00000000000E+00 -0.00000000000E+00 -0.50965258299E+01  0.50965258299E+01  0.00000000000E+00 0. -1.
          4    1    1    2  501    0 -0.12096567817E+01  0.17919202197E+01 -0.43963969841E+01  0.48992401498E+01  0.00000000000E+00 0. -1.
         -4    1    1    2    0  501  0.12096567817E+01 -0.17919202197E+01  0.21555784203E+01  0.30529929462E+01  0.00000000000E+00 0.  1.
<mgrwt>
<rscale>  0 0.21620008E+01</rscale>
<asrwt>0</asrwt>
<pdfrwt beam="1">0</pdfrwt>
<pdfrwt beam="2">0</pdfrwt>
<totfact> 0.10597012E+12</totfact>
</mgrwt>
</event>
<event>
 4    2  0.1060494E+006  0.3327030E+01  0.7546771E-02  0.2427952E+00
         22   -1    0    0    0    0  0.00000000000E+00  0.00000000000E+00  0.50402770850E+01  0.50402770850E+01  0.00000000000E+00 0. -1.
         22   -1    0    0    0    0 -0.00000000000E+00 -0.00000000000E+00 -0.22010065041E+01  0.22010065041E+01  0.00000000000E+00 0.  1.
          4    1    1    2  501    0 -0.28805934421E+01 -0.16647251734E+01  0.15899727918E+01  0.36874302652E+01  0.00000000000E+00 0.  1.
         -4    1    1    2    0  501  0.28805934421E+01  0.16647251734E+01  0.12492977891E+01  0.35538533239E+01  0.00000000000E+00 0. -1.
<mgrwt>
<rscale>  0 0.33270300E+01</rscale>
<asrwt>0</asrwt>
<pdfrwt beam="1">0</pdfrwt>
<pdfrwt beam="2">0</pdfrwt>
<totfact> 0.14537302E+12</totfact>
</mgrwt>
</event>
<event>
 4    2  0.1060494E+006  0.2266425E+01  0.7546771E-02  0.2821415E+00
         22   -1    0    0    0    0  0.00000000000E+00  0.00000000000E+00  0.13620432003E+02  0.13620432003E+02  0.00000000000E+00 0. -1.
         22   -1    0    0    0    0 -0.00000000000E+00 -0.00000000000E+00 -0.43664957373E+00  0.43664957373E+00  0.00000000000E+00 0.  1.
          4    1    1    2  501    0 -0.21603050786E+01 -0.68539395239E+00  0.91868235787E+01  0.94622624339E+01  0.00000000000E+00 0. -1.
         -4    1    1    2    0  501  0.21603050786E+01  0.68539395239E+00  0.39969588511E+01  0.45948191433E+01  0.00000000000E+00 0.  1.
<mgrwt>
<rscale>  0 0.22664251E+01</rscale>
<asrwt>0</asrwt>
<pdfrwt beam="1">0</pdfrwt>
<pdfrwt beam="2">0</pdfrwt>
<totfact> 0.27875127E+12</totfact>
</mgrwt>
</event>
<event>
 4    2  0.1060494E+006  0.2970072E+01  0.7546771E-02  0.2531723E+00
         22   -1    0    0    0    0  0.00000000000E+00  0.00000000000E+00  0.27315223921E+01  0.27315223921E+01  0.00000000000E+00 0. -1.
         22   -1    0    0    0    0 -0.00000000000E+00 -0.00000000000E+00 -0.79300354557E+01  0.79300354557E+01  0.00000000000E+00 0.  1.
          4    1    1    2  501    0  0.29201566136E+01 -0.54223017907E+00 -0.67034597826E+01  0.73319643529E+01  0.00000000000E+00 0.  1.
         -4    1    1    2    0  501 -0.29201566136E+01  0.54223017907E+00  0.15049467190E+01  0.33295934950E+01  0.00000000000E+00 0. -1.
<mgrwt>
<rscale>  0 0.29700721E+01</rscale>
<asrwt>0</asrwt>
<pdfrwt beam="1">0</pdfrwt>
<pdfrwt beam="2">0</pdfrwt>
<totfact> 0.65879049E+11</totfact>
</mgrwt>
</event>
<event>
 4    2  0.1060494E+006  0.2097158E+01  0.7546771E-02  0.2918095E+00
         22   -1    0    0    0    0  0.00000000000E+00  0.00000000000E+00  0.16878306689E+01  0.16878306689E+01  0.00000000000E+00 0.  1.
         22   -1    0    0    0    0 -0.00000000000E+00 -0.00000000000E+00 -0.45536673948E+01  0.45536673948E+01  0.00000000000E+00 0. -1.
          4    1    1    2  501    0  0.20971373521E+01 -0.93094781947E-02  0.60817560251E+00  0.21835634416E+01  0.00000000000E+00 0.  1.
         -4    1    1    2    0  501 -0.20971373521E+01  0.93094781947E-02 -0.34740123284E+01  0.40579346222E+01  0.00000000000E+00 0. -1.
<mgrwt>
<rscale>  0 0.20971580E+01</rscale>
<asrwt>0</asrwt>
<pdfrwt beam="1">0</pdfrwt>
<pdfrwt beam="2">0</pdfrwt>
<totfact> 0.22280828E+12</totfact>
</mgrwt>
</event>
<event>
 4    2  0.1060494E+006  0.2144513E+01  0.7546771E-02  0.2889569E+00
         22   -1    0    0    0    0  0.00000000000E+00  0.00000000000E+00  0.10369797668E+03  0.10369797668E+03  0.00000000000E+00 0.  1.
         22   -1    0    0    0    0 -0.00000000000E+00 -0.00000000000E+00 -0.65166144612E-01  0.65166144612E-01  0.00000000000E+00 0. -1.
          4    1    1    2  501    0  0.21211568347E+01  0.31564290304E+00  0.22493354835E+02  0.22595352365E+02  0.00000000000E+00 0. -1.
         -4    1    1    2    0  501 -0.21211568347E+01 -0.31564290304E+00  0.81139455699E+02  0.81167790458E+02  0.00000000000E+00 0.  1.
<mgrwt>
<rscale>  0 0.21445132E+01</rscale>
<asrwt>0</asrwt>
<pdfrwt beam="1">0</pdfrwt>
<pdfrwt beam="2">0</pdfrwt>
<totfact> 0.16525690E+12</totfact>
</mgrwt>
</event>
<event>
 4    2  0.1060494E+006  0.2363507E+01  0.7546771E-02  0.2771945E+00
         22   -1    0    0    0    0  0.00000000000E+00  0.00000000000E+00  0.45744688151E+01  0.45744688151E+01  0.00000000000E+00 0.  1.
         22   -1    0    0    0    0 -0.00000000000E+00 -0.00000000000E+00 -0.93165643859E+01  0.93165643859E+01  0.00000000000E+00 0. -1.
          4    1    1    2  501    0  0.77402881531E+00 -0.22331689338E+01 -0.88453936932E+01  0.91557169944E+01  0.00000000000E+00 0. -1.
         -4    1    1    2    0  501 -0.77402881531E+00  0.22331689338E+01  0.41032981225E+01  0.47353162066E+01  0.00000000000E+00 0.  1.
<mgrwt>
<rscale>  0 0.23635067E+01</rscale>
<asrwt>0</asrwt>
<pdfrwt beam="1">0</pdfrwt>
<pdfrwt beam="2">0</pdfrwt>
<totfact> 0.29631403E+11</totfact>
</mgrwt>
</event>
<event>
 4    2  0.1060494E+006  0.2748135E+01  0.7546771E-02  0.2608310E+00
         22   -1    0    0    0    0  0.00000000000E+00  0.00000000000E+00  0.95734234758E+01  0.95734234758E+01  0.00000000000E+00 0.  1.
         22   -1    0    0    0    0 -0.00000000000E+00 -0.00000000000E+00 -0.13465509507E+01  0.13465509507E+01  0.00000000000E+00 0. -1.
          4    1    1    2  501    0  0.23255224755E+01 -0.14643051510E+01  0.59968685733E+00  0.28128044166E+01  0.00000000000E+00 0. -1.
         -4    1    1    2    0  501 -0.23255224755E+01  0.14643051510E+01  0.76271856677E+01  0.81071700099E+01  0.00000000000E+00 0.  1.
<mgrwt>
<rscale>  0 0.27481347E+01</rscale>
<asrwt>0</asrwt>
<pdfrwt beam="1">0</pdfrwt>
<pdfrwt beam="2">0</pdfrwt>
<totfact> 0.11897823E+12</totfact>
</mgrwt>
</event>
<event>
 4    2  0.1060494E+006  0.4915261E+01  0.7546771E-02  0.2133256E+00
         22   -1    0    0    0    0  0.00000000000E+00  0.00000000000E+00  0.59790837563E+01  0.59790837563E+01  0.00000000000E+00 0.  1.
         22   -1    0    0    0    0 -0.00000000000E+00 -0.00000000000E+00 -0.40790055611E+01  0.40790055611E+01  0.00000000000E+00 0. -1.
          4    1    1    2  501    0 -0.22777395219E+01 -0.43556507656E+01  0.46280507321E+00  0.49370010591E+01  0.00000000000E+00 0. -1.
         -4    1    1    2    0  501  0.22777395219E+01  0.43556507656E+01  0.14372731220E+01  0.51210882583E+01  0.00000000000E+00 0.  1.
<mgrwt>
<rscale>  0 0.49152610E+01</rscale>
<asrwt>0</asrwt>
<pdfrwt beam="1">0</pdfrwt>
<pdfrwt beam="2">0</pdfrwt>
<totfact> 0.57728286E+11</totfact>
</mgrwt>
</event>
<event>
 4    2  0.1060494E+006  0.2618487E+01  0.7546771E-02  0.2658491E+00
         22   -1    0    0    0    0  0.00000000000E+00  0.00000000000E+00  0.33449792047E+01  0.33449792047E+01  0.00000000000E+00 0.  1.
         22   -1    0    0    0    0 -0.00000000000E+00 -0.00000000000E+00 -0.21731416968E+01  0.21731416968E+01  0.00000000000E+00 0. -1.
          4    1    1    2  501    0 -0.24499460492E+01 -0.92424970553E+00 -0.71446087397E-01  0.26194613388E+01  0.00000000000E+00 0. -1.
         -4    1    1    2    0  501  0.24499460492E+01  0.92424970553E+00  0.12432835954E+01  0.28986595627E+01  0.00000000000E+00 0.  1.
<mgrwt>
<rscale>  0 0.26184868E+01</rscale>
<asrwt>0</asrwt>
<pdfrwt beam="1">0</pdfrwt>
<pdfrwt beam="2">0</pdfrwt>
<totfact> 0.23910323E+12</totfact>
</mgrwt>
</event>
<event>
 4    2  0.1060494E+006  0.2443568E+01  0.7546771E-02  0.2733944E+00
         22   -1    0    0    0    0  0.00000000000E+00  0.00000000000E+00  0.37298350041E+01  0.37298350041E+01  0.00000000000E+00 0.  1.
         22   -1    0    0    0    0 -0.00000000000E+00 -0.00000000000E+00 -0.19354800588E+01  0.19354800588E+01  0.00000000000E+00 0. -1.
          4    1    1    2  501    0  0.20885077363E+01  0.12685263804E+01 -0.28059601434E+00  0.24596255540E+01  0.00000000000E+00 0. -1.
         -4    1    1    2    0  501 -0.20885077363E+01 -0.12685263804E+01  0.20749509596E+01  0.32056895089E+01  0.00000000000E+00 0.  1.
<mgrwt>
<rscale>  0 0.24435678E+01</rscale>
<asrwt>0</asrwt>
<pdfrwt beam="1">0</pdfrwt>
<pdfrwt beam="2">0</pdfrwt>
<totfact> 0.24063283E+12</totfact>
</mgrwt>
</event>
<event>
 4    2  0.1060494E+006  0.4240514E+01  0.7546771E-02  0.2233549E+00
         22   -1    0    0    0    0  0.00000000000E+00  0.00000000000E+00  0.90339023786E+00  0.90339023786E+00  0.00000000000E+00 0.  1.
         22   -1    0    0    0    0 -0.00000000000E+00 -0.00000000000E+00 -0.48781681542E+02  0.48781681542E+02  0.00000000000E+00 0. -1.
          4    1    1    2  501    0 -0.36319015777E+01 -0.21888928989E+01 -0.43052695925E+02  0.43261028508E+02  0.00000000000E+00 0.  1.
         -4    1    1    2    0  501  0.36319015777E+01  0.21888928989E+01 -0.48255953799E+01  0.64240432722E+01  0.00000000000E+00 0. -1.
<mgrwt>
<rscale>  0 0.42405143E+01</rscale>
<asrwt>0</asrwt>
<pdfrwt beam="1">0</pdfrwt>
<pdfrwt beam="2">0</pdfrwt>
<totfact> 0.24322145E+11</totfact>
</mgrwt>
</event>
<event>
 4    2  0.1060494E+006  0.2181149E+01  0.7546771E-02  0.2868320E+00
         22   -1    0    0    0    0  0.00000000000E+00  0.00000000000E+00  0.69866197382E+01  0.69866197382E+01  0.00000000000E+00 0.  1.
         22   -1    0    0    0    0 -0.00000000000E+00 -0.00000000000E+00 -0.69041763639E+00  0.69041763639E+00  0.00000000000E+00 0. -1.
          4    1    1    2  501    0 -0.15204994856E+01  0.15638073007E+01  0.26981718211E+01  0.34695162683E+01  0.00000000000E+00 0.  1.
         -4    1    1    2    0  501  0.15204994856E+01 -0.15638073007E+01  0.35980302807E+01  0.42075211063E+01  0.00000000000E+00 0. -1.
<mgrwt>
<rscale>  0 0.21811492E+01</rscale>
<asrwt>0</asrwt>
<pdfrwt beam="1">0</pdfrwt>
<pdfrwt beam="2">0</pdfrwt>
<totfact> 0.37242819E+12</totfact>
</mgrwt>
</event>
<event>
 4    2  0.1060494E+006  0.2118965E+01  0.7546771E-02  0.2904806E+00
         22   -1    0    0    0    0  0.00000000000E+00  0.00000000000E+00  0.17422437017E+01  0.17422437017E+01  0.00000000000E+00 0.  1.
         22   -1    0    0    0    0 -0.00000000000E+00 -0.00000000000E+00 -0.27285556004E+01  0.27285556004E+01  0.00000000000E+00 0. -1.
          4    1    1    2  501    0 -0.20364888728E+01  0.58542697450E+00 -0.10197420154E+01  0.23515708472E+01  0.00000000000E+00 0. -1.
         -4    1    1    2    0  501  0.20364888728E+01 -0.58542697450E+00  0.33430116780E-01  0.21192284549E+01  0.00000000000E+00 0.  1.
<mgrwt>
<rscale>  0 0.21189648E+01</rscale>
<asrwt>0</asrwt>
<pdfrwt beam="1">0</pdfrwt>
<pdfrwt beam="2">0</pdfrwt>
<totfact> 0.39169114E+12</totfact>
</mgrwt>
</event>
<event>
 4    2  0.1060494E+006  0.2185927E+01  0.7546771E-02  0.2865600E+00
         22   -1    0    0    0    0  0.00000000000E+00  0.00000000000E+00  0.70284971423E+01  0.70284971423E+01  0.00000000000E+00 0.  1.
         22   -1    0    0    0    0 -0.00000000000E+00 -0.00000000000E+00 -0.17853222529E+01  0.17853222529E+01  0.00000000000E+00 0. -1.
          4    1    1    2  501    0  0.17287421648E+01 -0.13378074026E+01 -0.84618859606E+00  0.23439951491E+01  0.00000000000E+00 0. -1.
         -4    1    1    2    0  501 -0.17287421648E+01  0.13378074026E+01  0.60893634854E+01  0.64698242462E+01  0.00000000000E+00 0.  1.
<mgrwt>
<rscale>  0 0.21859273E+01</rscale>
<asrwt>0</asrwt>
<pdfrwt beam="1">0</pdfrwt>
<pdfrwt beam="2">0</pdfrwt>
<totfact> 0.12467633E+12</totfact>
</mgrwt>
</event>
<event>
 4    2  0.1060494E+006  0.3209215E+01  0.7546771E-02  0.2459933E+00
         22   -1    0    0    0    0  0.00000000000E+00  0.00000000000E+00  0.51188851792E+02  0.51188851792E+02  0.00000000000E+00 0.  1.
         22   -1    0    0    0    0 -0.00000000000E+00 -0.00000000000E+00 -0.38211792946E+00  0.38211792946E+00  0.00000000000E+00 0. -1.
          4    1    1    2  501    0  0.32083348491E+01  0.75162030415E-01  0.76606318777E+01  0.83056813448E+01  0.00000000000E+00 0. -1.
         -4    1    1    2    0  501 -0.32083348491E+01 -0.75162030415E-01  0.43146101985E+02  0.43265288377E+02  0.00000000000E+00 0.  1.
<mgrwt>
<rscale>  0 0.32092151E+01</rscale>
<asrwt>0</asrwt>
<pdfrwt beam="1">0</pdfrwt>
<pdfrwt beam="2">0</pdfrwt>
<totfact> 0.60459554E+11</totfact>
</mgrwt>
</event>
<event>
 4    2  0.1060494E+006  0.2314353E+01  0.7546771E-02  0.2796501E+00
         22   -1    0    0    0    0  0.00000000000E+00  0.00000000000E+00  0.25670084954E+01  0.25670084954E+01  0.00000000000E+00 0.  1.
         22   -1    0    0    0    0 -0.00000000000E+00 -0.00000000000E+00 -0.22926374058E+01  0.22926374058E+01  0.00000000000E+00 0. -1.
          4    1    1    2  501    0  0.27695668365E-01 -0.23141877120E+01  0.86566305928E+00  0.24709521138E+01  0.00000000000E+00 0.  1.
         -4    1    1    2    0  501 -0.27695668365E-01  0.23141877120E+01 -0.59129196968E+00  0.23886937874E+01  0.00000000000E+00 0. -1.
<mgrwt>
<rscale>  0 0.23143534E+01</rscale>
<asrwt>0</asrwt>
<pdfrwt beam="1">0</pdfrwt>
<pdfrwt beam="2">0</pdfrwt>
<totfact> 0.30607730E+12</totfact>
</mgrwt>
</event>
<event>
 4    2  0.1060494E+006  0.3151183E+01  0.7546771E-02  0.2476461E+00
         22   -1    0    0    0    0  0.00000000000E+00  0.00000000000E+00  0.59046521083E+01  0.59046521083E+01  0.00000000000E+00 0. -1.
         22   -1    0    0    0    0 -0.00000000000E+00 -0.00000000000E+00 -0.53641413796E+01  0.53641413796E+01  0.00000000000E+00 0.  1.
          4    1    1    2  501    0  0.17227971529E+00  0.31464704773E+01 -0.43981032012E+01  0.54104776622E+01  0.00000000000E+00 0.  1.
         -4    1    1    2    0  501 -0.17227971529E+00 -0.31464704773E+01  0.49386139299E+01  0.58583158257E+01  0.00000000000E+00 0. -1.
<mgrwt>
<rscale>  0 0.31511834E+01</rscale>
<asrwt>0</asrwt>
<pdfrwt beam="1">0</pdfrwt>
<pdfrwt beam="2">0</pdfrwt>
<totfact> 0.42392504E+11</totfact>
</mgrwt>
</event>
<event>
 4    2  0.1060494E+006  0.2925172E+01  0.7546771E-02  0.2546368E+00
         22   -1    0    0    0    0  0.00000000000E+00  0.00000000000E+00  0.29425726646E+01  0.29425726646E+01  0.00000000000E+00 0.  1.
         22   -1    0    0    0    0 -0.00000000000E+00 -0.00000000000E+00 -0.40790726623E+01  0.40790726623E+01  0.00000000000E+00 0. -1.
          4    1    1    2  501    0 -0.20633708577E+01  0.20734350715E+01  0.13129862833E+01  0.32063320589E+01  0.00000000000E+00 0.  1.
         -4    1    1    2    0  501  0.20633708577E+01 -0.20734350715E+01 -0.24494862810E+01  0.38153132680E+01  0.00000000000E+00 0. -1.
<mgrwt>
<rscale>  0 0.29251722E+01</rscale>
<asrwt>0</asrwt>
<pdfrwt beam="1">0</pdfrwt>
<pdfrwt beam="2">0</pdfrwt>
<totfact> 0.13311815E+12</totfact>
</mgrwt>
</event>
<event>
 4    2  0.1060494E+006  0.3654723E+01  0.7546771E-02  0.2348590E+00
         22   -1    0    0    0    0  0.00000000000E+00  0.00000000000E+00  0.40695834804E+01  0.40695834804E+01  0.00000000000E+00 0.  1.
         22   -1    0    0    0    0 -0.00000000000E+00 -0.00000000000E+00 -0.96873475296E+01  0.96873475296E+01  0.00000000000E+00 0. -1.
          4    1    1    2  501    0  0.18386039900E+00  0.36500949413E+01 -0.84020165898E+01  0.91624713097E+01  0.00000000000E+00 0. -1.
         -4    1    1    2    0  501 -0.18386039900E+00 -0.36500949413E+01  0.27842525406E+01  0.45944597002E+01  0.00000000000E+00 0.  1.
<mgrwt>
<rscale>  0 0.36547227E+01</rscale>
<asrwt>0</asrwt>
<pdfrwt beam="1">0</pdfrwt>
<pdfrwt beam="2">0</pdfrwt>
<totfact> 0.32447159E+11</totfact>
</mgrwt>
</event>
<event>
 4    2  0.1060494E+006  0.3264481E+01  0.7546771E-02  0.2444677E+00
         22   -1    0    0    0    0  0.00000000000E+00  0.00000000000E+00  0.50819581015E+01  0.50819581015E+01  0.00000000000E+00 0. -1.
         22   -1    0    0    0    0 -0.00000000000E+00 -0.00000000000E+00 -0.25042547557E+01  0.25042547557E+01  0.00000000000E+00 0.  1.
          4    1    1    2  501    0  0.77664963073E-01  0.32635573617E+01 -0.24079722107E+00  0.32733502412E+01  0.00000000000E+00 0. -1.
         -4    1    1    2    0  501 -0.77664963073E-01 -0.32635573617E+01  0.28185005669E+01  0.43128626161E+01  0.00000000000E+00 0.  1.
<mgrwt>
<rscale>  0 0.32644814E+01</rscale>
<asrwt>0</asrwt>
<pdfrwt beam="1">0</pdfrwt>
<pdfrwt beam="2">0</pdfrwt>
<totfact> 0.12391816E+12</totfact>
</mgrwt>
</event>
<event>
 4    2  0.1060494E+006  0.2975319E+01  0.7546771E-02  0.2530038E+00
         22   -1    0    0    0    0  0.00000000000E+00  0.00000000000E+00  0.61224438530E+00  0.61224438530E+00  0.00000000000E+00 0. -1.
         22   -1    0    0    0    0 -0.00000000000E+00 -0.00000000000E+00 -0.41540158080E+02  0.41540158080E+02  0.00000000000E+00 0.  1.
          4    1    1    2  501    0 -0.10795113683E+01 -0.27725756109E+01 -0.37481264438E+02  0.37599171589E+02  0.00000000000E+00 0.  1.
         -4    1    1    2    0  501  0.10795113683E+01  0.27725756109E+01 -0.34466492562E+01  0.45532308758E+01  0.00000000000E+00 0. -1.
<mgrwt>
<rscale>  0 0.29753185E+01</rscale>
<asrwt>0</asrwt>
<pdfrwt beam="1">0</pdfrwt>
<pdfrwt beam="2">0</pdfrwt>
<totfact> 0.46698305E+11</totfact>
</mgrwt>
</event>
<event>
 4    2  0.1060494E+006  0.2107914E+01  0.7546771E-02  0.2911507E+00
         22   -1    0    0    0    0  0.00000000000E+00  0.00000000000E+00  0.40210712982E+02  0.40210712982E+02  0.00000000000E+00 0.  1.
         22   -1    0    0    0    0 -0.00000000000E+00 -0.00000000000E+00 -0.14986010779E+00  0.14986010779E+00  0.00000000000E+00 0. -1.
          4    1    1    2  501    0 -0.79585456440E+00 -0.19519004128E+01  0.96882899974E+01  0.99149514766E+01  0.00000000000E+00 0. -1.
         -4    1    1    2    0  501  0.79585456440E+00  0.19519004128E+01  0.30372562877E+02  0.30445621613E+02  0.00000000000E+00 0.  1.
<mgrwt>
<rscale>  0 0.21079136E+01</rscale>
<asrwt>0</asrwt>
<pdfrwt beam="1">0</pdfrwt>
<pdfrwt beam="2">0</pdfrwt>
<totfact> 0.23617288E+12</totfact>
</mgrwt>
</event>
<event>
 4    2  0.1060494E+006  0.4393825E+01  0.7546771E-02  0.2207793E+00
         22   -1    0    0    0    0  0.00000000000E+00  0.00000000000E+00  0.12123792156E+01  0.12123792156E+01  0.00000000000E+00 0.  1.
         22   -1    0    0    0    0 -0.00000000000E+00 -0.00000000000E+00 -0.16989089349E+02  0.16989089349E+02  0.00000000000E+00 0. -1.
          4    1    1    2  501    0  0.33728279027E+01  0.28159778565E+01 -0.10167241177E+02  0.11076032344E+02  0.00000000000E+00 0. -1.
         -4    1    1    2    0  501 -0.33728279027E+01 -0.28159778565E+01 -0.56094689563E+01  0.71254362197E+01  0.00000000000E+00 0.  1.
<mgrwt>
<rscale>  0 0.43938251E+01</rscale>
<asrwt>0</asrwt>
<pdfrwt beam="1">0</pdfrwt>
<pdfrwt beam="2">0</pdfrwt>
<totfact> 0.66559708E+11</totfact>
</mgrwt>
</event>
<event>
 4    2  0.1060494E+006  0.3681729E+01  0.7546771E-02  0.2342600E+00
         22   -1    0    0    0    0  0.00000000000E+00  0.00000000000E+00  0.11628494362E+02  0.11628494362E+02  0.00000000000E+00 0. -1.
         22   -1    0    0    0    0 -0.00000000000E+00 -0.00000000000E+00 -0.14862624869E+01  0.14862624869E+01  0.00000000000E+00 0.  1.
          4    1    1    2  501    0  0.15073183493E+01  0.33590358590E+01  0.20256706504E+01  0.42021984832E+01  0.00000000000E+00 0.  1.
         -4    1    1    2    0  501 -0.15073183493E+01 -0.33590358590E+01  0.81165612249E+01  0.89125583659E+01  0.00000000000E+00 0. -1.
<mgrwt>
<rscale>  0 0.36817293E+01</rscale>
<asrwt>0</asrwt>
<pdfrwt beam="1">0</pdfrwt>
<pdfrwt beam="2">0</pdfrwt>
<totfact> 0.83892943E+11</totfact>
</mgrwt>
</event>
<event>
 4    2  0.1060494E+006  0.3450583E+01  0.7546771E-02  0.2396486E+00
         22   -1    0    0    0    0  0.00000000000E+00  0.00000000000E+00  0.37427282307E+00  0.37427282307E+00  0.00000000000E+00 0. -1.
         22   -1    0    0    0    0 -0.00000000000E+00 -0.00000000000E+00 -0.32306667574E+02  0.32306667574E+02  0.00000000000E+00 0.  1.
          4    1    1    2  501    0  0.33709046268E+01 -0.73724267743E+00 -0.17987308178E+02  0.18315288157E+02  0.00000000000E+00 0.  1.
         -4    1    1    2    0  501 -0.33709046268E+01  0.73724267743E+00 -0.13945086573E+02  0.14365652241E+02  0.00000000000E+00 0. -1.
<mgrwt>
<rscale>  0 0.34505833E+01</rscale>
<asrwt>0</asrwt>
<pdfrwt beam="1">0</pdfrwt>
<pdfrwt beam="2">0</pdfrwt>
<totfact> 0.11256356E+12</totfact>
</mgrwt>
</event>
<event>
 4    2  0.1060494E+006  0.2056162E+01  0.7546771E-02  0.2943819E+00
         22   -1    0    0    0    0  0.00000000000E+00  0.00000000000E+00  0.34209580798E+00  0.34209580798E+00  0.00000000000E+00 0.  1.
         22   -1    0    0    0    0 -0.00000000000E+00 -0.00000000000E+00 -0.17485558405E+02  0.17485558405E+02  0.00000000000E+00 0. -1.
          4    1    1    2  501    0  0.70860857791E+00  0.19302007067E+01 -0.13398509770E+02  0.13555362959E+02  0.00000000000E+00 0. -1.
         -4    1    1    2    0  501 -0.70860857791E+00 -0.19302007067E+01 -0.37449528268E+01  0.42722912541E+01  0.00000000000E+00 0.  1.
<mgrwt>
<rscale>  0 0.20561617E+01</rscale>
<asrwt>0</asrwt>
<pdfrwt beam="1">0</pdfrwt>
<pdfrwt beam="2">0</pdfrwt>
<totfact> 0.26962280E+12</totfact>
</mgrwt>
</event>
<event>
 4    2  0.1060494E+006  0.2013837E+01  0.7546771E-02  0.2971448E+00
         22   -1    0    0    0    0  0.00000000000E+00  0.00000000000E+00  0.23197655564E+01  0.23197655564E+01  0.00000000000E+00 0. -1.
         22   -1    0    0    0    0 -0.00000000000E+00 -0.00000000000E+00 -0.17510022872E+01  0.17510022872E+01  0.00000000000E+00 0.  1.
          4    1    1    2  501    0 -0.19793783729E+01  0.37094646875E+00  0.20374856971E+00  0.20241179574E+01  0.00000000000E+00 0.  1.
         -4    1    1    2    0  501  0.19793783729E+01 -0.37094646875E+00  0.36501469953E+00  0.20466498862E+01  0.00000000000E+00 0. -1.
<mgrwt>
<rscale>  0 0.20138371E+01</rscale>
<asrwt>0</asrwt>
<pdfrwt beam="1">0</pdfrwt>
<pdfrwt beam="2">0</pdfrwt>
<totfact> 0.47034962E+12</totfact>
</mgrwt>
</event>
<event>
 4    2  0.1060494E+006  0.4157005E+01  0.7546771E-02  0.2248251E+00
         22   -1    0    0    0    0  0.00000000000E+00  0.00000000000E+00  0.52078868231E+01  0.52078868231E+01  0.00000000000E+00 0.  1.
         22   -1    0    0    0    0 -0.00000000000E+00 -0.00000000000E+00 -0.47475350139E+01  0.47475350139E+01  0.00000000000E+00 0. -1.
          4    1    1    2  501    0 -0.66714144823E+00  0.41031225819E+01 -0.25011028385E+01  0.48514129945E+01  0.00000000000E+00 0. -1.
         -4    1    1    2    0  501  0.66714144823E+00 -0.41031225819E+01  0.29614546477E+01  0.51040088425E+01  0.00000000000E+00 0.  1.
<mgrwt>
<rscale>  0 0.41570052E+01</rscale>
<asrwt>0</asrwt>
<pdfrwt beam="1">0</pdfrwt>
<pdfrwt beam="2">0</pdfrwt>
<totfact> 0.56867009E+11</totfact>
</mgrwt>
</event>
<event>
 4    2  0.1060494E+006  0.3128452E+01  0.7546771E-02  0.2483083E+00
         22   -1    0    0    0    0  0.00000000000E+00  0.00000000000E+00  0.61819961872E+02  0.61819961872E+02  0.00000000000E+00 0.  1.
         22   -1    0    0    0    0 -0.00000000000E+00 -0.00000000000E+00 -0.19098708667E+00  0.19098708667E+00  0.00000000000E+00 0. -1.
          4    1    1    2  501    0  0.25974429562E+01 -0.17437040069E+01  0.17991040284E+02  0.18261017060E+02  0.00000000000E+00 0. -1.
         -4    1    1    2    0  501 -0.25974429562E+01  0.17437040069E+01  0.43637934501E+02  0.43749931898E+02  0.00000000000E+00 0.  1.
<mgrwt>
<rscale>  0 0.31284523E+01</rscale>
<asrwt>0</asrwt>
<pdfrwt beam="1">0</pdfrwt>
<pdfrwt beam="2">0</pdfrwt>
<totfact> 0.10224166E+12</totfact>
</mgrwt>
</event>
<event>
 4    2  0.1060494E+006  0.2392034E+01  0.7546771E-02  0.2758131E+00
         22   -1    0    0    0    0  0.00000000000E+00  0.00000000000E+00  0.10653443191E+01  0.10653443191E+01  0.00000000000E+00 0. -1.
         22   -1    0    0    0    0 -0.00000000000E+00 -0.00000000000E+00 -0.76993992005E+01  0.76993992005E+01  0.00000000000E+00 0.  1.
          4    1    1    2  501    0  0.23204139693E+01  0.58095189487E+00 -0.57270528411E+01  0.62065256254E+01  0.00000000000E+00 0.  1.
         -4    1    1    2    0  501 -0.23204139693E+01 -0.58095189487E+00 -0.90700204034E+00  0.25582178943E+01  0.00000000000E+00 0. -1.
<mgrwt>
<rscale>  0 0.23920339E+01</rscale>
<asrwt>0</asrwt>
<pdfrwt beam="1">0</pdfrwt>
<pdfrwt beam="2">0</pdfrwt>
<totfact> 0.20228210E+12</totfact>
</mgrwt>
</event>
<event>
 4    2  0.1060494E+006  0.2075488E+01  0.7546771E-02  0.2931569E+00
         22   -1    0    0    0    0  0.00000000000E+00  0.00000000000E+00  0.19388469302E+01  0.19388469302E+01  0.00000000000E+00 0. -1.
         22   -1    0    0    0    0 -0.00000000000E+00 -0.00000000000E+00 -0.24962914801E+01  0.24962914801E+01  0.00000000000E+00 0.  1.
          4    1    1    2  501    0 -0.18943606306E+01 -0.84796723605E+00 -0.10141269649E+01  0.23100008946E+01  0.00000000000E+00 0.  1.
         -4    1    1    2    0  501  0.18943606306E+01  0.84796723605E+00  0.45668241503E+00  0.21251375157E+01  0.00000000000E+00 0. -1.
<mgrwt>
<rscale>  0 0.20754880E+01</rscale>
<asrwt>0</asrwt>
<pdfrwt beam="1">0</pdfrwt>
<pdfrwt beam="2">0</pdfrwt>
<totfact> 0.38395103E+12</totfact>
</mgrwt>
</event>
<event>
 4    2  0.1060494E+006  0.3690741E+01  0.7546771E-02  0.2340618E+00
         22   -1    0    0    0    0  0.00000000000E+00  0.00000000000E+00  0.89225011309E+00  0.89225011309E+00  0.00000000000E+00 0. -1.
         22   -1    0    0    0    0 -0.00000000000E+00 -0.00000000000E+00 -0.20773672086E+02  0.20773672086E+02  0.00000000000E+00 0.  1.
          4    1    1    2  501    0  0.36893061564E+01 -0.10291907590E+00 -0.15518387009E+02  0.15951235300E+02  0.00000000000E+00 0.  1.
         -4    1    1    2    0  501 -0.36893061564E+01  0.10291907590E+00 -0.43630349639E+01  0.57146868985E+01  0.00000000000E+00 0. -1.
<mgrwt>
<rscale>  0 0.36907414E+01</rscale>
<asrwt>0</asrwt>
<pdfrwt beam="1">0</pdfrwt>
<pdfrwt beam="2">0</pdfrwt>
<totfact> 0.73583853E+11</totfact>
</mgrwt>
</event>
<event>
 4    2  0.1060494E+006  0.2965019E+01  0.7546771E-02  0.2533351E+00
         22   -1    0    0    0    0  0.00000000000E+00  0.00000000000E+00  0.55195176479E+00  0.55195176479E+00  0.00000000000E+00 0. -1.
         22   -1    0    0    0    0 -0.00000000000E+00 -0.00000000000E+00 -0.22075975642E+02  0.22075975642E+02  0.00000000000E+00 0.  1.
          4    1    1    2  501    0 -0.27869784824E+01  0.10119720049E+01 -0.16732785201E+02  0.16993452769E+02  0.00000000000E+00 0.  1.
         -4    1    1    2    0  501  0.27869784824E+01 -0.10119720049E+01 -0.47912386755E+01  0.56344746379E+01  0.00000000000E+00 0. -1.
<mgrwt>
<rscale>  0 0.29650188E+01</rscale>
<asrwt>0</asrwt>
<pdfrwt beam="1">0</pdfrwt>
<pdfrwt beam="2">0</pdfrwt>
<totfact> 0.11763235E+12</totfact>
</mgrwt>
</event>
<event>
 4    2  0.1060494E+006  0.2439169E+01  0.7546771E-02  0.2735972E+00
         22   -1    0    0    0    0  0.00000000000E+00  0.00000000000E+00  0.12861298728E+01  0.12861298728E+01  0.00000000000E+00 0. -1.
         22   -1    0    0    0    0 -0.00000000000E+00 -0.00000000000E+00 -0.46285657196E+01  0.46285657196E+01  0.00000000000E+00 0.  1.
          4    1    1    2  501    0 -0.63234110950E+00  0.23557775181E+01 -0.16006072944E+01  0.29174452359E+01  0.00000000000E+00 0. -1.
         -4    1    1    2    0  501  0.63234110950E+00 -0.23557775181E+01 -0.17418285525E+01  0.29972503566E+01  0.00000000000E+00 0.  1.
<mgrwt>
<rscale>  0 0.24391685E+01</rscale>
<asrwt>0</asrwt>
<pdfrwt beam="1">0</pdfrwt>
<pdfrwt beam="2">0</pdfrwt>
<totfact> 0.29879114E+12</totfact>
</mgrwt>
</event>
<event>
 4    2  0.1060494E+006  0.2121995E+01  0.7546771E-02  0.2902980E+00
         22   -1    0    0    0    0  0.00000000000E+00  0.00000000000E+00  0.55526383621E+00  0.55526383621E+00  0.00000000000E+00 0.  1.
         22   -1    0    0    0    0 -0.00000000000E+00 -0.00000000000E+00 -0.14831288513E+02  0.14831288513E+02  0.00000000000E+00 0. -1.
          4    1    1    2  501    0 -0.20234769920E+01  0.63906432466E+00 -0.12317266180E+02  0.12498716274E+02  0.00000000000E+00 0. -1.
         -4    1    1    2    0  501  0.20234769920E+01 -0.63906432466E+00 -0.19587584965E+01  0.28878360749E+01  0.00000000000E+00 0.  1.
<mgrwt>
<rscale>  0 0.21219949E+01</rscale>
<asrwt>0</asrwt>
<pdfrwt beam="1">0</pdfrwt>
<pdfrwt beam="2">0</pdfrwt>
<totfact> 0.19140785E+12</totfact>
</mgrwt>
</event>
<event>
 4    2  0.1060494E+006  0.2477259E+01  0.7546771E-02  0.2718642E+00
         22   -1    0    0    0    0  0.00000000000E+00  0.00000000000E+00  0.18086873253E+01  0.18086873253E+01  0.00000000000E+00 0.  1.
         22   -1    0    0    0    0 -0.00000000000E+00 -0.00000000000E+00 -0.42228090020E+01  0.42228090020E+01  0.00000000000E+00 0. -1.
          4    1    1    2  501    0  0.18612074765E+01  0.16348445217E+01 -0.25439426151E+01  0.35508384798E+01  0.00000000000E+00 0. -1.
         -4    1    1    2    0  501 -0.18612074765E+01 -0.16348445217E+01  0.12982093835E+00  0.24806578476E+01  0.00000000000E+00 0.  1.
<mgrwt>
<rscale>  0 0.24772585E+01</rscale>
<asrwt>0</asrwt>
<pdfrwt beam="1">0</pdfrwt>
<pdfrwt beam="2">0</pdfrwt>
<totfact> 0.22487376E+12</totfact>
</mgrwt>
</event>
<event>
 4    2  0.1060494E+006  0.2485917E+01  0.7546771E-02  0.2714772E+00
         22   -1    0    0    0    0  0.00000000000E+00  0.00000000000E+00  0.64092000260E+01  0.64092000260E+01  0.00000000000E+00 0. -1.
         22   -1    0    0    0    0 -0.00000000000E+00 -0.00000000000E+00 -0.14370631562E+01  0.14370631562E+01  0.00000000000E+00 0.  1.
          4    1    1    2  501    0  0.21973249512E+01  0.11625602253E+01  0.23566514509E+00  0.24970625301E+01  0.00000000000E+00 0.  1.
         -4    1    1    2    0  501 -0.21973249512E+01 -0.11625602253E+01  0.47364717247E+01  0.53492006522E+01  0.00000000000E+00 0. -1.
<mgrwt>
<rscale>  0 0.24859170E+01</rscale>
<asrwt>0</asrwt>
<pdfrwt beam="1">0</pdfrwt>
<pdfrwt beam="2">0</pdfrwt>
<totfact> 0.17874493E+12</totfact>
</mgrwt>
</event>
<event>
 4    2  0.1060494E+006  0.2486375E+01  0.7546771E-02  0.2714567E+00
         22   -1    0    0    0    0  0.00000000000E+00  0.00000000000E+00  0.12230484549E+02  0.12230484549E+02  0.00000000000E+00 0.  1.
         22   -1    0    0    0    0 -0.00000000000E+00 -0.00000000000E+00 -0.14715280478E+01  0.14715280478E+01  0.00000000000E+00 0. -1.
          4    1    1    2  501    0 -0.24084358160E+01 -0.61765611903E+00 -0.17154686324E+00  0.24922861970E+01  0.00000000000E+00 0. -1.
         -4    1    1    2    0  501  0.24084358160E+01  0.61765611903E+00  0.10930503364E+02  0.11209726400E+02  0.00000000000E+00 0.  1.
<mgrwt>
<rscale>  0 0.24863753E+01</rscale>
<asrwt>0</asrwt>
<pdfrwt beam="1">0</pdfrwt>
<pdfrwt beam="2">0</pdfrwt>
<totfact> 0.79793595E+11</totfact>
</mgrwt>
</event>
<event>
 4    2  0.1060494E+006  0.2316516E+01  0.7546771E-02  0.2795400E+00
         22   -1    0    0    0    0  0.00000000000E+00  0.00000000000E+00  0.48715650610E+01  0.48715650610E+01  0.00000000000E+00 0.  1.
         22   -1    0    0    0    0 -0.00000000000E+00 -0.00000000000E+00 -0.26397361831E+01  0.26397361831E+01  0.00000000000E+00 0. -1.
          4    1    1    2  501    0 -0.10567338172E+01  0.20614466518E+01 -0.17509691937E+01  0.29038150381E+01  0.00000000000E+00 0. -1.
         -4    1    1    2    0  501  0.10567338172E+01 -0.20614466518E+01  0.39827980716E+01  0.46074862059E+01  0.00000000000E+00 0.  1.
<mgrwt>
<rscale>  0 0.23165165E+01</rscale>
<asrwt>0</asrwt>
<pdfrwt beam="1">0</pdfrwt>
<pdfrwt beam="2">0</pdfrwt>
<totfact> 0.12252377E+12</totfact>
</mgrwt>
</event>
<event>
 4    2  0.1060494E+006  0.2095323E+01  0.7546771E-02  0.2919226E+00
         22   -1    0    0    0    0  0.00000000000E+00  0.00000000000E+00  0.21831119137E+01  0.21831119137E+01  0.00000000000E+00 0.  1.
         22   -1    0    0    0    0 -0.00000000000E+00 -0.00000000000E+00 -0.22924636682E+01  0.22924636682E+01  0.00000000000E+00 0. -1.
          4    1    1    2  501    0 -0.10800353522E+01 -0.17955225793E+01 -0.83870011539E+00  0.22569438581E+01  0.00000000000E+00 0. -1.
         -4    1    1    2    0  501  0.10800353522E+01  0.17955225793E+01  0.72934836088E+00  0.22186317239E+01  0.00000000000E+00 0.  1.
<mgrwt>
<rscale>  0 0.20953228E+01</rscale>
<asrwt>0</asrwt>
<pdfrwt beam="1">0</pdfrwt>
<pdfrwt beam="2">0</pdfrwt>
<totfact> 0.36947228E+12</totfact>
</mgrwt>
</event>
<event>
 4    2  0.1060494E+006  0.2211824E+01  0.7546771E-02  0.2851050E+00
         22   -1    0    0    0    0  0.00000000000E+00  0.00000000000E+00  0.31898486101E+02  0.31898486101E+02  0.00000000000E+00 0. -1.
         22   -1    0    0    0    0 -0.00000000000E+00 -0.00000000000E+00 -0.34614182971E+00  0.34614182971E+00  0.00000000000E+00 0.  1.
          4    1    1    2  501    0  0.44562876329E+00  0.21664676505E+01  0.37445057884E+01  0.43489643221E+01  0.00000000000E+00 0.  1.
         -4    1    1    2    0  501 -0.44562876329E+00 -0.21664676505E+01  0.27807838483E+02  0.27895663608E+02  0.00000000000E+00 0. -1.
<mgrwt>
<rscale>  0 0.22118244E+01</rscale>
<asrwt>0</asrwt>
<pdfrwt beam="1">0</pdfrwt>
<pdfrwt beam="2">0</pdfrwt>
<totfact> 0.12490293E+12</totfact>
</mgrwt>
</event>
<event>
 4    2  0.1060494E+006  0.2381582E+01  0.7546771E-02  0.2763156E+00
         22   -1    0    0    0    0  0.00000000000E+00  0.00000000000E+00  0.64378614582E+01  0.64378614582E+01  0.00000000000E+00 0.  1.
         22   -1    0    0    0    0 -0.00000000000E+00 -0.00000000000E+00 -0.12710482195E+01  0.12710482195E+01  0.00000000000E+00 0. -1.
          4    1    1    2  501    0  0.23308176173E+01 -0.48910502677E+00  0.44827005677E+00  0.24234026773E+01  0.00000000000E+00 0. -1.
         -4    1    1    2    0  501 -0.23308176173E+01  0.48910502677E+00  0.47185431818E+01  0.52855070004E+01  0.00000000000E+00 0.  1.
<mgrwt>
<rscale>  0 0.23815824E+01</rscale>
<asrwt>0</asrwt>
<pdfrwt beam="1">0</pdfrwt>
<pdfrwt beam="2">0</pdfrwt>
<totfact> 0.20470961E+12</totfact>
</mgrwt>
</event>
<event>
 4    2  0.1060494E+006  0.3422647E+01  0.7546771E-02  0.2403426E+00
         22   -1    0    0    0    0  0.00000000000E+00  0.00000000000E+00  0.15768523232E+01  0.15768523232E+01  0.00000000000E+00 0. -1.
         22   -1    0    0    0    0 -0.00000000000E+00 -0.00000000000E+00 -0.77770055433E+01  0.77770055433E+01  0.00000000000E+00 0.  1.
          4    1    1    2  501    0  0.29885147486E+01  0.16683211333E+01 -0.40893493203E+01  0.53326629061E+01  0.00000000000E+00 0.  1.
         -4    1    1    2    0  501 -0.29885147486E+01 -0.16683211333E+01 -0.21108038997E+01  0.40211949604E+01  0.00000000000E+00 0. -1.
<mgrwt>
<rscale>  0 0.34226475E+01</rscale>
<asrwt>0</asrwt>
<pdfrwt beam="1">0</pdfrwt>
<pdfrwt beam="2">0</pdfrwt>
<totfact> 0.12744964E+12</totfact>
</mgrwt>
</event>
<event>
 4    2  0.1060494E+006  0.2334039E+01  0.7546771E-02  0.2786549E+00
         22   -1    0    0    0    0  0.00000000000E+00  0.00000000000E+00  0.38664692966E+01  0.38664692966E+01  0.00000000000E+00 0.  1.
         22   -1    0    0    0    0 -0.00000000000E+00 -0.00000000000E+00 -0.18313767261E+01  0.18313767261E+01  0.00000000000E+00 0. -1.
          4    1    1    2  501    0 -0.35274537689E+00 -0.23072298344E+01 -0.35067813700E+00  0.23602359978E+01  0.00000000000E+00 0. -1.
         -4    1    1    2    0  501  0.35274537689E+00  0.23072298344E+01  0.23857707075E+01  0.33376100249E+01  0.00000000000E+00 0.  1.
<mgrwt>
<rscale>  0 0.23340392E+01</rscale>
<asrwt>0</asrwt>
<pdfrwt beam="1">0</pdfrwt>
<pdfrwt beam="2">0</pdfrwt>
<totfact> 0.24589189E+12</totfact>
</mgrwt>
</event>
<event>
 4    2  0.1060494E+006  0.2736850E+01  0.7546771E-02  0.2612505E+00
         22   -1    0    0    0    0  0.00000000000E+00  0.00000000000E+00  0.21487265793E+02  0.21487265793E+02  0.00000000000E+00 0.  1.
         22   -1    0    0    0    0 -0.00000000000E+00 -0.00000000000E+00 -0.39284986687E+00  0.39284986687E+00  0.00000000000E+00 0. -1.
          4    1    1    2  501    0 -0.38532122717E+00  0.27095894222E+01  0.68753300520E+01  0.74000345005E+01  0.00000000000E+00 0. -1.
         -4    1    1    2    0  501  0.38532122717E+00 -0.27095894222E+01  0.14219085874E+02  0.14480081159E+02  0.00000000000E+00 0.  1.
<mgrwt>
<rscale>  0 0.27368499E+01</rscale>
<asrwt>0</asrwt>
<pdfrwt beam="1">0</pdfrwt>
<pdfrwt beam="2">0</pdfrwt>
<totfact> 0.17857181E+12</totfact>
</mgrwt>
</event>
<event>
 4    2  0.1060494E+006  0.2480175E+01  0.7546771E-02  0.2717335E+00
         22   -1    0    0    0    0  0.00000000000E+00  0.00000000000E+00  0.93296982964E+00  0.93296982964E+00  0.00000000000E+00 0. -1.
         22   -1    0    0    0    0 -0.00000000000E+00 -0.00000000000E+00 -0.66183048407E+01  0.66183048407E+01  0.00000000000E+00 0.  1.
          4    1    1    2  501    0 -0.23117020833E+01  0.89849950951E+00 -0.26101842529E+01  0.36006013004E+01  0.00000000000E+00 0. -1.
         -4    1    1    2    0  501  0.23117020833E+01 -0.89849950951E+00 -0.30751507582E+01  0.39506733700E+01  0.00000000000E+00 0.  1.
<mgrwt>
<rscale>  0 0.24801750E+01</rscale>
<asrwt>0</asrwt>
<pdfrwt beam="1">0</pdfrwt>
<pdfrwt beam="2">0</pdfrwt>
<totfact> 0.28210435E+12</totfact>
</mgrwt>
</event>
<event>
 4    2  0.1060494E+006  0.2281277E+01  0.7546771E-02  0.2813588E+00
         22   -1    0    0    0    0  0.00000000000E+00  0.00000000000E+00  0.12701677651E+02  0.12701677651E+02  0.00000000000E+00 0. -1.
         22   -1    0    0    0    0 -0.00000000000E+00 -0.00000000000E+00 -0.53433055311E+00  0.53433055311E+00  0.00000000000E+00 0.  1.
          4    1    1    2  501    0 -0.15832075715E+01  0.16424615528E+01  0.92795238900E+01  0.95558249142E+01  0.00000000000E+00 0.  1.
         -4    1    1    2    0  501  0.15832075715E+01 -0.16424615528E+01  0.28878232080E+01  0.36801832900E+01  0.00000000000E+00 0. -1.
<mgrwt>
<rscale>  0 0.22812773E+01</rscale>
<asrwt>0</asrwt>
<pdfrwt beam="1">0</pdfrwt>
<pdfrwt beam="2">0</pdfrwt>
<totfact> 0.24175638E+12</totfact>
</mgrwt>
</event>
<event>
 4    2  0.1060494E+006  0.3056686E+01  0.7546771E-02  0.2504565E+00
         22   -1    0    0    0    0  0.00000000000E+00  0.00000000000E+00  0.59185912940E+01  0.59185912940E+01  0.00000000000E+00 0.  1.
         22   -1    0    0    0    0 -0.00000000000E+00 -0.00000000000E+00 -0.18664252481E+01  0.18664252481E+01  0.00000000000E+00 0. -1.
          4    1    1    2  501    0 -0.72869104941E+00 -0.29685581387E+01  0.49760882600E+00  0.30969247024E+01  0.00000000000E+00 0. -1.
         -4    1    1    2    0  501  0.72869104941E+00  0.29685581387E+01  0.35545572199E+01  0.46880918398E+01  0.00000000000E+00 0.  1.
<mgrwt>
<rscale>  0 0.30566858E+01</rscale>
<asrwt>0</asrwt>
<pdfrwt beam="1">0</pdfrwt>
<pdfrwt beam="2">0</pdfrwt>
<totfact> 0.14540492E+12</totfact>
</mgrwt>
</event>
<event>
 4    2  0.1060494E+006  0.2293135E+01  0.7546771E-02  0.2807409E+00
         22   -1    0    0    0    0  0.00000000000E+00  0.00000000000E+00  0.26703848223E+01  0.26703848223E+01  0.00000000000E+00 0.  1.
         22   -1    0    0    0    0 -0.00000000000E+00 -0.00000000000E+00 -0.58838364469E+01  0.58838364469E+01  0.00000000000E+00 0. -1.
          4    1    1    2  501    0  0.19133817970E+01 -0.12638971861E+01 -0.50954534416E+01  0.55876749882E+01  0.00000000000E+00 0. -1.
         -4    1    1    2    0  501 -0.19133817970E+01  0.12638971861E+01  0.18820018170E+01  0.29665462811E+01  0.00000000000E+00 0.  1.
<mgrwt>
<rscale>  0 0.22931345E+01</rscale>
<asrwt>0</asrwt>
<pdfrwt beam="1">0</pdfrwt>
<pdfrwt beam="2">0</pdfrwt>
<totfact> 0.96628784E+11</totfact>
</mgrwt>
</event>
<event>
 4    2  0.1060494E+006  0.2603497E+01  0.7546771E-02  0.2664588E+00
         22   -1    0    0    0    0  0.00000000000E+00  0.00000000000E+00  0.30014281608E+00  0.30014281608E+00  0.00000000000E+00 0. -1.
         22   -1    0    0    0    0 -0.00000000000E+00 -0.00000000000E+00 -0.27594255698E+02  0.27594255698E+02  0.00000000000E+00 0.  1.
          4    1    1    2  501    0  0.24032158379E+01 -0.10013740406E+01 -0.19590534686E+02  0.19762774239E+02  0.00000000000E+00 0.  1.
         -4    1    1    2    0  501 -0.24032158379E+01  0.10013740406E+01 -0.77035781959E+01  0.81316242752E+01  0.00000000000E+00 0. -1.
<mgrwt>
<rscale>  0 0.26034969E+01</rscale>
<asrwt>0</asrwt>
<pdfrwt beam="1">0</pdfrwt>
<pdfrwt beam="2">0</pdfrwt>
<totfact> 0.17630747E+12</totfact>
</mgrwt>
</event>
<event>
 4    2  0.1060494E+006  0.2036581E+01  0.7546771E-02  0.2956462E+00
         22   -1    0    0    0    0  0.00000000000E+00  0.00000000000E+00  0.17449984403E+00  0.17449984403E+00  0.00000000000E+00 0.  1.
         22   -1    0    0    0    0 -0.00000000000E+00 -0.00000000000E+00 -0.54702366095E+02  0.54702366095E+02  0.00000000000E+00 0. -1.
          4    1    1    2  501    0  0.55039813587E+00  0.19607964979E+01 -0.47897336891E+02  0.47940614746E+02  0.00000000000E+00 0. -1.
         -4    1    1    2    0  501 -0.55039813587E+00 -0.19607964979E+01 -0.66305293603E+01  0.69362511930E+01  0.00000000000E+00 0.  1.
<mgrwt>
<rscale>  0 0.20365807E+01</rscale>
<asrwt>0</asrwt>
<pdfrwt beam="1">0</pdfrwt>
<pdfrwt beam="2">0</pdfrwt>
<totfact> 0.13309874E+12</totfact>
</mgrwt>
</event>
<event>
 4    2  0.1060494E+006  0.2202058E+01  0.7546771E-02  0.2856498E+00
         22   -1    0    0    0    0  0.00000000000E+00  0.00000000000E+00  0.26995292539E+01  0.26995292539E+01  0.00000000000E+00 0.  1.
         22   -1    0    0    0    0 -0.00000000000E+00 -0.00000000000E+00 -0.19831411442E+01  0.19831411442E+01  0.00000000000E+00 0. -1.
          4    1    1    2  501    0  0.19763758520E+01  0.97108157073E+00  0.10769270519E+01  0.24512920675E+01  0.00000000000E+00 0.  1.
         -4    1    1    2    0  501 -0.19763758520E+01 -0.97108157073E+00 -0.36053894227E+00  0.22313783306E+01  0.00000000000E+00 0. -1.
<mgrwt>
<rscale>  0 0.22020583E+01</rscale>
<asrwt>0</asrwt>
<pdfrwt beam="1">0</pdfrwt>
<pdfrwt beam="2">0</pdfrwt>
<totfact> 0.34147954E+12</totfact>
</mgrwt>
</event>
<event>
 4    2  0.1060494E+006  0.2211570E+01  0.7546771E-02  0.2851191E+00
         22   -1    0    0    0    0  0.00000000000E+00  0.00000000000E+00  0.21335845220E+01  0.21335845220E+01  0.00000000000E+00 0. -1.
         22   -1    0    0    0    0 -0.00000000000E+00 -0.00000000000E+00 -0.30447854567E+01  0.30447854567E+01  0.00000000000E+00 0.  1.
          4    1    1    2  501    0 -0.10673060007E+01  0.19369817481E+01 -0.17426741460E+01  0.28156621904E+01  0.00000000000E+00 0.  1.
         -4    1    1    2    0  501  0.10673060007E+01 -0.19369817481E+01  0.83147321133E+00  0.23627077883E+01  0.00000000000E+00 0. -1.
<mgrwt>
<rscale>  0 0.22115697E+01</rscale>
<asrwt>0</asrwt>
<pdfrwt beam="1">0</pdfrwt>
<pdfrwt beam="2">0</pdfrwt>
<totfact> 0.27264221E+12</totfact>
</mgrwt>
</event>
<event>
 4    2  0.1060494E+006  0.3630051E+01  0.7546771E-02  0.2354130E+00
         22   -1    0    0    0    0  0.00000000000E+00  0.00000000000E+00  0.25872941283E+02  0.25872941283E+02  0.00000000000E+00 0.  1.
         22   -1    0    0    0    0 -0.00000000000E+00 -0.00000000000E+00 -0.54748145078E+00  0.54748145078E+00  0.00000000000E+00 0. -1.
          4    1    1    2  501    0 -0.25739037387E+01  0.25597436251E+01  0.91744450049E+01  0.98664942624E+01  0.00000000000E+00 0.  1.
         -4    1    1    2    0  501  0.25739037387E+01 -0.25597436251E+01  0.16151014827E+02  0.16553928471E+02  0.00000000000E+00 0. -1.
<mgrwt>
<rscale>  0 0.36300507E+01</rscale>
<asrwt>0</asrwt>
<pdfrwt beam="1">0</pdfrwt>
<pdfrwt beam="2">0</pdfrwt>
<totfact> 0.97227803E+11</totfact>
</mgrwt>
</event>
<event>
 4    2  0.1060494E+006  0.2751370E+01  0.7546771E-02  0.2607113E+00
         22   -1    0    0    0    0  0.00000000000E+00  0.00000000000E+00  0.17019048272E+00  0.17019048272E+00  0.00000000000E+00 0. -1.
         22   -1    0    0    0    0 -0.00000000000E+00 -0.00000000000E+00 -0.44495615226E+02  0.44495615226E+02  0.00000000000E+00 0.  1.
          4    1    1    2  501    0 -0.25740743960E+01  0.97168930290E+00 -0.21741707770E+02  0.21915106567E+02  0.00000000000E+00 0. -1.
         -4    1    1    2    0  501  0.25740743960E+01 -0.97168930290E+00 -0.22583716974E+02  0.22750699142E+02  0.00000000000E+00 0.  1.
<mgrwt>
<rscale>  0 0.27513704E+01</rscale>
<asrwt>0</asrwt>
<pdfrwt beam="1">0</pdfrwt>
<pdfrwt beam="2">0</pdfrwt>
<totfact> 0.17968136E+12</totfact>
</mgrwt>
</event>
<event>
 4    2  0.1060494E+006  0.2120953E+01  0.7546771E-02  0.2903607E+00
         22   -1    0    0    0    0  0.00000000000E+00  0.00000000000E+00  0.44714853917E+00  0.44714853917E+00  0.00000000000E+00 0. -1.
         22   -1    0    0    0    0 -0.00000000000E+00 -0.00000000000E+00 -0.10752978782E+02  0.10752978782E+02  0.00000000000E+00 0.  1.
          4    1    1    2  501    0  0.17679223737E+01 -0.11717045549E+01 -0.37315695666E+01  0.42922083493E+01  0.00000000000E+00 0. -1.
         -4    1    1    2    0  501 -0.17679223737E+01  0.11717045549E+01 -0.65742606767E+01  0.69079189724E+01  0.00000000000E+00 0.  1.
<mgrwt>
<rscale>  0 0.21209529E+01</rscale>
<asrwt>0</asrwt>
<pdfrwt beam="1">0</pdfrwt>
<pdfrwt beam="2">0</pdfrwt>
<totfact> 0.36207467E+12</totfact>
</mgrwt>
</event>
<event>
 4    2  0.1060494E+006  0.3136029E+01  0.7546771E-02  0.2480866E+00
         22   -1    0    0    0    0  0.00000000000E+00  0.00000000000E+00  0.96240347851E+01  0.96240347851E+01  0.00000000000E+00 0.  1.
         22   -1    0    0    0    0 -0.00000000000E+00 -0.00000000000E+00 -0.10723875440E+01  0.10723875440E+01  0.00000000000E+00 0. -1.
          4    1    1    2  501    0 -0.62428597076E+00  0.30732633032E+01  0.31152337212E+01  0.44203349920E+01  0.00000000000E+00 0. -1.
         -4    1    1    2    0  501  0.62428597076E+00 -0.30732633032E+01  0.54364135199E+01  0.62760873371E+01  0.00000000000E+00 0.  1.
<mgrwt>
<rscale>  0 0.31360294E+01</rscale>
<asrwt>0</asrwt>
<pdfrwt beam="1">0</pdfrwt>
<pdfrwt beam="2">0</pdfrwt>
<totfact> 0.15345698E+12</totfact>
</mgrwt>
</event>
<event>
 4    2  0.1060494E+006  0.2061261E+01  0.7546771E-02  0.2940566E+00
         22   -1    0    0    0    0  0.00000000000E+00  0.00000000000E+00  0.94949444411E+00  0.94949444411E+00  0.00000000000E+00 0.  1.
         22   -1    0    0    0    0 -0.00000000000E+00 -0.00000000000E+00 -0.98457358060E+01  0.98457358060E+01  0.00000000000E+00 0. -1.
          4    1    1    2  501    0  0.54542491475E+00 -0.19877897905E+01 -0.84347224478E+01  0.86829337992E+01  0.00000000000E+00 0. -1.
         -4    1    1    2    0  501 -0.54542491475E+00  0.19877897905E+01 -0.46151891409E+00  0.21122964510E+01  0.00000000000E+00 0.  1.
<mgrwt>
<rscale>  0 0.20612609E+01</rscale>
<asrwt>0</asrwt>
<pdfrwt beam="1">0</pdfrwt>
<pdfrwt beam="2">0</pdfrwt>
<totfact> 0.17153386E+12</totfact>
</mgrwt>
</event>
<event>
 4    2  0.1060494E+006  0.2103687E+01  0.7546771E-02  0.2914088E+00
         22   -1    0    0    0    0  0.00000000000E+00  0.00000000000E+00  0.33604884227E+02  0.33604884227E+02  0.00000000000E+00 0. -1.
         22   -1    0    0    0    0 -0.00000000000E+00 -0.00000000000E+00 -0.97204984862E+00  0.97204984862E+00  0.00000000000E+00 0.  1.
          4    1    1    2  501    0  0.12060699144E+01  0.17236287737E+01  0.24166453613E+00  0.21175227356E+01  0.00000000000E+00 0.  1.
         -4    1    1    2    0  501 -0.12060699144E+01 -0.17236287737E+01  0.32391169842E+02  0.32459411340E+02  0.00000000000E+00 0. -1.
<mgrwt>
<rscale>  0 0.21036874E+01</rscale>
<asrwt>0</asrwt>
<pdfrwt beam="1">0</pdfrwt>
<pdfrwt beam="2">0</pdfrwt>
<totfact> 0.36303293E+11</totfact>
</mgrwt>
</event>
<event>
 4    2  0.1060494E+006  0.5462258E+01  0.7546771E-02  0.2071559E+00
         22   -1    0    0    0    0  0.00000000000E+00  0.00000000000E+00  0.26746542851E+02  0.26746542851E+02  0.00000000000E+00 0. -1.
         22   -1    0    0    0    0 -0.00000000000E+00 -0.00000000000E+00 -0.38236326440E+01  0.38236326440E+01  0.00000000000E+00 0.  1.
          4    1    1    2  501    0 -0.47555197652E+01 -0.26872458806E+01 -0.14021693527E+01  0.56393561294E+01  0.00000000000E+00 0.  1.
         -4    1    1    2    0  501  0.47555197652E+01  0.26872458806E+01  0.24325079560E+02  0.24930819366E+02  0.00000000000E+00 0. -1.
<mgrwt>
<rscale>  0 0.54622577E+01</rscale>
<asrwt>0</asrwt>
<pdfrwt beam="1">0</pdfrwt>
<pdfrwt beam="2">0</pdfrwt>
<totfact> 0.99558673E+10</totfact>
</mgrwt>
</event>
<event>
 4    2  0.1060494E+006  0.3076256E+01  0.7546771E-02  0.2498618E+00
         22   -1    0    0    0    0  0.00000000000E+00  0.00000000000E+00  0.49794416467E+02  0.49794416467E+02  0.00000000000E+00 0. -1.
         22   -1    0    0    0    0 -0.00000000000E+00 -0.00000000000E+00 -0.58394554729E+00  0.58394554729E+00  0.00000000000E+00 0.  1.
          4    1    1    2  501    0  0.17076525238E+01 -0.25587637388E+01  0.39171981283E+01  0.49807419317E+01  0.00000000000E+00 0.  1.
         -4    1    1    2    0  501 -0.17076525238E+01  0.25587637388E+01  0.45293272791E+02  0.45397620082E+02  0.00000000000E+00 0. -1.
<mgrwt>
<rscale>  0 0.30762557E+01</rscale>
<asrwt>0</asrwt>
<pdfrwt beam="1">0</pdfrwt>
<pdfrwt beam="2">0</pdfrwt>
<totfact> 0.38858449E+11</totfact>
</mgrwt>
</event>
<event>
 4    2  0.1060494E+006  0.2773538E+01  0.7546771E-02  0.2598981E+00
         22   -1    0    0    0    0  0.00000000000E+00  0.00000000000E+00  0.72998229696E+01  0.72998229696E+01  0.00000000000E+00 0.  1.
         22   -1    0    0    0    0 -0.00000000000E+00 -0.00000000000E+00 -0.16472917642E+01  0.16472917642E+01  0.00000000000E+00 0. -1.
          4    1    1    2  501    0 -0.26936798751E+01  0.66075810832E+00  0.14106246758E+00  0.27771228218E+01  0.00000000000E+00 0.  1.
         -4    1    1    2    0  501  0.26936798751E+01 -0.66075810832E+00  0.55114687377E+01  0.61699919120E+01  0.00000000000E+00 0. -1.
<mgrwt>
<rscale>  0 0.27735379E+01</rscale>
<asrwt>0</asrwt>
<pdfrwt beam="1">0</pdfrwt>
<pdfrwt beam="2">0</pdfrwt>
<totfact> 0.13074863E+12</totfact>
</mgrwt>
</event>
<event>
 4    2  0.1060494E+006  0.2608180E+01  0.7546771E-02  0.2662676E+00
         22   -1    0    0    0    0  0.00000000000E+00  0.00000000000E+00  0.48297631866E+00  0.48297631866E+00  0.00000000000E+00 0. -1.
         22   -1    0    0    0    0 -0.00000000000E+00 -0.00000000000E+00 -0.16204876621E+02  0.16204876621E+02  0.00000000000E+00 0.  1.
          4    1    1    2  501    0  0.66078771541E+00  0.25230858028E+01 -0.10879012098E+02  0.11187292193E+02  0.00000000000E+00 0.  1.
         -4    1    1    2    0  501 -0.66078771541E+00 -0.25230858028E+01 -0.48428882047E+01  0.55005607475E+01  0.00000000000E+00 0. -1.
<mgrwt>
<rscale>  0 0.26081799E+01</rscale>
<asrwt>0</asrwt>
<pdfrwt beam="1">0</pdfrwt>
<pdfrwt beam="2">0</pdfrwt>
<totfact> 0.20091945E+12</totfact>
</mgrwt>
</event>
<event>
 4    2  0.1060494E+006  0.2043695E+01  0.7546771E-02  0.2951842E+00
         22   -1    0    0    0    0  0.00000000000E+00  0.00000000000E+00  0.13784069792E+02  0.13784069792E+02  0.00000000000E+00 0.  1.
         22   -1    0    0    0    0 -0.00000000000E+00 -0.00000000000E+00 -0.27651890732E+01  0.27651890732E+01  0.00000000000E+00 0. -1.
          4    1    1    2  501    0 -0.86959350098E+00  0.18494578606E+01 -0.22986729569E+01  0.30758063330E+01  0.00000000000E+00 0. -1.
         -4    1    1    2    0  501  0.86959350098E+00 -0.18494578606E+01  0.13317553675E+02  0.13473452532E+02  0.00000000000E+00 0.  1.
<mgrwt>
<rscale>  0 0.20436945E+01</rscale>
<asrwt>0</asrwt>
<pdfrwt beam="1">0</pdfrwt>
<pdfrwt beam="2">0</pdfrwt>
<totfact> 0.33206007E+11</totfact>
</mgrwt>
</event>
<event>
 4    2  0.1060494E+006  0.4205418E+01  0.7546771E-02  0.2239668E+00
         22   -1    0    0    0    0  0.00000000000E+00  0.00000000000E+00  0.24534785156E+02  0.24534785156E+02  0.00000000000E+00 0.  1.
         22   -1    0    0    0    0 -0.00000000000E+00 -0.00000000000E+00 -0.16004073276E+01  0.16004073276E+01  0.00000000000E+00 0. -1.
          4    1    1    2  501    0 -0.10905059437E+01 -0.40615681409E+01  0.17795900224E+01  0.45664515353E+01  0.00000000000E+00 0. -1.
         -4    1    1    2    0  501  0.10905059437E+01  0.40615681409E+01  0.21154787806E+02  0.21568740948E+02  0.00000000000E+00 0.  1.
<mgrwt>
<rscale>  0 0.42054178E+01</rscale>
<asrwt>0</asrwt>
<pdfrwt beam="1">0</pdfrwt>
<pdfrwt beam="2">0</pdfrwt>
<totfact> 0.30576755E+11</totfact>
</mgrwt>
</event>
<event>
 4    2  0.1060494E+006  0.2819890E+01  0.7546771E-02  0.2582354E+00
         22   -1    0    0    0    0  0.00000000000E+00  0.00000000000E+00  0.39026004594E+00  0.39026004594E+00  0.00000000000E+00 0. -1.
         22   -1    0    0    0    0 -0.00000000000E+00 -0.00000000000E+00 -0.87200231151E+02  0.87200231151E+02  0.00000000000E+00 0.  1.
          4    1    1    2  501    0 -0.12921262133E+01  0.25064299805E+01 -0.81743602620E+02  0.81792226713E+02  0.00000000000E+00 0.  1.
         -4    1    1    2    0  501  0.12921262133E+01 -0.25064299805E+01 -0.50663684852E+01  0.57982644840E+01  0.00000000000E+00 0. -1.
<mgrwt>
<rscale>  0 0.28198903E+01</rscale>
<asrwt>0</asrwt>
<pdfrwt beam="1">0</pdfrwt>
<pdfrwt beam="2">0</pdfrwt>
<totfact> 0.28732972E+11</totfact>
</mgrwt>
</event>
<event>
 4    2  0.1060494E+006  0.2178119E+01  0.7546771E-02  0.2870052E+00
         22   -1    0    0    0    0  0.00000000000E+00  0.00000000000E+00  0.42941744735E+00  0.42941744735E+00  0.00000000000E+00 0.  1.
         22   -1    0    0    0    0 -0.00000000000E+00 -0.00000000000E+00 -0.16012836637E+02  0.16012836637E+02  0.00000000000E+00 0. -1.
          4    1    1    2  501    0 -0.11858268421E+01 -0.18270235700E+01 -0.12369438440E+02  0.12559745529E+02  0.00000000000E+00 0. -1.
         -4    1    1    2    0  501  0.11858268421E+01  0.18270235700E+01 -0.32139807488E+01  0.38825085548E+01  0.00000000000E+00 0.  1.
<mgrwt>
<rscale>  0 0.21781186E+01</rscale>
<asrwt>0</asrwt>
<pdfrwt beam="1">0</pdfrwt>
<pdfrwt beam="2">0</pdfrwt>
<totfact> 0.23278465E+12</totfact>
</mgrwt>
</event>
<event>
 4    2  0.1060494E+006  0.3360246E+01  0.7546771E-02  0.2419293E+00
         22   -1    0    0    0    0  0.00000000000E+00  0.00000000000E+00  0.79603542932E+00  0.79603542932E+00  0.00000000000E+00 0.  1.
         22   -1    0    0    0    0 -0.00000000000E+00 -0.00000000000E+00 -0.14549016384E+02  0.14549016384E+02  0.00000000000E+00 0. -1.
          4    1    1    2  501    0  0.11971868996E+01  0.31397445070E+01 -0.80911771075E+01  0.87611870786E+01  0.00000000000E+00 0. -1.
         -4    1    1    2    0  501 -0.11971868996E+01 -0.31397445070E+01 -0.56618038475E+01  0.65838647350E+01  0.00000000000E+00 0.  1.
<mgrwt>
<rscale>  0 0.33602458E+01</rscale>
<asrwt>0</asrwt>
<pdfrwt beam="1">0</pdfrwt>
<pdfrwt beam="2">0</pdfrwt>
<totfact> 0.13026606E+12</totfact>
</mgrwt>
</event>
<event>
 4    2  0.1060494E+006  0.4738249E+01  0.7546771E-02  0.2155607E+00
         22   -1    0    0    0    0  0.00000000000E+00  0.00000000000E+00  0.11494775544E+02  0.11494775544E+02  0.00000000000E+00 0.  1.
         22   -1    0    0    0    0 -0.00000000000E+00 -0.00000000000E+00 -0.19568580060E+01  0.19568580060E+01  0.00000000000E+00 0. -1.
          4    1    1    2  501    0 -0.47299001054E+01 -0.28115072421E+00  0.50618039294E+01  0.69334594365E+01  0.00000000000E+00 0.  1.
         -4    1    1    2    0  501  0.47299001054E+01  0.28115072421E+00  0.44761136084E+01  0.65181741134E+01  0.00000000000E+00 0. -1.
<mgrwt>
<rscale>  0 0.47382487E+01</rscale>
<asrwt>0</asrwt>
<pdfrwt beam="1">0</pdfrwt>
<pdfrwt beam="2">0</pdfrwt>
<totfact> 0.61947830E+11</totfact>
</mgrwt>
</event>
<event>
 4    2  0.1060494E+006  0.8439769E+01  0.7546771E-02  0.1851891E+00
         22   -1    0    0    0    0  0.00000000000E+00  0.00000000000E+00  0.71909873360E+01  0.71909873360E+01  0.00000000000E+00 0. -1.
         22   -1    0    0    0    0 -0.00000000000E+00 -0.00000000000E+00 -0.11039533926E+02  0.11039533926E+02  0.00000000000E+00 0.  1.
          4    1    1    2  501    0  0.29974899115E+01  0.78895344091E+01 -0.48458911928E+01  0.97320275593E+01  0.00000000000E+00 0.  1.
         -4    1    1    2    0  501 -0.29974899115E+01 -0.78895344091E+01  0.99734460270E+00  0.84984937029E+01  0.00000000000E+00 0. -1.
<mgrwt>
<rscale>  0 0.84397689E+01</rscale>
<asrwt>0</asrwt>
<pdfrwt beam="1">0</pdfrwt>
<pdfrwt beam="2">0</pdfrwt>
<totfact> 0.14090806E+11</totfact>
</mgrwt>
</event>
<event>
 4    2  0.1060494E+006  0.2202622E+01  0.7546771E-02  0.2856182E+00
         22   -1    0    0    0    0  0.00000000000E+00  0.00000000000E+00  0.24593045901E+01  0.24593045901E+01  0.00000000000E+00 0.  1.
         22   -1    0    0    0    0 -0.00000000000E+00 -0.00000000000E+00 -0.26423660008E+01  0.26423660008E+01  0.00000000000E+00 0. -1.
          4    1    1    2  501    0 -0.10820379189E+01 -0.19185244435E+01 -0.13756505917E+01  0.25969129074E+01  0.00000000000E+00 0. -1.
         -4    1    1    2    0  501  0.10820379189E+01  0.19185244435E+01  0.11925891809E+01  0.25047576835E+01  0.00000000000E+00 0.  1.
<mgrwt>
<rscale>  0 0.22026216E+01</rscale>
<asrwt>0</asrwt>
<pdfrwt beam="1">0</pdfrwt>
<pdfrwt beam="2">0</pdfrwt>
<totfact> 0.27276212E+12</totfact>
</mgrwt>
</event>
<event>
 4    2  0.1060494E+006  0.2077084E+01  0.7546771E-02  0.2930567E+00
         22   -1    0    0    0    0  0.00000000000E+00  0.00000000000E+00  0.21766321257E+01  0.21766321257E+01  0.00000000000E+00 0.  1.
         22   -1    0    0    0    0 -0.00000000000E+00 -0.00000000000E+00 -0.23669376542E+01  0.23669376542E+01  0.00000000000E+00 0. -1.
          4    1    1    2  501    0 -0.68935240960E+00 -0.19593552923E+01 -0.10112012120E+01  0.23101531978E+01  0.00000000000E+00 0. -1.
         -4    1    1    2    0  501  0.68935240960E+00  0.19593552923E+01  0.82089568346E+00  0.22334165821E+01  0.00000000000E+00 0.  1.
<mgrwt>
<rscale>  0 0.20770845E+01</rscale>
<asrwt>0</asrwt>
<pdfrwt beam="1">0</pdfrwt>
<pdfrwt beam="2">0</pdfrwt>
<totfact> 0.35723358E+12</totfact>
</mgrwt>
</event>
<event>
 4    2  0.1060494E+006  0.2699224E+01  0.7546771E-02  0.2626722E+00
         22   -1    0    0    0    0  0.00000000000E+00  0.00000000000E+00  0.36280293049E+01  0.36280293049E+01  0.00000000000E+00 0.  1.
         22   -1    0    0    0    0 -0.00000000000E+00 -0.00000000000E+00 -0.30994739361E+01  0.30994739361E+01  0.00000000000E+00 0. -1.
          4    1    1    2  501    0  0.74887523811E+00  0.25932601871E+01 -0.17316582343E+01  0.32069382221E+01  0.00000000000E+00 0. -1.
         -4    1    1    2    0  501 -0.74887523811E+00 -0.25932601871E+01  0.22602136031E+01  0.35205650189E+01  0.00000000000E+00 0.  1.
<mgrwt>
<rscale>  0 0.26992244E+01</rscale>
<asrwt>0</asrwt>
<pdfrwt beam="1">0</pdfrwt>
<pdfrwt beam="2">0</pdfrwt>
<totfact> 0.14377997E+12</totfact>
</mgrwt>
</event>
<event>
 4    2  0.1060494E+006  0.2807575E+01  0.7546771E-02  0.2586723E+00
         22   -1    0    0    0    0  0.00000000000E+00  0.00000000000E+00  0.25008972262E+01  0.25008972262E+01  0.00000000000E+00 0. -1.
         22   -1    0    0    0    0 -0.00000000000E+00 -0.00000000000E+00 -0.41385702872E+01  0.41385702872E+01  0.00000000000E+00 0.  1.
          4    1    1    2  501    0  0.22250417524E+01  0.17122110734E+01 -0.24397989551E+01  0.37195559548E+01  0.00000000000E+00 0.  1.
         -4    1    1    2    0  501 -0.22250417524E+01 -0.17122110734E+01  0.80212589422E+00  0.29199115586E+01  0.00000000000E+00 0. -1.
<mgrwt>
<rscale>  0 0.28075750E+01</rscale>
<asrwt>0</asrwt>
<pdfrwt beam="1">0</pdfrwt>
<pdfrwt beam="2">0</pdfrwt>
<totfact> 0.15817722E+12</totfact>
</mgrwt>
</event>
<event>
 4    2  0.1060494E+006  0.2612749E+01  0.7546771E-02  0.2660817E+00
         22   -1    0    0    0    0  0.00000000000E+00  0.00000000000E+00  0.19247171976E+03  0.19247171976E+03  0.00000000000E+00 0.  1.
         22   -1    0    0    0    0 -0.00000000000E+00 -0.00000000000E+00 -0.46754622742E-01  0.46754622742E-01  0.00000000000E+00 0. -1.
          4    1    1    2  501    0  0.20190922156E+01  0.16582285003E+01  0.14350858121E+03  0.14353236338E+03  0.00000000000E+00 0.  1.
         -4    1    1    2    0  501 -0.20190922156E+01 -0.16582285003E+01  0.48916383927E+02  0.48986111008E+02  0.00000000000E+00 0. -1.
<mgrwt>
<rscale>  0 0.26127486E+01</rscale>
<asrwt>0</asrwt>
<pdfrwt beam="1">0</pdfrwt>
<pdfrwt beam="2">0</pdfrwt>
<totfact> 0.95654467E+11</totfact>
</mgrwt>
</event>
<event>
 4    2  0.1060494E+006  0.3526472E+01  0.7546771E-02  0.2378118E+00
         22   -1    0    0    0    0  0.00000000000E+00  0.00000000000E+00  0.32360180882E+02  0.32360180882E+02  0.00000000000E+00 0.  1.
         22   -1    0    0    0    0 -0.00000000000E+00 -0.00000000000E+00 -0.52925408839E+00  0.52925408839E+00  0.00000000000E+00 0. -1.
          4    1    1    2  501    0 -0.24392771600E+01  0.25467496643E+01  0.73092912055E+01  0.81155249271E+01  0.00000000000E+00 0. -1.
         -4    1    1    2    0  501  0.24392771600E+01 -0.25467496643E+01  0.24521635588E+02  0.24773910043E+02  0.00000000000E+00 0.  1.
<mgrwt>
<rscale>  0 0.35264723E+01</rscale>
<asrwt>0</asrwt>
<pdfrwt beam="1">0</pdfrwt>
<pdfrwt beam="2">0</pdfrwt>
<totfact> 0.76004576E+11</totfact>
</mgrwt>
</event>
<event>
 4    2  0.1060494E+006  0.2836288E+01  0.7546771E-02  0.2576591E+00
         22   -1    0    0    0    0  0.00000000000E+00  0.00000000000E+00  0.50568681637E+01  0.50568681637E+01  0.00000000000E+00 0.  1.
         22   -1    0    0    0    0 -0.00000000000E+00 -0.00000000000E+00 -0.17785324886E+01  0.17785324886E+01  0.00000000000E+00 0. -1.
          4    1    1    2  501    0 -0.28083621961E+01 -0.39702757732E+00  0.52882184429E+00  0.28851657950E+01  0.00000000000E+00 0. -1.
         -4    1    1    2    0  501  0.28083621961E+01  0.39702757732E+00  0.27495138308E+01  0.39502348573E+01  0.00000000000E+00 0.  1.
<mgrwt>
<rscale>  0 0.28362879E+01</rscale>
<asrwt>0</asrwt>
<pdfrwt beam="1">0</pdfrwt>
<pdfrwt beam="2">0</pdfrwt>
<totfact> 0.18531036E+12</totfact>
</mgrwt>
</event>
<event>
 4    2  0.1060494E+006  0.3301800E+01  0.7546771E-02  0.2434631E+00
         22   -1    0    0    0    0  0.00000000000E+00  0.00000000000E+00  0.11650869230E+02  0.11650869230E+02  0.00000000000E+00 0. -1.
         22   -1    0    0    0    0 -0.00000000000E+00 -0.00000000000E+00 -0.22930452799E+01  0.22930452799E+01  0.00000000000E+00 0.  1.
          4    1    1    2  501    0  0.27309841370E+01  0.18556971014E+01 -0.68511885799E+00  0.33721319575E+01  0.00000000000E+00 0.  1.
         -4    1    1    2    0  501 -0.27309841370E+01 -0.18556971014E+01  0.10042942808E+02  0.10571782552E+02  0.00000000000E+00 0. -1.
<mgrwt>
<rscale>  0 0.33018004E+01</rscale>
<asrwt>0</asrwt>
<pdfrwt beam="1">0</pdfrwt>
<pdfrwt beam="2">0</pdfrwt>
<totfact> 0.50710502E+11</totfact>
</mgrwt>
</event>
<event>
 4    2  0.1060494E+006  0.2312482E+01  0.7546771E-02  0.2797455E+00
         22   -1    0    0    0    0  0.00000000000E+00  0.00000000000E+00  0.55986209338E+01  0.55986209338E+01  0.00000000000E+00 0. -1.
         22   -1    0    0    0    0 -0.00000000000E+00 -0.00000000000E+00 -0.15719216738E+01  0.15719216738E+01  0.00000000000E+00 0.  1.
          4    1    1    2  501    0 -0.22943758018E+01 -0.28881303904E+00 -0.23242208585E+00  0.23241328097E+01  0.00000000000E+00 0.  1.
         -4    1    1    2    0  501  0.22943758018E+01  0.28881303904E+00  0.42591213458E+01  0.48464097979E+01  0.00000000000E+00 0. -1.
<mgrwt>
<rscale>  0 0.23124821E+01</rscale>
<asrwt>0</asrwt>
<pdfrwt beam="1">0</pdfrwt>
<pdfrwt beam="2">0</pdfrwt>
<totfact> 0.18936549E+12</totfact>
</mgrwt>
</event>
<event>
 4    2  0.1060494E+006  0.3319329E+01  0.7546771E-02  0.2429981E+00
         22   -1    0    0    0    0  0.00000000000E+00  0.00000000000E+00  0.46050324870E+01  0.46050324870E+01  0.00000000000E+00 0.  1.
         22   -1    0    0    0    0 -0.00000000000E+00 -0.00000000000E+00 -0.32891880995E+01  0.32891880995E+01  0.00000000000E+00 0. -1.
          4    1    1    2  501    0  0.10696377975E+01 -0.31422638496E+01 -0.14028700512E+01  0.36036081223E+01  0.00000000000E+00 0.  1.
         -4    1    1    2    0  501 -0.10696377975E+01  0.31422638496E+01  0.27187144388E+01  0.42906124642E+01  0.00000000000E+00 0. -1.
<mgrwt>
<rscale>  0 0.33193293E+01</rscale>
<asrwt>0</asrwt>
<pdfrwt beam="1">0</pdfrwt>
<pdfrwt beam="2">0</pdfrwt>
<totfact> 0.10129300E+12</totfact>
</mgrwt>
</event>
<event>
 4    2  0.1060494E+006  0.3265105E+01  0.7546771E-02  0.2444508E+00
         22   -1    0    0    0    0  0.00000000000E+00  0.00000000000E+00  0.98787768392E+01  0.98787768392E+01  0.00000000000E+00 0. -1.
         22   -1    0    0    0    0 -0.00000000000E+00 -0.00000000000E+00 -0.18433544352E+01  0.18433544352E+01  0.00000000000E+00 0.  1.
          4    1    1    2  501    0  0.20389575545E+01  0.25502087917E+01  0.24398575720E+00  0.32742085823E+01  0.00000000000E+00 0.  1.
         -4    1    1    2    0  501 -0.20389575545E+01 -0.25502087917E+01  0.77914366468E+01  0.84479226921E+01  0.00000000000E+00 0. -1.
<mgrwt>
<rscale>  0 0.32651053E+01</rscale>
<asrwt>0</asrwt>
<pdfrwt beam="1">0</pdfrwt>
<pdfrwt beam="2">0</pdfrwt>
<totfact> 0.79779430E+11</totfact>
</mgrwt>
</event>
<event>
 4    2  0.1060494E+006  0.2157751E+01  0.7546771E-02  0.2881811E+00
         22   -1    0    0    0    0  0.00000000000E+00  0.00000000000E+00  0.94572036185E+00  0.94572036185E+00  0.00000000000E+00 0. -1.
         22   -1    0    0    0    0 -0.00000000000E+00 -0.00000000000E+00 -0.49459357351E+01  0.49459357351E+01  0.00000000000E+00 0.  1.
          4    1    1    2  501    0 -0.14483564785E+01 -0.15994231958E+01 -0.18000116780E+01  0.28099703004E+01  0.00000000000E+00 0. -1.
         -4    1    1    2    0  501  0.14483564785E+01  0.15994231958E+01 -0.22002036953E+01  0.30816857966E+01  0.00000000000E+00 0.  1.
<mgrwt>
<rscale>  0 0.21577514E+01</rscale>
<asrwt>0</asrwt>
<pdfrwt beam="1">0</pdfrwt>
<pdfrwt beam="2">0</pdfrwt>
<totfact> 0.39267890E+12</totfact>
</mgrwt>
</event>
<event>
 4    2  0.1060494E+006  0.3103366E+01  0.7546771E-02  0.2490491E+00
         22   -1    0    0    0    0  0.00000000000E+00  0.00000000000E+00  0.35155271292E+00  0.35155271292E+00  0.00000000000E+00 0.  1.
         22   -1    0    0    0    0 -0.00000000000E+00 -0.00000000000E+00 -0.29163726335E+02  0.29163726335E+02  0.00000000000E+00 0. -1.
          4    1    1    2  501    0 -0.28101464912E+01  0.13167973974E+01 -0.18040158915E+02  0.18305141692E+02  0.00000000000E+00 0.  1.
         -4    1    1    2    0  501  0.28101464912E+01 -0.13167973974E+01 -0.10772014707E+02  0.11210137356E+02  0.00000000000E+00 0. -1.
<mgrwt>
<rscale>  0 0.31033657E+01</rscale>
<asrwt>0</asrwt>
<pdfrwt beam="1">0</pdfrwt>
<pdfrwt beam="2">0</pdfrwt>
<totfact> 0.13762359E+12</totfact>
</mgrwt>
</event>
<event>
 4    2  0.1060494E+006  0.4977548E+01  0.7546771E-02  0.2125693E+00
         22   -1    0    0    0    0  0.00000000000E+00  0.00000000000E+00  0.53834125918E+01  0.53834125918E+01  0.00000000000E+00 0.  1.
         22   -1    0    0    0    0 -0.00000000000E+00 -0.00000000000E+00 -0.13141460429E+02  0.13141460429E+02  0.00000000000E+00 0. -1.
          4    1    1    2  501    0 -0.46750955656E+01  0.17086446728E+01 -0.11345427508E+02  0.12389298225E+02  0.00000000000E+00 0. -1.
         -4    1    1    2    0  501  0.46750955656E+01 -0.17086446728E+01  0.35873796712E+01  0.61355747955E+01  0.00000000000E+00 0.  1.
<mgrwt>
<rscale>  0 0.49775481E+01</rscale>
<asrwt>0</asrwt>
<pdfrwt beam="1">0</pdfrwt>
<pdfrwt beam="2">0</pdfrwt>
<totfact> 0.16086699E+11</totfact>
</mgrwt>
</event>
<event>
 4    2  0.1060494E+006  0.2661111E+01  0.7546771E-02  0.2641498E+00
         22   -1    0    0    0    0  0.00000000000E+00  0.00000000000E+00  0.21888663243E+02  0.21888663243E+02  0.00000000000E+00 0.  1.
         22   -1    0    0    0    0 -0.00000000000E+00 -0.00000000000E+00 -0.44420700811E+00  0.44420700811E+00  0.00000000000E+00 0. -1.
          4    1    1    2  501    0 -0.25701336537E+01 -0.68987241166E+00  0.49019376868E+01  0.55776790896E+01  0.00000000000E+00 0. -1.
         -4    1    1    2    0  501  0.25701336537E+01  0.68987241166E+00  0.16542518548E+02  0.16755191161E+02  0.00000000000E+00 0.  1.
<mgrwt>
<rscale>  0 0.26611108E+01</rscale>
<asrwt>0</asrwt>
<pdfrwt beam="1">0</pdfrwt>
<pdfrwt beam="2">0</pdfrwt>
<totfact> 0.15193192E+12</totfact>
</mgrwt>
</event>
<event>
 4    2  0.1060494E+006  0.3749345E+01  0.7546771E-02  0.2327931E+00
         22   -1    0    0    0    0  0.00000000000E+00  0.00000000000E+00  0.51386784463E+01  0.51386784463E+01  0.00000000000E+00 0. -1.
         22   -1    0    0    0    0 -0.00000000000E+00 -0.00000000000E+00 -0.32342801690E+01  0.32342801690E+01  0.00000000000E+00 0.  1.
          4    1    1    2  501    0  0.23554484331E+01 -0.29170963453E+01 -0.69161444660E+00  0.38126000251E+01  0.00000000000E+00 0.  1.
         -4    1    1    2    0  501 -0.23554484331E+01  0.29170963453E+01  0.25960127239E+01  0.45603585902E+01  0.00000000000E+00 0. -1.
<mgrwt>
<rscale>  0 0.37493451E+01</rscale>
<asrwt>0</asrwt>
<pdfrwt beam="1">0</pdfrwt>
<pdfrwt beam="2">0</pdfrwt>
<totfact> 0.90740664E+11</totfact>
</mgrwt>
</event>
<event>
 4    2  0.1060494E+006  0.2057916E+01  0.7546771E-02  0.2942698E+00
         22   -1    0    0    0    0  0.00000000000E+00  0.00000000000E+00  0.29710143092E+01  0.29710143092E+01  0.00000000000E+00 0. -1.
         22   -1    0    0    0    0 -0.00000000000E+00 -0.00000000000E+00 -0.49399674845E+01  0.49399674845E+01  0.00000000000E+00 0.  1.
          4    1    1    2  501    0 -0.20494638716E+01 -0.18632664439E+00 -0.43208254786E+01  0.47858700981E+01  0.00000000000E+00 0.  1.
         -4    1    1    2    0  501  0.20494638716E+01  0.18632664439E+00  0.23518723033E+01  0.31251116956E+01  0.00000000000E+00 0. -1.
<mgrwt>
<rscale>  0 0.20579164E+01</rscale>
<asrwt>0</asrwt>
<pdfrwt beam="1">0</pdfrwt>
<pdfrwt beam="2">0</pdfrwt>
<totfact> 0.10498980E+12</totfact>
</mgrwt>
</event>
<event>
 4    2  0.1060494E+006  0.2737801E+01  0.7546771E-02  0.2612150E+00
         22   -1    0    0    0    0  0.00000000000E+00  0.00000000000E+00  0.11048756675E+02  0.11048756675E+02  0.00000000000E+00 0.  1.
         22   -1    0    0    0    0 -0.00000000000E+00 -0.00000000000E+00 -0.72200726274E+00  0.72200726274E+00  0.00000000000E+00 0. -1.
          4    1    1    2  501    0  0.77707919811E+00 -0.26252047788E+01  0.37171053901E+01  0.46165381718E+01  0.00000000000E+00 0. -1.
         -4    1    1    2    0  501 -0.77707919811E+00  0.26252047788E+01  0.66096440222E+01  0.71542257660E+01  0.00000000000E+00 0.  1.
<mgrwt>
<rscale>  0 0.27378006E+01</rscale>
<asrwt>0</asrwt>
<pdfrwt beam="1">0</pdfrwt>
<pdfrwt beam="2">0</pdfrwt>
<totfact> 0.20373673E+12</totfact>
</mgrwt>
</event>
<event>
 4    2  0.1060494E+006  0.3079312E+01  0.7546771E-02  0.2497696E+00
         22   -1    0    0    0    0  0.00000000000E+00  0.00000000000E+00  0.67188937934E+01  0.67188937934E+01  0.00000000000E+00 0.  1.
         22   -1    0    0    0    0 -0.00000000000E+00 -0.00000000000E+00 -0.15144335063E+01  0.15144335063E+01  0.00000000000E+00 0. -1.
          4    1    1    2  501    0  0.51580046888E-01  0.30788796570E+01  0.36766829308E+01  0.47958479769E+01  0.00000000000E+00 0.  1.
         -4    1    1    2    0  501 -0.51580046888E-01 -0.30788796570E+01  0.15277773563E+01  0.34374793228E+01  0.00000000000E+00 0. -1.
<mgrwt>
<rscale>  0 0.30793117E+01</rscale>
<asrwt>0</asrwt>
<pdfrwt beam="1">0</pdfrwt>
<pdfrwt beam="2">0</pdfrwt>
<totfact> 0.15906855E+12</totfact>
</mgrwt>
</event>
<event>
 4    2  0.1060494E+006  0.2154418E+01  0.7546771E-02  0.2883755E+00
         22   -1    0    0    0    0  0.00000000000E+00  0.00000000000E+00  0.28454004277E-01  0.28454004277E-01  0.00000000000E+00 0.  1.
         22   -1    0    0    0    0 -0.00000000000E+00 -0.00000000000E+00 -0.16517286176E+03  0.16517286176E+03  0.00000000000E+00 0. -1.
          4    1    1    2  501    0 -0.93949318740E+00  0.19387804355E+01 -0.91772938565E+02  0.91798223130E+02  0.00000000000E+00 0.  1.
         -4    1    1    2    0  501  0.93949318740E+00 -0.19387804355E+01 -0.73371469193E+02  0.73403092636E+02  0.00000000000E+00 0. -1.
<mgrwt>
<rscale>  0 0.21544180E+01</rscale>
<asrwt>0</asrwt>
<pdfrwt beam="1">0</pdfrwt>
<pdfrwt beam="2">0</pdfrwt>
<totfact> 0.20826848E+12</totfact>
</mgrwt>
</event>
<event>
 4    2  0.1060494E+006  0.2079335E+01  0.7546771E-02  0.2929157E+00
         22   -1    0    0    0    0  0.00000000000E+00  0.00000000000E+00  0.21957492883E+00  0.21957492883E+00  0.00000000000E+00 0. -1.
         22   -1    0    0    0    0 -0.00000000000E+00 -0.00000000000E+00 -0.21199935628E+02  0.21199935628E+02  0.00000000000E+00 0.  1.
          4    1    1    2  501    0  0.43410052995E-01 -0.20788819818E+01 -0.13347491868E+02  0.13508485256E+02  0.00000000000E+00 0.  1.
         -4    1    1    2    0  501 -0.43410052995E-01  0.20788819818E+01 -0.76328688304E+01  0.79110253008E+01  0.00000000000E+00 0. -1.
<mgrwt>
<rscale>  0 0.20793352E+01</rscale>
<asrwt>0</asrwt>
<pdfrwt beam="1">0</pdfrwt>
<pdfrwt beam="2">0</pdfrwt>
<totfact> 0.34857400E+12</totfact>
</mgrwt>
</event>
<event>
 4    2  0.1060494E+006  0.2731564E+01  0.7546771E-02  0.2614480E+00
         22   -1    0    0    0    0  0.00000000000E+00  0.00000000000E+00  0.11190681469E+01  0.11190681469E+01  0.00000000000E+00 0. -1.
         22   -1    0    0    0    0 -0.00000000000E+00 -0.00000000000E+00 -0.78333765147E+01  0.78333765147E+01  0.00000000000E+00 0.  1.
          4    1    1    2  501    0 -0.51511180229E-01  0.27310784957E+01 -0.50840019702E+01  0.57713533235E+01  0.00000000000E+00 0.  1.
         -4    1    1    2    0  501  0.51511180229E-01 -0.27310784957E+01 -0.16303063976E+01  0.31810913381E+01  0.00000000000E+00 0. -1.
<mgrwt>
<rscale>  0 0.27315642E+01</rscale>
<asrwt>0</asrwt>
<pdfrwt beam="1">0</pdfrwt>
<pdfrwt beam="2">0</pdfrwt>
<totfact> 0.18729987E+12</totfact>
</mgrwt>
</event>
<event>
 4    2  0.1060494E+006  0.6252121E+01  0.7546771E-02  0.1997789E+00
         22   -1    0    0    0    0  0.00000000000E+00  0.00000000000E+00  0.63197542455E+01  0.63197542455E+01  0.00000000000E+00 0.  1.
         22   -1    0    0    0    0 -0.00000000000E+00 -0.00000000000E+00 -0.14991901906E+02  0.14991901906E+02  0.00000000000E+00 0. -1.
          4    1    1    2  501    0  0.43220219685E+01 -0.45176475224E+01 -0.12503123890E+02  0.13979167359E+02  0.00000000000E+00 0. -1.
         -4    1    1    2    0  501 -0.43220219685E+01  0.45176475224E+01  0.38309762292E+01  0.73324887931E+01  0.00000000000E+00 0.  1.
<mgrwt>
<rscale>  0 0.62521207E+01</rscale>
<asrwt>0</asrwt>
<pdfrwt beam="1">0</pdfrwt>
<pdfrwt beam="2">0</pdfrwt>
<totfact> 0.11309063E+11</totfact>
</mgrwt>
</event>
<event>
 4    2  0.1060494E+006  0.2061060E+01  0.7546771E-02  0.2940694E+00
         22   -1    0    0    0    0  0.00000000000E+00  0.00000000000E+00  0.60057832757E+00  0.60057832757E+00  0.00000000000E+00 0. -1.
         22   -1    0    0    0    0 -0.00000000000E+00 -0.00000000000E+00 -0.72952840278E+01  0.72952840278E+01  0.00000000000E+00 0.  1.
          4    1    1    2  501    0  0.44254926641E+00  0.20129874169E+01 -0.40362846084E+01  0.45320593149E+01  0.00000000000E+00 0. -1.
         -4    1    1    2    0  501 -0.44254926641E+00 -0.20129874169E+01 -0.26584210919E+01  0.33638030405E+01  0.00000000000E+00 0.  1.
<mgrwt>
<rscale>  0 0.20610600E+01</rscale>
<asrwt>0</asrwt>
<pdfrwt beam="1">0</pdfrwt>
<pdfrwt beam="2">0</pdfrwt>
<totfact> 0.41417920E+12</totfact>
</mgrwt>
</event>
<event>
 4    2  0.1060494E+006  0.2033442E+01  0.7546771E-02  0.2958511E+00
         22   -1    0    0    0    0  0.00000000000E+00  0.00000000000E+00  0.27268650344E+01  0.27268650344E+01  0.00000000000E+00 0.  1.
         22   -1    0    0    0    0 -0.00000000000E+00 -0.00000000000E+00 -0.17650321846E+01  0.17650321846E+01  0.00000000000E+00 0. -1.
          4    1    1    2  501    0  0.26575783639E+00  0.20160005813E+01 -0.36211667769E+00  0.20654331409E+01  0.00000000000E+00 0. -1.
         -4    1    1    2    0  501 -0.26575783639E+00 -0.20160005813E+01  0.13239495275E+01  0.24264640782E+01  0.00000000000E+00 0.  1.
<mgrwt>
<rscale>  0 0.20334418E+01</rscale>
<asrwt>0</asrwt>
<pdfrwt beam="1">0</pdfrwt>
<pdfrwt beam="2">0</pdfrwt>
<totfact> 0.38612873E+12</totfact>
</mgrwt>
</event>
<event>
 4    2  0.1060494E+006  0.2142834E+01  0.7546771E-02  0.2890560E+00
         22   -1    0    0    0    0  0.00000000000E+00  0.00000000000E+00  0.71266142839E+01  0.71266142839E+01  0.00000000000E+00 0. -1.
         22   -1    0    0    0    0 -0.00000000000E+00 -0.00000000000E+00 -0.97075315765E+00  0.97075315765E+00  0.00000000000E+00 0.  1.
          4    1    1    2  501    0  0.19276677284E+01 -0.93585972174E+00  0.73011269871E+00  0.22638022976E+01  0.00000000000E+00 0.  1.
         -4    1    1    2    0  501 -0.19276677284E+01  0.93585972174E+00  0.54257484275E+01  0.58335651439E+01  0.00000000000E+00 0. -1.
<mgrwt>
<rscale>  0 0.21428337E+01</rscale>
<asrwt>0</asrwt>
<pdfrwt beam="1">0</pdfrwt>
<pdfrwt beam="2">0</pdfrwt>
<totfact> 0.24677408E+12</totfact>
</mgrwt>
</event>
<event>
 4    2  0.1060494E+006  0.2199239E+01  0.7546771E-02  0.2858079E+00
         22   -1    0    0    0    0  0.00000000000E+00  0.00000000000E+00  0.33149685761E+02  0.33149685761E+02  0.00000000000E+00 0. -1.
         22   -1    0    0    0    0 -0.00000000000E+00 -0.00000000000E+00 -0.14760459392E+00  0.14760459392E+00  0.00000000000E+00 0.  1.
          4    1    1    2  501    0  0.21975495016E+01 -0.86188400087E-01  0.14713712140E+02  0.14877162941E+02  0.00000000000E+00 0.  1.
         -4    1    1    2    0  501 -0.21975495016E+01  0.86188400087E-01  0.18288369028E+02  0.18420127414E+02  0.00000000000E+00 0. -1.
<mgrwt>
<rscale>  0 0.21992390E+01</rscale>
<asrwt>0</asrwt>
<pdfrwt beam="1">0</pdfrwt>
<pdfrwt beam="2">0</pdfrwt>
<totfact> 0.30814251E+12</totfact>
</mgrwt>
</event>
<event>
 4    2  0.1060494E+006  0.4253619E+01  0.7546771E-02  0.2231286E+00
         22   -1    0    0    0    0  0.00000000000E+00  0.00000000000E+00  0.51788096834E+01  0.51788096834E+01  0.00000000000E+00 0.  1.
         22   -1    0    0    0    0 -0.00000000000E+00 -0.00000000000E+00 -0.35117493404E+01  0.35117493404E+01  0.00000000000E+00 0. -1.
          4    1    1    2  501    0 -0.41463154441E+01  0.94939262282E+00  0.11449327988E+01  0.44050141008E+01  0.00000000000E+00 0.  1.
         -4    1    1    2    0  501  0.41463154441E+01 -0.94939262282E+00  0.52212754414E+00  0.42855449229E+01  0.00000000000E+00 0. -1.
<mgrwt>
<rscale>  0 0.42536194E+01</rscale>
<asrwt>0</asrwt>
<pdfrwt beam="1">0</pdfrwt>
<pdfrwt beam="2">0</pdfrwt>
<totfact> 0.81643310E+11</totfact>
</mgrwt>
</event>
<event>
 4    2  0.1060494E+006  0.2044202E+01  0.7546771E-02  0.2951513E+00
         22   -1    0    0    0    0  0.00000000000E+00  0.00000000000E+00  0.12955475632E+02  0.12955475632E+02  0.00000000000E+00 0. -1.
         22   -1    0    0    0    0 -0.00000000000E+00 -0.00000000000E+00 -0.42010612542E+00  0.42010612542E+00  0.00000000000E+00 0.  1.
          4    1    1    2  501    0  0.96329316434E+00 -0.18030055464E+01  0.30448732376E+01  0.36674263120E+01  0.00000000000E+00 0.  1.
         -4    1    1    2    0  501 -0.96329316434E+00  0.18030055464E+01  0.94904962693E+01  0.97081554457E+01  0.00000000000E+00 0. -1.
<mgrwt>
<rscale>  0 0.20442022E+01</rscale>
<asrwt>0</asrwt>
<pdfrwt beam="1">0</pdfrwt>
<pdfrwt beam="2">0</pdfrwt>
<totfact> 0.30953225E+12</totfact>
</mgrwt>
</event>
<event>
 4    2  0.1060494E+006  0.2909806E+01  0.7546771E-02  0.2551474E+00
         22   -1    0    0    0    0  0.00000000000E+00  0.00000000000E+00  0.25938863550E+00  0.25938863550E+00  0.00000000000E+00 0. -1.
         22   -1    0    0    0    0 -0.00000000000E+00 -0.00000000000E+00 -0.33036989004E+02  0.33036989004E+02  0.00000000000E+00 0.  1.
          4    1    1    2  501    0  0.16776645185E+01  0.23774800110E+01 -0.14568481618E+02  0.14856231894E+02  0.00000000000E+00 0. -1.
         -4    1    1    2    0  501 -0.16776645185E+01 -0.23774800110E+01 -0.18209118750E+02  0.18440145745E+02  0.00000000000E+00 0.  1.
<mgrwt>
<rscale>  0 0.29098057E+01</rscale>
<asrwt>0</asrwt>
<pdfrwt beam="1">0</pdfrwt>
<pdfrwt beam="2">0</pdfrwt>
<totfact> 0.16504149E+12</totfact>
</mgrwt>
</event>
<event>
 4    2  0.1060494E+006  0.2336912E+01  0.7546771E-02  0.2785110E+00
         22   -1    0    0    0    0  0.00000000000E+00  0.00000000000E+00  0.44172585568E+02  0.44172585568E+02  0.00000000000E+00 0.  1.
         22   -1    0    0    0    0 -0.00000000000E+00 -0.00000000000E+00 -0.24583407191E+00  0.24583407191E+00  0.00000000000E+00 0. -1.
          4    1    1    2  501    0 -0.12643117875E+01 -0.19653680809E+01  0.63048483589E+01  0.67240069020E+01  0.00000000000E+00 0. -1.
         -4    1    1    2    0  501  0.12643117875E+01  0.19653680809E+01  0.37621903137E+02  0.37694412738E+02  0.00000000000E+00 0.  1.
<mgrwt>
<rscale>  0 0.23369116E+01</rscale>
<asrwt>0</asrwt>
<pdfrwt beam="1">0</pdfrwt>
<pdfrwt beam="2">0</pdfrwt>
<totfact> 0.12034013E+12</totfact>
</mgrwt>
</event>
<event>
 4    2  0.1060494E+006  0.2070624E+01  0.7546771E-02  0.2934632E+00
         22   -1    0    0    0    0  0.00000000000E+00  0.00000000000E+00  0.59290437381E+01  0.59290437381E+01  0.00000000000E+00 0. -1.
         22   -1    0    0    0    0 -0.00000000000E+00 -0.00000000000E+00 -0.49372511271E+01  0.49372511271E+01  0.00000000000E+00 0.  1.
          4    1    1    2  501    0  0.11226660261E+01 -0.17398574972E+01 -0.45236246225E+01  0.49750038032E+01  0.00000000000E+00 0.  1.
         -4    1    1    2    0  501 -0.11226660261E+01  0.17398574972E+01  0.55154172335E+01  0.58912910619E+01  0.00000000000E+00 0. -1.
<mgrwt>
<rscale>  0 0.20706238E+01</rscale>
<asrwt>0</asrwt>
<pdfrwt beam="1">0</pdfrwt>
<pdfrwt beam="2">0</pdfrwt>
<totfact> 0.46536098E+11</totfact>
</mgrwt>
</event>
<event>
 4    2  0.1060494E+006  0.2046195E+01  0.7546771E-02  0.2950225E+00
         22   -1    0    0    0    0  0.00000000000E+00  0.00000000000E+00  0.64662968706E+00  0.64662968706E+00  0.00000000000E+00 0. -1.
         22   -1    0    0    0    0 -0.00000000000E+00 -0.00000000000E+00 -0.71735240328E+01  0.71735240328E+01  0.00000000000E+00 0.  1.
          4    1    1    2  501    0  0.13351754902E+01 -0.15505548083E+01 -0.44836053749E+01  0.49284511726E+01  0.00000000000E+00 0. -1.
         -4    1    1    2    0  501 -0.13351754902E+01  0.15505548083E+01 -0.20432889708E+01  0.28917025472E+01  0.00000000000E+00 0.  1.
<mgrwt>
<rscale>  0 0.20461950E+01</rscale>
<asrwt>0</asrwt>
<pdfrwt beam="1">0</pdfrwt>
<pdfrwt beam="2">0</pdfrwt>
<totfact> 0.38867310E+12</totfact>
</mgrwt>
</event>
<event>
 4    2  0.1060494E+006  0.2210092E+01  0.7546771E-02  0.2852013E+00
         22   -1    0    0    0    0  0.00000000000E+00  0.00000000000E+00  0.30173459020E+01  0.30173459020E+01  0.00000000000E+00 0. -1.
         22   -1    0    0    0    0 -0.00000000000E+00 -0.00000000000E+00 -0.18729239068E+01  0.18729239068E+01  0.00000000000E+00 0.  1.
          4    1    1    2  501    0 -0.16832975714E+01  0.14321366427E+01  0.14728650486E+01  0.26559061596E+01  0.00000000000E+00 0. -1.
         -4    1    1    2    0  501  0.16832975714E+01 -0.14321366427E+01 -0.32844305339E+00  0.22343636491E+01  0.00000000000E+00 0.  1.
<mgrwt>
<rscale>  0 0.22100919E+01</rscale>
<asrwt>0</asrwt>
<pdfrwt beam="1">0</pdfrwt>
<pdfrwt beam="2">0</pdfrwt>
<totfact> 0.32039571E+12</totfact>
</mgrwt>
</event>
<event>
 4    2  0.1060494E+006  0.2273830E+01  0.7546771E-02  0.2817500E+00
         22   -1    0    0    0    0  0.00000000000E+00  0.00000000000E+00  0.20132983107E+02  0.20132983107E+02  0.00000000000E+00 0.  1.
         22   -1    0    0    0    0 -0.00000000000E+00 -0.00000000000E+00 -0.24047423750E+01  0.24047423750E+01  0.00000000000E+00 0. -1.
          4    1    1    2  501    0  0.14954511844E+01  0.17128720241E+01 -0.17860448923E+01  0.28914116230E+01  0.00000000000E+00 0. -1.
         -4    1    1    2    0  501 -0.14954511844E+01 -0.17128720241E+01  0.19514285624E+02  0.19646313859E+02  0.00000000000E+00 0.  1.
<mgrwt>
<rscale>  0 0.22738304E+01</rscale>
<asrwt>0</asrwt>
<pdfrwt beam="1">0</pdfrwt>
<pdfrwt beam="2">0</pdfrwt>
<totfact> 0.24457416E+11</totfact>
</mgrwt>
</event>
<event>
 4    2  0.1060494E+006  0.2406521E+01  0.7546771E-02  0.2751234E+00
         22   -1    0    0    0    0  0.00000000000E+00  0.00000000000E+00  0.16065128095E+01  0.16065128095E+01  0.00000000000E+00 0. -1.
         22   -1    0    0    0    0 -0.00000000000E+00 -0.00000000000E+00 -0.70856772940E+01  0.70856772940E+01  0.00000000000E+00 0.  1.
          4    1    1    2  501    0 -0.10012003916E+01 -0.21883644702E+01 -0.57856934286E+01  0.62662261153E+01  0.00000000000E+00 0.  1.
         -4    1    1    2    0  501  0.10012003916E+01  0.21883644702E+01  0.30652894411E+00  0.24259639882E+01  0.00000000000E+00 0. -1.
<mgrwt>
<rscale>  0 0.24065206E+01</rscale>
<asrwt>0</asrwt>
<pdfrwt beam="1">0</pdfrwt>
<pdfrwt beam="2">0</pdfrwt>
<totfact> 0.13946136E+12</totfact>
</mgrwt>
</event>
<event>
 4    2  0.1060494E+006  0.2488597E+01  0.7546771E-02  0.2713579E+00
         22   -1    0    0    0    0  0.00000000000E+00  0.00000000000E+00  0.40861854837E+00  0.40861854837E+00  0.00000000000E+00 0.  1.
         22   -1    0    0    0    0 -0.00000000000E+00 -0.00000000000E+00 -0.15275175402E+02  0.15275175402E+02  0.00000000000E+00 0. -1.
          4    1    1    2  501    0 -0.18188591512E+01  0.16984896159E+01 -0.67412772437E+01  0.71859539703E+01  0.00000000000E+00 0. -1.
         -4    1    1    2    0  501  0.18188591512E+01 -0.16984896159E+01 -0.81252796100E+01  0.84978399801E+01  0.00000000000E+00 0.  1.
<mgrwt>
<rscale>  0 0.24885971E+01</rscale>
<asrwt>0</asrwt>
<pdfrwt beam="1">0</pdfrwt>
<pdfrwt beam="2">0</pdfrwt>
<totfact> 0.26092260E+12</totfact>
</mgrwt>
</event>
<event>
 4    2  0.1060494E+006  0.2858807E+01  0.7546771E-02  0.2568773E+00
         22   -1    0    0    0    0  0.00000000000E+00  0.00000000000E+00  0.16803635916E+00  0.16803635916E+00  0.00000000000E+00 0. -1.
         22   -1    0    0    0    0 -0.00000000000E+00 -0.00000000000E+00 -0.50402257147E+02  0.50402257147E+02  0.00000000000E+00 0.  1.
          4    1    1    2  501    0 -0.14236457358E+01 -0.24791142533E+01 -0.29849185224E+02  0.29985773847E+02  0.00000000000E+00 0.  1.
         -4    1    1    2    0  501  0.14236457358E+01  0.24791142533E+01 -0.20385035564E+02  0.20584519660E+02  0.00000000000E+00 0. -1.
<mgrwt>
<rscale>  0 0.28588065E+01</rscale>
<asrwt>0</asrwt>
<pdfrwt beam="1">0</pdfrwt>
<pdfrwt beam="2">0</pdfrwt>
<totfact> 0.15472421E+12</totfact>
</mgrwt>
</event>
<event>
 4    2  0.1060494E+006  0.2222129E+01  0.7546771E-02  0.2845350E+00
         22   -1    0    0    0    0  0.00000000000E+00  0.00000000000E+00  0.66836039906E+01  0.66836039906E+01  0.00000000000E+00 0. -1.
         22   -1    0    0    0    0 -0.00000000000E+00 -0.00000000000E+00 -0.27527194925E+01  0.27527194925E+01  0.00000000000E+00 0.  1.
          4    1    1    2  501    0  0.21416048728E+01 -0.59277766828E+00 -0.20702006902E+01  0.30370360046E+01  0.00000000000E+00 0.  1.
         -4    1    1    2    0  501 -0.21416048728E+01  0.59277766828E+00  0.60010851883E+01  0.63992874785E+01  0.00000000000E+00 0. -1.
<mgrwt>
<rscale>  0 0.22221289E+01</rscale>
<asrwt>0</asrwt>
<pdfrwt beam="1">0</pdfrwt>
<pdfrwt beam="2">0</pdfrwt>
<totfact> 0.80122333E+11</totfact>
</mgrwt>
</event>
<event>
 4    2  0.1060494E+006  0.2112549E+01  0.7546771E-02  0.2908688E+00
         22   -1    0    0    0    0  0.00000000000E+00  0.00000000000E+00  0.16592873967E+02  0.16592873967E+02  0.00000000000E+00 0. -1.
         22   -1    0    0    0    0 -0.00000000000E+00 -0.00000000000E+00 -0.36182502205E+00  0.36182502205E+00  0.00000000000E+00 0.  1.
          4    1    1    2  501    0 -0.17828391622E+01 -0.11332901505E+01  0.12410204974E+02  0.12588727082E+02  0.00000000000E+00 0. -1.
         -4    1    1    2    0  501  0.17828391622E+01  0.11332901505E+01  0.38208439702E+01  0.43659719064E+01  0.00000000000E+00 0.  1.
<mgrwt>
<rscale>  0 0.21125487E+01</rscale>
<asrwt>0</asrwt>
<pdfrwt beam="1">0</pdfrwt>
<pdfrwt beam="2">0</pdfrwt>
<totfact> 0.27012710E+12</totfact>
</mgrwt>
</event>
<event>
 4    2  0.1060494E+006  0.2558116E+01  0.7546771E-02  0.2683450E+00
         22   -1    0    0    0    0  0.00000000000E+00  0.00000000000E+00  0.67334520025E+01  0.67334520025E+01  0.00000000000E+00 0.  1.
         22   -1    0    0    0    0 -0.00000000000E+00 -0.00000000000E+00 -0.10803035962E+02  0.10803035962E+02  0.00000000000E+00 0. -1.
          4    1    1    2  501    0 -0.19337788539E+01 -0.16746518148E+01 -0.10399340280E+02  0.10709352810E+02  0.00000000000E+00 0. -1.
         -4    1    1    2    0  501  0.19337788539E+01  0.16746518148E+01  0.63297563197E+01  0.68271351550E+01  0.00000000000E+00 0.  1.
<mgrwt>
<rscale>  0 0.25581164E+01</rscale>
<asrwt>0</asrwt>
<pdfrwt beam="1">0</pdfrwt>
<pdfrwt beam="2">0</pdfrwt>
<totfact> 0.15649234E+11</totfact>
</mgrwt>
</event>
<event>
 4    2  0.1060494E+006  0.4694879E+01  0.7546771E-02  0.2161359E+00
         22   -1    0    0    0    0  0.00000000000E+00  0.00000000000E+00  0.11380860139E+01  0.11380860139E+01  0.00000000000E+00 0. -1.
         22   -1    0    0    0    0 -0.00000000000E+00 -0.00000000000E+00 -0.25383819454E+02  0.25383819454E+02  0.00000000000E+00 0.  1.
          4    1    1    2  501    0  0.11587892857E+01  0.45496261280E+01 -0.56668985506E+01  0.73590508693E+01  0.00000000000E+00 0. -1.
         -4    1    1    2    0  501 -0.11587892857E+01 -0.45496261280E+01 -0.18578834889E+02  0.19162854599E+02  0.00000000000E+00 0.  1.
<mgrwt>
<rscale>  0 0.46948792E+01</rscale>
<asrwt>0</asrwt>
<pdfrwt beam="1">0</pdfrwt>
<pdfrwt beam="2">0</pdfrwt>
<totfact> 0.43328043E+11</totfact>
</mgrwt>
</event>
<event>
 4    2  0.1060494E+006  0.2763299E+01  0.7546771E-02  0.2602722E+00
         22   -1    0    0    0    0  0.00000000000E+00  0.00000000000E+00  0.14345335217E+01  0.14345335217E+01  0.00000000000E+00 0. -1.
         22   -1    0    0    0    0 -0.00000000000E+00 -0.00000000000E+00 -0.83155567337E+01  0.83155567337E+01  0.00000000000E+00 0.  1.
          4    1    1    2  501    0  0.47845390859E-01 -0.27628851291E+01 -0.63650963652E+01  0.69390399304E+01  0.00000000000E+00 0.  1.
         -4    1    1    2    0  501 -0.47845390859E-01  0.27628851291E+01 -0.51592684674E+00  0.28110503249E+01  0.00000000000E+00 0. -1.
<mgrwt>
<rscale>  0 0.27632994E+01</rscale>
<asrwt>0</asrwt>
<pdfrwt beam="1">0</pdfrwt>
<pdfrwt beam="2">0</pdfrwt>
<totfact> 0.13111793E+12</totfact>
</mgrwt>
</event>
<event>
 4    2  0.1060494E+006  0.2631918E+01  0.7546771E-02  0.2653082E+00
         22   -1    0    0    0    0  0.00000000000E+00  0.00000000000E+00  0.50651797124E+00  0.50651797124E+00  0.00000000000E+00 0. -1.
         22   -1    0    0    0    0 -0.00000000000E+00 -0.00000000000E+00 -0.31379365290E+02  0.31379365290E+02  0.00000000000E+00 0.  1.
          4    1    1    2  501    0  0.12723799211E+01 -0.23039184920E+01 -0.27411489081E+02  0.27537551175E+02  0.00000000000E+00 0.  1.
         -4    1    1    2    0  501 -0.12723799211E+01  0.23039184920E+01 -0.34613582376E+01  0.43483320860E+01  0.00000000000E+00 0. -1.
<mgrwt>
<rscale>  0 0.26319178E+01</rscale>
<asrwt>0</asrwt>
<pdfrwt beam="1">0</pdfrwt>
<pdfrwt beam="2">0</pdfrwt>
<totfact> 0.83075249E+11</totfact>
</mgrwt>
</event>
<event>
 4    2  0.1060494E+006  0.7997314E+01  0.7546771E-02  0.1876431E+00
         22   -1    0    0    0    0  0.00000000000E+00  0.00000000000E+00  0.11735152975E+02  0.11735152975E+02  0.00000000000E+00 0. -1.
         22   -1    0    0    0    0 -0.00000000000E+00 -0.00000000000E+00 -0.59052632921E+01  0.59052632921E+01  0.00000000000E+00 0.  1.
          4    1    1    2  501    0  0.53223468082E+01 -0.59690577228E+01  0.53638533201E+01  0.96295351957E+01  0.00000000000E+00 0. -1.
         -4    1    1    2    0  501 -0.53223468082E+01  0.59690577228E+01  0.46603636255E+00  0.80108810712E+01  0.00000000000E+00 0.  1.
<mgrwt>
<rscale>  0 0.79973137E+01</rscale>
<asrwt>0</asrwt>
<pdfrwt beam="1">0</pdfrwt>
<pdfrwt beam="2">0</pdfrwt>
<totfact> 0.16547894E+11</totfact>
</mgrwt>
</event>
<event>
 4    2  0.1060494E+006  0.2032379E+01  0.7546771E-02  0.2959206E+00
         22   -1    0    0    0    0  0.00000000000E+00  0.00000000000E+00  0.95577336429E+01  0.95577336429E+01  0.00000000000E+00 0.  1.
         22   -1    0    0    0    0 -0.00000000000E+00 -0.00000000000E+00 -0.56585219122E+00  0.56585219122E+00  0.00000000000E+00 0. -1.
          4    1    1    2  501    0 -0.19779748272E+01 -0.46709643414E+00  0.20356295838E+01  0.28765172168E+01  0.00000000000E+00 0. -1.
         -4    1    1    2    0  501  0.19779748272E+01  0.46709643414E+00  0.69562518679E+01  0.72470686174E+01  0.00000000000E+00 0.  1.
<mgrwt>
<rscale>  0 0.20323788E+01</rscale>
<asrwt>0</asrwt>
<pdfrwt beam="1">0</pdfrwt>
<pdfrwt beam="2">0</pdfrwt>
<totfact> 0.32011556E+12</totfact>
</mgrwt>
</event>
<event>
 4    2  0.1060494E+006  0.3271088E+01  0.7546771E-02  0.2442884E+00
         22   -1    0    0    0    0  0.00000000000E+00  0.00000000000E+00  0.14301692898E+01  0.14301692898E+01  0.00000000000E+00 0.  1.
         22   -1    0    0    0    0 -0.00000000000E+00 -0.00000000000E+00 -0.79330872710E+01  0.79330872710E+01  0.00000000000E+00 0. -1.
          4    1    1    2  501    0  0.30411869703E+01 -0.12046560189E+01 -0.43682668755E+01  0.54572676137E+01  0.00000000000E+00 0. -1.
         -4    1    1    2    0  501 -0.30411869703E+01  0.12046560189E+01 -0.21346511057E+01  0.39059889471E+01  0.00000000000E+00 0.  1.
<mgrwt>
<rscale>  0 0.32710876E+01</rscale>
<asrwt>0</asrwt>
<pdfrwt beam="1">0</pdfrwt>
<pdfrwt beam="2">0</pdfrwt>
<totfact> 0.13924140E+12</totfact>
</mgrwt>
</event>
<event>
 4    2  0.1060494E+006  0.2571186E+01  0.7546771E-02  0.2677955E+00
         22   -1    0    0    0    0  0.00000000000E+00  0.00000000000E+00  0.24363387467E+00  0.24363387467E+00  0.00000000000E+00 0.  1.
         22   -1    0    0    0    0 -0.00000000000E+00 -0.00000000000E+00 -0.33924782629E+02  0.33924782629E+02  0.00000000000E+00 0. -1.
          4    1    1    2  501    0 -0.25711563137E+01 -0.12298110861E-01 -0.24483602494E+02  0.24618240943E+02  0.00000000000E+00 0.  1.
         -4    1    1    2    0  501  0.25711563137E+01  0.12298110861E-01 -0.91975462605E+01  0.95501755611E+01  0.00000000000E+00 0. -1.
<mgrwt>
<rscale>  0 0.25711857E+01</rscale>
<asrwt>0</asrwt>
<pdfrwt beam="1">0</pdfrwt>
<pdfrwt beam="2">0</pdfrwt>
<totfact> 0.17110184E+12</totfact>
</mgrwt>
</event>
<event>
 4    2  0.1060494E+006  0.6396654E+01  0.7546771E-02  0.1985841E+00
         22   -1    0    0    0    0  0.00000000000E+00  0.00000000000E+00  0.26668975466E+02  0.26668975466E+02  0.00000000000E+00 0. -1.
         22   -1    0    0    0    0 -0.00000000000E+00 -0.00000000000E+00 -0.34220855409E+01  0.34220855409E+01  0.00000000000E+00 0.  1.
          4    1    1    2  501    0 -0.52813389505E+01 -0.36089671977E+01  0.44856625577E+00  0.64123628274E+01  0.00000000000E+00 0.  1.
         -4    1    1    2    0  501  0.52813389505E+01  0.36089671977E+01  0.22798323669E+02  0.23678698180E+02  0.00000000000E+00 0. -1.
<mgrwt>
<rscale>  0 0.63966542E+01</rscale>
<asrwt>0</asrwt>
<pdfrwt beam="1">0</pdfrwt>
<pdfrwt beam="2">0</pdfrwt>
<totfact> 0.11382274E+11</totfact>
</mgrwt>
</event>
<event>
 4    2  0.1060494E+006  0.2072974E+01  0.7546771E-02  0.2933150E+00
         22   -1    0    0    0    0  0.00000000000E+00  0.00000000000E+00  0.45653907723E+00  0.45653907723E+00  0.00000000000E+00 0. -1.
         22   -1    0    0    0    0 -0.00000000000E+00 -0.00000000000E+00 -0.18287869621E+02  0.18287869621E+02  0.00000000000E+00 0.  1.
          4    1    1    2  501    0  0.20078842039E+01  0.51538603192E+00 -0.15444728287E+02  0.15583223467E+02  0.00000000000E+00 0.  1.
         -4    1    1    2    0  501 -0.20078842039E+01 -0.51538603192E+00 -0.23866022560E+01  0.31611852312E+01  0.00000000000E+00 0. -1.
<mgrwt>
<rscale>  0 0.20729741E+01</rscale>
<asrwt>0</asrwt>
<pdfrwt beam="1">0</pdfrwt>
<pdfrwt beam="2">0</pdfrwt>
<totfact> 0.18430633E+12</totfact>
</mgrwt>
</event>
<event>
 4    2  0.1060494E+006  0.2408981E+01  0.7546771E-02  0.2750070E+00
         22   -1    0    0    0    0  0.00000000000E+00  0.00000000000E+00  0.10395079107E+02  0.10395079107E+02  0.00000000000E+00 0. -1.
         22   -1    0    0    0    0 -0.00000000000E+00 -0.00000000000E+00 -0.58704782389E+00  0.58704782389E+00  0.00000000000E+00 0.  1.
          4    1    1    2  501    0 -0.23959749981E+01 -0.24998514881E+00  0.36881068770E+01  0.44051471148E+01  0.00000000000E+00 0.  1.
         -4    1    1    2    0  501  0.23959749981E+01  0.24998514881E+00  0.61199244064E+01  0.65769798164E+01  0.00000000000E+00 0. -1.
<mgrwt>
<rscale>  0 0.24089809E+01</rscale>
<asrwt>0</asrwt>
<pdfrwt beam="1">0</pdfrwt>
<pdfrwt beam="2">0</pdfrwt>
<totfact> 0.27740068E+12</totfact>
</mgrwt>
</event>
<event>
 4    2  0.1060494E+006  0.2630448E+01  0.7546771E-02  0.2653671E+00
         22   -1    0    0    0    0  0.00000000000E+00  0.00000000000E+00  0.33726933291E+01  0.33726933291E+01  0.00000000000E+00 0.  1.
         22   -1    0    0    0    0 -0.00000000000E+00 -0.00000000000E+00 -0.23005600997E+01  0.23005600997E+01  0.00000000000E+00 0. -1.
          4    1    1    2  501    0 -0.26056896638E+01 -0.36005349541E+00 -0.39717000583E+00  0.26602633624E+01  0.00000000000E+00 0. -1.
         -4    1    1    2    0  501  0.26056896638E+01  0.36005349541E+00  0.14693032352E+01  0.30129900665E+01  0.00000000000E+00 0.  1.
<mgrwt>
<rscale>  0 0.26304481E+01</rscale>
<asrwt>0</asrwt>
<pdfrwt beam="1">0</pdfrwt>
<pdfrwt beam="2">0</pdfrwt>
<totfact> 0.22165446E+12</totfact>
</mgrwt>
</event>
<event>
 4    2  0.1060494E+006  0.2793397E+01  0.7546771E-02  0.2591797E+00
         22   -1    0    0    0    0  0.00000000000E+00  0.00000000000E+00  0.24287260683E+01  0.24287260683E+01  0.00000000000E+00 0. -1.
         22   -1    0    0    0    0 -0.00000000000E+00 -0.00000000000E+00 -0.42467735522E+01  0.42467735522E+01  0.00000000000E+00 0.  1.
          4    1    1    2  501    0 -0.27863641744E+01 -0.19809014638E+00  0.73790300057E+00  0.28892154397E+01  0.00000000000E+00 0. -1.
         -4    1    1    2    0  501  0.27863641744E+01  0.19809014638E+00 -0.25559504845E+01  0.37862841808E+01  0.00000000000E+00 0.  1.
<mgrwt>
<rscale>  0 0.27933967E+01</rscale>
<asrwt>0</asrwt>
<pdfrwt beam="1">0</pdfrwt>
<pdfrwt beam="2">0</pdfrwt>
<totfact> 0.15875415E+12</totfact>
</mgrwt>
</event>
<event>
 4    2  0.1060494E+006  0.2347333E+01  0.7546771E-02  0.2779918E+00
         22   -1    0    0    0    0  0.00000000000E+00  0.00000000000E+00  0.50509995374E+00  0.50509995374E+00  0.00000000000E+00 0. -1.
         22   -1    0    0    0    0 -0.00000000000E+00 -0.00000000000E+00 -0.43164959082E+02  0.43164959082E+02  0.00000000000E+00 0.  1.
          4    1    1    2  501    0  0.30655390473E+00 -0.23272295815E+01 -0.40205290419E+02  0.40273755108E+02  0.00000000000E+00 0.  1.
         -4    1    1    2    0  501 -0.30655390473E+00  0.23272295815E+01 -0.24545687094E+01  0.33963039279E+01  0.00000000000E+00 0. -1.
<mgrwt>
<rscale>  0 0.23473331E+01</rscale>
<asrwt>0</asrwt>
<pdfrwt beam="1">0</pdfrwt>
<pdfrwt beam="2">0</pdfrwt>
<totfact> 0.55216153E+11</totfact>
</mgrwt>
</event>
<event>
 4    2  0.1060494E+006  0.2609008E+01  0.7546771E-02  0.2662339E+00
         22   -1    0    0    0    0  0.00000000000E+00  0.00000000000E+00  0.12961323877E+01  0.12961323877E+01  0.00000000000E+00 0.  1.
         22   -1    0    0    0    0 -0.00000000000E+00 -0.00000000000E+00 -0.52829466134E+01  0.52829466134E+01  0.00000000000E+00 0. -1.
          4    1    1    2  501    0  0.24080214085E+01  0.10041700300E+01 -0.22463127597E+01  0.34427961844E+01  0.00000000000E+00 0. -1.
         -4    1    1    2    0  501 -0.24080214085E+01 -0.10041700300E+01 -0.17405014660E+01  0.31362828167E+01  0.00000000000E+00 0.  1.
<mgrwt>
<rscale>  0 0.26090083E+01</rscale>
<asrwt>0</asrwt>
<pdfrwt beam="1">0</pdfrwt>
<pdfrwt beam="2">0</pdfrwt>
<totfact> 0.25324273E+12</totfact>
</mgrwt>
</event>
<event>
 4    2  0.1060494E+006  0.6435955E+01  0.7546771E-02  0.1982664E+00
         22   -1    0    0    0    0  0.00000000000E+00  0.00000000000E+00  0.14675831711E+02  0.14675831711E+02  0.00000000000E+00 0. -1.
         22   -1    0    0    0    0 -0.00000000000E+00 -0.00000000000E+00 -0.28234150805E+01  0.28234150805E+01  0.00000000000E+00 0.  1.
          4    1    1    2  501    0  0.46419349258E+01 -0.44580211445E+01  0.60896141246E+01  0.88602998012E+01  0.00000000000E+00 0. -1.
         -4    1    1    2    0  501 -0.46419349258E+01  0.44580211445E+01  0.57628025061E+01  0.86389469905E+01  0.00000000000E+00 0.  1.
<mgrwt>
<rscale>  0 0.64359547E+01</rscale>
<asrwt>0</asrwt>
<pdfrwt beam="1">0</pdfrwt>
<pdfrwt beam="2">0</pdfrwt>
<totfact> 0.30011704E+11</totfact>
</mgrwt>
</event>
<event>
 4    2  0.1060494E+006  0.3778078E+01  0.7546771E-02  0.2321834E+00
         22   -1    0    0    0    0  0.00000000000E+00  0.00000000000E+00  0.48258659816E+02  0.48258659816E+02  0.00000000000E+00 0. -1.
         22   -1    0    0    0    0 -0.00000000000E+00 -0.00000000000E+00 -0.24233400763E+01  0.24233400763E+01  0.00000000000E+00 0.  1.
          4    1    1    2  501    0  0.24849343973E+01  0.28458703057E+01 -0.82654490601E+00  0.38674349688E+01  0.00000000000E+00 0.  1.
         -4    1    1    2    0  501 -0.24849343973E+01 -0.28458703057E+01  0.46661864646E+02  0.46814564924E+02  0.00000000000E+00 0. -1.
<mgrwt>
<rscale>  0 0.37780784E+01</rscale>
<asrwt>0</asrwt>
<pdfrwt beam="1">0</pdfrwt>
<pdfrwt beam="2">0</pdfrwt>
<totfact> 0.79266072E+10</totfact>
</mgrwt>
</event>
<event>
 4    2  0.1060494E+006  0.2283689E+01  0.7546771E-02  0.2812327E+00
         22   -1    0    0    0    0  0.00000000000E+00  0.00000000000E+00  0.64912050796E+02  0.64912050796E+02  0.00000000000E+00 0.  1.
         22   -1    0    0    0    0 -0.00000000000E+00 -0.00000000000E+00 -0.34466277214E+00  0.34466277214E+00  0.00000000000E+00 0. -1.
          4    1    1    2  501    0 -0.17265519003E+01 -0.14947414485E+01  0.37102373565E+01  0.43567298177E+01  0.00000000000E+00 0. -1.
         -4    1    1    2    0  501  0.17265519003E+01  0.14947414485E+01  0.60857150667E+02  0.60899983750E+02  0.00000000000E+00 0.  1.
<mgrwt>
<rscale>  0 0.22836886E+01</rscale>
<asrwt>0</asrwt>
<pdfrwt beam="1">0</pdfrwt>
<pdfrwt beam="2">0</pdfrwt>
<totfact> 0.49452471E+11</totfact>
</mgrwt>
</event>
<event>
 4    2  0.1060494E+006  0.2313535E+01  0.7546771E-02  0.2796918E+00
         22   -1    0    0    0    0  0.00000000000E+00  0.00000000000E+00  0.64489152817E+01  0.64489152817E+01  0.00000000000E+00 0.  1.
         22   -1    0    0    0    0 -0.00000000000E+00 -0.00000000000E+00 -0.13178850171E+01  0.13178850171E+01  0.00000000000E+00 0. -1.
          4    1    1    2  501    0 -0.20221522924E+01 -0.11239860941E+01  0.20262883369E+00  0.23223916719E+01  0.00000000000E+00 0. -1.
         -4    1    1    2    0  501  0.20221522924E+01  0.11239860941E+01  0.49284014309E+01  0.54444086270E+01  0.00000000000E+00 0.  1.
<mgrwt>
<rscale>  0 0.23135351E+01</rscale>
<asrwt>0</asrwt>
<pdfrwt beam="1">0</pdfrwt>
<pdfrwt beam="2">0</pdfrwt>
<totfact> 0.19598116E+12</totfact>
</mgrwt>
</event>
<event>
 4    2  0.1060494E+006  0.2066203E+01  0.7546771E-02  0.2937427E+00
         22   -1    0    0    0    0  0.00000000000E+00  0.00000000000E+00  0.57298625348E+01  0.57298625348E+01  0.00000000000E+00 0. -1.
         22   -1    0    0    0    0 -0.00000000000E+00 -0.00000000000E+00 -0.11683527934E+01  0.11683527934E+01  0.00000000000E+00 0.  1.
          4    1    1    2  501    0  0.15650559135E+01 -0.13489977009E+01  0.20473776549E+00  0.20763218349E+01  0.00000000000E+00 0.  1.
         -4    1    1    2    0  501 -0.15650559135E+01  0.13489977009E+01  0.43567719760E+01  0.48218934932E+01  0.00000000000E+00 0. -1.
<mgrwt>
<rscale>  0 0.20662030E+01</rscale>
<asrwt>0</asrwt>
<pdfrwt beam="1">0</pdfrwt>
<pdfrwt beam="2">0</pdfrwt>
<totfact> 0.25899827E+12</totfact>
</mgrwt>
</event>
<event>
 4    2  0.1060494E+006  0.2748095E+01  0.7546771E-02  0.2608325E+00
         22   -1    0    0    0    0  0.00000000000E+00  0.00000000000E+00  0.70867823550E+00  0.70867823550E+00  0.00000000000E+00 0.  1.
         22   -1    0    0    0    0 -0.00000000000E+00 -0.00000000000E+00 -0.11965220659E+02  0.11965220659E+02  0.00000000000E+00 0. -1.
          4    1    1    2  501    0  0.54896883238E+00  0.26927048794E+01 -0.77240436815E+01  0.81983460003E+01  0.00000000000E+00 0. -1.
         -4    1    1    2    0  501 -0.54896883238E+00 -0.26927048794E+01 -0.35324987418E+01  0.44755528940E+01  0.00000000000E+00 0.  1.
<mgrwt>
<rscale>  0 0.27480950E+01</rscale>
<asrwt>0</asrwt>
<pdfrwt beam="1">0</pdfrwt>
<pdfrwt beam="2">0</pdfrwt>
<totfact> 0.18885620E+12</totfact>
</mgrwt>
</event>
<event>
 4    2  0.1060494E+006  0.3025412E+01  0.7546771E-02  0.2514210E+00
         22   -1    0    0    0    0  0.00000000000E+00  0.00000000000E+00  0.44847327923E+01  0.44847327923E+01  0.00000000000E+00 0.  1.
         22   -1    0    0    0    0 -0.00000000000E+00 -0.00000000000E+00 -0.27032072994E+01  0.27032072994E+01  0.00000000000E+00 0. -1.
          4    1    1    2  501    0  0.15944356282E+01 -0.25711657948E+01 -0.88812246976E+00  0.31530746959E+01  0.00000000000E+00 0. -1.
         -4    1    1    2    0  501 -0.15944356282E+01  0.25711657948E+01  0.26696479627E+01  0.40348653957E+01  0.00000000000E+00 0.  1.
<mgrwt>
<rscale>  0 0.30254121E+01</rscale>
<asrwt>0</asrwt>
<pdfrwt beam="1">0</pdfrwt>
<pdfrwt beam="2">0</pdfrwt>
<totfact> 0.13142560E+12</totfact>
</mgrwt>
</event>
<event>
 4    2  0.1060494E+006  0.2017026E+01  0.7546771E-02  0.2969327E+00
         22   -1    0    0    0    0  0.00000000000E+00  0.00000000000E+00  0.70320214411E+01  0.70320214411E+01  0.00000000000E+00 0. -1.
         22   -1    0    0    0    0 -0.00000000000E+00 -0.00000000000E+00 -0.64893954109E+00  0.64893954109E+00  0.00000000000E+00 0.  1.
          4    1    1    2  501    0  0.12877866179E+01  0.15524167503E+01  0.19267159737E+01  0.27893774544E+01  0.00000000000E+00 0.  1.
         -4    1    1    2    0  501 -0.12877866179E+01 -0.15524167503E+01  0.44563659263E+01  0.48915835277E+01  0.00000000000E+00 0. -1.
<mgrwt>
<rscale>  0 0.20170256E+01</rscale>
<asrwt>0</asrwt>
<pdfrwt beam="1">0</pdfrwt>
<pdfrwt beam="2">0</pdfrwt>
<totfact> 0.39644115E+12</totfact>
</mgrwt>
</event>
<event>
 4    2  0.1060494E+006  0.2256111E+01  0.7546771E-02  0.2826908E+00
         22   -1    0    0    0    0  0.00000000000E+00  0.00000000000E+00  0.76857242083E+00  0.76857242083E+00  0.00000000000E+00 0. -1.
         22   -1    0    0    0    0 -0.00000000000E+00 -0.00000000000E+00 -0.76483910632E+02  0.76483910632E+02  0.00000000000E+00 0.  1.
          4    1    1    2  501    0 -0.22376918835E+01  0.28770363530E+00 -0.74773734532E+02  0.74807763062E+02  0.00000000000E+00 0.  1.
         -4    1    1    2    0  501  0.22376918835E+01 -0.28770363530E+00 -0.94160367853E+00  0.24447199911E+01  0.00000000000E+00 0. -1.
<mgrwt>
<rscale>  0 0.22561113E+01</rscale>
<asrwt>0</asrwt>
<pdfrwt beam="1">0</pdfrwt>
<pdfrwt beam="2">0</pdfrwt>
<totfact> 0.15993297E+11</totfact>
</mgrwt>
</event>
<event>
 4    2  0.1060494E+006  0.2053190E+01  0.7546771E-02  0.2945723E+00
         22   -1    0    0    0    0  0.00000000000E+00  0.00000000000E+00  0.31275272685E+02  0.31275272685E+02  0.00000000000E+00 0. -1.
         22   -1    0    0    0    0 -0.00000000000E+00 -0.00000000000E+00 -0.24343662507E+00  0.24343662507E+00  0.00000000000E+00 0.  1.
          4    1    1    2  501    0 -0.19675216392E+01 -0.58689580440E+00  0.49877218637E+01  0.53937887867E+01  0.00000000000E+00 0.  1.
         -4    1    1    2    0  501  0.19675216392E+01  0.58689580440E+00  0.26044114196E+02  0.26124920523E+02  0.00000000000E+00 0. -1.
<mgrwt>
<rscale>  0 0.20531897E+01</rscale>
<asrwt>0</asrwt>
<pdfrwt beam="1">0</pdfrwt>
<pdfrwt beam="2">0</pdfrwt>
<totfact> 0.19003625E+12</totfact>
</mgrwt>
</event>
<event>
 4    2  0.1060494E+006  0.2102285E+01  0.7546771E-02  0.2914947E+00
         22   -1    0    0    0    0  0.00000000000E+00  0.00000000000E+00  0.14870699228E+03  0.14870699228E+03  0.00000000000E+00 0. -1.
         22   -1    0    0    0    0 -0.00000000000E+00 -0.00000000000E+00 -0.62442616419E-01  0.62442616419E-01  0.00000000000E+00 0.  1.
          4    1    1    2  501    0 -0.20801845326E+01  0.30402959689E+00  0.20474737112E+02  0.20582382308E+02  0.00000000000E+00 0.  1.
         -4    1    1    2    0  501  0.20801845326E+01 -0.30402959689E+00  0.12816981255E+03  0.12818705259E+03  0.00000000000E+00 0. -1.
<mgrwt>
<rscale>  0 0.21022849E+01</rscale>
<asrwt>0</asrwt>
<pdfrwt beam="1">0</pdfrwt>
<pdfrwt beam="2">0</pdfrwt>
<totfact> 0.10281412E+12</totfact>
</mgrwt>
</event>
<event>
 4    2  0.1060494E+006  0.3386201E+01  0.7546771E-02  0.2412631E+00
         22   -1    0    0    0    0  0.00000000000E+00  0.00000000000E+00  0.24033452915E+01  0.24033452915E+01  0.00000000000E+00 0.  1.
         22   -1    0    0    0    0 -0.00000000000E+00 -0.00000000000E+00 -0.66083043129E+01  0.66083043129E+01  0.00000000000E+00 0. -1.
          4    1    1    2  501    0  0.24396653611E+01 -0.23482731974E+01 -0.44783356570E+01  0.56144317914E+01  0.00000000000E+00 0. -1.
         -4    1    1    2    0  501 -0.24396653611E+01  0.23482731974E+01  0.27337663561E+00  0.33972178130E+01  0.00000000000E+00 0.  1.
<mgrwt>
<rscale>  0 0.33862005E+01</rscale>
<asrwt>0</asrwt>
<pdfrwt beam="1">0</pdfrwt>
<pdfrwt beam="2">0</pdfrwt>
<totfact> 0.95119113E+11</totfact>
</mgrwt>
</event>
<event>
 4    2  0.1060494E+006  0.2553223E+01  0.7546771E-02  0.2685521E+00
         22   -1    0    0    0    0  0.00000000000E+00  0.00000000000E+00  0.10849818754E+01  0.10849818754E+01  0.00000000000E+00 0. -1.
         22   -1    0    0    0    0 -0.00000000000E+00 -0.00000000000E+00 -0.86902106681E+01  0.86902106681E+01  0.00000000000E+00 0.  1.
          4    1    1    2  501    0  0.20230073079E+01 -0.15576866378E+01 -0.65177943770E+01  0.70000421264E+01  0.00000000000E+00 0.  1.
         -4    1    1    2    0  501 -0.20230073079E+01  0.15576866378E+01 -0.10874344156E+01  0.27751504172E+01  0.00000000000E+00 0. -1.
<mgrwt>
<rscale>  0 0.25532227E+01</rscale>
<asrwt>0</asrwt>
<pdfrwt beam="1">0</pdfrwt>
<pdfrwt beam="2">0</pdfrwt>
<totfact> 0.17127043E+12</totfact>
</mgrwt>
</event>
<event>
 4    2  0.1060494E+006  0.6202048E+01  0.7546771E-02  0.2002028E+00
         22   -1    0    0    0    0  0.00000000000E+00  0.00000000000E+00  0.13591400924E+02  0.13591400924E+02  0.00000000000E+00 0.  1.
         22   -1    0    0    0    0 -0.00000000000E+00 -0.00000000000E+00 -0.60799788497E+01  0.60799788497E+01  0.00000000000E+00 0. -1.
          4    1    1    2  501    0  0.59400978751E+01 -0.17834334835E+01 -0.34352268931E+01  0.70898647070E+01  0.00000000000E+00 0. -1.
         -4    1    1    2    0  501 -0.59400978751E+01  0.17834334835E+01  0.10946648967E+02  0.12581515066E+02  0.00000000000E+00 0.  1.
<mgrwt>
<rscale>  0 0.62020479E+01</rscale>
<asrwt>0</asrwt>
<pdfrwt beam="1">0</pdfrwt>
<pdfrwt beam="2">0</pdfrwt>
<totfact> 0.13358168E+11</totfact>
</mgrwt>
</event>
<event>
 4    2  0.1060494E+006  0.2674322E+01  0.7546771E-02  0.2636333E+00
         22   -1    0    0    0    0  0.00000000000E+00  0.00000000000E+00  0.70357118533E+01  0.70357118533E+01  0.00000000000E+00 0.  1.
         22   -1    0    0    0    0 -0.00000000000E+00 -0.00000000000E+00 -0.17263565187E+01  0.17263565187E+01  0.00000000000E+00 0. -1.
          4    1    1    2  501    0 -0.25676664731E+01 -0.74772090968E+00 -0.15455776815E+00  0.26787843846E+01  0.00000000000E+00 0. -1.
         -4    1    1    2    0  501  0.25676664731E+01  0.74772090968E+00  0.54639131028E+01  0.60832839874E+01  0.00000000000E+00 0.  1.
<mgrwt>
<rscale>  0 0.26743219E+01</rscale>
<asrwt>0</asrwt>
<pdfrwt beam="1">0</pdfrwt>
<pdfrwt beam="2">0</pdfrwt>
<totfact> 0.12945280E+12</totfact>
</mgrwt>
</event>
<event>
 4    2  0.1060494E+006  0.2746037E+01  0.7546771E-02  0.2609087E+00
         22   -1    0    0    0    0  0.00000000000E+00  0.00000000000E+00  0.36802177830E+02  0.36802177830E+02  0.00000000000E+00 0. -1.
         22   -1    0    0    0    0 -0.00000000000E+00 -0.00000000000E+00 -0.22676797594E+00  0.22676797594E+00  0.00000000000E+00 0.  1.
          4    1    1    2  501    0 -0.27219251456E+01 -0.36310525053E+00  0.12538116719E+02  0.12835306493E+02  0.00000000000E+00 0.  1.
         -4    1    1    2    0  501  0.27219251456E+01  0.36310525053E+00  0.24037293136E+02  0.24193639313E+02  0.00000000000E+00 0. -1.
<mgrwt>
<rscale>  0 0.27460375E+01</rscale>
<asrwt>0</asrwt>
<pdfrwt beam="1">0</pdfrwt>
<pdfrwt beam="2">0</pdfrwt>
<totfact> 0.16694396E+12</totfact>
</mgrwt>
</event>
<event>
 4    2  0.1060494E+006  0.9984880E+01  0.7546771E-02  0.1779371E+00
         22   -1    0    0    0    0  0.00000000000E+00  0.00000000000E+00  0.23144538697E+02  0.23144538697E+02  0.00000000000E+00 0. -1.
         22   -1    0    0    0    0 -0.00000000000E+00 -0.00000000000E+00 -0.11465890087E+02  0.11465890087E+02  0.00000000000E+00 0.  1.
          4    1    1    2  501    0 -0.62095202769E+01 -0.78191875999E+01 -0.78340968584E+01  0.12691371493E+02  0.00000000000E+00 0.  1.
         -4    1    1    2    0  501  0.62095202769E+01  0.78191875999E+01  0.19512745469E+02  0.21919057291E+02  0.00000000000E+00 0. -1.
<mgrwt>
<rscale>  0 0.99848804E+01</rscale>
<asrwt>0</asrwt>
<pdfrwt beam="1">0</pdfrwt>
<pdfrwt beam="2">0</pdfrwt>
<totfact> 0.32171947E+10</totfact>
</mgrwt>
</event>
<event>
 4    2  0.1060494E+006  0.2055638E+01  0.7546771E-02  0.2944154E+00
         22   -1    0    0    0    0  0.00000000000E+00  0.00000000000E+00  0.74816499744E+01  0.74816499744E+01  0.00000000000E+00 0. -1.
         22   -1    0    0    0    0 -0.00000000000E+00 -0.00000000000E+00 -0.61841580235E+00  0.61841580235E+00  0.00000000000E+00 0.  1.
          4    1    1    2  501    0  0.17951357871E+01  0.10015664815E+01  0.22391176942E+01  0.30396210224E+01  0.00000000000E+00 0.  1.
         -4    1    1    2    0  501 -0.17951357871E+01 -0.10015664815E+01  0.46241164778E+01  0.50604447543E+01  0.00000000000E+00 0. -1.
<mgrwt>
<rscale>  0 0.20556381E+01</rscale>
<asrwt>0</asrwt>
<pdfrwt beam="1">0</pdfrwt>
<pdfrwt beam="2">0</pdfrwt>
<totfact> 0.38874391E+12</totfact>
</mgrwt>
</event>
<event>
 4    2  0.1060494E+006  0.2693011E+01  0.7546771E-02  0.2629105E+00
         22   -1    0    0    0    0  0.00000000000E+00  0.00000000000E+00  0.24421853237E+02  0.24421853237E+02  0.00000000000E+00 0. -1.
         22   -1    0    0    0    0 -0.00000000000E+00 -0.00000000000E+00 -0.34766333628E+00  0.34766333628E+00  0.00000000000E+00 0.  1.
          4    1    1    2  501    0 -0.23732710489E+01  0.12727499208E+01  0.73074628828E+01  0.77878958401E+01  0.00000000000E+00 0.  1.
         -4    1    1    2    0  501  0.23732710489E+01 -0.12727499208E+01  0.16766727018E+02  0.16981620734E+02  0.00000000000E+00 0. -1.
<mgrwt>
<rscale>  0 0.26930109E+01</rscale>
<asrwt>0</asrwt>
<pdfrwt beam="1">0</pdfrwt>
<pdfrwt beam="2">0</pdfrwt>
<totfact> 0.17445152E+12</totfact>
</mgrwt>
</event>
<event>
 4    2  0.1060494E+006  0.2700319E+01  0.7546771E-02  0.2626303E+00
         22   -1    0    0    0    0  0.00000000000E+00  0.00000000000E+00  0.68367079472E+01  0.68367079472E+01  0.00000000000E+00 0.  1.
         22   -1    0    0    0    0 -0.00000000000E+00 -0.00000000000E+00 -0.21550783079E+01  0.21550783079E+01  0.00000000000E+00 0. -1.
          4    1    1    2  501    0  0.26856224389E+01 -0.28134097805E+00 -0.85442490164E+00  0.28322716223E+01  0.00000000000E+00 0. -1.
         -4    1    1    2    0  501 -0.26856224389E+01  0.28134097805E+00  0.55360545409E+01  0.61595146327E+01  0.00000000000E+00 0.  1.
<mgrwt>
<rscale>  0 0.27003186E+01</rscale>
<asrwt>0</asrwt>
<pdfrwt beam="1">0</pdfrwt>
<pdfrwt beam="2">0</pdfrwt>
<totfact> 0.10365659E+12</totfact>
</mgrwt>
</event>
<event>
 4    2  0.1060494E+006  0.2389728E+01  0.7546771E-02  0.2759236E+00
         22   -1    0    0    0    0  0.00000000000E+00  0.00000000000E+00  0.17933548058E+02  0.17933548058E+02  0.00000000000E+00 0. -1.
         22   -1    0    0    0    0 -0.00000000000E+00 -0.00000000000E+00 -0.90436365044E+00  0.90436365044E+00  0.00000000000E+00 0.  1.
          4    1    1    2  501    0 -0.15213697035E+01  0.18428878077E+01  0.93316700618E+00  0.25654632930E+01  0.00000000000E+00 0.  1.
         -4    1    1    2    0  501  0.15213697035E+01 -0.18428878077E+01  0.16096017402E+02  0.16272448416E+02  0.00000000000E+00 0. -1.
<mgrwt>
<rscale>  0 0.23897283E+01</rscale>
<asrwt>0</asrwt>
<pdfrwt beam="1">0</pdfrwt>
<pdfrwt beam="2">0</pdfrwt>
<totfact> 0.87010009E+11</totfact>
</mgrwt>
</event>
<event>
 4    2  0.1060494E+006  0.2211192E+01  0.7546771E-02  0.2851401E+00
         22   -1    0    0    0    0  0.00000000000E+00  0.00000000000E+00  0.25604601240E+01  0.25604601240E+01  0.00000000000E+00 0. -1.
         22   -1    0    0    0    0 -0.00000000000E+00 -0.00000000000E+00 -0.13804756910E+02  0.13804756910E+02  0.00000000000E+00 0.  1.
          4    1    1    2  501    0  0.18527242301E+01 -0.12069717603E+01 -0.13217766095E+02  0.13401444267E+02  0.00000000000E+00 0.  1.
         -4    1    1    2    0  501 -0.18527242301E+01  0.12069717603E+01  0.19734693087E+01  0.29637727672E+01  0.00000000000E+00 0. -1.
<mgrwt>
<rscale>  0 0.22111915E+01</rscale>
<asrwt>0</asrwt>
<pdfrwt beam="1">0</pdfrwt>
<pdfrwt beam="2">0</pdfrwt>
<totfact> 0.36253922E+11</totfact>
</mgrwt>
</event>
<event>
 4    2  0.1060494E+006  0.3802906E+01  0.7546771E-02  0.2316631E+00
         22   -1    0    0    0    0  0.00000000000E+00  0.00000000000E+00  0.16962567974E+01  0.16962567974E+01  0.00000000000E+00 0. -1.
         22   -1    0    0    0    0 -0.00000000000E+00 -0.00000000000E+00 -0.85892237856E+01  0.85892237856E+01  0.00000000000E+00 0.  1.
          4    1    1    2  501    0 -0.34668501717E+01 -0.15630229033E+01 -0.38881066570E+01  0.54387005880E+01  0.00000000000E+00 0.  1.
         -4    1    1    2    0  501  0.34668501717E+01  0.15630229033E+01 -0.30048603312E+01  0.48467799949E+01  0.00000000000E+00 0. -1.
<mgrwt>
<rscale>  0 0.38029056E+01</rscale>
<asrwt>0</asrwt>
<pdfrwt beam="1">0</pdfrwt>
<pdfrwt beam="2">0</pdfrwt>
<totfact> 0.10397571E+12</totfact>
</mgrwt>
</event>
<event>
 4    2  0.1060494E+006  0.2469027E+01  0.7546771E-02  0.2722345E+00
         22   -1    0    0    0    0  0.00000000000E+00  0.00000000000E+00  0.78004652025E+01  0.78004652025E+01  0.00000000000E+00 0. -1.
         22   -1    0    0    0    0 -0.00000000000E+00 -0.00000000000E+00 -0.17603818574E+01  0.17603818574E+01  0.00000000000E+00 0.  1.
          4    1    1    2  501    0 -0.96987966111E+00 -0.22705567561E+01 -0.54469284889E+00  0.25283957046E+01  0.00000000000E+00 0.  1.
         -4    1    1    2    0  501  0.96987966111E+00  0.22705567561E+01  0.65847761939E+01  0.70324513553E+01  0.00000000000E+00 0. -1.
<mgrwt>
<rscale>  0 0.24690270E+01</rscale>
<asrwt>0</asrwt>
<pdfrwt beam="1">0</pdfrwt>
<pdfrwt beam="2">0</pdfrwt>
<totfact> 0.11184623E+12</totfact>
</mgrwt>
</event>
<event>
 4    2  0.1060494E+006  0.3354637E+01  0.7546771E-02  0.2420745E+00
         22   -1    0    0    0    0  0.00000000000E+00  0.00000000000E+00  0.24418665453E+02  0.24418665453E+02  0.00000000000E+00 0.  1.
         22   -1    0    0    0    0 -0.00000000000E+00 -0.00000000000E+00 -0.60260312689E+00  0.60260312689E+00  0.00000000000E+00 0. -1.
          4    1    1    2  501    0  0.11014026018E+01 -0.31686748616E+01  0.58404649633E+01  0.67353262027E+01  0.00000000000E+00 0. -1.
         -4    1    1    2    0  501 -0.11014026018E+01  0.31686748616E+01  0.17975597363E+02  0.18285942377E+02  0.00000000000E+00 0.  1.
<mgrwt>
<rscale>  0 0.33546368E+01</rscale>
<asrwt>0</asrwt>
<pdfrwt beam="1">0</pdfrwt>
<pdfrwt beam="2">0</pdfrwt>
<totfact> 0.93830613E+11</totfact>
</mgrwt>
</event>
<event>
 4    2  0.1060494E+006  0.2189185E+01  0.7546771E-02  0.2863751E+00
         22   -1    0    0    0    0  0.00000000000E+00  0.00000000000E+00  0.30796045735E+02  0.30796045735E+02  0.00000000000E+00 0. -1.
         22   -1    0    0    0    0 -0.00000000000E+00 -0.00000000000E+00 -0.57074557528E+00  0.57074557528E+00  0.00000000000E+00 0.  1.
          4    1    1    2  501    0  0.10996372143E+01  0.18929682722E+01  0.17372212773E+01  0.27947215691E+01  0.00000000000E+00 0.  1.
         -4    1    1    2    0  501 -0.10996372143E+01 -0.18929682722E+01  0.28488078882E+02  0.28572069741E+02  0.00000000000E+00 0. -1.
<mgrwt>
<rscale>  0 0.21891850E+01</rscale>
<asrwt>0</asrwt>
<pdfrwt beam="1">0</pdfrwt>
<pdfrwt beam="2">0</pdfrwt>
<totfact> 0.74343091E+11</totfact>
</mgrwt>
</event>
<event>
 4    2  0.1060494E+006  0.4178348E+01  0.7546771E-02  0.2244446E+00
         22   -1    0    0    0    0  0.00000000000E+00  0.00000000000E+00  0.36210045261E+00  0.36210045261E+00  0.00000000000E+00 0. -1.
         22   -1    0    0    0    0 -0.00000000000E+00 -0.00000000000E+00 -0.55179892411E+02  0.55179892411E+02  0.00000000000E+00 0.  1.
          4    1    1    2  501    0  0.21587695703E+01 -0.35774715456E+01 -0.37275450694E+02  0.37508903119E+02  0.00000000000E+00 0. -1.
         -4    1    1    2    0  501 -0.21587695703E+01  0.35774715456E+01 -0.17542341264E+02  0.18033089745E+02  0.00000000000E+00 0.  1.
<mgrwt>
<rscale>  0 0.41783476E+01</rscale>
<asrwt>0</asrwt>
<pdfrwt beam="1">0</pdfrwt>
<pdfrwt beam="2">0</pdfrwt>
<totfact> 0.58148138E+11</totfact>
</mgrwt>
</event>
<event>
 4    2  0.1060494E+006  0.4415869E+01  0.7546771E-02  0.2204213E+00
         22   -1    0    0    0    0  0.00000000000E+00  0.00000000000E+00  0.71142316791E+02  0.71142316791E+02  0.00000000000E+00 0. -1.
         22   -1    0    0    0    0 -0.00000000000E+00 -0.00000000000E+00 -0.34634501994E+00  0.34634501994E+00  0.00000000000E+00 0.  1.
          4    1    1    2  501    0  0.44141952299E+01 -0.12158696519E+00  0.51723443509E+02  0.51911602859E+02  0.00000000000E+00 0. -1.
         -4    1    1    2    0  501 -0.44141952299E+01  0.12158696519E+00  0.19072528262E+02  0.19577058952E+02  0.00000000000E+00 0.  1.
<mgrwt>
<rscale>  0 0.44158694E+01</rscale>
<asrwt>0</asrwt>
<pdfrwt beam="1">0</pdfrwt>
<pdfrwt beam="2">0</pdfrwt>
<totfact> 0.43449603E+11</totfact>
</mgrwt>
</event>
<event>
 4    2  0.1060494E+006  0.2291953E+01  0.7546771E-02  0.2808022E+00
         22   -1    0    0    0    0  0.00000000000E+00  0.00000000000E+00  0.11137657235E+01  0.11137657235E+01  0.00000000000E+00 0.  1.
         22   -1    0    0    0    0 -0.00000000000E+00 -0.00000000000E+00 -0.76462726042E+01  0.76462726042E+01  0.00000000000E+00 0. -1.
          4    1    1    2  501    0 -0.15575706490E+01  0.16813754379E+01 -0.59775051068E+01  0.64018448116E+01  0.00000000000E+00 0. -1.
         -4    1    1    2    0  501  0.15575706490E+01 -0.16813754379E+01 -0.55500177389E+00  0.23581935160E+01  0.00000000000E+00 0.  1.
<mgrwt>
<rscale>  0 0.22919532E+01</rscale>
<asrwt>0</asrwt>
<pdfrwt beam="1">0</pdfrwt>
<pdfrwt beam="2">0</pdfrwt>
<totfact> 0.19385701E+12</totfact>
</mgrwt>
</event>
<event>
 4    2  0.1060494E+006  0.2287715E+01  0.7546771E-02  0.2810226E+00
         22   -1    0    0    0    0  0.00000000000E+00  0.00000000000E+00  0.27551808011E+01  0.27551808011E+01  0.00000000000E+00 0. -1.
         22   -1    0    0    0    0 -0.00000000000E+00 -0.00000000000E+00 -0.29917463615E+01  0.29917463615E+01  0.00000000000E+00 0.  1.
          4    1    1    2  501    0 -0.17901947964E+01 -0.14243744495E+01 -0.18544480140E+01  0.29449308002E+01  0.00000000000E+00 0.  1.
         -4    1    1    2    0  501  0.17901947964E+01  0.14243744495E+01  0.16178824536E+01  0.28019963624E+01  0.00000000000E+00 0. -1.
<mgrwt>
<rscale>  0 0.22877150E+01</rscale>
<asrwt>0</asrwt>
<pdfrwt beam="1">0</pdfrwt>
<pdfrwt beam="2">0</pdfrwt>
<totfact> 0.20674850E+12</totfact>
</mgrwt>
</event>
<event>
 4    2  0.1060494E+006  0.2214618E+01  0.7546771E-02  0.2849499E+00
         22   -1    0    0    0    0  0.00000000000E+00  0.00000000000E+00  0.31681793699E+00  0.31681793699E+00  0.00000000000E+00 0. -1.
         22   -1    0    0    0    0 -0.00000000000E+00 -0.00000000000E+00 -0.15523122167E+02  0.15523122167E+02  0.00000000000E+00 0.  1.
          4    1    1    2  501    0  0.10746881443E+01  0.19363833495E+01 -0.71886869482E+01  0.75220844932E+01  0.00000000000E+00 0. -1.
         -4    1    1    2    0  501 -0.10746881443E+01 -0.19363833495E+01 -0.80176172814E+01  0.83178556103E+01  0.00000000000E+00 0.  1.
<mgrwt>
<rscale>  0 0.22146185E+01</rscale>
<asrwt>0</asrwt>
<pdfrwt beam="1">0</pdfrwt>
<pdfrwt beam="2">0</pdfrwt>
<totfact> 0.34047812E+12</totfact>
</mgrwt>
</event>
<event>
 4    2  0.1060494E+006  0.1284951E+02  0.7546771E-02  0.1680928E+00
         22   -1    0    0    0    0  0.00000000000E+00  0.00000000000E+00  0.91602046801E+01  0.91602046801E+01  0.00000000000E+00 0.  1.
         22   -1    0    0    0    0 -0.00000000000E+00 -0.00000000000E+00 -0.19706434571E+02  0.19706434571E+02  0.00000000000E+00 0. -1.
          4    1    1    2  501    0 -0.75786141828E+01 -0.10376629127E+02 -0.94895223480E+01  0.15973755331E+02  0.00000000000E+00 0. -1.
         -4    1    1    2    0  501  0.75786141828E+01  0.10376629127E+02 -0.10567075433E+01  0.12892883921E+02  0.00000000000E+00 0.  1.
<mgrwt>
<rscale>  0 0.12849507E+02</rscale>
<asrwt>0</asrwt>
<pdfrwt beam="1">0</pdfrwt>
<pdfrwt beam="2">0</pdfrwt>
<totfact> 0.51645097E+10</totfact>
</mgrwt>
</event>
<event>
 4    2  0.1060494E+006  0.2402743E+01  0.7546771E-02  0.2753025E+00
         22   -1    0    0    0    0  0.00000000000E+00  0.00000000000E+00  0.14037713495E+01  0.14037713495E+01  0.00000000000E+00 0. -1.
         22   -1    0    0    0    0 -0.00000000000E+00 -0.00000000000E+00 -0.18755131402E+02  0.18755131402E+02  0.00000000000E+00 0.  1.
          4    1    1    2  501    0 -0.21795610240E+01  0.10112801484E+01 -0.17581720607E+02  0.17745142245E+02  0.00000000000E+00 0.  1.
         -4    1    1    2    0  501  0.21795610240E+01 -0.10112801484E+01  0.23036055462E+00  0.24137605062E+01  0.00000000000E+00 0. -1.
<mgrwt>
<rscale>  0 0.24027430E+01</rscale>
<asrwt>0</asrwt>
<pdfrwt beam="1">0</pdfrwt>
<pdfrwt beam="2">0</pdfrwt>
<totfact> 0.49759329E+11</totfact>
</mgrwt>
</event>
<event>
 4    2  0.1060494E+006  0.2623934E+01  0.7546771E-02  0.2656291E+00
         22   -1    0    0    0    0  0.00000000000E+00  0.00000000000E+00  0.98708949808E+01  0.98708949808E+01  0.00000000000E+00 0.  1.
         22   -1    0    0    0    0 -0.00000000000E+00 -0.00000000000E+00 -0.82464107634E+00  0.82464107634E+00  0.00000000000E+00 0. -1.
          4    1    1    2  501    0 -0.22465389738E+01  0.13557622029E+01  0.66228852469E+01  0.71237376079E+01  0.00000000000E+00 0. -1.
         -4    1    1    2    0  501  0.22465389738E+01 -0.13557622029E+01  0.24233686575E+01  0.35717984492E+01  0.00000000000E+00 0.  1.
<mgrwt>
<rscale>  0 0.26239338E+01</rscale>
<asrwt>0</asrwt>
<pdfrwt beam="1">0</pdfrwt>
<pdfrwt beam="2">0</pdfrwt>
<totfact> 0.20082485E+12</totfact>
</mgrwt>
</event>
<event>
 4    2  0.1060494E+006  0.3412972E+01  0.7546771E-02  0.2405853E+00
         22   -1    0    0    0    0  0.00000000000E+00  0.00000000000E+00  0.33940527396E+00  0.33940527396E+00  0.00000000000E+00 0.  1.
         22   -1    0    0    0    0 -0.00000000000E+00 -0.00000000000E+00 -0.39790416793E+02  0.39790416793E+02  0.00000000000E+00 0. -1.
          4    1    1    2  501    0  0.10749713280E+01 -0.32392616733E+01 -0.27165272321E+02  0.27378831236E+02  0.00000000000E+00 0. -1.
         -4    1    1    2    0  501 -0.10749713280E+01  0.32392616733E+01 -0.12285739198E+02  0.12750990831E+02  0.00000000000E+00 0.  1.
<mgrwt>
<rscale>  0 0.34129722E+01</rscale>
<asrwt>0</asrwt>
<pdfrwt beam="1">0</pdfrwt>
<pdfrwt beam="2">0</pdfrwt>
<totfact> 0.96057190E+11</totfact>
</mgrwt>
</event>
<event>
 4    2  0.1060494E+006  0.2208888E+01  0.7546771E-02  0.2852683E+00
         22   -1    0    0    0    0  0.00000000000E+00  0.00000000000E+00  0.13413541404E+02  0.13413541404E+02  0.00000000000E+00 0.  1.
         22   -1    0    0    0    0 -0.00000000000E+00 -0.00000000000E+00 -0.84835971919E+00  0.84835971919E+00  0.00000000000E+00 0. -1.
          4    1    1    2  501    0  0.21028945166E+01  0.67603174685E+00  0.89303248362E+00  0.23825808040E+01  0.00000000000E+00 0. -1.
         -4    1    1    2    0  501 -0.21028945166E+01 -0.67603174685E+00  0.11672149201E+02  0.11879320319E+02  0.00000000000E+00 0.  1.
<mgrwt>
<rscale>  0 0.22088876E+01</rscale>
<asrwt>0</asrwt>
<pdfrwt beam="1">0</pdfrwt>
<pdfrwt beam="2">0</pdfrwt>
<totfact> 0.13385454E+12</totfact>
</mgrwt>
</event>
<event>
 4    2  0.1060494E+006  0.5316789E+01  0.7546771E-02  0.2086987E+00
         22   -1    0    0    0    0  0.00000000000E+00  0.00000000000E+00  0.32832785537E+02  0.32832785537E+02  0.00000000000E+00 0.  1.
         22   -1    0    0    0    0 -0.00000000000E+00 -0.00000000000E+00 -0.28480358643E+01  0.28480358643E+01  0.00000000000E+00 0. -1.
          4    1    1    2  501    0  0.59085626035E+00 -0.52838555145E+01  0.90613719673E-01  0.53175606311E+01  0.00000000000E+00 0. -1.
         -4    1    1    2    0  501 -0.59085626035E+00  0.52838555145E+01  0.29894135954E+02  0.30363260771E+02  0.00000000000E+00 0.  1.
<mgrwt>
<rscale>  0 0.53167885E+01</rscale>
<asrwt>0</asrwt>
<pdfrwt beam="1">0</pdfrwt>
<pdfrwt beam="2">0</pdfrwt>
<totfact> 0.10826402E+11</totfact>
</mgrwt>
</event>
<event>
 4    2  0.1060494E+006  0.2670823E+01  0.7546771E-02  0.2637696E+00
         22   -1    0    0    0    0  0.00000000000E+00  0.00000000000E+00  0.11311432335E+01  0.11311432335E+01  0.00000000000E+00 0. -1.
         22   -1    0    0    0    0 -0.00000000000E+00 -0.00000000000E+00 -0.83824487051E+01  0.83824487051E+01  0.00000000000E+00 0.  1.
          4    1    1    2  501    0 -0.25204392851E+01  0.88356145684E+00 -0.59929969037E+01  0.65611970650E+01  0.00000000000E+00 0.  1.
         -4    1    1    2    0  501  0.25204392851E+01 -0.88356145684E+00 -0.12583085678E+01  0.29523948736E+01  0.00000000000E+00 0. -1.
<mgrwt>
<rscale>  0 0.26708229E+01</rscale>
<asrwt>0</asrwt>
<pdfrwt beam="1">0</pdfrwt>
<pdfrwt beam="2">0</pdfrwt>
<totfact> 0.17054493E+12</totfact>
</mgrwt>
</event>
<event>
 4    2  0.1060494E+006  0.2328854E+01  0.7546771E-02  0.2789155E+00
         22   -1    0    0    0    0  0.00000000000E+00  0.00000000000E+00  0.17179392506E+01  0.17179392506E+01  0.00000000000E+00 0. -1.
         22   -1    0    0    0    0 -0.00000000000E+00 -0.00000000000E+00 -0.40013854379E+01  0.40013854379E+01  0.00000000000E+00 0.  1.
          4    1    1    2  501    0 -0.10090707277E+01  0.20988891472E+01 -0.24553624836E+01  0.33841342041E+01  0.00000000000E+00 0.  1.
         -4    1    1    2    0  501  0.10090707277E+01 -0.20988891472E+01  0.17191629630E+00  0.23351904844E+01  0.00000000000E+00 0. -1.
<mgrwt>
<rscale>  0 0.23288537E+01</rscale>
<asrwt>0</asrwt>
<pdfrwt beam="1">0</pdfrwt>
<pdfrwt beam="2">0</pdfrwt>
<totfact> 0.25426372E+12</totfact>
</mgrwt>
</event>
<event>
 4    2  0.1060494E+006  0.2799153E+01  0.7546771E-02  0.2589731E+00
         22   -1    0    0    0    0  0.00000000000E+00  0.00000000000E+00  0.32741544112E+01  0.32741544112E+01  0.00000000000E+00 0.  1.
         22   -1    0    0    0    0 -0.00000000000E+00 -0.00000000000E+00 -0.24080790998E+01  0.24080790998E+01  0.00000000000E+00 0. -1.
          4    1    1    2  501    0  0.26449474133E+01  0.91624857984E+00  0.20868559373E+00  0.28069214375E+01  0.00000000000E+00 0.  1.
         -4    1    1    2    0  501 -0.26449474133E+01 -0.91624857984E+00  0.65738971761E+00  0.28753120735E+01  0.00000000000E+00 0. -1.
<mgrwt>
<rscale>  0 0.27991531E+01</rscale>
<asrwt>0</asrwt>
<pdfrwt beam="1">0</pdfrwt>
<pdfrwt beam="2">0</pdfrwt>
<totfact> 0.21762975E+12</totfact>
</mgrwt>
</event>
<event>
 4    2  0.1060494E+006  0.2156826E+01  0.7546771E-02  0.2882350E+00
         22   -1    0    0    0    0  0.00000000000E+00  0.00000000000E+00  0.21807921047E+00  0.21807921047E+00  0.00000000000E+00 0. -1.
         22   -1    0    0    0    0 -0.00000000000E+00 -0.00000000000E+00 -0.21345994001E+02  0.21345994001E+02  0.00000000000E+00 0.  1.
          4    1    1    2  501    0 -0.55405290115E+00  0.20844479140E+01 -0.10280394378E+02  0.10504208980E+02  0.00000000000E+00 0. -1.
         -4    1    1    2    0  501  0.55405290115E+00 -0.20844479140E+01 -0.10847520412E+02  0.11059864231E+02  0.00000000000E+00 0.  1.
<mgrwt>
<rscale>  0 0.21568258E+01</rscale>
<asrwt>0</asrwt>
<pdfrwt beam="1">0</pdfrwt>
<pdfrwt beam="2">0</pdfrwt>
<totfact> 0.34824936E+12</totfact>
</mgrwt>
</event>
<event>
 4    2  0.1060494E+006  0.2839524E+01  0.7546771E-02  0.2575461E+00
         22   -1    0    0    0    0  0.00000000000E+00  0.00000000000E+00  0.48533425977E+01  0.48533425977E+01  0.00000000000E+00 0. -1.
         22   -1    0    0    0    0 -0.00000000000E+00 -0.00000000000E+00 -0.33326809209E+01  0.33326809209E+01  0.00000000000E+00 0.  1.
          4    1    1    2  501    0 -0.25548908187E+01  0.12391236160E+01 -0.21382330097E+01  0.35545653511E+01  0.00000000000E+00 0.  1.
         -4    1    1    2    0  501  0.25548908187E+01 -0.12391236160E+01  0.36588946865E+01  0.46314581676E+01  0.00000000000E+00 0. -1.
<mgrwt>
<rscale>  0 0.28395236E+01</rscale>
<asrwt>0</asrwt>
<pdfrwt beam="1">0</pdfrwt>
<pdfrwt beam="2">0</pdfrwt>
<totfact> 0.93741715E+11</totfact>
</mgrwt>
</event>
<event>
 4    2  0.1060494E+006  0.3344852E+01  0.7546771E-02  0.2423287E+00
         22   -1    0    0    0    0  0.00000000000E+00  0.00000000000E+00  0.15399290224E+02  0.15399290224E+02  0.00000000000E+00 0. -1.
         22   -1    0    0    0    0 -0.00000000000E+00 -0.00000000000E+00 -0.12550977441E+01  0.12550977441E+01  0.00000000000E+00 0.  1.
          4    1    1    2  501    0 -0.29732728815E+01  0.15322157092E+01  0.16681565319E+01  0.37377510380E+01  0.00000000000E+00 0.  1.
         -4    1    1    2    0  501  0.29732728815E+01 -0.15322157092E+01  0.12476035948E+02  0.12916636930E+02  0.00000000000E+00 0. -1.
<mgrwt>
<rscale>  0 0.33448523E+01</rscale>
<asrwt>0</asrwt>
<pdfrwt beam="1">0</pdfrwt>
<pdfrwt beam="2">0</pdfrwt>
<totfact> 0.72219419E+11</totfact>
</mgrwt>
</event>
<event>
 4    2  0.1060494E+006  0.3709885E+01  0.7546771E-02  0.2336436E+00
         22   -1    0    0    0    0  0.00000000000E+00  0.00000000000E+00  0.22787071059E+02  0.22787071059E+02  0.00000000000E+00 0. -1.
         22   -1    0    0    0    0 -0.00000000000E+00 -0.00000000000E+00 -0.12653397603E+01  0.12653397603E+01  0.00000000000E+00 0.  1.
          4    1    1    2  501    0  0.36008994655E+00 -0.36923685140E+01  0.20664702466E+01  0.42465926686E+01  0.00000000000E+00 0.  1.
         -4    1    1    2    0  501 -0.36008994655E+00  0.36923685140E+01  0.19455261052E+02  0.19805818150E+02  0.00000000000E+00 0. -1.
<mgrwt>
<rscale>  0 0.37098854E+01</rscale>
<asrwt>0</asrwt>
<pdfrwt beam="1">0</pdfrwt>
<pdfrwt beam="2">0</pdfrwt>
<totfact> 0.43956602E+11</totfact>
</mgrwt>
</event>
<event>
 4    2  0.1060494E+006  0.2119507E+01  0.7546771E-02  0.2904479E+00
         22   -1    0    0    0    0  0.00000000000E+00  0.00000000000E+00  0.14576242404E+02  0.14576242404E+02  0.00000000000E+00 0. -1.
         22   -1    0    0    0    0 -0.00000000000E+00 -0.00000000000E+00 -0.32776487684E+01  0.32776487684E+01  0.00000000000E+00 0.  1.
          4    1    1    2  501    0 -0.46022314093E+00  0.20689375653E+01 -0.28475942524E+01  0.35498029544E+01  0.00000000000E+00 0.  1.
         -4    1    1    2    0  501  0.46022314093E+00 -0.20689375653E+01  0.14146187888E+02  0.14304088218E+02  0.00000000000E+00 0. -1.
<mgrwt>
<rscale>  0 0.21195065E+01</rscale>
<asrwt>0</asrwt>
<pdfrwt beam="1">0</pdfrwt>
<pdfrwt beam="2">0</pdfrwt>
<totfact> 0.25419709E+11</totfact>
</mgrwt>
</event>
<event>
 4    2  0.1060494E+006  0.6682297E+01  0.7546771E-02  0.1963410E+00
         22   -1    0    0    0    0  0.00000000000E+00  0.00000000000E+00  0.84938805918E+01  0.84938805918E+01  0.00000000000E+00 0.  1.
         22   -1    0    0    0    0 -0.00000000000E+00 -0.00000000000E+00 -0.15581241901E+02  0.15581241901E+02  0.00000000000E+00 0. -1.
          4    1    1    2  501    0  0.66514497199E+01 -0.64132970756E+00 -0.13342295481E+02  0.14922129066E+02  0.00000000000E+00 0. -1.
         -4    1    1    2    0  501 -0.66514497199E+01  0.64132970756E+00  0.62549341718E+01  0.91529934264E+01  0.00000000000E+00 0.  1.
<mgrwt>
<rscale>  0 0.66822965E+01</rscale>
<asrwt>0</asrwt>
<pdfrwt beam="1">0</pdfrwt>
<pdfrwt beam="2">0</pdfrwt>
<totfact> 0.75679217E+10</totfact>
</mgrwt>
</event>
<event>
 4    2  0.1060494E+006  0.5056853E+01  0.7546771E-02  0.2116278E+00
         22   -1    0    0    0    0  0.00000000000E+00  0.00000000000E+00  0.50048938199E+01  0.50048938199E+01  0.00000000000E+00 0.  1.
         22   -1    0    0    0    0 -0.00000000000E+00 -0.00000000000E+00 -0.99439293869E+01  0.99439293869E+01  0.00000000000E+00 0. -1.
          4    1    1    2  501    0 -0.11106495007E+01 -0.49333778367E+01 -0.76811924532E+01  0.91963295230E+01  0.00000000000E+00 0. -1.
         -4    1    1    2    0  501  0.11106495007E+01  0.49333778367E+01  0.27421568862E+01  0.57524936837E+01  0.00000000000E+00 0.  1.
<mgrwt>
<rscale>  0 0.50568527E+01</rscale>
<asrwt>0</asrwt>
<pdfrwt beam="1">0</pdfrwt>
<pdfrwt beam="2">0</pdfrwt>
<totfact> 0.24624491E+11</totfact>
</mgrwt>
</event>
<event>
 4    2  0.1060494E+006  0.3771569E+01  0.7546771E-02  0.2323209E+00
         22   -1    0    0    0    0  0.00000000000E+00  0.00000000000E+00  0.13050763099E+01  0.13050763099E+01  0.00000000000E+00 0. -1.
         22   -1    0    0    0    0 -0.00000000000E+00 -0.00000000000E+00 -0.10936936272E+02  0.10936936272E+02  0.00000000000E+00 0.  1.
          4    1    1    2  501    0  0.52167226760E+00 -0.37353164142E+01 -0.44580045287E+01  0.58393950925E+01  0.00000000000E+00 0. -1.
         -4    1    1    2    0  501 -0.52167226760E+00  0.37353164142E+01 -0.51738554331E+01  0.64026174891E+01  0.00000000000E+00 0.  1.
<mgrwt>
<rscale>  0 0.37715687E+01</rscale>
<asrwt>0</asrwt>
<pdfrwt beam="1">0</pdfrwt>
<pdfrwt beam="2">0</pdfrwt>
<totfact> 0.10495071E+12</totfact>
</mgrwt>
</event>
<event>
 4    2  0.1060494E+006  0.2251671E+01  0.7546771E-02  0.2829287E+00
         22   -1    0    0    0    0  0.00000000000E+00  0.00000000000E+00  0.29898622037E+00  0.29898622037E+00  0.00000000000E+00 0. -1.
         22   -1    0    0    0    0 -0.00000000000E+00 -0.00000000000E+00 -0.16988975842E+02  0.16988975842E+02  0.00000000000E+00 0.  1.
          4    1    1    2  501    0  0.21470789130E+01 -0.67828717098E+00 -0.79721894471E+01  0.82840706132E+01  0.00000000000E+00 0.  1.
         -4    1    1    2    0  501 -0.21470789130E+01  0.67828717098E+00 -0.87178001750E+01  0.90038914496E+01  0.00000000000E+00 0. -1.
<mgrwt>
<rscale>  0 0.22516708E+01</rscale>
<asrwt>0</asrwt>
<pdfrwt beam="1">0</pdfrwt>
<pdfrwt beam="2">0</pdfrwt>
<totfact> 0.32502464E+12</totfact>
</mgrwt>
</event>
<event>
 4    2  0.1060494E+006  0.3966947E+01  0.7546771E-02  0.2283658E+00
         22   -1    0    0    0    0  0.00000000000E+00  0.00000000000E+00  0.19416273125E+02  0.19416273125E+02  0.00000000000E+00 0. -1.
         22   -1    0    0    0    0 -0.00000000000E+00 -0.00000000000E+00 -0.81208238619E+00  0.81208238619E+00  0.00000000000E+00 0.  1.
          4    1    1    2  501    0  0.73038373163E+00 -0.38991290134E+01  0.97501691424E+01  0.10526275018E+02  0.00000000000E+00 0. -1.
         -4    1    1    2    0  501 -0.73038373163E+00  0.38991290134E+01  0.88540215968E+01  0.97020804932E+01  0.00000000000E+00 0.  1.
<mgrwt>
<rscale>  0 0.39669469E+01</rscale>
<asrwt>0</asrwt>
<pdfrwt beam="1">0</pdfrwt>
<pdfrwt beam="2">0</pdfrwt>
<totfact> 0.89114226E+11</totfact>
</mgrwt>
</event>
<event>
 4    2  0.1060494E+006  0.2207420E+01  0.7546771E-02  0.2853501E+00
         22   -1    0    0    0    0  0.00000000000E+00  0.00000000000E+00  0.83366696859E+00  0.83366696859E+00  0.00000000000E+00 0.  1.
         22   -1    0    0    0    0 -0.00000000000E+00 -0.00000000000E+00 -0.58909078410E+01  0.58909078410E+01  0.00000000000E+00 0. -1.
          4    1    1    2  501    0 -0.20994016578E+01 -0.68206770732E+00 -0.22314954414E+01  0.31388334749E+01  0.00000000000E+00 0.  1.
         -4    1    1    2    0  501  0.20994016578E+01  0.68206770732E+00 -0.28257454309E+01  0.35857413346E+01  0.00000000000E+00 0. -1.
<mgrwt>
<rscale>  0 0.22074201E+01</rscale>
<asrwt>0</asrwt>
<pdfrwt beam="1">0</pdfrwt>
<pdfrwt beam="2">0</pdfrwt>
<totfact> 0.36842726E+12</totfact>
</mgrwt>
</event>
<event>
 4    2  0.1060494E+006  0.3097839E+01  0.7546771E-02  0.2492138E+00
         22   -1    0    0    0    0  0.00000000000E+00  0.00000000000E+00  0.10167244383E+02  0.10167244383E+02  0.00000000000E+00 0. -1.
         22   -1    0    0    0    0 -0.00000000000E+00 -0.00000000000E+00 -0.11050961707E+01  0.11050961707E+01  0.00000000000E+00 0.  1.
          4    1    1    2  501    0  0.28683586227E+01 -0.11700950368E+01  0.66838343319E+01  0.73668341206E+01  0.00000000000E+00 0.  1.
         -4    1    1    2    0  501 -0.28683586227E+01  0.11700950368E+01  0.23783138800E+01  0.39055064327E+01  0.00000000000E+00 0. -1.
<mgrwt>
<rscale>  0 0.30978385E+01</rscale>
<asrwt>0</asrwt>
<pdfrwt beam="1">0</pdfrwt>
<pdfrwt beam="2">0</pdfrwt>
<totfact> 0.13873931E+12</totfact>
</mgrwt>
</event>
<event>
 4    2  0.1060494E+006  0.2600579E+01  0.7546771E-02  0.2665783E+00
         22   -1    0    0    0    0  0.00000000000E+00  0.00000000000E+00  0.26730848183E+02  0.26730848183E+02  0.00000000000E+00 0.  1.
         22   -1    0    0    0    0 -0.00000000000E+00 -0.00000000000E+00 -0.37431258775E+00  0.37431258775E+00  0.00000000000E+00 0. -1.
          4    1    1    2  501    0 -0.21198035262E+01  0.15064669996E+01  0.54630060721E+01  0.60504086766E+01  0.00000000000E+00 0. -1.
         -4    1    1    2    0  501  0.21198035262E+01 -0.15064669996E+01  0.20893529523E+02  0.21054752094E+02  0.00000000000E+00 0.  1.
<mgrwt>
<rscale>  0 0.26005787E+01</rscale>
<asrwt>0</asrwt>
<pdfrwt beam="1">0</pdfrwt>
<pdfrwt beam="2">0</pdfrwt>
<totfact> 0.14324245E+12</totfact>
</mgrwt>
</event>
<event>
 4    2  0.1060494E+006  0.2194871E+01  0.7546771E-02  0.2860537E+00
         22   -1    0    0    0    0  0.00000000000E+00  0.00000000000E+00  0.10678883962E+00  0.10678883962E+00  0.00000000000E+00 0. -1.
         22   -1    0    0    0    0 -0.00000000000E+00 -0.00000000000E+00 -0.47562770410E+02  0.47562770410E+02  0.00000000000E+00 0.  1.
          4    1    1    2  501    0  0.43029666935E+00  0.21522785442E+01 -0.29138384434E+02  0.29220932661E+02  0.00000000000E+00 0. -1.
         -4    1    1    2    0  501 -0.43029666935E+00 -0.21522785442E+01 -0.18317597137E+02  0.18448626589E+02  0.00000000000E+00 0.  1.
<mgrwt>
<rscale>  0 0.21948709E+01</rscale>
<asrwt>0</asrwt>
<pdfrwt beam="1">0</pdfrwt>
<pdfrwt beam="2">0</pdfrwt>
<totfact> 0.27625669E+12</totfact>
</mgrwt>
</event>
<event>
 4    2  0.1060494E+006  0.3714064E+01  0.7546771E-02  0.2335528E+00
         22   -1    0    0    0    0  0.00000000000E+00  0.00000000000E+00  0.38129758419E+01  0.38129758419E+01  0.00000000000E+00 0.  1.
         22   -1    0    0    0    0 -0.00000000000E+00 -0.00000000000E+00 -0.47976547419E+01  0.47976547419E+01  0.00000000000E+00 0. -1.
          4    1    1    2  501    0 -0.24216397942E+01 -0.28160138996E+01 -0.26274468240E+01  0.45494780347E+01  0.00000000000E+00 0. -1.
         -4    1    1    2    0  501  0.24216397942E+01  0.28160138996E+01  0.16427679241E+01  0.40611525491E+01  0.00000000000E+00 0.  1.
<mgrwt>
<rscale>  0 0.37140643E+01</rscale>
<asrwt>0</asrwt>
<pdfrwt beam="1">0</pdfrwt>
<pdfrwt beam="2">0</pdfrwt>
<totfact> 0.81145980E+11</totfact>
</mgrwt>
</event>
<event>
 4    2  0.1060494E+006  0.3523418E+01  0.7546771E-02  0.2378844E+00
         22   -1    0    0    0    0  0.00000000000E+00  0.00000000000E+00  0.35561421242E+01  0.35561421242E+01  0.00000000000E+00 0. -1.
         22   -1    0    0    0    0 -0.00000000000E+00 -0.00000000000E+00 -0.44124443459E+01  0.44124443459E+01  0.00000000000E+00 0.  1.
          4    1    1    2  501    0 -0.23348905487E+01  0.26387037685E+01 -0.22488897149E+01  0.41799493301E+01  0.00000000000E+00 0.  1.
         -4    1    1    2    0  501  0.23348905487E+01 -0.26387037685E+01  0.13925874931E+01  0.37886371400E+01  0.00000000000E+00 0. -1.
<mgrwt>
<rscale>  0 0.35234176E+01</rscale>
<asrwt>0</asrwt>
<pdfrwt beam="1">0</pdfrwt>
<pdfrwt beam="2">0</pdfrwt>
<totfact> 0.97221984E+11</totfact>
</mgrwt>
</event>
<event>
 4    2  0.1060494E+006  0.2885689E+01  0.7546771E-02  0.2559586E+00
         22   -1    0    0    0    0  0.00000000000E+00  0.00000000000E+00  0.32268140395E+01  0.32268140395E+01  0.00000000000E+00 0. -1.
         22   -1    0    0    0    0 -0.00000000000E+00 -0.00000000000E+00 -0.73971080631E+01  0.73971080631E+01  0.00000000000E+00 0.  1.
          4    1    1    2  501    0  0.25403086325E+00  0.28744856307E+01 -0.63715094094E+01  0.69945215329E+01  0.00000000000E+00 0.  1.
         -4    1    1    2    0  501 -0.25403086325E+00 -0.28744856307E+01  0.22012153858E+01  0.36294005697E+01  0.00000000000E+00 0. -1.
<mgrwt>
<rscale>  0 0.28856887E+01</rscale>
<asrwt>0</asrwt>
<pdfrwt beam="1">0</pdfrwt>
<pdfrwt beam="2">0</pdfrwt>
<totfact> 0.58948371E+11</totfact>
</mgrwt>
</event>
<event>
 4    2  0.1060494E+006  0.4201253E+01  0.7546771E-02  0.2240399E+00
         22   -1    0    0    0    0  0.00000000000E+00  0.00000000000E+00  0.24198951245E+01  0.24198951245E+01  0.00000000000E+00 0.  1.
         22   -1    0    0    0    0 -0.00000000000E+00 -0.00000000000E+00 -0.74424223432E+01  0.74424223432E+01  0.00000000000E+00 0. -1.
          4    1    1    2  501    0 -0.17779022555E+01 -0.38065198319E+01 -0.18147116528E+01  0.45764296175E+01  0.00000000000E+00 0. -1.
         -4    1    1    2    0  501  0.17779022555E+01  0.38065198319E+01 -0.32078155659E+01  0.52858878503E+01  0.00000000000E+00 0.  1.
<mgrwt>
<rscale>  0 0.42012533E+01</rscale>
<asrwt>0</asrwt>
<pdfrwt beam="1">0</pdfrwt>
<pdfrwt beam="2">0</pdfrwt>
<totfact> 0.81856095E+11</totfact>
</mgrwt>
</event>
<event>
 4    2  0.1060494E+006  0.2531994E+01  0.7546771E-02  0.2694591E+00
         22   -1    0    0    0    0  0.00000000000E+00  0.00000000000E+00  0.96345357061E+00  0.96345357061E+00  0.00000000000E+00 0.  1.
         22   -1    0    0    0    0 -0.00000000000E+00 -0.00000000000E+00 -0.17276622448E+02  0.17276622448E+02  0.00000000000E+00 0. -1.
          4    1    1    2  501    0  0.13851405919E+01  0.21195239003E+01 -0.15307791721E+02  0.15515781752E+02  0.00000000000E+00 0. -1.
         -4    1    1    2    0  501 -0.13851405919E+01 -0.21195239003E+01 -0.10053771571E+01  0.27242942666E+01  0.00000000000E+00 0.  1.
<mgrwt>
<rscale>  0 0.25319945E+01</rscale>
<asrwt>0</asrwt>
<pdfrwt beam="1">0</pdfrwt>
<pdfrwt beam="2">0</pdfrwt>
<totfact> 0.84783520E+11</totfact>
</mgrwt>
</event>
<event>
 4    2  0.1060494E+006  0.2022439E+01  0.7546771E-02  0.2965741E+00
         22   -1    0    0    0    0  0.00000000000E+00  0.00000000000E+00  0.10262821622E+02  0.10262821622E+02  0.00000000000E+00 0. -1.
         22   -1    0    0    0    0 -0.00000000000E+00 -0.00000000000E+00 -0.19747642768E+01  0.19747642768E+01  0.00000000000E+00 0.  1.
          4    1    1    2  501    0  0.29330186871E+00  0.20010585805E+01 -0.13225495721E+01  0.24164848022E+01  0.00000000000E+00 0.  1.
         -4    1    1    2    0  501 -0.29330186871E+00 -0.20010585805E+01  0.96106069172E+01  0.98211010964E+01  0.00000000000E+00 0. -1.
<mgrwt>
<rscale>  0 0.20224395E+01</rscale>
<asrwt>0</asrwt>
<pdfrwt beam="1">0</pdfrwt>
<pdfrwt beam="2">0</pdfrwt>
<totfact> 0.70338724E+11</totfact>
</mgrwt>
</event>
<event>
 4    2  0.1060494E+006  0.2701074E+01  0.7546771E-02  0.2626014E+00
         22   -1    0    0    0    0  0.00000000000E+00  0.00000000000E+00  0.11849552877E+02  0.11849552877E+02  0.00000000000E+00 0. -1.
         22   -1    0    0    0    0 -0.00000000000E+00 -0.00000000000E+00 -0.64821873457E+00  0.64821873457E+00  0.00000000000E+00 0.  1.
          4    1    1    2  501    0 -0.26151280667E+01  0.67594834900E+00  0.42011087668E+01  0.49945085690E+01  0.00000000000E+00 0.  1.
         -4    1    1    2    0  501  0.26151280667E+01 -0.67594834900E+00  0.70002253755E+01  0.75032630424E+01  0.00000000000E+00 0. -1.
<mgrwt>
<rscale>  0 0.27010740E+01</rscale>
<asrwt>0</asrwt>
<pdfrwt beam="1">0</pdfrwt>
<pdfrwt beam="2">0</pdfrwt>
<totfact> 0.21145134E+12</totfact>
</mgrwt>
</event>
<event>
 4    2  0.1060494E+006  0.2492085E+01  0.7546771E-02  0.2712030E+00
         22   -1    0    0    0    0  0.00000000000E+00  0.00000000000E+00  0.12509361468E+01  0.12509361468E+01  0.00000000000E+00 0. -1.
         22   -1    0    0    0    0 -0.00000000000E+00 -0.00000000000E+00 -0.92665760570E+01  0.92665760570E+01  0.00000000000E+00 0.  1.
          4    1    1    2  501    0 -0.13904501937E+01 -0.20681238251E+01 -0.75908770807E+01  0.79894870143E+01  0.00000000000E+00 0.  1.
         -4    1    1    2    0  501  0.13904501937E+01  0.20681238251E+01 -0.42476282944E+00  0.25280251894E+01  0.00000000000E+00 0. -1.
<mgrwt>
<rscale>  0 0.24920851E+01</rscale>
<asrwt>0</asrwt>
<pdfrwt beam="1">0</pdfrwt>
<pdfrwt beam="2">0</pdfrwt>
<totfact> 0.13466618E+12</totfact>
</mgrwt>
</event>
<event>
 4    2  0.1060494E+006  0.2730359E+01  0.7546771E-02  0.2614932E+00
         22   -1    0    0    0    0  0.00000000000E+00  0.00000000000E+00  0.12712009522E+01  0.12712009522E+01  0.00000000000E+00 0.  1.
         22   -1    0    0    0    0 -0.00000000000E+00 -0.00000000000E+00 -0.66684978181E+01  0.66684978181E+01  0.00000000000E+00 0. -1.
          4    1    1    2  501    0 -0.20170648629E+01 -0.18401923292E+01 -0.40771542425E+01  0.49069384739E+01  0.00000000000E+00 0. -1.
         -4    1    1    2    0  501  0.20170648629E+01  0.18401923292E+01 -0.13201426234E+01  0.30327602964E+01  0.00000000000E+00 0.  1.
<mgrwt>
<rscale>  0 0.27303587E+01</rscale>
<asrwt>0</asrwt>
<pdfrwt beam="1">0</pdfrwt>
<pdfrwt beam="2">0</pdfrwt>
<totfact> 0.19626494E+12</totfact>
</mgrwt>
</event>
<event>
 4    2  0.1060494E+006  0.5425232E+01  0.7546771E-02  0.2075424E+00
         22   -1    0    0    0    0  0.00000000000E+00  0.00000000000E+00  0.89599446737E+01  0.89599446737E+01  0.00000000000E+00 0. -1.
         22   -1    0    0    0    0 -0.00000000000E+00 -0.00000000000E+00 -0.32851538607E+01  0.32851538607E+01  0.00000000000E+00 0.  1.
          4    1    1    2  501    0 -0.47850290087E+01  0.25566853950E+01  0.28832910280E+01  0.61438188430E+01  0.00000000000E+00 0.  1.
         -4    1    1    2    0  501  0.47850290087E+01 -0.25566853950E+01  0.27914997851E+01  0.61012796915E+01  0.00000000000E+00 0. -1.
<mgrwt>
<rscale>  0 0.54252321E+01</rscale>
<asrwt>0</asrwt>
<pdfrwt beam="1">0</pdfrwt>
<pdfrwt beam="2">0</pdfrwt>
<totfact> 0.45845485E+11</totfact>
</mgrwt>
</event>
<event>
 4    2  0.1060494E+006  0.2186153E+01  0.7546771E-02  0.2865471E+00
         22   -1    0    0    0    0  0.00000000000E+00  0.00000000000E+00  0.30112311682E+01  0.30112311682E+01  0.00000000000E+00 0. -1.
         22   -1    0    0    0    0 -0.00000000000E+00 -0.00000000000E+00 -0.64000291516E+01  0.64000291516E+01  0.00000000000E+00 0.  1.
          4    1    1    2  501    0  0.39705104781E+00 -0.21497947274E+01 -0.57750497055E+01  0.61749871259E+01  0.00000000000E+00 0.  1.
         -4    1    1    2    0  501 -0.39705104781E+00  0.21497947274E+01  0.23862517220E+01  0.32362731939E+01  0.00000000000E+00 0. -1.
<mgrwt>
<rscale>  0 0.21861534E+01</rscale>
<asrwt>0</asrwt>
<pdfrwt beam="1">0</pdfrwt>
<pdfrwt beam="2">0</pdfrwt>
<totfact> 0.75985355E+11</totfact>
</mgrwt>
</event>
<event>
 4    2  0.1060494E+006  0.2906795E+01  0.7546771E-02  0.2552480E+00
         22   -1    0    0    0    0  0.00000000000E+00  0.00000000000E+00  0.49724198768E+02  0.49724198768E+02  0.00000000000E+00 0. -1.
         22   -1    0    0    0    0 -0.00000000000E+00 -0.00000000000E+00 -0.17876206055E+00  0.17876206055E+00  0.00000000000E+00 0.  1.
          4    1    1    2  501    0 -0.70367636885E+00 -0.28203363838E+01  0.30319950542E+02  0.30458970085E+02  0.00000000000E+00 0. -1.
         -4    1    1    2    0  501  0.70367636885E+00  0.28203363838E+01  0.19225486165E+02  0.19443990743E+02  0.00000000000E+00 0.  1.
<mgrwt>
<rscale>  0 0.29067951E+01</rscale>
<asrwt>0</asrwt>
<pdfrwt beam="1">0</pdfrwt>
<pdfrwt beam="2">0</pdfrwt>
<totfact> 0.14702519E+12</totfact>
</mgrwt>
</event>
<event>
 4    2  0.1060494E+006  0.2868183E+01  0.7546771E-02  0.2565551E+00
         22   -1    0    0    0    0  0.00000000000E+00  0.00000000000E+00  0.25325596753E+00  0.25325596753E+00  0.00000000000E+00 0. -1.
         22   -1    0    0    0    0 -0.00000000000E+00 -0.00000000000E+00 -0.34299129245E+02  0.34299129245E+02  0.00000000000E+00 0.  1.
          4    1    1    2  501    0  0.11223368713E+01  0.26394758901E+01 -0.20998503088E+02  0.21193480246E+02  0.00000000000E+00 0. -1.
         -4    1    1    2    0  501 -0.11223368713E+01 -0.26394758901E+01 -0.13047370190E+02  0.13358904966E+02  0.00000000000E+00 0.  1.
<mgrwt>
<rscale>  0 0.28681829E+01</rscale>
<asrwt>0</asrwt>
<pdfrwt beam="1">0</pdfrwt>
<pdfrwt beam="2">0</pdfrwt>
<totfact> 0.16155632E+12</totfact>
</mgrwt>
</event>
<event>
 4    2  0.1060494E+006  0.2223607E+01  0.7546771E-02  0.2844537E+00
         22   -1    0    0    0    0  0.00000000000E+00  0.00000000000E+00  0.41343196081E+01  0.41343196081E+01  0.00000000000E+00 0. -1.
         22   -1    0    0    0    0 -0.00000000000E+00 -0.00000000000E+00 -0.30075514796E+01  0.30075514796E+01  0.00000000000E+00 0.  1.
          4    1    1    2  501    0 -0.17150527358E+01 -0.14152815839E+01 -0.22080665778E+01  0.31336856671E+01  0.00000000000E+00 0. -1.
         -4    1    1    2    0  501  0.17150527358E+01  0.14152815839E+01  0.33348347063E+01  0.40081854206E+01  0.00000000000E+00 0.  1.
<mgrwt>
<rscale>  0 0.22236069E+01</rscale>
<asrwt>0</asrwt>
<pdfrwt beam="1">0</pdfrwt>
<pdfrwt beam="2">0</pdfrwt>
<totfact> 0.12771861E+12</totfact>
</mgrwt>
</event>
<event>
 4    2  0.1060494E+006  0.2595509E+01  0.7546771E-02  0.2667864E+00
         22   -1    0    0    0    0  0.00000000000E+00  0.00000000000E+00  0.42932551367E-01  0.42932551367E-01  0.00000000000E+00 0. -1.
         22   -1    0    0    0    0 -0.00000000000E+00 -0.00000000000E+00 -0.16720077388E+03  0.16720077388E+03  0.00000000000E+00 0.  1.
          4    1    1    2  501    0  0.23261884814E+01 -0.11513086417E+01 -0.10432169088E+03  0.10435397382E+03  0.00000000000E+00 0.  1.
         -4    1    1    2    0  501 -0.23261884814E+01  0.11513086417E+01 -0.62836150453E+02  0.62889732614E+02  0.00000000000E+00 0. -1.
<mgrwt>
<rscale>  0 0.25955085E+01</rscale>
<asrwt>0</asrwt>
<pdfrwt beam="1">0</pdfrwt>
<pdfrwt beam="2">0</pdfrwt>
<totfact> 0.13026935E+12</totfact>
</mgrwt>
</event>
<event>
 4    2  0.1060494E+006  0.2232137E+01  0.7546771E-02  0.2839864E+00
         22   -1    0    0    0    0  0.00000000000E+00  0.00000000000E+00  0.13672027023E+02  0.13672027023E+02  0.00000000000E+00 0. -1.
         22   -1    0    0    0    0 -0.00000000000E+00 -0.00000000000E+00 -0.61309597858E+00  0.61309597858E+00  0.00000000000E+00 0.  1.
          4    1    1    2  501    0 -0.22247295911E+01  0.18169326501E+00  0.19806121359E+01  0.29841679962E+01  0.00000000000E+00 0.  1.
         -4    1    1    2    0  501  0.22247295911E+01 -0.18169326501E+00  0.11078318908E+02  0.11300955005E+02  0.00000000000E+00 0. -1.
<mgrwt>
<rscale>  0 0.22321367E+01</rscale>
<asrwt>0</asrwt>
<pdfrwt beam="1">0</pdfrwt>
<pdfrwt beam="2">0</pdfrwt>
<totfact> 0.18909001E+12</totfact>
</mgrwt>
</event>
<event>
 4    2  0.1060494E+006  0.2829432E+01  0.7546771E-02  0.2578993E+00
         22   -1    0    0    0    0  0.00000000000E+00  0.00000000000E+00  0.36838827555E+01  0.36838827555E+01  0.00000000000E+00 0. -1.
         22   -1    0    0    0    0 -0.00000000000E+00 -0.00000000000E+00 -0.41498320486E+01  0.41498320486E+01  0.00000000000E+00 0.  1.
          4    1    1    2  501    0  0.20486342278E+01  0.19516098005E+01 -0.29362440144E+01  0.40776478422E+01  0.00000000000E+00 0.  1.
         -4    1    1    2    0  501 -0.20486342278E+01 -0.19516098005E+01  0.24702947212E+01  0.37560669620E+01  0.00000000000E+00 0. -1.
<mgrwt>
<rscale>  0 0.28294316E+01</rscale>
<asrwt>0</asrwt>
<pdfrwt beam="1">0</pdfrwt>
<pdfrwt beam="2">0</pdfrwt>
<totfact> 0.10027372E+12</totfact>
</mgrwt>
</event>
<event>
 4    2  0.1060494E+006  0.2397115E+01  0.7546771E-02  0.2755703E+00
         22   -1    0    0    0    0  0.00000000000E+00  0.00000000000E+00  0.81636894835E+01  0.81636894835E+01  0.00000000000E+00 0.  1.
         22   -1    0    0    0    0 -0.00000000000E+00 -0.00000000000E+00 -0.86435293472E+00  0.86435293472E+00  0.00000000000E+00 0. -1.
          4    1    1    2  501    0 -0.18221109818E+00 -0.23901799877E+01  0.17045996366E+01  0.29413978274E+01  0.00000000000E+00 0. -1.
         -4    1    1    2    0  501  0.18221109818E+00  0.23901799877E+01  0.55947369122E+01  0.60866445908E+01  0.00000000000E+00 0.  1.
<mgrwt>
<rscale>  0 0.23971152E+01</rscale>
<asrwt>0</asrwt>
<pdfrwt beam="1">0</pdfrwt>
<pdfrwt beam="2">0</pdfrwt>
<totfact> 0.23934797E+12</totfact>
</mgrwt>
</event>
<event>
 4    2  0.1060494E+006  0.2743009E+01  0.7546771E-02  0.2610211E+00
         22   -1    0    0    0    0  0.00000000000E+00  0.00000000000E+00  0.60691114807E+01  0.60691114807E+01  0.00000000000E+00 0. -1.
         22   -1    0    0    0    0 -0.00000000000E+00 -0.00000000000E+00 -0.12826475741E+01  0.12826475741E+01  0.00000000000E+00 0.  1.
          4    1    1    2  501    0 -0.80899875777E+00  0.26209963397E+01  0.17208890770E+01  0.32381414450E+01  0.00000000000E+00 0.  1.
         -4    1    1    2    0  501  0.80899875777E+00 -0.26209963397E+01  0.30655748296E+01  0.41136176097E+01  0.00000000000E+00 0. -1.
<mgrwt>
<rscale>  0 0.27430094E+01</rscale>
<asrwt>0</asrwt>
<pdfrwt beam="1">0</pdfrwt>
<pdfrwt beam="2">0</pdfrwt>
<totfact> 0.21734796E+12</totfact>
</mgrwt>
</event>
<event>
 4    2  0.1060494E+006  0.2205637E+01  0.7546771E-02  0.2854496E+00
         22   -1    0    0    0    0  0.00000000000E+00  0.00000000000E+00  0.96295959944E+02  0.96295959944E+02  0.00000000000E+00 0.  1.
         22   -1    0    0    0    0 -0.00000000000E+00 -0.00000000000E+00 -0.24276694755E+00  0.24276694755E+00  0.00000000000E+00 0. -1.
          4    1    1    2  501    0  0.12783257815E+00 -0.22019295759E+01  0.50722662661E+01  0.55310686219E+01  0.00000000000E+00 0. -1.
         -4    1    1    2    0  501 -0.12783257815E+00  0.22019295759E+01  0.90980926731E+02  0.91007658270E+02  0.00000000000E+00 0.  1.
<mgrwt>
<rscale>  0 0.22056371E+01</rscale>
<asrwt>0</asrwt>
<pdfrwt beam="1">0</pdfrwt>
<pdfrwt beam="2">0</pdfrwt>
<totfact> 0.42610545E+11</totfact>
</mgrwt>
</event>
<event>
 4    2  0.1060494E+006  0.2703336E+01  0.7546771E-02  0.2625151E+00
         22   -1    0    0    0    0  0.00000000000E+00  0.00000000000E+00  0.20008000018E+02  0.20008000018E+02  0.00000000000E+00 0. -1.
         22   -1    0    0    0    0 -0.00000000000E+00 -0.00000000000E+00 -0.36592375536E+00  0.36592375536E+00  0.00000000000E+00 0.  1.
          4    1    1    2  501    0 -0.74098164571E+00 -0.25998022275E+01  0.10256478048E+02  0.10606760456E+02  0.00000000000E+00 0. -1.
         -4    1    1    2    0  501  0.74098164571E+00  0.25998022275E+01  0.93855982146E+01  0.97671633173E+01  0.00000000000E+00 0.  1.
<mgrwt>
<rscale>  0 0.27033360E+01</rscale>
<asrwt>0</asrwt>
<pdfrwt beam="1">0</pdfrwt>
<pdfrwt beam="2">0</pdfrwt>
<totfact> 0.21144289E+12</totfact>
</mgrwt>
</event>
<event>
 4    2  0.1060494E+006  0.2143969E+01  0.7546771E-02  0.2889890E+00
         22   -1    0    0    0    0  0.00000000000E+00  0.00000000000E+00  0.21728634015E+02  0.21728634015E+02  0.00000000000E+00 0.  1.
         22   -1    0    0    0    0 -0.00000000000E+00 -0.00000000000E+00 -0.51926120211E+00  0.51926120211E+00  0.00000000000E+00 0. -1.
          4    1    1    2  501    0 -0.12294104179E+01 -0.17564603101E+01  0.20413981170E+01  0.29603900197E+01  0.00000000000E+00 0. -1.
         -4    1    1    2    0  501  0.12294104179E+01  0.17564603101E+01  0.19167974696E+02  0.19287505197E+02  0.00000000000E+00 0.  1.
<mgrwt>
<rscale>  0 0.21439689E+01</rscale>
<asrwt>0</asrwt>
<pdfrwt beam="1">0</pdfrwt>
<pdfrwt beam="2">0</pdfrwt>
<totfact> 0.12855577E+12</totfact>
</mgrwt>
</event>
<event>
 4    2  0.1060494E+006  0.2112908E+01  0.7546771E-02  0.2908470E+00
         22   -1    0    0    0    0  0.00000000000E+00  0.00000000000E+00  0.11736016093E+02  0.11736016093E+02  0.00000000000E+00 0.  1.
         22   -1    0    0    0    0 -0.00000000000E+00 -0.00000000000E+00 -0.40150430350E+00  0.40150430350E+00  0.00000000000E+00 0. -1.
          4    1    1    2  501    0  0.21127094470E+01 -0.28959695972E-01  0.42758912707E+01  0.47694471409E+01  0.00000000000E+00 0. -1.
         -4    1    1    2    0  501 -0.21127094470E+01  0.28959695972E-01  0.70586205190E+01  0.73680732558E+01  0.00000000000E+00 0.  1.
<mgrwt>
<rscale>  0 0.21129079E+01</rscale>
<asrwt>0</asrwt>
<pdfrwt beam="1">0</pdfrwt>
<pdfrwt beam="2">0</pdfrwt>
<totfact> 0.36751036E+12</totfact>
</mgrwt>
</event>
<event>
 4    2  0.1060494E+006  0.2971279E+01  0.7546771E-02  0.2531335E+00
         22   -1    0    0    0    0  0.00000000000E+00  0.00000000000E+00  0.62034177936E+02  0.62034177936E+02  0.00000000000E+00 0. -1.
         22   -1    0    0    0    0 -0.00000000000E+00 -0.00000000000E+00 -0.15395113840E+00  0.15395113840E+00  0.00000000000E+00 0.  1.
          4    1    1    2  501    0  0.29430593947E+01  0.40853198354E+00  0.22392211873E+02  0.22588484888E+02  0.00000000000E+00 0.  1.
         -4    1    1    2    0  501 -0.29430593947E+01 -0.40853198354E+00  0.39488014925E+02  0.39599644187E+02  0.00000000000E+00 0. -1.
<mgrwt>
<rscale>  0 0.29712787E+01</rscale>
<asrwt>0</asrwt>
<pdfrwt beam="1">0</pdfrwt>
<pdfrwt beam="2">0</pdfrwt>
<totfact> 0.12937831E+12</totfact>
</mgrwt>
</event>
<event>
 4    2  0.1060494E+006  0.2067186E+01  0.7546771E-02  0.2936804E+00
         22   -1    0    0    0    0  0.00000000000E+00  0.00000000000E+00  0.24265730951E+01  0.24265730951E+01  0.00000000000E+00 0. -1.
         22   -1    0    0    0    0 -0.00000000000E+00 -0.00000000000E+00 -0.18938438147E+01  0.18938438147E+01  0.00000000000E+00 0.  1.
          4    1    1    2  501    0  0.13980135841E+00  0.20624533831E+01 -0.30570869108E+00  0.20896689166E+01  0.00000000000E+00 0.  1.
         -4    1    1    2    0  501 -0.13980135841E+00 -0.20624533831E+01  0.83843797152E+00  0.22307479932E+01  0.00000000000E+00 0. -1.
<mgrwt>
<rscale>  0 0.20671861E+01</rscale>
<asrwt>0</asrwt>
<pdfrwt beam="1">0</pdfrwt>
<pdfrwt beam="2">0</pdfrwt>
<totfact> 0.40773100E+12</totfact>
</mgrwt>
</event>
<event>
 4    2  0.1060494E+006  0.2012092E+01  0.7546771E-02  0.2972612E+00
         22   -1    0    0    0    0  0.00000000000E+00  0.00000000000E+00  0.15918845450E+01  0.15918845450E+01  0.00000000000E+00 0.  1.
         22   -1    0    0    0    0 -0.00000000000E+00 -0.00000000000E+00 -0.77910951114E+01  0.77910951114E+01  0.00000000000E+00 0. -1.
          4    1    1    2  501    0  0.16671388938E+01  0.11265701387E+01 -0.69499824913E+01  0.72353831273E+01  0.00000000000E+00 0. -1.
         -4    1    1    2    0  501 -0.16671388938E+01 -0.11265701387E+01  0.75077192493E+00  0.21475965291E+01  0.00000000000E+00 0.  1.
<mgrwt>
<rscale>  0 0.20120915E+01</rscale>
<asrwt>0</asrwt>
<pdfrwt beam="1">0</pdfrwt>
<pdfrwt beam="2">0</pdfrwt>
<totfact> 0.12577513E+12</totfact>
</mgrwt>
</event>
<event>
 4    2  0.1060494E+006  0.2281044E+01  0.7546771E-02  0.2813711E+00
         22   -1    0    0    0    0  0.00000000000E+00  0.00000000000E+00  0.15044580637E+01  0.15044580637E+01  0.00000000000E+00 0.  1.
         22   -1    0    0    0    0 -0.00000000000E+00 -0.00000000000E+00 -0.10469889059E+02  0.10469889059E+02  0.00000000000E+00 0. -1.
          4    1    1    2  501    0  0.21402947232E+00 -0.22709802194E+01 -0.93822296352E+01  0.96555368934E+01  0.00000000000E+00 0. -1.
         -4    1    1    2    0  501 -0.21402947232E+00  0.22709802194E+01  0.41679864010E+00  0.23188102290E+01  0.00000000000E+00 0.  1.
<mgrwt>
<rscale>  0 0.22810436E+01</rscale>
<asrwt>0</asrwt>
<pdfrwt beam="1">0</pdfrwt>
<pdfrwt beam="2">0</pdfrwt>
<totfact> 0.93976519E+11</totfact>
</mgrwt>
</event>
<event>
 4    2  0.1060494E+006  0.2023901E+01  0.7546771E-02  0.2964776E+00
         22   -1    0    0    0    0  0.00000000000E+00  0.00000000000E+00  0.40597506669E+00  0.40597506669E+00  0.00000000000E+00 0.  1.
         22   -1    0    0    0    0 -0.00000000000E+00 -0.00000000000E+00 -0.22079713918E+02  0.22079713918E+02  0.00000000000E+00 0. -1.
          4    1    1    2  501    0 -0.10140778692E+01  0.17515201302E+01 -0.19121800076E+02  0.19228609280E+02  0.00000000000E+00 0. -1.
         -4    1    1    2    0  501  0.10140778692E+01 -0.17515201302E+01 -0.25519387760E+01  0.32570797055E+01  0.00000000000E+00 0.  1.
<mgrwt>
<rscale>  0 0.20239014E+01</rscale>
<asrwt>0</asrwt>
<pdfrwt beam="1">0</pdfrwt>
<pdfrwt beam="2">0</pdfrwt>
<totfact> 0.16630500E+12</totfact>
</mgrwt>
</event>
<event>
 4    2  0.1060494E+006  0.2391204E+01  0.7546771E-02  0.2758528E+00
         22   -1    0    0    0    0  0.00000000000E+00  0.00000000000E+00  0.80591134383E+00  0.80591134383E+00  0.00000000000E+00 0. -1.
         22   -1    0    0    0    0 -0.00000000000E+00 -0.00000000000E+00 -0.74846403024E+01  0.74846403024E+01  0.00000000000E+00 0.  1.
          4    1    1    2  501    0  0.16018538086E+01 -0.17753651790E+01 -0.23934369333E+01  0.33832525027E+01  0.00000000000E+00 0.  1.
         -4    1    1    2    0  501 -0.16018538086E+01  0.17753651790E+01 -0.42852920252E+01  0.49072991436E+01  0.00000000000E+00 0. -1.
<mgrwt>
<rscale>  0 0.23912041E+01</rscale>
<asrwt>0</asrwt>
<pdfrwt beam="1">0</pdfrwt>
<pdfrwt beam="2">0</pdfrwt>
<totfact> 0.28768594E+12</totfact>
</mgrwt>
</event>
<event>
 4    2  0.1060494E+006  0.2358256E+01  0.7546771E-02  0.2774522E+00
         22   -1    0    0    0    0  0.00000000000E+00  0.00000000000E+00  0.43494446360E+02  0.43494446360E+02  0.00000000000E+00 0.  1.
         22   -1    0    0    0    0 -0.00000000000E+00 -0.00000000000E+00 -0.13257403644E+00  0.13257403644E+00  0.00000000000E+00 0. -1.
          4    1    1    2  501    0  0.14353193493E+01  0.18711573277E+01  0.25792538567E+02  0.25900123882E+02  0.00000000000E+00 0.  1.
         -4    1    1    2    0  501 -0.14353193493E+01 -0.18711573277E+01  0.17569333756E+02  0.17726896514E+02  0.00000000000E+00 0. -1.
<mgrwt>
<rscale>  0 0.23582560E+01</rscale>
<asrwt>0</asrwt>
<pdfrwt beam="1">0</pdfrwt>
<pdfrwt beam="2">0</pdfrwt>
<totfact> 0.24435013E+12</totfact>
</mgrwt>
</event>
<event>
 4    2  0.1060494E+006  0.2462449E+01  0.7546771E-02  0.2725320E+00
         22   -1    0    0    0    0  0.00000000000E+00  0.00000000000E+00  0.89874688239E+01  0.89874688239E+01  0.00000000000E+00 0. -1.
         22   -1    0    0    0    0 -0.00000000000E+00 -0.00000000000E+00 -0.96485046591E+00  0.96485046591E+00  0.00000000000E+00 0.  1.
          4    1    1    2  501    0 -0.22573397267E+01  0.98390569417E+00  0.12823820659E+01  0.27763567530E+01  0.00000000000E+00 0.  1.
         -4    1    1    2    0  501  0.22573397267E+01 -0.98390569417E+00  0.67402362921E+01  0.71759625368E+01  0.00000000000E+00 0. -1.
<mgrwt>
<rscale>  0 0.24624486E+01</rscale>
<asrwt>0</asrwt>
<pdfrwt beam="1">0</pdfrwt>
<pdfrwt beam="2">0</pdfrwt>
<totfact> 0.18805746E+12</totfact>
</mgrwt>
</event>
<event>
 4    2  0.1060494E+006  0.2185440E+01  0.7546771E-02  0.2865876E+00
         22   -1    0    0    0    0  0.00000000000E+00  0.00000000000E+00  0.30789616764E+00  0.30789616764E+00  0.00000000000E+00 0.  1.
         22   -1    0    0    0    0 -0.00000000000E+00 -0.00000000000E+00 -0.15512465437E+02  0.15512465437E+02  0.00000000000E+00 0. -1.
          4    1    1    2  501    0 -0.17774363187E+01  0.12715615782E+01 -0.76346469061E+01  0.79412834035E+01  0.00000000000E+00 0.  1.
         -4    1    1    2    0  501  0.17774363187E+01 -0.12715615782E+01 -0.75699223637E+01  0.78790782016E+01  0.00000000000E+00 0. -1.
<mgrwt>
<rscale>  0 0.21854402E+01</rscale>
<asrwt>0</asrwt>
<pdfrwt beam="1">0</pdfrwt>
<pdfrwt beam="2">0</pdfrwt>
<totfact> 0.35186084E+12</totfact>
</mgrwt>
</event>
<event>
 4    2  0.1060494E+006  0.2810524E+01  0.7546771E-02  0.2585674E+00
         22   -1    0    0    0    0  0.00000000000E+00  0.00000000000E+00  0.23655346043E+02  0.23655346043E+02  0.00000000000E+00 0. -1.
         22   -1    0    0    0    0 -0.00000000000E+00 -0.00000000000E+00 -0.75064758168E+00  0.75064758168E+00  0.00000000000E+00 0.  1.
          4    1    1    2  501    0 -0.39261342047E+00  0.27829659939E+01  0.23600560053E+01  0.36700012764E+01  0.00000000000E+00 0.  1.
         -4    1    1    2    0  501  0.39261342047E+00 -0.27829659939E+01  0.20544642456E+02  0.20735992348E+02  0.00000000000E+00 0. -1.
<mgrwt>
<rscale>  0 0.28105240E+01</rscale>
<asrwt>0</asrwt>
<pdfrwt beam="1">0</pdfrwt>
<pdfrwt beam="2">0</pdfrwt>
<totfact> 0.76115591E+11</totfact>
</mgrwt>
</event>
<event>
 4    2  0.1060494E+006  0.2105649E+01  0.7546771E-02  0.2912889E+00
         22   -1    0    0    0    0  0.00000000000E+00  0.00000000000E+00  0.93352332078E-01  0.93352332078E-01  0.00000000000E+00 0. -1.
         22   -1    0    0    0    0 -0.00000000000E+00 -0.00000000000E+00 -0.59792651452E+02  0.59792651452E+02  0.00000000000E+00 0.  1.
          4    1    1    2  501    0 -0.19417430162E+01 -0.81448738202E+00 -0.43429189336E+02  0.43480205174E+02  0.00000000000E+00 0. -1.
         -4    1    1    2    0  501  0.19417430162E+01  0.81448738202E+00 -0.16270109785E+02  0.16405798610E+02  0.00000000000E+00 0.  1.
<mgrwt>
<rscale>  0 0.21056485E+01</rscale>
<asrwt>0</asrwt>
<pdfrwt beam="1">0</pdfrwt>
<pdfrwt beam="2">0</pdfrwt>
<totfact> 0.23670060E+12</totfact>
</mgrwt>
</event>
<event>
 4    2  0.1060494E+006  0.3071843E+01  0.7546771E-02  0.2499953E+00
         22   -1    0    0    0    0  0.00000000000E+00  0.00000000000E+00  0.86772252220E+00  0.86772252220E+00  0.00000000000E+00 0. -1.
         22   -1    0    0    0    0 -0.00000000000E+00 -0.00000000000E+00 -0.15970367394E+02  0.15970367394E+02  0.00000000000E+00 0.  1.
          4    1    1    2  501    0 -0.30189062295E+01 -0.56782664424E+00 -0.12306929034E+02  0.12684507250E+02  0.00000000000E+00 0.  1.
         -4    1    1    2    0  501  0.30189062295E+01  0.56782664424E+00 -0.27957158375E+01  0.41535826662E+01  0.00000000000E+00 0. -1.
<mgrwt>
<rscale>  0 0.30718434E+01</rscale>
<asrwt>0</asrwt>
<pdfrwt beam="1">0</pdfrwt>
<pdfrwt beam="2">0</pdfrwt>
<totfact> 0.10528089E+12</totfact>
</mgrwt>
</event>
<event>
 4    2  0.1060494E+006  0.2507964E+01  0.7546771E-02  0.2705029E+00
         22   -1    0    0    0    0  0.00000000000E+00  0.00000000000E+00  0.70270545408E+00  0.70270545408E+00  0.00000000000E+00 0.  1.
         22   -1    0    0    0    0 -0.00000000000E+00 -0.00000000000E+00 -0.11619213594E+02  0.11619213594E+02  0.00000000000E+00 0. -1.
          4    1    1    2  501    0 -0.98914258337E+00  0.23046652717E+01 -0.84106454389E+01  0.87766076455E+01  0.00000000000E+00 0. -1.
         -4    1    1    2    0  501  0.98914258337E+00 -0.23046652717E+01 -0.25058627012E+01  0.35453114027E+01  0.00000000000E+00 0.  1.
<mgrwt>
<rscale>  0 0.25079643E+01</rscale>
<asrwt>0</asrwt>
<pdfrwt beam="1">0</pdfrwt>
<pdfrwt beam="2">0</pdfrwt>
<totfact> 0.19761803E+12</totfact>
</mgrwt>
</event>
<event>
 4    2  0.1060494E+006  0.2496259E+01  0.7546771E-02  0.2710182E+00
         22   -1    0    0    0    0  0.00000000000E+00  0.00000000000E+00  0.67651852876E+00  0.67651852876E+00  0.00000000000E+00 0.  1.
         22   -1    0    0    0    0 -0.00000000000E+00 -0.00000000000E+00 -0.94670517866E+01  0.94670517866E+01  0.00000000000E+00 0. -1.
          4    1    1    2  501    0  0.39121596862E+00 -0.24654123247E+01 -0.52296162804E+01  0.57948420431E+01  0.00000000000E+00 0.  1.
         -4    1    1    2    0  501 -0.39121596862E+00  0.24654123247E+01 -0.35609169775E+01  0.43487282722E+01  0.00000000000E+00 0. -1.
<mgrwt>
<rscale>  0 0.24962588E+01</rscale>
<asrwt>0</asrwt>
<pdfrwt beam="1">0</pdfrwt>
<pdfrwt beam="2">0</pdfrwt>
<totfact> 0.26452161E+12</totfact>
</mgrwt>
</event>
<event>
 4    2  0.1060494E+006  0.2673980E+01  0.7546771E-02  0.2636466E+00
         22   -1    0    0    0    0  0.00000000000E+00  0.00000000000E+00  0.36277856862E+02  0.36277856862E+02  0.00000000000E+00 0. -1.
         22   -1    0    0    0    0 -0.00000000000E+00 -0.00000000000E+00 -0.93506331739E+00  0.93506331739E+00  0.00000000000E+00 0.  1.
          4    1    1    2  501    0  0.11590500227E+01 -0.24097244584E+01  0.11418011876E+01  0.29075554805E+01  0.00000000000E+00 0.  1.
         -4    1    1    2    0  501 -0.11590500227E+01  0.24097244584E+01  0.34200992357E+02  0.34305364699E+02  0.00000000000E+00 0. -1.
<mgrwt>
<rscale>  0 0.26739800E+01</rscale>
<asrwt>0</asrwt>
<pdfrwt beam="1">0</pdfrwt>
<pdfrwt beam="2">0</pdfrwt>
<totfact> 0.34391693E+11</totfact>
</mgrwt>
</event>
<event>
 4    2  0.1060494E+006  0.2234852E+01  0.7546771E-02  0.2838383E+00
         22   -1    0    0    0    0  0.00000000000E+00  0.00000000000E+00  0.42985276283E+01  0.42985276283E+01  0.00000000000E+00 0. -1.
         22   -1    0    0    0    0 -0.00000000000E+00 -0.00000000000E+00 -0.14038490531E+01  0.14038490531E+01  0.00000000000E+00 0.  1.
          4    1    1    2  501    0 -0.21938510135E+01  0.42612506961E+00  0.26373749230E+00  0.22503604842E+01  0.00000000000E+00 0.  1.
         -4    1    1    2    0  501  0.21938510135E+01 -0.42612506961E+00  0.26309410829E+01  0.34520161972E+01  0.00000000000E+00 0. -1.
<mgrwt>
<rscale>  0 0.22348523E+01</rscale>
<asrwt>0</asrwt>
<pdfrwt beam="1">0</pdfrwt>
<pdfrwt beam="2">0</pdfrwt>
<totfact> 0.29485003E+12</totfact>
</mgrwt>
</event>
<event>
 4    2  0.1060494E+006  0.2001698E+01  0.7546771E-02  0.2979584E+00
         22   -1    0    0    0    0  0.00000000000E+00  0.00000000000E+00  0.19914092031E+02  0.19914092031E+02  0.00000000000E+00 0.  1.
         22   -1    0    0    0    0 -0.00000000000E+00 -0.00000000000E+00 -0.27409738392E+00  0.27409738392E+00  0.00000000000E+00 0. -1.
          4    1    1    2  501    0  0.12553033219E+01 -0.15591686254E+01  0.15025458914E+02  0.15158205989E+02  0.00000000000E+00 0.  1.
         -4    1    1    2    0  501 -0.12553033219E+01  0.15591686254E+01  0.46145357336E+01  0.50299834263E+01  0.00000000000E+00 0. -1.
<mgrwt>
<rscale>  0 0.20016976E+01</rscale>
<asrwt>0</asrwt>
<pdfrwt beam="1">0</pdfrwt>
<pdfrwt beam="2">0</pdfrwt>
<totfact> 0.29409684E+12</totfact>
</mgrwt>
</event>
<event>
 4    2  0.1060494E+006  0.2080058E+01  0.7546771E-02  0.2928705E+00
         22   -1    0    0    0    0  0.00000000000E+00  0.00000000000E+00  0.63321521910E+01  0.63321521910E+01  0.00000000000E+00 0.  1.
         22   -1    0    0    0    0 -0.00000000000E+00 -0.00000000000E+00 -0.15421766143E+01  0.15421766143E+01  0.00000000000E+00 0. -1.
          4    1    1    2  501    0 -0.16191044842E+01  0.13058113406E+01 -0.54324738810E+00  0.21498279729E+01  0.00000000000E+00 0. -1.
         -4    1    1    2    0  501  0.16191044842E+01 -0.13058113406E+01  0.53332229648E+01  0.57245008325E+01  0.00000000000E+00 0.  1.
<mgrwt>
<rscale>  0 0.20800583E+01</rscale>
<asrwt>0</asrwt>
<pdfrwt beam="1">0</pdfrwt>
<pdfrwt beam="2">0</pdfrwt>
<totfact> 0.16718465E+12</totfact>
</mgrwt>
</event>
<event>
 4    2  0.1060494E+006  0.3912997E+01  0.7546771E-02  0.2294240E+00
         22   -1    0    0    0    0  0.00000000000E+00  0.00000000000E+00  0.33007566936E+01  0.33007566936E+01  0.00000000000E+00 0. -1.
         22   -1    0    0    0    0 -0.00000000000E+00 -0.00000000000E+00 -0.56096230719E+01  0.56096230719E+01  0.00000000000E+00 0.  1.
          4    1    1    2  501    0  0.88010814406E+00  0.38127354913E+01 -0.30078365946E+01  0.49354455981E+01  0.00000000000E+00 0. -1.
         -4    1    1    2    0  501 -0.88010814406E+00 -0.38127354913E+01  0.69897021631E+00  0.39749341674E+01  0.00000000000E+00 0.  1.
<mgrwt>
<rscale>  0 0.39129966E+01</rscale>
<asrwt>0</asrwt>
<pdfrwt beam="1">0</pdfrwt>
<pdfrwt beam="2">0</pdfrwt>
<totfact> 0.79850203E+11</totfact>
</mgrwt>
</event>
<event>
 4    2  0.1060494E+006  0.5308624E+01  0.7546771E-02  0.2087872E+00
         22   -1    0    0    0    0  0.00000000000E+00  0.00000000000E+00  0.15135883429E+03  0.15135883429E+03  0.00000000000E+00 0. -1.
         22   -1    0    0    0    0 -0.00000000000E+00 -0.00000000000E+00 -0.22695398967E+00  0.22695398967E+00  0.00000000000E+00 0.  1.
          4    1    1    2  501    0  0.44108260057E+01 -0.29539976545E+01  0.43444250288E+02  0.43767389359E+02  0.00000000000E+00 0. -1.
         -4    1    1    2    0  501 -0.44108260057E+01  0.29539976545E+01  0.10768763001E+03  0.10781839892E+03  0.00000000000E+00 0.  1.
<mgrwt>
<rscale>  0 0.53086239E+01</rscale>
<asrwt>0</asrwt>
<pdfrwt beam="1">0</pdfrwt>
<pdfrwt beam="2">0</pdfrwt>
<totfact> 0.23936021E+11</totfact>
</mgrwt>
</event>
<event>
 4    2  0.1060494E+006  0.2823391E+01  0.7546771E-02  0.2581119E+00
         22   -1    0    0    0    0  0.00000000000E+00  0.00000000000E+00  0.59347104955E+01  0.59347104955E+01  0.00000000000E+00 0.  1.
         22   -1    0    0    0    0 -0.00000000000E+00 -0.00000000000E+00 -0.29667315736E+01  0.29667315736E+01  0.00000000000E+00 0. -1.
          4    1    1    2  501    0 -0.19017064168E+01  0.20868756070E+01 -0.18084731475E+01  0.33529259192E+01  0.00000000000E+00 0. -1.
         -4    1    1    2    0  501  0.19017064168E+01 -0.20868756070E+01  0.47764520694E+01  0.55485161499E+01  0.00000000000E+00 0.  1.
<mgrwt>
<rscale>  0 0.28233911E+01</rscale>
<asrwt>0</asrwt>
<pdfrwt beam="1">0</pdfrwt>
<pdfrwt beam="2">0</pdfrwt>
<totfact> 0.84599092E+11</totfact>
</mgrwt>
</event>
<event>
 4    2  0.1060494E+006  0.2184256E+01  0.7546771E-02  0.2866550E+00
         22   -1    0    0    0    0  0.00000000000E+00  0.00000000000E+00  0.26938295120E+02  0.26938295120E+02  0.00000000000E+00 0. -1.
         22   -1    0    0    0    0 -0.00000000000E+00 -0.00000000000E+00 -0.25388527344E+00  0.25388527344E+00  0.00000000000E+00 0.  1.
          4    1    1    2  501    0 -0.11073935104E+01  0.18827253347E+01  0.58654535922E+01  0.62589552574E+01  0.00000000000E+00 0.  1.
         -4    1    1    2    0  501  0.11073935104E+01 -0.18827253347E+01  0.20818956254E+02  0.20933225136E+02  0.00000000000E+00 0. -1.
<mgrwt>
<rscale>  0 0.21842562E+01</rscale>
<asrwt>0</asrwt>
<pdfrwt beam="1">0</pdfrwt>
<pdfrwt beam="2">0</pdfrwt>
<totfact> 0.21923220E+12</totfact>
</mgrwt>
</event>
<event>
 4    2  0.1060494E+006  0.2836277E+01  0.7546771E-02  0.2576595E+00
         22   -1    0    0    0    0  0.00000000000E+00  0.00000000000E+00  0.98301158762E+01  0.98301158762E+01  0.00000000000E+00 0. -1.
         22   -1    0    0    0    0 -0.00000000000E+00 -0.00000000000E+00 -0.82721614396E+00  0.82721614396E+00  0.00000000000E+00 0.  1.
          4    1    1    2  501    0 -0.24106157091E+00  0.28260142995E+01  0.50531408488E+01  0.57947131024E+01  0.00000000000E+00 0. -1.
         -4    1    1    2    0  501  0.24106157091E+00 -0.28260142995E+01  0.39497588835E+01  0.48626189178E+01  0.00000000000E+00 0.  1.
<mgrwt>
<rscale>  0 0.28362770E+01</rscale>
<asrwt>0</asrwt>
<pdfrwt beam="1">0</pdfrwt>
<pdfrwt beam="2">0</pdfrwt>
<totfact> 0.20112035E+12</totfact>
</mgrwt>
</event>
<event>
 4    2  0.1060494E+006  0.2136587E+01  0.7546771E-02  0.2894258E+00
         22   -1    0    0    0    0  0.00000000000E+00  0.00000000000E+00  0.17659608052E+00  0.17659608052E+00  0.00000000000E+00 0.  1.
         22   -1    0    0    0    0 -0.00000000000E+00 -0.00000000000E+00 -0.35973578297E+02  0.35973578297E+02  0.00000000000E+00 0. -1.
          4    1    1    2  501    0  0.20976951819E+01 -0.40580569219E+00 -0.27487114327E+02  0.27570028244E+02  0.00000000000E+00 0. -1.
         -4    1    1    2    0  501 -0.20976951819E+01  0.40580569219E+00 -0.83098678893E+01  0.85801461336E+01  0.00000000000E+00 0.  1.
<mgrwt>
<rscale>  0 0.21365868E+01</rscale>
<asrwt>0</asrwt>
<pdfrwt beam="1">0</pdfrwt>
<pdfrwt beam="2">0</pdfrwt>
<totfact> 0.22721762E+12</totfact>
</mgrwt>
</event>
<event>
 4    2  0.1060494E+006  0.2106336E+01  0.7546771E-02  0.2912470E+00
         22   -1    0    0    0    0  0.00000000000E+00  0.00000000000E+00  0.54427219393E+02  0.54427219393E+02  0.00000000000E+00 0. -1.
         22   -1    0    0    0    0 -0.00000000000E+00 -0.00000000000E+00 -0.10327781847E+00  0.10327781847E+00  0.00000000000E+00 0.  1.
          4    1    1    2  501    0 -0.17974040239E+01 -0.10981748980E+01  0.14646106720E+02  0.14796793281E+02  0.00000000000E+00 0.  1.
         -4    1    1    2    0  501  0.17974040239E+01  0.10981748980E+01  0.39677834854E+02  0.39733703931E+02  0.00000000000E+00 0. -1.
<mgrwt>
<rscale>  0 0.21063355E+01</rscale>
<asrwt>0</asrwt>
<pdfrwt beam="1">0</pdfrwt>
<pdfrwt beam="2">0</pdfrwt>
<totfact> 0.23991374E+12</totfact>
</mgrwt>
</event>
<event>
 4    2  0.1060494E+006  0.2191448E+01  0.7546771E-02  0.2862470E+00
         22   -1    0    0    0    0  0.00000000000E+00  0.00000000000E+00  0.19959924501E+01  0.19959924501E+01  0.00000000000E+00 0.  1.
         22   -1    0    0    0    0 -0.00000000000E+00 -0.00000000000E+00 -0.24197789880E+01  0.24197789880E+01  0.00000000000E+00 0. -1.
          4    1    1    2  501    0 -0.16356662573E+01  0.14584382891E+01 -0.45552992788E-01  0.21919218562E+01  0.00000000000E+00 0.  1.
         -4    1    1    2    0  501  0.16356662573E+01 -0.14584382891E+01 -0.37823354515E+00  0.22238495819E+01  0.00000000000E+00 0. -1.
<mgrwt>
<rscale>  0 0.21914485E+01</rscale>
<asrwt>0</asrwt>
<pdfrwt beam="1">0</pdfrwt>
<pdfrwt beam="2">0</pdfrwt>
<totfact> 0.38495618E+12</totfact>
</mgrwt>
</event>
<event>
 4    2  0.1060494E+006  0.2022762E+01  0.7546771E-02  0.2965528E+00
         22   -1    0    0    0    0  0.00000000000E+00  0.00000000000E+00  0.18865912789E+01  0.18865912789E+01  0.00000000000E+00 0. -1.
         22   -1    0    0    0    0 -0.00000000000E+00 -0.00000000000E+00 -0.63374898568E+01  0.63374898568E+01  0.00000000000E+00 0.  1.
          4    1    1    2  501    0 -0.13623168237E+01  0.14952115381E+01 -0.55604858673E+01  0.59169728538E+01  0.00000000000E+00 0.  1.
         -4    1    1    2    0  501  0.13623168237E+01 -0.14952115381E+01  0.11095872894E+01  0.23071082820E+01  0.00000000000E+00 0. -1.
<mgrwt>
<rscale>  0 0.20227616E+01</rscale>
<asrwt>0</asrwt>
<pdfrwt beam="1">0</pdfrwt>
<pdfrwt beam="2">0</pdfrwt>
<totfact> 0.13236073E+12</totfact>
</mgrwt>
</event>
<event>
 4    2  0.1060494E+006  0.2454664E+01  0.7546771E-02  0.2728861E+00
         22   -1    0    0    0    0  0.00000000000E+00  0.00000000000E+00  0.10927267181E+01  0.10927267181E+01  0.00000000000E+00 0.  1.
         22   -1    0    0    0    0 -0.00000000000E+00 -0.00000000000E+00 -0.60452515140E+01  0.60452515140E+01  0.00000000000E+00 0. -1.
          4    1    1    2  501    0  0.23358102517E+01  0.75456375692E+00 -0.35341946901E+01  0.43030115156E+01  0.00000000000E+00 0.  1.
         -4    1    1    2    0  501 -0.23358102517E+01 -0.75456375692E+00 -0.14183301057E+01  0.28349667166E+01  0.00000000000E+00 0. -1.
<mgrwt>
<rscale>  0 0.24546641E+01</rscale>
<asrwt>0</asrwt>
<pdfrwt beam="1">0</pdfrwt>
<pdfrwt beam="2">0</pdfrwt>
<totfact> 0.26236357E+12</totfact>
</mgrwt>
</event>
<event>
 4    2  0.1060494E+006  0.2745105E+01  0.7546771E-02  0.2609433E+00
         22   -1    0    0    0    0  0.00000000000E+00  0.00000000000E+00  0.76646251026E+01  0.76646251026E+01  0.00000000000E+00 0.  1.
         22   -1    0    0    0    0 -0.00000000000E+00 -0.00000000000E+00 -0.98408901851E+00  0.98408901851E+00  0.00000000000E+00 0. -1.
          4    1    1    2  501    0 -0.27707484514E+00  0.27310861086E+01  0.32078590444E+01  0.42220802280E+01  0.00000000000E+00 0.  1.
         -4    1    1    2    0  501  0.27707484514E+00 -0.27310861086E+01  0.34726770397E+01  0.44266338932E+01  0.00000000000E+00 0. -1.
<mgrwt>
<rscale>  0 0.27451051E+01</rscale>
<asrwt>0</asrwt>
<pdfrwt beam="1">0</pdfrwt>
<pdfrwt beam="2">0</pdfrwt>
<totfact> 0.22268454E+12</totfact>
</mgrwt>
</event>
<event>
 4    2  0.1060494E+006  0.3353223E+01  0.7546771E-02  0.2421111E+00
         22   -1    0    0    0    0  0.00000000000E+00  0.00000000000E+00  0.51676775072E+00  0.51676775072E+00  0.00000000000E+00 0. -1.
         22   -1    0    0    0    0 -0.00000000000E+00 -0.00000000000E+00 -0.24846858739E+02  0.24846858739E+02  0.00000000000E+00 0.  1.
          4    1    1    2  501    0 -0.15987549541E+01 -0.29475564694E+01 -0.16636073374E+02  0.16970652429E+02  0.00000000000E+00 0.  1.
         -4    1    1    2    0  501  0.15987549541E+01  0.29475564694E+01 -0.76940176141E+01  0.83929740611E+01  0.00000000000E+00 0. -1.
<mgrwt>
<rscale>  0 0.33532233E+01</rscale>
<asrwt>0</asrwt>
<pdfrwt beam="1">0</pdfrwt>
<pdfrwt beam="2">0</pdfrwt>
<totfact> 0.10922317E+12</totfact>
</mgrwt>
</event>
<event>
 4    2  0.1060494E+006  0.2426930E+01  0.7546771E-02  0.2741648E+00
         22   -1    0    0    0    0  0.00000000000E+00  0.00000000000E+00  0.14401476907E+00  0.14401476907E+00  0.00000000000E+00 0. -1.
         22   -1    0    0    0    0 -0.00000000000E+00 -0.00000000000E+00 -0.50482689588E+02  0.50482689588E+02  0.00000000000E+00 0.  1.
          4    1    1    2  501    0 -0.21907790197E+01  0.10442587539E+01 -0.36198840728E+02  0.36280105555E+02  0.00000000000E+00 0.  1.
         -4    1    1    2    0  501  0.21907790197E+01 -0.10442587539E+01 -0.14139834091E+02  0.14346598802E+02  0.00000000000E+00 0. -1.
<mgrwt>
<rscale>  0 0.24269300E+01</rscale>
<asrwt>0</asrwt>
<pdfrwt beam="1">0</pdfrwt>
<pdfrwt beam="2">0</pdfrwt>
<totfact> 0.18329507E+12</totfact>
</mgrwt>
</event>
<event>
 4    2  0.1060494E+006  0.2667691E+01  0.7546771E-02  0.2638920E+00
         22   -1    0    0    0    0  0.00000000000E+00  0.00000000000E+00  0.33644985349E+02  0.33644985349E+02  0.00000000000E+00 0.  1.
         22   -1    0    0    0    0 -0.00000000000E+00 -0.00000000000E+00 -0.23638941924E+00  0.23638941924E+00  0.00000000000E+00 0. -1.
          4    1    1    2  501    0  0.99066825021E+00 -0.24769236916E+01  0.22199113796E+02  0.22358828858E+02  0.00000000000E+00 0.  1.
         -4    1    1    2    0  501 -0.99066825021E+00  0.24769236916E+01  0.11209482134E+02  0.11522545911E+02  0.00000000000E+00 0. -1.
<mgrwt>
<rscale>  0 0.26676909E+01</rscale>
<asrwt>0</asrwt>
<pdfrwt beam="1">0</pdfrwt>
<pdfrwt beam="2">0</pdfrwt>
<totfact> 0.17886763E+12</totfact>
</mgrwt>
</event>
<event>
 4    2  0.1060494E+006  0.2874466E+01  0.7546771E-02  0.2563403E+00
         22   -1    0    0    0    0  0.00000000000E+00  0.00000000000E+00  0.11903975411E+01  0.11903975411E+01  0.00000000000E+00 0. -1.
         22   -1    0    0    0    0 -0.00000000000E+00 -0.00000000000E+00 -0.10724703653E+02  0.10724703653E+02  0.00000000000E+00 0.  1.
          4    1    1    2  501    0  0.14281134476E+01  0.24946030723E+01 -0.12285365960E+01  0.31259965891E+01  0.00000000000E+00 0. -1.
         -4    1    1    2    0  501 -0.14281134476E+01 -0.24946030723E+01 -0.83057695161E+01  0.87891046053E+01  0.00000000000E+00 0.  1.
<mgrwt>
<rscale>  0 0.28744656E+01</rscale>
<asrwt>0</asrwt>
<pdfrwt beam="1">0</pdfrwt>
<pdfrwt beam="2">0</pdfrwt>
<totfact> 0.11943023E+12</totfact>
</mgrwt>
</event>
<event>
 4    2  0.1060494E+006  0.3910814E+01  0.7546771E-02  0.2294674E+00
         22   -1    0    0    0    0  0.00000000000E+00  0.00000000000E+00  0.21641030869E+01  0.21641030869E+01  0.00000000000E+00 0. -1.
         22   -1    0    0    0    0 -0.00000000000E+00 -0.00000000000E+00 -0.80379207759E+01  0.80379207759E+01  0.00000000000E+00 0.  1.
          4    1    1    2  501    0  0.12972751979E+01  0.36893825456E+01 -0.47094603095E+01  0.61215588631E+01  0.00000000000E+00 0.  1.
         -4    1    1    2    0  501 -0.12972751979E+01 -0.36893825456E+01 -0.11643573795E+01  0.40804649997E+01  0.00000000000E+00 0. -1.
<mgrwt>
<rscale>  0 0.39108140E+01</rscale>
<asrwt>0</asrwt>
<pdfrwt beam="1">0</pdfrwt>
<pdfrwt beam="2">0</pdfrwt>
<totfact> 0.84968341E+11</totfact>
</mgrwt>
</event>
<event>
 4    2  0.1060494E+006  0.2074781E+01  0.7546771E-02  0.2932013E+00
         22   -1    0    0    0    0  0.00000000000E+00  0.00000000000E+00  0.26948566176E+01  0.26948566176E+01  0.00000000000E+00 0.  1.
         22   -1    0    0    0    0 -0.00000000000E+00 -0.00000000000E+00 -0.17654572751E+01  0.17654572751E+01  0.00000000000E+00 0. -1.
          4    1    1    2  501    0  0.99639987640E+00 -0.18198639882E+01  0.11528093780E+01  0.23735389424E+01  0.00000000000E+00 0.  1.
         -4    1    1    2    0  501 -0.99639987640E+00  0.18198639882E+01 -0.22341003549E+00  0.20867749503E+01  0.00000000000E+00 0. -1.
<mgrwt>
<rscale>  0 0.20747813E+01</rscale>
<asrwt>0</asrwt>
<pdfrwt beam="1">0</pdfrwt>
<pdfrwt beam="2">0</pdfrwt>
<totfact> 0.39137506E+12</totfact>
</mgrwt>
</event>
<event>
 4    2  0.1060494E+006  0.2175193E+01  0.7546771E-02  0.2871728E+00
         22   -1    0    0    0    0  0.00000000000E+00  0.00000000000E+00  0.20994642805E+01  0.20994642805E+01  0.00000000000E+00 0. -1.
         22   -1    0    0    0    0 -0.00000000000E+00 -0.00000000000E+00 -0.23242283755E+01  0.23242283755E+01  0.00000000000E+00 0.  1.
          4    1    1    2  501    0  0.20640747430E+01  0.68633925513E+00 -0.49780627284E+00  0.22314294080E+01  0.00000000000E+00 0. -1.
         -4    1    1    2    0  501 -0.20640747430E+01 -0.68633925513E+00  0.27304217789E+00  0.21922632480E+01  0.00000000000E+00 0.  1.
<mgrwt>
<rscale>  0 0.21751934E+01</rscale>
<asrwt>0</asrwt>
<pdfrwt beam="1">0</pdfrwt>
<pdfrwt beam="2">0</pdfrwt>
<totfact> 0.38046901E+12</totfact>
</mgrwt>
</event>
<event>
 4    2  0.1060494E+006  0.2380875E+01  0.7546771E-02  0.2763498E+00
         22   -1    0    0    0    0  0.00000000000E+00  0.00000000000E+00  0.73224816745E+01  0.73224816745E+01  0.00000000000E+00 0.  1.
         22   -1    0    0    0    0 -0.00000000000E+00 -0.00000000000E+00 -0.13818623371E+01  0.13818623371E+01  0.00000000000E+00 0. -1.
          4    1    1    2  501    0 -0.23233635637E+01 -0.52014155320E+00  0.84091130545E-01  0.23823595033E+01  0.00000000000E+00 0.  1.
         -4    1    1    2    0  501  0.23233635637E+01  0.52014155320E+00  0.58565282069E+01  0.63219845083E+01  0.00000000000E+00 0. -1.
<mgrwt>
<rscale>  0 0.23808749E+01</rscale>
<asrwt>0</asrwt>
<pdfrwt beam="1">0</pdfrwt>
<pdfrwt beam="2">0</pdfrwt>
<totfact> 0.15944964E+12</totfact>
</mgrwt>
</event>
<event>
 4    2  0.1060494E+006  0.2184451E+01  0.7546771E-02  0.2866439E+00
         22   -1    0    0    0    0  0.00000000000E+00  0.00000000000E+00  0.17626576164E+02  0.17626576164E+02  0.00000000000E+00 0.  1.
         22   -1    0    0    0    0 -0.00000000000E+00 -0.00000000000E+00 -0.66833067306E+00  0.66833067306E+00  0.00000000000E+00 0. -1.
          4    1    1    2  501    0  0.31224025709E+00 -0.21620208326E+01  0.14235101985E+01  0.26073375969E+01  0.00000000000E+00 0. -1.
         -4    1    1    2    0  501 -0.31224025709E+00  0.21620208326E+01  0.15534735292E+02  0.15687569240E+02  0.00000000000E+00 0.  1.
<mgrwt>
<rscale>  0 0.21844514E+01</rscale>
<asrwt>0</asrwt>
<pdfrwt beam="1">0</pdfrwt>
<pdfrwt beam="2">0</pdfrwt>
<totfact> 0.12537447E+12</totfact>
</mgrwt>
</event>
<event>
 4    2  0.1060494E+006  0.2233567E+01  0.7546771E-02  0.2839083E+00
         22   -1    0    0    0    0  0.00000000000E+00  0.00000000000E+00  0.47993845763E+02  0.47993845763E+02  0.00000000000E+00 0.  1.
         22   -1    0    0    0    0 -0.00000000000E+00 -0.00000000000E+00 -0.11412023022E+00  0.11412023022E+00  0.00000000000E+00 0. -1.
          4    1    1    2  501    0  0.21844601841E+01 -0.46578429803E+00  0.16758069779E+02  0.16906262864E+02  0.00000000000E+00 0. -1.
         -4    1    1    2    0  501 -0.21844601841E+01  0.46578429803E+00  0.31121655754E+02  0.31201703129E+02  0.00000000000E+00 0.  1.
<mgrwt>
<rscale>  0 0.22335669E+01</rscale>
<asrwt>0</asrwt>
<pdfrwt beam="1">0</pdfrwt>
<pdfrwt beam="2">0</pdfrwt>
<totfact> 0.25363716E+12</totfact>
</mgrwt>
</event>
<event>
 4    2  0.1060494E+006  0.3021109E+01  0.7546771E-02  0.2515551E+00
         22   -1    0    0    0    0  0.00000000000E+00  0.00000000000E+00  0.43589263943E+01  0.43589263943E+01  0.00000000000E+00 0.  1.
         22   -1    0    0    0    0 -0.00000000000E+00 -0.00000000000E+00 -0.21767272537E+01  0.21767272537E+01  0.00000000000E+00 0. -1.
          4    1    1    2  501    0  0.61790207894E+00 -0.29572446845E+01  0.45360298771E+00  0.30549721396E+01  0.00000000000E+00 0. -1.
         -4    1    1    2    0  501 -0.61790207894E+00  0.29572446845E+01  0.17285961530E+01  0.34806815084E+01  0.00000000000E+00 0.  1.
<mgrwt>
<rscale>  0 0.30211089E+01</rscale>
<asrwt>0</asrwt>
<pdfrwt beam="1">0</pdfrwt>
<pdfrwt beam="2">0</pdfrwt>
<totfact> 0.17482912E+12</totfact>
</mgrwt>
</event>
<event>
 4    2  0.1060494E+006  0.2767526E+01  0.7546771E-02  0.2601175E+00
         22   -1    0    0    0    0  0.00000000000E+00  0.00000000000E+00  0.57966504266E+01  0.57966504266E+01  0.00000000000E+00 0.  1.
         22   -1    0    0    0    0 -0.00000000000E+00 -0.00000000000E+00 -0.13817520737E+01  0.13817520737E+01  0.00000000000E+00 0. -1.
          4    1    1    2  501    0  0.25100607675E+01 -0.11656737149E+01  0.14568034524E+01  0.31275352220E+01  0.00000000000E+00 0. -1.
         -4    1    1    2    0  501 -0.25100607675E+01  0.11656737149E+01  0.29580949004E+01  0.40508672783E+01  0.00000000000E+00 0.  1.
<mgrwt>
<rscale>  0 0.27675260E+01</rscale>
<asrwt>0</asrwt>
<pdfrwt beam="1">0</pdfrwt>
<pdfrwt beam="2">0</pdfrwt>
<totfact> 0.21075988E+12</totfact>
</mgrwt>
</event>
<event>
 4    2  0.1060494E+006  0.4877583E+01  0.7546771E-02  0.2137906E+00
         22   -1    0    0    0    0  0.00000000000E+00  0.00000000000E+00  0.50719935118E+02  0.50719935118E+02  0.00000000000E+00 0. -1.
         22   -1    0    0    0    0 -0.00000000000E+00 -0.00000000000E+00 -0.49264246526E+00  0.49264246526E+00  0.00000000000E+00 0.  1.
          4    1    1    2  501    0 -0.11821507048E+01 -0.47321600991E+01  0.19511527574E+02  0.20111949875E+02  0.00000000000E+00 0. -1.
         -4    1    1    2    0  501  0.11821507048E+01  0.47321600991E+01  0.30715765078E+02  0.31100627708E+02  0.00000000000E+00 0.  1.
<mgrwt>
<rscale>  0 0.48775834E+01</rscale>
<asrwt>0</asrwt>
<pdfrwt beam="1">0</pdfrwt>
<pdfrwt beam="2">0</pdfrwt>
<totfact> 0.45962958E+11</totfact>
</mgrwt>
</event>
<event>
 4    2  0.1060494E+006  0.2216670E+01  0.7546771E-02  0.2848363E+00
         22   -1    0    0    0    0  0.00000000000E+00  0.00000000000E+00  0.19829105384E+00  0.19829105384E+00  0.00000000000E+00 0.  1.
         22   -1    0    0    0    0 -0.00000000000E+00 -0.00000000000E+00 -0.32374741552E+02  0.32374741552E+02  0.00000000000E+00 0. -1.
          4    1    1    2  501    0  0.16415061013E+01 -0.14896586947E+01 -0.81998885913E+01  0.84942214603E+01  0.00000000000E+00 0.  1.
         -4    1    1    2    0  501 -0.16415061013E+01  0.14896586947E+01 -0.23976561907E+02  0.24078811145E+02  0.00000000000E+00 0. -1.
<mgrwt>
<rscale>  0 0.22166699E+01</rscale>
<asrwt>0</asrwt>
<pdfrwt beam="1">0</pdfrwt>
<pdfrwt beam="2">0</pdfrwt>
<totfact> 0.22864295E+12</totfact>
</mgrwt>
</event>
<event>
 4    2  0.1060494E+006  0.2007761E+01  0.7546771E-02  0.2975508E+00
         22   -1    0    0    0    0  0.00000000000E+00  0.00000000000E+00  0.12158836839E+01  0.12158836839E+01  0.00000000000E+00 0. -1.
         22   -1    0    0    0    0 -0.00000000000E+00 -0.00000000000E+00 -0.59977226728E+01  0.59977226728E+01  0.00000000000E+00 0.  1.
          4    1    1    2  501    0  0.16606385821E+01 -0.11284436230E+01 -0.48029739644E+01  0.52057338016E+01  0.00000000000E+00 0.  1.
         -4    1    1    2    0  501 -0.16606385821E+01  0.11284436230E+01  0.21134975538E-01  0.20078725551E+01  0.00000000000E+00 0. -1.
<mgrwt>
<rscale>  0 0.20077613E+01</rscale>
<asrwt>0</asrwt>
<pdfrwt beam="1">0</pdfrwt>
<pdfrwt beam="2">0</pdfrwt>
<totfact> 0.23433922E+12</totfact>
</mgrwt>
</event>
<event>
 4    2  0.1060494E+006  0.2455518E+01  0.7546771E-02  0.2728472E+00
         22   -1    0    0    0    0  0.00000000000E+00  0.00000000000E+00  0.94481287315E+01  0.94481287315E+01  0.00000000000E+00 0. -1.
         22   -1    0    0    0    0 -0.00000000000E+00 -0.00000000000E+00 -0.12203417034E+01  0.12203417034E+01  0.00000000000E+00 0.  1.
          4    1    1    2  501    0 -0.79075410487E+00  0.23247099513E+01  0.42959536854E+00  0.24928137902E+01  0.00000000000E+00 0.  1.
         -4    1    1    2    0  501  0.79075410487E+00 -0.23247099513E+01  0.77981916596E+01  0.81756566446E+01  0.00000000000E+00 0. -1.
<mgrwt>
<rscale>  0 0.24555180E+01</rscale>
<asrwt>0</asrwt>
<pdfrwt beam="1">0</pdfrwt>
<pdfrwt beam="2">0</pdfrwt>
<totfact> 0.13533358E+12</totfact>
</mgrwt>
</event>
<event>
 4    2  0.1060494E+006  0.2828435E+01  0.7546771E-02  0.2579344E+00
         22   -1    0    0    0    0  0.00000000000E+00  0.00000000000E+00  0.64129307155E+01  0.64129307155E+01  0.00000000000E+00 0.  1.
         22   -1    0    0    0    0 -0.00000000000E+00 -0.00000000000E+00 -0.30105886890E+01  0.30105886890E+01  0.00000000000E+00 0. -1.
          4    1    1    2  501    0 -0.28284338869E+01 -0.21719693017E-02 -0.19045838029E+01  0.34099094464E+01  0.00000000000E+00 0. -1.
         -4    1    1    2    0  501  0.28284338869E+01  0.21719693017E-02  0.53069258294E+01  0.60136099582E+01  0.00000000000E+00 0.  1.
<mgrwt>
<rscale>  0 0.28284347E+01</rscale>
<asrwt>0</asrwt>
<pdfrwt beam="1">0</pdfrwt>
<pdfrwt beam="2">0</pdfrwt>
<totfact> 0.75826725E+11</totfact>
</mgrwt>
</event>
<event>
 4    2  0.1060494E+006  0.2084712E+01  0.7546771E-02  0.2925801E+00
         22   -1    0    0    0    0  0.00000000000E+00  0.00000000000E+00  0.20375577621E+01  0.20375577621E+01  0.00000000000E+00 0.  1.
         22   -1    0    0    0    0 -0.00000000000E+00 -0.00000000000E+00 -0.22115959837E+01  0.22115959837E+01  0.00000000000E+00 0. -1.
          4    1    1    2  501    0  0.18103662302E+01 -0.10337300945E+01  0.31360542639E+00  0.21081679628E+01  0.00000000000E+00 0. -1.
         -4    1    1    2    0  501 -0.18103662302E+01  0.10337300945E+01 -0.48764364790E+00  0.21409857830E+01  0.00000000000E+00 0.  1.
<mgrwt>
<rscale>  0 0.20847119E+01</rscale>
<asrwt>0</asrwt>
<pdfrwt beam="1">0</pdfrwt>
<pdfrwt beam="2">0</pdfrwt>
<totfact> 0.41725741E+12</totfact>
</mgrwt>
</event>
<event>
 4    2  0.1060494E+006  0.3568208E+01  0.7546771E-02  0.2368307E+00
         22   -1    0    0    0    0  0.00000000000E+00  0.00000000000E+00  0.75404049554E+00  0.75404049554E+00  0.00000000000E+00 0.  1.
         22   -1    0    0    0    0 -0.00000000000E+00 -0.00000000000E+00 -0.39040416572E+02  0.39040416572E+02  0.00000000000E+00 0. -1.
          4    1    1    2  501    0  0.11867933322E+01  0.33650601407E+01 -0.34132219797E+02  0.34318224553E+02  0.00000000000E+00 0. -1.
         -4    1    1    2    0  501 -0.11867933322E+01 -0.33650601407E+01 -0.41541562790E+01  0.54762325146E+01  0.00000000000E+00 0.  1.
<mgrwt>
<rscale>  0 0.35682080E+01</rscale>
<asrwt>0</asrwt>
<pdfrwt beam="1">0</pdfrwt>
<pdfrwt beam="2">0</pdfrwt>
<totfact> 0.39962867E+11</totfact>
</mgrwt>
</event>
<event>
 4    2  0.1060494E+006  0.2948611E+01  0.7546771E-02  0.2538673E+00
         22   -1    0    0    0    0  0.00000000000E+00  0.00000000000E+00  0.17044589598E+01  0.17044589598E+01  0.00000000000E+00 0.  1.
         22   -1    0    0    0    0 -0.00000000000E+00 -0.00000000000E+00 -0.51019146215E+01  0.51019146215E+01  0.00000000000E+00 0. -1.
          4    1    1    2  501    0  0.31668491265E+00 -0.29315554465E+01 -0.17462745376E+01  0.34269201085E+01  0.00000000000E+00 0.  1.
         -4    1    1    2    0  501 -0.31668491265E+00  0.29315554465E+01 -0.16511811242E+01  0.33794534728E+01  0.00000000000E+00 0. -1.
<mgrwt>
<rscale>  0 0.29486110E+01</rscale>
<asrwt>0</asrwt>
<pdfrwt beam="1">0</pdfrwt>
<pdfrwt beam="2">0</pdfrwt>
<totfact> 0.19260197E+12</totfact>
</mgrwt>
</event>
<event>
 4    2  0.1060494E+006  0.2111350E+01  0.7546771E-02  0.2909416E+00
         22   -1    0    0    0    0  0.00000000000E+00  0.00000000000E+00  0.15315327875E+00  0.15315327875E+00  0.00000000000E+00 0. -1.
         22   -1    0    0    0    0 -0.00000000000E+00 -0.00000000000E+00 -0.34561768828E+02  0.34561768828E+02  0.00000000000E+00 0.  1.
          4    1    1    2  501    0  0.15155648003E+01  0.14699868097E+01 -0.24100119369E+02  0.24192427565E+02  0.00000000000E+00 0.  1.
         -4    1    1    2    0  501 -0.15155648003E+01 -0.14699868097E+01 -0.10308496181E+02  0.10522494543E+02  0.00000000000E+00 0. -1.
<mgrwt>
<rscale>  0 0.21113498E+01</rscale>
<asrwt>0</asrwt>
<pdfrwt beam="1">0</pdfrwt>
<pdfrwt beam="2">0</pdfrwt>
<totfact> 0.28032588E+12</totfact>
</mgrwt>
</event>
<event>
 4    2  0.1060494E+006  0.2081343E+01  0.7546771E-02  0.2927902E+00
         22   -1    0    0    0    0  0.00000000000E+00  0.00000000000E+00  0.50427291010E+00  0.50427291010E+00  0.00000000000E+00 0.  1.
         22   -1    0    0    0    0 -0.00000000000E+00 -0.00000000000E+00 -0.16998346908E+02  0.16998346908E+02  0.00000000000E+00 0. -1.
          4    1    1    2  501    0  0.18991184950E+01 -0.85166722261E+00 -0.14401788099E+02  0.14551408474E+02  0.00000000000E+00 0. -1.
         -4    1    1    2    0  501 -0.18991184950E+01  0.85166722261E+00 -0.20922858982E+01  0.29512113438E+01  0.00000000000E+00 0.  1.
<mgrwt>
<rscale>  0 0.20813429E+01</rscale>
<asrwt>0</asrwt>
<pdfrwt beam="1">0</pdfrwt>
<pdfrwt beam="2">0</pdfrwt>
<totfact> 0.18037038E+12</totfact>
</mgrwt>
</event>
<event>
 4    2  0.1060494E+006  0.2128069E+01  0.7546771E-02  0.2899336E+00
         22   -1    0    0    0    0  0.00000000000E+00  0.00000000000E+00  0.68750309005E+00  0.68750309005E+00  0.00000000000E+00 0.  1.
         22   -1    0    0    0    0 -0.00000000000E+00 -0.00000000000E+00 -0.97072919208E+01  0.97072919208E+01  0.00000000000E+00 0. -1.
          4    1    1    2  501    0 -0.52556474217E+00 -0.20621489271E+01 -0.15632683725E+01  0.26405462503E+01  0.00000000000E+00 0.  1.
         -4    1    1    2    0  501  0.52556474217E+00  0.20621489271E+01 -0.74565204583E+01  0.77542487606E+01  0.00000000000E+00 0. -1.
<mgrwt>
<rscale>  0 0.21280687E+01</rscale>
<asrwt>0</asrwt>
<pdfrwt beam="1">0</pdfrwt>
<pdfrwt beam="2">0</pdfrwt>
<totfact> 0.25196565E+12</totfact>
</mgrwt>
</event>
<event>
 4    2  0.1060494E+006  0.2105768E+01  0.7546771E-02  0.2912816E+00
         22   -1    0    0    0    0  0.00000000000E+00  0.00000000000E+00  0.13909918114E+01  0.13909918114E+01  0.00000000000E+00 0.  1.
         22   -1    0    0    0    0 -0.00000000000E+00 -0.00000000000E+00 -0.32075183046E+01  0.32075183046E+01  0.00000000000E+00 0. -1.
          4    1    1    2  501    0 -0.14681980435E+01  0.15095214962E+01 -0.10883517776E+01  0.23703945313E+01  0.00000000000E+00 0. -1.
         -4    1    1    2    0  501  0.14681980435E+01 -0.15095214962E+01 -0.72817471561E+00  0.22281155847E+01  0.00000000000E+00 0.  1.
<mgrwt>
<rscale>  0 0.21057684E+01</rscale>
<asrwt>0</asrwt>
<pdfrwt beam="1">0</pdfrwt>
<pdfrwt beam="2">0</pdfrwt>
<totfact> 0.42025957E+12</totfact>
</mgrwt>
</event>
<event>
 4    2  0.1060494E+006  0.2455614E+01  0.7546771E-02  0.2728428E+00
         22   -1    0    0    0    0  0.00000000000E+00  0.00000000000E+00  0.99462190794E+01  0.99462190794E+01  0.00000000000E+00 0. -1.
         22   -1    0    0    0    0 -0.00000000000E+00 -0.00000000000E+00 -0.79551667922E+00  0.79551667922E+00  0.00000000000E+00 0.  1.
          4    1    1    2  501    0 -0.20470184758E+01  0.13563762160E+01  0.19557203828E+01  0.31392488425E+01  0.00000000000E+00 0.  1.
         -4    1    1    2    0  501  0.20470184758E+01 -0.13563762160E+01  0.71949820173E+01  0.76024869161E+01  0.00000000000E+00 0. -1.
<mgrwt>
<rscale>  0 0.24556142E+01</rscale>
<asrwt>0</asrwt>
<pdfrwt beam="1">0</pdfrwt>
<pdfrwt beam="2">0</pdfrwt>
<totfact> 0.20729256E+12</totfact>
</mgrwt>
</event>
<event>
 4    2  0.1060494E+006  0.2273664E+01  0.7546771E-02  0.2817588E+00
         22   -1    0    0    0    0  0.00000000000E+00  0.00000000000E+00  0.38303818125E+01  0.38303818125E+01  0.00000000000E+00 0.  1.
         22   -1    0    0    0    0 -0.00000000000E+00 -0.00000000000E+00 -0.26822818481E+01  0.26822818481E+01  0.00000000000E+00 0. -1.
          4    1    1    2  501    0 -0.22351733022E+01  0.41658954939E+00 -0.17212370327E+01  0.28517018544E+01  0.00000000000E+00 0. -1.
         -4    1    1    2    0  501  0.22351733022E+01 -0.41658954939E+00  0.28693369972E+01  0.36609618062E+01  0.00000000000E+00 0.  1.
<mgrwt>
<rscale>  0 0.22736637E+01</rscale>
<asrwt>0</asrwt>
<pdfrwt beam="1">0</pdfrwt>
<pdfrwt beam="2">0</pdfrwt>
<totfact> 0.15968694E+12</totfact>
</mgrwt>
</event>
<event>
 4    2  0.1060494E+006  0.2103259E+01  0.7546771E-02  0.2914350E+00
         22   -1    0    0    0    0  0.00000000000E+00  0.00000000000E+00  0.59735385503E+02  0.59735385503E+02  0.00000000000E+00 0.  1.
         22   -1    0    0    0    0 -0.00000000000E+00 -0.00000000000E+00 -0.14387204464E+00  0.14387204464E+00  0.00000000000E+00 0. -1.
          4    1    1    2  501    0  0.20894656535E+01 -0.24047861222E+00  0.89393583524E+01  0.91834538400E+01  0.00000000000E+00 0. -1.
         -4    1    1    2    0  501 -0.20894656535E+01  0.24047861222E+00  0.50652155106E+02  0.50695803708E+02  0.00000000000E+00 0.  1.
<mgrwt>
<rscale>  0 0.21032586E+01</rscale>
<asrwt>0</asrwt>
<pdfrwt beam="1">0</pdfrwt>
<pdfrwt beam="2">0</pdfrwt>
<totfact> 0.14671750E+12</totfact>
</mgrwt>
</event>
<event>
 4    2  0.1060494E+006  0.2914794E+01  0.7546771E-02  0.2549811E+00
         22   -1    0    0    0    0  0.00000000000E+00  0.00000000000E+00  0.40071455969E+01  0.40071455969E+01  0.00000000000E+00 0.  1.
         22   -1    0    0    0    0 -0.00000000000E+00 -0.00000000000E+00 -0.66612680267E+01  0.66612680267E+01  0.00000000000E+00 0. -1.
          4    1    1    2  501    0  0.25642621653E+01 -0.13858505578E+01 -0.57312866285E+01  0.64299042480E+01  0.00000000000E+00 0. -1.
         -4    1    1    2    0  501 -0.25642621653E+01  0.13858505578E+01  0.30771641987E+01  0.42385093756E+01  0.00000000000E+00 0.  1.
<mgrwt>
<rscale>  0 0.29147937E+01</rscale>
<asrwt>0</asrwt>
<pdfrwt beam="1">0</pdfrwt>
<pdfrwt beam="2">0</pdfrwt>
<totfact> 0.51823579E+11</totfact>
</mgrwt>
</event>
<event>
 4    2  0.1060494E+006  0.2423143E+01  0.7546771E-02  0.2743415E+00
         22   -1    0    0    0    0  0.00000000000E+00  0.00000000000E+00  0.18049558137E+01  0.18049558137E+01  0.00000000000E+00 0.  1.
         22   -1    0    0    0    0 -0.00000000000E+00 -0.00000000000E+00 -0.32594352936E+01  0.32594352936E+01  0.00000000000E+00 0. -1.
          4    1    1    2  501    0  0.14743101577E+01 -0.19230260618E+01 -0.61520245204E+00  0.25000187464E+01  0.00000000000E+00 0. -1.
         -4    1    1    2    0  501 -0.14743101577E+01  0.19230260618E+01 -0.83927702794E+00  0.25643723608E+01  0.00000000000E+00 0.  1.
<mgrwt>
<rscale>  0 0.24231425E+01</rscale>
<asrwt>0</asrwt>
<pdfrwt beam="1">0</pdfrwt>
<pdfrwt beam="2">0</pdfrwt>
<totfact> 0.30552767E+12</totfact>
</mgrwt>
</event>
<event>
 4    2  0.1060494E+006  0.2407103E+01  0.7546771E-02  0.2750958E+00
         22   -1    0    0    0    0  0.00000000000E+00  0.00000000000E+00  0.12840040946E+01  0.12840040946E+01  0.00000000000E+00 0. -1.
         22   -1    0    0    0    0 -0.00000000000E+00 -0.00000000000E+00 -0.47918182943E+01  0.47918182943E+01  0.00000000000E+00 0.  1.
          4    1    1    2  501    0 -0.62829512163E+00  0.23236587736E+01 -0.24872858881E+01  0.34613199715E+01  0.00000000000E+00 0.  1.
         -4    1    1    2    0  501  0.62829512163E+00 -0.23236587736E+01 -0.10205283117E+01  0.26145024175E+01  0.00000000000E+00 0. -1.
<mgrwt>
<rscale>  0 0.24071030E+01</rscale>
<asrwt>0</asrwt>
<pdfrwt beam="1">0</pdfrwt>
<pdfrwt beam="2">0</pdfrwt>
<totfact> 0.28734050E+12</totfact>
</mgrwt>
</event>
<event>
 4    2  0.1060494E+006  0.2653839E+01  0.7546771E-02  0.2644362E+00
         22   -1    0    0    0    0  0.00000000000E+00  0.00000000000E+00  0.34278747045E+01  0.34278747045E+01  0.00000000000E+00 0.  1.
         22   -1    0    0    0    0 -0.00000000000E+00 -0.00000000000E+00 -0.20574362113E+01  0.20574362113E+01  0.00000000000E+00 0. -1.
          4    1    1    2  501    0 -0.26401376244E+01 -0.26932166733E+00  0.58312457744E+00  0.27171483414E+01  0.00000000000E+00 0. -1.
         -4    1    1    2    0  501  0.26401376244E+01  0.26932166733E+00  0.78731391575E+00  0.27681625744E+01  0.00000000000E+00 0.  1.
<mgrwt>
<rscale>  0 0.26538389E+01</rscale>
<asrwt>0</asrwt>
<pdfrwt beam="1">0</pdfrwt>
<pdfrwt beam="2">0</pdfrwt>
<totfact> 0.24755148E+12</totfact>
</mgrwt>
</event>
<event>
 4    2  0.1060494E+006  0.2554482E+01  0.7546771E-02  0.2684987E+00
         22   -1    0    0    0    0  0.00000000000E+00  0.00000000000E+00  0.70790757975E+00  0.70790757975E+00  0.00000000000E+00 0.  1.
         22   -1    0    0    0    0 -0.00000000000E+00 -0.00000000000E+00 -0.92667510893E+01  0.92667510893E+01  0.00000000000E+00 0. -1.
          4    1    1    2  501    0 -0.69241290171E+00 -0.24588503200E+01 -0.46417458316E+01  0.52982246921E+01  0.00000000000E+00 0.  1.
         -4    1    1    2    0  501  0.69241290171E+00  0.24588503200E+01 -0.39170976780E+01  0.46764339770E+01  0.00000000000E+00 0. -1.
<mgrwt>
<rscale>  0 0.25544824E+01</rscale>
<asrwt>0</asrwt>
<pdfrwt beam="1">0</pdfrwt>
<pdfrwt beam="2">0</pdfrwt>
<totfact> 0.25782685E+12</totfact>
</mgrwt>
</event>
<event>
 4    2  0.1060494E+006  0.2204296E+01  0.7546771E-02  0.2855245E+00
         22   -1    0    0    0    0  0.00000000000E+00  0.00000000000E+00  0.36916352071E+01  0.36916352071E+01  0.00000000000E+00 0.  1.
         22   -1    0    0    0    0 -0.00000000000E+00 -0.00000000000E+00 -0.15440484502E+01  0.15440484502E+01  0.00000000000E+00 0. -1.
          4    1    1    2  501    0 -0.21914129779E+01  0.23797304095E+00  0.68163633820E-01  0.22053499244E+01  0.00000000000E+00 0. -1.
         -4    1    1    2    0  501  0.21914129779E+01 -0.23797304095E+00  0.20794231230E+01  0.30303337329E+01  0.00000000000E+00 0.  1.
<mgrwt>
<rscale>  0 0.22042963E+01</rscale>
<asrwt>0</asrwt>
<pdfrwt beam="1">0</pdfrwt>
<pdfrwt beam="2">0</pdfrwt>
<totfact> 0.31610011E+12</totfact>
</mgrwt>
</event>
<event>
 4    2  0.1060494E+006  0.2207900E+01  0.7546771E-02  0.2853233E+00
         22   -1    0    0    0    0  0.00000000000E+00  0.00000000000E+00  0.22806576777E+00  0.22806576777E+00  0.00000000000E+00 0.  1.
         22   -1    0    0    0    0 -0.00000000000E+00 -0.00000000000E+00 -0.22651257295E+02  0.22651257295E+02  0.00000000000E+00 0. -1.
          4    1    1    2  501    0 -0.15432314294E+01  0.15790061506E+01 -0.13927393304E+02  0.14101315822E+02  0.00000000000E+00 0. -1.
         -4    1    1    2    0  501  0.15432314294E+01 -0.15790061506E+01 -0.84957982224E+01  0.87780072399E+01  0.00000000000E+00 0.  1.
<mgrwt>
<rscale>  0 0.22079003E+01</rscale>
<asrwt>0</asrwt>
<pdfrwt beam="1">0</pdfrwt>
<pdfrwt beam="2">0</pdfrwt>
<totfact> 0.30752408E+12</totfact>
</mgrwt>
</event>
<event>
 4    2  0.1060494E+006  0.2003179E+01  0.7546771E-02  0.2978586E+00
         22   -1    0    0    0    0  0.00000000000E+00  0.00000000000E+00  0.12546790254E+00  0.12546790254E+00  0.00000000000E+00 0. -1.
         22   -1    0    0    0    0 -0.00000000000E+00 -0.00000000000E+00 -0.36512718207E+02  0.36512718207E+02  0.00000000000E+00 0.  1.
          4    1    1    2  501    0 -0.15405626981E+01  0.12803874512E+01 -0.24646618428E+02  0.24727889627E+02  0.00000000000E+00 0. -1.
         -4    1    1    2    0  501  0.15405626981E+01 -0.12803874512E+01 -0.11740631877E+02  0.11910296483E+02  0.00000000000E+00 0.  1.
<mgrwt>
<rscale>  0 0.20031788E+01</rscale>
<asrwt>0</asrwt>
<pdfrwt beam="1">0</pdfrwt>
<pdfrwt beam="2">0</pdfrwt>
<totfact> 0.32593316E+12</totfact>
</mgrwt>
</event>
<event>
 4    2  0.1060494E+006  0.3004550E+01  0.7546771E-02  0.2520744E+00
         22   -1    0    0    0    0  0.00000000000E+00  0.00000000000E+00  0.13592403445E+01  0.13592403445E+01  0.00000000000E+00 0.  1.
         22   -1    0    0    0    0 -0.00000000000E+00 -0.00000000000E+00 -0.71497582709E+01  0.71497582709E+01  0.00000000000E+00 0. -1.
          4    1    1    2  501    0  0.17797510124E+01 -0.24207039242E+01 -0.40296639732E+01  0.50264811640E+01  0.00000000000E+00 0. -1.
         -4    1    1    2    0  501 -0.17797510124E+01  0.24207039242E+01 -0.17608539533E+01  0.34825174514E+01  0.00000000000E+00 0.  1.
<mgrwt>
<rscale>  0 0.30045501E+01</rscale>
<asrwt>0</asrwt>
<pdfrwt beam="1">0</pdfrwt>
<pdfrwt beam="2">0</pdfrwt>
<totfact> 0.16721890E+12</totfact>
</mgrwt>
</event>
<event>
 4    2  0.1060494E+006  0.2059066E+01  0.7546771E-02  0.2941964E+00
         22   -1    0    0    0    0  0.00000000000E+00  0.00000000000E+00  0.28156311777E+02  0.28156311777E+02  0.00000000000E+00 0.  1.
         22   -1    0    0    0    0 -0.00000000000E+00 -0.00000000000E+00 -0.93394247083E+00  0.93394247083E+00  0.00000000000E+00 0. -1.
          4    1    1    2  501    0 -0.18176188136E+01  0.96747891811E+00  0.29011577189E+00  0.20794039457E+01  0.00000000000E+00 0. -1.
         -4    1    1    2    0  501  0.18176188136E+01 -0.96747891811E+00  0.26932253534E+02  0.27010850302E+02  0.00000000000E+00 0.  1.
<mgrwt>
<rscale>  0 0.20590662E+01</rscale>
<asrwt>0</asrwt>
<pdfrwt beam="1">0</pdfrwt>
<pdfrwt beam="2">0</pdfrwt>
<totfact> 0.47622833E+11</totfact>
</mgrwt>
</event>
<event>
 4    2  0.1060494E+006  0.2597520E+01  0.7546771E-02  0.2667038E+00
         22   -1    0    0    0    0  0.00000000000E+00  0.00000000000E+00  0.42049879415E+02  0.42049879415E+02  0.00000000000E+00 0. -1.
         22   -1    0    0    0    0 -0.00000000000E+00 -0.00000000000E+00 -0.25522538322E+00  0.25522538322E+00  0.00000000000E+00 0.  1.
          4    1    1    2  501    0  0.15634322126E+01 -0.20743168793E+01  0.80077903142E+01  0.84185400466E+01  0.00000000000E+00 0.  1.
         -4    1    1    2    0  501 -0.15634322126E+01  0.20743168793E+01  0.33786863718E+02  0.33886564752E+02  0.00000000000E+00 0. -1.
<mgrwt>
<rscale>  0 0.25975201E+01</rscale>
<asrwt>0</asrwt>
<pdfrwt beam="1">0</pdfrwt>
<pdfrwt beam="2">0</pdfrwt>
<totfact> 0.12305861E+12</totfact>
</mgrwt>
</event>
<event>
 4    2  0.1060494E+006  0.2668845E+01  0.7546771E-02  0.2638468E+00
         22   -1    0    0    0    0  0.00000000000E+00  0.00000000000E+00  0.24618897218E+01  0.24618897218E+01  0.00000000000E+00 0. -1.
         22   -1    0    0    0    0 -0.00000000000E+00 -0.00000000000E+00 -0.67540916479E+01  0.67540916479E+01  0.00000000000E+00 0.  1.
          4    1    1    2  501    0 -0.19959861118E+01 -0.17716589396E+01 -0.56300516725E+01  0.62305872750E+01  0.00000000000E+00 0.  1.
         -4    1    1    2    0  501  0.19959861118E+01  0.17716589396E+01  0.13378497464E+01  0.29853940947E+01  0.00000000000E+00 0. -1.
<mgrwt>
<rscale>  0 0.26688454E+01</rscale>
<asrwt>0</asrwt>
<pdfrwt beam="1">0</pdfrwt>
<pdfrwt beam="2">0</pdfrwt>
<totfact> 0.90113841E+11</totfact>
</mgrwt>
</event>
<event>
 4    2  0.1060494E+006  0.2062263E+01  0.7546771E-02  0.2939928E+00
         22   -1    0    0    0    0  0.00000000000E+00  0.00000000000E+00  0.14729356782E+01  0.14729356782E+01  0.00000000000E+00 0.  1.
         22   -1    0    0    0    0 -0.00000000000E+00 -0.00000000000E+00 -0.29671367942E+01  0.29671367942E+01  0.00000000000E+00 0. -1.
          4    1    1    2  501    0 -0.20442619538E+01  0.27188756490E+00 -0.38312994915E+00  0.20975505576E+01  0.00000000000E+00 0.  1.
         -4    1    1    2    0  501  0.20442619538E+01 -0.27188756490E+00 -0.11110711668E+01  0.23425219148E+01  0.00000000000E+00 0. -1.
<mgrwt>
<rscale>  0 0.20622633E+01</rscale>
<asrwt>0</asrwt>
<pdfrwt beam="1">0</pdfrwt>
<pdfrwt beam="2">0</pdfrwt>
<totfact> 0.43100614E+12</totfact>
</mgrwt>
</event>
<event>
 4    2  0.1060494E+006  0.2077062E+01  0.7546771E-02  0.2930582E+00
         22   -1    0    0    0    0  0.00000000000E+00  0.00000000000E+00  0.53463894891E+00  0.53463894891E+00  0.00000000000E+00 0.  1.
         22   -1    0    0    0    0 -0.00000000000E+00 -0.00000000000E+00 -0.91152906237E+01  0.91152906237E+01  0.00000000000E+00 0. -1.
          4    1    1    2  501    0 -0.17604018106E+01 -0.11023475933E+01 -0.59247469999E+01  0.62782809561E+01  0.00000000000E+00 0. -1.
         -4    1    1    2    0  501  0.17604018106E+01  0.11023475933E+01 -0.26559046749E+01  0.33716486165E+01  0.00000000000E+00 0.  1.
<mgrwt>
<rscale>  0 0.20770616E+01</rscale>
<asrwt>0</asrwt>
<pdfrwt beam="1">0</pdfrwt>
<pdfrwt beam="2">0</pdfrwt>
<totfact> 0.36144651E+12</totfact>
</mgrwt>
</event>
<event>
 4    2  0.1060494E+006  0.2521207E+01  0.7546771E-02  0.2699254E+00
         22   -1    0    0    0    0  0.00000000000E+00  0.00000000000E+00  0.11154181363E+02  0.11154181363E+02  0.00000000000E+00 0. -1.
         22   -1    0    0    0    0 -0.00000000000E+00 -0.00000000000E+00 -0.59581471738E+00  0.59581471738E+00  0.00000000000E+00 0.  1.
          4    1    1    2  501    0  0.11019680131E+01 -0.22676309567E+01  0.40533291200E+01  0.47734642151E+01  0.00000000000E+00 0.  1.
         -4    1    1    2    0  501 -0.11019680131E+01  0.22676309567E+01  0.65050375257E+01  0.69765318654E+01  0.00000000000E+00 0. -1.
<mgrwt>
<rscale>  0 0.25212068E+01</rscale>
<asrwt>0</asrwt>
<pdfrwt beam="1">0</pdfrwt>
<pdfrwt beam="2">0</pdfrwt>
<totfact> 0.25041238E+12</totfact>
</mgrwt>
</event>
<event>
 4    2  0.1060494E+006  0.4136732E+01  0.7546771E-02  0.2251896E+00
         22   -1    0    0    0    0  0.00000000000E+00  0.00000000000E+00  0.12956712118E+01  0.12956712118E+01  0.00000000000E+00 0.  1.
         22   -1    0    0    0    0 -0.00000000000E+00 -0.00000000000E+00 -0.14646675757E+02  0.14646675757E+02  0.00000000000E+00 0. -1.
          4    1    1    2  501    0 -0.35432755266E+01  0.21348889712E+01 -0.91741933962E+01  0.10063715857E+02  0.00000000000E+00 0. -1.
         -4    1    1    2    0  501  0.35432755266E+01 -0.21348889712E+01 -0.41768111495E+01  0.58786311124E+01  0.00000000000E+00 0.  1.
<mgrwt>
<rscale>  0 0.41367321E+01</rscale>
<asrwt>0</asrwt>
<pdfrwt beam="1">0</pdfrwt>
<pdfrwt beam="2">0</pdfrwt>
<totfact> 0.74060736E+11</totfact>
</mgrwt>
</event>
<event>
 4    2  0.1060494E+006  0.2103592E+01  0.7546771E-02  0.2914146E+00
         22   -1    0    0    0    0  0.00000000000E+00  0.00000000000E+00  0.81986837089E+02  0.81986837089E+02  0.00000000000E+00 0. -1.
         22   -1    0    0    0    0 -0.00000000000E+00 -0.00000000000E+00 -0.60947688657E-01  0.60947688657E-01  0.00000000000E+00 0.  1.
          4    1    1    2  501    0 -0.14015751120E+01  0.15686572462E+01  0.27085420230E+02  0.27166985247E+02  0.00000000000E+00 0. -1.
         -4    1    1    2    0  501  0.14015751120E+01 -0.15686572462E+01  0.54840469170E+02  0.54880799531E+02  0.00000000000E+00 0.  1.
<mgrwt>
<rscale>  0 0.21035918E+01</rscale>
<asrwt>0</asrwt>
<pdfrwt beam="1">0</pdfrwt>
<pdfrwt beam="2">0</pdfrwt>
<totfact> 0.24690835E+12</totfact>
</mgrwt>
</event>
<event>
 4    2  0.1060494E+006  0.2441657E+01  0.7546771E-02  0.2734824E+00
         22   -1    0    0    0    0  0.00000000000E+00  0.00000000000E+00  0.61013356627E+02  0.61013356627E+02  0.00000000000E+00 0.  1.
         22   -1    0    0    0    0 -0.00000000000E+00 -0.00000000000E+00 -0.12165699638E+00  0.12165699638E+00  0.00000000000E+00 0. -1.
          4    1    1    2  501    0 -0.21537262248E+01 -0.11502835104E+01  0.16884402566E+02  0.17060033377E+02  0.00000000000E+00 0. -1.
         -4    1    1    2    0  501  0.21537262248E+01  0.11502835104E+01  0.44007297064E+02  0.44074980246E+02  0.00000000000E+00 0.  1.
<mgrwt>
<rscale>  0 0.24416570E+01</rscale>
<asrwt>0</asrwt>
<pdfrwt beam="1">0</pdfrwt>
<pdfrwt beam="2">0</pdfrwt>
<totfact> 0.17182161E+12</totfact>
</mgrwt>
</event>
<event>
 4    2  0.1060494E+006  0.5307214E+01  0.7546771E-02  0.2088025E+00
         22   -1    0    0    0    0  0.00000000000E+00  0.00000000000E+00  0.38407780024E+01  0.38407780024E+01  0.00000000000E+00 0.  1.
         22   -1    0    0    0    0 -0.00000000000E+00 -0.00000000000E+00 -0.84856658898E+01  0.84856658898E+01  0.00000000000E+00 0. -1.
          4    1    1    2  501    0  0.24138544959E+01  0.47265027925E+01 -0.45934258795E+01  0.70189802312E+01  0.00000000000E+00 0. -1.
         -4    1    1    2    0  501 -0.24138544959E+01 -0.47265027925E+01 -0.51462007846E-01  0.53074636610E+01  0.00000000000E+00 0.  1.
<mgrwt>
<rscale>  0 0.53072142E+01</rscale>
<asrwt>0</asrwt>
<pdfrwt beam="1">0</pdfrwt>
<pdfrwt beam="2">0</pdfrwt>
<totfact> 0.40751672E+11</totfact>
</mgrwt>
</event>
<event>
 4    2  0.1060494E+006  0.2040290E+01  0.7546771E-02  0.2954049E+00
         22   -1    0    0    0    0  0.00000000000E+00  0.00000000000E+00  0.35366629698E+01  0.35366629698E+01  0.00000000000E+00 0.  1.
         22   -1    0    0    0    0 -0.00000000000E+00 -0.00000000000E+00 -0.24471190591E+01  0.24471190591E+01  0.00000000000E+00 0. -1.
          4    1    1    2  501    0  0.20211670259E+01  0.27868776271E+00 -0.16106590109E+01  0.25994240641E+01  0.00000000000E+00 0. -1.
         -4    1    1    2    0  501 -0.20211670259E+01 -0.27868776271E+00  0.27002029217E+01  0.33843579648E+01  0.00000000000E+00 0.  1.
<mgrwt>
<rscale>  0 0.20402899E+01</rscale>
<asrwt>0</asrwt>
<pdfrwt beam="1">0</pdfrwt>
<pdfrwt beam="2">0</pdfrwt>
<totfact> 0.19512238E+12</totfact>
</mgrwt>
</event>
<event>
 4    2  0.1060494E+006  0.2337966E+01  0.7546771E-02  0.2784583E+00
         22   -1    0    0    0    0  0.00000000000E+00  0.00000000000E+00  0.19228068217E+02  0.19228068217E+02  0.00000000000E+00 0.  1.
         22   -1    0    0    0    0 -0.00000000000E+00 -0.00000000000E+00 -0.28504123326E+00  0.28504123326E+00  0.00000000000E+00 0. -1.
          4    1    1    2  501    0 -0.19126922744E+01 -0.13445047504E+01  0.99769242745E+01  0.10247199751E+02  0.00000000000E+00 0. -1.
         -4    1    1    2    0  501  0.19126922744E+01  0.13445047504E+01  0.89661027094E+01  0.92659096993E+01  0.00000000000E+00 0.  1.
<mgrwt>
<rscale>  0 0.23379659E+01</rscale>
<asrwt>0</asrwt>
<pdfrwt beam="1">0</pdfrwt>
<pdfrwt beam="2">0</pdfrwt>
<totfact> 0.29406734E+12</totfact>
</mgrwt>
</event>
<event>
 4    2  0.1060494E+006  0.2076408E+01  0.7546771E-02  0.2930992E+00
         22   -1    0    0    0    0  0.00000000000E+00  0.00000000000E+00  0.85259141037E+00  0.85259141037E+00  0.00000000000E+00 0.  1.
         22   -1    0    0    0    0 -0.00000000000E+00 -0.00000000000E+00 -0.54941594364E+01  0.54941594364E+01  0.00000000000E+00 0. -1.
          4    1    1    2  501    0 -0.19870109848E+01 -0.60270855435E+00 -0.14255429751E+01  0.25186589744E+01  0.00000000000E+00 0.  1.
         -4    1    1    2    0  501  0.19870109848E+01  0.60270855435E+00 -0.32160250509E+01  0.38280918724E+01  0.00000000000E+00 0. -1.
<mgrwt>
<rscale>  0 0.20764080E+01</rscale>
<asrwt>0</asrwt>
<pdfrwt beam="1">0</pdfrwt>
<pdfrwt beam="2">0</pdfrwt>
<totfact> 0.39014582E+12</totfact>
</mgrwt>
</event>
<event>
 4    2  0.1060494E+006  0.2545319E+01  0.7546771E-02  0.2688881E+00
         22   -1    0    0    0    0  0.00000000000E+00  0.00000000000E+00  0.34279733894E+01  0.34279733894E+01  0.00000000000E+00 0.  1.
         22   -1    0    0    0    0 -0.00000000000E+00 -0.00000000000E+00 -0.28440279522E+01  0.28440279522E+01  0.00000000000E+00 0. -1.
          4    1    1    2  501    0 -0.19425468044E+01  0.16447375878E+01 -0.15243974720E+01  0.29668902023E+01  0.00000000000E+00 0.  1.
         -4    1    1    2    0  501  0.19425468044E+01 -0.16447375878E+01  0.21083429092E+01  0.33051111393E+01  0.00000000000E+00 0. -1.
<mgrwt>
<rscale>  0 0.25453192E+01</rscale>
<asrwt>0</asrwt>
<pdfrwt beam="1">0</pdfrwt>
<pdfrwt beam="2">0</pdfrwt>
<totfact> 0.16990763E+12</totfact>
</mgrwt>
</event>
<event>
 4    2  0.1060494E+006  0.2474677E+01  0.7546771E-02  0.2719801E+00
         22   -1    0    0    0    0  0.00000000000E+00  0.00000000000E+00  0.15113193645E+02  0.15113193645E+02  0.00000000000E+00 0.  1.
         22   -1    0    0    0    0 -0.00000000000E+00 -0.00000000000E+00 -0.46019346061E+00  0.46019346061E+00  0.00000000000E+00 0. -1.
          4    1    1    2  501    0  0.12734287387E+01  0.21218872048E+01  0.46349864815E+01  0.52542483522E+01  0.00000000000E+00 0. -1.
         -4    1    1    2    0  501 -0.12734287387E+01 -0.21218872048E+01  0.10018013703E+02  0.10319138753E+02  0.00000000000E+00 0.  1.
<mgrwt>
<rscale>  0 0.24746770E+01</rscale>
<asrwt>0</asrwt>
<pdfrwt beam="1">0</pdfrwt>
<pdfrwt beam="2">0</pdfrwt>
<totfact> 0.23122692E+12</totfact>
</mgrwt>
</event>
<event>
 4    2  0.1060494E+006  0.2206782E+01  0.7546771E-02  0.2853857E+00
         22   -1    0    0    0    0  0.00000000000E+00  0.00000000000E+00  0.22542161609E+00  0.22542161609E+00  0.00000000000E+00 0. -1.
         22   -1    0    0    0    0 -0.00000000000E+00 -0.00000000000E+00 -0.39005659543E+02  0.39005659543E+02  0.00000000000E+00 0.  1.
          4    1    1    2  501    0 -0.14859670842E+01  0.16314985219E+01 -0.32492149595E+02  0.32567002793E+02  0.00000000000E+00 0.  1.
         -4    1    1    2    0  501  0.14859670842E+01 -0.16314985219E+01 -0.62880883318E+01  0.66640783662E+01  0.00000000000E+00 0. -1.
<mgrwt>
<rscale>  0 0.22067817E+01</rscale>
<asrwt>0</asrwt>
<pdfrwt beam="1">0</pdfrwt>
<pdfrwt beam="2">0</pdfrwt>
<totfact> 0.15587464E+12</totfact>
</mgrwt>
</event>
<event>
 4    2  0.1060494E+006  0.3372794E+01  0.7546771E-02  0.2416061E+00
         22   -1    0    0    0    0  0.00000000000E+00  0.00000000000E+00  0.75426540825E+01  0.75426540825E+01  0.00000000000E+00 0. -1.
         22   -1    0    0    0    0 -0.00000000000E+00 -0.00000000000E+00 -0.17659388936E+01  0.17659388936E+01  0.00000000000E+00 0.  1.
          4    1    1    2  501    0  0.45014708086E+00 -0.33426202256E+01  0.11102170822E+01  0.35508202343E+01  0.00000000000E+00 0.  1.
         -4    1    1    2    0  501 -0.45014708086E+00  0.33426202256E+01  0.46664981066E+01  0.57577727418E+01  0.00000000000E+00 0. -1.
<mgrwt>
<rscale>  0 0.33727944E+01</rscale>
<asrwt>0</asrwt>
<pdfrwt beam="1">0</pdfrwt>
<pdfrwt beam="2">0</pdfrwt>
<totfact> 0.11602874E+12</totfact>
</mgrwt>
</event>
<event>
 4    2  0.1060494E+006  0.2268750E+01  0.7546771E-02  0.2820184E+00
         22   -1    0    0    0    0  0.00000000000E+00  0.00000000000E+00  0.17402521077E+02  0.17402521077E+02  0.00000000000E+00 0. -1.
         22   -1    0    0    0    0 -0.00000000000E+00 -0.00000000000E+00 -0.30072137833E+00  0.30072137833E+00  0.00000000000E+00 0.  1.
          4    1    1    2  501    0  0.51436899655E+00  0.22096719613E+01  0.74156354359E+01  0.77549258256E+01  0.00000000000E+00 0.  1.
         -4    1    1    2    0  501 -0.51436899655E+00 -0.22096719613E+01  0.96861642627E+01  0.99483166297E+01  0.00000000000E+00 0. -1.
<mgrwt>
<rscale>  0 0.22687498E+01</rscale>
<asrwt>0</asrwt>
<pdfrwt beam="1">0</pdfrwt>
<pdfrwt beam="2">0</pdfrwt>
<totfact> 0.31344973E+12</totfact>
</mgrwt>
</event>
<event>
 4    2  0.1060494E+006  0.2534214E+01  0.7546771E-02  0.2693636E+00
         22   -1    0    0    0    0  0.00000000000E+00  0.00000000000E+00  0.11429890365E+01  0.11429890365E+01  0.00000000000E+00 0.  1.
         22   -1    0    0    0    0 -0.00000000000E+00 -0.00000000000E+00 -0.59509673625E+01  0.59509673625E+01  0.00000000000E+00 0. -1.
          4    1    1    2  501    0 -0.21223106044E+01  0.13849323876E+01 -0.32419730194E+01  0.41149275909E+01  0.00000000000E+00 0.  1.
         -4    1    1    2    0  501  0.21223106044E+01 -0.13849323876E+01 -0.15660053066E+01  0.29790288082E+01  0.00000000000E+00 0. -1.
<mgrwt>
<rscale>  0 0.25342139E+01</rscale>
<asrwt>0</asrwt>
<pdfrwt beam="1">0</pdfrwt>
<pdfrwt beam="2">0</pdfrwt>
<totfact> 0.25391320E+12</totfact>
</mgrwt>
</event>
<event>
 4    2  0.1060494E+006  0.2600280E+01  0.7546771E-02  0.2665905E+00
         22   -1    0    0    0    0  0.00000000000E+00  0.00000000000E+00  0.53237992210E+02  0.53237992210E+02  0.00000000000E+00 0. -1.
         22   -1    0    0    0    0 -0.00000000000E+00 -0.00000000000E+00 -0.30232079611E+00  0.30232079611E+00  0.00000000000E+00 0.  1.
          4    1    1    2  501    0  0.20996561161E+01  0.15339161658E+01  0.60820115264E+01  0.66145535614E+01  0.00000000000E+00 0.  1.
         -4    1    1    2    0  501 -0.20996561161E+01 -0.15339161658E+01  0.46853659888E+02  0.46925759445E+02  0.00000000000E+00 0. -1.
<mgrwt>
<rscale>  0 0.26002797E+01</rscale>
<asrwt>0</asrwt>
<pdfrwt beam="1">0</pdfrwt>
<pdfrwt beam="2">0</pdfrwt>
<totfact> 0.74670787E+11</totfact>
</mgrwt>
</event>
<event>
 4    2  0.1060494E+006  0.2090765E+01  0.7546771E-02  0.2922042E+00
         22   -1    0    0    0    0  0.00000000000E+00  0.00000000000E+00  0.38371653667E+02  0.38371653667E+02  0.00000000000E+00 0.  1.
         22   -1    0    0    0    0 -0.00000000000E+00 -0.00000000000E+00 -0.24397453944E+00  0.24397453944E+00  0.00000000000E+00 0. -1.
          4    1    1    2  501    0 -0.23149863794E+00 -0.20779094642E+01  0.49669405676E+01  0.53890442531E+01  0.00000000000E+00 0. -1.
         -4    1    1    2    0  501  0.23149863794E+00  0.20779094642E+01  0.33160738560E+02  0.33226583953E+02  0.00000000000E+00 0.  1.
<mgrwt>
<rscale>  0 0.20907653E+01</rscale>
<asrwt>0</asrwt>
<pdfrwt beam="1">0</pdfrwt>
<pdfrwt beam="2">0</pdfrwt>
<totfact> 0.14574184E+12</totfact>
</mgrwt>
</event>
<event>
 4    2  0.1060494E+006  0.2740808E+01  0.7546771E-02  0.2611030E+00
         22   -1    0    0    0    0  0.00000000000E+00  0.00000000000E+00  0.58977344722E+01  0.58977344722E+01  0.00000000000E+00 0.  1.
         22   -1    0    0    0    0 -0.00000000000E+00 -0.00000000000E+00 -0.12872357315E+01  0.12872357315E+01  0.00000000000E+00 0. -1.
          4    1    1    2  501    0 -0.54917592930E+00 -0.26852250048E+01  0.26734466344E+01  0.38287523339E+01  0.00000000000E+00 0.  1.
         -4    1    1    2    0  501  0.54917592930E+00  0.26852250048E+01  0.19370521063E+01  0.33562178699E+01  0.00000000000E+00 0. -1.
<mgrwt>
<rscale>  0 0.27408078E+01</rscale>
<asrwt>0</asrwt>
<pdfrwt beam="1">0</pdfrwt>
<pdfrwt beam="2">0</pdfrwt>
<totfact> 0.22396674E+12</totfact>
</mgrwt>
</event>
<event>
 4    2  0.1060494E+006  0.3143480E+01  0.7546771E-02  0.2478695E+00
         22   -1    0    0    0    0  0.00000000000E+00  0.00000000000E+00  0.36311000395E+01  0.36311000395E+01  0.00000000000E+00 0. -1.
         22   -1    0    0    0    0 -0.00000000000E+00 -0.00000000000E+00 -0.27220912366E+01  0.27220912366E+01  0.00000000000E+00 0.  1.
          4    1    1    2  501    0 -0.31381652355E+01 -0.18272317513E+00  0.40183968753E+00  0.31690604189E+01  0.00000000000E+00 0.  1.
         -4    1    1    2    0  501  0.31381652355E+01  0.18272317513E+00  0.50716911540E+00  0.31841308572E+01  0.00000000000E+00 0. -1.
<mgrwt>
<rscale>  0 0.31434804E+01</rscale>
<asrwt>0</asrwt>
<pdfrwt beam="1">0</pdfrwt>
<pdfrwt beam="2">0</pdfrwt>
<totfact> 0.16714366E+12</totfact>
</mgrwt>
</event>
<event>
 4    2  0.1060494E+006  0.4116917E+01  0.7546771E-02  0.2255487E+00
         22   -1    0    0    0    0  0.00000000000E+00  0.00000000000E+00  0.26776091171E+02  0.26776091171E+02  0.00000000000E+00 0.  1.
         22   -1    0    0    0    0 -0.00000000000E+00 -0.00000000000E+00 -0.66896381956E+00  0.66896381956E+00  0.00000000000E+00 0. -1.
          4    1    1    2  501    0 -0.13883898534E+01 -0.38757425228E+01  0.98713880418E+01  0.10695480745E+02  0.00000000000E+00 0. -1.
         -4    1    1    2    0  501  0.13883898534E+01  0.38757425228E+01  0.16235739310E+02  0.16749574246E+02  0.00000000000E+00 0.  1.
<mgrwt>
<rscale>  0 0.41169171E+01</rscale>
<asrwt>0</asrwt>
<pdfrwt beam="1">0</pdfrwt>
<pdfrwt beam="2">0</pdfrwt>
<totfact> 0.74195142E+11</totfact>
</mgrwt>
</event>
<event>
 4    2  0.1060494E+006  0.2263371E+01  0.7546771E-02  0.2823037E+00
         22   -1    0    0    0    0  0.00000000000E+00  0.00000000000E+00  0.24853206509E+01  0.24853206509E+01  0.00000000000E+00 0. -1.
         22   -1    0    0    0    0 -0.00000000000E+00 -0.00000000000E+00 -0.31547272935E+01  0.31547272935E+01  0.00000000000E+00 0.  1.
          4    1    1    2  501    0  0.20501488443E+01  0.95902955658E+00 -0.19949717467E+01  0.30170780972E+01  0.00000000000E+00 0.  1.
         -4    1    1    2    0  501 -0.20501488443E+01 -0.95902955658E+00  0.13255651041E+01  0.26229698472E+01  0.00000000000E+00 0. -1.
<mgrwt>
<rscale>  0 0.22633709E+01</rscale>
<asrwt>0</asrwt>
<pdfrwt beam="1">0</pdfrwt>
<pdfrwt beam="2">0</pdfrwt>
<totfact> 0.21909964E+12</totfact>
</mgrwt>
</event>
<event>
 4    2  0.1060494E+006  0.2098579E+01  0.7546771E-02  0.2917221E+00
         22   -1    0    0    0    0  0.00000000000E+00  0.00000000000E+00  0.24377817238E+01  0.24377817238E+01  0.00000000000E+00 0. -1.
         22   -1    0    0    0    0 -0.00000000000E+00 -0.00000000000E+00 -0.24412489973E+01  0.24412489973E+01  0.00000000000E+00 0.  1.
          4    1    1    2  501    0 -0.64146993352E+00  0.19981368004E+01 -0.12455980270E+01  0.24403993103E+01  0.00000000000E+00 0.  1.
         -4    1    1    2    0  501  0.64146993352E+00 -0.19981368004E+01  0.12421307535E+01  0.24386314108E+01  0.00000000000E+00 0. -1.
<mgrwt>
<rscale>  0 0.20985791E+01</rscale>
<asrwt>0</asrwt>
<pdfrwt beam="1">0</pdfrwt>
<pdfrwt beam="2">0</pdfrwt>
<totfact> 0.30214677E+12</totfact>
</mgrwt>
</event>
<event>
 4    2  0.1060494E+006  0.2015019E+01  0.7546771E-02  0.2970661E+00
         22   -1    0    0    0    0  0.00000000000E+00  0.00000000000E+00  0.89883553777E+00  0.89883553777E+00  0.00000000000E+00 0.  1.
         22   -1    0    0    0    0 -0.00000000000E+00 -0.00000000000E+00 -0.45196539955E+01  0.45196539955E+01  0.00000000000E+00 0. -1.
          4    1    1    2  501    0  0.82274130859E+00 -0.18394020576E+01 -0.18723352505E+01  0.27506258343E+01  0.00000000000E+00 0. -1.
         -4    1    1    2    0  501 -0.82274130859E+00  0.18394020576E+01 -0.17484832073E+01  0.26678636990E+01  0.00000000000E+00 0.  1.
<mgrwt>
<rscale>  0 0.20150194E+01</rscale>
<asrwt>0</asrwt>
<pdfrwt beam="1">0</pdfrwt>
<pdfrwt beam="2">0</pdfrwt>
<totfact> 0.46288593E+12</totfact>
</mgrwt>
</event>
<event>
 4    2  0.1060494E+006  0.2418486E+01  0.7546771E-02  0.2745595E+00
         22   -1    0    0    0    0  0.00000000000E+00  0.00000000000E+00  0.62117209344E+00  0.62117209344E+00  0.00000000000E+00 0.  1.
         22   -1    0    0    0    0 -0.00000000000E+00 -0.00000000000E+00 -0.10799925378E+02  0.10799925378E+02  0.00000000000E+00 0. -1.
          4    1    1    2  501    0  0.10194928975E+01  0.21931046623E+01 -0.71334390233E+01  0.75322656702E+01  0.00000000000E+00 0. -1.
         -4    1    1    2    0  501 -0.10194928975E+01 -0.21931046623E+01 -0.30453142611E+01  0.38888318011E+01  0.00000000000E+00 0.  1.
<mgrwt>
<rscale>  0 0.24184859E+01</rscale>
<asrwt>0</asrwt>
<pdfrwt beam="1">0</pdfrwt>
<pdfrwt beam="2">0</pdfrwt>
<totfact> 0.24841805E+12</totfact>
</mgrwt>
</event>
<event>
 4    2  0.1060494E+006  0.2583853E+01  0.7546771E-02  0.2672678E+00
         22   -1    0    0    0    0  0.00000000000E+00  0.00000000000E+00  0.18065151342E+01  0.18065151342E+01  0.00000000000E+00 0.  1.
         22   -1    0    0    0    0 -0.00000000000E+00 -0.00000000000E+00 -0.38416408826E+01  0.38416408826E+01  0.00000000000E+00 0. -1.
          4    1    1    2  501    0  0.10929280667E+01 -0.23413257138E+01 -0.15680407086E+01  0.30224244442E+01  0.00000000000E+00 0. -1.
         -4    1    1    2    0  501 -0.10929280667E+01  0.23413257138E+01 -0.46708503970E+00  0.26257315726E+01  0.00000000000E+00 0.  1.
<mgrwt>
<rscale>  0 0.25838533E+01</rscale>
<asrwt>0</asrwt>
<pdfrwt beam="1">0</pdfrwt>
<pdfrwt beam="2">0</pdfrwt>
<totfact> 0.25170975E+12</totfact>
</mgrwt>
</event>
<event>
 4    2  0.1060494E+006  0.2452120E+01  0.7546771E-02  0.2730022E+00
         22   -1    0    0    0    0  0.00000000000E+00  0.00000000000E+00  0.21422850350E+02  0.21422850350E+02  0.00000000000E+00 0. -1.
         22   -1    0    0    0    0 -0.00000000000E+00 -0.00000000000E+00 -0.28309677000E+00  0.28309677000E+00  0.00000000000E+00 0.  1.
          4    1    1    2  501    0 -0.20379806260E+01  0.13636456259E+01  0.11573330660E+02  0.11830252617E+02  0.00000000000E+00 0. -1.
         -4    1    1    2    0  501  0.20379806260E+01 -0.13636456259E+01  0.95664229201E+01  0.98756945028E+01  0.00000000000E+00 0.  1.
<mgrwt>
<rscale>  0 0.24521204E+01</rscale>
<asrwt>0</asrwt>
<pdfrwt beam="1">0</pdfrwt>
<pdfrwt beam="2">0</pdfrwt>
<totfact> 0.25894370E+12</totfact>
</mgrwt>
</event>
<event>
 4    2  0.1060494E+006  0.2076438E+01  0.7546771E-02  0.2930973E+00
         22   -1    0    0    0    0  0.00000000000E+00  0.00000000000E+00  0.38534133813E+00  0.38534133813E+00  0.00000000000E+00 0. -1.
         22   -1    0    0    0    0 -0.00000000000E+00 -0.00000000000E+00 -0.12280155920E+02  0.12280155920E+02  0.00000000000E+00 0.  1.
          4    1    1    2  501    0 -0.14184942212E+01 -0.15164000987E+01 -0.78350860783E+01  0.81055640747E+01  0.00000000000E+00 0.  1.
         -4    1    1    2    0  501  0.14184942212E+01  0.15164000987E+01 -0.40597285039E+01  0.45599331838E+01  0.00000000000E+00 0. -1.
<mgrwt>
<rscale>  0 0.20764381E+01</rscale>
<asrwt>0</asrwt>
<pdfrwt beam="1">0</pdfrwt>
<pdfrwt beam="2">0</pdfrwt>
<totfact> 0.36420463E+12</totfact>
</mgrwt>
</event>
<event>
 4    2  0.1060494E+006  0.3019509E+01  0.7546771E-02  0.2516051E+00
         22   -1    0    0    0    0  0.00000000000E+00  0.00000000000E+00  0.28749412366E+01  0.28749412366E+01  0.00000000000E+00 0.  1.
         22   -1    0    0    0    0 -0.00000000000E+00 -0.00000000000E+00 -0.73030727757E+01  0.73030727757E+01  0.00000000000E+00 0. -1.
          4    1    1    2  501    0  0.53868643790E+00 -0.29710693440E+01 -0.60418370699E+01  0.67543490659E+01  0.00000000000E+00 0. -1.
         -4    1    1    2    0  501 -0.53868643790E+00  0.29710693440E+01  0.16137055308E+01  0.34236649464E+01  0.00000000000E+00 0.  1.
<mgrwt>
<rscale>  0 0.30195093E+01</rscale>
<asrwt>0</asrwt>
<pdfrwt beam="1">0</pdfrwt>
<pdfrwt beam="2">0</pdfrwt>
<totfact> 0.68506304E+11</totfact>
</mgrwt>
</event>
<event>
 4    2  0.1060494E+006  0.2666150E+01  0.7546771E-02  0.2639522E+00
         22   -1    0    0    0    0  0.00000000000E+00  0.00000000000E+00  0.68258896872E+00  0.68258896872E+00  0.00000000000E+00 0. -1.
         22   -1    0    0    0    0 -0.00000000000E+00 -0.00000000000E+00 -0.10569726586E+02  0.10569726586E+02  0.00000000000E+00 0.  1.
          4    1    1    2  501    0 -0.19038808528E+01  0.18664383235E+01 -0.56268840553E+01  0.62265703632E+01  0.00000000000E+00 0.  1.
         -4    1    1    2    0  501  0.19038808528E+01 -0.18664383235E+01 -0.42602535620E+01  0.50257451915E+01  0.00000000000E+00 0. -1.
<mgrwt>
<rscale>  0 0.26661497E+01</rscale>
<asrwt>0</asrwt>
<pdfrwt beam="1">0</pdfrwt>
<pdfrwt beam="2">0</pdfrwt>
<totfact> 0.22915157E+12</totfact>
</mgrwt>
</event>
<event>
 4    2  0.1060494E+006  0.2077634E+01  0.7546771E-02  0.2930223E+00
         22   -1    0    0    0    0  0.00000000000E+00  0.00000000000E+00  0.41366519214E+00  0.41366519214E+00  0.00000000000E+00 0.  1.
         22   -1    0    0    0    0 -0.00000000000E+00 -0.00000000000E+00 -0.10948927100E+02  0.10948927100E+02  0.00000000000E+00 0. -1.
          4    1    1    2  501    0  0.49025353544E+00 -0.20189639726E+01 -0.64985948684E+01  0.68226314070E+01  0.00000000000E+00 0.  1.
         -4    1    1    2    0  501 -0.49025353544E+00  0.20189639726E+01 -0.40366670399E+01  0.45399608856E+01  0.00000000000E+00 0. -1.
<mgrwt>
<rscale>  0 0.20776342E+01</rscale>
<asrwt>0</asrwt>
<pdfrwt beam="1">0</pdfrwt>
<pdfrwt beam="2">0</pdfrwt>
<totfact> 0.38668300E+12</totfact>
</mgrwt>
</event>
<event>
 4    2  0.1060494E+006  0.3211920E+01  0.7546771E-02  0.2459175E+00
         22   -1    0    0    0    0  0.00000000000E+00  0.00000000000E+00  0.28412685113E+01  0.28412685113E+01  0.00000000000E+00 0. -1.
         22   -1    0    0    0    0 -0.00000000000E+00 -0.00000000000E+00 -0.55333344524E+01  0.55333344524E+01  0.00000000000E+00 0.  1.
          4    1    1    2  501    0  0.20137218069E+01  0.25022697791E+01 -0.38012670331E+01  0.49765510769E+01  0.00000000000E+00 0.  1.
         -4    1    1    2    0  501 -0.20137218069E+01 -0.25022697791E+01  0.11092010920E+01  0.33980518869E+01  0.00000000000E+00 0. -1.
<mgrwt>
<rscale>  0 0.32119199E+01</rscale>
<asrwt>0</asrwt>
<pdfrwt beam="1">0</pdfrwt>
<pdfrwt beam="2">0</pdfrwt>
<totfact> 0.96700047E+11</totfact>
</mgrwt>
</event>
<event>
 4    2  0.1060494E+006  0.2351206E+01  0.7546771E-02  0.2778000E+00
         22   -1    0    0    0    0  0.00000000000E+00  0.00000000000E+00  0.14494650266E+01  0.14494650266E+01  0.00000000000E+00 0.  1.
         22   -1    0    0    0    0 -0.00000000000E+00 -0.00000000000E+00 -0.52960756000E+01  0.52960756000E+01  0.00000000000E+00 0. -1.
          4    1    1    2  501    0 -0.58235698482E-01 -0.23504845166E+01 -0.37075484060E+01  0.43902259671E+01  0.00000000000E+00 0. -1.
         -4    1    1    2    0  501  0.58235698482E-01  0.23504845166E+01 -0.13906216741E+00  0.23553146596E+01  0.00000000000E+00 0.  1.
<mgrwt>
<rscale>  0 0.23512058E+01</rscale>
<asrwt>0</asrwt>
<pdfrwt beam="1">0</pdfrwt>
<pdfrwt beam="2">0</pdfrwt>
<totfact> 0.22206196E+12</totfact>
</mgrwt>
</event>
<event>
 4    2  0.1060494E+006  0.2573396E+01  0.7546771E-02  0.2677031E+00
         22   -1    0    0    0    0  0.00000000000E+00  0.00000000000E+00  0.21869537708E+01  0.21869537708E+01  0.00000000000E+00 0.  1.
         22   -1    0    0    0    0 -0.00000000000E+00 -0.00000000000E+00 -0.31756254641E+01  0.31756254641E+01  0.00000000000E+00 0. -1.
          4    1    1    2  501    0 -0.17601032321E+01  0.18773391325E+01 -0.10722034228E+01  0.27878281486E+01  0.00000000000E+00 0.  1.
         -4    1    1    2    0  501  0.17601032321E+01 -0.18773391325E+01  0.83531729485E-01  0.25747510862E+01  0.00000000000E+00 0. -1.
<mgrwt>
<rscale>  0 0.25733957E+01</rscale>
<asrwt>0</asrwt>
<pdfrwt beam="1">0</pdfrwt>
<pdfrwt beam="2">0</pdfrwt>
<totfact> 0.25223564E+12</totfact>
</mgrwt>
</event>
<event>
 4    2  0.1060494E+006  0.2028340E+01  0.7546771E-02  0.2961854E+00
         22   -1    0    0    0    0  0.00000000000E+00  0.00000000000E+00  0.14762383149E+02  0.14762383149E+02  0.00000000000E+00 0.  1.
         22   -1    0    0    0    0 -0.00000000000E+00 -0.00000000000E+00 -0.54931386450E+00  0.54931386450E+00  0.00000000000E+00 0. -1.
          4    1    1    2  501    0 -0.88095571266E-02 -0.20283208994E+01  0.17329485738E+01  0.26678219653E+01  0.00000000000E+00 0. -1.
         -4    1    1    2    0  501  0.88095571266E-02  0.20283208994E+01  0.12480120711E+02  0.12643875048E+02  0.00000000000E+00 0.  1.
<mgrwt>
<rscale>  0 0.20283400E+01</rscale>
<asrwt>0</asrwt>
<pdfrwt beam="1">0</pdfrwt>
<pdfrwt beam="2">0</pdfrwt>
<totfact> 0.19486099E+12</totfact>
</mgrwt>
</event>
<event>
 4    2  0.1060494E+006  0.7819001E+01  0.7546771E-02  0.1886909E+00
         22   -1    0    0    0    0  0.00000000000E+00  0.00000000000E+00  0.13943341611E+02  0.13943341611E+02  0.00000000000E+00 0.  1.
         22   -1    0    0    0    0 -0.00000000000E+00 -0.00000000000E+00 -0.46449559931E+01  0.46449559931E+01  0.00000000000E+00 0. -1.
          4    1    1    2  501    0  0.65887592752E+01  0.42101109803E+01  0.24490326584E+01  0.81935672460E+01  0.00000000000E+00 0. -1.
         -4    1    1    2    0  501 -0.65887592752E+01 -0.42101109803E+01  0.68493529594E+01  0.10394730358E+02  0.00000000000E+00 0.  1.
<mgrwt>
<rscale>  0 0.78190014E+01</rscale>
<asrwt>0</asrwt>
<pdfrwt beam="1">0</pdfrwt>
<pdfrwt beam="2">0</pdfrwt>
<totfact> 0.17816231E+11</totfact>
</mgrwt>
</event>
<event>
 4    2  0.1060494E+006  0.2824764E+01  0.7546771E-02  0.2580635E+00
         22   -1    0    0    0    0  0.00000000000E+00  0.00000000000E+00  0.86458455441E+00  0.86458455441E+00  0.00000000000E+00 0. -1.
         22   -1    0    0    0    0 -0.00000000000E+00 -0.00000000000E+00 -0.94664605157E+01  0.94664605157E+01  0.00000000000E+00 0.  1.
          4    1    1    2  501    0  0.95640737893E+00  0.26579268054E+01 -0.34828975581E+01  0.44844024549E+01  0.00000000000E+00 0. -1.
         -4    1    1    2    0  501 -0.95640737893E+00 -0.26579268054E+01 -0.51189784033E+01  0.58466426152E+01  0.00000000000E+00 0.  1.
<mgrwt>
<rscale>  0 0.28247637E+01</rscale>
<asrwt>0</asrwt>
<pdfrwt beam="1">0</pdfrwt>
<pdfrwt beam="2">0</pdfrwt>
<totfact> 0.20017247E+12</totfact>
</mgrwt>
</event>
<event>
 4    2  0.1060494E+006  0.2185540E+01  0.7546771E-02  0.2865820E+00
         22   -1    0    0    0    0  0.00000000000E+00  0.00000000000E+00  0.84864027098E+01  0.84864027098E+01  0.00000000000E+00 0. -1.
         22   -1    0    0    0    0 -0.00000000000E+00 -0.00000000000E+00 -0.71000670432E+00  0.71000670432E+00  0.00000000000E+00 0.  1.
          4    1    1    2  501    0  0.13738340509E+01  0.16997540463E+01  0.17948327666E+01  0.28280750480E+01  0.00000000000E+00 0.  1.
         -4    1    1    2    0  501 -0.13738340509E+01 -0.16997540463E+01  0.59815632389E+01  0.63683343661E+01  0.00000000000E+00 0. -1.
<mgrwt>
<rscale>  0 0.21855397E+01</rscale>
<asrwt>0</asrwt>
<pdfrwt beam="1">0</pdfrwt>
<pdfrwt beam="2">0</pdfrwt>
<totfact> 0.28569992E+12</totfact>
</mgrwt>
</event>
<event>
 4    2  0.1060494E+006  0.6243995E+01  0.7546771E-02  0.1998473E+00
         22   -1    0    0    0    0  0.00000000000E+00  0.00000000000E+00  0.52605878474E+02  0.52605878474E+02  0.00000000000E+00 0.  1.
         22   -1    0    0    0    0 -0.00000000000E+00 -0.00000000000E+00 -0.77075786810E+00  0.77075786810E+00  0.00000000000E+00 0. -1.
          4    1    1    2  501    0 -0.60738817736E+01 -0.14475608545E+01  0.20684480603E+02  0.21606369663E+02  0.00000000000E+00 0.  1.
         -4    1    1    2    0  501  0.60738817736E+01  0.14475608545E+01  0.31150640003E+02  0.31770266679E+02  0.00000000000E+00 0. -1.
<mgrwt>
<rscale>  0 0.62439949E+01</rscale>
<asrwt>0</asrwt>
<pdfrwt beam="1">0</pdfrwt>
<pdfrwt beam="2">0</pdfrwt>
<totfact> 0.26377279E+11</totfact>
</mgrwt>
</event>
<event>
 4    2  0.1060494E+006  0.2295032E+01  0.7546771E-02  0.2806426E+00
         22   -1    0    0    0    0  0.00000000000E+00  0.00000000000E+00  0.18577755784E+01  0.18577755784E+01  0.00000000000E+00 0.  1.
         22   -1    0    0    0    0 -0.00000000000E+00 -0.00000000000E+00 -0.37407646114E+01  0.37407646114E+01  0.00000000000E+00 0. -1.
          4    1    1    2  501    0  0.74306404440E+00 -0.21714112061E+01 -0.23187789148E+01  0.32625000315E+01  0.00000000000E+00 0. -1.
         -4    1    1    2    0  501 -0.74306404440E+00  0.21714112061E+01  0.43578988178E+00  0.23360401582E+01  0.00000000000E+00 0.  1.
<mgrwt>
<rscale>  0 0.22950318E+01</rscale>
<asrwt>0</asrwt>
<pdfrwt beam="1">0</pdfrwt>
<pdfrwt beam="2">0</pdfrwt>
<totfact> 0.25143675E+12</totfact>
</mgrwt>
</event>
<event>
 4    2  0.1060494E+006  0.2740127E+01  0.7546771E-02  0.2611283E+00
         22   -1    0    0    0    0  0.00000000000E+00  0.00000000000E+00  0.25149089685E+02  0.25149089685E+02  0.00000000000E+00 0.  1.
         22   -1    0    0    0    0 -0.00000000000E+00 -0.00000000000E+00 -0.44190680565E+00  0.44190680565E+00  0.00000000000E+00 0. -1.
          4    1    1    2  501    0 -0.26427636044E+01 -0.72394465340E+00  0.50657497521E+01  0.57593503002E+01  0.00000000000E+00 0. -1.
         -4    1    1    2    0  501  0.26427636044E+01  0.72394465340E+00  0.19641433127E+02  0.19831646190E+02  0.00000000000E+00 0.  1.
<mgrwt>
<rscale>  0 0.27401269E+01</rscale>
<asrwt>0</asrwt>
<pdfrwt beam="1">0</pdfrwt>
<pdfrwt beam="2">0</pdfrwt>
<totfact> 0.12834638E+12</totfact>
</mgrwt>
</event>
<event>
 4    2  0.1060494E+006  0.2531255E+01  0.7546771E-02  0.2694909E+00
         22   -1    0    0    0    0  0.00000000000E+00  0.00000000000E+00  0.79694740234E+00  0.79694740234E+00  0.00000000000E+00 0. -1.
         22   -1    0    0    0    0 -0.00000000000E+00 -0.00000000000E+00 -0.11362071100E+02  0.11362071100E+02  0.00000000000E+00 0.  1.
          4    1    1    2  501    0  0.24778678145E+01  0.51713015768E+00 -0.85700259202E+01  0.89360280203E+01  0.00000000000E+00 0.  1.
         -4    1    1    2    0  501 -0.24778678145E+01 -0.51713015768E+00 -0.19950977776E+01  0.32229904822E+01  0.00000000000E+00 0. -1.
<mgrwt>
<rscale>  0 0.25312551E+01</rscale>
<asrwt>0</asrwt>
<pdfrwt beam="1">0</pdfrwt>
<pdfrwt beam="2">0</pdfrwt>
<totfact> 0.17601490E+12</totfact>
</mgrwt>
</event>
<event>
 4    2  0.1060494E+006  0.2005925E+01  0.7546771E-02  0.2976739E+00
         22   -1    0    0    0    0  0.00000000000E+00  0.00000000000E+00  0.12634294731E+00  0.12634294731E+00  0.00000000000E+00 0. -1.
         22   -1    0    0    0    0 -0.00000000000E+00 -0.00000000000E+00 -0.71112435122E+02  0.71112435122E+02  0.00000000000E+00 0.  1.
          4    1    1    2  501    0 -0.22059007224E+00  0.19937592627E+01 -0.61960664513E+02  0.61993126094E+02  0.00000000000E+00 0.  1.
         -4    1    1    2    0  501  0.22059007224E+00 -0.19937592627E+01 -0.90254276615E+01  0.92456519754E+01  0.00000000000E+00 0. -1.
<mgrwt>
<rscale>  0 0.20059252E+01</rscale>
<asrwt>0</asrwt>
<pdfrwt beam="1">0</pdfrwt>
<pdfrwt beam="2">0</pdfrwt>
<totfact> 0.13398204E+12</totfact>
</mgrwt>
</event>
<event>
 4    2  0.1060494E+006  0.4442008E+01  0.7546771E-02  0.2200008E+00
         22   -1    0    0    0    0  0.00000000000E+00  0.00000000000E+00  0.22130027856E+01  0.22130027856E+01  0.00000000000E+00 0. -1.
         22   -1    0    0    0    0 -0.00000000000E+00 -0.00000000000E+00 -0.10917742106E+02  0.10917742106E+02  0.00000000000E+00 0.  1.
          4    1    1    2  501    0  0.97682258999E+00  0.43332730202E+01 -0.71635071228E+01  0.84289543680E+01  0.00000000000E+00 0. -1.
         -4    1    1    2    0  501 -0.97682258999E+00 -0.43332730202E+01 -0.15412321975E+01  0.47017905234E+01  0.00000000000E+00 0.  1.
<mgrwt>
<rscale>  0 0.44420083E+01</rscale>
<asrwt>0</asrwt>
<pdfrwt beam="1">0</pdfrwt>
<pdfrwt beam="2">0</pdfrwt>
<totfact> 0.57192542E+11</totfact>
</mgrwt>
</event>
<event>
 4    2  0.1060494E+006  0.2132456E+01  0.7546771E-02  0.2896715E+00
         22   -1    0    0    0    0  0.00000000000E+00  0.00000000000E+00  0.62637311801E+00  0.62637311801E+00  0.00000000000E+00 0.  1.
         22   -1    0    0    0    0 -0.00000000000E+00 -0.00000000000E+00 -0.16389567374E+02  0.16389567374E+02  0.00000000000E+00 0. -1.
          4    1    1    2  501    0  0.18115520294E+01  0.11250106515E+01 -0.14231558451E+02  0.14390435215E+02  0.00000000000E+00 0. -1.
         -4    1    1    2    0  501 -0.18115520294E+01 -0.11250106515E+01 -0.15316358044E+01  0.26255052769E+01  0.00000000000E+00 0.  1.
<mgrwt>
<rscale>  0 0.21324563E+01</rscale>
<asrwt>0</asrwt>
<pdfrwt beam="1">0</pdfrwt>
<pdfrwt beam="2">0</pdfrwt>
<totfact> 0.14764904E+12</totfact>
</mgrwt>
</event>
<event>
 4    2  0.1060494E+006  0.4928287E+01  0.7546771E-02  0.2131662E+00
         22   -1    0    0    0    0  0.00000000000E+00  0.00000000000E+00  0.32893916031E+02  0.32893916031E+02  0.00000000000E+00 0. -1.
         22   -1    0    0    0    0 -0.00000000000E+00 -0.00000000000E+00 -0.97103239317E+00  0.97103239317E+00  0.00000000000E+00 0.  1.
          4    1    1    2  501    0  0.37707415528E+01  0.31732510662E+01  0.24249692426E+02  0.24745415675E+02  0.00000000000E+00 0. -1.
         -4    1    1    2    0  501 -0.37707415528E+01 -0.31732510662E+01  0.76731912127E+01  0.91195327497E+01  0.00000000000E+00 0.  1.
<mgrwt>
<rscale>  0 0.49282871E+01</rscale>
<asrwt>0</asrwt>
<pdfrwt beam="1">0</pdfrwt>
<pdfrwt beam="2">0</pdfrwt>
<totfact> 0.37361464E+11</totfact>
</mgrwt>
</event>
<event>
 4    2  0.1060494E+006  0.3232160E+01  0.7546771E-02  0.2453543E+00
         22   -1    0    0    0    0  0.00000000000E+00  0.00000000000E+00  0.52108582460E+01  0.52108582460E+01  0.00000000000E+00 0.  1.
         22   -1    0    0    0    0 -0.00000000000E+00 -0.00000000000E+00 -0.81767600474E+01  0.81767600474E+01  0.00000000000E+00 0. -1.
          4    1    1    2  501    0 -0.32268117090E+01 -0.18585671559E+00 -0.72985356421E+01  0.79821976324E+01  0.00000000000E+00 0. -1.
         -4    1    1    2    0  501  0.32268117090E+01  0.18585671559E+00  0.43326338407E+01  0.54054206610E+01  0.00000000000E+00 0.  1.
<mgrwt>
<rscale>  0 0.32321597E+01</rscale>
<asrwt>0</asrwt>
<pdfrwt beam="1">0</pdfrwt>
<pdfrwt beam="2">0</pdfrwt>
<totfact> 0.29725768E+11</totfact>
</mgrwt>
</event>
<event>
 4    2  0.1060494E+006  0.7330634E+01  0.7546771E-02  0.1917557E+00
         22   -1    0    0    0    0  0.00000000000E+00  0.00000000000E+00  0.24007857781E+02  0.24007857781E+02  0.00000000000E+00 0. -1.
         22   -1    0    0    0    0 -0.00000000000E+00 -0.00000000000E+00 -0.23374846643E+01  0.23374846643E+01  0.00000000000E+00 0.  1.
          4    1    1    2  501    0  0.52770556540E+01 -0.50883074442E+01  0.81225354607E+01  0.10941378859E+02  0.00000000000E+00 0.  1.
         -4    1    1    2    0  501 -0.52770556540E+01  0.50883074442E+01  0.13547837656E+02  0.15403963587E+02  0.00000000000E+00 0. -1.
<mgrwt>
<rscale>  0 0.73306336E+01</rscale>
<asrwt>0</asrwt>
<pdfrwt beam="1">0</pdfrwt>
<pdfrwt beam="2">0</pdfrwt>
<totfact> 0.20275543E+11</totfact>
</mgrwt>
</event>
<event>
 4    2  0.1060494E+006  0.3445998E+01  0.7546771E-02  0.2397618E+00
         22   -1    0    0    0    0  0.00000000000E+00  0.00000000000E+00  0.21011361667E+01  0.21011361667E+01  0.00000000000E+00 0.  1.
         22   -1    0    0    0    0 -0.00000000000E+00 -0.00000000000E+00 -0.12033521973E+02  0.12033521973E+02  0.00000000000E+00 0. -1.
          4    1    1    2  501    0  0.76467637052E+00  0.33600847555E+01 -0.10112939241E+02  0.10683933715E+02  0.00000000000E+00 0. -1.
         -4    1    1    2    0  501 -0.76467637052E+00 -0.33600847555E+01  0.18055343500E+00  0.34507244252E+01  0.00000000000E+00 0.  1.
<mgrwt>
<rscale>  0 0.34459976E+01</rscale>
<asrwt>0</asrwt>
<pdfrwt beam="1">0</pdfrwt>
<pdfrwt beam="2">0</pdfrwt>
<totfact> 0.53953404E+11</totfact>
</mgrwt>
</event>
<event>
 4    2  0.1060494E+006  0.6330237E+01  0.7546771E-02  0.1991279E+00
         22   -1    0    0    0    0  0.00000000000E+00  0.00000000000E+00  0.13373868829E+02  0.13373868829E+02  0.00000000000E+00 0.  1.
         22   -1    0    0    0    0 -0.00000000000E+00 -0.00000000000E+00 -0.45168370193E+01  0.45168370193E+01  0.00000000000E+00 0. -1.
          4    1    1    2  501    0  0.60376791521E+01  0.19021926016E+01 -0.76164814283E+00  0.63758932025E+01  0.00000000000E+00 0. -1.
         -4    1    1    2    0  501 -0.60376791521E+01 -0.19021926016E+01  0.96186799525E+01  0.11514812646E+02  0.00000000000E+00 0.  1.
<mgrwt>
<rscale>  0 0.63302375E+01</rscale>
<asrwt>0</asrwt>
<pdfrwt beam="1">0</pdfrwt>
<pdfrwt beam="2">0</pdfrwt>
<totfact> 0.19380287E+11</totfact>
</mgrwt>
</event>
<event>
 4    2  0.1060494E+006  0.3520589E+01  0.7546771E-02  0.2379517E+00
         22   -1    0    0    0    0  0.00000000000E+00  0.00000000000E+00  0.86953274327E+00  0.86953274327E+00  0.00000000000E+00 0. -1.
         22   -1    0    0    0    0 -0.00000000000E+00 -0.00000000000E+00 -0.31395045437E+02  0.31395045437E+02  0.00000000000E+00 0.  1.
          4    1    1    2  501    0 -0.87499032041E+00  0.34101230648E+01 -0.27182880377E+02  0.27409916690E+02  0.00000000000E+00 0.  1.
         -4    1    1    2    0  501  0.87499032041E+00 -0.34101230648E+01 -0.33426323170E+01  0.48546614903E+01  0.00000000000E+00 0. -1.
<mgrwt>
<rscale>  0 0.35205891E+01</rscale>
<asrwt>0</asrwt>
<pdfrwt beam="1">0</pdfrwt>
<pdfrwt beam="2">0</pdfrwt>
<totfact> 0.44979564E+11</totfact>
</mgrwt>
</event>
<event>
 4    2  0.1060494E+006  0.2411682E+01  0.7546771E-02  0.2748795E+00
         22   -1    0    0    0    0  0.00000000000E+00  0.00000000000E+00  0.98281360773E+00  0.98281360773E+00  0.00000000000E+00 0.  1.
         22   -1    0    0    0    0 -0.00000000000E+00 -0.00000000000E+00 -0.86178725185E+01  0.86178725185E+01  0.00000000000E+00 0. -1.
          4    1    1    2  501    0  0.19828873519E+00 -0.24035168793E+01 -0.65044223013E+01  0.69371262988E+01  0.00000000000E+00 0. -1.
         -4    1    1    2    0  501 -0.19828873519E+00  0.24035168793E+01 -0.11306366094E+01  0.26635598274E+01  0.00000000000E+00 0.  1.
<mgrwt>
<rscale>  0 0.24116824E+01</rscale>
<asrwt>0</asrwt>
<pdfrwt beam="1">0</pdfrwt>
<pdfrwt beam="2">0</pdfrwt>
<totfact> 0.19369881E+12</totfact>
</mgrwt>
</event>
<event>
 4    2  0.1060494E+006  0.2664466E+01  0.7546771E-02  0.2640182E+00
         22   -1    0    0    0    0  0.00000000000E+00  0.00000000000E+00  0.28082744524E+01  0.28082744524E+01  0.00000000000E+00 0. -1.
         22   -1    0    0    0    0 -0.00000000000E+00 -0.00000000000E+00 -0.27684967644E+01  0.27684967644E+01  0.00000000000E+00 0.  1.
          4    1    1    2  501    0 -0.14610699012E+01 -0.22281499791E+01 -0.80191131954E+00  0.27825239173E+01  0.00000000000E+00 0.  1.
         -4    1    1    2    0  501  0.14610699012E+01  0.22281499791E+01  0.84168900754E+00  0.27942472996E+01  0.00000000000E+00 0. -1.
<mgrwt>
<rscale>  0 0.26644657E+01</rscale>
<asrwt>0</asrwt>
<pdfrwt beam="1">0</pdfrwt>
<pdfrwt beam="2">0</pdfrwt>
<totfact> 0.22135899E+12</totfact>
</mgrwt>
</event>
<event>
 4    2  0.1060494E+006  0.4201984E+01  0.7546771E-02  0.2240271E+00
         22   -1    0    0    0    0  0.00000000000E+00  0.00000000000E+00  0.17366360437E+02  0.17366360437E+02  0.00000000000E+00 0.  1.
         22   -1    0    0    0    0 -0.00000000000E+00 -0.00000000000E+00 -0.12651486426E+01  0.12651486426E+01  0.00000000000E+00 0. -1.
          4    1    1    2  501    0  0.41966493475E+01  0.21166825443E+00  0.39224988437E+01  0.57482750782E+01  0.00000000000E+00 0. -1.
         -4    1    1    2    0  501 -0.41966493475E+01 -0.21166825443E+00  0.12178712951E+02  0.12883234001E+02  0.00000000000E+00 0.  1.
<mgrwt>
<rscale>  0 0.42019840E+01</rscale>
<asrwt>0</asrwt>
<pdfrwt beam="1">0</pdfrwt>
<pdfrwt beam="2">0</pdfrwt>
<totfact> 0.61686489E+11</totfact>
</mgrwt>
</event>
<event>
 4    2  0.1060494E+006  0.2149686E+01  0.7546771E-02  0.2886526E+00
         22   -1    0    0    0    0  0.00000000000E+00  0.00000000000E+00  0.38785722632E+01  0.38785722632E+01  0.00000000000E+00 0. -1.
         22   -1    0    0    0    0 -0.00000000000E+00 -0.00000000000E+00 -0.35027134249E+01  0.35027134249E+01  0.00000000000E+00 0.  1.
          4    1    1    2  501    0 -0.15073955793E+00  0.21443944877E+01 -0.28100167356E+01  0.35379858942E+01  0.00000000000E+00 0.  1.
         -4    1    1    2    0  501  0.15073955793E+00 -0.21443944877E+01  0.31858755739E+01  0.38432997939E+01  0.00000000000E+00 0. -1.
<mgrwt>
<rscale>  0 0.21496861E+01</rscale>
<asrwt>0</asrwt>
<pdfrwt beam="1">0</pdfrwt>
<pdfrwt beam="2">0</pdfrwt>
<totfact> 0.11518799E+12</totfact>
</mgrwt>
</event>
<event>
 4    2  0.1060494E+006  0.2037620E+01  0.7546771E-02  0.2955785E+00
         22   -1    0    0    0    0  0.00000000000E+00  0.00000000000E+00  0.48387977799E+01  0.48387977799E+01  0.00000000000E+00 0. -1.
         22   -1    0    0    0    0 -0.00000000000E+00 -0.00000000000E+00 -0.89091826604E+00  0.89091826604E+00  0.00000000000E+00 0.  1.
          4    1    1    2  501    0  0.10981465753E+01 -0.17163827357E+01  0.14236136310E+01  0.24856732220E+01  0.00000000000E+00 0.  1.
         -4    1    1    2    0  501 -0.10981465753E+01  0.17163827357E+01  0.25242658829E+01  0.32440428240E+01  0.00000000000E+00 0. -1.
<mgrwt>
<rscale>  0 0.20376201E+01</rscale>
<asrwt>0</asrwt>
<pdfrwt beam="1">0</pdfrwt>
<pdfrwt beam="2">0</pdfrwt>
<totfact> 0.43135827E+12</totfact>
</mgrwt>
</event>
<event>
 4    2  0.1060494E+006  0.2668834E+01  0.7546771E-02  0.2638473E+00
         22   -1    0    0    0    0  0.00000000000E+00  0.00000000000E+00  0.99171457911E+01  0.99171457911E+01  0.00000000000E+00 0.  1.
         22   -1    0    0    0    0 -0.00000000000E+00 -0.00000000000E+00 -0.84669718937E+00  0.84669718937E+00  0.00000000000E+00 0. -1.
          4    1    1    2  501    0  0.25304334087E+01  0.84828180692E+00  0.24387514518E+01  0.36152709309E+01  0.00000000000E+00 0. -1.
         -4    1    1    2    0  501 -0.25304334087E+01 -0.84828180692E+00  0.66316971499E+01  0.71485720495E+01  0.00000000000E+00 0.  1.
<mgrwt>
<rscale>  0 0.26688341E+01</rscale>
<asrwt>0</asrwt>
<pdfrwt beam="1">0</pdfrwt>
<pdfrwt beam="2">0</pdfrwt>
<totfact> 0.19378097E+12</totfact>
</mgrwt>
</event>
<event>
 4    2  0.1060494E+006  0.2862542E+01  0.7546771E-02  0.2567488E+00
         22   -1    0    0    0    0  0.00000000000E+00  0.00000000000E+00  0.69081856259E+01  0.69081856259E+01  0.00000000000E+00 0. -1.
         22   -1    0    0    0    0 -0.00000000000E+00 -0.00000000000E+00 -0.12208460297E+01  0.12208460297E+01  0.00000000000E+00 0.  1.
          4    1    1    2  501    0 -0.28366355417E+01 -0.38424317261E+00  0.21584678398E+01  0.35851258594E+01  0.00000000000E+00 0.  1.
         -4    1    1    2    0  501  0.28366355417E+01  0.38424317261E+00  0.35288717564E+01  0.45439057962E+01  0.00000000000E+00 0. -1.
<mgrwt>
<rscale>  0 0.28625415E+01</rscale>
<asrwt>0</asrwt>
<pdfrwt beam="1">0</pdfrwt>
<pdfrwt beam="2">0</pdfrwt>
<totfact> 0.19708071E+12</totfact>
</mgrwt>
</event>
<event>
 4    2  0.1060494E+006  0.2590327E+01  0.7546771E-02  0.2669999E+00
         22   -1    0    0    0    0  0.00000000000E+00  0.00000000000E+00  0.86870221174E+01  0.86870221174E+01  0.00000000000E+00 0. -1.
         22   -1    0    0    0    0 -0.00000000000E+00 -0.00000000000E+00 -0.17272825291E+01  0.17272825291E+01  0.00000000000E+00 0.  1.
          4    1    1    2  501    0 -0.59162571793E+00 -0.25218591852E+01 -0.39177197236E+00  0.26197862543E+01  0.00000000000E+00 0.  1.
         -4    1    1    2    0  501  0.59162571793E+00  0.25218591852E+01  0.73515115606E+01  0.77945183922E+01  0.00000000000E+00 0. -1.
<mgrwt>
<rscale>  0 0.25903271E+01</rscale>
<asrwt>0</asrwt>
<pdfrwt beam="1">0</pdfrwt>
<pdfrwt beam="2">0</pdfrwt>
<totfact> 0.10044253E+12</totfact>
</mgrwt>
</event>
<event>
 4    2  0.1060494E+006  0.2409709E+01  0.7546771E-02  0.2749726E+00
         22   -1    0    0    0    0  0.00000000000E+00  0.00000000000E+00  0.42771589095E+01  0.42771589095E+01  0.00000000000E+00 0. -1.
         22   -1    0    0    0    0 -0.00000000000E+00 -0.00000000000E+00 -0.20712142476E+01  0.20712142476E+01  0.00000000000E+00 0.  1.
          4    1    1    2  501    0  0.89467667295E+00 -0.22374653272E+01  0.29661308607E+01  0.38216004138E+01  0.00000000000E+00 0. -1.
         -4    1    1    2    0  501 -0.89467667295E+00  0.22374653272E+01 -0.76018619885E+00  0.25267727433E+01  0.00000000000E+00 0.  1.
<mgrwt>
<rscale>  0 0.24097090E+01</rscale>
<asrwt>0</asrwt>
<pdfrwt beam="1">0</pdfrwt>
<pdfrwt beam="2">0</pdfrwt>
<totfact> 0.18936845E+12</totfact>
</mgrwt>
</event>
<event>
 4    2  0.1060494E+006  0.2282633E+01  0.7546771E-02  0.2812879E+00
         22   -1    0    0    0    0  0.00000000000E+00  0.00000000000E+00  0.45155834064E+02  0.45155834064E+02  0.00000000000E+00 0. -1.
         22   -1    0    0    0    0 -0.00000000000E+00 -0.00000000000E+00 -0.12862545456E+00  0.12862545456E+00  0.00000000000E+00 0.  1.
          4    1    1    2  501    0 -0.34112189248E+00  0.22570003159E+01  0.15249740180E+02  0.15419630025E+02  0.00000000000E+00 0.  1.
         -4    1    1    2    0  501  0.34112189248E+00 -0.22570003159E+01  0.29777468430E+02  0.29864829494E+02  0.00000000000E+00 0. -1.
<mgrwt>
<rscale>  0 0.22826333E+01</rscale>
<asrwt>0</asrwt>
<pdfrwt beam="1">0</pdfrwt>
<pdfrwt beam="2">0</pdfrwt>
<totfact> 0.24060462E+12</totfact>
</mgrwt>
</event>
<event>
 4    2  0.1060494E+006  0.3285530E+01  0.7546771E-02  0.2438986E+00
         22   -1    0    0    0    0  0.00000000000E+00  0.00000000000E+00  0.74657188683E+01  0.74657188683E+01  0.00000000000E+00 0.  1.
         22   -1    0    0    0    0 -0.00000000000E+00 -0.00000000000E+00 -0.14473375661E+01  0.14473375661E+01  0.00000000000E+00 0. -1.
          4    1    1    2  501    0 -0.32637758925E+00 -0.32692785313E+01  0.31495009402E+01  0.45512702203E+01  0.00000000000E+00 0. -1.
         -4    1    1    2    0  501  0.32637758925E+00  0.32692785313E+01  0.28688803620E+01  0.43617862141E+01  0.00000000000E+00 0.  1.
<mgrwt>
<rscale>  0 0.32855296E+01</rscale>
<asrwt>0</asrwt>
<pdfrwt beam="1">0</pdfrwt>
<pdfrwt beam="2">0</pdfrwt>
<totfact> 0.14772410E+12</totfact>
</mgrwt>
</event>
<event>
 4    2  0.1060494E+006  0.4375960E+01  0.7546771E-02  0.2210716E+00
         22   -1    0    0    0    0  0.00000000000E+00  0.00000000000E+00  0.36826781700E+00  0.36826781700E+00  0.00000000000E+00 0.  1.
         22   -1    0    0    0    0 -0.00000000000E+00 -0.00000000000E+00 -0.80433146493E+02  0.80433146493E+02  0.00000000000E+00 0. -1.
          4    1    1    2  501    0  0.25375171172E+01 -0.35651126826E+01 -0.64054079909E+02  0.64203381332E+02  0.00000000000E+00 0. -1.
         -4    1    1    2    0  501 -0.25375171172E+01  0.35651126826E+01 -0.16010798767E+02  0.16598032978E+02  0.00000000000E+00 0.  1.
<mgrwt>
<rscale>  0 0.43759595E+01</rscale>
<asrwt>0</asrwt>
<pdfrwt beam="1">0</pdfrwt>
<pdfrwt beam="2">0</pdfrwt>
<totfact> 0.34289800E+11</totfact>
</mgrwt>
</event>
<event>
 4    2  0.1060494E+006  0.2861055E+01  0.7546771E-02  0.2567999E+00
         22   -1    0    0    0    0  0.00000000000E+00  0.00000000000E+00  0.21425569939E+00  0.21425569939E+00  0.00000000000E+00 0. -1.
         22   -1    0    0    0    0 -0.00000000000E+00 -0.00000000000E+00 -0.49866935425E+02  0.49866935425E+02  0.00000000000E+00 0.  1.
          4    1    1    2  501    0 -0.25179208326E+01 -0.13585701261E+01 -0.36935770043E+02  0.37046413413E+02  0.00000000000E+00 0.  1.
         -4    1    1    2    0  501  0.25179208326E+01  0.13585701261E+01 -0.12716909682E+02  0.13034777711E+02  0.00000000000E+00 0. -1.
<mgrwt>
<rscale>  0 0.28610554E+01</rscale>
<asrwt>0</asrwt>
<pdfrwt beam="1">0</pdfrwt>
<pdfrwt beam="2">0</pdfrwt>
<totfact> 0.11968096E+12</totfact>
</mgrwt>
</event>
<event>
 4    2  0.1060494E+006  0.2114241E+01  0.7546771E-02  0.2907662E+00
         22   -1    0    0    0    0  0.00000000000E+00  0.00000000000E+00  0.20938491052E+01  0.20938491052E+01  0.00000000000E+00 0.  1.
         22   -1    0    0    0    0 -0.00000000000E+00 -0.00000000000E+00 -0.24512135149E+01  0.24512135149E+01  0.00000000000E+00 0. -1.
          4    1    1    2  501    0  0.19093336689E+01  0.90799664611E+00 -0.99512520974E+00  0.23367257331E+01  0.00000000000E+00 0. -1.
         -4    1    1    2    0  501 -0.19093336689E+01 -0.90799664611E+00  0.63776080007E+00  0.22083368871E+01  0.00000000000E+00 0.  1.
<mgrwt>
<rscale>  0 0.21142405E+01</rscale>
<asrwt>0</asrwt>
<pdfrwt beam="1">0</pdfrwt>
<pdfrwt beam="2">0</pdfrwt>
<totfact> 0.35877033E+12</totfact>
</mgrwt>
</event>
<event>
 4    2  0.1060494E+006  0.2124371E+01  0.7546771E-02  0.2901552E+00
         22   -1    0    0    0    0  0.00000000000E+00  0.00000000000E+00  0.43040890632E+01  0.43040890632E+01  0.00000000000E+00 0. -1.
         22   -1    0    0    0    0 -0.00000000000E+00 -0.00000000000E+00 -0.11969138942E+01  0.11969138942E+01  0.00000000000E+00 0.  1.
          4    1    1    2  501    0 -0.20321194435E+01  0.61922685601E+00  0.58513364551E+00  0.22034819525E+01  0.00000000000E+00 0.  1.
         -4    1    1    2    0  501  0.20321194435E+01 -0.61922685601E+00  0.25220415235E+01  0.32975210050E+01  0.00000000000E+00 0. -1.
<mgrwt>
<rscale>  0 0.21243708E+01</rscale>
<asrwt>0</asrwt>
<pdfrwt beam="1">0</pdfrwt>
<pdfrwt beam="2">0</pdfrwt>
<totfact> 0.35350437E+12</totfact>
</mgrwt>
</event>
<event>
 4    2  0.1060494E+006  0.2163260E+01  0.7546771E-02  0.2878609E+00
         22   -1    0    0    0    0  0.00000000000E+00  0.00000000000E+00  0.42528538561E+01  0.42528538561E+01  0.00000000000E+00 0.  1.
         22   -1    0    0    0    0 -0.00000000000E+00 -0.00000000000E+00 -0.11229206942E+01  0.11229206942E+01  0.00000000000E+00 0. -1.
          4    1    1    2  501    0  0.14884837542E+01 -0.15697478750E+01  0.19459121470E+01  0.29096849248E+01  0.00000000000E+00 0. -1.
         -4    1    1    2    0  501 -0.14884837542E+01  0.15697478750E+01  0.11840210150E+01  0.24660896256E+01  0.00000000000E+00 0.  1.
<mgrwt>
<rscale>  0 0.21632596E+01</rscale>
<asrwt>0</asrwt>
<pdfrwt beam="1">0</pdfrwt>
<pdfrwt beam="2">0</pdfrwt>
<totfact> 0.38571132E+12</totfact>
</mgrwt>
</event>
<event>
 4    2  0.1060494E+006  0.2013030E+01  0.7546771E-02  0.2971986E+00
         22   -1    0    0    0    0  0.00000000000E+00  0.00000000000E+00  0.13717901725E+02  0.13717901725E+02  0.00000000000E+00 0.  1.
         22   -1    0    0    0    0 -0.00000000000E+00 -0.00000000000E+00 -0.34964338236E+00  0.34964338236E+00  0.00000000000E+00 0. -1.
          4    1    1    2  501    0  0.15610273879E+01 -0.12710170900E+01  0.39137296861E+01  0.44010874797E+01  0.00000000000E+00 0.  1.
         -4    1    1    2    0  501 -0.15610273879E+01  0.12710170900E+01  0.94545286564E+01  0.96664576274E+01  0.00000000000E+00 0. -1.
<mgrwt>
<rscale>  0 0.20130303E+01</rscale>
<asrwt>0</asrwt>
<pdfrwt beam="1">0</pdfrwt>
<pdfrwt beam="2">0</pdfrwt>
<totfact> 0.35480316E+12</totfact>
</mgrwt>
</event>
<event>
 4    2  0.1060494E+006  0.5411186E+01  0.7546771E-02  0.2076901E+00
         22   -1    0    0    0    0  0.00000000000E+00  0.00000000000E+00  0.14143349548E+02  0.14143349548E+02  0.00000000000E+00 0. -1.
         22   -1    0    0    0    0 -0.00000000000E+00 -0.00000000000E+00 -0.32039859228E+02  0.32039859228E+02  0.00000000000E+00 0.  1.
          4    1    1    2  501    0  0.12480059191E+01  0.52653030805E+01 -0.31281354697E+02  0.31745930243E+02  0.00000000000E+00 0.  1.
         -4    1    1    2    0  501 -0.12480059191E+01 -0.52653030805E+01  0.13384845018E+02  0.14437278533E+02  0.00000000000E+00 0. -1.
<mgrwt>
<rscale>  0 0.54111861E+01</rscale>
<asrwt>0</asrwt>
<pdfrwt beam="1">0</pdfrwt>
<pdfrwt beam="2">0</pdfrwt>
<totfact> 0.16483631E+10</totfact>
</mgrwt>
</event>
<event>
 4    2  0.1060494E+006  0.2433178E+01  0.7546771E-02  0.2738743E+00
         22   -1    0    0    0    0  0.00000000000E+00  0.00000000000E+00  0.37166623365E+00  0.37166623365E+00  0.00000000000E+00 0.  1.
         22   -1    0    0    0    0 -0.00000000000E+00 -0.00000000000E+00 -0.15929769544E+02  0.15929769544E+02  0.00000000000E+00 0. -1.
          4    1    1    2  501    0  0.23421678546E+01  0.65924467504E+00 -0.77312486763E+01  0.81050946877E+01  0.00000000000E+00 0. -1.
         -4    1    1    2    0  501 -0.23421678546E+01 -0.65924467504E+00 -0.78268546338E+01  0.81963410897E+01  0.00000000000E+00 0.  1.
<mgrwt>
<rscale>  0 0.24331777E+01</rscale>
<asrwt>0</asrwt>
<pdfrwt beam="1">0</pdfrwt>
<pdfrwt beam="2">0</pdfrwt>
<totfact> 0.27565416E+12</totfact>
</mgrwt>
</event>
<event>
 4    2  0.1060494E+006  0.2385803E+01  0.7546771E-02  0.2761122E+00
         22   -1    0    0    0    0  0.00000000000E+00  0.00000000000E+00  0.15215380936E+02  0.15215380936E+02  0.00000000000E+00 0.  1.
         22   -1    0    0    0    0 -0.00000000000E+00 -0.00000000000E+00 -0.13336406953E+01  0.13336406953E+01  0.00000000000E+00 0. -1.
          4    1    1    2  501    0  0.14041534192E+01  0.19288367376E+01 -0.77800241366E-01  0.23870716082E+01  0.00000000000E+00 0. -1.
         -4    1    1    2    0  501 -0.14041534192E+01 -0.19288367376E+01  0.13959540483E+02  0.14161950024E+02  0.00000000000E+00 0.  1.
<mgrwt>
<rscale>  0 0.23858034E+01</rscale>
<asrwt>0</asrwt>
<pdfrwt beam="1">0</pdfrwt>
<pdfrwt beam="2">0</pdfrwt>
<totfact> 0.68362465E+11</totfact>
</mgrwt>
</event>
<event>
 4    2  0.1060494E+006  0.3389119E+01  0.7546771E-02  0.2411888E+00
         22   -1    0    0    0    0  0.00000000000E+00  0.00000000000E+00  0.18789216772E+02  0.18789216772E+02  0.00000000000E+00 0.  1.
         22   -1    0    0    0    0 -0.00000000000E+00 -0.00000000000E+00 -0.23580555254E+01  0.23580555254E+01  0.00000000000E+00 0. -1.
          4    1    1    2  501    0 -0.33648187516E+01  0.40512063674E+00 -0.88484197169E+00  0.35027236940E+01  0.00000000000E+00 0. -1.
         -4    1    1    2    0  501  0.33648187516E+01 -0.40512063674E+00  0.17316003218E+02  0.17644548603E+02  0.00000000000E+00 0.  1.
<mgrwt>
<rscale>  0 0.33891191E+01</rscale>
<asrwt>0</asrwt>
<pdfrwt beam="1">0</pdfrwt>
<pdfrwt beam="2">0</pdfrwt>
<totfact> 0.27270231E+11</totfact>
</mgrwt>
</event>
<event>
 4    2  0.1060494E+006  0.3247922E+01  0.7546771E-02  0.2449200E+00
         22   -1    0    0    0    0  0.00000000000E+00  0.00000000000E+00  0.22309091183E+01  0.22309091183E+01  0.00000000000E+00 0.  1.
         22   -1    0    0    0    0 -0.00000000000E+00 -0.00000000000E+00 -0.50624698260E+01  0.50624698260E+01  0.00000000000E+00 0. -1.
          4    1    1    2  501    0  0.32145341417E+01 -0.46450656102E+00 -0.23523275959E+01  0.40102919110E+01  0.00000000000E+00 0.  1.
         -4    1    1    2    0  501 -0.32145341417E+01  0.46450656102E+00 -0.47923311176E+00  0.32830870334E+01  0.00000000000E+00 0. -1.
<mgrwt>
<rscale>  0 0.32479218E+01</rscale>
<asrwt>0</asrwt>
<pdfrwt beam="1">0</pdfrwt>
<pdfrwt beam="2">0</pdfrwt>
<totfact> 0.14237222E+12</totfact>
</mgrwt>
</event>
<event>
 4    2  0.1060494E+006  0.2510813E+01  0.7546771E-02  0.2703782E+00
         22   -1    0    0    0    0  0.00000000000E+00  0.00000000000E+00  0.18528982462E+01  0.18528982462E+01  0.00000000000E+00 0. -1.
         22   -1    0    0    0    0 -0.00000000000E+00 -0.00000000000E+00 -0.10575880541E+02  0.10575880541E+02  0.00000000000E+00 0.  1.
          4    1    1    2  501    0 -0.23699940950E+01 -0.82904044716E+00 -0.94795718793E+01  0.98064500757E+01  0.00000000000E+00 0.  1.
         -4    1    1    2    0  501  0.23699940950E+01  0.82904044716E+00  0.75658958422E+00  0.26223287117E+01  0.00000000000E+00 0. -1.
<mgrwt>
<rscale>  0 0.25108126E+01</rscale>
<asrwt>0</asrwt>
<pdfrwt beam="1">0</pdfrwt>
<pdfrwt beam="2">0</pdfrwt>
<totfact> 0.73013045E+11</totfact>
</mgrwt>
</event>
<event>
 4    2  0.1060494E+006  0.2132079E+01  0.7546771E-02  0.2896941E+00
         22   -1    0    0    0    0  0.00000000000E+00  0.00000000000E+00  0.32061447562E+01  0.32061447562E+01  0.00000000000E+00 0. -1.
         22   -1    0    0    0    0 -0.00000000000E+00 -0.00000000000E+00 -0.31019527122E+01  0.31019527122E+01  0.00000000000E+00 0.  1.
          4    1    1    2  501    0 -0.19539001726E+01  0.85324901665E+00 -0.22719141215E+01  0.31156626172E+01  0.00000000000E+00 0.  1.
         -4    1    1    2    0  501  0.19539001726E+01 -0.85324901665E+00  0.23761061655E+01  0.31924348512E+01  0.00000000000E+00 0. -1.
<mgrwt>
<rscale>  0 0.21320787E+01</rscale>
<asrwt>0</asrwt>
<pdfrwt beam="1">0</pdfrwt>
<pdfrwt beam="2">0</pdfrwt>
<totfact> 0.16602756E+12</totfact>
</mgrwt>
</event>
<event>
 4    2  0.1060494E+006  0.2150212E+01  0.7546771E-02  0.2886218E+00
         22   -1    0    0    0    0  0.00000000000E+00  0.00000000000E+00  0.72532089216E+00  0.72532089216E+00  0.00000000000E+00 0. -1.
         22   -1    0    0    0    0 -0.00000000000E+00 -0.00000000000E+00 -0.10748906296E+02  0.10748906296E+02  0.00000000000E+00 0.  1.
          4    1    1    2  501    0  0.16069647449E+01  0.14286621061E+01 -0.86717913455E+01  0.89343928862E+01  0.00000000000E+00 0.  1.
         -4    1    1    2    0  501 -0.16069647449E+01 -0.14286621061E+01 -0.13517940581E+01  0.25398343018E+01  0.00000000000E+00 0. -1.
<mgrwt>
<rscale>  0 0.21502119E+01</rscale>
<asrwt>0</asrwt>
<pdfrwt beam="1">0</pdfrwt>
<pdfrwt beam="2">0</pdfrwt>
<totfact> 0.20955484E+12</totfact>
</mgrwt>
</event>
<event>
 4    2  0.1060494E+006  0.2213083E+01  0.7546771E-02  0.2850351E+00
         22   -1    0    0    0    0  0.00000000000E+00  0.00000000000E+00  0.20871582887E+01  0.20871582887E+01  0.00000000000E+00 0. -1.
         22   -1    0    0    0    0 -0.00000000000E+00 -0.00000000000E+00 -0.44090174692E+01  0.44090174692E+01  0.00000000000E+00 0.  1.
          4    1    1    2  501    0  0.22112117365E+01  0.90981634142E-01 -0.33824212041E+01  0.40420920578E+01  0.00000000000E+00 0.  1.
         -4    1    1    2    0  501 -0.22112117365E+01 -0.90981634142E-01  0.10605620237E+01  0.24540837002E+01  0.00000000000E+00 0. -1.
<mgrwt>
<rscale>  0 0.22130827E+01</rscale>
<asrwt>0</asrwt>
<pdfrwt beam="1">0</pdfrwt>
<pdfrwt beam="2">0</pdfrwt>
<totfact> 0.18108639E+12</totfact>
</mgrwt>
</event>
<event>
 4    2  0.1060494E+006  0.3388380E+01  0.7546771E-02  0.2412076E+00
         22   -1    0    0    0    0  0.00000000000E+00  0.00000000000E+00  0.23599602315E+01  0.23599602315E+01  0.00000000000E+00 0.  1.
         22   -1    0    0    0    0 -0.00000000000E+00 -0.00000000000E+00 -0.89258037928E+01  0.89258037928E+01  0.00000000000E+00 0. -1.
          4    1    1    2  501    0 -0.18971989218E+00  0.33830640836E+01 -0.70890669681E+01  0.78572251279E+01  0.00000000000E+00 0. -1.
         -4    1    1    2    0  501  0.18971989218E+00 -0.33830640836E+01  0.52322340688E+00  0.34285388965E+01  0.00000000000E+00 0.  1.
<mgrwt>
<rscale>  0 0.33883796E+01</rscale>
<asrwt>0</asrwt>
<pdfrwt beam="1">0</pdfrwt>
<pdfrwt beam="2">0</pdfrwt>
<totfact> 0.67734957E+11</totfact>
</mgrwt>
</event>
<event>
 4    2  0.1060494E+006  0.2516800E+01  0.7546771E-02  0.2701169E+00
         22   -1    0    0    0    0  0.00000000000E+00  0.00000000000E+00  0.12145604680E+02  0.12145604680E+02  0.00000000000E+00 0. -1.
         22   -1    0    0    0    0 -0.00000000000E+00 -0.00000000000E+00 -0.57502332310E+00  0.57502332310E+00  0.00000000000E+00 0.  1.
          4    1    1    2  501    0 -0.15360917929E+01  0.19936662186E+01  0.77252399284E+01  0.81248763030E+01  0.00000000000E+00 0. -1.
         -4    1    1    2    0  501  0.15360917929E+01 -0.19936662186E+01  0.38453414283E+01  0.45957516999E+01  0.00000000000E+00 0.  1.
<mgrwt>
<rscale>  0 0.25168001E+01</rscale>
<asrwt>0</asrwt>
<pdfrwt beam="1">0</pdfrwt>
<pdfrwt beam="2">0</pdfrwt>
<totfact> 0.23500528E+12</totfact>
</mgrwt>
</event>
<event>
 4    2  0.1060494E+006  0.3297445E+01  0.7546771E-02  0.2435793E+00
         22   -1    0    0    0    0  0.00000000000E+00  0.00000000000E+00  0.24757162250E+02  0.24757162250E+02  0.00000000000E+00 0.  1.
         22   -1    0    0    0    0 -0.00000000000E+00 -0.00000000000E+00 -0.12388404125E+01  0.12388404125E+01  0.00000000000E+00 0. -1.
          4    1    1    2  501    0  0.50328599863E+00  0.32588106940E+01  0.13163245026E+01  0.35504723815E+01  0.00000000000E+00 0. -1.
         -4    1    1    2    0  501 -0.50328599863E+00 -0.32588106940E+01  0.22201997335E+02  0.22445530281E+02  0.00000000000E+00 0.  1.
<mgrwt>
<rscale>  0 0.32974451E+01</rscale>
<asrwt>0</asrwt>
<pdfrwt beam="1">0</pdfrwt>
<pdfrwt beam="2">0</pdfrwt>
<totfact> 0.40575306E+11</totfact>
</mgrwt>
</event>
<event>
 4    2  0.1060494E+006  0.3999128E+01  0.7546771E-02  0.2277461E+00
         22   -1    0    0    0    0  0.00000000000E+00  0.00000000000E+00  0.12836974490E+02  0.12836974490E+02  0.00000000000E+00 0.  1.
         22   -1    0    0    0    0 -0.00000000000E+00 -0.00000000000E+00 -0.21682701723E+01  0.21682701723E+01  0.00000000000E+00 0. -1.
          4    1    1    2  501    0 -0.38846949543E+01 -0.94982574998E+00  0.44085509991E+00  0.40233539568E+01  0.00000000000E+00 0. -1.
         -4    1    1    2    0  501  0.38846949543E+01  0.94982574998E+00  0.10227849218E+02  0.10981890705E+02  0.00000000000E+00 0.  1.
<mgrwt>
<rscale>  0 0.39991279E+01</rscale>
<asrwt>0</asrwt>
<pdfrwt beam="1">0</pdfrwt>
<pdfrwt beam="2">0</pdfrwt>
<totfact> 0.48074354E+11</totfact>
</mgrwt>
</event>
<event>
 4    2  0.1060494E+006  0.2198913E+01  0.7546771E-02  0.2858263E+00
         22   -1    0    0    0    0  0.00000000000E+00  0.00000000000E+00  0.38647017515E+02  0.38647017515E+02  0.00000000000E+00 0.  1.
         22   -1    0    0    0    0 -0.00000000000E+00 -0.00000000000E+00 -0.13622874886E+00  0.13622874886E+00  0.00000000000E+00 0. -1.
          4    1    1    2  501    0  0.77211380106E+00 -0.20588974523E+01  0.13716000931E+02  0.13891144660E+02  0.00000000000E+00 0. -1.
         -4    1    1    2    0  501 -0.77211380106E+00  0.20588974523E+01  0.24794787835E+02  0.24892101603E+02  0.00000000000E+00 0.  1.
<mgrwt>
<rscale>  0 0.21989130E+01</rscale>
<asrwt>0</asrwt>
<pdfrwt beam="1">0</pdfrwt>
<pdfrwt beam="2">0</pdfrwt>
<totfact> 0.27643965E+12</totfact>
</mgrwt>
</event>
<event>
 4    2  0.1060494E+006  0.2465039E+01  0.7546771E-02  0.2724147E+00
         22   -1    0    0    0    0  0.00000000000E+00  0.00000000000E+00  0.10440953157E+01  0.10440953157E+01  0.00000000000E+00 0. -1.
         22   -1    0    0    0    0 -0.00000000000E+00 -0.00000000000E+00 -0.12433400730E+02  0.12433400730E+02  0.00000000000E+00 0.  1.
          4    1    1    2  501    0 -0.27142615699E+00  0.24500500217E+01 -0.10609426232E+02  0.10892031135E+02  0.00000000000E+00 0.  1.
         -4    1    1    2    0  501  0.27142615699E+00 -0.24500500217E+01 -0.77987918255E+00  0.25854649112E+01  0.00000000000E+00 0. -1.
<mgrwt>
<rscale>  0 0.24650390E+01</rscale>
<asrwt>0</asrwt>
<pdfrwt beam="1">0</pdfrwt>
<pdfrwt beam="2">0</pdfrwt>
<totfact> 0.11590393E+12</totfact>
</mgrwt>
</event>
<event>
 4    2  0.1060494E+006  0.2647972E+01  0.7546771E-02  0.2646683E+00
         22   -1    0    0    0    0  0.00000000000E+00  0.00000000000E+00  0.17642312973E+00  0.17642312973E+00  0.00000000000E+00 0. -1.
         22   -1    0    0    0    0 -0.00000000000E+00 -0.00000000000E+00 -0.45510233419E+02  0.45510233419E+02  0.00000000000E+00 0.  1.
          4    1    1    2  501    0 -0.25095111374E+01  0.84504951298E+00 -0.30798060298E+02  0.30911685055E+02  0.00000000000E+00 0. -1.
         -4    1    1    2    0  501  0.25095111374E+01 -0.84504951298E+00 -0.14535749992E+02  0.14774971494E+02  0.00000000000E+00 0.  1.
<mgrwt>
<rscale>  0 0.26479718E+01</rscale>
<asrwt>0</asrwt>
<pdfrwt beam="1">0</pdfrwt>
<pdfrwt beam="2">0</pdfrwt>
<totfact> 0.16760660E+12</totfact>
</mgrwt>
</event>
<event>
 4    2  0.1060494E+006  0.2325070E+01  0.7546771E-02  0.2791064E+00
         22   -1    0    0    0    0  0.00000000000E+00  0.00000000000E+00  0.13830587982E+02  0.13830587982E+02  0.00000000000E+00 0. -1.
         22   -1    0    0    0    0 -0.00000000000E+00 -0.00000000000E+00 -0.40690136566E+00  0.40690136566E+00  0.00000000000E+00 0.  1.
          4    1    1    2  501    0  0.14826748028E+01 -0.17909842946E+01  0.52987968133E+01  0.57864667097E+01  0.00000000000E+00 0.  1.
         -4    1    1    2    0  501 -0.14826748028E+01  0.17909842946E+01  0.81248898026E+01  0.84510226375E+01  0.00000000000E+00 0. -1.
<mgrwt>
<rscale>  0 0.23250697E+01</rscale>
<asrwt>0</asrwt>
<pdfrwt beam="1">0</pdfrwt>
<pdfrwt beam="2">0</pdfrwt>
<totfact> 0.29620146E+12</totfact>
</mgrwt>
</event>
<event>
 4    2  0.1060494E+006  0.2612785E+01  0.7546771E-02  0.2660802E+00
         22   -1    0    0    0    0  0.00000000000E+00  0.00000000000E+00  0.52426487062E+01  0.52426487062E+01  0.00000000000E+00 0.  1.
         22   -1    0    0    0    0 -0.00000000000E+00 -0.00000000000E+00 -0.13414377775E+01  0.13414377775E+01  0.00000000000E+00 0. -1.
          4    1    1    2  501    0  0.15605340351E+01 -0.20955620679E+01  0.25140884915E+01  0.36259188902E+01  0.00000000000E+00 0. -1.
         -4    1    1    2    0  501 -0.15605340351E+01  0.20955620679E+01  0.13871224371E+01  0.29581675935E+01  0.00000000000E+00 0.  1.
<mgrwt>
<rscale>  0 0.26127853E+01</rscale>
<asrwt>0</asrwt>
<pdfrwt beam="1">0</pdfrwt>
<pdfrwt beam="2">0</pdfrwt>
<totfact> 0.24567124E+12</totfact>
</mgrwt>
</event>
<event>
 4    2  0.1060494E+006  0.2040998E+01  0.7546771E-02  0.2953589E+00
         22   -1    0    0    0    0  0.00000000000E+00  0.00000000000E+00  0.12596947842E+02  0.12596947842E+02  0.00000000000E+00 0.  1.
         22   -1    0    0    0    0 -0.00000000000E+00 -0.00000000000E+00 -0.12393882812E+01  0.12393882812E+01  0.00000000000E+00 0. -1.
          4    1    1    2  501    0  0.10216181066E+01  0.17669098201E+01 -0.24498047732E+00  0.20556481466E+01  0.00000000000E+00 0. -1.
         -4    1    1    2    0  501 -0.10216181066E+01 -0.17669098201E+01  0.11602540038E+02  0.11780687977E+02  0.00000000000E+00 0.  1.
<mgrwt>
<rscale>  0 0.20409983E+01</rscale>
<asrwt>0</asrwt>
<pdfrwt beam="1">0</pdfrwt>
<pdfrwt beam="2">0</pdfrwt>
<totfact> 0.93733024E+11</totfact>
</mgrwt>
</event>
<event>
 4    2  0.1060494E+006  0.2138265E+01  0.7546771E-02  0.2893263E+00
         22   -1    0    0    0    0  0.00000000000E+00  0.00000000000E+00  0.23469016409E+01  0.23469016409E+01  0.00000000000E+00 0.  1.
         22   -1    0    0    0    0 -0.00000000000E+00 -0.00000000000E+00 -0.22540332370E+01  0.22540332370E+01  0.00000000000E+00 0. -1.
          4    1    1    2  501    0  0.13461605496E+01  0.16613332658E+01 -0.80097976475E+00  0.22833626582E+01  0.00000000000E+00 0. -1.
         -4    1    1    2    0  501 -0.13461605496E+01 -0.16613332658E+01  0.89384816866E+00  0.23175722198E+01  0.00000000000E+00 0.  1.
<mgrwt>
<rscale>  0 0.21382648E+01</rscale>
<asrwt>0</asrwt>
<pdfrwt beam="1">0</pdfrwt>
<pdfrwt beam="2">0</pdfrwt>
<totfact> 0.34645295E+12</totfact>
</mgrwt>
</event>
<event>
 4    2  0.1060494E+006  0.2651611E+01  0.7546771E-02  0.2645242E+00
         22   -1    0    0    0    0  0.00000000000E+00  0.00000000000E+00  0.15780608085E+01  0.15780608085E+01  0.00000000000E+00 0.  1.
         22   -1    0    0    0    0 -0.00000000000E+00 -0.00000000000E+00 -0.95063433833E+01  0.95063433833E+01  0.00000000000E+00 0. -1.
          4    1    1    2  501    0 -0.26504658480E+01  0.77910443871E-01 -0.80039225597E+01  0.84317148665E+01  0.00000000000E+00 0. -1.
         -4    1    1    2    0  501  0.26504658480E+01 -0.77910443871E-01  0.75639984869E-01  0.26526893252E+01  0.00000000000E+00 0.  1.
<mgrwt>
<rscale>  0 0.26516107E+01</rscale>
<asrwt>0</asrwt>
<pdfrwt beam="1">0</pdfrwt>
<pdfrwt beam="2">0</pdfrwt>
<totfact> 0.99981957E+11</totfact>
</mgrwt>
</event>
<event>
 4    2  0.1060494E+006  0.2645421E+01  0.7546771E-02  0.2647695E+00
         22   -1    0    0    0    0  0.00000000000E+00  0.00000000000E+00  0.58157033929E+02  0.58157033929E+02  0.00000000000E+00 0.  1.
         22   -1    0    0    0    0 -0.00000000000E+00 -0.00000000000E+00 -0.20943387271E+00  0.20943387271E+00  0.00000000000E+00 0. -1.
          4    1    1    2  501    0 -0.17614259445E+00  0.26395501335E+01  0.99389602663E+01  0.10284997924E+02  0.00000000000E+00 0. -1.
         -4    1    1    2    0  501  0.17614259445E+00 -0.26395501335E+01  0.48008639789E+02  0.48081469877E+02  0.00000000000E+00 0.  1.
<mgrwt>
<rscale>  0 0.26454208E+01</rscale>
<asrwt>0</asrwt>
<pdfrwt beam="1">0</pdfrwt>
<pdfrwt beam="2">0</pdfrwt>
<totfact> 0.10010394E+12</totfact>
</mgrwt>
</event>
<event>
 4    2  0.1060494E+006  0.2034625E+01  0.7546771E-02  0.2957738E+00
         22   -1    0    0    0    0  0.00000000000E+00  0.00000000000E+00  0.80255960311E+01  0.80255960311E+01  0.00000000000E+00 0. -1.
         22   -1    0    0    0    0 -0.00000000000E+00 -0.00000000000E+00 -0.55913263464E+00  0.55913263464E+00  0.00000000000E+00 0.  1.
          4    1    1    2  501    0  0.15952268007E+01  0.12629134177E+01  0.49280077135E+01  0.53315062478E+01  0.00000000000E+00 0. -1.
         -4    1    1    2    0  501 -0.15952268007E+01 -0.12629134177E+01  0.25384556830E+01  0.32532224179E+01  0.00000000000E+00 0.  1.
<mgrwt>
<rscale>  0 0.20346250E+01</rscale>
<asrwt>0</asrwt>
<pdfrwt beam="1">0</pdfrwt>
<pdfrwt beam="2">0</pdfrwt>
<totfact> 0.40051936E+12</totfact>
</mgrwt>
</event>
<event>
 4    2  0.1060494E+006  0.2146729E+01  0.7546771E-02  0.2888264E+00
         22   -1    0    0    0    0  0.00000000000E+00  0.00000000000E+00  0.78249414733E+01  0.78249414733E+01  0.00000000000E+00 0. -1.
         22   -1    0    0    0    0 -0.00000000000E+00 -0.00000000000E+00 -0.99223655068E+00  0.99223655068E+00  0.00000000000E+00 0.  1.
          4    1    1    2  501    0 -0.17252039692E+01  0.12775437262E+01  0.60573014397E+00  0.22305505408E+01  0.00000000000E+00 0.  1.
         -4    1    1    2    0  501  0.17252039692E+01 -0.12775437262E+01  0.62269747786E+01  0.65866274831E+01  0.00000000000E+00 0. -1.
<mgrwt>
<rscale>  0 0.21467293E+01</rscale>
<asrwt>0</asrwt>
<pdfrwt beam="1">0</pdfrwt>
<pdfrwt beam="2">0</pdfrwt>
<totfact> 0.21517108E+12</totfact>
</mgrwt>
</event>
<event>
 4    2  0.1060494E+006  0.2159718E+01  0.7546771E-02  0.2880666E+00
         22   -1    0    0    0    0  0.00000000000E+00  0.00000000000E+00  0.17649383087E+02  0.17649383087E+02  0.00000000000E+00 0.  1.
         22   -1    0    0    0    0 -0.00000000000E+00 -0.00000000000E+00 -0.47335775669E+00  0.47335775669E+00  0.00000000000E+00 0. -1.
          4    1    1    2  501    0 -0.12314226197E+01 -0.17742549499E+01  0.25658448287E+01  0.33537951608E+01  0.00000000000E+00 0. -1.
         -4    1    1    2    0  501  0.12314226197E+01  0.17742549499E+01  0.14610180502E+02  0.14768945683E+02  0.00000000000E+00 0.  1.
<mgrwt>
<rscale>  0 0.21597181E+01</rscale>
<asrwt>0</asrwt>
<pdfrwt beam="1">0</pdfrwt>
<pdfrwt beam="2">0</pdfrwt>
<totfact> 0.18491648E+12</totfact>
</mgrwt>
</event>
<event>
 4    2  0.1060494E+006  0.3870614E+01  0.7546771E-02  0.2302731E+00
         22   -1    0    0    0    0  0.00000000000E+00  0.00000000000E+00  0.16933398398E+01  0.16933398398E+01  0.00000000000E+00 0. -1.
         22   -1    0    0    0    0 -0.00000000000E+00 -0.00000000000E+00 -0.28446974881E+02  0.28446974881E+02  0.00000000000E+00 0.  1.
          4    1    1    2  501    0  0.38651303757E+01  0.20595862198E+00 -0.25885831813E+02  0.26173611528E+02  0.00000000000E+00 0.  1.
         -4    1    1    2    0  501 -0.38651303757E+01 -0.20595862198E+00 -0.86780322807E+00  0.39667031926E+01  0.00000000000E+00 0. -1.
<mgrwt>
<rscale>  0 0.38706139E+01</rscale>
<asrwt>0</asrwt>
<pdfrwt beam="1">0</pdfrwt>
<pdfrwt beam="2">0</pdfrwt>
<totfact> 0.23759541E+11</totfact>
</mgrwt>
</event>
<event>
 4    2  0.1060494E+006  0.2135820E+01  0.7546771E-02  0.2894714E+00
         22   -1    0    0    0    0  0.00000000000E+00  0.00000000000E+00  0.21631850516E+00  0.21631850516E+00  0.00000000000E+00 0.  1.
         22   -1    0    0    0    0 -0.00000000000E+00 -0.00000000000E+00 -0.25216853965E+02  0.25216853965E+02  0.00000000000E+00 0. -1.
          4    1    1    2  501    0 -0.63613885896E+00 -0.20388853713E+01 -0.17645908560E+02  0.17774695921E+02  0.00000000000E+00 0.  1.
         -4    1    1    2    0  501  0.63613885896E+00  0.20388853713E+01 -0.73546268997E+01  0.76584765482E+01  0.00000000000E+00 0. -1.
<mgrwt>
<rscale>  0 0.21358198E+01</rscale>
<asrwt>0</asrwt>
<pdfrwt beam="1">0</pdfrwt>
<pdfrwt beam="2">0</pdfrwt>
<totfact> 0.28502742E+12</totfact>
</mgrwt>
</event>
<event>
 4    2  0.1060494E+006  0.2530652E+01  0.7546771E-02  0.2695169E+00
         22   -1    0    0    0    0  0.00000000000E+00  0.00000000000E+00  0.63995133430E+02  0.63995133430E+02  0.00000000000E+00 0.  1.
         22   -1    0    0    0    0 -0.00000000000E+00 -0.00000000000E+00 -0.11954185426E+00  0.11954185426E+00  0.00000000000E+00 0. -1.
          4    1    1    2  501    0 -0.13209124770E+00  0.25272020781E+01  0.44874847366E+02  0.44946146938E+02  0.00000000000E+00 0. -1.
         -4    1    1    2    0  501  0.13209124770E+00 -0.25272020781E+01  0.19000744209E+02  0.19168528346E+02  0.00000000000E+00 0.  1.
<mgrwt>
<rscale>  0 0.25306518E+01</rscale>
<asrwt>0</asrwt>
<pdfrwt beam="1">0</pdfrwt>
<pdfrwt beam="2">0</pdfrwt>
<totfact> 0.16432341E+12</totfact>
</mgrwt>
</event>
<event>
 4    2  0.1060494E+006  0.2069198E+01  0.7546771E-02  0.2935532E+00
         22   -1    0    0    0    0  0.00000000000E+00  0.00000000000E+00  0.13330211084E+01  0.13330211084E+01  0.00000000000E+00 0.  1.
         22   -1    0    0    0    0 -0.00000000000E+00 -0.00000000000E+00 -0.41119315238E+01  0.41119315238E+01  0.00000000000E+00 0. -1.
          4    1    1    2  501    0 -0.55672537726E+00 -0.19928963457E+01 -0.26631379286E+01  0.33725187349E+01  0.00000000000E+00 0. -1.
         -4    1    1    2    0  501  0.55672537726E+00  0.19928963457E+01 -0.11577248680E+00  0.20724338974E+01  0.00000000000E+00 0.  1.
<mgrwt>
<rscale>  0 0.20691977E+01</rscale>
<asrwt>0</asrwt>
<pdfrwt beam="1">0</pdfrwt>
<pdfrwt beam="2">0</pdfrwt>
<totfact> 0.32969981E+12</totfact>
</mgrwt>
</event>
<event>
 4    2  0.1060494E+006  0.8726750E+01  0.7546771E-02  0.1836983E+00
         22   -1    0    0    0    0  0.00000000000E+00  0.00000000000E+00  0.85232213480E+01  0.85232213480E+01  0.00000000000E+00 0.  1.
         22   -1    0    0    0    0 -0.00000000000E+00 -0.00000000000E+00 -0.90451743480E+01  0.90451743480E+01  0.00000000000E+00 0. -1.
          4    1    1    2  501    0  0.14401598971E+01  0.86070963870E+01 -0.12298329929E+01  0.88129823519E+01  0.00000000000E+00 0. -1.
         -4    1    1    2    0  501 -0.14401598971E+01 -0.86070963870E+01  0.70787999288E+00  0.87554133442E+01  0.00000000000E+00 0.  1.
<mgrwt>
<rscale>  0 0.87267502E+01</rscale>
<asrwt>0</asrwt>
<pdfrwt beam="1">0</pdfrwt>
<pdfrwt beam="2">0</pdfrwt>
<totfact> 0.14625111E+11</totfact>
</mgrwt>
</event>
<event>
 4    2  0.1060494E+006  0.3410199E+01  0.7546771E-02  0.2406551E+00
         22   -1    0    0    0    0  0.00000000000E+00  0.00000000000E+00  0.58177883764E+01  0.58177883764E+01  0.00000000000E+00 0. -1.
         22   -1    0    0    0    0 -0.00000000000E+00 -0.00000000000E+00 -0.29599010604E+01  0.29599010604E+01  0.00000000000E+00 0.  1.
          4    1    1    2  501    0 -0.12803722854E+01  0.31607124281E+01 -0.10717627845E+01  0.35746512709E+01  0.00000000000E+00 0.  1.
         -4    1    1    2    0  501  0.12803722854E+01 -0.31607124281E+01  0.39296501005E+01  0.52030381658E+01  0.00000000000E+00 0. -1.
<mgrwt>
<rscale>  0 0.34101989E+01</rscale>
<asrwt>0</asrwt>
<pdfrwt beam="1">0</pdfrwt>
<pdfrwt beam="2">0</pdfrwt>
<totfact> 0.86859906E+11</totfact>
</mgrwt>
</event>
<event>
 4    2  0.1060494E+006  0.2101905E+01  0.7546771E-02  0.2915180E+00
         22   -1    0    0    0    0  0.00000000000E+00  0.00000000000E+00  0.35341169448E+00  0.35341169448E+00  0.00000000000E+00 0.  1.
         22   -1    0    0    0    0 -0.00000000000E+00 -0.00000000000E+00 -0.26758388685E+02  0.26758388685E+02  0.00000000000E+00 0. -1.
          4    1    1    2  501    0  0.13254324910E+01 -0.16313283860E+01 -0.23097543347E+02  0.23192984117E+02  0.00000000000E+00 0. -1.
         -4    1    1    2    0  501 -0.13254324910E+01  0.16313283860E+01 -0.33074336432E+01  0.39188162620E+01  0.00000000000E+00 0.  1.
<mgrwt>
<rscale>  0 0.21019048E+01</rscale>
<asrwt>0</asrwt>
<pdfrwt beam="1">0</pdfrwt>
<pdfrwt beam="2">0</pdfrwt>
<totfact> 0.15258837E+12</totfact>
</mgrwt>
</event>
<event>
 4    2  0.1060494E+006  0.3101034E+01  0.7546771E-02  0.2491185E+00
         22   -1    0    0    0    0  0.00000000000E+00  0.00000000000E+00  0.51093177137E+00  0.51093177137E+00  0.00000000000E+00 0. -1.
         22   -1    0    0    0    0 -0.00000000000E+00 -0.00000000000E+00 -0.21834343565E+02  0.21834343565E+02  0.00000000000E+00 0.  1.
          4    1    1    2  501    0  0.29917751043E+01  0.81590035361E+00 -0.14812075049E+02  0.15133207819E+02  0.00000000000E+00 0.  1.
         -4    1    1    2    0  501 -0.29917751043E+01 -0.81590035361E+00 -0.65113367454E+01  0.72120675172E+01  0.00000000000E+00 0. -1.
<mgrwt>
<rscale>  0 0.31010340E+01</rscale>
<asrwt>0</asrwt>
<pdfrwt beam="1">0</pdfrwt>
<pdfrwt beam="2">0</pdfrwt>
<totfact> 0.13014358E+12</totfact>
</mgrwt>
</event>
<event>
 4    2  0.1060494E+006  0.2050921E+01  0.7546771E-02  0.2947180E+00
         22   -1    0    0    0    0  0.00000000000E+00  0.00000000000E+00  0.69899243739E+01  0.69899243739E+01  0.00000000000E+00 0. -1.
         22   -1    0    0    0    0 -0.00000000000E+00 -0.00000000000E+00 -0.97553204203E+00  0.97553204203E+00  0.00000000000E+00 0.  1.
          4    1    1    2  501    0 -0.79418917835E+00  0.18909101684E+01  0.54194270914E+00  0.21213155390E+01  0.00000000000E+00 0.  1.
         -4    1    1    2    0  501  0.79418917835E+00 -0.18909101684E+01  0.54724496227E+01  0.58441408769E+01  0.00000000000E+00 0. -1.
<mgrwt>
<rscale>  0 0.20509212E+01</rscale>
<asrwt>0</asrwt>
<pdfrwt beam="1">0</pdfrwt>
<pdfrwt beam="2">0</pdfrwt>
<totfact> 0.25114054E+12</totfact>
</mgrwt>
</event>
<event>
 4    2  0.1060494E+006  0.3467538E+01  0.7546771E-02  0.2392321E+00
         22   -1    0    0    0    0  0.00000000000E+00  0.00000000000E+00  0.56285302330E+01  0.56285302330E+01  0.00000000000E+00 0.  1.
         22   -1    0    0    0    0 -0.00000000000E+00 -0.00000000000E+00 -0.21467380931E+01  0.21467380931E+01  0.00000000000E+00 0. -1.
          4    1    1    2  501    0 -0.30174781686E+01  0.17084049490E+01  0.14688727293E+01  0.37658211671E+01  0.00000000000E+00 0. -1.
         -4    1    1    2    0  501  0.30174781686E+01 -0.17084049490E+01  0.20129194105E+01  0.40094471590E+01  0.00000000000E+00 0.  1.
<mgrwt>
<rscale>  0 0.34675383E+01</rscale>
<asrwt>0</asrwt>
<pdfrwt beam="1">0</pdfrwt>
<pdfrwt beam="2">0</pdfrwt>
<totfact> 0.13127759E+12</totfact>
</mgrwt>
</event>
<event>
 4    2  0.1060494E+006  0.3619405E+01  0.7546771E-02  0.2356540E+00
         22   -1    0    0    0    0  0.00000000000E+00  0.00000000000E+00  0.58066176391E+01  0.58066176391E+01  0.00000000000E+00 0. -1.
         22   -1    0    0    0    0 -0.00000000000E+00 -0.00000000000E+00 -0.24941021540E+01  0.24941021540E+01  0.00000000000E+00 0.  1.
          4    1    1    2  501    0  0.31986003861E+01 -0.16938270768E+01  0.29384493646E+01  0.46620359570E+01  0.00000000000E+00 0. -1.
         -4    1    1    2    0  501 -0.31986003861E+01  0.16938270768E+01  0.37406612047E+00  0.36386838360E+01  0.00000000000E+00 0.  1.
<mgrwt>
<rscale>  0 0.36194053E+01</rscale>
<asrwt>0</asrwt>
<pdfrwt beam="1">0</pdfrwt>
<pdfrwt beam="2">0</pdfrwt>
<totfact> 0.10628656E+12</totfact>
</mgrwt>
</event>
<event>
 4    2  0.1060494E+006  0.2147854E+01  0.7546771E-02  0.2887602E+00
         22   -1    0    0    0    0  0.00000000000E+00  0.00000000000E+00  0.31364744121E+02  0.31364744121E+02  0.00000000000E+00 0. -1.
         22   -1    0    0    0    0 -0.00000000000E+00 -0.00000000000E+00 -0.15449217273E+00  0.15449217273E+00  0.00000000000E+00 0.  1.
          4    1    1    2  501    0  0.16758188485E+01 -0.13434692509E+01  0.12154297996E+02  0.12342618774E+02  0.00000000000E+00 0. -1.
         -4    1    1    2    0  501 -0.16758188485E+01  0.13434692509E+01  0.19055953953E+02  0.19176617520E+02  0.00000000000E+00 0.  1.
<mgrwt>
<rscale>  0 0.21478544E+01</rscale>
<asrwt>0</asrwt>
<pdfrwt beam="1">0</pdfrwt>
<pdfrwt beam="2">0</pdfrwt>
<totfact> 0.31440494E+12</totfact>
</mgrwt>
</event>
<event>
 4    2  0.1060494E+006  0.2175428E+01  0.7546771E-02  0.2871593E+00
         22   -1    0    0    0    0  0.00000000000E+00  0.00000000000E+00  0.35817202414E+01  0.35817202414E+01  0.00000000000E+00 0. -1.
         22   -1    0    0    0    0 -0.00000000000E+00 -0.00000000000E+00 -0.23524131742E+01  0.23524131742E+01  0.00000000000E+00 0.  1.
          4    1    1    2  501    0  0.21735061159E+01  0.91412361504E-01 -0.13497293465E+01  0.25601278024E+01  0.00000000000E+00 0. -1.
         -4    1    1    2    0  501 -0.21735061159E+01 -0.91412361504E-01  0.25790364136E+01  0.33740056133E+01  0.00000000000E+00 0.  1.
<mgrwt>
<rscale>  0 0.21754276E+01</rscale>
<asrwt>0</asrwt>
<pdfrwt beam="1">0</pdfrwt>
<pdfrwt beam="2">0</pdfrwt>
<totfact> 0.20127677E+12</totfact>
</mgrwt>
</event>
<event>
 4    2  0.1060494E+006  0.2183415E+01  0.7546771E-02  0.2867028E+00
         22   -1    0    0    0    0  0.00000000000E+00  0.00000000000E+00  0.14386394245E+01  0.14386394245E+01  0.00000000000E+00 0. -1.
         22   -1    0    0    0    0 -0.00000000000E+00 -0.00000000000E+00 -0.77730928485E+01  0.77730928485E+01  0.00000000000E+00 0.  1.
          4    1    1    2  501    0  0.21594855016E+01  0.32237466672E+00 -0.66558126102E+01  0.70047943981E+01  0.00000000000E+00 0.  1.
         -4    1    1    2    0  501 -0.21594855016E+01 -0.32237466672E+00  0.32135918623E+00  0.22069378749E+01  0.00000000000E+00 0. -1.
<mgrwt>
<rscale>  0 0.21834155E+01</rscale>
<asrwt>0</asrwt>
<pdfrwt beam="1">0</pdfrwt>
<pdfrwt beam="2">0</pdfrwt>
<totfact> 0.14171434E+12</totfact>
</mgrwt>
</event>
<event>
 4    2  0.1060494E+006  0.2921673E+01  0.7546771E-02  0.2547527E+00
         22   -1    0    0    0    0  0.00000000000E+00  0.00000000000E+00  0.49427718366E+00  0.49427718366E+00  0.00000000000E+00 0. -1.
         22   -1    0    0    0    0 -0.00000000000E+00 -0.00000000000E+00 -0.33062049414E+02  0.33062049414E+02  0.00000000000E+00 0.  1.
          4    1    1    2  501    0 -0.26441026557E+00  0.29096841070E+01 -0.27879628867E+02  0.28032300658E+02  0.00000000000E+00 0.  1.
         -4    1    1    2    0  501  0.26441026557E+00 -0.29096841070E+01 -0.46881433628E+01  0.55240259396E+01  0.00000000000E+00 0. -1.
<mgrwt>
<rscale>  0 0.29216732E+01</rscale>
<asrwt>0</asrwt>
<pdfrwt beam="1">0</pdfrwt>
<pdfrwt beam="2">0</pdfrwt>
<totfact> 0.79880441E+11</totfact>
</mgrwt>
</event>
<event>
 4    2  0.1060494E+006  0.2431610E+01  0.7546771E-02  0.2739471E+00
         22   -1    0    0    0    0  0.00000000000E+00  0.00000000000E+00  0.48013741234E+01  0.48013741234E+01  0.00000000000E+00 0. -1.
         22   -1    0    0    0    0 -0.00000000000E+00 -0.00000000000E+00 -0.12380780212E+01  0.12380780212E+01  0.00000000000E+00 0.  1.
          4    1    1    2  501    0 -0.15192369901E+01 -0.18985906715E+01  0.15609643049E+01  0.28895219554E+01  0.00000000000E+00 0. -1.
         -4    1    1    2    0  501  0.15192369901E+01  0.18985906715E+01  0.20023317973E+01  0.31499301892E+01  0.00000000000E+00 0.  1.
<mgrwt>
<rscale>  0 0.24316101E+01</rscale>
<asrwt>0</asrwt>
<pdfrwt beam="1">0</pdfrwt>
<pdfrwt beam="2">0</pdfrwt>
<totfact> 0.29889253E+12</totfact>
</mgrwt>
</event>
<event>
 4    2  0.1060494E+006  0.2273344E+01  0.7546771E-02  0.2817757E+00
         22   -1    0    0    0    0  0.00000000000E+00  0.00000000000E+00  0.74107515596E+01  0.74107515596E+01  0.00000000000E+00 0.  1.
         22   -1    0    0    0    0 -0.00000000000E+00 -0.00000000000E+00 -0.78404059960E+00  0.78404059960E+00  0.00000000000E+00 0. -1.
          4    1    1    2  501    0 -0.14496434202E+01 -0.17511786621E+01  0.19511101686E+01  0.29958176917E+01  0.00000000000E+00 0. -1.
         -4    1    1    2    0  501  0.14496434202E+01  0.17511786621E+01  0.46756007914E+01  0.51989744674E+01  0.00000000000E+00 0.  1.
<mgrwt>
<rscale>  0 0.22733440E+01</rscale>
<asrwt>0</asrwt>
<pdfrwt beam="1">0</pdfrwt>
<pdfrwt beam="2">0</pdfrwt>
<totfact> 0.30037754E+12</totfact>
</mgrwt>
</event>
<event>
 4    2  0.1060494E+006  0.2283126E+01  0.7546771E-02  0.2812621E+00
         22   -1    0    0    0    0  0.00000000000E+00  0.00000000000E+00  0.20623354938E+02  0.20623354938E+02  0.00000000000E+00 0. -1.
         22   -1    0    0    0    0 -0.00000000000E+00 -0.00000000000E+00 -0.31385623292E+00  0.31385623292E+00  0.00000000000E+00 0.  1.
          4    1    1    2  501    0  0.16385189531E+01 -0.15899428791E+01  0.55357563835E+01  0.59880933073E+01  0.00000000000E+00 0.  1.
         -4    1    1    2    0  501 -0.16385189531E+01  0.15899428791E+01  0.14773742322E+02  0.14949117864E+02  0.00000000000E+00 0. -1.
<mgrwt>
<rscale>  0 0.22831256E+01</rscale>
<asrwt>0</asrwt>
<pdfrwt beam="1">0</pdfrwt>
<pdfrwt beam="2">0</pdfrwt>
<totfact> 0.24189186E+12</totfact>
</mgrwt>
</event>
<event>
 4    2  0.1060494E+006  0.2749452E+01  0.7546771E-02  0.2607822E+00
         22   -1    0    0    0    0  0.00000000000E+00  0.00000000000E+00  0.95579205720E+00  0.95579205720E+00  0.00000000000E+00 0. -1.
         22   -1    0    0    0    0 -0.00000000000E+00 -0.00000000000E+00 -0.93428820677E+01  0.93428820677E+01  0.00000000000E+00 0.  1.
          4    1    1    2  501    0 -0.27283212764E+01  0.34021925952E+00 -0.62107383181E+01  0.67921098775E+01  0.00000000000E+00 0.  1.
         -4    1    1    2    0  501  0.27283212764E+01 -0.34021925952E+00 -0.21763516924E+01  0.35065642474E+01  0.00000000000E+00 0. -1.
<mgrwt>
<rscale>  0 0.27494520E+01</rscale>
<asrwt>0</asrwt>
<pdfrwt beam="1">0</pdfrwt>
<pdfrwt beam="2">0</pdfrwt>
<totfact> 0.18140178E+12</totfact>
</mgrwt>
</event>
<event>
 4    2  0.1060494E+006  0.2712629E+01  0.7546771E-02  0.2621615E+00
         22   -1    0    0    0    0  0.00000000000E+00  0.00000000000E+00  0.23574998857E+02  0.23574998857E+02  0.00000000000E+00 0. -1.
         22   -1    0    0    0    0 -0.00000000000E+00 -0.00000000000E+00 -0.32111925627E+00  0.32111925627E+00  0.00000000000E+00 0.  1.
          4    1    1    2  501    0  0.19131852176E+01  0.19230388235E+01  0.96273675034E+01  0.10002227804E+02  0.00000000000E+00 0.  1.
         -4    1    1    2    0  501 -0.19131852176E+01 -0.19230388235E+01  0.13626512098E+02  0.13893890310E+02  0.00000000000E+00 0. -1.
<mgrwt>
<rscale>  0 0.27126290E+01</rscale>
<asrwt>0</asrwt>
<pdfrwt beam="1">0</pdfrwt>
<pdfrwt beam="2">0</pdfrwt>
<totfact> 0.19938627E+12</totfact>
</mgrwt>
</event>
<event>
 4    2  0.1060494E+006  0.8138629E+01  0.7546771E-02  0.1868375E+00
         22   -1    0    0    0    0  0.00000000000E+00  0.00000000000E+00  0.62486208048E+02  0.62486208048E+02  0.00000000000E+00 0.  1.
         22   -1    0    0    0    0 -0.00000000000E+00 -0.00000000000E+00 -0.11779630918E+01  0.11779630918E+01  0.00000000000E+00 0. -1.
          4    1    1    2  501    0 -0.44670001097E+01 -0.68031754556E+01  0.20582111824E+02  0.22132794975E+02  0.00000000000E+00 0. -1.
         -4    1    1    2    0  501  0.44670001097E+01  0.68031754556E+01  0.40726133132E+02  0.41531376165E+02  0.00000000000E+00 0.  1.
<mgrwt>
<rscale>  0 0.81386293E+01</rscale>
<asrwt>0</asrwt>
<pdfrwt beam="1">0</pdfrwt>
<pdfrwt beam="2">0</pdfrwt>
<totfact> 0.12923013E+11</totfact>
</mgrwt>
</event>
<event>
 4    2  0.1060494E+006  0.2286566E+01  0.7546771E-02  0.2810825E+00
         22   -1    0    0    0    0  0.00000000000E+00  0.00000000000E+00  0.31177608412E+01  0.31177608412E+01  0.00000000000E+00 0.  1.
         22   -1    0    0    0    0 -0.00000000000E+00 -0.00000000000E+00 -0.20708165850E+01  0.20708165850E+01  0.00000000000E+00 0. -1.
          4    1    1    2  501    0 -0.22289272110E+01 -0.51016294618E+00 -0.60791845968E+00  0.23659982242E+01  0.00000000000E+00 0. -1.
         -4    1    1    2    0  501  0.22289272110E+01  0.51016294618E+00  0.16548627159E+01  0.28225792020E+01  0.00000000000E+00 0.  1.
<mgrwt>
<rscale>  0 0.22865657E+01</rscale>
<asrwt>0</asrwt>
<pdfrwt beam="1">0</pdfrwt>
<pdfrwt beam="2">0</pdfrwt>
<totfact> 0.27453701E+12</totfact>
</mgrwt>
</event>
<event>
 4    2  0.1060494E+006  0.2288266E+01  0.7546771E-02  0.2809939E+00
         22   -1    0    0    0    0  0.00000000000E+00  0.00000000000E+00  0.12879970447E+02  0.12879970447E+02  0.00000000000E+00 0.  1.
         22   -1    0    0    0    0 -0.00000000000E+00 -0.00000000000E+00 -0.60449194900E+00  0.60449194900E+00  0.00000000000E+00 0. -1.
          4    1    1    2  501    0 -0.17075755631E+01  0.15232690194E+01  0.22794621648E+01  0.32298777949E+01  0.00000000000E+00 0. -1.
         -4    1    1    2    0  501  0.17075755631E+01 -0.15232690194E+01  0.99960163334E+01  0.10254584601E+02  0.00000000000E+00 0.  1.
<mgrwt>
<rscale>  0 0.22882663E+01</rscale>
<asrwt>0</asrwt>
<pdfrwt beam="1">0</pdfrwt>
<pdfrwt beam="2">0</pdfrwt>
<totfact> 0.20670735E+12</totfact>
</mgrwt>
</event>
<event>
 4    2  0.1060494E+006  0.2058151E+01  0.7546771E-02  0.2942548E+00
         22   -1    0    0    0    0  0.00000000000E+00  0.00000000000E+00  0.50564073582E+01  0.50564073582E+01  0.00000000000E+00 0. -1.
         22   -1    0    0    0    0 -0.00000000000E+00 -0.00000000000E+00 -0.10472598132E+01  0.10472598132E+01  0.00000000000E+00 0.  1.
          4    1    1    2  501    0 -0.20425992268E+01  0.25253737843E+00  0.63955189145E+00  0.21552293035E+01  0.00000000000E+00 0. -1.
         -4    1    1    2    0  501  0.20425992268E+01 -0.25253737843E+00  0.33695956535E+01  0.39484378679E+01  0.00000000000E+00 0.  1.
<mgrwt>
<rscale>  0 0.20581513E+01</rscale>
<asrwt>0</asrwt>
<pdfrwt beam="1">0</pdfrwt>
<pdfrwt beam="2">0</pdfrwt>
<totfact> 0.34048002E+12</totfact>
</mgrwt>
</event>
<event>
 4    2  0.1060494E+006  0.2175471E+01  0.7546771E-02  0.2871568E+00
         22   -1    0    0    0    0  0.00000000000E+00  0.00000000000E+00  0.10647411439E+02  0.10647411439E+02  0.00000000000E+00 0. -1.
         22   -1    0    0    0    0 -0.00000000000E+00 -0.00000000000E+00 -0.46595649918E+00  0.46595649918E+00  0.00000000000E+00 0.  1.
          4    1    1    2  501    0 -0.94693474175E-01 -0.21734095444E+01  0.62833857580E+01  0.66493317323E+01  0.00000000000E+00 0. -1.
         -4    1    1    2    0  501  0.94693474175E-01  0.21734095444E+01  0.38980691821E+01  0.44640362062E+01  0.00000000000E+00 0.  1.
<mgrwt>
<rscale>  0 0.21754714E+01</rscale>
<asrwt>0</asrwt>
<pdfrwt beam="1">0</pdfrwt>
<pdfrwt beam="2">0</pdfrwt>
<totfact> 0.34980520E+12</totfact>
</mgrwt>
</event>
<event>
 4    2  0.1060494E+006  0.2232541E+01  0.7546771E-02  0.2839643E+00
         22   -1    0    0    0    0  0.00000000000E+00  0.00000000000E+00  0.20046880394E+01  0.20046880394E+01  0.00000000000E+00 0. -1.
         22   -1    0    0    0    0 -0.00000000000E+00 -0.00000000000E+00 -0.25812615236E+01  0.25812615236E+01  0.00000000000E+00 0.  1.
          4    1    1    2  501    0 -0.22191297889E+01  0.24433803370E+00 -0.72810918756E+00  0.23482719356E+01  0.00000000000E+00 0.  1.
         -4    1    1    2    0  501  0.22191297889E+01 -0.24433803370E+00  0.15153570339E+00  0.22376776273E+01  0.00000000000E+00 0. -1.
<mgrwt>
<rscale>  0 0.22325407E+01</rscale>
<asrwt>0</asrwt>
<pdfrwt beam="1">0</pdfrwt>
<pdfrwt beam="2">0</pdfrwt>
<totfact> 0.35529970E+12</totfact>
</mgrwt>
</event>
<event>
 4    2  0.1060494E+006  0.2437756E+01  0.7546771E-02  0.2736624E+00
         22   -1    0    0    0    0  0.00000000000E+00  0.00000000000E+00  0.16218575563E+01  0.16218575563E+01  0.00000000000E+00 0. -1.
         22   -1    0    0    0    0 -0.00000000000E+00 -0.00000000000E+00 -0.37058133963E+01  0.37058133963E+01  0.00000000000E+00 0.  1.
          4    1    1    2  501    0 -0.12160628280E+01  0.21127812059E+01 -0.13245879032E+01  0.27743803523E+01  0.00000000000E+00 0. -1.
         -4    1    1    2    0  501  0.12160628280E+01 -0.21127812059E+01 -0.75936793682E+00  0.25532906002E+01  0.00000000000E+00 0.  1.
<mgrwt>
<rscale>  0 0.24377558E+01</rscale>
<asrwt>0</asrwt>
<pdfrwt beam="1">0</pdfrwt>
<pdfrwt beam="2">0</pdfrwt>
<totfact> 0.29736466E+12</totfact>
</mgrwt>
</event>
<event>
 4    2  0.1060494E+006  0.3022308E+01  0.7546771E-02  0.2515177E+00
         22   -1    0    0    0    0  0.00000000000E+00  0.00000000000E+00  0.62916835714E+01  0.62916835714E+01  0.00000000000E+00 0. -1.
         22   -1    0    0    0    0 -0.00000000000E+00 -0.00000000000E+00 -0.24649568155E+01  0.24649568155E+01  0.00000000000E+00 0.  1.
          4    1    1    2  501    0 -0.16910475058E+01  0.25049360245E+01 -0.89361116052E+00  0.31516483084E+01  0.00000000000E+00 0.  1.
         -4    1    1    2    0  501  0.16910475058E+01 -0.25049360245E+01  0.47203379165E+01  0.56049920785E+01  0.00000000000E+00 0. -1.
<mgrwt>
<rscale>  0 0.30223081E+01</rscale>
<asrwt>0</asrwt>
<pdfrwt beam="1">0</pdfrwt>
<pdfrwt beam="2">0</pdfrwt>
<totfact> 0.97932275E+11</totfact>
</mgrwt>
</event>
<event>
 4    2  0.1060494E+006  0.2628453E+01  0.7546771E-02  0.2654472E+00
         22   -1    0    0    0    0  0.00000000000E+00  0.00000000000E+00  0.94978316033E+01  0.94978316033E+01  0.00000000000E+00 0.  1.
         22   -1    0    0    0    0 -0.00000000000E+00 -0.00000000000E+00 -0.85392371585E+00  0.85392371585E+00  0.00000000000E+00 0. -1.
          4    1    1    2  501    0  0.22706602344E+01 -0.13239599311E+01  0.23296651787E+01  0.35122795510E+01  0.00000000000E+00 0. -1.
         -4    1    1    2    0  501 -0.22706602344E+01  0.13239599311E+01  0.63142427087E+01  0.68394757682E+01  0.00000000000E+00 0.  1.
<mgrwt>
<rscale>  0 0.26284535E+01</rscale>
<asrwt>0</asrwt>
<pdfrwt beam="1">0</pdfrwt>
<pdfrwt beam="2">0</pdfrwt>
<totfact> 0.20220944E+12</totfact>
</mgrwt>
</event>
<event>
 4    2  0.1060494E+006  0.2410127E+01  0.7546771E-02  0.2749529E+00
         22   -1    0    0    0    0  0.00000000000E+00  0.00000000000E+00  0.50125097705E+00  0.50125097705E+00  0.00000000000E+00 0. -1.
         22   -1    0    0    0    0 -0.00000000000E+00 -0.00000000000E+00 -0.11619289451E+02  0.11619289451E+02  0.00000000000E+00 0.  1.
          4    1    1    2  501    0 -0.43561688510E+00 -0.23704324777E+01 -0.52467052007E+01  0.57737879824E+01  0.00000000000E+00 0. -1.
         -4    1    1    2    0  501  0.43561688510E+00  0.23704324777E+01 -0.58713332735E+01  0.63467524460E+01  0.00000000000E+00 0.  1.
<mgrwt>
<rscale>  0 0.24101270E+01</rscale>
<asrwt>0</asrwt>
<pdfrwt beam="1">0</pdfrwt>
<pdfrwt beam="2">0</pdfrwt>
<totfact> 0.28968906E+12</totfact>
</mgrwt>
</event>
<event>
 4    2  0.1060494E+006  0.2675055E+01  0.7546771E-02  0.2636047E+00
         22   -1    0    0    0    0  0.00000000000E+00  0.00000000000E+00  0.87232893441E+00  0.87232893441E+00  0.00000000000E+00 0. -1.
         22   -1    0    0    0    0 -0.00000000000E+00 -0.00000000000E+00 -0.19962283903E+02  0.19962283903E+02  0.00000000000E+00 0.  1.
          4    1    1    2  501    0  0.13650783611E+01  0.23005396296E+01 -0.17540307144E+02  0.17743119687E+02  0.00000000000E+00 0.  1.
         -4    1    1    2    0  501 -0.13650783611E+01 -0.23005396296E+01 -0.15496478246E+01  0.30914931505E+01  0.00000000000E+00 0. -1.
<mgrwt>
<rscale>  0 0.26750554E+01</rscale>
<asrwt>0</asrwt>
<pdfrwt beam="1">0</pdfrwt>
<pdfrwt beam="2">0</pdfrwt>
<totfact> 0.79349492E+11</totfact>
</mgrwt>
</event>
<event>
 4    2  0.1060494E+006  0.6247003E+01  0.7546771E-02  0.1998220E+00
         22   -1    0    0    0    0  0.00000000000E+00  0.00000000000E+00  0.26546862720E+02  0.26546862720E+02  0.00000000000E+00 0.  1.
         22   -1    0    0    0    0 -0.00000000000E+00 -0.00000000000E+00 -0.19541750180E+01  0.19541750180E+01  0.00000000000E+00 0. -1.
          4    1    1    2  501    0 -0.38445147471E+01 -0.49238960809E+01  0.52033338481E+01  0.81301740075E+01  0.00000000000E+00 0. -1.
         -4    1    1    2    0  501  0.38445147471E+01  0.49238960809E+01  0.19389353854E+02  0.20370863730E+02  0.00000000000E+00 0.  1.
<mgrwt>
<rscale>  0 0.62470030E+01</rscale>
<asrwt>0</asrwt>
<pdfrwt beam="1">0</pdfrwt>
<pdfrwt beam="2">0</pdfrwt>
<totfact> 0.21980367E+11</totfact>
</mgrwt>
</event>
<event>
 4    2  0.1060494E+006  0.2313474E+01  0.7546771E-02  0.2796949E+00
         22   -1    0    0    0    0  0.00000000000E+00  0.00000000000E+00  0.82175547980E-01  0.82175547980E-01  0.00000000000E+00 0.  1.
         22   -1    0    0    0    0 -0.00000000000E+00 -0.00000000000E+00 -0.74554404922E+02  0.74554404922E+02  0.00000000000E+00 0. -1.
          4    1    1    2  501    0  0.14415447847E+01 -0.18094505617E+01 -0.50503722692E+02  0.50556682728E+02  0.00000000000E+00 0. -1.
         -4    1    1    2    0  501 -0.14415447847E+01  0.18094505617E+01 -0.23968506682E+02  0.24079897742E+02  0.00000000000E+00 0.  1.
<mgrwt>
<rscale>  0 0.23134742E+01</rscale>
<asrwt>0</asrwt>
<pdfrwt beam="1">0</pdfrwt>
<pdfrwt beam="2">0</pdfrwt>
<totfact> 0.20229019E+12</totfact>
</mgrwt>
</event>
<event>
 4    2  0.1060494E+006  0.3227304E+01  0.7546771E-02  0.2454889E+00
         22   -1    0    0    0    0  0.00000000000E+00  0.00000000000E+00  0.50997058225E+01  0.50997058225E+01  0.00000000000E+00 0. -1.
         22   -1    0    0    0    0 -0.00000000000E+00 -0.00000000000E+00 -0.20443947247E+01  0.20443947247E+01  0.00000000000E+00 0.  1.
          4    1    1    2  501    0  0.26494252321E+01 -0.18428334924E+01  0.14152593288E+01  0.35239818826E+01  0.00000000000E+00 0.  1.
         -4    1    1    2    0  501 -0.26494252321E+01  0.18428334924E+01  0.16400517690E+01  0.36201186646E+01  0.00000000000E+00 0. -1.
<mgrwt>
<rscale>  0 0.32273037E+01</rscale>
<asrwt>0</asrwt>
<pdfrwt beam="1">0</pdfrwt>
<pdfrwt beam="2">0</pdfrwt>
<totfact> 0.15617258E+12</totfact>
</mgrwt>
</event>
<event>
 4    2  0.1060494E+006  0.2402490E+01  0.7546771E-02  0.2753145E+00
         22   -1    0    0    0    0  0.00000000000E+00  0.00000000000E+00  0.68905510391E+01  0.68905510391E+01  0.00000000000E+00 0.  1.
         22   -1    0    0    0    0 -0.00000000000E+00 -0.00000000000E+00 -0.85429004089E+00  0.85429004089E+00  0.00000000000E+00 0. -1.
          4    1    1    2  501    0 -0.13268077793E+01  0.20028831924E+01  0.24778904990E+01  0.34513622369E+01  0.00000000000E+00 0.  1.
         -4    1    1    2    0  501  0.13268077793E+01 -0.20028831924E+01  0.35583704992E+01  0.42934788430E+01  0.00000000000E+00 0. -1.
<mgrwt>
<rscale>  0 0.24024904E+01</rscale>
<asrwt>0</asrwt>
<pdfrwt beam="1">0</pdfrwt>
<pdfrwt beam="2">0</pdfrwt>
<totfact> 0.29723324E+12</totfact>
</mgrwt>
</event>
<event>
 4    2  0.1060494E+006  0.2285488E+01  0.7546771E-02  0.2811387E+00
         22   -1    0    0    0    0  0.00000000000E+00  0.00000000000E+00  0.35605120002E+01  0.35605120002E+01  0.00000000000E+00 0.  1.
         22   -1    0    0    0    0 -0.00000000000E+00 -0.00000000000E+00 -0.23210908411E+01  0.23210908411E+01  0.00000000000E+00 0. -1.
          4    1    1    2  501    0 -0.96174618137E+00  0.20732823672E+01 -0.11641400914E+01  0.25648933007E+01  0.00000000000E+00 0. -1.
         -4    1    1    2    0  501  0.96174618137E+00 -0.20732823672E+01  0.24035612505E+01  0.33167095406E+01  0.00000000000E+00 0.  1.
<mgrwt>
<rscale>  0 0.22854880E+01</rscale>
<asrwt>0</asrwt>
<pdfrwt beam="1">0</pdfrwt>
<pdfrwt beam="2">0</pdfrwt>
<totfact> 0.20586841E+12</totfact>
</mgrwt>
</event>
<event>
 4    2  0.1060494E+006  0.2059269E+01  0.7546771E-02  0.2941835E+00
         22   -1    0    0    0    0  0.00000000000E+00  0.00000000000E+00  0.20605131038E+00  0.20605131038E+00  0.00000000000E+00 0. -1.
         22   -1    0    0    0    0 -0.00000000000E+00 -0.00000000000E+00 -0.21519718214E+02  0.21519718214E+02  0.00000000000E+00 0.  1.
          4    1    1    2  501    0 -0.19123065783E+01 -0.76398320241E+00 -0.83871321325E+01  0.86362359968E+01  0.00000000000E+00 0. -1.
         -4    1    1    2    0  501  0.19123065783E+01  0.76398320241E+00 -0.12926534771E+02  0.13089533528E+02  0.00000000000E+00 0.  1.
<mgrwt>
<rscale>  0 0.20592685E+01</rscale>
<asrwt>0</asrwt>
<pdfrwt beam="1">0</pdfrwt>
<pdfrwt beam="2">0</pdfrwt>
<totfact> 0.36726371E+12</totfact>
</mgrwt>
</event>
<event>
 4    2  0.1060494E+006  0.2267943E+01  0.7546771E-02  0.2820610E+00
         22   -1    0    0    0    0  0.00000000000E+00  0.00000000000E+00  0.92442894646E+00  0.92442894646E+00  0.00000000000E+00 0. -1.
         22   -1    0    0    0    0 -0.00000000000E+00 -0.00000000000E+00 -0.61457661416E+01  0.61457661416E+01  0.00000000000E+00 0.  1.
          4    1    1    2  501    0  0.19118006759E+01 -0.12200759111E+01 -0.36982698060E+01  0.43382907477E+01  0.00000000000E+00 0.  1.
         -4    1    1    2    0  501 -0.19118006759E+01  0.12200759111E+01 -0.15230673891E+01  0.27319043404E+01  0.00000000000E+00 0. -1.
<mgrwt>
<rscale>  0 0.22679434E+01</rscale>
<asrwt>0</asrwt>
<pdfrwt beam="1">0</pdfrwt>
<pdfrwt beam="2">0</pdfrwt>
<totfact> 0.31140241E+12</totfact>
</mgrwt>
</event>
<event>
 4    2  0.1060494E+006  0.2371278E+01  0.7546771E-02  0.2768151E+00
         22   -1    0    0    0    0  0.00000000000E+00  0.00000000000E+00  0.52395330159E+00  0.52395330159E+00  0.00000000000E+00 0.  1.
         22   -1    0    0    0    0 -0.00000000000E+00 -0.00000000000E+00 -0.10860446599E+02  0.10860446599E+02  0.00000000000E+00 0. -1.
          4    1    1    2  501    0 -0.87149300811E+00 -0.22053252415E+01 -0.57877785857E+01  0.62547054640E+01  0.00000000000E+00 0.  1.
         -4    1    1    2    0  501  0.87149300811E+00  0.22053252415E+01 -0.45487147115E+01  0.51296944364E+01  0.00000000000E+00 0. -1.
<mgrwt>
<rscale>  0 0.23712780E+01</rscale>
<asrwt>0</asrwt>
<pdfrwt beam="1">0</pdfrwt>
<pdfrwt beam="2">0</pdfrwt>
<totfact> 0.29913844E+12</totfact>
</mgrwt>
</event>
<event>
 4    2  0.1060494E+006  0.4524138E+01  0.7546771E-02  0.2187059E+00
         22   -1    0    0    0    0  0.00000000000E+00  0.00000000000E+00  0.59231123694E+01  0.59231123694E+01  0.00000000000E+00 0.  1.
         22   -1    0    0    0    0 -0.00000000000E+00 -0.00000000000E+00 -0.13441344438E+02  0.13441344438E+02  0.00000000000E+00 0. -1.
          4    1    1    2  501    0  0.13950403890E+01  0.43036827512E+01 -0.12104464987E+02  0.12922302254E+02  0.00000000000E+00 0. -1.
         -4    1    1    2    0  501 -0.13950403890E+01 -0.43036827512E+01  0.45862329186E+01  0.64421545537E+01  0.00000000000E+00 0.  1.
<mgrwt>
<rscale>  0 0.45241378E+01</rscale>
<asrwt>0</asrwt>
<pdfrwt beam="1">0</pdfrwt>
<pdfrwt beam="2">0</pdfrwt>
<totfact> 0.13969069E+11</totfact>
</mgrwt>
</event>
<event>
 4    2  0.1060494E+006  0.2964371E+01  0.7546771E-02  0.2533560E+00
         22   -1    0    0    0    0  0.00000000000E+00  0.00000000000E+00  0.90921088840E+00  0.90921088840E+00  0.00000000000E+00 0.  1.
         22   -1    0    0    0    0 -0.00000000000E+00 -0.00000000000E+00 -0.12996330215E+02  0.12996330215E+02  0.00000000000E+00 0. -1.
          4    1    1    2  501    0  0.29207641426E+01 -0.50659082831E+00 -0.95636857512E+01  0.10012571228E+02  0.00000000000E+00 0. -1.
         -4    1    1    2    0  501 -0.29207641426E+01  0.50659082831E+00 -0.25234335759E+01  0.38929698761E+01  0.00000000000E+00 0.  1.
<mgrwt>
<rscale>  0 0.29643713E+01</rscale>
<asrwt>0</asrwt>
<pdfrwt beam="1">0</pdfrwt>
<pdfrwt beam="2">0</pdfrwt>
<totfact> 0.12858161E+12</totfact>
</mgrwt>
</event>
<event>
 4    2  0.1060494E+006  0.2028926E+01  0.7546771E-02  0.2961469E+00
         22   -1    0    0    0    0  0.00000000000E+00  0.00000000000E+00  0.26056385914E+01  0.26056385914E+01  0.00000000000E+00 0. -1.
         22   -1    0    0    0    0 -0.00000000000E+00 -0.00000000000E+00 -0.22784283648E+01  0.22784283648E+01  0.00000000000E+00 0.  1.
          4    1    1    2  501    0  0.19177451397E+01  0.66241483341E+00 -0.11885885629E+01  0.23514426645E+01  0.00000000000E+00 0.  1.
         -4    1    1    2    0  501 -0.19177451397E+01 -0.66241483341E+00  0.15157987896E+01  0.25326242917E+01  0.00000000000E+00 0. -1.
<mgrwt>
<rscale>  0 0.20289258E+01</rscale>
<asrwt>0</asrwt>
<pdfrwt beam="1">0</pdfrwt>
<pdfrwt beam="2">0</pdfrwt>
<totfact> 0.30296050E+12</totfact>
</mgrwt>
</event>
<event>
 4    2  0.1060494E+006  0.2749148E+01  0.7546771E-02  0.2607935E+00
         22   -1    0    0    0    0  0.00000000000E+00  0.00000000000E+00  0.74155870091E+01  0.74155870091E+01  0.00000000000E+00 0.  1.
         22   -1    0    0    0    0 -0.00000000000E+00 -0.00000000000E+00 -0.18899739994E+01  0.18899739994E+01  0.00000000000E+00 0. -1.
          4    1    1    2  501    0  0.25050304100E+01  0.11325363800E+01 -0.39541386334E+00  0.27774391317E+01  0.00000000000E+00 0. -1.
         -4    1    1    2    0  501 -0.25050304100E+01 -0.11325363800E+01  0.59210268730E+01  0.65281218768E+01  0.00000000000E+00 0.  1.
<mgrwt>
<rscale>  0 0.27491482E+01</rscale>
<asrwt>0</asrwt>
<pdfrwt beam="1">0</pdfrwt>
<pdfrwt beam="2">0</pdfrwt>
<totfact> 0.10948349E+12</totfact>
</mgrwt>
</event>
<event>
 4    2  0.1060494E+006  0.3470838E+01  0.7546771E-02  0.2391515E+00
         22   -1    0    0    0    0  0.00000000000E+00  0.00000000000E+00  0.10957789408E+02  0.10957789408E+02  0.00000000000E+00 0.  1.
         22   -1    0    0    0    0 -0.00000000000E+00 -0.00000000000E+00 -0.17065927677E+01  0.17065927677E+01  0.00000000000E+00 0. -1.
          4    1    1    2  501    0 -0.33103692402E+01 -0.10431534158E+01  0.84847209227E+00  0.35730405045E+01  0.00000000000E+00 0. -1.
         -4    1    1    2    0  501  0.33103692402E+01  0.10431534158E+01  0.84027245485E+01  0.90913416718E+01  0.00000000000E+00 0.  1.
<mgrwt>
<rscale>  0 0.34708376E+01</rscale>
<asrwt>0</asrwt>
<pdfrwt beam="1">0</pdfrwt>
<pdfrwt beam="2">0</pdfrwt>
<totfact> 0.76904103E+11</totfact>
</mgrwt>
</event>
<event>
 4    2  0.1060494E+006  0.2928894E+01  0.7546771E-02  0.2545139E+00
         22   -1    0    0    0    0  0.00000000000E+00  0.00000000000E+00  0.50761585608E+01  0.50761585608E+01  0.00000000000E+00 0. -1.
         22   -1    0    0    0    0 -0.00000000000E+00 -0.00000000000E+00 -0.33764896708E+01  0.33764896708E+01  0.00000000000E+00 0.  1.
          4    1    1    2  501    0 -0.29071739862E+01  0.35603486542E+00 -0.21371241218E+01  0.36257028179E+01  0.00000000000E+00 0.  1.
         -4    1    1    2    0  501  0.29071739862E+01 -0.35603486542E+00  0.38367930118E+01  0.48269454137E+01  0.00000000000E+00 0. -1.
<mgrwt>
<rscale>  0 0.29288942E+01</rscale>
<asrwt>0</asrwt>
<pdfrwt beam="1">0</pdfrwt>
<pdfrwt beam="2">0</pdfrwt>
<totfact> 0.87541450E+11</totfact>
</mgrwt>
</event>
<event>
 4    2  0.1060494E+006  0.3102230E+01  0.7546771E-02  0.2490829E+00
         22   -1    0    0    0    0  0.00000000000E+00  0.00000000000E+00  0.15097349078E+02  0.15097349078E+02  0.00000000000E+00 0. -1.
         22   -1    0    0    0    0 -0.00000000000E+00 -0.00000000000E+00 -0.30643657598E+01  0.30643657598E+01  0.00000000000E+00 0.  1.
          4    1    1    2  501    0 -0.24948386557E+01 -0.18438032174E+01 -0.20648554084E+01  0.37265879944E+01  0.00000000000E+00 0.  1.
         -4    1    1    2    0  501  0.24948386557E+01  0.18438032174E+01  0.14097838726E+02  0.14435126843E+02  0.00000000000E+00 0. -1.
<mgrwt>
<rscale>  0 0.31022299E+01</rscale>
<asrwt>0</asrwt>
<pdfrwt beam="1">0</pdfrwt>
<pdfrwt beam="2">0</pdfrwt>
<totfact> 0.26340892E+11</totfact>
</mgrwt>
</event>
<event>
 4    2  0.1060494E+006  0.2275663E+01  0.7546771E-02  0.2816536E+00
         22   -1    0    0    0    0  0.00000000000E+00  0.00000000000E+00  0.36738044188E+02  0.36738044188E+02  0.00000000000E+00 0. -1.
         22   -1    0    0    0    0 -0.00000000000E+00 -0.00000000000E+00 -0.42527663810E+00  0.42527663810E+00  0.00000000000E+00 0.  1.
          4    1    1    2  501    0  0.19367651245E+01 -0.11948141085E+01  0.29631943012E+01  0.37361959756E+01  0.00000000000E+00 0.  1.
         -4    1    1    2    0  501 -0.19367651245E+01  0.11948141085E+01  0.33349573249E+02  0.33427124851E+02  0.00000000000E+00 0. -1.
<mgrwt>
<rscale>  0 0.22756625E+01</rscale>
<asrwt>0</asrwt>
<pdfrwt beam="1">0</pdfrwt>
<pdfrwt beam="2">0</pdfrwt>
<totfact> 0.82636761E+11</totfact>
</mgrwt>
</event>
<event>
 4    2  0.1060494E+006  0.2121470E+01  0.7546771E-02  0.2903296E+00
         22   -1    0    0    0    0  0.00000000000E+00  0.00000000000E+00  0.10969269217E+02  0.10969269217E+02  0.00000000000E+00 0.  1.
         22   -1    0    0    0    0 -0.00000000000E+00 -0.00000000000E+00 -0.43636294506E+00  0.43636294506E+00  0.00000000000E+00 0. -1.
          4    1    1    2  501    0  0.79232977350E+00 -0.19679557807E+01  0.38725944447E+01  0.44156114138E+01  0.00000000000E+00 0.  1.
         -4    1    1    2    0  501 -0.79232977350E+00  0.19679557807E+01  0.66603118273E+01  0.69900207483E+01  0.00000000000E+00 0. -1.
<mgrwt>
<rscale>  0 0.21214703E+01</rscale>
<asrwt>0</asrwt>
<pdfrwt beam="1">0</pdfrwt>
<pdfrwt beam="2">0</pdfrwt>
<totfact> 0.36328356E+12</totfact>
</mgrwt>
</event>
<event>
 4    2  0.1060494E+006  0.2785835E+01  0.7546771E-02  0.2594521E+00
         22   -1    0    0    0    0  0.00000000000E+00  0.00000000000E+00  0.93133999008E+01  0.93133999008E+01  0.00000000000E+00 0.  1.
         22   -1    0    0    0    0 -0.00000000000E+00 -0.00000000000E+00 -0.93684483498E+00  0.93684483498E+00  0.00000000000E+00 0. -1.
          4    1    1    2  501    0 -0.27842237074E+01 -0.94745130310E-01  0.24844342868E+01  0.37327325135E+01  0.00000000000E+00 0. -1.
         -4    1    1    2    0  501  0.27842237074E+01  0.94745130310E-01  0.58921207790E+01  0.65175122222E+01  0.00000000000E+00 0.  1.
<mgrwt>
<rscale>  0 0.27858353E+01</rscale>
<asrwt>0</asrwt>
<pdfrwt beam="1">0</pdfrwt>
<pdfrwt beam="2">0</pdfrwt>
<totfact> 0.18630333E+12</totfact>
</mgrwt>
</event>
<event>
 4    2  0.1060494E+006  0.2742174E+01  0.7546771E-02  0.2610522E+00
         22   -1    0    0    0    0  0.00000000000E+00  0.00000000000E+00  0.33560042253E+01  0.33560042253E+01  0.00000000000E+00 0. -1.
         22   -1    0    0    0    0 -0.00000000000E+00 -0.00000000000E+00 -0.32642899891E+01  0.32642899891E+01  0.00000000000E+00 0.  1.
          4    1    1    2  501    0  0.18354970186E+01 -0.20372696728E+01 -0.18078185352E+01  0.32844672142E+01  0.00000000000E+00 0.  1.
         -4    1    1    2    0  501 -0.18354970186E+01  0.20372696728E+01  0.18995327714E+01  0.33358270001E+01  0.00000000000E+00 0. -1.
<mgrwt>
<rscale>  0 0.27421738E+01</rscale>
<asrwt>0</asrwt>
<pdfrwt beam="1">0</pdfrwt>
<pdfrwt beam="2">0</pdfrwt>
<totfact> 0.14827440E+12</totfact>
</mgrwt>
</event>
<event>
 4    2  0.1060494E+006  0.2543914E+01  0.7546771E-02  0.2689481E+00
         22   -1    0    0    0    0  0.00000000000E+00  0.00000000000E+00  0.37055146512E+01  0.37055146512E+01  0.00000000000E+00 0. -1.
         22   -1    0    0    0    0 -0.00000000000E+00 -0.00000000000E+00 -0.18090533316E+01  0.18090533316E+01  0.00000000000E+00 0.  1.
          4    1    1    2  501    0 -0.20516214039E+01  0.15041108633E+01  0.43530908193E+00  0.25808901314E+01  0.00000000000E+00 0.  1.
         -4    1    1    2    0  501  0.20516214039E+01 -0.15041108633E+01  0.14611522376E+01  0.29336778513E+01  0.00000000000E+00 0. -1.
<mgrwt>
<rscale>  0 0.25439143E+01</rscale>
<asrwt>0</asrwt>
<pdfrwt beam="1">0</pdfrwt>
<pdfrwt beam="2">0</pdfrwt>
<totfact> 0.26218259E+12</totfact>
</mgrwt>
</event>
<event>
 4    2  0.1060494E+006  0.2686282E+01  0.7546771E-02  0.2631697E+00
         22   -1    0    0    0    0  0.00000000000E+00  0.00000000000E+00  0.11872289423E+02  0.11872289423E+02  0.00000000000E+00 0.  1.
         22   -1    0    0    0    0 -0.00000000000E+00 -0.00000000000E+00 -0.10270937000E+01  0.10270937000E+01  0.00000000000E+00 0. -1.
          4    1    1    2  501    0  0.25961594686E+01  0.68997465056E+00  0.13017427410E+01  0.29850700442E+01  0.00000000000E+00 0. -1.
         -4    1    1    2    0  501 -0.25961594686E+01 -0.68997465056E+00  0.95434529819E+01  0.99143130787E+01  0.00000000000E+00 0.  1.
<mgrwt>
<rscale>  0 0.26862816E+01</rscale>
<asrwt>0</asrwt>
<pdfrwt beam="1">0</pdfrwt>
<pdfrwt beam="2">0</pdfrwt>
<totfact> 0.12494484E+12</totfact>
</mgrwt>
</event>
<event>
 4    2  0.1060494E+006  0.2149144E+01  0.7546771E-02  0.2886844E+00
         22   -1    0    0    0    0  0.00000000000E+00  0.00000000000E+00  0.25712884717E+01  0.25712884717E+01  0.00000000000E+00 0. -1.
         22   -1    0    0    0    0 -0.00000000000E+00 -0.00000000000E+00 -0.18007927549E+01  0.18007927549E+01  0.00000000000E+00 0.  1.
          4    1    1    2  501    0  0.20600979301E+01 -0.61222374539E+00  0.27613312976E+00  0.21668112288E+01  0.00000000000E+00 0.  1.
         -4    1    1    2    0  501 -0.20600979301E+01  0.61222374539E+00  0.49436258704E+00  0.22052699978E+01  0.00000000000E+00 0. -1.
<mgrwt>
<rscale>  0 0.21491443E+01</rscale>
<asrwt>0</asrwt>
<pdfrwt beam="1">0</pdfrwt>
<pdfrwt beam="2">0</pdfrwt>
<totfact> 0.40402081E+12</totfact>
</mgrwt>
</event>
<event>
 4    2  0.1060494E+006  0.2125344E+01  0.7546771E-02  0.2900968E+00
         22   -1    0    0    0    0  0.00000000000E+00  0.00000000000E+00  0.68850710853E+01  0.68850710853E+01  0.00000000000E+00 0. -1.
         22   -1    0    0    0    0 -0.00000000000E+00 -0.00000000000E+00 -0.16259672779E+01  0.16259672779E+01  0.00000000000E+00 0.  1.
          4    1    1    2  501    0  0.19623610932E+01 -0.81622741599E+00 -0.65714407019E+00  0.22246183006E+01  0.00000000000E+00 0.  1.
         -4    1    1    2    0  501 -0.19623610932E+01  0.81622741599E+00  0.59162478775E+01  0.62864200625E+01  0.00000000000E+00 0. -1.
<mgrwt>
<rscale>  0 0.21253443E+01</rscale>
<asrwt>0</asrwt>
<pdfrwt beam="1">0</pdfrwt>
<pdfrwt beam="2">0</pdfrwt>
<totfact> 0.14233993E+12</totfact>
</mgrwt>
</event>
<event>
 4    2  0.1060494E+006  0.5164926E+01  0.7546771E-02  0.2103817E+00
         22   -1    0    0    0    0  0.00000000000E+00  0.00000000000E+00  0.24125972865E+02  0.24125972865E+02  0.00000000000E+00 0. -1.
         22   -1    0    0    0    0 -0.00000000000E+00 -0.00000000000E+00 -0.12009647344E+01  0.12009647344E+01  0.00000000000E+00 0.  1.
          4    1    1    2  501    0 -0.35458568157E+01  0.37554436999E+01  0.78961972640E+01  0.94353796517E+01  0.00000000000E+00 0.  1.
         -4    1    1    2    0  501  0.35458568157E+01 -0.37554436999E+01  0.15028810866E+02  0.15891557947E+02  0.00000000000E+00 0. -1.
<mgrwt>
<rscale>  0 0.51649257E+01</rscale>
<asrwt>0</asrwt>
<pdfrwt beam="1">0</pdfrwt>
<pdfrwt beam="2">0</pdfrwt>
<totfact> 0.43435921E+11</totfact>
</mgrwt>
</event>
<event>
 4    2  0.1060494E+006  0.2017978E+01  0.7546771E-02  0.2968695E+00
         22   -1    0    0    0    0  0.00000000000E+00  0.00000000000E+00  0.35799481278E+01  0.35799481278E+01  0.00000000000E+00 0. -1.
         22   -1    0    0    0    0 -0.00000000000E+00 -0.00000000000E+00 -0.22922732103E+01  0.22922732103E+01  0.00000000000E+00 0.  1.
          4    1    1    2  501    0  0.11549618559E+01 -0.16547800054E+01 -0.14401031410E+01  0.24791391271E+01  0.00000000000E+00 0.  1.
         -4    1    1    2    0  501 -0.11549618559E+01  0.16547800054E+01  0.27277780585E+01  0.33930822111E+01  0.00000000000E+00 0. -1.
<mgrwt>
<rscale>  0 0.20179776E+01</rscale>
<asrwt>0</asrwt>
<pdfrwt beam="1">0</pdfrwt>
<pdfrwt beam="2">0</pdfrwt>
<totfact> 0.20753280E+12</totfact>
</mgrwt>
</event>
<event>
 4    2  0.1060494E+006  0.2209678E+01  0.7546771E-02  0.2852243E+00
         22   -1    0    0    0    0  0.00000000000E+00  0.00000000000E+00  0.44148300709E+01  0.44148300709E+01  0.00000000000E+00 0.  1.
         22   -1    0    0    0    0 -0.00000000000E+00 -0.00000000000E+00 -0.16176002421E+01  0.16176002421E+01  0.00000000000E+00 0. -1.
          4    1    1    2  501    0  0.96004175674E+00  0.19902255437E+01 -0.29769040683E+00  0.22296406589E+01  0.00000000000E+00 0.  1.
         -4    1    1    2    0  501 -0.96004175674E+00 -0.19902255437E+01  0.30949202356E+01  0.38027896542E+01  0.00000000000E+00 0. -1.
<mgrwt>
<rscale>  0 0.22096782E+01</rscale>
<asrwt>0</asrwt>
<pdfrwt beam="1">0</pdfrwt>
<pdfrwt beam="2">0</pdfrwt>
<totfact> 0.24271417E+12</totfact>
</mgrwt>
</event>
<event>
 4    2  0.1060494E+006  0.2206689E+01  0.7546771E-02  0.2853909E+00
         22   -1    0    0    0    0  0.00000000000E+00  0.00000000000E+00  0.49740626401E+01  0.49740626401E+01  0.00000000000E+00 0.  1.
         22   -1    0    0    0    0 -0.00000000000E+00 -0.00000000000E+00 -0.10113189399E+01  0.10113189399E+01  0.00000000000E+00 0. -1.
          4    1    1    2  501    0 -0.21376583956E+01  0.54762533555E+00  0.14461640906E+01  0.26383455993E+01  0.00000000000E+00 0. -1.
         -4    1    1    2    0  501  0.21376583956E+01 -0.54762533555E+00  0.25165796096E+01  0.33470359807E+01  0.00000000000E+00 0.  1.
<mgrwt>
<rscale>  0 0.22066891E+01</rscale>
<asrwt>0</asrwt>
<pdfrwt beam="1">0</pdfrwt>
<pdfrwt beam="2">0</pdfrwt>
<totfact> 0.36130974E+12</totfact>
</mgrwt>
</event>
<event>
 4    2  0.1060494E+006  0.3901146E+01  0.7546771E-02  0.2296598E+00
         22   -1    0    0    0    0  0.00000000000E+00  0.00000000000E+00  0.98506161780E+00  0.98506161780E+00  0.00000000000E+00 0. -1.
         22   -1    0    0    0    0 -0.00000000000E+00 -0.00000000000E+00 -0.15747683487E+02  0.15747683487E+02  0.00000000000E+00 0.  1.
          4    1    1    2  501    0 -0.87237452315E+00  0.38023551038E+01 -0.62305133477E+01  0.73510705492E+01  0.00000000000E+00 0.  1.
         -4    1    1    2    0  501  0.87237452315E+00 -0.38023551038E+01 -0.85321085220E+01  0.93816745561E+01  0.00000000000E+00 0. -1.
<mgrwt>
<rscale>  0 0.39011462E+01</rscale>
<asrwt>0</asrwt>
<pdfrwt beam="1">0</pdfrwt>
<pdfrwt beam="2">0</pdfrwt>
<totfact> 0.92695593E+11</totfact>
</mgrwt>
</event>
<event>
 4    2  0.1060494E+006  0.2327724E+01  0.7546771E-02  0.2789725E+00
         22   -1    0    0    0    0  0.00000000000E+00  0.00000000000E+00  0.15666337672E+02  0.15666337672E+02  0.00000000000E+00 0. -1.
         22   -1    0    0    0    0 -0.00000000000E+00 -0.00000000000E+00 -0.37318154310E+00  0.37318154310E+00  0.00000000000E+00 0.  1.
          4    1    1    2  501    0 -0.11268265088E+01 -0.20368011026E+01  0.98167081083E+01  0.10088907513E+02  0.00000000000E+00 0. -1.
         -4    1    1    2    0  501  0.11268265088E+01  0.20368011026E+01  0.54764480201E+01  0.59506117021E+01  0.00000000000E+00 0.  1.
<mgrwt>
<rscale>  0 0.23277235E+01</rscale>
<asrwt>0</asrwt>
<pdfrwt beam="1">0</pdfrwt>
<pdfrwt beam="2">0</pdfrwt>
<totfact> 0.28009430E+12</totfact>
</mgrwt>
</event>
<event>
 4    2  0.1060494E+006  0.2076065E+01  0.7546771E-02  0.2931207E+00
         22   -1    0    0    0    0  0.00000000000E+00  0.00000000000E+00  0.11768289386E+01  0.11768289386E+01  0.00000000000E+00 0.  1.
         22   -1    0    0    0    0 -0.00000000000E+00 -0.00000000000E+00 -0.37088265782E+01  0.37088265782E+01  0.00000000000E+00 0. -1.
          4    1    1    2  501    0  0.17683437524E+01 -0.10876615835E+01 -0.99275996026E+00  0.23012213465E+01  0.00000000000E+00 0.  1.
         -4    1    1    2    0  501 -0.17683437524E+01  0.10876615835E+01 -0.15392376794E+01  0.25844341703E+01  0.00000000000E+00 0. -1.
<mgrwt>
<rscale>  0 0.20760654E+01</rscale>
<asrwt>0</asrwt>
<pdfrwt beam="1">0</pdfrwt>
<pdfrwt beam="2">0</pdfrwt>
<totfact> 0.42941476E+12</totfact>
</mgrwt>
</event>
<event>
 4    2  0.1060494E+006  0.2488705E+01  0.7546771E-02  0.2713531E+00
         22   -1    0    0    0    0  0.00000000000E+00  0.00000000000E+00  0.31028760333E+00  0.31028760333E+00  0.00000000000E+00 0. -1.
         22   -1    0    0    0    0 -0.00000000000E+00 -0.00000000000E+00 -0.24835016889E+02  0.24835016889E+02  0.00000000000E+00 0.  1.
          4    1    1    2  501    0 -0.21757051551E+01 -0.12082887803E+01 -0.17832139442E+02  0.18004967419E+02  0.00000000000E+00 0.  1.
         -4    1    1    2    0  501  0.21757051551E+01  0.12082887803E+01 -0.66925898444E+01  0.71403370735E+01  0.00000000000E+00 0. -1.
<mgrwt>
<rscale>  0 0.24887054E+01</rscale>
<asrwt>0</asrwt>
<pdfrwt beam="1">0</pdfrwt>
<pdfrwt beam="2">0</pdfrwt>
<totfact> 0.19405966E+12</totfact>
</mgrwt>
</event>
<event>
 4    2  0.1060494E+006  0.2540298E+01  0.7546771E-02  0.2691026E+00
         22   -1    0    0    0    0  0.00000000000E+00  0.00000000000E+00  0.18322996031E+01  0.18322996031E+01  0.00000000000E+00 0. -1.
         22   -1    0    0    0    0 -0.00000000000E+00 -0.00000000000E+00 -0.59265334443E+01  0.59265334443E+01  0.00000000000E+00 0.  1.
          4    1    1    2  501    0 -0.37705066921E-01 -0.25400182941E+01 -0.45182350527E+01  0.51833929619E+01  0.00000000000E+00 0.  1.
         -4    1    1    2    0  501  0.37705066921E-01  0.25400182941E+01  0.42400121147E+00  0.25754400854E+01  0.00000000000E+00 0. -1.
<mgrwt>
<rscale>  0 0.25402981E+01</rscale>
<asrwt>0</asrwt>
<pdfrwt beam="1">0</pdfrwt>
<pdfrwt beam="2">0</pdfrwt>
<totfact> 0.14829904E+12</totfact>
</mgrwt>
</event>
<event>
 4    2  0.1060494E+006  0.2886496E+01  0.7546771E-02  0.2559312E+00
         22   -1    0    0    0    0  0.00000000000E+00  0.00000000000E+00  0.51886455588E+02  0.51886455588E+02  0.00000000000E+00 0.  1.
         22   -1    0    0    0    0 -0.00000000000E+00 -0.00000000000E+00 -0.16275936142E+00  0.16275936142E+00  0.00000000000E+00 0. -1.
          4    1    1    2  501    0 -0.10981640073E+01  0.26694370763E+01  0.28874211912E+02  0.29018131781E+02  0.00000000000E+00 0.  1.
         -4    1    1    2    0  501  0.10981640073E+01 -0.26694370763E+01  0.22849484314E+02  0.23031083168E+02  0.00000000000E+00 0. -1.
<mgrwt>
<rscale>  0 0.28864959E+01</rscale>
<asrwt>0</asrwt>
<pdfrwt beam="1">0</pdfrwt>
<pdfrwt beam="2">0</pdfrwt>
<totfact> 0.15428777E+12</totfact>
</mgrwt>
</event>
<event>
 4    2  0.1060494E+006  0.2017532E+01  0.7546771E-02  0.2968991E+00
         22   -1    0    0    0    0  0.00000000000E+00  0.00000000000E+00  0.31547219721E+01  0.31547219721E+01  0.00000000000E+00 0. -1.
         22   -1    0    0    0    0 -0.00000000000E+00 -0.00000000000E+00 -0.17317286790E+01  0.17317286790E+01  0.00000000000E+00 0.  1.
          4    1    1    2  501    0  0.16792913172E+01  0.11182198313E+01 -0.52209069741E+00  0.20839898309E+01  0.00000000000E+00 0.  1.
         -4    1    1    2    0  501 -0.16792913172E+01 -0.11182198313E+01  0.19450839904E+01  0.28024608202E+01  0.00000000000E+00 0. -1.
<mgrwt>
<rscale>  0 0.20175319E+01</rscale>
<asrwt>0</asrwt>
<pdfrwt beam="1">0</pdfrwt>
<pdfrwt beam="2">0</pdfrwt>
<totfact> 0.33294602E+12</totfact>
</mgrwt>
</event>
<event>
 4    2  0.1060494E+006  0.2734425E+01  0.7546771E-02  0.2613410E+00
         22   -1    0    0    0    0  0.00000000000E+00  0.00000000000E+00  0.36607117448E+01  0.36607117448E+01  0.00000000000E+00 0. -1.
         22   -1    0    0    0    0 -0.00000000000E+00 -0.00000000000E+00 -0.20777304106E+01  0.20777304106E+01  0.00000000000E+00 0.  1.
          4    1    1    2  501    0 -0.22535895881E+01 -0.15486819305E+01  0.41798527864E+00  0.27661875292E+01  0.00000000000E+00 0. -1.
         -4    1    1    2    0  501  0.22535895881E+01  0.15486819305E+01  0.11649960556E+01  0.29722546262E+01  0.00000000000E+00 0.  1.
<mgrwt>
<rscale>  0 0.27344253E+01</rscale>
<asrwt>0</asrwt>
<pdfrwt beam="1">0</pdfrwt>
<pdfrwt beam="2">0</pdfrwt>
<totfact> 0.22659513E+12</totfact>
</mgrwt>
</event>
<event>
 4    2  0.1060494E+006  0.2314909E+01  0.7546771E-02  0.2796218E+00
         22   -1    0    0    0    0  0.00000000000E+00  0.00000000000E+00  0.10808292051E+01  0.10808292051E+01  0.00000000000E+00 0. -1.
         22   -1    0    0    0    0 -0.00000000000E+00 -0.00000000000E+00 -0.80013910479E+01  0.80013910479E+01  0.00000000000E+00 0.  1.
          4    1    1    2  501    0  0.29359255208E+00  0.22962161363E+01 -0.62609036251E+01  0.66751568771E+01  0.00000000000E+00 0.  1.
         -4    1    1    2    0  501 -0.29359255208E+00 -0.22962161363E+01 -0.65965821777E+00  0.24070633759E+01  0.00000000000E+00 0. -1.
<mgrwt>
<rscale>  0 0.23149093E+01</rscale>
<asrwt>0</asrwt>
<pdfrwt beam="1">0</pdfrwt>
<pdfrwt beam="2">0</pdfrwt>
<totfact> 0.18998799E+12</totfact>
</mgrwt>
</event>
<event>
 4    2  0.1060494E+006  0.2060069E+01  0.7546771E-02  0.2941324E+00
         22   -1    0    0    0    0  0.00000000000E+00  0.00000000000E+00  0.21985058311E+00  0.21985058311E+00  0.00000000000E+00 0. -1.
         22   -1    0    0    0    0 -0.00000000000E+00 -0.00000000000E+00 -0.23153949072E+02  0.23153949072E+02  0.00000000000E+00 0.  1.
          4    1    1    2  501    0  0.17169134330E+01 -0.11384615037E+01 -0.67011778122E+01  0.70106825918E+01  0.00000000000E+00 0. -1.
         -4    1    1    2    0  501 -0.17169134330E+01  0.11384615037E+01 -0.16232920676E+02  0.16363117063E+02  0.00000000000E+00 0.  1.
<mgrwt>
<rscale>  0 0.20600695E+01</rscale>
<asrwt>0</asrwt>
<pdfrwt beam="1">0</pdfrwt>
<pdfrwt beam="2">0</pdfrwt>
<totfact> 0.31166649E+12</totfact>
</mgrwt>
</event>
<event>
 4    2  0.1060494E+006  0.2858933E+01  0.7546771E-02  0.2568730E+00
         22   -1    0    0    0    0  0.00000000000E+00  0.00000000000E+00  0.16003966206E+02  0.16003966206E+02  0.00000000000E+00 0.  1.
         22   -1    0    0    0    0 -0.00000000000E+00 -0.00000000000E+00 -0.53185353783E+00  0.53185353783E+00  0.00000000000E+00 0. -1.
          4    1    1    2  501    0  0.28208758522E+01  0.46492633495E+00  0.93842831611E+01  0.98101104743E+01  0.00000000000E+00 0.  1.
         -4    1    1    2    0  501 -0.28208758522E+01 -0.46492633495E+00  0.60878295070E+01  0.67257092694E+01  0.00000000000E+00 0. -1.
<mgrwt>
<rscale>  0 0.28589329E+01</rscale>
<asrwt>0</asrwt>
<pdfrwt beam="1">0</pdfrwt>
<pdfrwt beam="2">0</pdfrwt>
<totfact> 0.18299051E+12</totfact>
</mgrwt>
</event>
<event>
 4    2  0.1060494E+006  0.2160887E+01  0.7546771E-02  0.2879987E+00
         22   -1    0    0    0    0  0.00000000000E+00  0.00000000000E+00  0.38925712733E+00  0.38925712733E+00  0.00000000000E+00 0.  1.
         22   -1    0    0    0    0 -0.00000000000E+00 -0.00000000000E+00 -0.61405360917E+02  0.61405360917E+02  0.00000000000E+00 0. -1.
          4    1    1    2  501    0  0.20716838421E+01  0.61445716529E+00 -0.58223584274E+02  0.58263669617E+02  0.00000000000E+00 0. -1.
         -4    1    1    2    0  501 -0.20716838421E+01 -0.61445716529E+00 -0.27925195156E+01  0.35309484271E+01  0.00000000000E+00 0.  1.
<mgrwt>
<rscale>  0 0.21608868E+01</rscale>
<asrwt>0</asrwt>
<pdfrwt beam="1">0</pdfrwt>
<pdfrwt beam="2">0</pdfrwt>
<totfact> 0.46471731E+11</totfact>
</mgrwt>
</event>
<event>
 4    2  0.1060494E+006  0.2490170E+01  0.7546771E-02  0.2712880E+00
         22   -1    0    0    0    0  0.00000000000E+00  0.00000000000E+00  0.45378265259E+00  0.45378265259E+00  0.00000000000E+00 0. -1.
         22   -1    0    0    0    0 -0.00000000000E+00 -0.00000000000E+00 -0.13719875955E+02  0.13719875955E+02  0.00000000000E+00 0.  1.
          4    1    1    2  501    0 -0.21480521522E+01 -0.12596902986E+01 -0.61849204490E+01  0.66673974426E+01  0.00000000000E+00 0. -1.
         -4    1    1    2    0  501  0.21480521522E+01  0.12596902986E+01 -0.70811728532E+01  0.75062611648E+01  0.00000000000E+00 0.  1.
<mgrwt>
<rscale>  0 0.24901702E+01</rscale>
<asrwt>0</asrwt>
<pdfrwt beam="1">0</pdfrwt>
<pdfrwt beam="2">0</pdfrwt>
<totfact> 0.26455321E+12</totfact>
</mgrwt>
</event>
<event>
 4    2  0.1060494E+006  0.2329048E+01  0.7546771E-02  0.2789058E+00
         22   -1    0    0    0    0  0.00000000000E+00  0.00000000000E+00  0.29738001630E+01  0.29738001630E+01  0.00000000000E+00 0. -1.
         22   -1    0    0    0    0 -0.00000000000E+00 -0.00000000000E+00 -0.38615475327E+01  0.38615475327E+01  0.00000000000E+00 0.  1.
          4    1    1    2  501    0 -0.83639603173E+00  0.21736845958E+01 -0.29264052670E+01  0.37400950297E+01  0.00000000000E+00 0.  1.
         -4    1    1    2    0  501  0.83639603173E+00 -0.21736845958E+01  0.20386578973E+01  0.30952526660E+01  0.00000000000E+00 0. -1.
<mgrwt>
<rscale>  0 0.23290477E+01</rscale>
<asrwt>0</asrwt>
<pdfrwt beam="1">0</pdfrwt>
<pdfrwt beam="2">0</pdfrwt>
<totfact> 0.14023869E+12</totfact>
</mgrwt>
</event>
<event>
 4    2  0.1060494E+006  0.2818849E+01  0.7546771E-02  0.2582723E+00
         22   -1    0    0    0    0  0.00000000000E+00  0.00000000000E+00  0.24902586856E+01  0.24902586856E+01  0.00000000000E+00 0.  1.
         22   -1    0    0    0    0 -0.00000000000E+00 -0.00000000000E+00 -0.13733596093E+02  0.13733596093E+02  0.00000000000E+00 0. -1.
          4    1    1    2  501    0 -0.25469236694E+01 -0.12079267231E+01 -0.12729054789E+02  0.13037436212E+02  0.00000000000E+00 0. -1.
         -4    1    1    2    0  501  0.25469236694E+01  0.12079267231E+01  0.14857173817E+01  0.31864185670E+01  0.00000000000E+00 0.  1.
<mgrwt>
<rscale>  0 0.28188485E+01</rscale>
<asrwt>0</asrwt>
<pdfrwt beam="1">0</pdfrwt>
<pdfrwt beam="2">0</pdfrwt>
<totfact> 0.37686074E+11</totfact>
</mgrwt>
</event>
<event>
 4    2  0.1060494E+006  0.2264965E+01  0.7546771E-02  0.2822190E+00
         22   -1    0    0    0    0  0.00000000000E+00  0.00000000000E+00  0.20352171111E+02  0.20352171111E+02  0.00000000000E+00 0.  1.
         22   -1    0    0    0    0 -0.00000000000E+00 -0.00000000000E+00 -0.25773476845E+00  0.25773476845E+00  0.00000000000E+00 0. -1.
          4    1    1    2  501    0  0.91351278584E+00 -0.20725734510E+01  0.85187756310E+01  0.88147379185E+01  0.00000000000E+00 0.  1.
         -4    1    1    2    0  501 -0.91351278584E+00  0.20725734510E+01  0.11575660712E+02  0.11795167961E+02  0.00000000000E+00 0. -1.
<mgrwt>
<rscale>  0 0.22649650E+01</rscale>
<asrwt>0</asrwt>
<pdfrwt beam="1">0</pdfrwt>
<pdfrwt beam="2">0</pdfrwt>
<totfact> 0.30666285E+12</totfact>
</mgrwt>
</event>
<event>
 4    2  0.1060494E+006  0.2775746E+01  0.7546771E-02  0.2598178E+00
         22   -1    0    0    0    0  0.00000000000E+00  0.00000000000E+00  0.95197938862E+01  0.95197938862E+01  0.00000000000E+00 0.  1.
         22   -1    0    0    0    0 -0.00000000000E+00 -0.00000000000E+00 -0.17826165974E+01  0.17826165974E+01  0.00000000000E+00 0. -1.
          4    1    1    2  501    0  0.26046299851E+00 -0.27634987183E+01 -0.30711692967E+00  0.27926845414E+01  0.00000000000E+00 0. -1.
         -4    1    1    2    0  501 -0.26046299851E+00  0.27634987183E+01  0.80442942185E+01  0.85097259423E+01  0.00000000000E+00 0.  1.
<mgrwt>
<rscale>  0 0.27757461E+01</rscale>
<asrwt>0</asrwt>
<pdfrwt beam="1">0</pdfrwt>
<pdfrwt beam="2">0</pdfrwt>
<totfact> 0.86723661E+11</totfact>
</mgrwt>
</event>
<event>
 4    2  0.1060494E+006  0.2429725E+01  0.7546771E-02  0.2740347E+00
         22   -1    0    0    0    0  0.00000000000E+00  0.00000000000E+00  0.45074593850E+01  0.45074593850E+01  0.00000000000E+00 0.  1.
         22   -1    0    0    0    0 -0.00000000000E+00 -0.00000000000E+00 -0.15216684723E+01  0.15216684723E+01  0.00000000000E+00 0. -1.
          4    1    1    2  501    0  0.15361298124E+01 -0.18825168242E+01  0.36785745702E+00  0.24574139868E+01  0.00000000000E+00 0. -1.
         -4    1    1    2    0  501 -0.15361298124E+01  0.18825168242E+01  0.26179334557E+01  0.35717138705E+01  0.00000000000E+00 0.  1.
<mgrwt>
<rscale>  0 0.24297252E+01</rscale>
<asrwt>0</asrwt>
<pdfrwt beam="1">0</pdfrwt>
<pdfrwt beam="2">0</pdfrwt>
<totfact> 0.25412260E+12</totfact>
</mgrwt>
</event>
<event>
 4    2  0.1060494E+006  0.2266197E+01  0.7546771E-02  0.2821536E+00
         22   -1    0    0    0    0  0.00000000000E+00  0.00000000000E+00  0.43548708837E+02  0.43548708837E+02  0.00000000000E+00 0. -1.
         22   -1    0    0    0    0 -0.00000000000E+00 -0.00000000000E+00 -0.75947088290E+00  0.75947088290E+00  0.00000000000E+00 0.  1.
          4    1    1    2  501    0 -0.22199275570E+01 -0.45560116897E+00  0.10330662098E+01  0.24905574833E+01  0.00000000000E+00 0.  1.
         -4    1    1    2    0  501  0.22199275570E+01  0.45560116897E+00  0.41756171745E+02  0.41817622237E+02  0.00000000000E+00 0. -1.
<mgrwt>
<rscale>  0 0.22661974E+01</rscale>
<asrwt>0</asrwt>
<pdfrwt beam="1">0</pdfrwt>
<pdfrwt beam="2">0</pdfrwt>
<totfact> 0.34384178E+11</totfact>
</mgrwt>
</event>
<event>
 4    2  0.1060494E+006  0.2978964E+01  0.7546771E-02  0.2528870E+00
         22   -1    0    0    0    0  0.00000000000E+00  0.00000000000E+00  0.17601157571E+02  0.17601157571E+02  0.00000000000E+00 0. -1.
         22   -1    0    0    0    0 -0.00000000000E+00 -0.00000000000E+00 -0.12006823892E+01  0.12006823892E+01  0.00000000000E+00 0.  1.
          4    1    1    2  501    0 -0.12995463992E+01 -0.26805602926E+01  0.10401835012E+01  0.31553456296E+01  0.00000000000E+00 0.  1.
         -4    1    1    2    0  501  0.12995463992E+01  0.26805602926E+01  0.15360291681E+02  0.15646494331E+02  0.00000000000E+00 0. -1.
<mgrwt>
<rscale>  0 0.29789636E+01</rscale>
<asrwt>0</asrwt>
<pdfrwt beam="1">0</pdfrwt>
<pdfrwt beam="2">0</pdfrwt>
<totfact> 0.64416325E+11</totfact>
</mgrwt>
</event>
<event>
 4    2  0.1060494E+006  0.2072695E+01  0.7546771E-02  0.2933326E+00
         22   -1    0    0    0    0  0.00000000000E+00  0.00000000000E+00  0.17341489719E+00  0.17341489719E+00  0.00000000000E+00 0.  1.
         22   -1    0    0    0    0 -0.00000000000E+00 -0.00000000000E+00 -0.26198565825E+02  0.26198565825E+02  0.00000000000E+00 0. -1.
          4    1    1    2  501    0  0.50440873912E+00  0.20103821971E+01 -0.16088085258E+02  0.16221052741E+02  0.00000000000E+00 0. -1.
         -4    1    1    2    0  501 -0.50440873912E+00 -0.20103821971E+01 -0.99370656695E+01  0.10150927981E+02  0.00000000000E+00 0.  1.
<mgrwt>
<rscale>  0 0.20726950E+01</rscale>
<asrwt>0</asrwt>
<pdfrwt beam="1">0</pdfrwt>
<pdfrwt beam="2">0</pdfrwt>
<totfact> 0.34752469E+12</totfact>
</mgrwt>
</event>
<event>
 4    2  0.1060494E+006  0.2436578E+01  0.7546771E-02  0.2737169E+00
         22   -1    0    0    0    0  0.00000000000E+00  0.00000000000E+00  0.79381357225E+01  0.79381357225E+01  0.00000000000E+00 0. -1.
         22   -1    0    0    0    0 -0.00000000000E+00 -0.00000000000E+00 -0.78760963011E+00  0.78760963011E+00  0.00000000000E+00 0.  1.
          4    1    1    2  501    0  0.24126204220E+01  0.34084448164E+00  0.25955963460E+01  0.35600607653E+01  0.00000000000E+00 0.  1.
         -4    1    1    2    0  501 -0.24126204220E+01 -0.34084448164E+00  0.45549297463E+01  0.51656845873E+01  0.00000000000E+00 0. -1.
<mgrwt>
<rscale>  0 0.24365780E+01</rscale>
<asrwt>0</asrwt>
<pdfrwt beam="1">0</pdfrwt>
<pdfrwt beam="2">0</pdfrwt>
<totfact> 0.27517796E+12</totfact>
</mgrwt>
</event>
<event>
 4    2  0.1060494E+006  0.3082348E+01  0.7546771E-02  0.2496781E+00
         22   -1    0    0    0    0  0.00000000000E+00  0.00000000000E+00  0.24229585050E+00  0.24229585050E+00  0.00000000000E+00 0. -1.
         22   -1    0    0    0    0 -0.00000000000E+00 -0.00000000000E+00 -0.54979056962E+02  0.54979056962E+02  0.00000000000E+00 0.  1.
          4    1    1    2  501    0 -0.30802523292E+01  0.11363018447E+00 -0.42154558169E+02  0.42267098797E+02  0.00000000000E+00 0.  1.
         -4    1    1    2    0  501  0.30802523292E+01 -0.11363018447E+00 -0.12582202942E+02  0.12954254016E+02  0.00000000000E+00 0. -1.
<mgrwt>
<rscale>  0 0.30823475E+01</rscale>
<asrwt>0</asrwt>
<pdfrwt beam="1">0</pdfrwt>
<pdfrwt beam="2">0</pdfrwt>
<totfact> 0.91673767E+11</totfact>
</mgrwt>
</event>
<event>
 4    2  0.1060494E+006  0.2038704E+01  0.7546771E-02  0.2955080E+00
         22   -1    0    0    0    0  0.00000000000E+00  0.00000000000E+00  0.61889438758E+01  0.61889438758E+01  0.00000000000E+00 0.  1.
         22   -1    0    0    0    0 -0.00000000000E+00 -0.00000000000E+00 -0.87874988750E+00  0.87874988750E+00  0.00000000000E+00 0. -1.
          4    1    1    2  501    0 -0.16800287994E+01 -0.11549098576E+01  0.93921222264E+00  0.22446454387E+01  0.00000000000E+00 0. -1.
         -4    1    1    2    0  501  0.16800287994E+01  0.11549098576E+01  0.43709817656E+01  0.48230483246E+01  0.00000000000E+00 0.  1.
<mgrwt>
<rscale>  0 0.20387039E+01</rscale>
<asrwt>0</asrwt>
<pdfrwt beam="1">0</pdfrwt>
<pdfrwt beam="2">0</pdfrwt>
<totfact> 0.32716185E+12</totfact>
</mgrwt>
</event>
<event>
 4    2  0.1060494E+006  0.2054034E+01  0.7546771E-02  0.2945182E+00
         22   -1    0    0    0    0  0.00000000000E+00  0.00000000000E+00  0.21442236069E+00  0.21442236069E+00  0.00000000000E+00 0.  1.
         22   -1    0    0    0    0 -0.00000000000E+00 -0.00000000000E+00 -0.22076942680E+02  0.22076942680E+02  0.00000000000E+00 0. -1.
          4    1    1    2  501    0 -0.57465899349E+00  0.19720095022E+01 -0.72559472112E+01  0.75410758097E+01  0.00000000000E+00 0.  1.
         -4    1    1    2    0  501  0.57465899349E+00 -0.19720095022E+01 -0.14606573108E+02  0.14750289231E+02  0.00000000000E+00 0. -1.
<mgrwt>
<rscale>  0 0.20540337E+01</rscale>
<asrwt>0</asrwt>
<pdfrwt beam="1">0</pdfrwt>
<pdfrwt beam="2">0</pdfrwt>
<totfact> 0.34022666E+12</totfact>
</mgrwt>
</event>
<event>
 4    2  0.1060494E+006  0.2759315E+01  0.7546771E-02  0.2604185E+00
         22   -1    0    0    0    0  0.00000000000E+00  0.00000000000E+00  0.33441560183E+01  0.33441560183E+01  0.00000000000E+00 0.  1.
         22   -1    0    0    0    0 -0.00000000000E+00 -0.00000000000E+00 -0.34034884365E+01  0.34034884365E+01  0.00000000000E+00 0. -1.
          4    1    1    2  501    0 -0.15183592740E+01 -0.23039972693E+01 -0.19708692872E+01  0.33908913355E+01  0.00000000000E+00 0. -1.
         -4    1    1    2    0  501  0.15183592740E+01  0.23039972693E+01  0.19115368689E+01  0.33567531192E+01  0.00000000000E+00 0.  1.
<mgrwt>
<rscale>  0 0.27593148E+01</rscale>
<asrwt>0</asrwt>
<pdfrwt beam="1">0</pdfrwt>
<pdfrwt beam="2">0</pdfrwt>
<totfact> 0.14178323E+12</totfact>
</mgrwt>
</event>
<event>
 4    2  0.1060494E+006  0.2191380E+01  0.7546771E-02  0.2862508E+00
         22   -1    0    0    0    0  0.00000000000E+00  0.00000000000E+00  0.96238637078E+00  0.96238637078E+00  0.00000000000E+00 0. -1.
         22   -1    0    0    0    0 -0.00000000000E+00 -0.00000000000E+00 -0.15323879315E+02  0.15323879315E+02  0.00000000000E+00 0.  1.
          4    1    1    2  501    0  0.88426663273E+00  0.20050487500E+01 -0.13867916178E+02  0.14039987432E+02  0.00000000000E+00 0.  1.
         -4    1    1    2    0  501 -0.88426663273E+00 -0.20050487500E+01 -0.49357676557E+00  0.22462782533E+01  0.00000000000E+00 0. -1.
<mgrwt>
<rscale>  0 0.21913804E+01</rscale>
<asrwt>0</asrwt>
<pdfrwt beam="1">0</pdfrwt>
<pdfrwt beam="2">0</pdfrwt>
<totfact> 0.98440257E+11</totfact>
</mgrwt>
</event>
<event>
 4    2  0.1060494E+006  0.3283692E+01  0.7546771E-02  0.2439481E+00
         22   -1    0    0    0    0  0.00000000000E+00  0.00000000000E+00  0.14185476901E+01  0.14185476901E+01  0.00000000000E+00 0. -1.
         22   -1    0    0    0    0 -0.00000000000E+00 -0.00000000000E+00 -0.83692732871E+01  0.83692732871E+01  0.00000000000E+00 0.  1.
          4    1    1    2  501    0  0.12618961324E+01  0.30315431783E+01 -0.49579464929E+01  0.59467528381E+01  0.00000000000E+00 0.  1.
         -4    1    1    2    0  501 -0.12618961324E+01 -0.30315431783E+01 -0.19927791041E+01  0.38410681390E+01  0.00000000000E+00 0. -1.
<mgrwt>
<rscale>  0 0.32836924E+01</rscale>
<asrwt>0</asrwt>
<pdfrwt beam="1">0</pdfrwt>
<pdfrwt beam="2">0</pdfrwt>
<totfact> 0.13179428E+12</totfact>
</mgrwt>
</event>
<event>
 4    2  0.1060494E+006  0.2255458E+01  0.7546771E-02  0.2827258E+00
         22   -1    0    0    0    0  0.00000000000E+00  0.00000000000E+00  0.66612452148E-01  0.66612452148E-01  0.00000000000E+00 0. -1.
         22   -1    0    0    0    0 -0.00000000000E+00 -0.00000000000E+00 -0.77081343437E+02  0.77081343437E+02  0.00000000000E+00 0.  1.
          4    1    1    2  501    0  0.22524968643E+01 -0.11552724831E+00 -0.42217049441E+02  0.42277255732E+02  0.00000000000E+00 0.  1.
         -4    1    1    2    0  501 -0.22524968643E+01  0.11552724831E+00 -0.34797681544E+02  0.34870700158E+02  0.00000000000E+00 0. -1.
<mgrwt>
<rscale>  0 0.22554575E+01</rscale>
<asrwt>0</asrwt>
<pdfrwt beam="1">0</pdfrwt>
<pdfrwt beam="2">0</pdfrwt>
<totfact> 0.24367876E+12</totfact>
</mgrwt>
</event>
<event>
 4    2  0.1060494E+006  0.2820731E+01  0.7546771E-02  0.2582057E+00
         22   -1    0    0    0    0  0.00000000000E+00  0.00000000000E+00  0.16288453027E+01  0.16288453027E+01  0.00000000000E+00 0. -1.
         22   -1    0    0    0    0 -0.00000000000E+00 -0.00000000000E+00 -0.14347132766E+02  0.14347132766E+02  0.00000000000E+00 0.  1.
          4    1    1    2  501    0 -0.25587701087E+00 -0.28091018270E+01 -0.12846306858E+02  0.13152342985E+02  0.00000000000E+00 0.  1.
         -4    1    1    2    0  501  0.25587701087E+00  0.28091018270E+01  0.12801939444E+00  0.28236350835E+01  0.00000000000E+00 0. -1.
<mgrwt>
<rscale>  0 0.28207315E+01</rscale>
<asrwt>0</asrwt>
<pdfrwt beam="1">0</pdfrwt>
<pdfrwt beam="2">0</pdfrwt>
<totfact> 0.58388158E+11</totfact>
</mgrwt>
</event>
<event>
 4    2  0.1060494E+006  0.2200576E+01  0.7546771E-02  0.2857329E+00
         22   -1    0    0    0    0  0.00000000000E+00  0.00000000000E+00  0.25940172932E+01  0.25940172932E+01  0.00000000000E+00 0. -1.
         22   -1    0    0    0    0 -0.00000000000E+00 -0.00000000000E+00 -0.21431195470E+01  0.21431195470E+01  0.00000000000E+00 0.  1.
          4    1    1    2  501    0  0.26884173181E+00 -0.21840925473E+01  0.10759229343E+01  0.24495196044E+01  0.00000000000E+00 0.  1.
         -4    1    1    2    0  501 -0.26884173181E+00  0.21840925473E+01 -0.62502518812E+00  0.22876172358E+01  0.00000000000E+00 0. -1.
<mgrwt>
<rscale>  0 0.22005763E+01</rscale>
<asrwt>0</asrwt>
<pdfrwt beam="1">0</pdfrwt>
<pdfrwt beam="2">0</pdfrwt>
<totfact> 0.32697041E+12</totfact>
</mgrwt>
</event>
<event>
 4    2  0.1060494E+006  0.2014260E+01  0.7546771E-02  0.2971167E+00
         22   -1    0    0    0    0  0.00000000000E+00  0.00000000000E+00  0.15548912460E+00  0.15548912460E+00  0.00000000000E+00 0. -1.
         22   -1    0    0    0    0 -0.00000000000E+00 -0.00000000000E+00 -0.26098817314E+02  0.26098817314E+02  0.00000000000E+00 0.  1.
          4    1    1    2  501    0  0.20142449854E+01 -0.76862364782E-02 -0.13160564054E+02  0.13313815688E+02  0.00000000000E+00 0.  1.
         -4    1    1    2    0  501 -0.20142449854E+01  0.76862364782E-02 -0.12782764135E+02  0.12940490751E+02  0.00000000000E+00 0. -1.
<mgrwt>
<rscale>  0 0.20142597E+01</rscale>
<asrwt>0</asrwt>
<pdfrwt beam="1">0</pdfrwt>
<pdfrwt beam="2">0</pdfrwt>
<totfact> 0.39428567E+12</totfact>
</mgrwt>
</event>
<event>
 4    2  0.1060494E+006  0.2421282E+01  0.7546771E-02  0.2744285E+00
         22   -1    0    0    0    0  0.00000000000E+00  0.00000000000E+00  0.12412045161E+02  0.12412045161E+02  0.00000000000E+00 0.  1.
         22   -1    0    0    0    0 -0.00000000000E+00 -0.00000000000E+00 -0.10865339825E+01  0.10865339825E+01  0.00000000000E+00 0. -1.
          4    1    1    2  501    0  0.23791734719E+01  0.44960084812E+00  0.58827054489E+00  0.24917202022E+01  0.00000000000E+00 0. -1.
         -4    1    1    2    0  501 -0.23791734719E+01 -0.44960084812E+00  0.10737240634E+02  0.11006858942E+02  0.00000000000E+00 0.  1.
<mgrwt>
<rscale>  0 0.24212822E+01</rscale>
<asrwt>0</asrwt>
<pdfrwt beam="1">0</pdfrwt>
<pdfrwt beam="2">0</pdfrwt>
<totfact> 0.11097525E+12</totfact>
</mgrwt>
</event>
<event>
 4    2  0.1060494E+006  0.2084926E+01  0.7546771E-02  0.2925667E+00
         22   -1    0    0    0    0  0.00000000000E+00  0.00000000000E+00  0.22173612326E+00  0.22173612326E+00  0.00000000000E+00 0.  1.
         22   -1    0    0    0    0 -0.00000000000E+00 -0.00000000000E+00 -0.19643714214E+02  0.19643714214E+02  0.00000000000E+00 0. -1.
          4    1    1    2  501    0 -0.16602421088E+01  0.12611557606E+01 -0.10157530443E+02  0.10369298067E+02  0.00000000000E+00 0.  1.
         -4    1    1    2    0  501  0.16602421088E+01 -0.12611557606E+01 -0.92644476475E+01  0.94961522695E+01  0.00000000000E+00 0. -1.
<mgrwt>
<rscale>  0 0.20849263E+01</rscale>
<asrwt>0</asrwt>
<pdfrwt beam="1">0</pdfrwt>
<pdfrwt beam="2">0</pdfrwt>
<totfact> 0.37920594E+12</totfact>
</mgrwt>
</event>
<event>
 4    2  0.1060494E+006  0.2009023E+01  0.7546771E-02  0.2974663E+00
         22   -1    0    0    0    0  0.00000000000E+00  0.00000000000E+00  0.11659162613E+01  0.11659162613E+01  0.00000000000E+00 0.  1.
         22   -1    0    0    0    0 -0.00000000000E+00 -0.00000000000E+00 -0.39311644089E+01  0.39311644089E+01  0.00000000000E+00 0. -1.
          4    1    1    2  501    0 -0.98984160387E+00  0.17482522223E+01 -0.22632362125E+01  0.30262865673E+01  0.00000000000E+00 0. -1.
         -4    1    1    2    0  501  0.98984160387E+00 -0.17482522223E+01 -0.50201193503E+00  0.20707941029E+01  0.00000000000E+00 0.  1.
<mgrwt>
<rscale>  0 0.20090227E+01</rscale>
<asrwt>0</asrwt>
<pdfrwt beam="1">0</pdfrwt>
<pdfrwt beam="2">0</pdfrwt>
<totfact> 0.40530635E+12</totfact>
</mgrwt>
</event>
<event>
 4    2  0.1060494E+006  0.2391255E+01  0.7546771E-02  0.2758504E+00
         22   -1    0    0    0    0  0.00000000000E+00  0.00000000000E+00  0.55721083271E+02  0.55721083271E+02  0.00000000000E+00 0. -1.
         22   -1    0    0    0    0 -0.00000000000E+00 -0.00000000000E+00 -0.36768131298E+00  0.36768131298E+00  0.00000000000E+00 0.  1.
          4    1    1    2  501    0 -0.12934171872E+01  0.20112618755E+01  0.38653957689E+01  0.45452598169E+01  0.00000000000E+00 0.  1.
         -4    1    1    2    0  501  0.12934171872E+01 -0.20112618755E+01  0.51488006190E+02  0.51543504768E+02  0.00000000000E+00 0. -1.
<mgrwt>
<rscale>  0 0.23912554E+01</rscale>
<asrwt>0</asrwt>
<pdfrwt beam="1">0</pdfrwt>
<pdfrwt beam="2">0</pdfrwt>
<totfact> 0.56417041E+11</totfact>
</mgrwt>
</event>
<event>
 4    2  0.1060494E+006  0.2512332E+01  0.7546771E-02  0.2703118E+00
         22   -1    0    0    0    0  0.00000000000E+00  0.00000000000E+00  0.87867253357E+01  0.87867253357E+01  0.00000000000E+00 0.  1.
         22   -1    0    0    0    0 -0.00000000000E+00 -0.00000000000E+00 -0.93136778677E+00  0.93136778677E+00  0.00000000000E+00 0. -1.
          4    1    1    2  501    0  0.25047968733E+01 -0.19443495255E+00  0.62515586788E+01  0.67374919846E+01  0.00000000000E+00 0.  1.
         -4    1    1    2    0  501 -0.25047968733E+01  0.19443495255E+00  0.16037988701E+01  0.29806011379E+01  0.00000000000E+00 0. -1.
<mgrwt>
<rscale>  0 0.25123320E+01</rscale>
<asrwt>0</asrwt>
<pdfrwt beam="1">0</pdfrwt>
<pdfrwt beam="2">0</pdfrwt>
<totfact> 0.20119694E+12</totfact>
</mgrwt>
</event>
<event>
 4    2  0.1060494E+006  0.2374145E+01  0.7546771E-02  0.2766757E+00
         22   -1    0    0    0    0  0.00000000000E+00  0.00000000000E+00  0.74435321355E+00  0.74435321355E+00  0.00000000000E+00 0.  1.
         22   -1    0    0    0    0 -0.00000000000E+00 -0.00000000000E+00 -0.13043123594E+02  0.13043123594E+02  0.00000000000E+00 0. -1.
          4    1    1    2  501    0 -0.85034646590E+00 -0.22166363923E+01 -0.10614010415E+02  0.10876294548E+02  0.00000000000E+00 0. -1.
         -4    1    1    2    0  501  0.85034646590E+00  0.22166363923E+01 -0.16847599660E+01  0.29111822600E+01  0.00000000000E+00 0.  1.
<mgrwt>
<rscale>  0 0.23741453E+01</rscale>
<asrwt>0</asrwt>
<pdfrwt beam="1">0</pdfrwt>
<pdfrwt beam="2">0</pdfrwt>
<totfact> 0.16074679E+12</totfact>
</mgrwt>
</event>
<event>
 4    2  0.1060494E+006  0.2202495E+01  0.7546771E-02  0.2856253E+00
         22   -1    0    0    0    0  0.00000000000E+00  0.00000000000E+00  0.38419435875E+01  0.38419435875E+01  0.00000000000E+00 0.  1.
         22   -1    0    0    0    0 -0.00000000000E+00 -0.00000000000E+00 -0.14482754478E+01  0.14482754478E+01  0.00000000000E+00 0. -1.
          4    1    1    2  501    0 -0.20226863991E+01  0.87162255096E+00  0.24983357274E+00  0.22166197135E+01  0.00000000000E+00 0. -1.
         -4    1    1    2    0  501  0.20226863991E+01 -0.87162255096E+00  0.21438345670E+01  0.30735993218E+01  0.00000000000E+00 0.  1.
<mgrwt>
<rscale>  0 0.22024954E+01</rscale>
<asrwt>0</asrwt>
<pdfrwt beam="1">0</pdfrwt>
<pdfrwt beam="2">0</pdfrwt>
<totfact> 0.32468186E+12</totfact>
</mgrwt>
</event>
<event>
 4    2  0.1060494E+006  0.2942893E+01  0.7546771E-02  0.2540540E+00
         22   -1    0    0    0    0  0.00000000000E+00  0.00000000000E+00  0.10707483644E+02  0.10707483644E+02  0.00000000000E+00 0.  1.
         22   -1    0    0    0    0 -0.00000000000E+00 -0.00000000000E+00 -0.11838658396E+01  0.11838658396E+01  0.00000000000E+00 0. -1.
          4    1    1    2  501    0 -0.26384964409E+00 -0.29310408554E+01  0.14153785287E+01  0.32655648072E+01  0.00000000000E+00 0. -1.
         -4    1    1    2    0  501  0.26384964409E+00  0.29310408554E+01  0.81082392756E+01  0.86257846763E+01  0.00000000000E+00 0.  1.
<mgrwt>
<rscale>  0 0.29428926E+01</rscale>
<asrwt>0</asrwt>
<pdfrwt beam="1">0</pdfrwt>
<pdfrwt beam="2">0</pdfrwt>
<totfact> 0.12042024E+12</totfact>
</mgrwt>
</event>
<event>
 4    2  0.1060494E+006  0.2692820E+01  0.7546771E-02  0.2629178E+00
         22   -1    0    0    0    0  0.00000000000E+00  0.00000000000E+00  0.34367458787E+00  0.34367458787E+00  0.00000000000E+00 0. -1.
         22   -1    0    0    0    0 -0.00000000000E+00 -0.00000000000E+00 -0.44349054032E+02  0.44349054032E+02  0.00000000000E+00 0.  1.
          4    1    1    2  501    0 -0.24691019204E+01  0.10746222426E+01 -0.38182532971E+02  0.38277370617E+02  0.00000000000E+00 0.  1.
         -4    1    1    2    0  501  0.24691019204E+01 -0.10746222426E+01 -0.58228464735E+01  0.64153580034E+01  0.00000000000E+00 0. -1.
<mgrwt>
<rscale>  0 0.26928196E+01</rscale>
<asrwt>0</asrwt>
<pdfrwt beam="1">0</pdfrwt>
<pdfrwt beam="2">0</pdfrwt>
<totfact> 0.82239681E+11</totfact>
</mgrwt>
</event>
<event>
 4    2  0.1060494E+006  0.3551394E+01  0.7546771E-02  0.2372235E+00
         22   -1    0    0    0    0  0.00000000000E+00  0.00000000000E+00  0.77869836827E+00  0.77869836827E+00  0.00000000000E+00 0. -1.
         22   -1    0    0    0    0 -0.00000000000E+00 -0.00000000000E+00 -0.16228751239E+02  0.16228751239E+02  0.00000000000E+00 0.  1.
          4    1    1    2  501    0  0.22906583751E+01  0.27139055839E+01 -0.81025169952E+01  0.88466480074E+01  0.00000000000E+00 0. -1.
         -4    1    1    2    0  501 -0.22906583751E+01 -0.27139055839E+01 -0.73475358751E+01  0.81608015994E+01  0.00000000000E+00 0.  1.
<mgrwt>
<rscale>  0 0.35513940E+01</rscale>
<asrwt>0</asrwt>
<pdfrwt beam="1">0</pdfrwt>
<pdfrwt beam="2">0</pdfrwt>
<totfact> 0.11674873E+12</totfact>
</mgrwt>
</event>
<event>
 4    2  0.1060494E+006  0.3618375E+01  0.7546771E-02  0.2356774E+00
         22   -1    0    0    0    0  0.00000000000E+00  0.00000000000E+00  0.56158241456E+00  0.56158241456E+00  0.00000000000E+00 0. -1.
         22   -1    0    0    0    0 -0.00000000000E+00 -0.00000000000E+00 -0.23373291750E+02  0.23373291750E+02  0.00000000000E+00 0.  1.
          4    1    1    2  501    0  0.23401469196E+01  0.27597734720E+01 -0.12009467204E+02  0.12542724574E+02  0.00000000000E+00 0. -1.
         -4    1    1    2    0  501 -0.23401469196E+01 -0.27597734720E+01 -0.10802242132E+02  0.11392149590E+02  0.00000000000E+00 0.  1.
<mgrwt>
<rscale>  0 0.36183749E+01</rscale>
<asrwt>0</asrwt>
<pdfrwt beam="1">0</pdfrwt>
<pdfrwt beam="2">0</pdfrwt>
<totfact> 0.10737656E+12</totfact>
</mgrwt>
</event>
<event>
 4    2  0.1060494E+006  0.2063652E+01  0.7546771E-02  0.2939045E+00
         22   -1    0    0    0    0  0.00000000000E+00  0.00000000000E+00  0.42282345448E+02  0.42282345448E+02  0.00000000000E+00 0.  1.
         22   -1    0    0    0    0 -0.00000000000E+00 -0.00000000000E+00 -0.11563418950E+00  0.11563418950E+00  0.00000000000E+00 0. -1.
          4    1    1    2  501    0  0.13656868905E+01  0.15471130845E+01  0.13469964353E+02  0.13627127330E+02  0.00000000000E+00 0. -1.
         -4    1    1    2    0  501 -0.13656868905E+01 -0.15471130845E+01  0.28696746905E+02  0.28770852308E+02  0.00000000000E+00 0.  1.
<mgrwt>
<rscale>  0 0.20636520E+01</rscale>
<asrwt>0</asrwt>
<pdfrwt beam="1">0</pdfrwt>
<pdfrwt beam="2">0</pdfrwt>
<totfact> 0.29502655E+12</totfact>
</mgrwt>
</event>
<event>
 4    2  0.1060494E+006  0.2785638E+01  0.7546771E-02  0.2594593E+00
         22   -1    0    0    0    0  0.00000000000E+00  0.00000000000E+00  0.59919369608E+01  0.59919369608E+01  0.00000000000E+00 0. -1.
         22   -1    0    0    0    0 -0.00000000000E+00 -0.00000000000E+00 -0.27351333094E+01  0.27351333094E+01  0.00000000000E+00 0.  1.
          4    1    1    2  501    0 -0.95318167462E+00  0.26174841983E+01 -0.15378468977E+01  0.31819415321E+01  0.00000000000E+00 0.  1.
         -4    1    1    2    0  501  0.95318167462E+00 -0.26174841983E+01  0.47946505491E+01  0.55451287380E+01  0.00000000000E+00 0. -1.
<mgrwt>
<rscale>  0 0.27856380E+01</rscale>
<asrwt>0</asrwt>
<pdfrwt beam="1">0</pdfrwt>
<pdfrwt beam="2">0</pdfrwt>
<totfact> 0.91958215E+11</totfact>
</mgrwt>
</event>
<event>
 4    2  0.1060494E+006  0.3101524E+01  0.7546771E-02  0.2491040E+00
         22   -1    0    0    0    0  0.00000000000E+00  0.00000000000E+00  0.83243837427E+01  0.83243837427E+01  0.00000000000E+00 0.  1.
         22   -1    0    0    0    0 -0.00000000000E+00 -0.00000000000E+00 -0.39187608628E+01  0.39187608628E+01  0.00000000000E+00 0. -1.
          4    1    1    2  501    0  0.28220769048E+01 -0.12865976516E+01 -0.29375497291E+01  0.42718438624E+01  0.00000000000E+00 0. -1.
         -4    1    1    2    0  501 -0.28220769048E+01  0.12865976516E+01  0.73431726089E+01  0.79713007432E+01  0.00000000000E+00 0.  1.
<mgrwt>
<rscale>  0 0.31015241E+01</rscale>
<asrwt>0</asrwt>
<pdfrwt beam="1">0</pdfrwt>
<pdfrwt beam="2">0</pdfrwt>
<totfact> 0.40729354E+11</totfact>
</mgrwt>
</event>
<event>
 4    2  0.1060494E+006  0.2166195E+01  0.7546771E-02  0.2876910E+00
         22   -1    0    0    0    0  0.00000000000E+00  0.00000000000E+00  0.69513867880E+00  0.69513867880E+00  0.00000000000E+00 0.  1.
         22   -1    0    0    0    0 -0.00000000000E+00 -0.00000000000E+00 -0.97588622243E+01  0.97588622243E+01  0.00000000000E+00 0. -1.
          4    1    1    2  501    0  0.14583324986E+01 -0.16017704950E+01 -0.74340904988E+01  0.77432618411E+01  0.00000000000E+00 0. -1.
         -4    1    1    2    0  501 -0.14583324986E+01  0.16017704950E+01 -0.16296330467E+01  0.27107390620E+01  0.00000000000E+00 0.  1.
<mgrwt>
<rscale>  0 0.21661954E+01</rscale>
<asrwt>0</asrwt>
<pdfrwt beam="1">0</pdfrwt>
<pdfrwt beam="2">0</pdfrwt>
<totfact> 0.24723956E+12</totfact>
</mgrwt>
</event>
<event>
 4    2  0.1060494E+006  0.2197279E+01  0.7546771E-02  0.2859181E+00
         22   -1    0    0    0    0  0.00000000000E+00  0.00000000000E+00  0.98145426676E-01  0.98145426676E-01  0.00000000000E+00 0.  1.
         22   -1    0    0    0    0 -0.00000000000E+00 -0.00000000000E+00 -0.62920304794E+02  0.62920304794E+02  0.00000000000E+00 0. -1.
          4    1    1    2  501    0  0.85476818777E+00 -0.20242052550E+01 -0.46128787448E+02  0.46181089929E+02  0.00000000000E+00 0. -1.
         -4    1    1    2    0  501 -0.85476818777E+00  0.20242052550E+01 -0.16693371920E+02  0.16837360293E+02  0.00000000000E+00 0.  1.
<mgrwt>
<rscale>  0 0.21972791E+01</rscale>
<asrwt>0</asrwt>
<pdfrwt beam="1">0</pdfrwt>
<pdfrwt beam="2">0</pdfrwt>
<totfact> 0.20915051E+12</totfact>
</mgrwt>
</event>
<event>
 4    2  0.1060494E+006  0.2030971E+01  0.7546771E-02  0.2960128E+00
         22   -1    0    0    0    0  0.00000000000E+00  0.00000000000E+00  0.63671485896E+00  0.63671485896E+00  0.00000000000E+00 0.  1.
         22   -1    0    0    0    0 -0.00000000000E+00 -0.00000000000E+00 -0.10662570295E+02  0.10662570295E+02  0.00000000000E+00 0. -1.
          4    1    1    2  501    0  0.61711559785E+00  0.19349451316E+01 -0.85520755780E+01  0.87899283851E+01  0.00000000000E+00 0. -1.
         -4    1    1    2    0  501 -0.61711559785E+00 -0.19349451316E+01 -0.14737798580E+01  0.25093567688E+01  0.00000000000E+00 0.  1.
<mgrwt>
<rscale>  0 0.20309713E+01</rscale>
<asrwt>0</asrwt>
<pdfrwt beam="1">0</pdfrwt>
<pdfrwt beam="2">0</pdfrwt>
<totfact> 0.24532076E+12</totfact>
</mgrwt>
</event>
<event>
 4    2  0.1060494E+006  0.2118420E+01  0.7546771E-02  0.2905134E+00
         22   -1    0    0    0    0  0.00000000000E+00  0.00000000000E+00  0.46482192994E+01  0.46482192994E+01  0.00000000000E+00 0.  1.
         22   -1    0    0    0    0 -0.00000000000E+00 -0.00000000000E+00 -0.10704117007E+01  0.10704117007E+01  0.00000000000E+00 0. -1.
          4    1    1    2  501    0 -0.11099043012E+01  0.18043881460E+01  0.89360889736E+00  0.22991826810E+01  0.00000000000E+00 0. -1.
         -4    1    1    2    0  501  0.11099043012E+01 -0.18043881460E+01  0.26841987014E+01  0.34194483192E+01  0.00000000000E+00 0.  1.
<mgrwt>
<rscale>  0 0.21184202E+01</rscale>
<asrwt>0</asrwt>
<pdfrwt beam="1">0</pdfrwt>
<pdfrwt beam="2">0</pdfrwt>
<totfact> 0.36684932E+12</totfact>
</mgrwt>
</event>
<event>
 4    2  0.1060494E+006  0.2524519E+01  0.7546771E-02  0.2697818E+00
         22   -1    0    0    0    0  0.00000000000E+00  0.00000000000E+00  0.75984784464E+00  0.75984784464E+00  0.00000000000E+00 0.  1.
         22   -1    0    0    0    0 -0.00000000000E+00 -0.00000000000E+00 -0.93273123591E+01  0.93273123591E+01  0.00000000000E+00 0. -1.
          4    1    1    2  501    0  0.24842461307E+01 -0.44912755976E+00 -0.26827365180E+01  0.36837846881E+01  0.00000000000E+00 0.  1.
         -4    1    1    2    0  501 -0.24842461307E+01  0.44912755976E+00 -0.58847279965E+01  0.64033755157E+01  0.00000000000E+00 0. -1.
<mgrwt>
<rscale>  0 0.25245186E+01</rscale>
<asrwt>0</asrwt>
<pdfrwt beam="1">0</pdfrwt>
<pdfrwt beam="2">0</pdfrwt>
<totfact> 0.23603657E+12</totfact>
</mgrwt>
</event>
<event>
 4    2  0.1060494E+006  0.4352705E+01  0.7546771E-02  0.2214551E+00
         22   -1    0    0    0    0  0.00000000000E+00  0.00000000000E+00  0.36837803824E+01  0.36837803824E+01  0.00000000000E+00 0. -1.
         22   -1    0    0    0    0 -0.00000000000E+00 -0.00000000000E+00 -0.96992815360E+01  0.96992815360E+01  0.00000000000E+00 0.  1.
          4    1    1    2  501    0  0.36643590373E+01  0.23491512466E+01 -0.75939863328E+01  0.87529804727E+01  0.00000000000E+00 0.  1.
         -4    1    1    2    0  501 -0.36643590373E+01 -0.23491512466E+01  0.15784851792E+01  0.46300814457E+01  0.00000000000E+00 0. -1.
<mgrwt>
<rscale>  0 0.43527048E+01</rscale>
<asrwt>0</asrwt>
<pdfrwt beam="1">0</pdfrwt>
<pdfrwt beam="2">0</pdfrwt>
<totfact> 0.36424074E+11</totfact>
</mgrwt>
</event>
<event>
 4    2  0.1060494E+006  0.2136472E+01  0.7546771E-02  0.2894326E+00
         22   -1    0    0    0    0  0.00000000000E+00  0.00000000000E+00  0.21509707001E+00  0.21509707001E+00  0.00000000000E+00 0.  1.
         22   -1    0    0    0    0 -0.00000000000E+00 -0.00000000000E+00 -0.23253413914E+02  0.23253413914E+02  0.00000000000E+00 0. -1.
          4    1    1    2  501    0 -0.10270357690E+01 -0.18734223179E+01 -0.14988513019E+02  0.15140014405E+02  0.00000000000E+00 0. -1.
         -4    1    1    2    0  501  0.10270357690E+01  0.18734223179E+01 -0.80498038253E+01  0.83284965797E+01  0.00000000000E+00 0.  1.
<mgrwt>
<rscale>  0 0.21364722E+01</rscale>
<asrwt>0</asrwt>
<pdfrwt beam="1">0</pdfrwt>
<pdfrwt beam="2">0</pdfrwt>
<totfact> 0.31766007E+12</totfact>
</mgrwt>
</event>
<event>
 4    2  0.1060494E+006  0.2916169E+01  0.7546771E-02  0.2549354E+00
         22   -1    0    0    0    0  0.00000000000E+00  0.00000000000E+00  0.39198238169E+00  0.39198238169E+00  0.00000000000E+00 0. -1.
         22   -1    0    0    0    0 -0.00000000000E+00 -0.00000000000E+00 -0.22426844877E+02  0.22426844877E+02  0.00000000000E+00 0.  1.
          4    1    1    2  501    0 -0.71157855898E-01  0.29153004063E+01 -0.89563159764E+01  0.94191101367E+01  0.00000000000E+00 0.  1.
         -4    1    1    2    0  501  0.71157855898E-01 -0.29153004063E+01 -0.13078546519E+02  0.13399717122E+02  0.00000000000E+00 0. -1.
<mgrwt>
<rscale>  0 0.29161687E+01</rscale>
<asrwt>0</asrwt>
<pdfrwt beam="1">0</pdfrwt>
<pdfrwt beam="2">0</pdfrwt>
<totfact> 0.16967205E+12</totfact>
</mgrwt>
</event>
<event>
 4    2  0.1060494E+006  0.4947469E+01  0.7546771E-02  0.2129327E+00
         22   -1    0    0    0    0  0.00000000000E+00  0.00000000000E+00  0.12135919096E+02  0.12135919096E+02  0.00000000000E+00 0. -1.
         22   -1    0    0    0    0 -0.00000000000E+00 -0.00000000000E+00 -0.40652678753E+01  0.40652678753E+01  0.00000000000E+00 0.  1.
          4    1    1    2  501    0  0.49314473064E+01  0.39784380543E+00 -0.17147256483E+01  0.52361948282E+01  0.00000000000E+00 0.  1.
         -4    1    1    2    0  501 -0.49314473064E+01 -0.39784380543E+00  0.97853768690E+01  0.10964992143E+02  0.00000000000E+00 0. -1.
<mgrwt>
<rscale>  0 0.49474693E+01</rscale>
<asrwt>0</asrwt>
<pdfrwt beam="1">0</pdfrwt>
<pdfrwt beam="2">0</pdfrwt>
<totfact> 0.24708713E+11</totfact>
</mgrwt>
</event>
<event>
 4    2  0.1060494E+006  0.2063713E+01  0.7546771E-02  0.2939007E+00
         22   -1    0    0    0    0  0.00000000000E+00  0.00000000000E+00  0.37376101503E+01  0.37376101503E+01  0.00000000000E+00 0.  1.
         22   -1    0    0    0    0 -0.00000000000E+00 -0.00000000000E+00 -0.73345375916E+01  0.73345375916E+01  0.00000000000E+00 0. -1.
          4    1    1    2  501    0  0.17963909384E+01 -0.10158199272E+01 -0.68863615624E+01  0.71889419316E+01  0.00000000000E+00 0. -1.
         -4    1    1    2    0  501 -0.17963909384E+01  0.10158199272E+01  0.32894341211E+01  0.38832058102E+01  0.00000000000E+00 0.  1.
<mgrwt>
<rscale>  0 0.20637128E+01</rscale>
<asrwt>0</asrwt>
<pdfrwt beam="1">0</pdfrwt>
<pdfrwt beam="2">0</pdfrwt>
<totfact> 0.50121251E+11</totfact>
</mgrwt>
</event>
<event>
 4    2  0.1060494E+006  0.2826226E+01  0.7546771E-02  0.2580121E+00
         22   -1    0    0    0    0  0.00000000000E+00  0.00000000000E+00  0.15272899304E+01  0.15272899304E+01  0.00000000000E+00 0.  1.
         22   -1    0    0    0    0 -0.00000000000E+00 -0.00000000000E+00 -0.82604905740E+01  0.82604905740E+01  0.00000000000E+00 0. -1.
          4    1    1    2  501    0 -0.26058467077E+01 -0.10941268557E+01 -0.63308584363E+01  0.69330598714E+01  0.00000000000E+00 0. -1.
         -4    1    1    2    0  501  0.26058467077E+01  0.10941268557E+01 -0.40234220736E+00  0.28547206330E+01  0.00000000000E+00 0.  1.
<mgrwt>
<rscale>  0 0.28262255E+01</rscale>
<asrwt>0</asrwt>
<pdfrwt beam="1">0</pdfrwt>
<pdfrwt beam="2">0</pdfrwt>
<totfact> 0.12297945E+12</totfact>
</mgrwt>
</event>
<event>
 4    2  0.1060494E+006  0.3030364E+01  0.7546771E-02  0.2512671E+00
         22   -1    0    0    0    0  0.00000000000E+00  0.00000000000E+00  0.17689504499E+01  0.17689504499E+01  0.00000000000E+00 0.  1.
         22   -1    0    0    0    0 -0.00000000000E+00 -0.00000000000E+00 -0.51948779355E+01  0.51948779355E+01  0.00000000000E+00 0. -1.
          4    1    1    2  501    0  0.27734759686E+01 -0.12210396668E+01 -0.16212557087E+01  0.34367974757E+01  0.00000000000E+00 0. -1.
         -4    1    1    2    0  501 -0.27734759686E+01  0.12210396668E+01 -0.18046717769E+01  0.35270309098E+01  0.00000000000E+00 0.  1.
<mgrwt>
<rscale>  0 0.30303641E+01</rscale>
<asrwt>0</asrwt>
<pdfrwt beam="1">0</pdfrwt>
<pdfrwt beam="2">0</pdfrwt>
<totfact> 0.18061555E+12</totfact>
</mgrwt>
</event>
<event>
 4    2  0.1060494E+006  0.2354382E+01  0.7546771E-02  0.2776431E+00
         22   -1    0    0    0    0  0.00000000000E+00  0.00000000000E+00  0.51643383091E+00  0.51643383091E+00  0.00000000000E+00 0.  1.
         22   -1    0    0    0    0 -0.00000000000E+00 -0.00000000000E+00 -0.11698264509E+02  0.11698264509E+02  0.00000000000E+00 0. -1.
          4    1    1    2  501    0 -0.59830805423E+00 -0.22770911144E+01 -0.38369781143E+01  0.45017238388E+01  0.00000000000E+00 0.  1.
         -4    1    1    2    0  501  0.59830805423E+00  0.22770911144E+01 -0.73448525633E+01  0.77129745006E+01  0.00000000000E+00 0. -1.
<mgrwt>
<rscale>  0 0.23543824E+01</rscale>
<asrwt>0</asrwt>
<pdfrwt beam="1">0</pdfrwt>
<pdfrwt beam="2">0</pdfrwt>
<totfact> 0.27778454E+12</totfact>
</mgrwt>
</event>
<event>
 4    2  0.1060494E+006  0.2076491E+01  0.7546771E-02  0.2930940E+00
         22   -1    0    0    0    0  0.00000000000E+00  0.00000000000E+00  0.52260514326E+01  0.52260514326E+01  0.00000000000E+00 0. -1.
         22   -1    0    0    0    0 -0.00000000000E+00 -0.00000000000E+00 -0.22229510567E+01  0.22229510567E+01  0.00000000000E+00 0.  1.
          4    1    1    2  501    0  0.22941970263E-01  0.20763637882E+01 -0.14519678724E+01  0.25337765524E+01  0.00000000000E+00 0.  1.
         -4    1    1    2    0  501 -0.22941970263E-01 -0.20763637882E+01  0.44550682482E+01  0.49152259369E+01  0.00000000000E+00 0. -1.
<mgrwt>
<rscale>  0 0.20764905E+01</rscale>
<asrwt>0</asrwt>
<pdfrwt beam="1">0</pdfrwt>
<pdfrwt beam="2">0</pdfrwt>
<totfact> 0.13766317E+12</totfact>
</mgrwt>
</event>
<event>
 4    2  0.1060494E+006  0.2130989E+01  0.7546771E-02  0.2897591E+00
         22   -1    0    0    0    0  0.00000000000E+00  0.00000000000E+00  0.66532177577E+00  0.66532177577E+00  0.00000000000E+00 0. -1.
         22   -1    0    0    0    0 -0.00000000000E+00 -0.00000000000E+00 -0.80442864930E+01  0.80442864930E+01  0.00000000000E+00 0.  1.
          4    1    1    2  501    0  0.21054002173E+01 -0.32924710294E+00 -0.53845982806E+01  0.57909422699E+01  0.00000000000E+00 0.  1.
         -4    1    1    2    0  501 -0.21054002173E+01  0.32924710294E+00 -0.19943664367E+01  0.29186659989E+01  0.00000000000E+00 0. -1.
<mgrwt>
<rscale>  0 0.21309889E+01</rscale>
<asrwt>0</asrwt>
<pdfrwt beam="1">0</pdfrwt>
<pdfrwt beam="2">0</pdfrwt>
<totfact> 0.32801032E+12</totfact>
</mgrwt>
</event>
<event>
 4    2  0.1060494E+006  0.2478077E+01  0.7546771E-02  0.2718275E+00
         22   -1    0    0    0    0  0.00000000000E+00  0.00000000000E+00  0.10850400169E+02  0.10850400169E+02  0.00000000000E+00 0.  1.
         22   -1    0    0    0    0 -0.00000000000E+00 -0.00000000000E+00 -0.70075222328E+00  0.70075222328E+00  0.00000000000E+00 0. -1.
          4    1    1    2  501    0  0.34145522698E+00 -0.24544391636E+01  0.25417385874E+01  0.35498307462E+01  0.00000000000E+00 0. -1.
         -4    1    1    2    0  501 -0.34145522698E+00  0.24544391636E+01  0.76079093583E+01  0.80013216461E+01  0.00000000000E+00 0.  1.
<mgrwt>
<rscale>  0 0.24780765E+01</rscale>
<asrwt>0</asrwt>
<pdfrwt beam="1">0</pdfrwt>
<pdfrwt beam="2">0</pdfrwt>
<totfact> 0.21545472E+12</totfact>
</mgrwt>
</event>
<event>
 4    2  0.1060494E+006  0.3468800E+01  0.7546771E-02  0.2392013E+00
         22   -1    0    0    0    0  0.00000000000E+00  0.00000000000E+00  0.20514410841E+02  0.20514410841E+02  0.00000000000E+00 0. -1.
         22   -1    0    0    0    0 -0.00000000000E+00 -0.00000000000E+00 -0.58654289069E+00  0.58654289069E+00  0.00000000000E+00 0.  1.
          4    1    1    2  501    0 -0.64057974348E+00  0.34091397947E+01  0.99569399877E+01  0.10543871702E+02  0.00000000000E+00 0. -1.
         -4    1    1    2    0  501  0.64057974348E+00 -0.34091397947E+01  0.99709279623E+01  0.10557082029E+02  0.00000000000E+00 0.  1.
<mgrwt>
<rscale>  0 0.34688004E+01</rscale>
<asrwt>0</asrwt>
<pdfrwt beam="1">0</pdfrwt>
<pdfrwt beam="2">0</pdfrwt>
<totfact> 0.12036874E+12</totfact>
</mgrwt>
</event>
<event>
 4    2  0.1060494E+006  0.2151692E+01  0.7546771E-02  0.2885350E+00
         22   -1    0    0    0    0  0.00000000000E+00  0.00000000000E+00  0.42347860174E+01  0.42347860174E+01  0.00000000000E+00 0.  1.
         22   -1    0    0    0    0 -0.00000000000E+00 -0.00000000000E+00 -0.36053470146E+01  0.36053470146E+01  0.00000000000E+00 0. -1.
          4    1    1    2  501    0 -0.70369191133E+00 -0.20333710571E+01 -0.29574519832E+01  0.36573627650E+01  0.00000000000E+00 0. -1.
         -4    1    1    2    0  501  0.70369191133E+00  0.20333710571E+01  0.35868909859E+01  0.41827702670E+01  0.00000000000E+00 0.  1.
<mgrwt>
<rscale>  0 0.21516924E+01</rscale>
<asrwt>0</asrwt>
<pdfrwt beam="1">0</pdfrwt>
<pdfrwt beam="2">0</pdfrwt>
<totfact> 0.10040919E+12</totfact>
</mgrwt>
</event>
<event>
 4    2  0.1060494E+006  0.4345496E+01  0.7546771E-02  0.2215747E+00
         22   -1    0    0    0    0  0.00000000000E+00  0.00000000000E+00  0.81798404770E+00  0.81798404770E+00  0.00000000000E+00 0.  1.
         22   -1    0    0    0    0 -0.00000000000E+00 -0.00000000000E+00 -0.26235086393E+02  0.26235086393E+02  0.00000000000E+00 0. -1.
          4    1    1    2  501    0  0.39283285387E+01  0.18578407991E+01 -0.80215859091E+01  0.91230026878E+01  0.00000000000E+00 0.  1.
         -4    1    1    2    0  501 -0.39283285387E+01 -0.18578407991E+01 -0.17395516436E+02  0.17930067753E+02  0.00000000000E+00 0. -1.
<mgrwt>
<rscale>  0 0.43454962E+01</rscale>
<asrwt>0</asrwt>
<pdfrwt beam="1">0</pdfrwt>
<pdfrwt beam="2">0</pdfrwt>
<totfact> 0.60584289E+11</totfact>
</mgrwt>
</event>
<event>
 4    2  0.1060494E+006  0.2267693E+01  0.7546771E-02  0.2820743E+00
         22   -1    0    0    0    0  0.00000000000E+00  0.00000000000E+00  0.72058920535E+00  0.72058920535E+00  0.00000000000E+00 0.  1.
         22   -1    0    0    0    0 -0.00000000000E+00 -0.00000000000E+00 -0.10006841756E+02  0.10006841756E+02  0.00000000000E+00 0. -1.
          4    1    1    2  501    0 -0.21630802886E+01 -0.68081996416E+00 -0.75158215117E+01  0.78504780207E+01  0.00000000000E+00 0. -1.
         -4    1    1    2    0  501  0.21630802886E+01  0.68081996416E+00 -0.17704310387E+01  0.28769529404E+01  0.00000000000E+00 0.  1.
<mgrwt>
<rscale>  0 0.22676931E+01</rscale>
<asrwt>0</asrwt>
<pdfrwt beam="1">0</pdfrwt>
<pdfrwt beam="2">0</pdfrwt>
<totfact> 0.23025377E+12</totfact>
</mgrwt>
</event>
<event>
 4    2  0.1060494E+006  0.4031605E+01  0.7546771E-02  0.2271293E+00
         22   -1    0    0    0    0  0.00000000000E+00  0.00000000000E+00  0.35940941143E+01  0.35940941143E+01  0.00000000000E+00 0. -1.
         22   -1    0    0    0    0 -0.00000000000E+00 -0.00000000000E+00 -0.72932052364E+01  0.72932052364E+01  0.00000000000E+00 0.  1.
          4    1    1    2  501    0  0.33017457414E+01  0.23135076360E+01 -0.52048905444E+01  0.65836713240E+01  0.00000000000E+00 0.  1.
         -4    1    1    2    0  501 -0.33017457414E+01 -0.23135076360E+01  0.15057794224E+01  0.43036280266E+01  0.00000000000E+00 0. -1.
<mgrwt>
<rscale>  0 0.40316055E+01</rscale>
<asrwt>0</asrwt>
<pdfrwt beam="1">0</pdfrwt>
<pdfrwt beam="2">0</pdfrwt>
<totfact> 0.52841512E+11</totfact>
</mgrwt>
</event>
<event>
 4    2  0.1060494E+006  0.6329578E+01  0.7546771E-02  0.1991334E+00
         22   -1    0    0    0    0  0.00000000000E+00  0.00000000000E+00  0.55460826608E+01  0.55460826608E+01  0.00000000000E+00 0.  1.
         22   -1    0    0    0    0 -0.00000000000E+00 -0.00000000000E+00 -0.83978562548E+01  0.83978562548E+01  0.00000000000E+00 0. -1.
          4    1    1    2  501    0 -0.62935577011E+01 -0.67430402355E+00 -0.40327823437E+01  0.75051241086E+01  0.00000000000E+00 0. -1.
         -4    1    1    2    0  501  0.62935577011E+01  0.67430402355E+00  0.11810087497E+01  0.64388148071E+01  0.00000000000E+00 0.  1.
<mgrwt>
<rscale>  0 0.63295777E+01</rscale>
<asrwt>0</asrwt>
<pdfrwt beam="1">0</pdfrwt>
<pdfrwt beam="2">0</pdfrwt>
<totfact> 0.26734440E+11</totfact>
</mgrwt>
</event>
<event>
 4    2  0.1060494E+006  0.5114838E+01  0.7546771E-02  0.2109541E+00
         22   -1    0    0    0    0  0.00000000000E+00  0.00000000000E+00  0.11695936377E+01  0.11695936377E+01  0.00000000000E+00 0. -1.
         22   -1    0    0    0    0 -0.00000000000E+00 -0.00000000000E+00 -0.40416247065E+02  0.40416247065E+02  0.00000000000E+00 0.  1.
          4    1    1    2  501    0  0.36752041766E+01 -0.35573082091E+01 -0.33518181571E+02  0.33906195057E+02  0.00000000000E+00 0.  1.
         -4    1    1    2    0  501 -0.36752041766E+01  0.35573082091E+01 -0.57284718569E+01  0.76796456461E+01  0.00000000000E+00 0. -1.
<mgrwt>
<rscale>  0 0.51148380E+01</rscale>
<asrwt>0</asrwt>
<pdfrwt beam="1">0</pdfrwt>
<pdfrwt beam="2">0</pdfrwt>
<totfact> 0.23156524E+11</totfact>
</mgrwt>
</event>
<event>
 4    2  0.1060494E+006  0.3298563E+01  0.7546771E-02  0.2435495E+00
         22   -1    0    0    0    0  0.00000000000E+00  0.00000000000E+00  0.57129959112E+02  0.57129959112E+02  0.00000000000E+00 0.  1.
         22   -1    0    0    0    0 -0.00000000000E+00 -0.00000000000E+00 -0.19234586526E+00  0.19234586526E+00  0.00000000000E+00 0. -1.
          4    1    1    2  501    0  0.18444633724E+01 -0.27346797721E+01  0.25624872676E+02  0.25836304269E+02  0.00000000000E+00 0. -1.
         -4    1    1    2    0  501 -0.18444633724E+01  0.27346797721E+01  0.31312740570E+02  0.31486000708E+02  0.00000000000E+00 0.  1.
<mgrwt>
<rscale>  0 0.32985631E+01</rscale>
<asrwt>0</asrwt>
<pdfrwt beam="1">0</pdfrwt>
<pdfrwt beam="2">0</pdfrwt>
<totfact> 0.11272487E+12</totfact>
</mgrwt>
</event>
<event>
 4    2  0.1060494E+006  0.3181242E+01  0.7546771E-02  0.2467833E+00
         22   -1    0    0    0    0  0.00000000000E+00  0.00000000000E+00  0.66458389894E+02  0.66458389894E+02  0.00000000000E+00 0.  1.
         22   -1    0    0    0    0 -0.00000000000E+00 -0.00000000000E+00 -0.17874612919E+00  0.17874612919E+00  0.00000000000E+00 0. -1.
          4    1    1    2  501    0 -0.21153243473E+01 -0.23760688796E+01  0.20319139400E+02  0.20566665417E+02  0.00000000000E+00 0. -1.
         -4    1    1    2    0  501  0.21153243473E+01  0.23760688796E+01  0.45960504365E+02  0.46070470606E+02  0.00000000000E+00 0.  1.
<mgrwt>
<rscale>  0 0.31812420E+01</rscale>
<asrwt>0</asrwt>
<pdfrwt beam="1">0</pdfrwt>
<pdfrwt beam="2">0</pdfrwt>
<totfact> 0.99860729E+11</totfact>
</mgrwt>
</event>
<event>
 4    2  0.1060494E+006  0.2336180E+01  0.7546771E-02  0.2785477E+00
         22   -1    0    0    0    0  0.00000000000E+00  0.00000000000E+00  0.11410978790E+02  0.11410978790E+02  0.00000000000E+00 0. -1.
         22   -1    0    0    0    0 -0.00000000000E+00 -0.00000000000E+00 -0.98036709895E+00  0.98036709895E+00  0.00000000000E+00 0.  1.
          4    1    1    2  501    0 -0.16837129174E+01  0.16195211167E+01  0.78146546182E+00  0.24634175658E+01  0.00000000000E+00 0.  1.
         -4    1    1    2    0  501  0.16837129174E+01 -0.16195211167E+01  0.96491462291E+01  0.99279283230E+01  0.00000000000E+00 0. -1.
<mgrwt>
<rscale>  0 0.23361802E+01</rscale>
<asrwt>0</asrwt>
<pdfrwt beam="1">0</pdfrwt>
<pdfrwt beam="2">0</pdfrwt>
<totfact> 0.13828026E+12</totfact>
</mgrwt>
</event>
<event>
 4    2  0.1060494E+006  0.2545872E+01  0.7546771E-02  0.2688646E+00
         22   -1    0    0    0    0  0.00000000000E+00  0.00000000000E+00  0.63667749366E+01  0.63667749366E+01  0.00000000000E+00 0.  1.
         22   -1    0    0    0    0 -0.00000000000E+00 -0.00000000000E+00 -0.18709806396E+01  0.18709806396E+01  0.00000000000E+00 0. -1.
          4    1    1    2  501    0  0.13740094515E+01  0.21432594462E+01 -0.53316312876E+00  0.26011009109E+01  0.00000000000E+00 0. -1.
         -4    1    1    2    0  501 -0.13740094515E+01 -0.21432594462E+01  0.50289574258E+01  0.56366546654E+01  0.00000000000E+00 0.  1.
<mgrwt>
<rscale>  0 0.25458718E+01</rscale>
<asrwt>0</asrwt>
<pdfrwt beam="1">0</pdfrwt>
<pdfrwt beam="2">0</pdfrwt>
<totfact> 0.13291811E+12</totfact>
</mgrwt>
</event>
<event>
 4    2  0.1060494E+006  0.2945211E+01  0.7546771E-02  0.2539782E+00
         22   -1    0    0    0    0  0.00000000000E+00  0.00000000000E+00  0.75726745877E+00  0.75726745877E+00  0.00000000000E+00 0.  1.
         22   -1    0    0    0    0 -0.00000000000E+00 -0.00000000000E+00 -0.13374097042E+02  0.13374097042E+02  0.00000000000E+00 0. -1.
          4    1    1    2  501    0 -0.77901973098E+00 -0.28403161744E+01 -0.36316830229E+01  0.46758303317E+01  0.00000000000E+00 0.  1.
         -4    1    1    2    0  501  0.77901973098E+00  0.28403161744E+01 -0.89851465606E+01  0.94555341694E+01  0.00000000000E+00 0. -1.
<mgrwt>
<rscale>  0 0.29452110E+01</rscale>
<asrwt>0</asrwt>
<pdfrwt beam="1">0</pdfrwt>
<pdfrwt beam="2">0</pdfrwt>
<totfact> 0.15287863E+12</totfact>
</mgrwt>
</event>
<event>
 4    2  0.1060494E+006  0.2686434E+01  0.7546771E-02  0.2631638E+00
         22   -1    0    0    0    0  0.00000000000E+00  0.00000000000E+00  0.74320719265E+01  0.74320719265E+01  0.00000000000E+00 0. -1.
         22   -1    0    0    0    0 -0.00000000000E+00 -0.00000000000E+00 -0.10255183870E+01  0.10255183870E+01  0.00000000000E+00 0.  1.
          4    1    1    2  501    0  0.24985578403E+01  0.98698379191E+00  0.22287153435E+01  0.34905730718E+01  0.00000000000E+00 0.  1.
         -4    1    1    2    0  501 -0.24985578403E+01 -0.98698379191E+00  0.41778381961E+01  0.49670172417E+01  0.00000000000E+00 0. -1.
<mgrwt>
<rscale>  0 0.26864341E+01</rscale>
<asrwt>0</asrwt>
<pdfrwt beam="1">0</pdfrwt>
<pdfrwt beam="2">0</pdfrwt>
<totfact> 0.22043517E+12</totfact>
</mgrwt>
</event>
<event>
 4    2  0.1060494E+006  0.8766973E+01  0.7546771E-02  0.1834953E+00
         22   -1    0    0    0    0  0.00000000000E+00  0.00000000000E+00  0.10038270832E+02  0.10038270832E+02  0.00000000000E+00 0.  1.
         22   -1    0    0    0    0 -0.00000000000E+00 -0.00000000000E+00 -0.80420465211E+01  0.80420465211E+01  0.00000000000E+00 0. -1.
          4    1    1    2  501    0  0.56945665165E+01  0.66657123685E+01  0.29770437529E+01  0.92586499392E+01  0.00000000000E+00 0.  1.
         -4    1    1    2    0  501 -0.56945665165E+01 -0.66657123685E+01 -0.98081944157E+00  0.88216674142E+01  0.00000000000E+00 0. -1.
<mgrwt>
<rscale>  0 0.87669726E+01</rscale>
<asrwt>0</asrwt>
<pdfrwt beam="1">0</pdfrwt>
<pdfrwt beam="2">0</pdfrwt>
<totfact> 0.13828259E+11</totfact>
</mgrwt>
</event>
<event>
 4    2  0.1060494E+006  0.2931101E+01  0.7546771E-02  0.2544411E+00
         22   -1    0    0    0    0  0.00000000000E+00  0.00000000000E+00  0.30109488666E+02  0.30109488666E+02  0.00000000000E+00 0. -1.
         22   -1    0    0    0    0 -0.00000000000E+00 -0.00000000000E+00 -0.28550099796E+00  0.28550099796E+00  0.00000000000E+00 0.  1.
          4    1    1    2  501    0 -0.21714770369E+01  0.19687656484E+01  0.15276250894E+02  0.15554908938E+02  0.00000000000E+00 0.  1.
         -4    1    1    2    0  501  0.21714770369E+01 -0.19687656484E+01  0.14547736774E+02  0.14840080726E+02  0.00000000000E+00 0. -1.
<mgrwt>
<rscale>  0 0.29311006E+01</rscale>
<asrwt>0</asrwt>
<pdfrwt beam="1">0</pdfrwt>
<pdfrwt beam="2">0</pdfrwt>
<totfact> 0.16689929E+12</totfact>
</mgrwt>
</event>
<event>
 4    2  0.1060494E+006  0.2951675E+01  0.7546771E-02  0.2537675E+00
         22   -1    0    0    0    0  0.00000000000E+00  0.00000000000E+00  0.12581131827E+02  0.12581131827E+02  0.00000000000E+00 0. -1.
         22   -1    0    0    0    0 -0.00000000000E+00 -0.00000000000E+00 -0.16204010467E+01  0.16204010467E+01  0.00000000000E+00 0.  1.
          4    1    1    2  501    0  0.28436733133E+01  0.79114228446E+00  0.10700798645E+00  0.29536138434E+01  0.00000000000E+00 0.  1.
         -4    1    1    2    0  501 -0.28436733133E+01 -0.79114228446E+00  0.10853722794E+02  0.11247919030E+02  0.00000000000E+00 0. -1.
<mgrwt>
<rscale>  0 0.29516748E+01</rscale>
<asrwt>0</asrwt>
<pdfrwt beam="1">0</pdfrwt>
<pdfrwt beam="2">0</pdfrwt>
<totfact> 0.68992773E+11</totfact>
</mgrwt>
</event>
<event>
 4    2  0.1060494E+006  0.2572670E+01  0.7546771E-02  0.2677334E+00
         22   -1    0    0    0    0  0.00000000000E+00  0.00000000000E+00  0.57770344210E+00  0.57770344210E+00  0.00000000000E+00 0. -1.
         22   -1    0    0    0    0 -0.00000000000E+00 -0.00000000000E+00 -0.23482053639E+02  0.23482053639E+02  0.00000000000E+00 0.  1.
          4    1    1    2  501    0 -0.18353891456E+01 -0.18027687250E+01 -0.20060932413E+02  0.20225222808E+02  0.00000000000E+00 0.  1.
         -4    1    1    2    0  501  0.18353891456E+01  0.18027687250E+01 -0.28434177845E+01  0.38345342727E+01  0.00000000000E+00 0. -1.
<mgrwt>
<rscale>  0 0.25726695E+01</rscale>
<asrwt>0</asrwt>
<pdfrwt beam="1">0</pdfrwt>
<pdfrwt beam="2">0</pdfrwt>
<totfact> 0.10338490E+12</totfact>
</mgrwt>
</event>
<event>
 4    2  0.1060494E+006  0.5861322E+01  0.7546771E-02  0.2032352E+00
         22   -1    0    0    0    0  0.00000000000E+00  0.00000000000E+00  0.59700143253E+00  0.59700143253E+00  0.00000000000E+00 0. -1.
         22   -1    0    0    0    0 -0.00000000000E+00 -0.00000000000E+00 -0.57586711441E+02  0.57586711441E+02  0.00000000000E+00 0.  1.
          4    1    1    2  501    0  0.58015502527E+01 -0.83493135814E+00 -0.29267553338E+02  0.29848698031E+02  0.00000000000E+00 0.  1.
         -4    1    1    2    0  501 -0.58015502527E+01  0.83493135814E+00 -0.27722156670E+02  0.28335014843E+02  0.00000000000E+00 0. -1.
<mgrwt>
<rscale>  0 0.58613220E+01</rscale>
<asrwt>0</asrwt>
<pdfrwt beam="1">0</pdfrwt>
<pdfrwt beam="2">0</pdfrwt>
<totfact> 0.31252894E+11</totfact>
</mgrwt>
</event>
<event>
 4    2  0.1060494E+006  0.3211723E+01  0.7546771E-02  0.2459231E+00
         22   -1    0    0    0    0  0.00000000000E+00  0.00000000000E+00  0.20080066504E+00  0.20080066504E+00  0.00000000000E+00 0.  1.
         22   -1    0    0    0    0 -0.00000000000E+00 -0.00000000000E+00 -0.51861066005E+02  0.51861066005E+02  0.00000000000E+00 0. -1.
          4    1    1    2  501    0  0.31048374798E+01  0.82167447331E+00 -0.23297554551E+02  0.23517891333E+02  0.00000000000E+00 0.  1.
         -4    1    1    2    0  501 -0.31048374798E+01 -0.82167447331E+00 -0.28362710789E+02  0.28543975336E+02  0.00000000000E+00 0. -1.
<mgrwt>
<rscale>  0 0.32117230E+01</rscale>
<asrwt>0</asrwt>
<pdfrwt beam="1">0</pdfrwt>
<pdfrwt beam="2">0</pdfrwt>
<totfact> 0.12217321E+12</totfact>
</mgrwt>
</event>
<event>
 4    2  0.1060494E+006  0.2353859E+01  0.7546771E-02  0.2776689E+00
         22   -1    0    0    0    0  0.00000000000E+00  0.00000000000E+00  0.44330338883E+00  0.44330338883E+00  0.00000000000E+00 0.  1.
         22   -1    0    0    0    0 -0.00000000000E+00 -0.00000000000E+00 -0.13809631625E+02  0.13809631625E+02  0.00000000000E+00 0. -1.
          4    1    1    2  501    0  0.23423353011E+00 -0.23421756999E+01 -0.88789858917E+01  0.91856977318E+01  0.00000000000E+00 0.  1.
         -4    1    1    2    0  501 -0.23423353011E+00  0.23421756999E+01 -0.44873423449E+01  0.50672372824E+01  0.00000000000E+00 0. -1.
<mgrwt>
<rscale>  0 0.23538590E+01</rscale>
<asrwt>0</asrwt>
<pdfrwt beam="1">0</pdfrwt>
<pdfrwt beam="2">0</pdfrwt>
<totfact> 0.26944773E+12</totfact>
</mgrwt>
</event>
<event>
 4    2  0.1060494E+006  0.2032688E+01  0.7546771E-02  0.2959004E+00
         22   -1    0    0    0    0  0.00000000000E+00  0.00000000000E+00  0.17378291954E+01  0.17378291954E+01  0.00000000000E+00 0.  1.
         22   -1    0    0    0    0 -0.00000000000E+00 -0.00000000000E+00 -0.36249539813E+01  0.36249539813E+01  0.00000000000E+00 0. -1.
          4    1    1    2  501    0  0.13928511611E+01 -0.14804679266E+01 -0.25164879383E+01  0.32348927621E+01  0.00000000000E+00 0. -1.
         -4    1    1    2    0  501 -0.13928511611E+01  0.14804679266E+01  0.62936315238E+00  0.21278904145E+01  0.00000000000E+00 0.  1.
<mgrwt>
<rscale>  0 0.20326878E+01</rscale>
<asrwt>0</asrwt>
<pdfrwt beam="1">0</pdfrwt>
<pdfrwt beam="2">0</pdfrwt>
<totfact> 0.28178237E+12</totfact>
</mgrwt>
</event>
<event>
 4    2  0.1060494E+006  0.2348189E+01  0.7546771E-02  0.2779494E+00
         22   -1    0    0    0    0  0.00000000000E+00  0.00000000000E+00  0.15032682381E+03  0.15032682381E+03  0.00000000000E+00 0.  1.
         22   -1    0    0    0    0 -0.00000000000E+00 -0.00000000000E+00 -0.44538969982E-01  0.44538969982E-01  0.00000000000E+00 0. -1.
          4    1    1    2  501    0  0.12288892434E+01  0.20009556825E+01  0.10672368133E+03  0.10674951124E+03  0.00000000000E+00 0.  1.
         -4    1    1    2    0  501 -0.12288892434E+01 -0.20009556825E+01  0.43558603509E+02  0.43621851543E+02  0.00000000000E+00 0. -1.
<mgrwt>
<rscale>  0 0.23481892E+01</rscale>
<asrwt>0</asrwt>
<pdfrwt beam="1">0</pdfrwt>
<pdfrwt beam="2">0</pdfrwt>
<totfact> 0.14673880E+12</totfact>
</mgrwt>
</event>
<event>
 4    2  0.1060494E+006  0.2156741E+01  0.7546771E-02  0.2882399E+00
         22   -1    0    0    0    0  0.00000000000E+00  0.00000000000E+00  0.92735953930E+01  0.92735953930E+01  0.00000000000E+00 0.  1.
         22   -1    0    0    0    0 -0.00000000000E+00 -0.00000000000E+00 -0.69389280967E+00  0.69389280967E+00  0.00000000000E+00 0. -1.
          4    1    1    2  501    0 -0.99831167066E+00 -0.19117812737E+01  0.16662161614E+01  0.27254009112E+01  0.00000000000E+00 0. -1.
         -4    1    1    2    0  501  0.99831167066E+00  0.19117812737E+01  0.69134864220E+01  0.72420872915E+01  0.00000000000E+00 0.  1.
<mgrwt>
<rscale>  0 0.21567415E+01</rscale>
<asrwt>0</asrwt>
<pdfrwt beam="1">0</pdfrwt>
<pdfrwt beam="2">0</pdfrwt>
<totfact> 0.26349684E+12</totfact>
</mgrwt>
</event>
<event>
 4    2  0.1060494E+006  0.2091010E+01  0.7546771E-02  0.2921890E+00
         22   -1    0    0    0    0  0.00000000000E+00  0.00000000000E+00  0.37729686878E+02  0.37729686878E+02  0.00000000000E+00 0.  1.
         22   -1    0    0    0    0 -0.00000000000E+00 -0.00000000000E+00 -0.30508761958E+00  0.30508761958E+00  0.00000000000E+00 0. -1.
          4    1    1    2  501    0  0.20909875887E+01  0.97390018509E-02  0.33688496723E+02  0.33753327768E+02  0.00000000000E+00 0.  1.
         -4    1    1    2    0  501 -0.20909875887E+01 -0.97390018509E-02  0.37361025349E+01  0.42814467293E+01  0.00000000000E+00 0. -1.
<mgrwt>
<rscale>  0 0.20910103E+01</rscale>
<asrwt>0</asrwt>
<pdfrwt beam="1">0</pdfrwt>
<pdfrwt beam="2">0</pdfrwt>
<totfact> 0.11596991E+12</totfact>
</mgrwt>
</event>
<event>
 4    2  0.1060494E+006  0.2356271E+01  0.7546771E-02  0.2775499E+00
         22   -1    0    0    0    0  0.00000000000E+00  0.00000000000E+00  0.28553059587E+00  0.28553059587E+00  0.00000000000E+00 0. -1.
         22   -1    0    0    0    0 -0.00000000000E+00 -0.00000000000E+00 -0.93226380536E+02  0.93226380536E+02  0.00000000000E+00 0.  1.
          4    1    1    2  501    0 -0.56037317866E+00  0.22886668872E+01 -0.88065531005E+02  0.88097047428E+02  0.00000000000E+00 0.  1.
         -4    1    1    2    0  501  0.56037317866E+00 -0.22886668872E+01 -0.48753189354E+01  0.54148637048E+01  0.00000000000E+00 0. -1.
<mgrwt>
<rscale>  0 0.23562713E+01</rscale>
<asrwt>0</asrwt>
<pdfrwt beam="1">0</pdfrwt>
<pdfrwt beam="2">0</pdfrwt>
<totfact> 0.37183009E+11</totfact>
</mgrwt>
</event>
<event>
 4    2  0.1060494E+006  0.2155567E+01  0.7546771E-02  0.2883085E+00
         22   -1    0    0    0    0  0.00000000000E+00  0.00000000000E+00  0.32650282335E+01  0.32650282335E+01  0.00000000000E+00 0. -1.
         22   -1    0    0    0    0 -0.00000000000E+00 -0.00000000000E+00 -0.15170961444E+01  0.15170961444E+01  0.00000000000E+00 0.  1.
          4    1    1    2  501    0 -0.17885319747E+01  0.12031709516E+01  0.27880348797E+00  0.21735221067E+01  0.00000000000E+00 0.  1.
         -4    1    1    2    0  501  0.17885319747E+01 -0.12031709516E+01  0.14691286011E+01  0.26086022713E+01  0.00000000000E+00 0. -1.
<mgrwt>
<rscale>  0 0.21555665E+01</rscale>
<asrwt>0</asrwt>
<pdfrwt beam="1">0</pdfrwt>
<pdfrwt beam="2">0</pdfrwt>
<totfact> 0.37252189E+12</totfact>
</mgrwt>
</event>
<event>
 4    2  0.1060494E+006  0.2227992E+01  0.7546771E-02  0.2842130E+00
         22   -1    0    0    0    0  0.00000000000E+00  0.00000000000E+00  0.40772368409E+01  0.40772368409E+01  0.00000000000E+00 0. -1.
         22   -1    0    0    0    0 -0.00000000000E+00 -0.00000000000E+00 -0.20913645666E+01  0.20913645666E+01  0.00000000000E+00 0.  1.
          4    1    1    2  501    0 -0.19941047688E+01 -0.99372866467E+00 -0.10008065515E+01  0.24424504583E+01  0.00000000000E+00 0.  1.
         -4    1    1    2    0  501  0.19941047688E+01  0.99372866467E+00  0.29866788257E+01  0.37261509492E+01  0.00000000000E+00 0. -1.
<mgrwt>
<rscale>  0 0.22279925E+01</rscale>
<asrwt>0</asrwt>
<pdfrwt beam="1">0</pdfrwt>
<pdfrwt beam="2">0</pdfrwt>
<totfact> 0.19811513E+12</totfact>
</mgrwt>
</event>
<event>
 4    2  0.1060494E+006  0.3227914E+01  0.7546771E-02  0.2454720E+00
         22   -1    0    0    0    0  0.00000000000E+00  0.00000000000E+00  0.11902818702E+02  0.11902818702E+02  0.00000000000E+00 0.  1.
         22   -1    0    0    0    0 -0.00000000000E+00 -0.00000000000E+00 -0.17141897776E+01  0.17141897776E+01  0.00000000000E+00 0. -1.
          4    1    1    2  501    0  0.19082123466E+01  0.26034887521E+01  0.33159129264E+00  0.32449007423E+01  0.00000000000E+00 0. -1.
         -4    1    1    2    0  501 -0.19082123466E+01 -0.26034887521E+01  0.98570376322E+01  0.10372107738E+02  0.00000000000E+00 0.  1.
<mgrwt>
<rscale>  0 0.32279139E+01</rscale>
<asrwt>0</asrwt>
<pdfrwt beam="1">0</pdfrwt>
<pdfrwt beam="2">0</pdfrwt>
<totfact> 0.69183253E+11</totfact>
</mgrwt>
</event>
<event>
 4    2  0.1060494E+006  0.2429487E+01  0.7546771E-02  0.2740457E+00
         22   -1    0    0    0    0  0.00000000000E+00  0.00000000000E+00  0.22527417421E+00  0.22527417421E+00  0.00000000000E+00 0. -1.
         22   -1    0    0    0    0 -0.00000000000E+00 -0.00000000000E+00 -0.47330949879E+02  0.47330949879E+02  0.00000000000E+00 0.  1.
          4    1    1    2  501    0  0.12882338475E+01 -0.20598207323E+01 -0.39440281605E+02  0.39515037909E+02  0.00000000000E+00 0.  1.
         -4    1    1    2    0  501 -0.12882338475E+01  0.20598207323E+01 -0.76653940992E+01  0.80411861433E+01  0.00000000000E+00 0. -1.
<mgrwt>
<rscale>  0 0.24294872E+01</rscale>
<asrwt>0</asrwt>
<pdfrwt beam="1">0</pdfrwt>
<pdfrwt beam="2">0</pdfrwt>
<totfact> 0.12120472E+12</totfact>
</mgrwt>
</event>
<event>
 4    2  0.1060494E+006  0.4088936E+01  0.7546771E-02  0.2260610E+00
         22   -1    0    0    0    0  0.00000000000E+00  0.00000000000E+00  0.26473919782E+02  0.26473919782E+02  0.00000000000E+00 0. -1.
         22   -1    0    0    0    0 -0.00000000000E+00 -0.00000000000E+00 -0.81958862869E+00  0.81958862869E+00  0.00000000000E+00 0.  1.
          4    1    1    2  501    0 -0.96598731990E+00  0.39731930792E+01  0.62903824839E+01  0.75025533347E+01  0.00000000000E+00 0.  1.
         -4    1    1    2    0  501  0.96598731990E+00 -0.39731930792E+01  0.19363948669E+02  0.19790955076E+02  0.00000000000E+00 0. -1.
<mgrwt>
<rscale>  0 0.40889356E+01</rscale>
<asrwt>0</asrwt>
<pdfrwt beam="1">0</pdfrwt>
<pdfrwt beam="2">0</pdfrwt>
<totfact> 0.59760276E+11</totfact>
</mgrwt>
</event>
<event>
 4    2  0.1060494E+006  0.3480812E+01  0.7546771E-02  0.2389086E+00
         22   -1    0    0    0    0  0.00000000000E+00  0.00000000000E+00  0.23878815618E+02  0.23878815618E+02  0.00000000000E+00 0.  1.
         22   -1    0    0    0    0 -0.00000000000E+00 -0.00000000000E+00 -0.53685320335E+00  0.53685320335E+00  0.00000000000E+00 0. -1.
          4    1    1    2  501    0 -0.19078026669E+01 -0.29114150926E+01  0.14530522173E+02  0.14941623857E+02  0.00000000000E+00 0.  1.
         -4    1    1    2    0  501  0.19078026669E+01  0.29114150926E+01  0.88114402408E+01  0.94740449637E+01  0.00000000000E+00 0. -1.
<mgrwt>
<rscale>  0 0.34808115E+01</rscale>
<asrwt>0</asrwt>
<pdfrwt beam="1">0</pdfrwt>
<pdfrwt beam="2">0</pdfrwt>
<totfact> 0.10998652E+12</totfact>
</mgrwt>
</event>
<event>
 4    2  0.1060494E+006  0.2298565E+01  0.7546771E-02  0.2804599E+00
         22   -1    0    0    0    0  0.00000000000E+00  0.00000000000E+00  0.65383739285E+00  0.65383739285E+00  0.00000000000E+00 0. -1.
         22   -1    0    0    0    0 -0.00000000000E+00 -0.00000000000E+00 -0.80939653276E+01  0.80939653276E+01  0.00000000000E+00 0.  1.
          4    1    1    2  501    0 -0.10103025390E+01 -0.20646284619E+01 -0.35423621383E+01  0.42227634820E+01  0.00000000000E+00 0.  1.
         -4    1    1    2    0  501  0.10103025390E+01  0.20646284619E+01 -0.38977657964E+01  0.45250392385E+01  0.00000000000E+00 0. -1.
<mgrwt>
<rscale>  0 0.22985652E+01</rscale>
<asrwt>0</asrwt>
<pdfrwt beam="1">0</pdfrwt>
<pdfrwt beam="2">0</pdfrwt>
<totfact> 0.33209636E+12</totfact>
</mgrwt>
</event>
<event>
 4    2  0.1060494E+006  0.2465028E+01  0.7546771E-02  0.2724152E+00
         22   -1    0    0    0    0  0.00000000000E+00  0.00000000000E+00  0.12718131491E+01  0.12718131491E+01  0.00000000000E+00 0. -1.
         22   -1    0    0    0    0 -0.00000000000E+00 -0.00000000000E+00 -0.50036973413E+01  0.50036973413E+01  0.00000000000E+00 0.  1.
          4    1    1    2  501    0  0.24440530841E+01 -0.32088939822E+00 -0.25327599671E+01  0.35342946305E+01  0.00000000000E+00 0. -1.
         -4    1    1    2    0  501 -0.24440530841E+01  0.32088939822E+00 -0.11991242250E+01  0.27412158600E+01  0.00000000000E+00 0.  1.
<mgrwt>
<rscale>  0 0.24650285E+01</rscale>
<asrwt>0</asrwt>
<pdfrwt beam="1">0</pdfrwt>
<pdfrwt beam="2">0</pdfrwt>
<totfact> 0.27600483E+12</totfact>
</mgrwt>
</event>
<event>
 4    2  0.1060494E+006  0.2247043E+01  0.7546771E-02  0.2831778E+00
         22   -1    0    0    0    0  0.00000000000E+00  0.00000000000E+00  0.35339455985E+01  0.35339455985E+01  0.00000000000E+00 0.  1.
         22   -1    0    0    0    0 -0.00000000000E+00 -0.00000000000E+00 -0.23981399165E+01  0.23981399165E+01  0.00000000000E+00 0. -1.
          4    1    1    2  501    0 -0.15579595346E+01 -0.16192484293E+01 -0.13178484527E+01  0.26049813687E+01  0.00000000000E+00 0. -1.
         -4    1    1    2    0  501  0.15579595346E+01  0.16192484293E+01  0.24536541346E+01  0.33271041462E+01  0.00000000000E+00 0.  1.
<mgrwt>
<rscale>  0 0.22470433E+01</rscale>
<asrwt>0</asrwt>
<pdfrwt beam="1">0</pdfrwt>
<pdfrwt beam="2">0</pdfrwt>
<totfact> 0.19995275E+12</totfact>
</mgrwt>
</event>
<event>
 4    2  0.1060494E+006  0.3000449E+01  0.7546771E-02  0.2522038E+00
         22   -1    0    0    0    0  0.00000000000E+00  0.00000000000E+00  0.75760919053E+01  0.75760919053E+01  0.00000000000E+00 0. -1.
         22   -1    0    0    0    0 -0.00000000000E+00 -0.00000000000E+00 -0.13997539310E+01  0.13997539310E+01  0.00000000000E+00 0.  1.
          4    1    1    2  501    0 -0.25787685773E+01 -0.15338337615E+01  0.48324813334E+01  0.56881956032E+01  0.00000000000E+00 0.  1.
         -4    1    1    2    0  501  0.25787685773E+01  0.15338337615E+01  0.13438566409E+01  0.32876502330E+01  0.00000000000E+00 0. -1.
<mgrwt>
<rscale>  0 0.30004489E+01</rscale>
<asrwt>0</asrwt>
<pdfrwt beam="1">0</pdfrwt>
<pdfrwt beam="2">0</pdfrwt>
<totfact> 0.15083282E+12</totfact>
</mgrwt>
</event>
<event>
 4    2  0.1060494E+006  0.2021790E+01  0.7546771E-02  0.2966170E+00
         22   -1    0    0    0    0  0.00000000000E+00  0.00000000000E+00  0.56670386069E+01  0.56670386069E+01  0.00000000000E+00 0.  1.
         22   -1    0    0    0    0 -0.00000000000E+00 -0.00000000000E+00 -0.30601877637E+01  0.30601877637E+01  0.00000000000E+00 0. -1.
          4    1    1    2  501    0  0.18926045989E+01  0.71111415424E+00 -0.25114195170E+01  0.32241066202E+01  0.00000000000E+00 0. -1.
         -4    1    1    2    0  501 -0.18926045989E+01 -0.71111415424E+00  0.51182703602E+01  0.55031197505E+01  0.00000000000E+00 0.  1.
<mgrwt>
<rscale>  0 0.20217902E+01</rscale>
<asrwt>0</asrwt>
<pdfrwt beam="1">0</pdfrwt>
<pdfrwt beam="2">0</pdfrwt>
<totfact> 0.86181668E+11</totfact>
</mgrwt>
</event>
<event>
 4    2  0.1060494E+006  0.3521052E+01  0.7546771E-02  0.2379407E+00
         22   -1    0    0    0    0  0.00000000000E+00  0.00000000000E+00  0.10274737121E+01  0.10274737121E+01  0.00000000000E+00 0.  1.
         22   -1    0    0    0    0 -0.00000000000E+00 -0.00000000000E+00 -0.25240210058E+02  0.25240210058E+02  0.00000000000E+00 0. -1.
          4    1    1    2  501    0 -0.28316381034E+01 -0.20927568261E+01 -0.21594979499E+02  0.21880149566E+02  0.00000000000E+00 0. -1.
         -4    1    1    2    0  501  0.28316381034E+01  0.20927568261E+01 -0.26177568471E+01  0.43875342041E+01  0.00000000000E+00 0.  1.
<mgrwt>
<rscale>  0 0.35210518E+01</rscale>
<asrwt>0</asrwt>
<pdfrwt beam="1">0</pdfrwt>
<pdfrwt beam="2">0</pdfrwt>
<totfact> 0.49052006E+11</totfact>
</mgrwt>
</event>
<event>
 4    2  0.1060494E+006  0.2300896E+01  0.7546771E-02  0.2803397E+00
         22   -1    0    0    0    0  0.00000000000E+00  0.00000000000E+00  0.37008561515E+02  0.37008561515E+02  0.00000000000E+00 0.  1.
         22   -1    0    0    0    0 -0.00000000000E+00 -0.00000000000E+00 -0.19955764959E+00  0.19955764959E+00  0.00000000000E+00 0. -1.
          4    1    1    2  501    0  0.19654131262E+01  0.11963577341E+01  0.85047937836E+01  0.88105412936E+01  0.00000000000E+00 0. -1.
         -4    1    1    2    0  501 -0.19654131262E+01 -0.11963577341E+01  0.28304210082E+02  0.28397577871E+02  0.00000000000E+00 0.  1.
<mgrwt>
<rscale>  0 0.23008956E+01</rscale>
<asrwt>0</asrwt>
<pdfrwt beam="1">0</pdfrwt>
<pdfrwt beam="2">0</pdfrwt>
<totfact> 0.19115754E+12</totfact>
</mgrwt>
</event>
<event>
 4    2  0.1060494E+006  0.3998246E+01  0.7546771E-02  0.2277630E+00
         22   -1    0    0    0    0  0.00000000000E+00  0.00000000000E+00  0.14017109097E+02  0.14017109097E+02  0.00000000000E+00 0.  1.
         22   -1    0    0    0    0 -0.00000000000E+00 -0.00000000000E+00 -0.12004329439E+01  0.12004329439E+01  0.00000000000E+00 0. -1.
          4    1    1    2  501    0  0.38804487544E+01 -0.96337166444E+00  0.47076710007E+01  0.61764175499E+01  0.00000000000E+00 0.  1.
         -4    1    1    2    0  501 -0.38804487544E+01  0.96337166444E+00  0.81090051520E+01  0.90411244906E+01  0.00000000000E+00 0. -1.
<mgrwt>
<rscale>  0 0.39982456E+01</rscale>
<asrwt>0</asrwt>
<pdfrwt beam="1">0</pdfrwt>
<pdfrwt beam="2">0</pdfrwt>
<totfact> 0.85317652E+11</totfact>
</mgrwt>
</event>
<event>
 4    2  0.1060494E+006  0.2946285E+01  0.7546771E-02  0.2539432E+00
         22   -1    0    0    0    0  0.00000000000E+00  0.00000000000E+00  0.13016469595E+02  0.13016469595E+02  0.00000000000E+00 0. -1.
         22   -1    0    0    0    0 -0.00000000000E+00 -0.00000000000E+00 -0.39222471160E+01  0.39222471160E+01  0.00000000000E+00 0.  1.
          4    1    1    2  501    0  0.19198605792E+01 -0.22348899674E+01 -0.31687094156E+01  0.43268137435E+01  0.00000000000E+00 0.  1.
         -4    1    1    2    0  501 -0.19198605792E+01  0.22348899674E+01  0.12262931895E+02  0.12611902968E+02  0.00000000000E+00 0. -1.
<mgrwt>
<rscale>  0 0.29462854E+01</rscale>
<asrwt>0</asrwt>
<pdfrwt beam="1">0</pdfrwt>
<pdfrwt beam="2">0</pdfrwt>
<totfact> 0.23658485E+11</totfact>
</mgrwt>
</event>
<event>
 4    2  0.1060494E+006  0.2666233E+01  0.7546771E-02  0.2639490E+00
         22   -1    0    0    0    0  0.00000000000E+00  0.00000000000E+00  0.38404835541E+01  0.38404835541E+01  0.00000000000E+00 0. -1.
         22   -1    0    0    0    0 -0.00000000000E+00 -0.00000000000E+00 -0.23369711966E+01  0.23369711966E+01  0.00000000000E+00 0.  1.
          4    1    1    2  501    0  0.22823442828E+01 -0.13782971494E+01  0.21602365071E+01  0.34315332176E+01  0.00000000000E+00 0. -1.
         -4    1    1    2    0  501 -0.22823442828E+01  0.13782971494E+01 -0.65672414957E+00  0.27459215330E+01  0.00000000000E+00 0.  1.
<mgrwt>
<rscale>  0 0.26662330E+01</rscale>
<asrwt>0</asrwt>
<pdfrwt beam="1">0</pdfrwt>
<pdfrwt beam="2">0</pdfrwt>
<totfact> 0.18687941E+12</totfact>
</mgrwt>
</event>
<event>
 4    2  0.1060494E+006  0.4408736E+01  0.7546771E-02  0.2205368E+00
         22   -1    0    0    0    0  0.00000000000E+00  0.00000000000E+00  0.92301958343E+01  0.92301958343E+01  0.00000000000E+00 0. -1.
         22   -1    0    0    0    0 -0.00000000000E+00 -0.00000000000E+00 -0.29703537998E+01  0.29703537998E+01  0.00000000000E+00 0.  1.
          4    1    1    2  501    0 -0.29167180088E+01  0.33060111029E+01 -0.16117938862E+00  0.44116813292E+01  0.00000000000E+00 0.  1.
         -4    1    1    2    0  501  0.29167180088E+01 -0.33060111029E+01  0.64210214231E+01  0.77888683049E+01  0.00000000000E+00 0. -1.
<mgrwt>
<rscale>  0 0.44087360E+01</rscale>
<asrwt>0</asrwt>
<pdfrwt beam="1">0</pdfrwt>
<pdfrwt beam="2">0</pdfrwt>
<totfact> 0.49759781E+11</totfact>
</mgrwt>
</event>
<event>
 4    2  0.1060494E+006  0.4590894E+01  0.7546771E-02  0.2176821E+00
         22   -1    0    0    0    0  0.00000000000E+00  0.00000000000E+00  0.15406498086E+02  0.15406498086E+02  0.00000000000E+00 0.  1.
         22   -1    0    0    0    0 -0.00000000000E+00 -0.00000000000E+00 -0.15243207587E+01  0.15243207587E+01  0.00000000000E+00 0. -1.
          4    1    1    2  501    0  0.23264237149E+01 -0.39577851726E+01  0.96518928641E+01  0.10688093686E+02  0.00000000000E+00 0.  1.
         -4    1    1    2    0  501 -0.23264237149E+01  0.39577851726E+01  0.42302844637E+01  0.62427251595E+01  0.00000000000E+00 0. -1.
<mgrwt>
<rscale>  0 0.45908943E+01</rscale>
<asrwt>0</asrwt>
<pdfrwt beam="1">0</pdfrwt>
<pdfrwt beam="2">0</pdfrwt>
<totfact> 0.57735928E+11</totfact>
</mgrwt>
</event>
<event>
 4    2  0.1060494E+006  0.2585413E+01  0.7546771E-02  0.2672031E+00
         22   -1    0    0    0    0  0.00000000000E+00  0.00000000000E+00  0.39123943216E+01  0.39123943216E+01  0.00000000000E+00 0. -1.
         22   -1    0    0    0    0 -0.00000000000E+00 -0.00000000000E+00 -0.24260799427E+01  0.24260799427E+01  0.00000000000E+00 0.  1.
          4    1    1    2  501    0  0.20616153033E+01 -0.15601614915E+01 -0.98043515088E+00  0.27650704554E+01  0.00000000000E+00 0.  1.
         -4    1    1    2    0  501 -0.20616153033E+01  0.15601614915E+01  0.24667495298E+01  0.35734038089E+01  0.00000000000E+00 0. -1.
<mgrwt>
<rscale>  0 0.25854132E+01</rscale>
<asrwt>0</asrwt>
<pdfrwt beam="1">0</pdfrwt>
<pdfrwt beam="2">0</pdfrwt>
<totfact> 0.17506682E+12</totfact>
</mgrwt>
</event>
<event>
 4    2  0.1060494E+006  0.2947615E+01  0.7546771E-02  0.2538998E+00
         22   -1    0    0    0    0  0.00000000000E+00  0.00000000000E+00  0.82103043655E+00  0.82103043655E+00  0.00000000000E+00 0.  1.
         22   -1    0    0    0    0 -0.00000000000E+00 -0.00000000000E+00 -0.12382763226E+02  0.12382763226E+02  0.00000000000E+00 0. -1.
          4    1    1    2  501    0  0.12673052579E+01 -0.26612720927E+01 -0.82982302837E+01  0.88061942750E+01  0.00000000000E+00 0. -1.
         -4    1    1    2    0  501 -0.12673052579E+01  0.26612720927E+01 -0.32635025059E+01  0.43975993877E+01  0.00000000000E+00 0.  1.
<mgrwt>
<rscale>  0 0.29476146E+01</rscale>
<asrwt>0</asrwt>
<pdfrwt beam="1">0</pdfrwt>
<pdfrwt beam="2">0</pdfrwt>
<totfact> 0.15321891E+12</totfact>
</mgrwt>
</event>
<event>
 4    2  0.1060494E+006  0.2000437E+01  0.7546771E-02  0.2980434E+00
         22   -1    0    0    0    0  0.00000000000E+00  0.00000000000E+00  0.25048274044E+01  0.25048274044E+01  0.00000000000E+00 0.  1.
         22   -1    0    0    0    0 -0.00000000000E+00 -0.00000000000E+00 -0.34270530039E+01  0.34270530039E+01  0.00000000000E+00 0. -1.
          4    1    1    2  501    0  0.12886652775E+01  0.15300626823E+01 -0.26281223252E+01  0.33028437695E+01  0.00000000000E+00 0. -1.
         -4    1    1    2    0  501 -0.12886652775E+01 -0.15300626823E+01  0.17058967257E+01  0.26290366388E+01  0.00000000000E+00 0.  1.
<mgrwt>
<rscale>  0 0.20004375E+01</rscale>
<asrwt>0</asrwt>
<pdfrwt beam="1">0</pdfrwt>
<pdfrwt beam="2">0</pdfrwt>
<totfact> 0.19704263E+12</totfact>
</mgrwt>
</event>
<event>
 4    2  0.1060494E+006  0.2659416E+01  0.7546771E-02  0.2642164E+00
         22   -1    0    0    0    0  0.00000000000E+00  0.00000000000E+00  0.50399284987E+01  0.50399284987E+01  0.00000000000E+00 0.  1.
         22   -1    0    0    0    0 -0.00000000000E+00 -0.00000000000E+00 -0.19029384880E+01  0.19029384880E+01  0.00000000000E+00 0. -1.
          4    1    1    2  501    0  0.20364666030E+01  0.17103497886E+01 -0.21030770837E+00  0.26677184928E+01  0.00000000000E+00 0. -1.
         -4    1    1    2    0  501 -0.20364666030E+01 -0.17103497886E+01  0.33472977191E+01  0.42751484939E+01  0.00000000000E+00 0.  1.
<mgrwt>
<rscale>  0 0.26594158E+01</rscale>
<asrwt>0</asrwt>
<pdfrwt beam="1">0</pdfrwt>
<pdfrwt beam="2">0</pdfrwt>
<totfact> 0.17206652E+12</totfact>
</mgrwt>
</event>
<event>
 4    2  0.1060494E+006  0.2823952E+01  0.7546771E-02  0.2580921E+00
         22   -1    0    0    0    0  0.00000000000E+00  0.00000000000E+00  0.40561172676E+00  0.40561172676E+00  0.00000000000E+00 0.  1.
         22   -1    0    0    0    0 -0.00000000000E+00 -0.00000000000E+00 -0.20151727528E+02  0.20151727528E+02  0.00000000000E+00 0. -1.
          4    1    1    2  501    0 -0.14887463261E+01  0.23996541494E+01 -0.11477152159E+02  0.11819463919E+02  0.00000000000E+00 0. -1.
         -4    1    1    2    0  501  0.14887463261E+01 -0.23996541494E+01 -0.82689636428E+01  0.87378753359E+01  0.00000000000E+00 0.  1.
<mgrwt>
<rscale>  0 0.28239521E+01</rscale>
<asrwt>0</asrwt>
<pdfrwt beam="1">0</pdfrwt>
<pdfrwt beam="2">0</pdfrwt>
<totfact> 0.18664089E+12</totfact>
</mgrwt>
</event>
<event>
 4    2  0.1060494E+006  0.2249093E+01  0.7546771E-02  0.2830674E+00
         22   -1    0    0    0    0  0.00000000000E+00  0.00000000000E+00  0.13585067536E+02  0.13585067536E+02  0.00000000000E+00 0.  1.
         22   -1    0    0    0    0 -0.00000000000E+00 -0.00000000000E+00 -0.54031124822E+00  0.54031124822E+00  0.00000000000E+00 0. -1.
          4    1    1    2  501    0 -0.21209957853E+01  0.74819566497E+00  0.25846044976E+01  0.34261640771E+01  0.00000000000E+00 0. -1.
         -4    1    1    2    0  501  0.21209957853E+01 -0.74819566497E+00  0.10460151790E+02  0.10699214707E+02  0.00000000000E+00 0.  1.
<mgrwt>
<rscale>  0 0.22490931E+01</rscale>
<asrwt>0</asrwt>
<pdfrwt beam="1">0</pdfrwt>
<pdfrwt beam="2">0</pdfrwt>
<totfact> 0.21987496E+12</totfact>
</mgrwt>
</event>
<event>
 4    2  0.1060494E+006  0.3959093E+01  0.7546771E-02  0.2285183E+00
         22   -1    0    0    0    0  0.00000000000E+00  0.00000000000E+00  0.23890549568E+02  0.23890549568E+02  0.00000000000E+00 0.  1.
         22   -1    0    0    0    0 -0.00000000000E+00 -0.00000000000E+00 -0.77620634877E+00  0.77620634877E+00  0.00000000000E+00 0. -1.
          4    1    1    2  501    0 -0.75342127518E+00 -0.38867432611E+01  0.67055211702E+01  0.77870681877E+01  0.00000000000E+00 0. -1.
         -4    1    1    2    0  501  0.75342127518E+00  0.38867432611E+01  0.16408822049E+02  0.16879687729E+02  0.00000000000E+00 0.  1.
<mgrwt>
<rscale>  0 0.39590929E+01</rscale>
<asrwt>0</asrwt>
<pdfrwt beam="1">0</pdfrwt>
<pdfrwt beam="2">0</pdfrwt>
<totfact> 0.72367768E+11</totfact>
</mgrwt>
</event>
<event>
 4    2  0.1060494E+006  0.2300036E+01  0.7546771E-02  0.2803840E+00
         22   -1    0    0    0    0  0.00000000000E+00  0.00000000000E+00  0.71054961583E-01  0.71054961583E-01  0.00000000000E+00 0.  1.
         22   -1    0    0    0    0 -0.00000000000E+00 -0.00000000000E+00 -0.10887771653E+03  0.10887771653E+03  0.00000000000E+00 0. -1.
          4    1    1    2  501    0 -0.16750776082E+01 -0.15761604779E+01 -0.85034660977E+02  0.85065761234E+02  0.00000000000E+00 0. -1.
         -4    1    1    2    0  501  0.16750776082E+01  0.15761604779E+01 -0.23772000590E+02  0.23883010257E+02  0.00000000000E+00 0.  1.
<mgrwt>
<rscale>  0 0.23000363E+01</rscale>
<asrwt>0</asrwt>
<pdfrwt beam="1">0</pdfrwt>
<pdfrwt beam="2">0</pdfrwt>
<totfact> 0.14019225E+12</totfact>
</mgrwt>
</event>
<event>
 4    2  0.1060494E+006  0.2582019E+01  0.7546771E-02  0.2673439E+00
         22   -1    0    0    0    0  0.00000000000E+00  0.00000000000E+00  0.22937620591E+02  0.22937620591E+02  0.00000000000E+00 0. -1.
         22   -1    0    0    0    0 -0.00000000000E+00 -0.00000000000E+00 -0.32949157815E+00  0.32949157815E+00  0.00000000000E+00 0.  1.
          4    1    1    2  501    0 -0.19227238310E+01  0.17233561699E+01  0.73097911000E+01  0.77524105505E+01  0.00000000000E+00 0.  1.
         -4    1    1    2    0  501  0.19227238310E+01 -0.17233561699E+01  0.15298337913E+02  0.15514701619E+02  0.00000000000E+00 0. -1.
<mgrwt>
<rscale>  0 0.25820193E+01</rscale>
<asrwt>0</asrwt>
<pdfrwt beam="1">0</pdfrwt>
<pdfrwt beam="2">0</pdfrwt>
<totfact> 0.20049435E+12</totfact>
</mgrwt>
</event>
<event>
 4    2  0.1060494E+006  0.4592390E+01  0.7546771E-02  0.2176594E+00
         22   -1    0    0    0    0  0.00000000000E+00  0.00000000000E+00  0.12571846911E+02  0.12571846911E+02  0.00000000000E+00 0. -1.
         22   -1    0    0    0    0 -0.00000000000E+00 -0.00000000000E+00 -0.17544824170E+01  0.17544824170E+01  0.00000000000E+00 0.  1.
          4    1    1    2  501    0 -0.43314569996E+00 -0.45719177999E+01  0.39088165225E+01  0.60306628303E+01  0.00000000000E+00 0.  1.
         -4    1    1    2    0  501  0.43314569996E+00  0.45719177999E+01  0.69085479712E+01  0.82956664975E+01  0.00000000000E+00 0. -1.
<mgrwt>
<rscale>  0 0.45923902E+01</rscale>
<asrwt>0</asrwt>
<pdfrwt beam="1">0</pdfrwt>
<pdfrwt beam="2">0</pdfrwt>
<totfact> 0.63005574E+11</totfact>
</mgrwt>
</event>
<event>
 4    2  0.1060494E+006  0.2302417E+01  0.7546771E-02  0.2802614E+00
         22   -1    0    0    0    0  0.00000000000E+00  0.00000000000E+00  0.12446185497E+02  0.12446185497E+02  0.00000000000E+00 0.  1.
         22   -1    0    0    0    0 -0.00000000000E+00 -0.00000000000E+00 -0.56033797347E+00  0.56033797347E+00  0.00000000000E+00 0. -1.
          4    1    1    2  501    0  0.21267431191E+01  0.88209246160E+00  0.27577791402E+01  0.35925574722E+01  0.00000000000E+00 0. -1.
         -4    1    1    2    0  501 -0.21267431191E+01 -0.88209246160E+00  0.91280683837E+01  0.94139659986E+01  0.00000000000E+00 0.  1.
<mgrwt>
<rscale>  0 0.23024169E+01</rscale>
<asrwt>0</asrwt>
<pdfrwt beam="1">0</pdfrwt>
<pdfrwt beam="2">0</pdfrwt>
<totfact> 0.23486631E+12</totfact>
</mgrwt>
</event>
<event>
 4    2  0.1060494E+006  0.2334598E+01  0.7546771E-02  0.2786269E+00
         22   -1    0    0    0    0  0.00000000000E+00  0.00000000000E+00  0.41064444787E+00  0.41064444787E+00  0.00000000000E+00 0.  1.
         22   -1    0    0    0    0 -0.00000000000E+00 -0.00000000000E+00 -0.19741998041E+02  0.19741998041E+02  0.00000000000E+00 0. -1.
          4    1    1    2  501    0 -0.38171606799E+00 -0.23031808946E+01 -0.15433818828E+02  0.15609391821E+02  0.00000000000E+00 0. -1.
         -4    1    1    2    0  501  0.38171606799E+00  0.23031808946E+01 -0.38975347645E+01  0.45432506677E+01  0.00000000000E+00 0.  1.
<mgrwt>
<rscale>  0 0.23345983E+01</rscale>
<asrwt>0</asrwt>
<pdfrwt beam="1">0</pdfrwt>
<pdfrwt beam="2">0</pdfrwt>
<totfact> 0.18883561E+12</totfact>
</mgrwt>
</event>
<event>
 4    2  0.1060494E+006  0.5781253E+01  0.7546771E-02  0.2039879E+00
         22   -1    0    0    0    0  0.00000000000E+00  0.00000000000E+00  0.19070294136E+02  0.19070294136E+02  0.00000000000E+00 0. -1.
         22   -1    0    0    0    0 -0.00000000000E+00 -0.00000000000E+00 -0.18137265289E+01  0.18137265289E+01  0.00000000000E+00 0.  1.
          4    1    1    2  501    0  0.44067530190E+01  0.37421128223E+01  0.67115564015E+01  0.88582091800E+01  0.00000000000E+00 0.  1.
         -4    1    1    2    0  501 -0.44067530190E+01 -0.37421128223E+01  0.10545011206E+02  0.12025811485E+02  0.00000000000E+00 0. -1.
<mgrwt>
<rscale>  0 0.57812525E+01</rscale>
<asrwt>0</asrwt>
<pdfrwt beam="1">0</pdfrwt>
<pdfrwt beam="2">0</pdfrwt>
<totfact> 0.36282478E+11</totfact>
</mgrwt>
</event>
<event>
 4    2  0.1060494E+006  0.2002769E+01  0.7546771E-02  0.2978861E+00
         22   -1    0    0    0    0  0.00000000000E+00  0.00000000000E+00  0.16156861049E+00  0.16156861049E+00  0.00000000000E+00 0. -1.
         22   -1    0    0    0    0 -0.00000000000E+00 -0.00000000000E+00 -0.27118553347E+02  0.27118553347E+02  0.00000000000E+00 0.  1.
          4    1    1    2  501    0 -0.19957734617E+01 -0.16725291697E+00 -0.17444493082E+02  0.17559083807E+02  0.00000000000E+00 0.  1.
         -4    1    1    2    0  501  0.19957734617E+01  0.16725291697E+00 -0.95124916545E+01  0.97210381507E+01  0.00000000000E+00 0. -1.
<mgrwt>
<rscale>  0 0.20027694E+01</rscale>
<asrwt>0</asrwt>
<pdfrwt beam="1">0</pdfrwt>
<pdfrwt beam="2">0</pdfrwt>
<totfact> 0.35992247E+12</totfact>
</mgrwt>
</event>
<event>
 4    2  0.1060494E+006  0.2132238E+01  0.7546771E-02  0.2896845E+00
         22   -1    0    0    0    0  0.00000000000E+00  0.00000000000E+00  0.28435477514E+01  0.28435477514E+01  0.00000000000E+00 0. -1.
         22   -1    0    0    0    0 -0.00000000000E+00 -0.00000000000E+00 -0.16033390772E+01  0.16033390772E+01  0.00000000000E+00 0.  1.
          4    1    1    2  501    0  0.15319987726E+01  0.14830439430E+01  0.73760099179E+00  0.22562124898E+01  0.00000000000E+00 0.  1.
         -4    1    1    2    0  501 -0.15319987726E+01 -0.14830439430E+01  0.50260768241E+00  0.21906743387E+01  0.00000000000E+00 0. -1.
<mgrwt>
<rscale>  0 0.21322382E+01</rscale>
<asrwt>0</asrwt>
<pdfrwt beam="1">0</pdfrwt>
<pdfrwt beam="2">0</pdfrwt>
<totfact> 0.41081686E+12</totfact>
</mgrwt>
</event>
<event>
 4    2  0.1060494E+006  0.2506257E+01  0.7546771E-02  0.2705778E+00
         22   -1    0    0    0    0  0.00000000000E+00  0.00000000000E+00  0.27076131529E+01  0.27076131529E+01  0.00000000000E+00 0. -1.
         22   -1    0    0    0    0 -0.00000000000E+00 -0.00000000000E+00 -0.11612600112E+02  0.11612600112E+02  0.00000000000E+00 0.  1.
          4    1    1    2  501    0 -0.24396137934E+01 -0.57411418983E+00 -0.10857599352E+02  0.11143104875E+02  0.00000000000E+00 0.  1.
         -4    1    1    2    0  501  0.24396137934E+01  0.57411418983E+00  0.19526123930E+01  0.31771083899E+01  0.00000000000E+00 0. -1.
<mgrwt>
<rscale>  0 0.25062567E+01</rscale>
<asrwt>0</asrwt>
<pdfrwt beam="1">0</pdfrwt>
<pdfrwt beam="2">0</pdfrwt>
<totfact> 0.41964302E+11</totfact>
</mgrwt>
</event>
<event>
 4    2  0.1060494E+006  0.2737917E+01  0.7546771E-02  0.2612107E+00
         22   -1    0    0    0    0  0.00000000000E+00  0.00000000000E+00  0.12297597018E+02  0.12297597018E+02  0.00000000000E+00 0.  1.
         22   -1    0    0    0    0 -0.00000000000E+00 -0.00000000000E+00 -0.94461280614E+00  0.94461280614E+00  0.00000000000E+00 0. -1.
          4    1    1    2  501    0  0.24800108121E+01  0.11600580640E+01  0.17332199359E+01  0.32404073334E+01  0.00000000000E+00 0. -1.
         -4    1    1    2    0  501 -0.24800108121E+01 -0.11600580640E+01  0.96197642762E+01  0.10001802491E+02  0.00000000000E+00 0.  1.
<mgrwt>
<rscale>  0 0.27379168E+01</rscale>
<asrwt>0</asrwt>
<pdfrwt beam="1">0</pdfrwt>
<pdfrwt beam="2">0</pdfrwt>
<totfact> 0.13169890E+12</totfact>
</mgrwt>
</event>
<event>
 4    2  0.1060494E+006  0.2364004E+01  0.7546771E-02  0.2771702E+00
         22   -1    0    0    0    0  0.00000000000E+00  0.00000000000E+00  0.21017094157E+00  0.21017094157E+00  0.00000000000E+00 0.  1.
         22   -1    0    0    0    0 -0.00000000000E+00 -0.00000000000E+00 -0.27541476629E+02  0.27541476629E+02  0.00000000000E+00 0. -1.
          4    1    1    2  501    0 -0.71717206576E+00  0.22525933726E+01 -0.11087010591E+02  0.11336239082E+02  0.00000000000E+00 0.  1.
         -4    1    1    2    0  501  0.71717206576E+00 -0.22525933726E+01 -0.16244295096E+02  0.16415408489E+02  0.00000000000E+00 0. -1.
<mgrwt>
<rscale>  0 0.23640035E+01</rscale>
<asrwt>0</asrwt>
<pdfrwt beam="1">0</pdfrwt>
<pdfrwt beam="2">0</pdfrwt>
<totfact> 0.26329306E+12</totfact>
</mgrwt>
</event>
<event>
 4    2  0.1060494E+006  0.2427931E+01  0.7546771E-02  0.2741182E+00
         22   -1    0    0    0    0  0.00000000000E+00  0.00000000000E+00  0.29178386834E+00  0.29178386834E+00  0.00000000000E+00 0. -1.
         22   -1    0    0    0    0 -0.00000000000E+00 -0.00000000000E+00 -0.20206183126E+02  0.20206183126E+02  0.00000000000E+00 0.  1.
          4    1    1    2  501    0  0.23565116217E+01  0.58455254656E+00 -0.10089979483E+02  0.10377983170E+02  0.00000000000E+00 0. -1.
         -4    1    1    2    0  501 -0.23565116217E+01 -0.58455254656E+00 -0.98244197747E+01  0.10119983825E+02  0.00000000000E+00 0.  1.
<mgrwt>
<rscale>  0 0.24279310E+01</rscale>
<asrwt>0</asrwt>
<pdfrwt beam="1">0</pdfrwt>
<pdfrwt beam="2">0</pdfrwt>
<totfact> 0.26929047E+12</totfact>
</mgrwt>
</event>
<event>
 4    2  0.1060494E+006  0.2980826E+01  0.7546771E-02  0.2528274E+00
         22   -1    0    0    0    0  0.00000000000E+00  0.00000000000E+00  0.51023662207E+02  0.51023662207E+02  0.00000000000E+00 0.  1.
         22   -1    0    0    0    0 -0.00000000000E+00 -0.00000000000E+00 -0.47195261163E+00  0.47195261163E+00  0.00000000000E+00 0. -1.
          4    1    1    2  501    0 -0.89330203123E+00 -0.28438241342E+01  0.48226349001E+01  0.56694913004E+01  0.00000000000E+00 0. -1.
         -4    1    1    2    0  501  0.89330203123E+00  0.28438241342E+01  0.45729074695E+02  0.45826123518E+02  0.00000000000E+00 0.  1.
<mgrwt>
<rscale>  0 0.29808261E+01</rscale>
<asrwt>0</asrwt>
<pdfrwt beam="1">0</pdfrwt>
<pdfrwt beam="2">0</pdfrwt>
<totfact> 0.47864032E+11</totfact>
</mgrwt>
</event>
<event>
 4    2  0.1060494E+006  0.2036873E+01  0.7546771E-02  0.2956272E+00
         22   -1    0    0    0    0  0.00000000000E+00  0.00000000000E+00  0.34220265414E+01  0.34220265414E+01  0.00000000000E+00 0. -1.
         22   -1    0    0    0    0 -0.00000000000E+00 -0.00000000000E+00 -0.16958253710E+01  0.16958253710E+01  0.00000000000E+00 0.  1.
          4    1    1    2  501    0  0.20360073592E+01 -0.59366219826E-01 -0.50316081816E+00  0.20980994075E+01  0.00000000000E+00 0.  1.
         -4    1    1    2    0  501 -0.20360073592E+01  0.59366219826E-01  0.22293619886E+01  0.30197525049E+01  0.00000000000E+00 0. -1.
<mgrwt>
<rscale>  0 0.20368727E+01</rscale>
<asrwt>0</asrwt>
<pdfrwt beam="1">0</pdfrwt>
<pdfrwt beam="2">0</pdfrwt>
<totfact> 0.31011182E+12</totfact>
</mgrwt>
</event>
<event>
 4    2  0.1060494E+006  0.2120726E+01  0.7546771E-02  0.2903744E+00
         22   -1    0    0    0    0  0.00000000000E+00  0.00000000000E+00  0.70314665197E+01  0.70314665197E+01  0.00000000000E+00 0. -1.
         22   -1    0    0    0    0 -0.00000000000E+00 -0.00000000000E+00 -0.66043362569E+00  0.66043362569E+00  0.00000000000E+00 0.  1.
          4    1    1    2  501    0  0.83567787084E+00 -0.19491338613E+01  0.38682364047E+01  0.44114321025E+01  0.00000000000E+00 0.  1.
         -4    1    1    2    0  501 -0.83567787084E+00  0.19491338613E+01  0.25027964894E+01  0.32804680429E+01  0.00000000000E+00 0. -1.
<mgrwt>
<rscale>  0 0.21207264E+01</rscale>
<asrwt>0</asrwt>
<pdfrwt beam="1">0</pdfrwt>
<pdfrwt beam="2">0</pdfrwt>
<totfact> 0.38867615E+12</totfact>
</mgrwt>
</event>
<event>
 4    2  0.1060494E+006  0.2345368E+01  0.7546771E-02  0.2780894E+00
         22   -1    0    0    0    0  0.00000000000E+00  0.00000000000E+00  0.89426458492E+00  0.89426458492E+00  0.00000000000E+00 0. -1.
         22   -1    0    0    0    0 -0.00000000000E+00 -0.00000000000E+00 -0.28652114602E+02  0.28652114602E+02  0.00000000000E+00 0.  1.
          4    1    1    2  501    0 -0.67754982372E-01 -0.23443888193E+01 -0.26970640656E+02  0.27072425215E+02  0.00000000000E+00 0.  1.
         -4    1    1    2    0  501  0.67754982372E-01  0.23443888193E+01 -0.78720936134E+00  0.24739539713E+01  0.00000000000E+00 0. -1.
<mgrwt>
<rscale>  0 0.23453677E+01</rscale>
<asrwt>0</asrwt>
<pdfrwt beam="1">0</pdfrwt>
<pdfrwt beam="2">0</pdfrwt>
<totfact> 0.48945583E+11</totfact>
</mgrwt>
</event>
<event>
 4    2  0.1060494E+006  0.2952495E+01  0.7546771E-02  0.2537408E+00
         22   -1    0    0    0    0  0.00000000000E+00  0.00000000000E+00  0.22675303597E+02  0.22675303597E+02  0.00000000000E+00 0.  1.
         22   -1    0    0    0    0 -0.00000000000E+00 -0.00000000000E+00 -0.13761998354E+01  0.13761998354E+01  0.00000000000E+00 0. -1.
          4    1    1    2  501    0  0.89946632402E-01 -0.29511248872E+01  0.44073602534E+00  0.29852096644E+01  0.00000000000E+00 0. -1.
         -4    1    1    2    0  501 -0.89946632402E-01  0.29511248872E+01  0.20858367736E+02  0.21066293768E+02  0.00000000000E+00 0.  1.
<mgrwt>
<rscale>  0 0.29524953E+01</rscale>
<asrwt>0</asrwt>
<pdfrwt beam="1">0</pdfrwt>
<pdfrwt beam="2">0</pdfrwt>
<totfact> 0.40163900E+11</totfact>
</mgrwt>
</event>
<event>
 4    2  0.1060494E+006  0.2239474E+01  0.7546771E-02  0.2835871E+00
         22   -1    0    0    0    0  0.00000000000E+00  0.00000000000E+00  0.60826071835E+01  0.60826071835E+01  0.00000000000E+00 0. -1.
         22   -1    0    0    0    0 -0.00000000000E+00 -0.00000000000E+00 -0.36159718594E+01  0.36159718594E+01  0.00000000000E+00 0.  1.
          4    1    1    2  501    0 -0.16449502248E+01  0.15196657283E+01 -0.30273777305E+01  0.37656687442E+01  0.00000000000E+00 0.  1.
         -4    1    1    2    0  501  0.16449502248E+01 -0.15196657283E+01  0.54940130546E+01  0.59329102987E+01  0.00000000000E+00 0. -1.
<mgrwt>
<rscale>  0 0.22394743E+01</rscale>
<asrwt>0</asrwt>
<pdfrwt beam="1">0</pdfrwt>
<pdfrwt beam="2">0</pdfrwt>
<totfact> 0.65162356E+11</totfact>
</mgrwt>
</event>
<event>
 4    2  0.1060494E+006  0.2117992E+01  0.7546771E-02  0.2905393E+00
         22   -1    0    0    0    0  0.00000000000E+00  0.00000000000E+00  0.38750936229E+02  0.38750936229E+02  0.00000000000E+00 0. -1.
         22   -1    0    0    0    0 -0.00000000000E+00 -0.00000000000E+00 -0.14371530996E+00  0.14371530996E+00  0.00000000000E+00 0.  1.
          4    1    1    2  501    0  0.16399206375E+01  0.13403547118E+01  0.10726834314E+02  0.10933931811E+02  0.00000000000E+00 0.  1.
         -4    1    1    2    0  501 -0.16399206375E+01 -0.13403547118E+01  0.27880386605E+02  0.27960719728E+02  0.00000000000E+00 0. -1.
<mgrwt>
<rscale>  0 0.21179921E+01</rscale>
<asrwt>0</asrwt>
<pdfrwt beam="1">0</pdfrwt>
<pdfrwt beam="2">0</pdfrwt>
<totfact> 0.25957770E+12</totfact>
</mgrwt>
</event>
<event>
 4    2  0.1060494E+006  0.2033427E+01  0.7546771E-02  0.2958520E+00
         22   -1    0    0    0    0  0.00000000000E+00  0.00000000000E+00  0.19816696829E+01  0.19816696829E+01  0.00000000000E+00 0. -1.
         22   -1    0    0    0    0 -0.00000000000E+00 -0.00000000000E+00 -0.76067454956E+01  0.76067454956E+01  0.00000000000E+00 0.  1.
          4    1    1    2  501    0 -0.20243016784E+01 -0.19242645139E+00 -0.68966266482E+01  0.71901519003E+01  0.00000000000E+00 0.  1.
         -4    1    1    2    0  501  0.20243016784E+01  0.19242645139E+00  0.12715508355E+01  0.23982632782E+01  0.00000000000E+00 0. -1.
<mgrwt>
<rscale>  0 0.20334270E+01</rscale>
<asrwt>0</asrwt>
<pdfrwt beam="1">0</pdfrwt>
<pdfrwt beam="2">0</pdfrwt>
<totfact> 0.10052013E+12</totfact>
</mgrwt>
</event>
<event>
 4    2  0.1060494E+006  0.3183036E+01  0.7546771E-02  0.2467323E+00
         22   -1    0    0    0    0  0.00000000000E+00  0.00000000000E+00  0.38508917931E+01  0.38508917931E+01  0.00000000000E+00 0. -1.
         22   -1    0    0    0    0 -0.00000000000E+00 -0.00000000000E+00 -0.26513486984E+01  0.26513486984E+01  0.00000000000E+00 0.  1.
          4    1    1    2  501    0 -0.30056935125E+01  0.10476277705E+01  0.31499162520E+00  0.31985836178E+01  0.00000000000E+00 0.  1.
         -4    1    1    2    0  501  0.30056935125E+01 -0.10476277705E+01  0.88455146952E+00  0.33036568736E+01  0.00000000000E+00 0. -1.
<mgrwt>
<rscale>  0 0.31830359E+01</rscale>
<asrwt>0</asrwt>
<pdfrwt beam="1">0</pdfrwt>
<pdfrwt beam="2">0</pdfrwt>
<totfact> 0.16085451E+12</totfact>
</mgrwt>
</event>
<event>
 4    2  0.1060494E+006  0.4663376E+01  0.7546771E-02  0.2165983E+00
         22   -1    0    0    0    0  0.00000000000E+00  0.00000000000E+00  0.82120127625E+00  0.82120127625E+00  0.00000000000E+00 0. -1.
         22   -1    0    0    0    0 -0.00000000000E+00 -0.00000000000E+00 -0.73793932889E+02  0.73793932889E+02  0.00000000000E+00 0.  1.
          4    1    1    2  501    0 -0.37846596070E+01  0.27245959486E+01 -0.66358884269E+02  0.66522541990E+02  0.00000000000E+00 0.  1.
         -4    1    1    2    0  501  0.37846596070E+01 -0.27245959486E+01 -0.66138473439E+01  0.80925921751E+01  0.00000000000E+00 0. -1.
<mgrwt>
<rscale>  0 0.46633755E+01</rscale>
<asrwt>0</asrwt>
<pdfrwt beam="1">0</pdfrwt>
<pdfrwt beam="2">0</pdfrwt>
<totfact> 0.15577417E+11</totfact>
</mgrwt>
</event>
<event>
 4    2  0.1060494E+006  0.4050805E+01  0.7546771E-02  0.2267687E+00
         22   -1    0    0    0    0  0.00000000000E+00  0.00000000000E+00  0.79030080324E+00  0.79030080324E+00  0.00000000000E+00 0. -1.
         22   -1    0    0    0    0 -0.00000000000E+00 -0.00000000000E+00 -0.33829825032E+02  0.33829825032E+02  0.00000000000E+00 0.  1.
          4    1    1    2  501    0 -0.15461208987E+00  0.40478533090E+01 -0.27277815324E+02  0.27576951067E+02  0.00000000000E+00 0.  1.
         -4    1    1    2    0  501  0.15461208987E+00 -0.40478533090E+01 -0.57617089043E+01  0.70431747677E+01  0.00000000000E+00 0. -1.
<mgrwt>
<rscale>  0 0.40508050E+01</rscale>
<asrwt>0</asrwt>
<pdfrwt beam="1">0</pdfrwt>
<pdfrwt beam="2">0</pdfrwt>
<totfact> 0.45572275E+11</totfact>
</mgrwt>
</event>
<event>
 4    2  0.1060494E+006  0.4221003E+01  0.7546771E-02  0.2236940E+00
         22   -1    0    0    0    0  0.00000000000E+00  0.00000000000E+00  0.17371866046E+01  0.17371866046E+01  0.00000000000E+00 0. -1.
         22   -1    0    0    0    0 -0.00000000000E+00 -0.00000000000E+00 -0.14089203774E+02  0.14089203774E+02  0.00000000000E+00 0.  1.
          4    1    1    2  501    0  0.34046643871E+01  0.24950199315E+01 -0.10303446349E+02  0.11134535047E+02  0.00000000000E+00 0. -1.
         -4    1    1    2    0  501 -0.34046643871E+01 -0.24950199315E+01 -0.20485708205E+01  0.46918553317E+01  0.00000000000E+00 0.  1.
<mgrwt>
<rscale>  0 0.42210027E+01</rscale>
<asrwt>0</asrwt>
<pdfrwt beam="1">0</pdfrwt>
<pdfrwt beam="2">0</pdfrwt>
<totfact> 0.55430746E+11</totfact>
</mgrwt>
</event>
<event>
 4    2  0.1060494E+006  0.2688649E+01  0.7546771E-02  0.2630783E+00
         22   -1    0    0    0    0  0.00000000000E+00  0.00000000000E+00  0.16766215136E+00  0.16766215136E+00  0.00000000000E+00 0.  1.
         22   -1    0    0    0    0 -0.00000000000E+00 -0.00000000000E+00 -0.75251775639E+02  0.75251775639E+02  0.00000000000E+00 0. -1.
          4    1    1    2  501    0  0.89532544927E-01  0.26871575977E+01 -0.62185018938E+02  0.62243115381E+02  0.00000000000E+00 0. -1.
         -4    1    1    2    0  501 -0.89532544927E-01 -0.26871575977E+01 -0.12899094550E+02  0.13176322410E+02  0.00000000000E+00 0.  1.
<mgrwt>
<rscale>  0 0.26886487E+01</rscale>
<asrwt>0</asrwt>
<pdfrwt beam="1">0</pdfrwt>
<pdfrwt beam="2">0</pdfrwt>
<totfact> 0.90584179E+11</totfact>
</mgrwt>
</event>
<event>
 4    2  0.1060494E+006  0.2894424E+01  0.7546771E-02  0.2556634E+00
         22   -1    0    0    0    0  0.00000000000E+00  0.00000000000E+00  0.11711394758E+01  0.11711394758E+01  0.00000000000E+00 0. -1.
         22   -1    0    0    0    0 -0.00000000000E+00 -0.00000000000E+00 -0.75879489597E+01  0.75879489597E+01  0.00000000000E+00 0.  1.
          4    1    1    2  501    0 -0.21356566844E+01 -0.19536276737E+01 -0.42564013028E+01  0.51472946887E+01  0.00000000000E+00 0.  1.
         -4    1    1    2    0  501  0.21356566844E+01  0.19536276737E+01 -0.21604081810E+01  0.36117937469E+01  0.00000000000E+00 0. -1.
<mgrwt>
<rscale>  0 0.28944240E+01</rscale>
<asrwt>0</asrwt>
<pdfrwt beam="1">0</pdfrwt>
<pdfrwt beam="2">0</pdfrwt>
<totfact> 0.18472148E+12</totfact>
</mgrwt>
</event>
<event>
 4    2  0.1060494E+006  0.2315463E+01  0.7546771E-02  0.2795936E+00
         22   -1    0    0    0    0  0.00000000000E+00  0.00000000000E+00  0.26853483787E+00  0.26853483787E+00  0.00000000000E+00 0. -1.
         22   -1    0    0    0    0 -0.00000000000E+00 -0.00000000000E+00 -0.27812678775E+02  0.27812678775E+02  0.00000000000E+00 0.  1.
          4    1    1    2  501    0 -0.13517718811E+01 -0.18799157590E+01 -0.21230161832E+02  0.21356056329E+02  0.00000000000E+00 0.  1.
         -4    1    1    2    0  501  0.13517718811E+01  0.18799157590E+01 -0.63139821043E+01  0.67251572839E+01  0.00000000000E+00 0. -1.
<mgrwt>
<rscale>  0 0.23154633E+01</rscale>
<asrwt>0</asrwt>
<pdfrwt beam="1">0</pdfrwt>
<pdfrwt beam="2">0</pdfrwt>
<totfact> 0.19772481E+12</totfact>
</mgrwt>
</event>
<event>
 4    2  0.1060494E+006  0.2826714E+01  0.7546771E-02  0.2579949E+00
         22   -1    0    0    0    0  0.00000000000E+00  0.00000000000E+00  0.83935730004E+01  0.83935730004E+01  0.00000000000E+00 0.  1.
         22   -1    0    0    0    0 -0.00000000000E+00 -0.00000000000E+00 -0.15896138073E+01  0.15896138073E+01  0.00000000000E+00 0. -1.
          4    1    1    2  501    0  0.28259370362E+01  0.66272822648E-01  0.24052296918E+00  0.28369285360E+01  0.00000000000E+00 0. -1.
         -4    1    1    2    0  501 -0.28259370362E+01 -0.66272822648E-01  0.65634362239E+01  0.71462582717E+01  0.00000000000E+00 0.  1.
<mgrwt>
<rscale>  0 0.28267140E+01</rscale>
<asrwt>0</asrwt>
<pdfrwt beam="1">0</pdfrwt>
<pdfrwt beam="2">0</pdfrwt>
<totfact> 0.11520742E+12</totfact>
</mgrwt>
</event>
<event>
 4    2  0.1060494E+006  0.3167388E+01  0.7546771E-02  0.2471792E+00
         22   -1    0    0    0    0  0.00000000000E+00  0.00000000000E+00  0.30443457502E+01  0.30443457502E+01  0.00000000000E+00 0. -1.
         22   -1    0    0    0    0 -0.00000000000E+00 -0.00000000000E+00 -0.38305485322E+01  0.38305485322E+01  0.00000000000E+00 0.  1.
          4    1    1    2  501    0 -0.17153735733E+01  0.26626748534E+01  0.89171715110E+00  0.32905171855E+01  0.00000000000E+00 0. -1.
         -4    1    1    2    0  501  0.17153735733E+01 -0.26626748534E+01 -0.16779199330E+01  0.35843770968E+01  0.00000000000E+00 0.  1.
<mgrwt>
<rscale>  0 0.31673875E+01</rscale>
<asrwt>0</asrwt>
<pdfrwt beam="1">0</pdfrwt>
<pdfrwt beam="2">0</pdfrwt>
<totfact> 0.13775433E+12</totfact>
</mgrwt>
</event>
<event>
 4    2  0.1060494E+006  0.3056152E+01  0.7546771E-02  0.2504728E+00
         22   -1    0    0    0    0  0.00000000000E+00  0.00000000000E+00  0.74470857137E+00  0.74470857137E+00  0.00000000000E+00 0.  1.
         22   -1    0    0    0    0 -0.00000000000E+00 -0.00000000000E+00 -0.12740227545E+02  0.12740227545E+02  0.00000000000E+00 0. -1.
          4    1    1    2  501    0 -0.23984839611E+01 -0.18940278932E+01 -0.68389845573E+01  0.74907794486E+01  0.00000000000E+00 0. -1.
         -4    1    1    2    0  501  0.23984839611E+01  0.18940278932E+01 -0.51565344165E+01  0.59941566680E+01  0.00000000000E+00 0.  1.
<mgrwt>
<rscale>  0 0.30561523E+01</rscale>
<asrwt>0</asrwt>
<pdfrwt beam="1">0</pdfrwt>
<pdfrwt beam="2">0</pdfrwt>
<totfact> 0.16534867E+12</totfact>
</mgrwt>
</event>
<event>
 4    2  0.1060494E+006  0.4295285E+01  0.7546771E-02  0.2224170E+00
         22   -1    0    0    0    0  0.00000000000E+00  0.00000000000E+00  0.13443570863E+02  0.13443570863E+02  0.00000000000E+00 0. -1.
         22   -1    0    0    0    0 -0.00000000000E+00 -0.00000000000E+00 -0.42290442102E+01  0.42290442102E+01  0.00000000000E+00 0.  1.
          4    1    1    2  501    0  0.33691186578E+00 -0.42820515562E+01 -0.26551424219E+01  0.50496788428E+01  0.00000000000E+00 0.  1.
         -4    1    1    2    0  501 -0.33691186578E+00  0.42820515562E+01  0.11869669075E+02  0.12622936231E+02  0.00000000000E+00 0. -1.
<mgrwt>
<rscale>  0 0.42952852E+01</rscale>
<asrwt>0</asrwt>
<pdfrwt beam="1">0</pdfrwt>
<pdfrwt beam="2">0</pdfrwt>
<totfact> 0.20812340E+11</totfact>
</mgrwt>
</event>
<event>
 4    2  0.1060494E+006  0.5963550E+01  0.7546771E-02  0.2022972E+00
         22   -1    0    0    0    0  0.00000000000E+00  0.00000000000E+00  0.26381003299E+02  0.26381003299E+02  0.00000000000E+00 0.  1.
         22   -1    0    0    0    0 -0.00000000000E+00 -0.00000000000E+00 -0.13922955155E+01  0.13922955155E+01  0.00000000000E+00 0. -1.
          4    1    1    2  501    0 -0.30825154885E+01 -0.51050976986E+01  0.10019908352E+02  0.11660295349E+02  0.00000000000E+00 0.  1.
         -4    1    1    2    0  501  0.30825154885E+01  0.51050976986E+01  0.14968799432E+02  0.16113003465E+02  0.00000000000E+00 0. -1.
<mgrwt>
<rscale>  0 0.59635496E+01</rscale>
<asrwt>0</asrwt>
<pdfrwt beam="1">0</pdfrwt>
<pdfrwt beam="2">0</pdfrwt>
<totfact> 0.32750290E+11</totfact>
</mgrwt>
</event>
<event>
 4    2  0.1060494E+006  0.3529772E+01  0.7546771E-02  0.2377335E+00
         22   -1    0    0    0    0  0.00000000000E+00  0.00000000000E+00  0.10069491176E+01  0.10069491176E+01  0.00000000000E+00 0.  1.
         22   -1    0    0    0    0 -0.00000000000E+00 -0.00000000000E+00 -0.46158260530E+02  0.46158260530E+02  0.00000000000E+00 0. -1.
          4    1    1    2  501    0  0.13658565519E+01  0.32548009380E+01 -0.42751359916E+02  0.42896830511E+02  0.00000000000E+00 0. -1.
         -4    1    1    2    0  501 -0.13658565519E+01 -0.32548009380E+01 -0.23999514970E+01  0.42683791367E+01  0.00000000000E+00 0.  1.
<mgrwt>
<rscale>  0 0.35297724E+01</rscale>
<asrwt>0</asrwt>
<pdfrwt beam="1">0</pdfrwt>
<pdfrwt beam="2">0</pdfrwt>
<totfact> 0.23107928E+11</totfact>
</mgrwt>
</event>
<event>
 4    2  0.1060494E+006  0.2407519E+01  0.7546771E-02  0.2750761E+00
         22   -1    0    0    0    0  0.00000000000E+00  0.00000000000E+00  0.30652383097E+02  0.30652383097E+02  0.00000000000E+00 0. -1.
         22   -1    0    0    0    0 -0.00000000000E+00 -0.00000000000E+00 -0.24752289861E+00  0.24752289861E+00  0.00000000000E+00 0.  1.
          4    1    1    2  501    0  0.76692127589E+00  0.22820993981E+01  0.76959270605E+01  0.80637112564E+01  0.00000000000E+00 0.  1.
         -4    1    1    2    0  501 -0.76692127589E+00 -0.22820993981E+01  0.22708933138E+02  0.22836194740E+02  0.00000000000E+00 0. -1.
<mgrwt>
<rscale>  0 0.24075186E+01</rscale>
<asrwt>0</asrwt>
<pdfrwt beam="1">0</pdfrwt>
<pdfrwt beam="2">0</pdfrwt>
<totfact> 0.19140008E+12</totfact>
</mgrwt>
</event>
<event>
 4    2  0.1060494E+006  0.2005472E+01  0.7546771E-02  0.2977044E+00
         22   -1    0    0    0    0  0.00000000000E+00  0.00000000000E+00  0.71982115478E+00  0.71982115478E+00  0.00000000000E+00 0.  1.
         22   -1    0    0    0    0 -0.00000000000E+00 -0.00000000000E+00 -0.19451291711E+02  0.19451291711E+02  0.00000000000E+00 0. -1.
          4    1    1    2  501    0 -0.17769383513E+01  0.92973597761E+00 -0.85105327845E+00  0.21785799446E+01  0.00000000000E+00 0.  1.
         -4    1    1    2    0  501  0.17769383513E+01 -0.92973597761E+00 -0.17880417278E+02  0.17992532921E+02  0.00000000000E+00 0. -1.
<mgrwt>
<rscale>  0 0.20054722E+01</rscale>
<asrwt>0</asrwt>
<pdfrwt beam="1">0</pdfrwt>
<pdfrwt beam="2">0</pdfrwt>
<totfact> 0.10196467E+12</totfact>
</mgrwt>
</event>
<event>
 4    2  0.1060494E+006  0.2170559E+01  0.7546771E-02  0.2874392E+00
         22   -1    0    0    0    0  0.00000000000E+00  0.00000000000E+00  0.17610443146E+01  0.17610443146E+01  0.00000000000E+00 0. -1.
         22   -1    0    0    0    0 -0.00000000000E+00 -0.00000000000E+00 -0.17074874235E+02  0.17074874235E+02  0.00000000000E+00 0.  1.
          4    1    1    2  501    0 -0.22969262263E+00 -0.21583713990E+01 -0.16305654993E+02  0.16449489675E+02  0.00000000000E+00 0.  1.
         -4    1    1    2    0  501  0.22969262263E+00  0.21583713990E+01  0.99182507338E+00  0.23864288745E+01  0.00000000000E+00 0. -1.
<mgrwt>
<rscale>  0 0.21705589E+01</rscale>
<asrwt>0</asrwt>
<pdfrwt beam="1">0</pdfrwt>
<pdfrwt beam="2">0</pdfrwt>
<totfact> 0.43053000E+11</totfact>
</mgrwt>
</event>
<event>
 4    2  0.1060494E+006  0.2565025E+01  0.7546771E-02  0.2680539E+00
         22   -1    0    0    0    0  0.00000000000E+00  0.00000000000E+00  0.38968354593E+01  0.38968354593E+01  0.00000000000E+00 0. -1.
         22   -1    0    0    0    0 -0.00000000000E+00 -0.00000000000E+00 -0.16892146493E+01  0.16892146493E+01  0.00000000000E+00 0.  1.
          4    1    1    2  501    0  0.24608009314E+01 -0.72374762092E+00  0.10418479169E+01  0.27685373259E+01  0.00000000000E+00 0.  1.
         -4    1    1    2    0  501 -0.24608009314E+01  0.72374762092E+00  0.11657728931E+01  0.28175127828E+01  0.00000000000E+00 0. -1.
<mgrwt>
<rscale>  0 0.25650247E+01</rscale>
<asrwt>0</asrwt>
<pdfrwt beam="1">0</pdfrwt>
<pdfrwt beam="2">0</pdfrwt>
<totfact> 0.26746532E+12</totfact>
</mgrwt>
</event>
<event>
 4    2  0.1060494E+006  0.2008950E+01  0.7546771E-02  0.2974712E+00
         22   -1    0    0    0    0  0.00000000000E+00  0.00000000000E+00  0.72894069724E+01  0.72894069724E+01  0.00000000000E+00 0. -1.
         22   -1    0    0    0    0 -0.00000000000E+00 -0.00000000000E+00 -0.97053572248E+00  0.97053572248E+00  0.00000000000E+00 0.  1.
          4    1    1    2  501    0  0.19076180095E+01 -0.62997933785E+00  0.45272004910E+00  0.20593289876E+01  0.00000000000E+00 0.  1.
         -4    1    1    2    0  501 -0.19076180095E+01  0.62997933785E+00  0.58661512008E+01  0.62006137073E+01  0.00000000000E+00 0. -1.
<mgrwt>
<rscale>  0 0.20089501E+01</rscale>
<asrwt>0</asrwt>
<pdfrwt beam="1">0</pdfrwt>
<pdfrwt beam="2">0</pdfrwt>
<totfact> 0.24024155E+12</totfact>
</mgrwt>
</event>
<event>
 4    2  0.1060494E+006  0.2036550E+01  0.7546771E-02  0.2956482E+00
         22   -1    0    0    0    0  0.00000000000E+00  0.00000000000E+00  0.38606617460E+01  0.38606617460E+01  0.00000000000E+00 0.  1.
         22   -1    0    0    0    0 -0.00000000000E+00 -0.00000000000E+00 -0.13805567935E+01  0.13805567935E+01  0.00000000000E+00 0. -1.
          4    1    1    2  501    0 -0.21499411809E+00  0.20251700334E+01  0.24743305111E+01  0.32046602960E+01  0.00000000000E+00 0.  1.
         -4    1    1    2    0  501  0.21499411809E+00 -0.20251700334E+01  0.57744414495E-02  0.20365582435E+01  0.00000000000E+00 0. -1.
<mgrwt>
<rscale>  0 0.20365501E+01</rscale>
<asrwt>0</asrwt>
<pdfrwt beam="1">0</pdfrwt>
<pdfrwt beam="2">0</pdfrwt>
<totfact> 0.34108276E+12</totfact>
</mgrwt>
</event>
<event>
 4    2  0.1060494E+006  0.4023167E+01  0.7546771E-02  0.2272888E+00
         22   -1    0    0    0    0  0.00000000000E+00  0.00000000000E+00  0.88365334950E+01  0.88365334950E+01  0.00000000000E+00 0. -1.
         22   -1    0    0    0    0 -0.00000000000E+00 -0.00000000000E+00 -0.22911135751E+01  0.22911135751E+01  0.00000000000E+00 0.  1.
          4    1    1    2  501    0  0.24174431691E+01  0.32158734250E+01  0.78125970936E+00  0.40983216193E+01  0.00000000000E+00 0. -1.
         -4    1    1    2    0  501 -0.24174431691E+01 -0.32158734250E+01  0.57641602105E+01  0.70293254508E+01  0.00000000000E+00 0.  1.
<mgrwt>
<rscale>  0 0.40231671E+01</rscale>
<asrwt>0</asrwt>
<pdfrwt beam="1">0</pdfrwt>
<pdfrwt beam="2">0</pdfrwt>
<totfact> 0.70959307E+11</totfact>
</mgrwt>
</event>
<event>
 4    2  0.1060494E+006  0.2697455E+01  0.7546771E-02  0.2627399E+00
         22   -1    0    0    0    0  0.00000000000E+00  0.00000000000E+00  0.17853535628E+01  0.17853535628E+01  0.00000000000E+00 0.  1.
         22   -1    0    0    0    0 -0.00000000000E+00 -0.00000000000E+00 -0.98751492768E+01  0.98751492768E+01  0.00000000000E+00 0. -1.
          4    1    1    2  501    0 -0.22107267260E+01 -0.15456238491E+01 -0.85129179013E+01  0.89300636578E+01  0.00000000000E+00 0. -1.
         -4    1    1    2    0  501  0.22107267260E+01  0.15456238491E+01  0.42312218727E+00  0.27304391817E+01  0.00000000000E+00 0.  1.
<mgrwt>
<rscale>  0 0.26974554E+01</rscale>
<asrwt>0</asrwt>
<pdfrwt beam="1">0</pdfrwt>
<pdfrwt beam="2">0</pdfrwt>
<totfact> 0.82816282E+11</totfact>
</mgrwt>
</event>
<event>
 4    2  0.1060494E+006  0.4324299E+01  0.7546771E-02  0.2219282E+00
         22   -1    0    0    0    0  0.00000000000E+00  0.00000000000E+00  0.45757284617E+01  0.45757284617E+01  0.00000000000E+00 0.  1.
         22   -1    0    0    0    0 -0.00000000000E+00 -0.00000000000E+00 -0.48438178734E+01  0.48438178734E+01  0.00000000000E+00 0. -1.
          4    1    1    2  501    0 -0.38854205061E+01  0.18981757659E+01 -0.19960973678E+01  0.47627689897E+01  0.00000000000E+00 0. -1.
         -4    1    1    2    0  501  0.38854205061E+01 -0.18981757659E+01  0.17280079561E+01  0.46567773453E+01  0.00000000000E+00 0.  1.
<mgrwt>
<rscale>  0 0.43242992E+01</rscale>
<asrwt>0</asrwt>
<pdfrwt beam="1">0</pdfrwt>
<pdfrwt beam="2">0</pdfrwt>
<totfact> 0.64721118E+11</totfact>
</mgrwt>
</event>
<event>
 4    2  0.1060494E+006  0.2170919E+01  0.7546771E-02  0.2874184E+00
         22   -1    0    0    0    0  0.00000000000E+00  0.00000000000E+00  0.15310299413E+02  0.15310299413E+02  0.00000000000E+00 0. -1.
         22   -1    0    0    0    0 -0.00000000000E+00 -0.00000000000E+00 -0.33617767526E+00  0.33617767526E+00  0.00000000000E+00 0.  1.
          4    1    1    2  501    0 -0.11404324192E-01 -0.21708885521E+01  0.97590279661E+01  0.99975754064E+01  0.00000000000E+00 0.  1.
         -4    1    1    2    0  501  0.11404324192E-01  0.21708885521E+01  0.52150937720E+01  0.56489016822E+01  0.00000000000E+00 0. -1.
<mgrwt>
<rscale>  0 0.21709185E+01</rscale>
<asrwt>0</asrwt>
<pdfrwt beam="1">0</pdfrwt>
<pdfrwt beam="2">0</pdfrwt>
<totfact> 0.32400937E+12</totfact>
</mgrwt>
</event>
<event>
 4    2  0.1060494E+006  0.2073007E+01  0.7546771E-02  0.2933130E+00
         22   -1    0    0    0    0  0.00000000000E+00  0.00000000000E+00  0.44908184453E+00  0.44908184453E+00  0.00000000000E+00 0.  1.
         22   -1    0    0    0    0 -0.00000000000E+00 -0.00000000000E+00 -0.99125321047E+01  0.99125321047E+01  0.00000000000E+00 0. -1.
          4    1    1    2  501    0 -0.18421533117E+01 -0.95069873154E+00 -0.56959053340E+01  0.60614102712E+01  0.00000000000E+00 0. -1.
         -4    1    1    2    0  501  0.18421533117E+01  0.95069873154E+00 -0.37675449262E+01  0.43002036780E+01  0.00000000000E+00 0.  1.
<mgrwt>
<rscale>  0 0.20730067E+01</rscale>
<asrwt>0</asrwt>
<pdfrwt beam="1">0</pdfrwt>
<pdfrwt beam="2">0</pdfrwt>
<totfact> 0.39767546E+12</totfact>
</mgrwt>
</event>
<event>
 4    2  0.1060494E+006  0.6500069E+01  0.7546771E-02  0.1977545E+00
         22   -1    0    0    0    0  0.00000000000E+00  0.00000000000E+00  0.78647861997E+01  0.78647861997E+01  0.00000000000E+00 0. -1.
         22   -1    0    0    0    0 -0.00000000000E+00 -0.00000000000E+00 -0.96322286849E+01  0.96322286849E+01  0.00000000000E+00 0.  1.
          4    1    1    2  501    0  0.14741067656E+01 -0.63307117120E+01 -0.67017893106E+01  0.93362134455E+01  0.00000000000E+00 0.  1.
         -4    1    1    2    0  501 -0.14741067656E+01  0.63307117120E+01  0.49343468254E+01  0.81608014392E+01  0.00000000000E+00 0. -1.
<mgrwt>
<rscale>  0 0.65000693E+01</rscale>
<asrwt>0</asrwt>
<pdfrwt beam="1">0</pdfrwt>
<pdfrwt beam="2">0</pdfrwt>
<totfact> 0.14931211E+11</totfact>
</mgrwt>
</event>
<event>
 4    2  0.1060494E+006  0.5309997E+01  0.7546771E-02  0.2087723E+00
         22   -1    0    0    0    0  0.00000000000E+00  0.00000000000E+00  0.36419849267E+01  0.36419849267E+01  0.00000000000E+00 0. -1.
         22   -1    0    0    0    0 -0.00000000000E+00 -0.00000000000E+00 -0.14560502545E+02  0.14560502545E+02  0.00000000000E+00 0.  1.
          4    1    1    2  501    0 -0.21719302320E+01  0.48454916049E+01 -0.11687402421E+02  0.12837112027E+02  0.00000000000E+00 0.  1.
         -4    1    1    2    0  501  0.21719302320E+01 -0.48454916049E+01  0.76888480295E+00  0.53653754451E+01  0.00000000000E+00 0. -1.
<mgrwt>
<rscale>  0 0.53099972E+01</rscale>
<asrwt>0</asrwt>
<pdfrwt beam="1">0</pdfrwt>
<pdfrwt beam="2">0</pdfrwt>
<totfact> 0.22497268E+11</totfact>
</mgrwt>
</event>
<event>
 4    2  0.1060494E+006  0.2506870E+01  0.7546771E-02  0.2705509E+00
         22   -1    0    0    0    0  0.00000000000E+00  0.00000000000E+00  0.67341935704E-01  0.67341935704E-01  0.00000000000E+00 0. -1.
         22   -1    0    0    0    0 -0.00000000000E+00 -0.00000000000E+00 -0.14079588315E+03  0.14079588315E+03  0.00000000000E+00 0.  1.
          4    1    1    2  501    0  0.68253224749E+00  0.24121666863E+01 -0.11126262699E+03  0.11129086469E+03  0.00000000000E+00 0.  1.
         -4    1    1    2    0  501 -0.68253224749E+00 -0.24121666863E+01 -0.29465914228E+02  0.29572360401E+02  0.00000000000E+00 0. -1.
<mgrwt>
<rscale>  0 0.25068702E+01</rscale>
<asrwt>0</asrwt>
<pdfrwt beam="1">0</pdfrwt>
<pdfrwt beam="2">0</pdfrwt>
<totfact> 0.10256664E+12</totfact>
</mgrwt>
</event>
<event>
 4    2  0.1060494E+006  0.2066041E+01  0.7546771E-02  0.2937530E+00
         22   -1    0    0    0    0  0.00000000000E+00  0.00000000000E+00  0.59353503411E+01  0.59353503411E+01  0.00000000000E+00 0. -1.
         22   -1    0    0    0    0 -0.00000000000E+00 -0.00000000000E+00 -0.21158409838E+01  0.21158409838E+01  0.00000000000E+00 0.  1.
          4    1    1    2  501    0 -0.43395389827E+00  0.20199524232E+01 -0.13609079600E+01  0.24739834788E+01  0.00000000000E+00 0.  1.
         -4    1    1    2    0  501  0.43395389827E+00 -0.20199524232E+01  0.51804173173E+01  0.55772078461E+01  0.00000000000E+00 0. -1.
<mgrwt>
<rscale>  0 0.20660406E+01</rscale>
<asrwt>0</asrwt>
<pdfrwt beam="1">0</pdfrwt>
<pdfrwt beam="2">0</pdfrwt>
<totfact> 0.12532393E+12</totfact>
</mgrwt>
</event>
<event>
 4    2  0.1060494E+006  0.2485809E+01  0.7546771E-02  0.2714819E+00
         22   -1    0    0    0    0  0.00000000000E+00  0.00000000000E+00  0.27315279413E+01  0.27315279413E+01  0.00000000000E+00 0.  1.
         22   -1    0    0    0    0 -0.00000000000E+00 -0.00000000000E+00 -0.50203231383E+01  0.50203231383E+01  0.00000000000E+00 0. -1.
          4    1    1    2  501    0 -0.13335987904E+01 -0.20977995422E+01 -0.40172731571E+01  0.47241647168E+01  0.00000000000E+00 0. -1.
         -4    1    1    2    0  501  0.13335987904E+01  0.20977995422E+01  0.17284779601E+01  0.30276863628E+01  0.00000000000E+00 0.  1.
<mgrwt>
<rscale>  0 0.24858095E+01</rscale>
<asrwt>0</asrwt>
<pdfrwt beam="1">0</pdfrwt>
<pdfrwt beam="2">0</pdfrwt>
<totfact> 0.11362407E+12</totfact>
</mgrwt>
</event>
<event>
 4    2  0.1060494E+006  0.2446872E+01  0.7546771E-02  0.2732426E+00
         22   -1    0    0    0    0  0.00000000000E+00  0.00000000000E+00  0.16061221521E+02  0.16061221521E+02  0.00000000000E+00 0. -1.
         22   -1    0    0    0    0 -0.00000000000E+00 -0.00000000000E+00 -0.39526451675E+00  0.39526451675E+00  0.00000000000E+00 0.  1.
          4    1    1    2  501    0  0.32387176695E+00 -0.24253428237E+01  0.58701697986E+01  0.63597228083E+01  0.00000000000E+00 0. -1.
         -4    1    1    2    0  501 -0.32387176695E+00  0.24253428237E+01  0.97957872058E+01  0.10096763230E+02  0.00000000000E+00 0.  1.
<mgrwt>
<rscale>  0 0.24468716E+01</rscale>
<asrwt>0</asrwt>
<pdfrwt beam="1">0</pdfrwt>
<pdfrwt beam="2">0</pdfrwt>
<totfact> 0.25461588E+12</totfact>
</mgrwt>
</event>
<event>
 4    2  0.1060494E+006  0.3917654E+01  0.7546771E-02  0.2293317E+00
         22   -1    0    0    0    0  0.00000000000E+00  0.00000000000E+00  0.17932881595E+02  0.17932881595E+02  0.00000000000E+00 0. -1.
         22   -1    0    0    0    0 -0.00000000000E+00 -0.00000000000E+00 -0.43858482807E+01  0.43858482807E+01  0.00000000000E+00 0.  1.
          4    1    1    2  501    0  0.64177884099E+00 -0.38647293134E+01 -0.32379888346E+01  0.50825765552E+01  0.00000000000E+00 0.  1.
         -4    1    1    2    0  501 -0.64177884099E+00  0.38647293134E+01  0.16785022148E+02  0.17236153320E+02  0.00000000000E+00 0. -1.
<mgrwt>
<rscale>  0 0.39176540E+01</rscale>
<asrwt>0</asrwt>
<pdfrwt beam="1">0</pdfrwt>
<pdfrwt beam="2">0</pdfrwt>
<totfact> 0.13977935E+11</totfact>
</mgrwt>
</event>
<event>
 4    2  0.1060494E+006  0.2379320E+01  0.7546771E-02  0.2764249E+00
         22   -1    0    0    0    0  0.00000000000E+00  0.00000000000E+00  0.11928084468E+02  0.11928084468E+02  0.00000000000E+00 0.  1.
         22   -1    0    0    0    0 -0.00000000000E+00 -0.00000000000E+00 -0.51121224021E+00  0.51121224021E+00  0.00000000000E+00 0. -1.
          4    1    1    2  501    0 -0.20499273536E+01 -0.12078741532E+01  0.40441346474E+01  0.46921410008E+01  0.00000000000E+00 0. -1.
         -4    1    1    2    0  501  0.20499273536E+01  0.12078741532E+01  0.73727375799E+01  0.77471557070E+01  0.00000000000E+00 0.  1.
<mgrwt>
<rscale>  0 0.23793197E+01</rscale>
<asrwt>0</asrwt>
<pdfrwt beam="1">0</pdfrwt>
<pdfrwt beam="2">0</pdfrwt>
<totfact> 0.27440953E+12</totfact>
</mgrwt>
</event>
<event>
 4    2  0.1060494E+006  0.2370588E+01  0.7546771E-02  0.2768487E+00
         22   -1    0    0    0    0  0.00000000000E+00  0.00000000000E+00  0.42230815889E+01  0.42230815889E+01  0.00000000000E+00 0.  1.
         22   -1    0    0    0    0 -0.00000000000E+00 -0.00000000000E+00 -0.14932243501E+01  0.14932243501E+01  0.00000000000E+00 0. -1.
          4    1    1    2  501    0  0.59606079592E+00  0.22944276086E+01  0.23078426066E+01  0.33084473731E+01  0.00000000000E+00 0.  1.
         -4    1    1    2    0  501 -0.59606079592E+00 -0.22944276086E+01  0.42201463225E+00  0.24078585659E+01  0.00000000000E+00 0. -1.
<mgrwt>
<rscale>  0 0.23705878E+01</rscale>
<asrwt>0</asrwt>
<pdfrwt beam="1">0</pdfrwt>
<pdfrwt beam="2">0</pdfrwt>
<totfact> 0.28044880E+12</totfact>
</mgrwt>
</event>
<event>
 4    2  0.1060494E+006  0.2312216E+01  0.7546771E-02  0.2797591E+00
         22   -1    0    0    0    0  0.00000000000E+00  0.00000000000E+00  0.36379636962E+01  0.36379636962E+01  0.00000000000E+00 0. -1.
         22   -1    0    0    0    0 -0.00000000000E+00 -0.00000000000E+00 -0.15054611721E+01  0.15054611721E+01  0.00000000000E+00 0.  1.
          4    1    1    2  501    0  0.13466210621E+01 -0.18796157185E+01  0.66932207263E+00  0.24071426154E+01  0.00000000000E+00 0. -1.
         -4    1    1    2    0  501 -0.13466210621E+01  0.18796157185E+01  0.14631804515E+01  0.27362822529E+01  0.00000000000E+00 0.  1.
<mgrwt>
<rscale>  0 0.23122162E+01</rscale>
<asrwt>0</asrwt>
<pdfrwt beam="1">0</pdfrwt>
<pdfrwt beam="2">0</pdfrwt>
<totfact> 0.33109367E+12</totfact>
</mgrwt>
</event>
<event>
 4    2  0.1060494E+006  0.2080721E+01  0.7546771E-02  0.2928291E+00
         22   -1    0    0    0    0  0.00000000000E+00  0.00000000000E+00  0.86564212689E+01  0.86564212689E+01  0.00000000000E+00 0. -1.
         22   -1    0    0    0    0 -0.00000000000E+00 -0.00000000000E+00 -0.94145191726E+00  0.94145191726E+00  0.00000000000E+00 0.  1.
          4    1    1    2  501    0 -0.35943127028E+00 -0.20494406834E+01  0.57184325735E+00  0.21578699367E+01  0.00000000000E+00 0.  1.
         -4    1    1    2    0  501  0.35943127028E+00  0.20494406834E+01  0.71431260943E+01  0.74400032494E+01  0.00000000000E+00 0. -1.
<mgrwt>
<rscale>  0 0.20807205E+01</rscale>
<asrwt>0</asrwt>
<pdfrwt beam="1">0</pdfrwt>
<pdfrwt beam="2">0</pdfrwt>
<totfact> 0.20233644E+12</totfact>
</mgrwt>
</event>
<event>
 4    2  0.1060494E+006  0.2108086E+01  0.7546771E-02  0.2911402E+00
         22   -1    0    0    0    0  0.00000000000E+00  0.00000000000E+00  0.14032784970E+01  0.14032784970E+01  0.00000000000E+00 0.  1.
         22   -1    0    0    0    0 -0.00000000000E+00 -0.00000000000E+00 -0.32157667454E+01  0.32157667454E+01  0.00000000000E+00 0. -1.
          4    1    1    2  501    0 -0.17184871125E+01 -0.12209944087E+01 -0.62150859823E+00  0.21977939484E+01  0.00000000000E+00 0. -1.
         -4    1    1    2    0  501  0.17184871125E+01  0.12209944087E+01 -0.11909796501E+01  0.24212512940E+01  0.00000000000E+00 0.  1.
<mgrwt>
<rscale>  0 0.21080857E+01</rscale>
<asrwt>0</asrwt>
<pdfrwt beam="1">0</pdfrwt>
<pdfrwt beam="2">0</pdfrwt>
<totfact> 0.41478609E+12</totfact>
</mgrwt>
</event>
<event>
 4    2  0.1060494E+006  0.2046770E+01  0.7546771E-02  0.2949854E+00
         22   -1    0    0    0    0  0.00000000000E+00  0.00000000000E+00  0.54447985354E+02  0.54447985354E+02  0.00000000000E+00 0. -1.
         22   -1    0    0    0    0 -0.00000000000E+00 -0.00000000000E+00 -0.10048099063E+00  0.10048099063E+00  0.00000000000E+00 0.  1.
          4    1    1    2  501    0 -0.18949794413E+00 -0.20379787438E+01  0.13972461848E+02  0.14121577707E+02  0.00000000000E+00 0. -1.
         -4    1    1    2    0  501  0.18949794413E+00  0.20379787438E+01  0.40375042515E+02  0.40426888638E+02  0.00000000000E+00 0.  1.
<mgrwt>
<rscale>  0 0.20467699E+01</rscale>
<asrwt>0</asrwt>
<pdfrwt beam="1">0</pdfrwt>
<pdfrwt beam="2">0</pdfrwt>
<totfact> 0.24718729E+12</totfact>
</mgrwt>
</event>
<event>
 4    2  0.1060494E+006  0.3481405E+01  0.7546771E-02  0.2388941E+00
         22   -1    0    0    0    0  0.00000000000E+00  0.00000000000E+00  0.16533136081E+02  0.16533136081E+02  0.00000000000E+00 0.  1.
         22   -1    0    0    0    0 -0.00000000000E+00 -0.00000000000E+00 -0.62270892759E+01  0.62270892759E+01  0.00000000000E+00 0. -1.
          4    1    1    2  501    0 -0.34045798256E+01 -0.72733610952E+00 -0.55362587910E+01  0.65399038988E+01  0.00000000000E+00 0. -1.
         -4    1    1    2    0  501  0.34045798256E+01  0.72733610952E+00  0.15842305596E+02  0.16220321458E+02  0.00000000000E+00 0.  1.
<mgrwt>
<rscale>  0 0.34814051E+01</rscale>
<asrwt>0</asrwt>
<pdfrwt beam="1">0</pdfrwt>
<pdfrwt beam="2">0</pdfrwt>
<totfact> 0.10201456E+11</totfact>
</mgrwt>
</event>
<event>
 4    2  0.1060494E+006  0.2007341E+01  0.7546771E-02  0.2975790E+00
         22   -1    0    0    0    0  0.00000000000E+00  0.00000000000E+00  0.21791920731E+01  0.21791920731E+01  0.00000000000E+00 0.  1.
         22   -1    0    0    0    0 -0.00000000000E+00 -0.00000000000E+00 -0.52920870492E+01  0.52920870492E+01  0.00000000000E+00 0. -1.
          4    1    1    2  501    0 -0.13152832441E+01  0.15163930128E+01 -0.45696118743E+01  0.49910690702E+01  0.00000000000E+00 0. -1.
         -4    1    1    2    0  501  0.13152832441E+01 -0.15163930128E+01  0.14567168982E+01  0.24802100522E+01  0.00000000000E+00 0.  1.
<mgrwt>
<rscale>  0 0.20073410E+01</rscale>
<asrwt>0</asrwt>
<pdfrwt beam="1">0</pdfrwt>
<pdfrwt beam="2">0</pdfrwt>
<totfact> 0.13878916E+12</totfact>
</mgrwt>
</event>
<event>
 4    2  0.1060494E+006  0.2019254E+01  0.7546771E-02  0.2967849E+00
         22   -1    0    0    0    0  0.00000000000E+00  0.00000000000E+00  0.10276936604E+01  0.10276936604E+01  0.00000000000E+00 0. -1.
         22   -1    0    0    0    0 -0.00000000000E+00 -0.00000000000E+00 -0.78246949510E+01  0.78246949510E+01  0.00000000000E+00 0.  1.
          4    1    1    2  501    0  0.14170111675E+01  0.14385632788E+01 -0.65061498902E+01  0.68122956005E+01  0.00000000000E+00 0.  1.
         -4    1    1    2    0  501 -0.14170111675E+01 -0.14385632788E+01 -0.29085140046E+00  0.20400930109E+01  0.00000000000E+00 0. -1.
<mgrwt>
<rscale>  0 0.20192536E+01</rscale>
<asrwt>0</asrwt>
<pdfrwt beam="1">0</pdfrwt>
<pdfrwt beam="2">0</pdfrwt>
<totfact> 0.20671257E+12</totfact>
</mgrwt>
</event>
<event>
 4    2  0.1060494E+006  0.2271882E+01  0.7546771E-02  0.2818528E+00
         22   -1    0    0    0    0  0.00000000000E+00  0.00000000000E+00  0.64183358731E+00  0.64183358731E+00  0.00000000000E+00 0.  1.
         22   -1    0    0    0    0 -0.00000000000E+00 -0.00000000000E+00 -0.80419221562E+01  0.80419221562E+01  0.00000000000E+00 0. -1.
          4    1    1    2  501    0 -0.19901228680E+01  0.10958366792E+01 -0.37217241829E+01  0.43603529618E+01  0.00000000000E+00 0.  1.
         -4    1    1    2    0  501  0.19901228680E+01 -0.10958366792E+01 -0.36783643860E+01  0.43234027818E+01  0.00000000000E+00 0. -1.
<mgrwt>
<rscale>  0 0.22718818E+01</rscale>
<asrwt>0</asrwt>
<pdfrwt beam="1">0</pdfrwt>
<pdfrwt beam="2">0</pdfrwt>
<totfact> 0.34178455E+12</totfact>
</mgrwt>
</event>
<event>
 4    2  0.1060494E+006  0.3063731E+01  0.7546771E-02  0.2502416E+00
         22   -1    0    0    0    0  0.00000000000E+00  0.00000000000E+00  0.93339822280E+00  0.93339822280E+00  0.00000000000E+00 0.  1.
         22   -1    0    0    0    0 -0.00000000000E+00 -0.00000000000E+00 -0.24900176985E+02  0.24900176985E+02  0.00000000000E+00 0. -1.
          4    1    1    2  501    0 -0.17147389613E+01  0.25389200231E+01 -0.21956447574E+02  0.22169168561E+02  0.00000000000E+00 0. -1.
         -4    1    1    2    0  501  0.17147389613E+01 -0.25389200231E+01 -0.20103311876E+01  0.36644066468E+01  0.00000000000E+00 0.  1.
<mgrwt>
<rscale>  0 0.30637305E+01</rscale>
<asrwt>0</asrwt>
<pdfrwt beam="1">0</pdfrwt>
<pdfrwt beam="2">0</pdfrwt>
<totfact> 0.55679093E+11</totfact>
</mgrwt>
</event>
<event>
 4    2  0.1060494E+006  0.4478294E+01  0.7546771E-02  0.2194238E+00
         22   -1    0    0    0    0  0.00000000000E+00  0.00000000000E+00  0.86105331307E+01  0.86105331307E+01  0.00000000000E+00 0. -1.
         22   -1    0    0    0    0 -0.00000000000E+00 -0.00000000000E+00 -0.23518461353E+01  0.23518461353E+01  0.00000000000E+00 0.  1.
          4    1    1    2  501    0 -0.65745899204E+00  0.44297707284E+01  0.36679354632E+01  0.57886847897E+01  0.00000000000E+00 0. -1.
         -4    1    1    2    0  501  0.65745899204E+00 -0.44297707284E+01  0.25907515322E+01  0.51736944763E+01  0.00000000000E+00 0.  1.
<mgrwt>
<rscale>  0 0.44782944E+01</rscale>
<asrwt>0</asrwt>
<pdfrwt beam="1">0</pdfrwt>
<pdfrwt beam="2">0</pdfrwt>
<totfact> 0.71018867E+11</totfact>
</mgrwt>
</event>
<event>
 4    2  0.1060494E+006  0.2220425E+01  0.7546771E-02  0.2846289E+00
         22   -1    0    0    0    0  0.00000000000E+00  0.00000000000E+00  0.45983203725E+01  0.45983203725E+01  0.00000000000E+00 0.  1.
         22   -1    0    0    0    0 -0.00000000000E+00 -0.00000000000E+00 -0.10724714803E+01  0.10724714803E+01  0.00000000000E+00 0. -1.
          4    1    1    2  501    0  0.22069132405E+01 -0.24458177584E+00  0.18086251570E+01  0.28638106178E+01  0.00000000000E+00 0.  1.
         -4    1    1    2    0  501 -0.22069132405E+01  0.24458177584E+00  0.17172237353E+01  0.28069812350E+01  0.00000000000E+00 0. -1.
<mgrwt>
<rscale>  0 0.22204248E+01</rscale>
<asrwt>0</asrwt>
<pdfrwt beam="1">0</pdfrwt>
<pdfrwt beam="2">0</pdfrwt>
<totfact> 0.37074941E+12</totfact>
</mgrwt>
</event>
<event>
 4    2  0.1060494E+006  0.4026456E+01  0.7546771E-02  0.2272266E+00
         22   -1    0    0    0    0  0.00000000000E+00  0.00000000000E+00  0.20309382076E+01  0.20309382076E+01  0.00000000000E+00 0. -1.
         22   -1    0    0    0    0 -0.00000000000E+00 -0.00000000000E+00 -0.10815052504E+02  0.10815052504E+02  0.00000000000E+00 0.  1.
          4    1    1    2  501    0  0.10393834586E+01 -0.38899910871E+01 -0.76790424823E+01  0.86706425411E+01  0.00000000000E+00 0.  1.
         -4    1    1    2    0  501 -0.10393834586E+01  0.38899910871E+01 -0.11050718142E+01  0.41753481706E+01  0.00000000000E+00 0. -1.
<mgrwt>
<rscale>  0 0.40264561E+01</rscale>
<asrwt>0</asrwt>
<pdfrwt beam="1">0</pdfrwt>
<pdfrwt beam="2">0</pdfrwt>
<totfact> 0.63904973E+11</totfact>
</mgrwt>
</event>
<event>
 4    2  0.1060494E+006  0.2019250E+01  0.7546771E-02  0.2967851E+00
         22   -1    0    0    0    0  0.00000000000E+00  0.00000000000E+00  0.11855229129E+01  0.11855229129E+01  0.00000000000E+00 0. -1.
         22   -1    0    0    0    0 -0.00000000000E+00 -0.00000000000E+00 -0.41389799509E+01  0.41389799509E+01  0.00000000000E+00 0.  1.
          4    1    1    2  501    0 -0.10122644222E+01  0.17471953680E+01 -0.38213818269E+00  0.20550913617E+01  0.00000000000E+00 0.  1.
         -4    1    1    2    0  501  0.10122644222E+01 -0.17471953680E+01 -0.25713188553E+01  0.32694115021E+01  0.00000000000E+00 0. -1.
<mgrwt>
<rscale>  0 0.20192501E+01</rscale>
<asrwt>0</asrwt>
<pdfrwt beam="1">0</pdfrwt>
<pdfrwt beam="2">0</pdfrwt>
<totfact> 0.37424649E+12</totfact>
</mgrwt>
</event>
<event>
 4    2  0.1060494E+006  0.3519576E+01  0.7546771E-02  0.2379758E+00
         22   -1    0    0    0    0  0.00000000000E+00  0.00000000000E+00  0.27738486301E+01  0.27738486301E+01  0.00000000000E+00 0. -1.
         22   -1    0    0    0    0 -0.00000000000E+00 -0.00000000000E+00 -0.49904140008E+01  0.49904140008E+01  0.00000000000E+00 0.  1.
          4    1    1    2  501    0  0.26292219763E+01 -0.23397877805E+01 -0.23669981424E+01  0.42414732422E+01  0.00000000000E+00 0.  1.
         -4    1    1    2    0  501 -0.26292219763E+01  0.23397877805E+01  0.15043277176E+00  0.35227893887E+01  0.00000000000E+00 0. -1.
<mgrwt>
<rscale>  0 0.35195760E+01</rscale>
<asrwt>0</asrwt>
<pdfrwt beam="1">0</pdfrwt>
<pdfrwt beam="2">0</pdfrwt>
<totfact> 0.11240128E+12</totfact>
</mgrwt>
</event>
<event>
 4    2  0.1060494E+006  0.2325530E+01  0.7546771E-02  0.2790832E+00
         22   -1    0    0    0    0  0.00000000000E+00  0.00000000000E+00  0.21677089855E+00  0.21677089855E+00  0.00000000000E+00 0.  1.
         22   -1    0    0    0    0 -0.00000000000E+00 -0.00000000000E+00 -0.25735062212E+02  0.25735062212E+02  0.00000000000E+00 0. -1.
          4    1    1    2  501    0  0.21135018137E+01 -0.97015392619E+00 -0.15027796722E+02  0.15206668369E+02  0.00000000000E+00 0. -1.
         -4    1    1    2    0  501 -0.21135018137E+01  0.97015392619E+00 -0.10490494591E+02  0.10745164742E+02  0.00000000000E+00 0.  1.
<mgrwt>
<rscale>  0 0.23255297E+01</rscale>
<asrwt>0</asrwt>
<pdfrwt beam="1">0</pdfrwt>
<pdfrwt beam="2">0</pdfrwt>
<totfact> 0.27716362E+12</totfact>
</mgrwt>
</event>
<event>
 4    2  0.1060494E+006  0.2469938E+01  0.7546771E-02  0.2721934E+00
         22   -1    0    0    0    0  0.00000000000E+00  0.00000000000E+00  0.18780896750E+01  0.18780896750E+01  0.00000000000E+00 0. -1.
         22   -1    0    0    0    0 -0.00000000000E+00 -0.00000000000E+00 -0.32963762643E+01  0.32963762643E+01  0.00000000000E+00 0.  1.
          4    1    1    2  501    0 -0.50436969159E+00 -0.24178922025E+01 -0.39667941173E+00  0.25015887041E+01  0.00000000000E+00 0.  1.
         -4    1    1    2    0  501  0.50436969159E+00  0.24178922025E+01 -0.10216071777E+01  0.26728772352E+01  0.00000000000E+00 0. -1.
<mgrwt>
<rscale>  0 0.24699375E+01</rscale>
<asrwt>0</asrwt>
<pdfrwt beam="1">0</pdfrwt>
<pdfrwt beam="2">0</pdfrwt>
<totfact> 0.28799932E+12</totfact>
</mgrwt>
</event>
<event>
 4    2  0.1060494E+006  0.2911172E+01  0.7546771E-02  0.2551018E+00
         22   -1    0    0    0    0  0.00000000000E+00  0.00000000000E+00  0.19306527829E+02  0.19306527829E+02  0.00000000000E+00 0. -1.
         22   -1    0    0    0    0 -0.00000000000E+00 -0.00000000000E+00 -0.58038314137E+00  0.58038314137E+00  0.00000000000E+00 0.  1.
          4    1    1    2  501    0  0.26744018662E+01  0.11499997024E+01  0.44547876547E+01  0.53216593000E+01  0.00000000000E+00 0.  1.
         -4    1    1    2    0  501 -0.26744018662E+01 -0.11499997024E+01  0.14271357033E+02  0.14565251670E+02  0.00000000000E+00 0. -1.
<mgrwt>
<rscale>  0 0.29111724E+01</rscale>
<asrwt>0</asrwt>
<pdfrwt beam="1">0</pdfrwt>
<pdfrwt beam="2">0</pdfrwt>
<totfact> 0.13138808E+12</totfact>
</mgrwt>
</event>
<event>
 4    2  0.1060494E+006  0.2243292E+01  0.7546771E-02  0.2833803E+00
         22   -1    0    0    0    0  0.00000000000E+00  0.00000000000E+00  0.24016289184E+01  0.24016289184E+01  0.00000000000E+00 0. -1.
         22   -1    0    0    0    0 -0.00000000000E+00 -0.00000000000E+00 -0.37321261370E+01  0.37321261370E+01  0.00000000000E+00 0.  1.
          4    1    1    2  501    0 -0.22282497172E+01  0.25934813266E+00 -0.26962354660E+01  0.35074269692E+01  0.00000000000E+00 0.  1.
         -4    1    1    2    0  501  0.22282497172E+01 -0.25934813266E+00  0.13657382474E+01  0.26263280862E+01  0.00000000000E+00 0. -1.
<mgrwt>
<rscale>  0 0.22432918E+01</rscale>
<asrwt>0</asrwt>
<pdfrwt beam="1">0</pdfrwt>
<pdfrwt beam="2">0</pdfrwt>
<totfact> 0.18723150E+12</totfact>
</mgrwt>
</event>
<event>
 4    2  0.1060494E+006  0.2134841E+01  0.7546771E-02  0.2895295E+00
         22   -1    0    0    0    0  0.00000000000E+00  0.00000000000E+00  0.38715120206E+01  0.38715120206E+01  0.00000000000E+00 0. -1.
         22   -1    0    0    0    0 -0.00000000000E+00 -0.00000000000E+00 -0.15572197982E+01  0.15572197982E+01  0.00000000000E+00 0.  1.
          4    1    1    2  501    0 -0.21197984021E+01 -0.25298770855E+00 -0.18375250001E+00  0.21427349410E+01  0.00000000000E+00 0.  1.
         -4    1    1    2    0  501  0.21197984021E+01  0.25298770855E+00  0.24980447224E+01  0.32859968778E+01  0.00000000000E+00 0. -1.
<mgrwt>
<rscale>  0 0.21348415E+01</rscale>
<asrwt>0</asrwt>
<pdfrwt beam="1">0</pdfrwt>
<pdfrwt beam="2">0</pdfrwt>
<totfact> 0.29600076E+12</totfact>
</mgrwt>
</event>
<event>
 4    2  0.1060494E+006  0.3281607E+01  0.7546771E-02  0.2440042E+00
         22   -1    0    0    0    0  0.00000000000E+00  0.00000000000E+00  0.99645283212E+02  0.99645283212E+02  0.00000000000E+00 0.  1.
         22   -1    0    0    0    0 -0.00000000000E+00 -0.00000000000E+00 -0.17924016595E+00  0.17924016595E+00  0.00000000000E+00 0. -1.
          4    1    1    2  501    0  0.24200472035E+01 -0.22163747405E+01  0.18282343995E+02  0.18574526842E+02  0.00000000000E+00 0. -1.
         -4    1    1    2    0  501 -0.24200472035E+01  0.22163747405E+01  0.81183699051E+02  0.81249996535E+02  0.00000000000E+00 0.  1.
<mgrwt>
<rscale>  0 0.32816071E+01</rscale>
<asrwt>0</asrwt>
<pdfrwt beam="1">0</pdfrwt>
<pdfrwt beam="2">0</pdfrwt>
<totfact> 0.56985013E+11</totfact>
</mgrwt>
</event>
<event>
 4    2  0.1060494E+006  0.4599556E+01  0.7546771E-02  0.2175511E+00
         22   -1    0    0    0    0  0.00000000000E+00  0.00000000000E+00  0.29088126024E+01  0.29088126024E+01  0.00000000000E+00 0.  1.
         22   -1    0    0    0    0 -0.00000000000E+00 -0.00000000000E+00 -0.14766102003E+02  0.14766102003E+02  0.00000000000E+00 0. -1.
          4    1    1    2  501    0 -0.38104850098E+01  0.25760669419E+01 -0.12224054343E+02  0.13060758841E+02  0.00000000000E+00 0. -1.
         -4    1    1    2    0  501  0.38104850098E+01 -0.25760669419E+01  0.36676494275E+00  0.46141557649E+01  0.00000000000E+00 0.  1.
<mgrwt>
<rscale>  0 0.45995562E+01</rscale>
<asrwt>0</asrwt>
<pdfrwt beam="1">0</pdfrwt>
<pdfrwt beam="2">0</pdfrwt>
<totfact> 0.28768349E+11</totfact>
</mgrwt>
</event>
<event>
 4    2  0.1060494E+006  0.2857449E+01  0.7546771E-02  0.2569241E+00
         22   -1    0    0    0    0  0.00000000000E+00  0.00000000000E+00  0.40531579939E+01  0.40531579939E+01  0.00000000000E+00 0. -1.
         22   -1    0    0    0    0 -0.00000000000E+00 -0.00000000000E+00 -0.38651375034E+01  0.38651375034E+01  0.00000000000E+00 0.  1.
          4    1    1    2  501    0 -0.13824551318E+01 -0.25007665101E+01 -0.26455571113E+01  0.38940965266E+01  0.00000000000E+00 0.  1.
         -4    1    1    2    0  501  0.13824551318E+01  0.25007665101E+01  0.28335776019E+01  0.40241989707E+01  0.00000000000E+00 0. -1.
<mgrwt>
<rscale>  0 0.28574491E+01</rscale>
<asrwt>0</asrwt>
<pdfrwt beam="1">0</pdfrwt>
<pdfrwt beam="2">0</pdfrwt>
<totfact> 0.97439164E+11</totfact>
</mgrwt>
</event>
<event>
 4    2  0.1060494E+006  0.2051304E+01  0.7546771E-02  0.2946934E+00
         22   -1    0    0    0    0  0.00000000000E+00  0.00000000000E+00  0.35112018765E+02  0.35112018765E+02  0.00000000000E+00 0. -1.
         22   -1    0    0    0    0 -0.00000000000E+00 -0.00000000000E+00 -0.13542725892E+00  0.13542725892E+00  0.00000000000E+00 0.  1.
          4    1    1    2  501    0  0.96729839566E+00  0.18089168793E+01  0.11509403772E+02  0.11690775067E+02  0.00000000000E+00 0.  1.
         -4    1    1    2    0  501 -0.96729839566E+00 -0.18089168793E+01  0.23467187734E+02  0.23556670958E+02  0.00000000000E+00 0. -1.
<mgrwt>
<rscale>  0 0.20513036E+01</rscale>
<asrwt>0</asrwt>
<pdfrwt beam="1">0</pdfrwt>
<pdfrwt beam="2">0</pdfrwt>
<totfact> 0.31491955E+12</totfact>
</mgrwt>
</event>
<event>
 4    2  0.1060494E+006  0.6902522E+01  0.7546771E-02  0.1947098E+00
         22   -1    0    0    0    0  0.00000000000E+00  0.00000000000E+00  0.15095482885E+02  0.15095482885E+02  0.00000000000E+00 0.  1.
         22   -1    0    0    0    0 -0.00000000000E+00 -0.00000000000E+00 -0.31950164391E+01  0.31950164391E+01  0.00000000000E+00 0. -1.
          4    1    1    2  501    0 -0.39183360455E+01 -0.56825566487E+01  0.49426008071E+01  0.84896472347E+01  0.00000000000E+00 0. -1.
         -4    1    1    2    0  501  0.39183360455E+01  0.56825566487E+01  0.69578656387E+01  0.98008520893E+01  0.00000000000E+00 0.  1.
<mgrwt>
<rscale>  0 0.69025218E+01</rscale>
<asrwt>0</asrwt>
<pdfrwt beam="1">0</pdfrwt>
<pdfrwt beam="2">0</pdfrwt>
<totfact> 0.25089723E+11</totfact>
</mgrwt>
</event>
<event>
 4    2  0.1060494E+006  0.2491449E+01  0.7546771E-02  0.2712312E+00
         22   -1    0    0    0    0  0.00000000000E+00  0.00000000000E+00  0.46260209949E+01  0.46260209949E+01  0.00000000000E+00 0.  1.
         22   -1    0    0    0    0 -0.00000000000E+00 -0.00000000000E+00 -0.33863188990E+01  0.33863188990E+01  0.00000000000E+00 0. -1.
          4    1    1    2  501    0  0.88234975612E+00  0.23299734355E+01 -0.24929989797E+01  0.35245370214E+01  0.00000000000E+00 0. -1.
         -4    1    1    2    0  501 -0.88234975612E+00 -0.23299734355E+01  0.37327010756E+01  0.44878028725E+01  0.00000000000E+00 0.  1.
<mgrwt>
<rscale>  0 0.24914488E+01</rscale>
<asrwt>0</asrwt>
<pdfrwt beam="1">0</pdfrwt>
<pdfrwt beam="2">0</pdfrwt>
<totfact> 0.97371318E+11</totfact>
</mgrwt>
</event>
<event>
 4    2  0.1060494E+006  0.2625470E+01  0.7546771E-02  0.2655672E+00
         22   -1    0    0    0    0  0.00000000000E+00  0.00000000000E+00  0.15241946413E+01  0.15241946413E+01  0.00000000000E+00 0. -1.
         22   -1    0    0    0    0 -0.00000000000E+00 -0.00000000000E+00 -0.50929869189E+01  0.50929869189E+01  0.00000000000E+00 0.  1.
          4    1    1    2  501    0 -0.75440402447E+00 -0.25147499232E+01 -0.28917820972E+01  0.39058285044E+01  0.00000000000E+00 0. -1.
         -4    1    1    2    0  501  0.75440402447E+00  0.25147499232E+01 -0.67701018047E+00  0.27113530558E+01  0.00000000000E+00 0.  1.
<mgrwt>
<rscale>  0 0.26254700E+01</rscale>
<asrwt>0</asrwt>
<pdfrwt beam="1">0</pdfrwt>
<pdfrwt beam="2">0</pdfrwt>
<totfact> 0.21953088E+12</totfact>
</mgrwt>
</event>
<event>
 4    2  0.1060494E+006  0.2876050E+01  0.7546771E-02  0.2562862E+00
         22   -1    0    0    0    0  0.00000000000E+00  0.00000000000E+00  0.78545925538E+00  0.78545925538E+00  0.00000000000E+00 0.  1.
         22   -1    0    0    0    0 -0.00000000000E+00 -0.00000000000E+00 -0.24851096814E+02  0.24851096814E+02  0.00000000000E+00 0. -1.
          4    1    1    2  501    0  0.28650692341E+01 -0.25108171282E+00 -0.21763203954E+02  0.21952419231E+02  0.00000000000E+00 0. -1.
         -4    1    1    2    0  501 -0.28650692341E+01  0.25108171282E+00 -0.23024336050E+01  0.36841368389E+01  0.00000000000E+00 0.  1.
<mgrwt>
<rscale>  0 0.28760500E+01</rscale>
<asrwt>0</asrwt>
<pdfrwt beam="1">0</pdfrwt>
<pdfrwt beam="2">0</pdfrwt>
<totfact> 0.67939739E+11</totfact>
</mgrwt>
</event>
<event>
 4    2  0.1060494E+006  0.2287257E+01  0.7546771E-02  0.2810464E+00
         22   -1    0    0    0    0  0.00000000000E+00  0.00000000000E+00  0.34006550895E+01  0.34006550895E+01  0.00000000000E+00 0. -1.
         22   -1    0    0    0    0 -0.00000000000E+00 -0.00000000000E+00 -0.23758555497E+01  0.23758555497E+01  0.00000000000E+00 0.  1.
          4    1    1    2  501    0  0.60291548957E+00 -0.22063633037E+01 -0.12023790111E+01  0.25840397446E+01  0.00000000000E+00 0.  1.
         -4    1    1    2    0  501 -0.60291548957E+00  0.22063633037E+01  0.22271785509E+01  0.31924708946E+01  0.00000000000E+00 0. -1.
<mgrwt>
<rscale>  0 0.22872573E+01</rscale>
<asrwt>0</asrwt>
<pdfrwt beam="1">0</pdfrwt>
<pdfrwt beam="2">0</pdfrwt>
<totfact> 0.21145456E+12</totfact>
</mgrwt>
</event>
<event>
 4    2  0.1060494E+006  0.2588050E+01  0.7546771E-02  0.2670940E+00
         22   -1    0    0    0    0  0.00000000000E+00  0.00000000000E+00  0.42755048105E+00  0.42755048105E+00  0.00000000000E+00 0. -1.
         22   -1    0    0    0    0 -0.00000000000E+00 -0.00000000000E+00 -0.46989805392E+02  0.46989805392E+02  0.00000000000E+00 0.  1.
          4    1    1    2  501    0 -0.20136164329E+01  0.16258379726E+01 -0.42638341978E+02  0.42716814100E+02  0.00000000000E+00 0.  1.
         -4    1    1    2    0  501  0.20136164329E+01 -0.16258379726E+01 -0.39239129335E+01  0.47005417732E+01  0.00000000000E+00 0. -1.
<mgrwt>
<rscale>  0 0.25880495E+01</rscale>
<asrwt>0</asrwt>
<pdfrwt beam="1">0</pdfrwt>
<pdfrwt beam="2">0</pdfrwt>
<totfact> 0.59632347E+11</totfact>
</mgrwt>
</event>
<event>
 4    2  0.1060494E+006  0.3023848E+01  0.7546771E-02  0.2514697E+00
         22   -1    0    0    0    0  0.00000000000E+00  0.00000000000E+00  0.60920733108E+02  0.60920733108E+02  0.00000000000E+00 0. -1.
         22   -1    0    0    0    0 -0.00000000000E+00 -0.00000000000E+00 -0.15438043551E+00  0.15438043551E+00  0.00000000000E+00 0.  1.
          4    1    1    2  501    0 -0.24674428100E+01  0.17479656810E+01  0.35473374189E+02  0.35602021493E+02  0.00000000000E+00 0. -1.
         -4    1    1    2    0  501  0.24674428100E+01 -0.17479656810E+01  0.25292978484E+02  0.25473092051E+02  0.00000000000E+00 0.  1.
<mgrwt>
<rscale>  0 0.30238482E+01</rscale>
<asrwt>0</asrwt>
<pdfrwt beam="1">0</pdfrwt>
<pdfrwt beam="2">0</pdfrwt>
<totfact> 0.13214983E+12</totfact>
</mgrwt>
</event>
<event>
 4    2  0.1060494E+006  0.2246417E+01  0.7546771E-02  0.2832115E+00
         22   -1    0    0    0    0  0.00000000000E+00  0.00000000000E+00  0.36065686832E+00  0.36065686832E+00  0.00000000000E+00 0.  1.
         22   -1    0    0    0    0 -0.00000000000E+00 -0.00000000000E+00 -0.19634929082E+02  0.19634929082E+02  0.00000000000E+00 0. -1.
          4    1    1    2  501    0 -0.16892037646E+01 -0.14808710144E+01 -0.14996750030E+02  0.15164066070E+02  0.00000000000E+00 0. -1.
         -4    1    1    2    0  501  0.16892037646E+01  0.14808710144E+01 -0.42775221838E+01  0.48315198802E+01  0.00000000000E+00 0.  1.
<mgrwt>
<rscale>  0 0.22464168E+01</rscale>
<asrwt>0</asrwt>
<pdfrwt beam="1">0</pdfrwt>
<pdfrwt beam="2">0</pdfrwt>
<totfact> 0.22000845E+12</totfact>
</mgrwt>
</event>
<event>
 4    2  0.1060494E+006  0.3459122E+01  0.7546771E-02  0.2394384E+00
         22   -1    0    0    0    0  0.00000000000E+00  0.00000000000E+00  0.34102312368E+02  0.34102312368E+02  0.00000000000E+00 0.  1.
         22   -1    0    0    0    0 -0.00000000000E+00 -0.00000000000E+00 -0.71343499648E+00  0.71343499648E+00  0.00000000000E+00 0. -1.
          4    1    1    2  501    0 -0.17071131717E+01 -0.30085363082E+01  0.42847576254E+01  0.55067843617E+01  0.00000000000E+00 0. -1.
         -4    1    1    2    0  501  0.17071131717E+01  0.30085363082E+01  0.29104119746E+02  0.29308963003E+02  0.00000000000E+00 0.  1.
<mgrwt>
<rscale>  0 0.34591222E+01</rscale>
<asrwt>0</asrwt>
<pdfrwt beam="1">0</pdfrwt>
<pdfrwt beam="2">0</pdfrwt>
<totfact> 0.50667077E+11</totfact>
</mgrwt>
</event>
<event>
 4    2  0.1060494E+006  0.3129287E+01  0.7546771E-02  0.2482838E+00
         22   -1    0    0    0    0  0.00000000000E+00  0.00000000000E+00  0.10564325075E+01  0.10564325075E+01  0.00000000000E+00 0. -1.
         22   -1    0    0    0    0 -0.00000000000E+00 -0.00000000000E+00 -0.96579705190E+01  0.96579705190E+01  0.00000000000E+00 0.  1.
          4    1    1    2  501    0  0.20873983698E+01  0.23313524359E+01 -0.53754049483E+01  0.62199207787E+01  0.00000000000E+00 0.  1.
         -4    1    1    2    0  501 -0.20873983698E+01 -0.23313524359E+01 -0.32261330632E+01  0.44944822479E+01  0.00000000000E+00 0. -1.
<mgrwt>
<rscale>  0 0.31292868E+01</rscale>
<asrwt>0</asrwt>
<pdfrwt beam="1">0</pdfrwt>
<pdfrwt beam="2">0</pdfrwt>
<totfact> 0.15544630E+12</totfact>
</mgrwt>
</event>
<event>
 4    2  0.1060494E+006  0.2464631E+01  0.7546771E-02  0.2724331E+00
         22   -1    0    0    0    0  0.00000000000E+00  0.00000000000E+00  0.65098490232E+00  0.65098490232E+00  0.00000000000E+00 0. -1.
         22   -1    0    0    0    0 -0.00000000000E+00 -0.00000000000E+00 -0.10891693521E+02  0.10891693521E+02  0.00000000000E+00 0.  1.
          4    1    1    2  501    0  0.51493061497E+00  0.24102393170E+01 -0.73049616686E+01  0.77095312493E+01  0.00000000000E+00 0.  1.
         -4    1    1    2    0  501 -0.51493061497E+00 -0.24102393170E+01 -0.29357469503E+01  0.38331471743E+01  0.00000000000E+00 0. -1.
<mgrwt>
<rscale>  0 0.24646312E+01</rscale>
<asrwt>0</asrwt>
<pdfrwt beam="1">0</pdfrwt>
<pdfrwt beam="2">0</pdfrwt>
<totfact> 0.23315642E+12</totfact>
</mgrwt>
</event>
<event>
 4    2  0.1060494E+006  0.2062397E+01  0.7546771E-02  0.2939843E+00
         22   -1    0    0    0    0  0.00000000000E+00  0.00000000000E+00  0.61393657515E+00  0.61393657515E+00  0.00000000000E+00 0. -1.
         22   -1    0    0    0    0 -0.00000000000E+00 -0.00000000000E+00 -0.75549407830E+01  0.75549407830E+01  0.00000000000E+00 0.  1.
          4    1    1    2  501    0  0.18710967831E+01 -0.86745547109E+00 -0.46469074682E+01  0.50840172289E+01  0.00000000000E+00 0.  1.
         -4    1    1    2    0  501 -0.18710967831E+01  0.86745547109E+00 -0.22940967396E+01  0.30848601292E+01  0.00000000000E+00 0. -1.
<mgrwt>
<rscale>  0 0.20623972E+01</rscale>
<asrwt>0</asrwt>
<pdfrwt beam="1">0</pdfrwt>
<pdfrwt beam="2">0</pdfrwt>
<totfact> 0.38740484E+12</totfact>
</mgrwt>
</event>
<event>
 4    2  0.1060494E+006  0.3413110E+01  0.7546771E-02  0.2405818E+00
         22   -1    0    0    0    0  0.00000000000E+00  0.00000000000E+00  0.65835211233E+01  0.65835211233E+01  0.00000000000E+00 0. -1.
         22   -1    0    0    0    0 -0.00000000000E+00 -0.00000000000E+00 -0.17834700141E+01  0.17834700141E+01  0.00000000000E+00 0.  1.
          4    1    1    2  501    0  0.20278177216E+01 -0.27454101517E+01  0.20293266414E+01  0.39708296653E+01  0.00000000000E+00 0. -1.
         -4    1    1    2    0  501 -0.20278177216E+01  0.27454101517E+01  0.27707244677E+01  0.43961614722E+01  0.00000000000E+00 0.  1.
<mgrwt>
<rscale>  0 0.34131103E+01</rscale>
<asrwt>0</asrwt>
<pdfrwt beam="1">0</pdfrwt>
<pdfrwt beam="2">0</pdfrwt>
<totfact> 0.13498319E+12</totfact>
</mgrwt>
</event>
<event>
 4    2  0.1060494E+006  0.3168213E+01  0.7546771E-02  0.2471555E+00
         22   -1    0    0    0    0  0.00000000000E+00  0.00000000000E+00  0.10155619486E+01  0.10155619486E+01  0.00000000000E+00 0.  1.
         22   -1    0    0    0    0 -0.00000000000E+00 -0.00000000000E+00 -0.14195842073E+02  0.14195842073E+02  0.00000000000E+00 0. -1.
          4    1    1    2  501    0 -0.20283705293E+01  0.24337805552E+01 -0.10781954274E+02  0.11237798395E+02  0.00000000000E+00 0. -1.
         -4    1    1    2    0  501  0.20283705293E+01 -0.24337805552E+01 -0.23983258509E+01  0.39736056274E+01  0.00000000000E+00 0.  1.
<mgrwt>
<rscale>  0 0.31682132E+01</rscale>
<asrwt>0</asrwt>
<pdfrwt beam="1">0</pdfrwt>
<pdfrwt beam="2">0</pdfrwt>
<totfact> 0.10171205E+12</totfact>
</mgrwt>
</event>
<event>
 4    2  0.1060494E+006  0.2751341E+01  0.7546771E-02  0.2607124E+00
         22   -1    0    0    0    0  0.00000000000E+00  0.00000000000E+00  0.20170305769E+02  0.20170305769E+02  0.00000000000E+00 0. -1.
         22   -1    0    0    0    0 -0.00000000000E+00 -0.00000000000E+00 -0.59705488913E+00  0.59705488913E+00  0.00000000000E+00 0.  1.
          4    1    1    2  501    0  0.19562883824E+01 -0.19346352708E+01  0.34583901064E+01  0.44193144258E+01  0.00000000000E+00 0.  1.
         -4    1    1    2    0  501 -0.19562883824E+01  0.19346352708E+01  0.16114860773E+02  0.16348046232E+02  0.00000000000E+00 0. -1.
<mgrwt>
<rscale>  0 0.27513411E+01</rscale>
<asrwt>0</asrwt>
<pdfrwt beam="1">0</pdfrwt>
<pdfrwt beam="2">0</pdfrwt>
<totfact> 0.12048771E+12</totfact>
</mgrwt>
</event>
<event>
 4    2  0.1060494E+006  0.2240578E+01  0.7546771E-02  0.2835272E+00
         22   -1    0    0    0    0  0.00000000000E+00  0.00000000000E+00  0.17661307267E+01  0.17661307267E+01  0.00000000000E+00 0. -1.
         22   -1    0    0    0    0 -0.00000000000E+00 -0.00000000000E+00 -0.30726810539E+01  0.30726810539E+01  0.00000000000E+00 0.  1.
          4    1    1    2  501    0  0.10040385903E-01 -0.22405558002E+01 -0.13154973615E+01  0.25982156206E+01  0.00000000000E+00 0.  1.
         -4    1    1    2    0  501 -0.10040385903E-01  0.22405558002E+01  0.89470342870E-02  0.22405961600E+01  0.00000000000E+00 0. -1.
<mgrwt>
<rscale>  0 0.22405783E+01</rscale>
<asrwt>0</asrwt>
<pdfrwt beam="1">0</pdfrwt>
<pdfrwt beam="2">0</pdfrwt>
<totfact> 0.33567481E+12</totfact>
</mgrwt>
</event>
<event>
 4    2  0.1060494E+006  0.2101214E+01  0.7546771E-02  0.2915603E+00
         22   -1    0    0    0    0  0.00000000000E+00  0.00000000000E+00  0.67371285177E+01  0.67371285177E+01  0.00000000000E+00 0. -1.
         22   -1    0    0    0    0 -0.00000000000E+00 -0.00000000000E+00 -0.67956565588E+00  0.67956565588E+00  0.00000000000E+00 0.  1.
          4    1    1    2  501    0  0.20332259374E+01 -0.53018293457E+00  0.23285956700E+01  0.31364724534E+01  0.00000000000E+00 0.  1.
         -4    1    1    2    0  501 -0.20332259374E+01  0.53018293457E+00  0.37289671918E+01  0.42802217202E+01  0.00000000000E+00 0. -1.
<mgrwt>
<rscale>  0 0.21012143E+01</rscale>
<asrwt>0</asrwt>
<pdfrwt beam="1">0</pdfrwt>
<pdfrwt beam="2">0</pdfrwt>
<totfact> 0.39602197E+12</totfact>
</mgrwt>
</event>
<event>
 4    2  0.1060494E+006  0.3091253E+01  0.7546771E-02  0.2494107E+00
         22   -1    0    0    0    0  0.00000000000E+00  0.00000000000E+00  0.14329041775E+02  0.14329041775E+02  0.00000000000E+00 0.  1.
         22   -1    0    0    0    0 -0.00000000000E+00 -0.00000000000E+00 -0.29880964435E+01  0.29880964435E+01  0.00000000000E+00 0. -1.
          4    1    1    2  501    0 -0.22523347749E+01 -0.21172698983E+01 -0.19609593284E+01  0.36607656642E+01  0.00000000000E+00 0. -1.
         -4    1    1    2    0  501  0.22523347749E+01  0.21172698983E+01  0.13301904660E+02  0.13656372554E+02  0.00000000000E+00 0.  1.
<mgrwt>
<rscale>  0 0.30912528E+01</rscale>
<asrwt>0</asrwt>
<pdfrwt beam="1">0</pdfrwt>
<pdfrwt beam="2">0</pdfrwt>
<totfact> 0.28927513E+11</totfact>
</mgrwt>
</event>
<event>
 4    2  0.1060494E+006  0.3262606E+01  0.7546771E-02  0.2445187E+00
         22   -1    0    0    0    0  0.00000000000E+00  0.00000000000E+00  0.10780056345E+01  0.10780056345E+01  0.00000000000E+00 0. -1.
         22   -1    0    0    0    0 -0.00000000000E+00 -0.00000000000E+00 -0.17397495472E+02  0.17397495472E+02  0.00000000000E+00 0.  1.
          4    1    1    2  501    0  0.13566914172E+01 -0.29671508314E+01 -0.14234417055E+02  0.14603534660E+02  0.00000000000E+00 0.  1.
         -4    1    1    2    0  501 -0.13566914172E+01  0.29671508314E+01 -0.20850727823E+01  0.38719664468E+01  0.00000000000E+00 0. -1.
<mgrwt>
<rscale>  0 0.32626057E+01</rscale>
<asrwt>0</asrwt>
<pdfrwt beam="1">0</pdfrwt>
<pdfrwt beam="2">0</pdfrwt>
<totfact> 0.73932733E+11</totfact>
</mgrwt>
</event>
<event>
 4    2  0.1060494E+006  0.2264546E+01  0.7546771E-02  0.2822412E+00
         22   -1    0    0    0    0  0.00000000000E+00  0.00000000000E+00  0.80899929740E+00  0.80899929740E+00  0.00000000000E+00 0. -1.
         22   -1    0    0    0    0 -0.00000000000E+00 -0.00000000000E+00 -0.85789467049E+01  0.85789467049E+01  0.00000000000E+00 0.  1.
          4    1    1    2  501    0 -0.15771956351E+01  0.16249994690E+01 -0.62835398287E+01  0.66791498055E+01  0.00000000000E+00 0. -1.
         -4    1    1    2    0  501  0.15771956351E+01 -0.16249994690E+01 -0.14864075788E+01  0.27087961968E+01  0.00000000000E+00 0.  1.
<mgrwt>
<rscale>  0 0.22645462E+01</rscale>
<asrwt>0</asrwt>
<pdfrwt beam="1">0</pdfrwt>
<pdfrwt beam="2">0</pdfrwt>
<totfact> 0.24311779E+12</totfact>
</mgrwt>
</event>
<event>
 4    2  0.1060494E+006  0.2307359E+01  0.7546771E-02  0.2800075E+00
         22   -1    0    0    0    0  0.00000000000E+00  0.00000000000E+00  0.81789130482E+00  0.81789130482E+00  0.00000000000E+00 0. -1.
         22   -1    0    0    0    0 -0.00000000000E+00 -0.00000000000E+00 -0.11969015435E+02  0.11969015435E+02  0.00000000000E+00 0.  1.
          4    1    1    2  501    0 -0.18475214002E+01  0.13822343988E+01 -0.98936445396E+01  0.10159139212E+02  0.00000000000E+00 0.  1.
         -4    1    1    2    0  501  0.18475214002E+01 -0.13822343988E+01 -0.12574795902E+01  0.26277675272E+01  0.00000000000E+00 0. -1.
<mgrwt>
<rscale>  0 0.23073594E+01</rscale>
<asrwt>0</asrwt>
<pdfrwt beam="1">0</pdfrwt>
<pdfrwt beam="2">0</pdfrwt>
<totfact> 0.16039602E+12</totfact>
</mgrwt>
</event>
<event>
 4    2  0.1060494E+006  0.2187238E+01  0.7546771E-02  0.2864855E+00
         22   -1    0    0    0    0  0.00000000000E+00  0.00000000000E+00  0.69914498518E+00  0.69914498518E+00  0.00000000000E+00 0.  1.
         22   -1    0    0    0    0 -0.00000000000E+00 -0.00000000000E+00 -0.17750635364E+02  0.17750635364E+02  0.00000000000E+00 0. -1.
          4    1    1    2  501    0  0.14462034869E+01  0.16408851518E+01 -0.15757212170E+02  0.15908291673E+02  0.00000000000E+00 0. -1.
         -4    1    1    2    0  501 -0.14462034869E+01 -0.16408851518E+01 -0.12942782094E+01  0.25414886760E+01  0.00000000000E+00 0.  1.
<mgrwt>
<rscale>  0 0.21872377E+01</rscale>
<asrwt>0</asrwt>
<pdfrwt beam="1">0</pdfrwt>
<pdfrwt beam="2">0</pdfrwt>
<totfact> 0.11809208E+12</totfact>
</mgrwt>
</event>
<event>
 4    2  0.1060494E+006  0.3074565E+01  0.7546771E-02  0.2499129E+00
         22   -1    0    0    0    0  0.00000000000E+00  0.00000000000E+00  0.15698399923E+01  0.15698399923E+01  0.00000000000E+00 0.  1.
         22   -1    0    0    0    0 -0.00000000000E+00 -0.00000000000E+00 -0.60237525801E+01  0.60237525801E+01  0.00000000000E+00 0. -1.
          4    1    1    2  501    0 -0.29542271457E+01  0.85175755160E+00 -0.21551877723E+01  0.37547014913E+01  0.00000000000E+00 0. -1.
         -4    1    1    2    0  501  0.29542271457E+01 -0.85175755160E+00 -0.22987248155E+01  0.38388910811E+01  0.00000000000E+00 0.  1.
<mgrwt>
<rscale>  0 0.30745648E+01</rscale>
<asrwt>0</asrwt>
<pdfrwt beam="1">0</pdfrwt>
<pdfrwt beam="2">0</pdfrwt>
<totfact> 0.17385279E+12</totfact>
</mgrwt>
</event>
<event>
 4    2  0.1060494E+006  0.2398230E+01  0.7546771E-02  0.2755172E+00
         22   -1    0    0    0    0  0.00000000000E+00  0.00000000000E+00  0.12051210817E+02  0.12051210817E+02  0.00000000000E+00 0.  1.
         22   -1    0    0    0    0 -0.00000000000E+00 -0.00000000000E+00 -0.98914300786E+00  0.98914300786E+00  0.00000000000E+00 0. -1.
          4    1    1    2  501    0 -0.97915593171E+00  0.21892372339E+01  0.84055567009E+00  0.25412673687E+01  0.00000000000E+00 0. -1.
         -4    1    1    2    0  501  0.97915593171E+00 -0.21892372339E+01  0.10221512139E+02  0.10499086457E+02  0.00000000000E+00 0.  1.
<mgrwt>
<rscale>  0 0.23982298E+01</rscale>
<asrwt>0</asrwt>
<pdfrwt beam="1">0</pdfrwt>
<pdfrwt beam="2">0</pdfrwt>
<totfact> 0.12807473E+12</totfact>
</mgrwt>
</event>
<event>
 4    2  0.1060494E+006  0.2159354E+01  0.7546771E-02  0.2880877E+00
         22   -1    0    0    0    0  0.00000000000E+00  0.00000000000E+00  0.22328214055E+01  0.22328214055E+01  0.00000000000E+00 0. -1.
         22   -1    0    0    0    0 -0.00000000000E+00 -0.00000000000E+00 -0.22747864976E+01  0.22747864976E+01  0.00000000000E+00 0.  1.
          4    1    1    2  501    0 -0.20420837932E+01  0.70192992401E+00 -0.66628576176E+00  0.22598116189E+01  0.00000000000E+00 0.  1.
         -4    1    1    2    0  501  0.20420837932E+01 -0.70192992401E+00  0.62432066964E+00  0.22477962842E+01  0.00000000000E+00 0. -1.
<mgrwt>
<rscale>  0 0.21593545E+01</rscale>
<asrwt>0</asrwt>
<pdfrwt beam="1">0</pdfrwt>
<pdfrwt beam="2">0</pdfrwt>
<totfact> 0.36320288E+12</totfact>
</mgrwt>
</event>
<event>
 4    2  0.1060494E+006  0.2315914E+01  0.7546771E-02  0.2795706E+00
         22   -1    0    0    0    0  0.00000000000E+00  0.00000000000E+00  0.20832153802E+02  0.20832153802E+02  0.00000000000E+00 0.  1.
         22   -1    0    0    0    0 -0.00000000000E+00 -0.00000000000E+00 -0.26053284893E+00  0.26053284893E+00  0.00000000000E+00 0. -1.
          4    1    1    2  501    0  0.93162550044E+00  0.21202668961E+01  0.11431065928E+02  0.11663306823E+02  0.00000000000E+00 0. -1.
         -4    1    1    2    0  501 -0.93162550044E+00 -0.21202668961E+01  0.91405550248E+01  0.94293798283E+01  0.00000000000E+00 0.  1.
<mgrwt>
<rscale>  0 0.23159140E+01</rscale>
<asrwt>0</asrwt>
<pdfrwt beam="1">0</pdfrwt>
<pdfrwt beam="2">0</pdfrwt>
<totfact> 0.29428958E+12</totfact>
</mgrwt>
</event>
<event>
 4    2  0.1060494E+006  0.2200759E+01  0.7546771E-02  0.2857226E+00
         22   -1    0    0    0    0  0.00000000000E+00  0.00000000000E+00  0.54582526471E+00  0.54582526471E+00  0.00000000000E+00 0. -1.
         22   -1    0    0    0    0 -0.00000000000E+00 -0.00000000000E+00 -0.88736465651E+01  0.88736465651E+01  0.00000000000E+00 0.  1.
          4    1    1    2  501    0  0.20857213781E+01 -0.70221650336E+00 -0.41405853233E+01  0.46891138294E+01  0.00000000000E+00 0. -1.
         -4    1    1    2    0  501 -0.20857213781E+01  0.70221650336E+00 -0.41872359771E+01  0.47303580005E+01  0.00000000000E+00 0.  1.
<mgrwt>
<rscale>  0 0.22007593E+01</rscale>
<asrwt>0</asrwt>
<pdfrwt beam="1">0</pdfrwt>
<pdfrwt beam="2">0</pdfrwt>
<totfact> 0.36472543E+12</totfact>
</mgrwt>
</event>
<event>
 4    2  0.1060494E+006  0.2872241E+01  0.7546771E-02  0.2564163E+00
         22   -1    0    0    0    0  0.00000000000E+00  0.00000000000E+00  0.87941640637E+00  0.87941640637E+00  0.00000000000E+00 0. -1.
         22   -1    0    0    0    0 -0.00000000000E+00 -0.00000000000E+00 -0.15335897392E+02  0.15335897392E+02  0.00000000000E+00 0.  1.
          4    1    1    2  501    0 -0.18135328609E+01 -0.22272998201E+01 -0.21760520726E+01  0.36034661853E+01  0.00000000000E+00 0. -1.
         -4    1    1    2    0  501  0.18135328609E+01  0.22272998201E+01 -0.12280428914E+02  0.12611847613E+02  0.00000000000E+00 0.  1.
<mgrwt>
<rscale>  0 0.28722406E+01</rscale>
<asrwt>0</asrwt>
<pdfrwt beam="1">0</pdfrwt>
<pdfrwt beam="2">0</pdfrwt>
<totfact> 0.10900086E+12</totfact>
</mgrwt>
</event>
<event>
 4    2  0.1060494E+006  0.2224406E+01  0.7546771E-02  0.2844098E+00
         22   -1    0    0    0    0  0.00000000000E+00  0.00000000000E+00  0.18394201541E+01  0.18394201541E+01  0.00000000000E+00 0. -1.
         22   -1    0    0    0    0 -0.00000000000E+00 -0.00000000000E+00 -0.28089058900E+01  0.28089058900E+01  0.00000000000E+00 0.  1.
          4    1    1    2  501    0 -0.15702733876E+01  0.15755080577E+01 -0.96299325494E+00  0.24239100975E+01  0.00000000000E+00 0. -1.
         -4    1    1    2    0  501  0.15702733876E+01 -0.15755080577E+01 -0.64924809517E-02  0.22244159467E+01  0.00000000000E+00 0.  1.
<mgrwt>
<rscale>  0 0.22244065E+01</rscale>
<asrwt>0</asrwt>
<pdfrwt beam="1">0</pdfrwt>
<pdfrwt beam="2">0</pdfrwt>
<totfact> 0.35566205E+12</totfact>
</mgrwt>
</event>
<event>
 4    2  0.1060494E+006  0.2003164E+01  0.7546771E-02  0.2978596E+00
         22   -1    0    0    0    0  0.00000000000E+00  0.00000000000E+00  0.12977115440E+02  0.12977115440E+02  0.00000000000E+00 0. -1.
         22   -1    0    0    0    0 -0.00000000000E+00 -0.00000000000E+00 -0.33255176809E+00  0.33255176809E+00  0.00000000000E+00 0.  1.
          4    1    1    2  501    0 -0.86470571528E+00 -0.18069168521E+01  0.45592228909E+01  0.49798772930E+01  0.00000000000E+00 0. -1.
         -4    1    1    2    0  501  0.86470571528E+00  0.18069168521E+01  0.80853407813E+01  0.83297899154E+01  0.00000000000E+00 0.  1.
<mgrwt>
<rscale>  0 0.20031636E+01</rscale>
<asrwt>0</asrwt>
<pdfrwt beam="1">0</pdfrwt>
<pdfrwt beam="2">0</pdfrwt>
<totfact> 0.40175018E+12</totfact>
</mgrwt>
</event>
<event>
 4    2  0.1060494E+006  0.2409364E+01  0.7546771E-02  0.2749889E+00
         22   -1    0    0    0    0  0.00000000000E+00  0.00000000000E+00  0.18554539654E+00  0.18554539654E+00  0.00000000000E+00 0.  1.
         22   -1    0    0    0    0 -0.00000000000E+00 -0.00000000000E+00 -0.31732009663E+02  0.31732009663E+02  0.00000000000E+00 0. -1.
          4    1    1    2  501    0  0.90413195184E+00 -0.22332895494E+01 -0.17664513839E+02  0.17828070170E+02  0.00000000000E+00 0.  1.
         -4    1    1    2    0  501 -0.90413195184E+00  0.22332895494E+01 -0.13881950427E+02  0.14089484889E+02  0.00000000000E+00 0. -1.
<mgrwt>
<rscale>  0 0.24093644E+01</rscale>
<asrwt>0</asrwt>
<pdfrwt beam="1">0</pdfrwt>
<pdfrwt beam="2">0</pdfrwt>
<totfact> 0.25263038E+12</totfact>
</mgrwt>
</event>
<event>
 4    2  0.1060494E+006  0.2349228E+01  0.7546771E-02  0.2778979E+00
         22   -1    0    0    0    0  0.00000000000E+00  0.00000000000E+00  0.27939698373E+02  0.27939698373E+02  0.00000000000E+00 0.  1.
         22   -1    0    0    0    0 -0.00000000000E+00 -0.00000000000E+00 -0.26010054880E+00  0.26010054880E+00  0.00000000000E+00 0. -1.
          4    1    1    2  501    0 -0.23484477938E+01 -0.60546716179E-01  0.69240808617E+01  0.73117555159E+01  0.00000000000E+00 0. -1.
         -4    1    1    2    0  501  0.23484477938E+01  0.60546716179E-01  0.20755516962E+02  0.20888043406E+02  0.00000000000E+00 0.  1.
<mgrwt>
<rscale>  0 0.23492282E+01</rscale>
<asrwt>0</asrwt>
<pdfrwt beam="1">0</pdfrwt>
<pdfrwt beam="2">0</pdfrwt>
<totfact> 0.20373546E+12</totfact>
</mgrwt>
</event>
<event>
 4    2  0.1060494E+006  0.2777580E+01  0.7546771E-02  0.2597512E+00
         22   -1    0    0    0    0  0.00000000000E+00  0.00000000000E+00  0.94819204639E+01  0.94819204639E+01  0.00000000000E+00 0. -1.
         22   -1    0    0    0    0 -0.00000000000E+00 -0.00000000000E+00 -0.82317255452E+00  0.82317255452E+00  0.00000000000E+00 0.  1.
          4    1    1    2  501    0  0.17692792833E+01 -0.21411677117E+01  0.48836067872E+01  0.56182349189E+01  0.00000000000E+00 0.  1.
         -4    1    1    2    0  501 -0.17692792833E+01  0.21411677117E+01  0.37751411221E+01  0.46868580994E+01  0.00000000000E+00 0. -1.
<mgrwt>
<rscale>  0 0.27775796E+01</rscale>
<asrwt>0</asrwt>
<pdfrwt beam="1">0</pdfrwt>
<pdfrwt beam="2">0</pdfrwt>
<totfact> 0.21126061E+12</totfact>
</mgrwt>
</event>
<event>
 4    2  0.1060494E+006  0.3869920E+01  0.7546771E-02  0.2302871E+00
         22   -1    0    0    0    0  0.00000000000E+00  0.00000000000E+00  0.67803584130E+01  0.67803584130E+01  0.00000000000E+00 0.  1.
         22   -1    0    0    0    0 -0.00000000000E+00 -0.00000000000E+00 -0.11215106470E+02  0.11215106470E+02  0.00000000000E+00 0. -1.
          4    1    1    2  501    0 -0.25778182299E+01 -0.28863703801E+01 -0.10280535495E+02  0.10984793620E+02  0.00000000000E+00 0. -1.
         -4    1    1    2    0  501  0.25778182299E+01  0.28863703801E+01  0.58457874380E+01  0.70106712637E+01  0.00000000000E+00 0.  1.
<mgrwt>
<rscale>  0 0.38699200E+01</rscale>
<asrwt>0</asrwt>
<pdfrwt beam="1">0</pdfrwt>
<pdfrwt beam="2">0</pdfrwt>
<totfact> 0.14830172E+11</totfact>
</mgrwt>
</event>
<event>
 4    2  0.1060494E+006  0.2474309E+01  0.7546771E-02  0.2719966E+00
         22   -1    0    0    0    0  0.00000000000E+00  0.00000000000E+00  0.12323242519E+01  0.12323242519E+01  0.00000000000E+00 0.  1.
         22   -1    0    0    0    0 -0.00000000000E+00 -0.00000000000E+00 -0.80435540739E+01  0.80435540739E+01  0.00000000000E+00 0. -1.
          4    1    1    2  501    0  0.15500128336E+01 -0.19286437317E+01 -0.62734991582E+01  0.67438118388E+01  0.00000000000E+00 0. -1.
         -4    1    1    2    0  501 -0.15500128336E+01  0.19286437317E+01 -0.53773066369E+00  0.25320664871E+01  0.00000000000E+00 0.  1.
<mgrwt>
<rscale>  0 0.24743093E+01</rscale>
<asrwt>0</asrwt>
<pdfrwt beam="1">0</pdfrwt>
<pdfrwt beam="2">0</pdfrwt>
<totfact> 0.16246816E+12</totfact>
</mgrwt>
</event>
<event>
 4    2  0.1060494E+006  0.2699229E+01  0.7546771E-02  0.2626720E+00
         22   -1    0    0    0    0  0.00000000000E+00  0.00000000000E+00  0.18584287055E+01  0.18584287055E+01  0.00000000000E+00 0. -1.
         22   -1    0    0    0    0 -0.00000000000E+00 -0.00000000000E+00 -0.13346029074E+02  0.13346029074E+02  0.00000000000E+00 0.  1.
          4    1    1    2  501    0  0.21142892321E+01  0.16779811706E+01 -0.12132601583E+02  0.12429234125E+02  0.00000000000E+00 0.  1.
         -4    1    1    2    0  501 -0.21142892321E+01 -0.16779811706E+01  0.64500121442E+00  0.27752236545E+01  0.00000000000E+00 0. -1.
<mgrwt>
<rscale>  0 0.26992295E+01</rscale>
<asrwt>0</asrwt>
<pdfrwt beam="1">0</pdfrwt>
<pdfrwt beam="2">0</pdfrwt>
<totfact> 0.54797186E+11</totfact>
</mgrwt>
</event>
<event>
 4    2  0.1060494E+006  0.2212189E+01  0.7546771E-02  0.2850847E+00
         22   -1    0    0    0    0  0.00000000000E+00  0.00000000000E+00  0.89478882457E+01  0.89478882457E+01  0.00000000000E+00 0.  1.
         22   -1    0    0    0    0 -0.00000000000E+00 -0.00000000000E+00 -0.55696433988E+00  0.55696433988E+00  0.00000000000E+00 0. -1.
          4    1    1    2  501    0  0.43717232286E+00 -0.21685617334E+01  0.35572558331E+01  0.41890152415E+01  0.00000000000E+00 0.  1.
         -4    1    1    2    0  501 -0.43717232286E+00  0.21685617334E+01  0.48336680727E+01  0.53158373440E+01  0.00000000000E+00 0. -1.
<mgrwt>
<rscale>  0 0.22121889E+01</rscale>
<asrwt>0</asrwt>
<pdfrwt beam="1">0</pdfrwt>
<pdfrwt beam="2">0</pdfrwt>
<totfact> 0.35292416E+12</totfact>
</mgrwt>
</event>
<event>
 4    2  0.1060494E+006  0.2036786E+01  0.7546771E-02  0.2956329E+00
         22   -1    0    0    0    0  0.00000000000E+00  0.00000000000E+00  0.24950052683E+00  0.24950052683E+00  0.00000000000E+00 0. -1.
         22   -1    0    0    0    0 -0.00000000000E+00 -0.00000000000E+00 -0.17022368940E+02  0.17022368940E+02  0.00000000000E+00 0.  1.
          4    1    1    2  501    0 -0.73593404461E+00 -0.18991831152E+01 -0.97022350869E+01  0.99137208506E+01  0.00000000000E+00 0.  1.
         -4    1    1    2    0  501  0.73593404461E+00  0.18991831152E+01 -0.70706333264E+01  0.73581486163E+01  0.00000000000E+00 0. -1.
<mgrwt>
<rscale>  0 0.20367856E+01</rscale>
<asrwt>0</asrwt>
<pdfrwt beam="1">0</pdfrwt>
<pdfrwt beam="2">0</pdfrwt>
<totfact> 0.39704140E+12</totfact>
</mgrwt>
</event>
<event>
 4    2  0.1060494E+006  0.2092789E+01  0.7546771E-02  0.2920790E+00
         22   -1    0    0    0    0  0.00000000000E+00  0.00000000000E+00  0.24954079790E+02  0.24954079790E+02  0.00000000000E+00 0. -1.
         22   -1    0    0    0    0 -0.00000000000E+00 -0.00000000000E+00 -0.51500797551E+00  0.51500797551E+00  0.00000000000E+00 0.  1.
          4    1    1    2  501    0  0.19064637793E+01  0.86322699450E+00  0.18801890891E+01  0.28133389410E+01  0.00000000000E+00 0.  1.
         -4    1    1    2    0  501 -0.19064637793E+01 -0.86322699450E+00  0.22558882726E+02  0.22655748825E+02  0.00000000000E+00 0. -1.
<mgrwt>
<rscale>  0 0.20927888E+01</rscale>
<asrwt>0</asrwt>
<pdfrwt beam="1">0</pdfrwt>
<pdfrwt beam="2">0</pdfrwt>
<totfact> 0.10903965E+12</totfact>
</mgrwt>
</event>
<event>
 4    2  0.1060494E+006  0.2859006E+01  0.7546771E-02  0.2568705E+00
         22   -1    0    0    0    0  0.00000000000E+00  0.00000000000E+00  0.11441256495E+02  0.11441256495E+02  0.00000000000E+00 0. -1.
         22   -1    0    0    0    0 -0.00000000000E+00 -0.00000000000E+00 -0.10693073867E+01  0.10693073867E+01  0.00000000000E+00 0.  1.
          4    1    1    2  501    0  0.34136969977E+00  0.28385524000E+01  0.15823612205E+01  0.32676872604E+01  0.00000000000E+00 0.  1.
         -4    1    1    2    0  501 -0.34136969977E+00 -0.28385524000E+01  0.87895878880E+01  0.92428766215E+01  0.00000000000E+00 0. -1.
<mgrwt>
<rscale>  0 0.28590056E+01</rscale>
<asrwt>0</asrwt>
<pdfrwt beam="1">0</pdfrwt>
<pdfrwt beam="2">0</pdfrwt>
<totfact> 0.12482162E+12</totfact>
</mgrwt>
</event>
<event>
 4    2  0.1060494E+006  0.2070971E+01  0.7546771E-02  0.2934413E+00
         22   -1    0    0    0    0  0.00000000000E+00  0.00000000000E+00  0.96291434766E+01  0.96291434766E+01  0.00000000000E+00 0.  1.
         22   -1    0    0    0    0 -0.00000000000E+00 -0.00000000000E+00 -0.95735249464E+00  0.95735249464E+00  0.00000000000E+00 0. -1.
          4    1    1    2  501    0 -0.20087836913E+01  0.50369479358E+00  0.46513109834E+00  0.21225614955E+01  0.00000000000E+00 0. -1.
         -4    1    1    2    0  501  0.20087836913E+01 -0.50369479358E+00  0.82066598836E+01  0.84639344757E+01  0.00000000000E+00 0.  1.
<mgrwt>
<rscale>  0 0.20709709E+01</rscale>
<asrwt>0</asrwt>
<pdfrwt beam="1">0</pdfrwt>
<pdfrwt beam="2">0</pdfrwt>
<totfact> 0.17456361E+12</totfact>
</mgrwt>
</event>
<event>
 4    2  0.1060494E+006  0.2627555E+01  0.7546771E-02  0.2654833E+00
         22   -1    0    0    0    0  0.00000000000E+00  0.00000000000E+00  0.10034404374E+02  0.10034404374E+02  0.00000000000E+00 0. -1.
         22   -1    0    0    0    0 -0.00000000000E+00 -0.00000000000E+00 -0.69053297216E+00  0.69053297216E+00  0.00000000000E+00 0.  1.
          4    1    1    2  501    0  0.22718937486E+01  0.13200551660E+01  0.43495721623E+01  0.50816163611E+01  0.00000000000E+00 0. -1.
         -4    1    1    2    0  501 -0.22718937486E+01 -0.13200551660E+01  0.49942992393E+01  0.56433209849E+01  0.00000000000E+00 0.  1.
<mgrwt>
<rscale>  0 0.26275553E+01</rscale>
<asrwt>0</asrwt>
<pdfrwt beam="1">0</pdfrwt>
<pdfrwt beam="2">0</pdfrwt>
<totfact> 0.24086957E+12</totfact>
</mgrwt>
</event>
<event>
 4    2  0.1060494E+006  0.2222478E+01  0.7546771E-02  0.2845158E+00
         22   -1    0    0    0    0  0.00000000000E+00  0.00000000000E+00  0.88707698038E+00  0.88707698038E+00  0.00000000000E+00 0. -1.
         22   -1    0    0    0    0 -0.00000000000E+00 -0.00000000000E+00 -0.60020792218E+01  0.60020792218E+01  0.00000000000E+00 0.  1.
          4    1    1    2  501    0 -0.20092980073E+01 -0.94980435263E+00 -0.34836444552E+01  0.41322131456E+01  0.00000000000E+00 0.  1.
         -4    1    1    2    0  501  0.20092980073E+01  0.94980435263E+00 -0.16313577862E+01  0.27569430566E+01  0.00000000000E+00 0. -1.
<mgrwt>
<rscale>  0 0.22224776E+01</rscale>
<asrwt>0</asrwt>
<pdfrwt beam="1">0</pdfrwt>
<pdfrwt beam="2">0</pdfrwt>
<totfact> 0.33571697E+12</totfact>
</mgrwt>
</event>
<event>
 4    2  0.1060494E+006  0.2406988E+01  0.7546771E-02  0.2751012E+00
         22   -1    0    0    0    0  0.00000000000E+00  0.00000000000E+00  0.53141486459E+00  0.53141486459E+00  0.00000000000E+00 0. -1.
         22   -1    0    0    0    0 -0.00000000000E+00 -0.00000000000E+00 -0.23837317570E+02  0.23837317570E+02  0.00000000000E+00 0.  1.
          4    1    1    2  501    0 -0.20680692764E+01  0.12315363176E+01 -0.20628466997E+02  0.20768419364E+02  0.00000000000E+00 0.  1.
         -4    1    1    2    0  501  0.20680692764E+01 -0.12315363176E+01 -0.26774357085E+01  0.36003130706E+01  0.00000000000E+00 0. -1.
<mgrwt>
<rscale>  0 0.24069882E+01</rscale>
<asrwt>0</asrwt>
<pdfrwt beam="1">0</pdfrwt>
<pdfrwt beam="2">0</pdfrwt>
<totfact> 0.11149895E+12</totfact>
</mgrwt>
</event>
<event>
 4    2  0.1060494E+006  0.2662492E+01  0.7546771E-02  0.2640956E+00
         22   -1    0    0    0    0  0.00000000000E+00  0.00000000000E+00  0.55364821611E+01  0.55364821611E+01  0.00000000000E+00 0.  1.
         22   -1    0    0    0    0 -0.00000000000E+00 -0.00000000000E+00 -0.16762962659E+01  0.16762962659E+01  0.00000000000E+00 0. -1.
          4    1    1    2  501    0 -0.17227986378E+00 -0.26569123921E+01  0.17745318869E+00  0.26683990416E+01  0.00000000000E+00 0. -1.
         -4    1    1    2    0  501  0.17227986378E+00  0.26569123921E+01  0.36827327065E+01  0.45443793854E+01  0.00000000000E+00 0.  1.
<mgrwt>
<rscale>  0 0.26624920E+01</rscale>
<asrwt>0</asrwt>
<pdfrwt beam="1">0</pdfrwt>
<pdfrwt beam="2">0</pdfrwt>
<totfact> 0.17819480E+12</totfact>
</mgrwt>
</event>
<event>
 4    2  0.1060494E+006  0.2820042E+01  0.7546771E-02  0.2582301E+00
         22   -1    0    0    0    0  0.00000000000E+00  0.00000000000E+00  0.26590031830E+00  0.26590031830E+00  0.00000000000E+00 0.  1.
         22   -1    0    0    0    0 -0.00000000000E+00 -0.00000000000E+00 -0.30628828213E+02  0.30628828213E+02  0.00000000000E+00 0. -1.
          4    1    1    2  501    0  0.24582571733E+01 -0.13818851193E+01 -0.17550683227E+02  0.17775801432E+02  0.00000000000E+00 0. -1.
         -4    1    1    2    0  501 -0.24582571733E+01  0.13818851193E+01 -0.12812244668E+02  0.13118927099E+02  0.00000000000E+00 0.  1.
<mgrwt>
<rscale>  0 0.28200416E+01</rscale>
<asrwt>0</asrwt>
<pdfrwt beam="1">0</pdfrwt>
<pdfrwt beam="2">0</pdfrwt>
<totfact> 0.17683828E+12</totfact>
</mgrwt>
</event>
<event>
 4    2  0.1060494E+006  0.2166983E+01  0.7546771E-02  0.2876454E+00
         22   -1    0    0    0    0  0.00000000000E+00  0.00000000000E+00  0.29080712120E+02  0.29080712120E+02  0.00000000000E+00 0. -1.
         22   -1    0    0    0    0 -0.00000000000E+00 -0.00000000000E+00 -0.40950136230E+00  0.40950136230E+00  0.00000000000E+00 0.  1.
          4    1    1    2  501    0 -0.12348124527E+01  0.17807457313E+01  0.28601774076E+01  0.35883745562E+01  0.00000000000E+00 0.  1.
         -4    1    1    2    0  501  0.12348124527E+01 -0.17807457313E+01  0.25811033351E+02  0.25901838927E+02  0.00000000000E+00 0. -1.
<mgrwt>
<rscale>  0 0.21669834E+01</rscale>
<asrwt>0</asrwt>
<pdfrwt beam="1">0</pdfrwt>
<pdfrwt beam="2">0</pdfrwt>
<totfact> 0.11633177E+12</totfact>
</mgrwt>
</event>
<event>
 4    2  0.1060494E+006  0.3106858E+01  0.7546771E-02  0.2489454E+00
         22   -1    0    0    0    0  0.00000000000E+00  0.00000000000E+00  0.27081970444E+01  0.27081970444E+01  0.00000000000E+00 0. -1.
         22   -1    0    0    0    0 -0.00000000000E+00 -0.00000000000E+00 -0.48961448370E+01  0.48961448370E+01  0.00000000000E+00 0.  1.
          4    1    1    2  501    0 -0.27339634569E+01 -0.14758075073E+01 -0.30770854427E+01  0.43727587178E+01  0.00000000000E+00 0.  1.
         -4    1    1    2    0  501  0.27339634569E+01  0.14758075073E+01  0.88913765012E+00  0.32315831636E+01  0.00000000000E+00 0. -1.
<mgrwt>
<rscale>  0 0.31068576E+01</rscale>
<asrwt>0</asrwt>
<pdfrwt beam="1">0</pdfrwt>
<pdfrwt beam="2">0</pdfrwt>
<totfact> 0.11822206E+12</totfact>
</mgrwt>
</event>
<event>
 4    2  0.1060494E+006  0.2536554E+01  0.7546771E-02  0.2692631E+00
         22   -1    0    0    0    0  0.00000000000E+00  0.00000000000E+00  0.30885269784E+00  0.30885269784E+00  0.00000000000E+00 0. -1.
         22   -1    0    0    0    0 -0.00000000000E+00 -0.00000000000E+00 -0.30317020908E+02  0.30317020908E+02  0.00000000000E+00 0.  1.
          4    1    1    2  501    0 -0.26080348912E+00 -0.25231111459E+01 -0.23569092324E+02  0.23705193973E+02  0.00000000000E+00 0.  1.
         -4    1    1    2    0  501  0.26080348912E+00  0.25231111459E+01 -0.64390758865E+01  0.69206796333E+01  0.00000000000E+00 0. -1.
<mgrwt>
<rscale>  0 0.25365544E+01</rscale>
<asrwt>0</asrwt>
<pdfrwt beam="1">0</pdfrwt>
<pdfrwt beam="2">0</pdfrwt>
<totfact> 0.15148315E+12</totfact>
</mgrwt>
</event>
<event>
 4    2  0.1060494E+006  0.2187999E+01  0.7546771E-02  0.2864423E+00
         22   -1    0    0    0    0  0.00000000000E+00  0.00000000000E+00  0.12357421962E+01  0.12357421962E+01  0.00000000000E+00 0.  1.
         22   -1    0    0    0    0 -0.00000000000E+00 -0.00000000000E+00 -0.28352143849E+02  0.28352143849E+02  0.00000000000E+00 0. -1.
          4    1    1    2  501    0  0.39022688087E-01  0.21876510212E+01 -0.27304307076E+02  0.27391833175E+02  0.00000000000E+00 0. -1.
         -4    1    1    2    0  501 -0.39022688087E-01 -0.21876510212E+01  0.18790542374E+00  0.21960528702E+01  0.00000000000E+00 0.  1.
<mgrwt>
<rscale>  0 0.21879990E+01</rscale>
<asrwt>0</asrwt>
<pdfrwt beam="1">0</pdfrwt>
<pdfrwt beam="2">0</pdfrwt>
<totfact> 0.34273575E+11</totfact>
</mgrwt>
</event>
<event>
 4    2  0.1060494E+006  0.2743928E+01  0.7546771E-02  0.2609870E+00
         22   -1    0    0    0    0  0.00000000000E+00  0.00000000000E+00  0.51113395245E+01  0.51113395245E+01  0.00000000000E+00 0. -1.
         22   -1    0    0    0    0 -0.00000000000E+00 -0.00000000000E+00 -0.14771233935E+01  0.14771233935E+01  0.00000000000E+00 0.  1.
          4    1    1    2  501    0  0.80037916094E+00  0.26246018348E+01  0.19905849919E+01  0.33899218579E+01  0.00000000000E+00 0.  1.
         -4    1    1    2    0  501 -0.80037916094E+00 -0.26246018348E+01  0.16436311391E+01  0.31985410602E+01  0.00000000000E+00 0. -1.
<mgrwt>
<rscale>  0 0.27439281E+01</rscale>
<asrwt>0</asrwt>
<pdfrwt beam="1">0</pdfrwt>
<pdfrwt beam="2">0</pdfrwt>
<totfact> 0.22663300E+12</totfact>
</mgrwt>
</event>
<event>
 4    2  0.1060494E+006  0.2762055E+01  0.7546771E-02  0.2603179E+00
         22   -1    0    0    0    0  0.00000000000E+00  0.00000000000E+00  0.11092543801E+02  0.11092543801E+02  0.00000000000E+00 0. -1.
         22   -1    0    0    0    0 -0.00000000000E+00 -0.00000000000E+00 -0.82208135769E+00  0.82208135769E+00  0.00000000000E+00 0.  1.
          4    1    1    2  501    0 -0.23645123497E+01 -0.14275948267E+01  0.27271307567E+01  0.38815187499E+01  0.00000000000E+00 0.  1.
         -4    1    1    2    0  501  0.23645123497E+01  0.14275948267E+01  0.75433316863E+01  0.80331064086E+01  0.00000000000E+00 0. -1.
<mgrwt>
<rscale>  0 0.27620546E+01</rscale>
<asrwt>0</asrwt>
<pdfrwt beam="1">0</pdfrwt>
<pdfrwt beam="2">0</pdfrwt>
<totfact> 0.17494095E+12</totfact>
</mgrwt>
</event>
<event>
 4    2  0.1060494E+006  0.2263284E+01  0.7546771E-02  0.2823083E+00
         22   -1    0    0    0    0  0.00000000000E+00  0.00000000000E+00  0.24341464283E+02  0.24341464283E+02  0.00000000000E+00 0.  1.
         22   -1    0    0    0    0 -0.00000000000E+00 -0.00000000000E+00 -0.24891482418E+00  0.24891482418E+00  0.00000000000E+00 0. -1.
          4    1    1    2  501    0 -0.22035157580E+01  0.51669549342E+00  0.72124676246E+01  0.75592423671E+01  0.00000000000E+00 0. -1.
         -4    1    1    2    0  501  0.22035157580E+01 -0.51669549342E+00  0.16880081834E+02  0.17031136740E+02  0.00000000000E+00 0.  1.
<mgrwt>
<rscale>  0 0.22632843E+01</rscale>
<asrwt>0</asrwt>
<pdfrwt beam="1">0</pdfrwt>
<pdfrwt beam="2">0</pdfrwt>
<totfact> 0.25475377E+12</totfact>
</mgrwt>
</event>
<event>
 4    2  0.1060494E+006  0.2076404E+01  0.7546771E-02  0.2930994E+00
         22   -1    0    0    0    0  0.00000000000E+00  0.00000000000E+00  0.31354498787E+01  0.31354498787E+01  0.00000000000E+00 0.  1.
         22   -1    0    0    0    0 -0.00000000000E+00 -0.00000000000E+00 -0.24065873997E+01  0.24065873997E+01  0.00000000000E+00 0. -1.
          4    1    1    2  501    0  0.20302039414E+01 -0.43557609095E+00 -0.14497366547E+01  0.25324278752E+01  0.00000000000E+00 0. -1.
         -4    1    1    2    0  501 -0.20302039414E+01  0.43557609095E+00  0.21785991337E+01  0.30096094033E+01  0.00000000000E+00 0.  1.
<mgrwt>
<rscale>  0 0.20764042E+01</rscale>
<asrwt>0</asrwt>
<pdfrwt beam="1">0</pdfrwt>
<pdfrwt beam="2">0</pdfrwt>
<totfact> 0.22908186E+12</totfact>
</mgrwt>
</event>
<event>
 4    2  0.1060494E+006  0.2660267E+01  0.7546771E-02  0.2641830E+00
         22   -1    0    0    0    0  0.00000000000E+00  0.00000000000E+00  0.30535762437E+01  0.30535762437E+01  0.00000000000E+00 0.  1.
         22   -1    0    0    0    0 -0.00000000000E+00 -0.00000000000E+00 -0.11597341698E+02  0.11597341698E+02  0.00000000000E+00 0. -1.
          4    1    1    2  501    0  0.21722546950E+01  0.15356847280E+01 -0.10824626349E+02  0.11146728382E+02  0.00000000000E+00 0. -1.
         -4    1    1    2    0  501 -0.21722546950E+01 -0.15356847280E+01  0.22808608947E+01  0.35041895589E+01  0.00000000000E+00 0.  1.
<mgrwt>
<rscale>  0 0.26602665E+01</rscale>
<asrwt>0</asrwt>
<pdfrwt beam="1">0</pdfrwt>
<pdfrwt beam="2">0</pdfrwt>
<totfact> 0.36528898E+11</totfact>
</mgrwt>
</event>
<event>
 4    2  0.1060494E+006  0.2230275E+01  0.7546771E-02  0.2840881E+00
         22   -1    0    0    0    0  0.00000000000E+00  0.00000000000E+00  0.87311294534E+00  0.87311294534E+00  0.00000000000E+00 0.  1.
         22   -1    0    0    0    0 -0.00000000000E+00 -0.00000000000E+00 -0.71762039836E+01  0.71762039836E+01  0.00000000000E+00 0. -1.
          4    1    1    2  501    0 -0.17725024064E+01 -0.13536477971E+01 -0.49787839710E+01  0.54554942003E+01  0.00000000000E+00 0.  1.
         -4    1    1    2    0  501  0.17725024064E+01  0.13536477971E+01 -0.13243070673E+01  0.25938227287E+01  0.00000000000E+00 0. -1.
<mgrwt>
<rscale>  0 0.22302751E+01</rscale>
<asrwt>0</asrwt>
<pdfrwt beam="1">0</pdfrwt>
<pdfrwt beam="2">0</pdfrwt>
<totfact> 0.27618578E+12</totfact>
</mgrwt>
</event>
<event>
 4    2  0.1060494E+006  0.2156137E+01  0.7546771E-02  0.2882752E+00
         22   -1    0    0    0    0  0.00000000000E+00  0.00000000000E+00  0.71721656881E+00  0.71721656881E+00  0.00000000000E+00 0.  1.
         22   -1    0    0    0    0 -0.00000000000E+00 -0.00000000000E+00 -0.65079116070E+01  0.65079116070E+01  0.00000000000E+00 0. -1.
          4    1    1    2  501    0  0.19720994345E+01 -0.87163748974E+00 -0.31237258341E+01  0.37956015571E+01  0.00000000000E+00 0.  1.
         -4    1    1    2    0  501 -0.19720994345E+01  0.87163748974E+00 -0.26669692040E+01  0.34295266187E+01  0.00000000000E+00 0. -1.
<mgrwt>
<rscale>  0 0.21561373E+01</rscale>
<asrwt>0</asrwt>
<pdfrwt beam="1">0</pdfrwt>
<pdfrwt beam="2">0</pdfrwt>
<totfact> 0.38823384E+12</totfact>
</mgrwt>
</event>
<event>
 4    2  0.1060494E+006  0.2217524E+01  0.7546771E-02  0.2847891E+00
         22   -1    0    0    0    0  0.00000000000E+00  0.00000000000E+00  0.32078499891E+00  0.32078499891E+00  0.00000000000E+00 0. -1.
         22   -1    0    0    0    0 -0.00000000000E+00 -0.00000000000E+00 -0.17618860390E+02  0.17618860390E+02  0.00000000000E+00 0.  1.
          4    1    1    2  501    0 -0.22010041055E+01  0.27017506690E+00 -0.54155607089E+01  0.58519835467E+01  0.00000000000E+00 0. -1.
         -4    1    1    2    0  501  0.22010041055E+01 -0.27017506690E+00 -0.11882514683E+02  0.12087661843E+02  0.00000000000E+00 0.  1.
<mgrwt>
<rscale>  0 0.22175242E+01</rscale>
<asrwt>0</asrwt>
<pdfrwt beam="1">0</pdfrwt>
<pdfrwt beam="2">0</pdfrwt>
<totfact> 0.28711108E+12</totfact>
</mgrwt>
</event>
<event>
 4    2  0.1060494E+006  0.3729345E+01  0.7546771E-02  0.2332222E+00
         22   -1    0    0    0    0  0.00000000000E+00  0.00000000000E+00  0.18929531876E+01  0.18929531876E+01  0.00000000000E+00 0.  1.
         22   -1    0    0    0    0 -0.00000000000E+00 -0.00000000000E+00 -0.11214349700E+02  0.11214349700E+02  0.00000000000E+00 0. -1.
          4    1    1    2  501    0  0.14175709515E+01  0.34494208422E+01 -0.85091730234E+01  0.92905348120E+01  0.00000000000E+00 0. -1.
         -4    1    1    2    0  501 -0.14175709515E+01 -0.34494208422E+01 -0.81222348942E+00  0.38167680761E+01  0.00000000000E+00 0.  1.
<mgrwt>
<rscale>  0 0.37293447E+01</rscale>
<asrwt>0</asrwt>
<pdfrwt beam="1">0</pdfrwt>
<pdfrwt beam="2">0</pdfrwt>
<totfact> 0.66336469E+11</totfact>
</mgrwt>
</event>
<event>
 4    2  0.1060494E+006  0.3831485E+01  0.7546771E-02  0.2310712E+00
         22   -1    0    0    0    0  0.00000000000E+00  0.00000000000E+00  0.11154400493E+02  0.11154400493E+02  0.00000000000E+00 0. -1.
         22   -1    0    0    0    0 -0.00000000000E+00 -0.00000000000E+00 -0.48292878861E+01  0.48292878861E+01  0.00000000000E+00 0.  1.
          4    1    1    2  501    0 -0.37809057603E+01 -0.62050630464E+00 -0.36538632755E+01  0.52944304017E+01  0.00000000000E+00 0.  1.
         -4    1    1    2    0  501  0.37809057603E+01  0.62050630464E+00  0.99789758820E+01  0.10689257977E+02  0.00000000000E+00 0. -1.
<mgrwt>
<rscale>  0 0.38314849E+01</rscale>
<asrwt>0</asrwt>
<pdfrwt beam="1">0</pdfrwt>
<pdfrwt beam="2">0</pdfrwt>
<totfact> 0.22345889E+11</totfact>
</mgrwt>
</event>
<event>
 4    2  0.1060494E+006  0.2629540E+01  0.7546771E-02  0.2654035E+00
         22   -1    0    0    0    0  0.00000000000E+00  0.00000000000E+00  0.35143668292E+02  0.35143668292E+02  0.00000000000E+00 0.  1.
         22   -1    0    0    0    0 -0.00000000000E+00 -0.00000000000E+00 -0.22592939221E+00  0.22592939221E+00  0.00000000000E+00 0. -1.
          4    1    1    2  501    0  0.10639611396E+00  0.26273871057E+01  0.11103233793E+02  0.11410358619E+02  0.00000000000E+00 0. -1.
         -4    1    1    2    0  501 -0.10639611396E+00 -0.26273871057E+01  0.23814505106E+02  0.23959239065E+02  0.00000000000E+00 0.  1.
<mgrwt>
<rscale>  0 0.26295405E+01</rscale>
<asrwt>0</asrwt>
<pdfrwt beam="1">0</pdfrwt>
<pdfrwt beam="2">0</pdfrwt>
<totfact> 0.17789926E+12</totfact>
</mgrwt>
</event>
<event>
 4    2  0.1060494E+006  0.2676706E+01  0.7546771E-02  0.2635405E+00
         22   -1    0    0    0    0  0.00000000000E+00  0.00000000000E+00  0.22845881906E+01  0.22845881906E+01  0.00000000000E+00 0.  1.
         22   -1    0    0    0    0 -0.00000000000E+00 -0.00000000000E+00 -0.31452142411E+01  0.31452142411E+01  0.00000000000E+00 0. -1.
          4    1    1    2  501    0  0.22366755658E+01 -0.14703869306E+01 -0.57625508052E+00  0.27380330952E+01  0.00000000000E+00 0.  1.
         -4    1    1    2    0  501 -0.22366755658E+01  0.14703869306E+01 -0.28437096998E+00  0.26917693365E+01  0.00000000000E+00 0. -1.
<mgrwt>
<rscale>  0 0.26767061E+01</rscale>
<asrwt>0</asrwt>
<pdfrwt beam="1">0</pdfrwt>
<pdfrwt beam="2">0</pdfrwt>
<totfact> 0.24248719E+12</totfact>
</mgrwt>
</event>
<event>
 4    2  0.1060494E+006  0.2531204E+01  0.7546771E-02  0.2694931E+00
         22   -1    0    0    0    0  0.00000000000E+00  0.00000000000E+00  0.72422858691E+02  0.72422858691E+02  0.00000000000E+00 0. -1.
         22   -1    0    0    0    0 -0.00000000000E+00 -0.00000000000E+00 -0.10127688857E+00  0.10127688857E+00  0.00000000000E+00 0.  1.
          4    1    1    2  501    0  0.14561751587E+01  0.20703980901E+01  0.23264075289E+02  0.23401371614E+02  0.00000000000E+00 0.  1.
         -4    1    1    2    0  501 -0.14561751587E+01 -0.20703980901E+01  0.49057506513E+02  0.49122763966E+02  0.00000000000E+00 0. -1.
<mgrwt>
<rscale>  0 0.25312041E+01</rscale>
<asrwt>0</asrwt>
<pdfrwt beam="1">0</pdfrwt>
<pdfrwt beam="2">0</pdfrwt>
<totfact> 0.16702334E+12</totfact>
</mgrwt>
</event>
<event>
 4    2  0.1060494E+006  0.2938409E+01  0.7546771E-02  0.2542009E+00
         22   -1    0    0    0    0  0.00000000000E+00  0.00000000000E+00  0.64244389396E+01  0.64244389396E+01  0.00000000000E+00 0. -1.
         22   -1    0    0    0    0 -0.00000000000E+00 -0.00000000000E+00 -0.24964582607E+01  0.24964582607E+01  0.00000000000E+00 0.  1.
          4    1    1    2  501    0 -0.23127224275E+01  0.18126112818E+01 -0.10666534180E+01  0.31260189059E+01  0.00000000000E+00 0. -1.
         -4    1    1    2    0  501  0.23127224275E+01 -0.18126112818E+01  0.49946340969E+01  0.57948782944E+01  0.00000000000E+00 0.  1.
<mgrwt>
<rscale>  0 0.29384085E+01</rscale>
<asrwt>0</asrwt>
<pdfrwt beam="1">0</pdfrwt>
<pdfrwt beam="2">0</pdfrwt>
<totfact> 0.94123307E+11</totfact>
</mgrwt>
</event>
<event>
 4    2  0.1060494E+006  0.2158300E+01  0.7546771E-02  0.2881491E+00
         22   -1    0    0    0    0  0.00000000000E+00  0.00000000000E+00  0.42691027189E+02  0.42691027189E+02  0.00000000000E+00 0. -1.
         22   -1    0    0    0    0 -0.00000000000E+00 -0.00000000000E+00 -0.10915825261E+00  0.10915825261E+00  0.00000000000E+00 0.  1.
          4    1    1    2  501    0  0.20824635870E+01 -0.56710033985E+00  0.20867954706E+02  0.20979270507E+02  0.00000000000E+00 0. -1.
         -4    1    1    2    0  501 -0.20824635870E+01  0.56710033985E+00  0.21713914230E+02  0.21820914935E+02  0.00000000000E+00 0.  1.
<mgrwt>
<rscale>  0 0.21582997E+01</rscale>
<asrwt>0</asrwt>
<pdfrwt beam="1">0</pdfrwt>
<pdfrwt beam="2">0</pdfrwt>
<totfact> 0.31057896E+12</totfact>
</mgrwt>
</event>
<event>
 4    2  0.1060494E+006  0.3251249E+01  0.7546771E-02  0.2448288E+00
         22   -1    0    0    0    0  0.00000000000E+00  0.00000000000E+00  0.11524267509E+02  0.11524267509E+02  0.00000000000E+00 0. -1.
         22   -1    0    0    0    0 -0.00000000000E+00 -0.00000000000E+00 -0.25108142511E+01  0.25108142511E+01  0.00000000000E+00 0.  1.
          4    1    1    2  501    0 -0.31931826441E+01  0.61172383351E+00 -0.10839271885E+01  0.34271737040E+01  0.00000000000E+00 0.  1.
         -4    1    1    2    0  501  0.31931826441E+01 -0.61172383351E+00  0.10097380447E+02  0.10607908056E+02  0.00000000000E+00 0. -1.
<mgrwt>
<rscale>  0 0.32512492E+01</rscale>
<asrwt>0</asrwt>
<pdfrwt beam="1">0</pdfrwt>
<pdfrwt beam="2">0</pdfrwt>
<totfact> 0.46247297E+11</totfact>
</mgrwt>
</event>
<event>
 4    2  0.1060494E+006  0.2300914E+01  0.7546771E-02  0.2803388E+00
         22   -1    0    0    0    0  0.00000000000E+00  0.00000000000E+00  0.26001839240E+01  0.26001839240E+01  0.00000000000E+00 0. -1.
         22   -1    0    0    0    0 -0.00000000000E+00 -0.00000000000E+00 -0.49661788832E+01  0.49661788832E+01  0.00000000000E+00 0.  1.
          4    1    1    2  501    0  0.22787237808E+01  0.31878648247E+00 -0.40889360515E+01  0.46918658254E+01  0.00000000000E+00 0.  1.
         -4    1    1    2    0  501 -0.22787237808E+01 -0.31878648247E+00  0.17229410923E+01  0.28744969818E+01  0.00000000000E+00 0. -1.
<mgrwt>
<rscale>  0 0.23009144E+01</rscale>
<asrwt>0</asrwt>
<pdfrwt beam="1">0</pdfrwt>
<pdfrwt beam="2">0</pdfrwt>
<totfact> 0.12188987E+12</totfact>
</mgrwt>
</event>
<event>
 4    2  0.1060494E+006  0.2470632E+01  0.7546771E-02  0.2721621E+00
         22   -1    0    0    0    0  0.00000000000E+00  0.00000000000E+00  0.25296246836E+00  0.25296246836E+00  0.00000000000E+00 0. -1.
         22   -1    0    0    0    0 -0.00000000000E+00 -0.00000000000E+00 -0.37652936647E+02  0.37652936647E+02  0.00000000000E+00 0.  1.
          4    1    1    2  501    0  0.27188196547E+00  0.24556264853E+01 -0.30058214135E+02  0.30159579875E+02  0.00000000000E+00 0. -1.
         -4    1    1    2    0  501 -0.27188196547E+00 -0.24556264853E+01 -0.73417600432E+01  0.77463192402E+01  0.00000000000E+00 0.  1.
<mgrwt>
<rscale>  0 0.24706317E+01</rscale>
<asrwt>0</asrwt>
<pdfrwt beam="1">0</pdfrwt>
<pdfrwt beam="2">0</pdfrwt>
<totfact> 0.14343824E+12</totfact>
</mgrwt>
</event>
<event>
 4    2  0.1060494E+006  0.3401572E+01  0.7546771E-02  0.2408728E+00
         22   -1    0    0    0    0  0.00000000000E+00  0.00000000000E+00  0.15872377348E+02  0.15872377348E+02  0.00000000000E+00 0.  1.
         22   -1    0    0    0    0 -0.00000000000E+00 -0.00000000000E+00 -0.19555123249E+01  0.19555123249E+01  0.00000000000E+00 0. -1.
          4    1    1    2  501    0 -0.20964715767E+01 -0.26787117666E+01 -0.10114433420E+00  0.34030750766E+01  0.00000000000E+00 0. -1.
         -4    1    1    2    0  501  0.20964715767E+01  0.26787117666E+01  0.14018009358E+02  0.14424814597E+02  0.00000000000E+00 0.  1.
<mgrwt>
<rscale>  0 0.34015717E+01</rscale>
<asrwt>0</asrwt>
<pdfrwt beam="1">0</pdfrwt>
<pdfrwt beam="2">0</pdfrwt>
<totfact> 0.41750310E+11</totfact>
</mgrwt>
</event>
<event>
 4    2  0.1060494E+006  0.2274165E+01  0.7546771E-02  0.2817324E+00
         22   -1    0    0    0    0  0.00000000000E+00  0.00000000000E+00  0.13703328685E+02  0.13703328685E+02  0.00000000000E+00 0. -1.
         22   -1    0    0    0    0 -0.00000000000E+00 -0.00000000000E+00 -0.11799421327E+01  0.11799421327E+01  0.00000000000E+00 0.  1.
          4    1    1    2  501    0  0.92086276469E+00  0.20793835603E+01  0.12398864547E+02  0.12605699753E+02  0.00000000000E+00 0. -1.
         -4    1    1    2    0  501 -0.92086276469E+00 -0.20793835603E+01  0.12452200527E+00  0.22775710641E+01  0.00000000000E+00 0.  1.
<mgrwt>
<rscale>  0 0.22741645E+01</rscale>
<asrwt>0</asrwt>
<pdfrwt beam="1">0</pdfrwt>
<pdfrwt beam="2">0</pdfrwt>
<totfact> 0.89461870E+11</totfact>
</mgrwt>
</event>
<event>
 4    2  0.1060494E+006  0.2156822E+01  0.7546771E-02  0.2882352E+00
         22   -1    0    0    0    0  0.00000000000E+00  0.00000000000E+00  0.19769657684E+01  0.19769657684E+01  0.00000000000E+00 0. -1.
         22   -1    0    0    0    0 -0.00000000000E+00 -0.00000000000E+00 -0.23577878434E+01  0.23577878434E+01  0.00000000000E+00 0.  1.
          4    1    1    2  501    0  0.43227180019E-01  0.21563886998E+01 -0.93158577157E-01  0.21588328638E+01  0.00000000000E+00 0. -1.
         -4    1    1    2    0  501 -0.43227180019E-01 -0.21563886998E+01 -0.28766349779E+00  0.21759207480E+01  0.00000000000E+00 0.  1.
<mgrwt>
<rscale>  0 0.21568219E+01</rscale>
<asrwt>0</asrwt>
<pdfrwt beam="1">0</pdfrwt>
<pdfrwt beam="2">0</pdfrwt>
<totfact> 0.40116114E+12</totfact>
</mgrwt>
</event>
<event>
 4    2  0.1060494E+006  0.2293512E+01  0.7546771E-02  0.2807213E+00
         22   -1    0    0    0    0  0.00000000000E+00  0.00000000000E+00  0.23318810713E+01  0.23318810713E+01  0.00000000000E+00 0.  1.
         22   -1    0    0    0    0 -0.00000000000E+00 -0.00000000000E+00 -0.37940503429E+01  0.37940503429E+01  0.00000000000E+00 0. -1.
          4    1    1    2  501    0 -0.17978453756E+01  0.14240612956E+01 -0.26814126406E+01  0.35284801710E+01  0.00000000000E+00 0. -1.
         -4    1    1    2    0  501  0.17978453756E+01 -0.14240612956E+01  0.12192433690E+01  0.25974512432E+01  0.00000000000E+00 0.  1.
<mgrwt>
<rscale>  0 0.22935123E+01</rscale>
<asrwt>0</asrwt>
<pdfrwt beam="1">0</pdfrwt>
<pdfrwt beam="2">0</pdfrwt>
<totfact> 0.19004469E+12</totfact>
</mgrwt>
</event>
<event>
 4    2  0.1060494E+006  0.2685105E+01  0.7546771E-02  0.2632151E+00
         22   -1    0    0    0    0  0.00000000000E+00  0.00000000000E+00  0.72030413440E+01  0.72030413440E+01  0.00000000000E+00 0.  1.
         22   -1    0    0    0    0 -0.00000000000E+00 -0.00000000000E+00 -0.10014284084E+01  0.10014284084E+01  0.00000000000E+00 0. -1.
          4    1    1    2  501    0 -0.11619731965E+01  0.24206628372E+01  0.31916828524E+01  0.41709267209E+01  0.00000000000E+00 0. -1.
         -4    1    1    2    0  501  0.11619731965E+01 -0.24206628372E+01  0.30099300832E+01  0.40335430315E+01  0.00000000000E+00 0.  1.
<mgrwt>
<rscale>  0 0.26851053E+01</rscale>
<asrwt>0</asrwt>
<pdfrwt beam="1">0</pdfrwt>
<pdfrwt beam="2">0</pdfrwt>
<totfact> 0.23515619E+12</totfact>
</mgrwt>
</event>
<event>
 4    2  0.1060494E+006  0.2327328E+01  0.7546771E-02  0.2789924E+00
         22   -1    0    0    0    0  0.00000000000E+00  0.00000000000E+00  0.59265583582E+00  0.59265583582E+00  0.00000000000E+00 0. -1.
         22   -1    0    0    0    0 -0.00000000000E+00 -0.00000000000E+00 -0.14468890334E+02  0.14468890334E+02  0.00000000000E+00 0.  1.
          4    1    1    2  501    0  0.34629800760E+00 -0.23014194585E+01 -0.11508675532E+02  0.11741638145E+02  0.00000000000E+00 0.  1.
         -4    1    1    2    0  501 -0.34629800760E+00  0.23014194585E+01 -0.23675589668E+01  0.33199080252E+01  0.00000000000E+00 0. -1.
<mgrwt>
<rscale>  0 0.23273276E+01</rscale>
<asrwt>0</asrwt>
<pdfrwt beam="1">0</pdfrwt>
<pdfrwt beam="2">0</pdfrwt>
<totfact> 0.18329840E+12</totfact>
</mgrwt>
</event>
<event>
 4    2  0.1060494E+006  0.2784646E+01  0.7546771E-02  0.2594951E+00
         22   -1    0    0    0    0  0.00000000000E+00  0.00000000000E+00  0.92103532262E+01  0.92103532262E+01  0.00000000000E+00 0.  1.
         22   -1    0    0    0    0 -0.00000000000E+00 -0.00000000000E+00 -0.10019062053E+01  0.10019062053E+01  0.00000000000E+00 0. -1.
          4    1    1    2  501    0  0.99213105941E+00 -0.26019089954E+01  0.20637161523E+01  0.34660032915E+01  0.00000000000E+00 0. -1.
         -4    1    1    2    0  501 -0.99213105941E+00  0.26019089954E+01  0.61447308685E+01  0.67462561400E+01  0.00000000000E+00 0.  1.
<mgrwt>
<rscale>  0 0.27846462E+01</rscale>
<asrwt>0</asrwt>
<pdfrwt beam="1">0</pdfrwt>
<pdfrwt beam="2">0</pdfrwt>
<totfact> 0.17489407E+12</totfact>
</mgrwt>
</event>
<event>
 4    2  0.1060494E+006  0.3986956E+01  0.7546771E-02  0.2279795E+00
         22   -1    0    0    0    0  0.00000000000E+00  0.00000000000E+00  0.11356985980E+03  0.11356985980E+03  0.00000000000E+00 0. -1.
         22   -1    0    0    0    0 -0.00000000000E+00 -0.00000000000E+00 -0.20170383457E+00  0.20170383457E+00  0.00000000000E+00 0.  1.
          4    1    1    2  501    0  0.94687433566E+00 -0.38728857513E+01  0.25211989074E+02  0.25525285661E+02  0.00000000000E+00 0.  1.
         -4    1    1    2    0  501 -0.94687433566E+00  0.38728857513E+01  0.88156166888E+02  0.88246277969E+02  0.00000000000E+00 0. -1.
<mgrwt>
<rscale>  0 0.39869556E+01</rscale>
<asrwt>0</asrwt>
<pdfrwt beam="1">0</pdfrwt>
<pdfrwt beam="2">0</pdfrwt>
<totfact> 0.41498508E+11</totfact>
</mgrwt>
</event>
<event>
 4    2  0.1060494E+006  0.2305031E+01  0.7546771E-02  0.2801270E+00
         22   -1    0    0    0    0  0.00000000000E+00  0.00000000000E+00  0.28868025943E+02  0.28868025943E+02  0.00000000000E+00 0.  1.
         22   -1    0    0    0    0 -0.00000000000E+00 -0.00000000000E+00 -0.18911371803E+00  0.18911371803E+00  0.00000000000E+00 0. -1.
          4    1    1    2  501    0 -0.22915127565E+01 -0.24927254112E+00  0.11962149465E+02  0.12182207819E+02  0.00000000000E+00 0.  1.
         -4    1    1    2    0  501  0.22915127565E+01  0.24927254112E+00  0.16716762760E+02  0.16874931842E+02  0.00000000000E+00 0. -1.
<mgrwt>
<rscale>  0 0.23050309E+01</rscale>
<asrwt>0</asrwt>
<pdfrwt beam="1">0</pdfrwt>
<pdfrwt beam="2">0</pdfrwt>
<totfact> 0.27902250E+12</totfact>
</mgrwt>
</event>
<event>
 4    2  0.1060494E+006  0.2527177E+01  0.7546771E-02  0.2696668E+00
         22   -1    0    0    0    0  0.00000000000E+00  0.00000000000E+00  0.60494168543E+02  0.60494168543E+02  0.00000000000E+00 0. -1.
         22   -1    0    0    0    0 -0.00000000000E+00 -0.00000000000E+00 -0.20496790101E+00  0.20496790101E+00  0.00000000000E+00 0.  1.
          4    1    1    2  501    0  0.12845470100E+01  0.21763648903E+01  0.90102472052E+01  0.93579474168E+01  0.00000000000E+00 0.  1.
         -4    1    1    2    0  501 -0.12845470100E+01 -0.21763648903E+01  0.51278953437E+02  0.51341189027E+02  0.00000000000E+00 0. -1.
<mgrwt>
<rscale>  0 0.25271773E+01</rscale>
<asrwt>0</asrwt>
<pdfrwt beam="1">0</pdfrwt>
<pdfrwt beam="2">0</pdfrwt>
<totfact> 0.97277972E+11</totfact>
</mgrwt>
</event>
<event>
 4    2  0.1060494E+006  0.5274512E+01  0.7546771E-02  0.2091595E+00
         22   -1    0    0    0    0  0.00000000000E+00  0.00000000000E+00  0.54144082034E+00  0.54144082034E+00  0.00000000000E+00 0. -1.
         22   -1    0    0    0    0 -0.00000000000E+00 -0.00000000000E+00 -0.92108624200E+02  0.92108624200E+02  0.00000000000E+00 0.  1.
          4    1    1    2  501    0  0.37358073916E+01  0.37234689947E+01 -0.76587310980E+02  0.76768722025E+02  0.00000000000E+00 0.  1.
         -4    1    1    2    0  501 -0.37358073916E+01 -0.37234689947E+01 -0.14979872400E+02  0.15881342995E+02  0.00000000000E+00 0. -1.
<mgrwt>
<rscale>  0 0.52745121E+01</rscale>
<asrwt>0</asrwt>
<pdfrwt beam="1">0</pdfrwt>
<pdfrwt beam="2">0</pdfrwt>
<totfact> 0.18404940E+11</totfact>
</mgrwt>
</event>
<event>
 4    2  0.1060494E+006  0.3606145E+01  0.7546771E-02  0.2359560E+00
         22   -1    0    0    0    0  0.00000000000E+00  0.00000000000E+00  0.11376373500E+01  0.11376373500E+01  0.00000000000E+00 0.  1.
         22   -1    0    0    0    0 -0.00000000000E+00 -0.00000000000E+00 -0.13007249874E+02  0.13007249874E+02  0.00000000000E+00 0. -1.
          4    1    1    2  501    0 -0.36060858877E+01  0.20604339776E-01 -0.83968493619E+01  0.91384549665E+01  0.00000000000E+00 0. -1.
         -4    1    1    2    0  501  0.36060858877E+01 -0.20604339776E-01 -0.34727631620E+01  0.50064322574E+01  0.00000000000E+00 0.  1.
<mgrwt>
<rscale>  0 0.36061448E+01</rscale>
<asrwt>0</asrwt>
<pdfrwt beam="1">0</pdfrwt>
<pdfrwt beam="2">0</pdfrwt>
<totfact> 0.99436129E+11</totfact>
</mgrwt>
</event>
<event>
 4    2  0.1060494E+006  0.2138021E+01  0.7546771E-02  0.2893407E+00
         22   -1    0    0    0    0  0.00000000000E+00  0.00000000000E+00  0.44399755614E+01  0.44399755614E+01  0.00000000000E+00 0.  1.
         22   -1    0    0    0    0 -0.00000000000E+00 -0.00000000000E+00 -0.10457063535E+01  0.10457063535E+01  0.00000000000E+00 0. -1.
          4    1    1    2  501    0  0.21202839402E+01 -0.27482736270E+00  0.20381679660E+01  0.29538555693E+01  0.00000000000E+00 0. -1.
         -4    1    1    2    0  501 -0.21202839402E+01  0.27482736270E+00  0.13561012419E+01  0.25318263457E+01  0.00000000000E+00 0.  1.
<mgrwt>
<rscale>  0 0.21380211E+01</rscale>
<asrwt>0</asrwt>
<pdfrwt beam="1">0</pdfrwt>
<pdfrwt beam="2">0</pdfrwt>
<totfact> 0.39772933E+12</totfact>
</mgrwt>
</event>
<event>
 4    2  0.1060494E+006  0.4415862E+01  0.7546771E-02  0.2204214E+00
         22   -1    0    0    0    0  0.00000000000E+00  0.00000000000E+00  0.17617328146E+02  0.17617328146E+02  0.00000000000E+00 0.  1.
         22   -1    0    0    0    0 -0.00000000000E+00 -0.00000000000E+00 -0.11858077075E+01  0.11858077075E+01  0.00000000000E+00 0. -1.
          4    1    1    2  501    0 -0.41705138236E+01  0.14514299796E+01  0.57898450676E+01  0.72816303425E+01  0.00000000000E+00 0. -1.
         -4    1    1    2    0  501  0.41705138236E+01 -0.14514299796E+01  0.10641675371E+02  0.11521505511E+02  0.00000000000E+00 0.  1.
<mgrwt>
<rscale>  0 0.44158617E+01</rscale>
<asrwt>0</asrwt>
<pdfrwt beam="1">0</pdfrwt>
<pdfrwt beam="2">0</pdfrwt>
<totfact> 0.65269121E+11</totfact>
</mgrwt>
</event>
<event>
 4    2  0.1060494E+006  0.2066054E+01  0.7546771E-02  0.2937522E+00
         22   -1    0    0    0    0  0.00000000000E+00  0.00000000000E+00  0.15397127754E+02  0.15397127754E+02  0.00000000000E+00 0.  1.
         22   -1    0    0    0    0 -0.00000000000E+00 -0.00000000000E+00 -0.73980455138E+00  0.73980455138E+00  0.00000000000E+00 0. -1.
          4    1    1    2  501    0 -0.70966441401E+00  0.19403488275E+01  0.94863643101E+00  0.22734309383E+01  0.00000000000E+00 0. -1.
         -4    1    1    2    0  501  0.70966441401E+00 -0.19403488275E+01  0.13708686772E+02  0.13863501367E+02  0.00000000000E+00 0.  1.
<mgrwt>
<rscale>  0 0.20660535E+01</rscale>
<asrwt>0</asrwt>
<pdfrwt beam="1">0</pdfrwt>
<pdfrwt beam="2">0</pdfrwt>
<totfact> 0.13203070E+12</totfact>
</mgrwt>
</event>
<event>
 4    2  0.1060494E+006  0.2020892E+01  0.7546771E-02  0.2966764E+00
         22   -1    0    0    0    0  0.00000000000E+00  0.00000000000E+00  0.93055107900E+00  0.93055107900E+00  0.00000000000E+00 0.  1.
         22   -1    0    0    0    0 -0.00000000000E+00 -0.00000000000E+00 -0.57814460328E+01  0.57814460328E+01  0.00000000000E+00 0. -1.
          4    1    1    2  501    0 -0.19617059586E+01 -0.48550475050E+00 -0.40725607702E+01  0.45464003737E+01  0.00000000000E+00 0.  1.
         -4    1    1    2    0  501  0.19617059586E+01  0.48550475050E+00 -0.77833418360E+00  0.21655967381E+01  0.00000000000E+00 0. -1.
<mgrwt>
<rscale>  0 0.20208922E+01</rscale>
<asrwt>0</asrwt>
<pdfrwt beam="1">0</pdfrwt>
<pdfrwt beam="2">0</pdfrwt>
<totfact> 0.33236262E+12</totfact>
</mgrwt>
</event>
<event>
 4    2  0.1060494E+006  0.3406201E+01  0.7546771E-02  0.2407559E+00
         22   -1    0    0    0    0  0.00000000000E+00  0.00000000000E+00  0.88865469474E+00  0.88865469474E+00  0.00000000000E+00 0.  1.
         22   -1    0    0    0    0 -0.00000000000E+00 -0.00000000000E+00 -0.36832649443E+02  0.36832649443E+02  0.00000000000E+00 0. -1.
          4    1    1    2  501    0 -0.21905359203E+01 -0.26084012579E+01 -0.33125613459E+02  0.33300277353E+02  0.00000000000E+00 0. -1.
         -4    1    1    2    0  501  0.21905359203E+01  0.26084012579E+01 -0.28183812890E+01  0.44210267847E+01  0.00000000000E+00 0.  1.
<mgrwt>
<rscale>  0 0.34062009E+01</rscale>
<asrwt>0</asrwt>
<pdfrwt beam="1">0</pdfrwt>
<pdfrwt beam="2">0</pdfrwt>
<totfact> 0.35740781E+11</totfact>
</mgrwt>
</event>
<event>
 4    2  0.1060494E+006  0.2464080E+01  0.7546771E-02  0.2724581E+00
         22   -1    0    0    0    0  0.00000000000E+00  0.00000000000E+00  0.35272130119E+02  0.35272130119E+02  0.00000000000E+00 0.  1.
         22   -1    0    0    0    0 -0.00000000000E+00 -0.00000000000E+00 -0.47177341797E+00  0.47177341797E+00  0.00000000000E+00 0. -1.
          4    1    1    2  501    0 -0.21762738294E+01  0.11556471619E+01  0.31571764603E+01  0.40049283820E+01  0.00000000000E+00 0. -1.
         -4    1    1    2    0  501  0.21762738294E+01 -0.11556471619E+01  0.31643180241E+02  0.31738975155E+02  0.00000000000E+00 0.  1.
<mgrwt>
<rscale>  0 0.24640796E+01</rscale>
<asrwt>0</asrwt>
<pdfrwt beam="1">0</pdfrwt>
<pdfrwt beam="2">0</pdfrwt>
<totfact> 0.77477018E+11</totfact>
</mgrwt>
</event>
<event>
 4    2  0.1060494E+006  0.2005547E+01  0.7546771E-02  0.2976993E+00
         22   -1    0    0    0    0  0.00000000000E+00  0.00000000000E+00  0.66048769170E+02  0.66048769170E+02  0.00000000000E+00 0.  1.
         22   -1    0    0    0    0 -0.00000000000E+00 -0.00000000000E+00 -0.50020344686E+00  0.50020344686E+00  0.00000000000E+00 0. -1.
          4    1    1    2  501    0  0.18815397803E+01  0.69428148484E+00  0.15910270567E+01  0.25599972305E+01  0.00000000000E+00 0. -1.
         -4    1    1    2    0  501 -0.18815397803E+01 -0.69428148484E+00  0.63957538667E+02  0.63988975387E+02  0.00000000000E+00 0.  1.
<mgrwt>
<rscale>  0 0.20055470E+01</rscale>
<asrwt>0</asrwt>
<pdfrwt beam="1">0</pdfrwt>
<pdfrwt beam="2">0</pdfrwt>
<totfact> 0.31754479E+11</totfact>
</mgrwt>
</event>
<event>
 4    2  0.1060494E+006  0.2345805E+01  0.7546771E-02  0.2780677E+00
         22   -1    0    0    0    0  0.00000000000E+00  0.00000000000E+00  0.66719461741E+01  0.66719461741E+01  0.00000000000E+00 0.  1.
         22   -1    0    0    0    0 -0.00000000000E+00 -0.00000000000E+00 -0.11202163721E+01  0.11202163721E+01  0.00000000000E+00 0. -1.
          4    1    1    2  501    0 -0.16515307409E+01 -0.16659066590E+01  0.77499508393E+00  0.24705092926E+01  0.00000000000E+00 0. -1.
         -4    1    1    2    0  501  0.16515307409E+01  0.16659066590E+01  0.47767347181E+01  0.53216532536E+01  0.00000000000E+00 0.  1.
<mgrwt>
<rscale>  0 0.23458045E+01</rscale>
<asrwt>0</asrwt>
<pdfrwt beam="1">0</pdfrwt>
<pdfrwt beam="2">0</pdfrwt>
<totfact> 0.22670987E+12</totfact>
</mgrwt>
</event>
<event>
 4    2  0.1060494E+006  0.2109090E+01  0.7546771E-02  0.2910790E+00
         22   -1    0    0    0    0  0.00000000000E+00  0.00000000000E+00  0.86175582110E+00  0.86175582110E+00  0.00000000000E+00 0.  1.
         22   -1    0    0    0    0 -0.00000000000E+00 -0.00000000000E+00 -0.51672558102E+01  0.51672558102E+01  0.00000000000E+00 0. -1.
          4    1    1    2  501    0 -0.18128697594E+01 -0.10778519380E+01 -0.20553235291E+01  0.29449306229E+01  0.00000000000E+00 0.  1.
         -4    1    1    2    0  501  0.18128697594E+01  0.10778519380E+01 -0.22501764600E+01  0.30840810084E+01  0.00000000000E+00 0. -1.
<mgrwt>
<rscale>  0 0.21090902E+01</rscale>
<asrwt>0</asrwt>
<pdfrwt beam="1">0</pdfrwt>
<pdfrwt beam="2">0</pdfrwt>
<totfact> 0.41451881E+12</totfact>
</mgrwt>
</event>
<event>
 4    2  0.1060494E+006  0.2108889E+01  0.7546771E-02  0.2910913E+00
         22   -1    0    0    0    0  0.00000000000E+00  0.00000000000E+00  0.94174789461E+00  0.94174789461E+00  0.00000000000E+00 0.  1.
         22   -1    0    0    0    0 -0.00000000000E+00 -0.00000000000E+00 -0.66652884473E+01  0.66652884473E+01  0.00000000000E+00 0. -1.
          4    1    1    2  501    0 -0.88132439232E+00  0.19159024601E+01 -0.49152363512E+01  0.53485477758E+01  0.00000000000E+00 0. -1.
         -4    1    1    2    0  501  0.88132439232E+00 -0.19159024601E+01 -0.80830420147E+00  0.22584885661E+01  0.00000000000E+00 0.  1.
<mgrwt>
<rscale>  0 0.21088895E+01</rscale>
<asrwt>0</asrwt>
<pdfrwt beam="1">0</pdfrwt>
<pdfrwt beam="2">0</pdfrwt>
<totfact> 0.27674279E+12</totfact>
</mgrwt>
</event>
<event>
 4    2  0.1060494E+006  0.2443757E+01  0.7546771E-02  0.2733857E+00
         22   -1    0    0    0    0  0.00000000000E+00  0.00000000000E+00  0.23265201968E+01  0.23265201968E+01  0.00000000000E+00 0.  1.
         22   -1    0    0    0    0 -0.00000000000E+00 -0.00000000000E+00 -0.13474956283E+02  0.13474956283E+02  0.00000000000E+00 0. -1.
          4    1    1    2  501    0 -0.24083129950E+01 -0.41470081903E+00 -0.12682712770E+02  0.12916003695E+02  0.00000000000E+00 0. -1.
         -4    1    1    2    0  501  0.24083129950E+01  0.41470081903E+00  0.15342766834E+01  0.28854727849E+01  0.00000000000E+00 0.  1.
<mgrwt>
<rscale>  0 0.24437570E+01</rscale>
<asrwt>0</asrwt>
<pdfrwt beam="1">0</pdfrwt>
<pdfrwt beam="2">0</pdfrwt>
<totfact> 0.41746264E+11</totfact>
</mgrwt>
</event>
<event>
 4    2  0.1060494E+006  0.3560546E+01  0.7546771E-02  0.2370093E+00
         22   -1    0    0    0    0  0.00000000000E+00  0.00000000000E+00  0.19071153125E+01  0.19071153125E+01  0.00000000000E+00 0.  1.
         22   -1    0    0    0    0 -0.00000000000E+00 -0.00000000000E+00 -0.12925840043E+02  0.12925840043E+02  0.00000000000E+00 0. -1.
          4    1    1    2  501    0 -0.26339047808E+01  0.23958360290E+01 -0.10678188092E+02  0.11256162117E+02  0.00000000000E+00 0. -1.
         -4    1    1    2    0  501  0.26339047808E+01 -0.23958360290E+01 -0.34053663876E+00  0.35767932389E+01  0.00000000000E+00 0.  1.
<mgrwt>
<rscale>  0 0.35605456E+01</rscale>
<asrwt>0</asrwt>
<pdfrwt beam="1">0</pdfrwt>
<pdfrwt beam="2">0</pdfrwt>
<totfact> 0.55307588E+11</totfact>
</mgrwt>
</event>
<event>
 4    2  0.1060494E+006  0.4074990E+01  0.7546771E-02  0.2263185E+00
         22   -1    0    0    0    0  0.00000000000E+00  0.00000000000E+00  0.31551983920E+02  0.31551983920E+02  0.00000000000E+00 0. -1.
         22   -1    0    0    0    0 -0.00000000000E+00 -0.00000000000E+00 -0.53000260795E+00  0.53000260795E+00  0.00000000000E+00 0.  1.
          4    1    1    2  501    0  0.37241304186E+01 -0.16542052718E+01  0.16853264865E+02  0.17338918048E+02  0.00000000000E+00 0. -1.
         -4    1    1    2    0  501 -0.37241304186E+01  0.16542052718E+01  0.14168716446E+02  0.14743068480E+02  0.00000000000E+00 0.  1.
<mgrwt>
<rscale>  0 0.40749899E+01</rscale>
<asrwt>0</asrwt>
<pdfrwt beam="1">0</pdfrwt>
<pdfrwt beam="2">0</pdfrwt>
<totfact> 0.78378731E+11</totfact>
</mgrwt>
</event>
<event>
 4    2  0.1060494E+006  0.2548105E+01  0.7546771E-02  0.2687695E+00
         22   -1    0    0    0    0  0.00000000000E+00  0.00000000000E+00  0.80431591736E+00  0.80431591736E+00  0.00000000000E+00 0.  1.
         22   -1    0    0    0    0 -0.00000000000E+00 -0.00000000000E+00 -0.87578509846E+01  0.87578509846E+01  0.00000000000E+00 0. -1.
          4    1    1    2  501    0 -0.19781536241E+01 -0.16061587879E+01 -0.53142405425E+01  0.58935549845E+01  0.00000000000E+00 0.  1.
         -4    1    1    2    0  501  0.19781536241E+01  0.16061587879E+01 -0.26392945248E+01  0.36686119175E+01  0.00000000000E+00 0. -1.
<mgrwt>
<rscale>  0 0.25481047E+01</rscale>
<asrwt>0</asrwt>
<pdfrwt beam="1">0</pdfrwt>
<pdfrwt beam="2">0</pdfrwt>
<totfact> 0.23872645E+12</totfact>
</mgrwt>
</event>
<event>
 4    2  0.1060494E+006  0.2567773E+01  0.7546771E-02  0.2679385E+00
         22   -1    0    0    0    0  0.00000000000E+00  0.00000000000E+00  0.11740343397E+02  0.11740343397E+02  0.00000000000E+00 0. -1.
         22   -1    0    0    0    0 -0.00000000000E+00 -0.00000000000E+00 -0.56387592401E+00  0.56387592401E+00  0.00000000000E+00 0.  1.
          4    1    1    2  501    0  0.24935418779E+01  0.61294955929E+00  0.59784888327E+01  0.65065956522E+01  0.00000000000E+00 0. -1.
         -4    1    1    2    0  501 -0.24935418779E+01 -0.61294955929E+00  0.51979786399E+01  0.57976236684E+01  0.00000000000E+00 0.  1.
<mgrwt>
<rscale>  0 0.25677730E+01</rscale>
<asrwt>0</asrwt>
<pdfrwt beam="1">0</pdfrwt>
<pdfrwt beam="2">0</pdfrwt>
<totfact> 0.25041834E+12</totfact>
</mgrwt>
</event>
<event>
 4    2  0.1060494E+006  0.2447738E+01  0.7546771E-02  0.2732029E+00
         22   -1    0    0    0    0  0.00000000000E+00  0.00000000000E+00  0.45378620579E+00  0.45378620579E+00  0.00000000000E+00 0.  1.
         22   -1    0    0    0    0 -0.00000000000E+00 -0.00000000000E+00 -0.13261734702E+02  0.13261734702E+02  0.00000000000E+00 0. -1.
          4    1    1    2  501    0 -0.17653222113E+01  0.16956004179E+01 -0.59483110175E+01  0.64322490039E+01  0.00000000000E+00 0. -1.
         -4    1    1    2    0  501  0.17653222113E+01 -0.16956004179E+01 -0.68596374789E+01  0.72832719041E+01  0.00000000000E+00 0.  1.
<mgrwt>
<rscale>  0 0.24477384E+01</rscale>
<asrwt>0</asrwt>
<pdfrwt beam="1">0</pdfrwt>
<pdfrwt beam="2">0</pdfrwt>
<totfact> 0.27578942E+12</totfact>
</mgrwt>
</event>
<event>
 4    2  0.1060494E+006  0.4707104E+01  0.7546771E-02  0.2159678E+00
         22   -1    0    0    0    0  0.00000000000E+00  0.00000000000E+00  0.37273192695E+01  0.37273192695E+01  0.00000000000E+00 0. -1.
         22   -1    0    0    0    0 -0.00000000000E+00 -0.00000000000E+00 -0.93999066457E+01  0.93999066457E+01  0.00000000000E+00 0.  1.
          4    1    1    2  501    0  0.32573310395E+01  0.33980322917E+01 -0.68158485129E+01  0.82832735018E+01  0.00000000000E+00 0.  1.
         -4    1    1    2    0  501 -0.32573310395E+01 -0.33980322917E+01  0.11432611367E+01  0.48439524133E+01  0.00000000000E+00 0. -1.
<mgrwt>
<rscale>  0 0.47071041E+01</rscale>
<asrwt>0</asrwt>
<pdfrwt beam="1">0</pdfrwt>
<pdfrwt beam="2">0</pdfrwt>
<totfact> 0.37312623E+11</totfact>
</mgrwt>
</event>
<event>
 4    2  0.1060494E+006  0.2029591E+01  0.7546771E-02  0.2961033E+00
         22   -1    0    0    0    0  0.00000000000E+00  0.00000000000E+00  0.35513981786E+02  0.35513981786E+02  0.00000000000E+00 0.  1.
         22   -1    0    0    0    0 -0.00000000000E+00 -0.00000000000E+00 -0.18055957850E+00  0.18055957850E+00  0.00000000000E+00 0. -1.
          4    1    1    2  501    0 -0.14096005640E+01  0.14602283820E+01  0.69939205026E+01  0.72824559507E+01  0.00000000000E+00 0. -1.
         -4    1    1    2    0  501  0.14096005640E+01 -0.14602283820E+01  0.28339501705E+02  0.28412085413E+02  0.00000000000E+00 0.  1.
<mgrwt>
<rscale>  0 0.20295913E+01</rscale>
<asrwt>0</asrwt>
<pdfrwt beam="1">0</pdfrwt>
<pdfrwt beam="2">0</pdfrwt>
<totfact> 0.22536185E+12</totfact>
</mgrwt>
</event>
<event>
 4    2  0.1060494E+006  0.2018444E+01  0.7546771E-02  0.2968386E+00
         22   -1    0    0    0    0  0.00000000000E+00  0.00000000000E+00  0.10904431364E+01  0.10904431364E+01  0.00000000000E+00 0. -1.
         22   -1    0    0    0    0 -0.00000000000E+00 -0.00000000000E+00 -0.93668478093E+01  0.93668478093E+01  0.00000000000E+00 0.  1.
          4    1    1    2  501    0 -0.20176363029E+01  0.57085500681E-01 -0.81920889495E+01  0.84370869594E+01  0.00000000000E+00 0.  1.
         -4    1    1    2    0  501  0.20176363029E+01 -0.57085500681E-01 -0.84315723427E-01  0.20202039863E+01  0.00000000000E+00 0. -1.
<mgrwt>
<rscale>  0 0.20184437E+01</rscale>
<asrwt>0</asrwt>
<pdfrwt beam="1">0</pdfrwt>
<pdfrwt beam="2">0</pdfrwt>
<totfact> 0.15554670E+12</totfact>
</mgrwt>
</event>
<event>
 4    2  0.1060494E+006  0.2157747E+01  0.7546771E-02  0.2881813E+00
         22   -1    0    0    0    0  0.00000000000E+00  0.00000000000E+00  0.96051422149E+02  0.96051422149E+02  0.00000000000E+00 0. -1.
         22   -1    0    0    0    0 -0.00000000000E+00 -0.00000000000E+00 -0.50802030902E-01  0.50802030902E-01  0.00000000000E+00 0.  1.
          4    1    1    2  501    0 -0.13780182446E+01  0.16604024138E+01  0.37711153537E+02  0.37772833777E+02  0.00000000000E+00 0. -1.
         -4    1    1    2    0  501  0.13780182446E+01 -0.16604024138E+01  0.58289466581E+02  0.58329390403E+02  0.00000000000E+00 0.  1.
<mgrwt>
<rscale>  0 0.21577466E+01</rscale>
<asrwt>0</asrwt>
<pdfrwt beam="1">0</pdfrwt>
<pdfrwt beam="2">0</pdfrwt>
<totfact> 0.24213170E+12</totfact>
</mgrwt>
</event>
<event>
 4    2  0.1060494E+006  0.2904129E+01  0.7546771E-02  0.2553372E+00
         22   -1    0    0    0    0  0.00000000000E+00  0.00000000000E+00  0.46154700194E+00  0.46154700194E+00  0.00000000000E+00 0.  1.
         22   -1    0    0    0    0 -0.00000000000E+00 -0.00000000000E+00 -0.19325009343E+02  0.19325009343E+02  0.00000000000E+00 0. -1.
          4    1    1    2  501    0  0.28057636987E+01  0.74943671588E+00 -0.11739742045E+02  0.12093614374E+02  0.00000000000E+00 0. -1.
         -4    1    1    2    0  501 -0.28057636987E+01 -0.74943671588E+00 -0.71237202959E+01  0.76929419716E+01  0.00000000000E+00 0.  1.
<mgrwt>
<rscale>  0 0.29041290E+01</rscale>
<asrwt>0</asrwt>
<pdfrwt beam="1">0</pdfrwt>
<pdfrwt beam="2">0</pdfrwt>
<totfact> 0.17000247E+12</totfact>
</mgrwt>
</event>
<event>
 4    2  0.1060494E+006  0.3939489E+01  0.7546771E-02  0.2289013E+00
         22   -1    0    0    0    0  0.00000000000E+00  0.00000000000E+00  0.51980886049E+01  0.51980886049E+01  0.00000000000E+00 0. -1.
         22   -1    0    0    0    0 -0.00000000000E+00 -0.00000000000E+00 -0.52759679648E+01  0.52759679648E+01  0.00000000000E+00 0.  1.
          4    1    1    2  501    0  0.34376052418E+01 -0.19241739364E+01 -0.34894515345E+01  0.52626844051E+01  0.00000000000E+00 0.  1.
         -4    1    1    2    0  501 -0.34376052418E+01  0.19241739364E+01  0.34115721746E+01  0.52113721646E+01  0.00000000000E+00 0. -1.
<mgrwt>
<rscale>  0 0.39394892E+01</rscale>
<asrwt>0</asrwt>
<pdfrwt beam="1">0</pdfrwt>
<pdfrwt beam="2">0</pdfrwt>
<totfact> 0.50299140E+11</totfact>
</mgrwt>
</event>
<event>
 4    2  0.1060494E+006  0.2990663E+01  0.7546771E-02  0.2525139E+00
         22   -1    0    0    0    0  0.00000000000E+00  0.00000000000E+00  0.73122085106E+00  0.73122085106E+00  0.00000000000E+00 0.  1.
         22   -1    0    0    0    0 -0.00000000000E+00 -0.00000000000E+00 -0.12295487839E+02  0.12295487839E+02  0.00000000000E+00 0. -1.
          4    1    1    2  501    0 -0.29456467374E+01 -0.51694169480E+00 -0.62513252999E+01  0.69298723959E+01  0.00000000000E+00 0. -1.
         -4    1    1    2    0  501  0.29456467374E+01  0.51694169480E+00 -0.53129416877E+01  0.60968362939E+01  0.00000000000E+00 0.  1.
<mgrwt>
<rscale>  0 0.29906627E+01</rscale>
<asrwt>0</asrwt>
<pdfrwt beam="1">0</pdfrwt>
<pdfrwt beam="2">0</pdfrwt>
<totfact> 0.17630541E+12</totfact>
</mgrwt>
</event>
<event>
 4    2  0.1060494E+006  0.4156058E+01  0.7546771E-02  0.2248420E+00
         22   -1    0    0    0    0  0.00000000000E+00  0.00000000000E+00  0.34896308379E+00  0.34896308379E+00  0.00000000000E+00 0. -1.
         22   -1    0    0    0    0 -0.00000000000E+00 -0.00000000000E+00 -0.58229843930E+02  0.58229843930E+02  0.00000000000E+00 0.  1.
          4    1    1    2  501    0  0.34823193647E+01  0.22685395468E+01 -0.40282756199E+02  0.40496583397E+02  0.00000000000E+00 0. -1.
         -4    1    1    2    0  501 -0.34823193647E+01 -0.22685395468E+01 -0.17598124647E+02  0.18082223617E+02  0.00000000000E+00 0.  1.
<mgrwt>
<rscale>  0 0.41560582E+01</rscale>
<asrwt>0</asrwt>
<pdfrwt beam="1">0</pdfrwt>
<pdfrwt beam="2">0</pdfrwt>
<totfact> 0.56421963E+11</totfact>
</mgrwt>
</event>
<event>
 4    2  0.1060494E+006  0.3091065E+01  0.7546771E-02  0.2494163E+00
         22   -1    0    0    0    0  0.00000000000E+00  0.00000000000E+00  0.58212089008E+01  0.58212089008E+01  0.00000000000E+00 0. -1.
         22   -1    0    0    0    0 -0.00000000000E+00 -0.00000000000E+00 -0.74023549713E+01  0.74023549713E+01  0.00000000000E+00 0.  1.
          4    1    1    2  501    0 -0.26920690224E+01 -0.15190286538E+01 -0.66234446592E+01  0.73092203980E+01  0.00000000000E+00 0.  1.
         -4    1    1    2    0  501  0.26920690224E+01  0.15190286538E+01  0.50422985887E+01  0.59143434741E+01  0.00000000000E+00 0. -1.
<mgrwt>
<rscale>  0 0.30910651E+01</rscale>
<asrwt>0</asrwt>
<pdfrwt beam="1">0</pdfrwt>
<pdfrwt beam="2">0</pdfrwt>
<totfact> 0.29368589E+11</totfact>
</mgrwt>
</event>
<event>
 4    2  0.1060494E+006  0.3549609E+01  0.7546771E-02  0.2372654E+00
         22   -1    0    0    0    0  0.00000000000E+00  0.00000000000E+00  0.78285235594E+01  0.78285235594E+01  0.00000000000E+00 0. -1.
         22   -1    0    0    0    0 -0.00000000000E+00 -0.00000000000E+00 -0.18944078343E+01  0.18944078343E+01  0.00000000000E+00 0.  1.
          4    1    1    2  501    0 -0.52356673979E+00 -0.35107838407E+01  0.48524872265E+01  0.60121840949E+01  0.00000000000E+00 0. -1.
         -4    1    1    2    0  501  0.52356673979E+00  0.35107838407E+01  0.10816284986E+01  0.37107472989E+01  0.00000000000E+00 0.  1.
<mgrwt>
<rscale>  0 0.35496092E+01</rscale>
<asrwt>0</asrwt>
<pdfrwt beam="1">0</pdfrwt>
<pdfrwt beam="2">0</pdfrwt>
<totfact> 0.10231737E+12</totfact>
</mgrwt>
</event>
<event>
 4    2  0.1060494E+006  0.2788782E+01  0.7546771E-02  0.2593458E+00
         22   -1    0    0    0    0  0.00000000000E+00  0.00000000000E+00  0.30887990811E+00  0.30887990811E+00  0.00000000000E+00 0.  1.
         22   -1    0    0    0    0 -0.00000000000E+00 -0.00000000000E+00 -0.25470761061E+02  0.25470761061E+02  0.00000000000E+00 0. -1.
          4    1    1    2  501    0 -0.17467503728E+01  0.21739745808E+01 -0.11201499679E+02  0.11543435251E+02  0.00000000000E+00 0.  1.
         -4    1    1    2    0  501  0.17467503728E+01 -0.21739745808E+01 -0.13960381475E+02  0.14236205718E+02  0.00000000000E+00 0. -1.
<mgrwt>
<rscale>  0 0.27887815E+01</rscale>
<asrwt>0</asrwt>
<pdfrwt beam="1">0</pdfrwt>
<pdfrwt beam="2">0</pdfrwt>
<totfact> 0.18893278E+12</totfact>
</mgrwt>
</event>
<event>
 4    2  0.1060494E+006  0.2476082E+01  0.7546771E-02  0.2719169E+00
         22   -1    0    0    0    0  0.00000000000E+00  0.00000000000E+00  0.44393032529E+00  0.44393032529E+00  0.00000000000E+00 0.  1.
         22   -1    0    0    0    0 -0.00000000000E+00 -0.00000000000E+00 -0.14811606897E+02  0.14811606897E+02  0.00000000000E+00 0. -1.
          4    1    1    2  501    0 -0.23023186344E+01 -0.91121516510E+00 -0.91667135685E+01  0.94952420622E+01  0.00000000000E+00 0. -1.
         -4    1    1    2    0  501  0.23023186344E+01  0.91121516510E+00 -0.52009630032E+01  0.57602951602E+01  0.00000000000E+00 0.  1.
<mgrwt>
<rscale>  0 0.24760824E+01</rscale>
<asrwt>0</asrwt>
<pdfrwt beam="1">0</pdfrwt>
<pdfrwt beam="2">0</pdfrwt>
<totfact> 0.24684775E+12</totfact>
</mgrwt>
</event>
<event>
 4    2  0.1060494E+006  0.3270972E+01  0.7546771E-02  0.2442915E+00
         22   -1    0    0    0    0  0.00000000000E+00  0.00000000000E+00  0.22482684990E+02  0.22482684990E+02  0.00000000000E+00 0.  1.
         22   -1    0    0    0    0 -0.00000000000E+00 -0.00000000000E+00 -0.57707393312E+00  0.57707393312E+00  0.00000000000E+00 0. -1.
          4    1    1    2  501    0  0.32327693818E+01  0.49845725892E+00  0.61248035822E+01  0.69435204641E+01  0.00000000000E+00 0. -1.
         -4    1    1    2    0  501 -0.32327693818E+01 -0.49845725892E+00  0.15780807475E+02  0.16116238459E+02  0.00000000000E+00 0.  1.
<mgrwt>
<rscale>  0 0.32709720E+01</rscale>
<asrwt>0</asrwt>
<pdfrwt beam="1">0</pdfrwt>
<pdfrwt beam="2">0</pdfrwt>
<totfact> 0.10932534E+12</totfact>
</mgrwt>
</event>
<event>
 4    2  0.1060494E+006  0.2075662E+01  0.7546771E-02  0.2931460E+00
         22   -1    0    0    0    0  0.00000000000E+00  0.00000000000E+00  0.13906820066E+01  0.13906820066E+01  0.00000000000E+00 0.  1.
         22   -1    0    0    0    0 -0.00000000000E+00 -0.00000000000E+00 -0.60156570365E+01  0.60156570365E+01  0.00000000000E+00 0. -1.
          4    1    1    2  501    0 -0.57954161945E+00 -0.19931140849E+01 -0.48914621540E+01  0.53136403951E+01  0.00000000000E+00 0. -1.
         -4    1    1    2    0  501  0.57954161945E+00  0.19931140849E+01  0.26648712410E+00  0.20926986481E+01  0.00000000000E+00 0.  1.
<mgrwt>
<rscale>  0 0.20756619E+01</rscale>
<asrwt>0</asrwt>
<pdfrwt beam="1">0</pdfrwt>
<pdfrwt beam="2">0</pdfrwt>
<totfact> 0.20015818E+12</totfact>
</mgrwt>
</event>
<event>
 4    2  0.1060494E+006  0.2423447E+01  0.7546771E-02  0.2743273E+00
         22   -1    0    0    0    0  0.00000000000E+00  0.00000000000E+00  0.18385363086E+01  0.18385363086E+01  0.00000000000E+00 0. -1.
         22   -1    0    0    0    0 -0.00000000000E+00 -0.00000000000E+00 -0.10983586451E+02  0.10983586451E+02  0.00000000000E+00 0.  1.
          4    1    1    2  501    0  0.21201948807E+01  0.11738260286E+01 -0.99713940000E+01  0.10261666150E+02  0.00000000000E+00 0.  1.
         -4    1    1    2    0  501 -0.21201948807E+01 -0.11738260286E+01  0.82634385759E+00  0.25604566094E+01  0.00000000000E+00 0. -1.
<mgrwt>
<rscale>  0 0.24234467E+01</rscale>
<asrwt>0</asrwt>
<pdfrwt beam="1">0</pdfrwt>
<pdfrwt beam="2">0</pdfrwt>
<totfact> 0.70364532E+11</totfact>
</mgrwt>
</event>
<event>
 4    2  0.1060494E+006  0.5800211E+01  0.7546771E-02  0.2038082E+00
         22   -1    0    0    0    0  0.00000000000E+00  0.00000000000E+00  0.58402897144E+01  0.58402897144E+01  0.00000000000E+00 0. -1.
         22   -1    0    0    0    0 -0.00000000000E+00 -0.00000000000E+00 -0.87547382490E+01  0.87547382490E+01  0.00000000000E+00 0.  1.
          4    1    1    2  501    0 -0.45504779845E+01 -0.35966092848E+01 -0.57250162503E+01  0.81497398303E+01  0.00000000000E+00 0.  1.
         -4    1    1    2    0  501  0.45504779845E+01  0.35966092848E+01  0.28105677157E+01  0.64452881332E+01  0.00000000000E+00 0. -1.
<mgrwt>
<rscale>  0 0.58002111E+01</rscale>
<asrwt>0</asrwt>
<pdfrwt beam="1">0</pdfrwt>
<pdfrwt beam="2">0</pdfrwt>
<totfact> 0.23912494E+11</totfact>
</mgrwt>
</event>
<event>
 4    2  0.1060494E+006  0.3507254E+01  0.7546771E-02  0.2382704E+00
         22   -1    0    0    0    0  0.00000000000E+00  0.00000000000E+00  0.30128513289E+02  0.30128513289E+02  0.00000000000E+00 0. -1.
         22   -1    0    0    0    0 -0.00000000000E+00 -0.00000000000E+00 -0.40833738478E+00  0.40833738478E+00  0.00000000000E+00 0.  1.
          4    1    1    2  501    0  0.16226593480E+01 -0.31093098579E+01  0.15043081245E+02  0.15446524674E+02  0.00000000000E+00 0. -1.
         -4    1    1    2    0  501 -0.16226593480E+01  0.31093098579E+01  0.14677094660E+02  0.15090326001E+02  0.00000000000E+00 0.  1.
<mgrwt>
<rscale>  0 0.35072541E+01</rscale>
<asrwt>0</asrwt>
<pdfrwt beam="1">0</pdfrwt>
<pdfrwt beam="2">0</pdfrwt>
<totfact> 0.11157116E+12</totfact>
</mgrwt>
</event>
<event>
 4    2  0.1060494E+006  0.2425557E+01  0.7546771E-02  0.2742288E+00
         22   -1    0    0    0    0  0.00000000000E+00  0.00000000000E+00  0.11441894524E+01  0.11441894524E+01  0.00000000000E+00 0.  1.
         22   -1    0    0    0    0 -0.00000000000E+00 -0.00000000000E+00 -0.61998577223E+01  0.61998577223E+01  0.00000000000E+00 0. -1.
          4    1    1    2  501    0 -0.42048010942E+00  0.23888335076E+01 -0.40446921665E+01  0.47162340666E+01  0.00000000000E+00 0. -1.
         -4    1    1    2    0  501  0.42048010942E+00 -0.23888335076E+01 -0.10109761034E+01  0.26278131081E+01  0.00000000000E+00 0.  1.
<mgrwt>
<rscale>  0 0.24255575E+01</rscale>
<asrwt>0</asrwt>
<pdfrwt beam="1">0</pdfrwt>
<pdfrwt beam="2">0</pdfrwt>
<totfact> 0.24152915E+12</totfact>
</mgrwt>
</event>
<event>
 4    2  0.1060494E+006  0.3125934E+01  0.7546771E-02  0.2483822E+00
         22   -1    0    0    0    0  0.00000000000E+00  0.00000000000E+00  0.29260595517E+01  0.29260595517E+01  0.00000000000E+00 0.  1.
         22   -1    0    0    0    0 -0.00000000000E+00 -0.00000000000E+00 -0.41711838836E+01  0.41711838836E+01  0.00000000000E+00 0. -1.
          4    1    1    2  501    0 -0.27578114656E+01  0.14717125649E+01 -0.22071610507E+01  0.38266201611E+01  0.00000000000E+00 0. -1.
         -4    1    1    2    0  501  0.27578114656E+01 -0.14717125649E+01  0.96203671887E+00  0.32706232742E+01  0.00000000000E+00 0.  1.
<mgrwt>
<rscale>  0 0.31259338E+01</rscale>
<asrwt>0</asrwt>
<pdfrwt beam="1">0</pdfrwt>
<pdfrwt beam="2">0</pdfrwt>
<totfact> 0.13051823E+12</totfact>
</mgrwt>
</event>
<event>
 4    2  0.1060494E+006  0.4740486E+01  0.7546771E-02  0.2155316E+00
         22   -1    0    0    0    0  0.00000000000E+00  0.00000000000E+00  0.42535162625E+02  0.42535162625E+02  0.00000000000E+00 0. -1.
         22   -1    0    0    0    0 -0.00000000000E+00 -0.00000000000E+00 -0.60784582015E+00  0.60784582015E+00  0.00000000000E+00 0.  1.
          4    1    1    2  501    0  0.38034504855E+01 -0.28294831854E+01  0.28766191797E+02  0.29154176394E+02  0.00000000000E+00 0. -1.
         -4    1    1    2    0  501 -0.38034504855E+01  0.28294831854E+01  0.13161125008E+02  0.13988832051E+02  0.00000000000E+00 0.  1.
<mgrwt>
<rscale>  0 0.47404863E+01</rscale>
<asrwt>0</asrwt>
<pdfrwt beam="1">0</pdfrwt>
<pdfrwt beam="2">0</pdfrwt>
<totfact> 0.45652583E+11</totfact>
</mgrwt>
</event>
<event>
 4    2  0.1060494E+006  0.2727385E+01  0.7546771E-02  0.2616047E+00
         22   -1    0    0    0    0  0.00000000000E+00  0.00000000000E+00  0.66953998463E+01  0.66953998463E+01  0.00000000000E+00 0.  1.
         22   -1    0    0    0    0 -0.00000000000E+00 -0.00000000000E+00 -0.12325171664E+01  0.12325171664E+01  0.00000000000E+00 0. -1.
          4    1    1    2  501    0 -0.13941019571E+01 -0.23441651012E+01  0.14868107532E+01  0.31063220220E+01  0.00000000000E+00 0.  1.
         -4    1    1    2    0  501  0.13941019571E+01  0.23441651012E+01  0.39760719267E+01  0.48215949908E+01  0.00000000000E+00 0. -1.
<mgrwt>
<rscale>  0 0.27273852E+01</rscale>
<asrwt>0</asrwt>
<pdfrwt beam="1">0</pdfrwt>
<pdfrwt beam="2">0</pdfrwt>
<totfact> 0.20236879E+12</totfact>
</mgrwt>
</event>
<event>
 4    2  0.1060494E+006  0.2873816E+01  0.7546771E-02  0.2563624E+00
         22   -1    0    0    0    0  0.00000000000E+00  0.00000000000E+00  0.42053459477E+00  0.42053459477E+00  0.00000000000E+00 0. -1.
         22   -1    0    0    0    0 -0.00000000000E+00 -0.00000000000E+00 -0.19957786564E+02  0.19957786564E+02  0.00000000000E+00 0.  1.
          4    1    1    2  501    0 -0.16549644058E+01 -0.23494492596E+01 -0.84805863567E+01  0.89542818786E+01  0.00000000000E+00 0. -1.
         -4    1    1    2    0  501  0.16549644058E+01  0.23494492596E+01 -0.11056665613E+02  0.11424039280E+02  0.00000000000E+00 0.  1.
<mgrwt>
<rscale>  0 0.28738161E+01</rscale>
<asrwt>0</asrwt>
<pdfrwt beam="1">0</pdfrwt>
<pdfrwt beam="2">0</pdfrwt>
<totfact> 0.18137403E+12</totfact>
</mgrwt>
</event>
<event>
 4    2  0.1060494E+006  0.2179229E+01  0.7546771E-02  0.2869417E+00
         22   -1    0    0    0    0  0.00000000000E+00  0.00000000000E+00  0.28647487616E+01  0.28647487616E+01  0.00000000000E+00 0.  1.
         22   -1    0    0    0    0 -0.00000000000E+00 -0.00000000000E+00 -0.16626182401E+01  0.16626182401E+01  0.00000000000E+00 0. -1.
          4    1    1    2  501    0  0.63741336833E+00 -0.20839252420E+01  0.47858689267E+00  0.22311623944E+01  0.00000000000E+00 0. -1.
         -4    1    1    2    0  501 -0.63741336833E+00  0.20839252420E+01  0.72354362883E+00  0.22962046074E+01  0.00000000000E+00 0.  1.
<mgrwt>
<rscale>  0 0.21792293E+01</rscale>
<asrwt>0</asrwt>
<pdfrwt beam="1">0</pdfrwt>
<pdfrwt beam="2">0</pdfrwt>
<totfact> 0.39058522E+12</totfact>
</mgrwt>
</event>
<event>
 4    2  0.1060494E+006  0.2261061E+01  0.7546771E-02  0.2824266E+00
         22   -1    0    0    0    0  0.00000000000E+00  0.00000000000E+00  0.13228870468E+01  0.13228870468E+01  0.00000000000E+00 0. -1.
         22   -1    0    0    0    0 -0.00000000000E+00 -0.00000000000E+00 -0.86368515279E+01  0.86368515279E+01  0.00000000000E+00 0.  1.
          4    1    1    2  501    0 -0.14350892809E+01  0.17472591710E+01 -0.73586976691E+01  0.76982353329E+01  0.00000000000E+00 0.  1.
         -4    1    1    2    0  501  0.14350892809E+01 -0.17472591710E+01  0.44733187985E-01  0.22615032419E+01  0.00000000000E+00 0. -1.
<mgrwt>
<rscale>  0 0.22610608E+01</rscale>
<asrwt>0</asrwt>
<pdfrwt beam="1">0</pdfrwt>
<pdfrwt beam="2">0</pdfrwt>
<totfact> 0.13748165E+12</totfact>
</mgrwt>
</event>
<event>
 4    2  0.1060494E+006  0.2087047E+01  0.7546771E-02  0.2924348E+00
         22   -1    0    0    0    0  0.00000000000E+00  0.00000000000E+00  0.36387468377E+00  0.36387468377E+00  0.00000000000E+00 0.  1.
         22   -1    0    0    0    0 -0.00000000000E+00 -0.00000000000E+00 -0.16030505361E+02  0.16030505361E+02  0.00000000000E+00 0. -1.
          4    1    1    2  501    0 -0.10483028398E+01 -0.18046682214E+01 -0.11958601337E+02  0.12139353861E+02  0.00000000000E+00 0. -1.
         -4    1    1    2    0  501  0.10483028398E+01  0.18046682214E+01 -0.37080293398E+01  0.42550261830E+01  0.00000000000E+00 0.  1.
<mgrwt>
<rscale>  0 0.20870473E+01</rscale>
<asrwt>0</asrwt>
<pdfrwt beam="1">0</pdfrwt>
<pdfrwt beam="2">0</pdfrwt>
<totfact> 0.28009332E+12</totfact>
</mgrwt>
</event>
<event>
 4    2  0.1060494E+006  0.2170030E+01  0.7546771E-02  0.2874696E+00
         22   -1    0    0    0    0  0.00000000000E+00  0.00000000000E+00  0.71856396526E+01  0.71856396526E+01  0.00000000000E+00 0. -1.
         22   -1    0    0    0    0 -0.00000000000E+00 -0.00000000000E+00 -0.89775202641E+00  0.89775202641E+00  0.00000000000E+00 0.  1.
          4    1    1    2  501    0 -0.10998599696E+01  0.18706515399E+01  0.10437300375E+01  0.24079870281E+01  0.00000000000E+00 0.  1.
         -4    1    1    2    0  501  0.10998599696E+01 -0.18706515399E+01  0.52441575887E+01  0.56754046509E+01  0.00000000000E+00 0. -1.
<mgrwt>
<rscale>  0 0.21700298E+01</rscale>
<asrwt>0</asrwt>
<pdfrwt beam="1">0</pdfrwt>
<pdfrwt beam="2">0</pdfrwt>
<totfact> 0.26714083E+12</totfact>
</mgrwt>
</event>
<event>
 4    2  0.1060494E+006  0.2101587E+01  0.7546771E-02  0.2915374E+00
         22   -1    0    0    0    0  0.00000000000E+00  0.00000000000E+00  0.20098684826E+00  0.20098684826E+00  0.00000000000E+00 0. -1.
         22   -1    0    0    0    0 -0.00000000000E+00 -0.00000000000E+00 -0.23315232355E+02  0.23315232355E+02  0.00000000000E+00 0.  1.
          4    1    1    2  501    0  0.15301051319E+01 -0.14406414894E+01 -0.87379552604E+01  0.89871314527E+01  0.00000000000E+00 0.  1.
         -4    1    1    2    0  501 -0.15301051319E+01  0.14406414894E+01 -0.14376290246E+02  0.14529087751E+02  0.00000000000E+00 0. -1.
<mgrwt>
<rscale>  0 0.21015874E+01</rscale>
<asrwt>0</asrwt>
<pdfrwt beam="1">0</pdfrwt>
<pdfrwt beam="2">0</pdfrwt>
<totfact> 0.34150463E+12</totfact>
</mgrwt>
</event>
<event>
 4    2  0.1060494E+006  0.2219220E+01  0.7546771E-02  0.2846954E+00
         22   -1    0    0    0    0  0.00000000000E+00  0.00000000000E+00  0.79505594846E+01  0.79505594846E+01  0.00000000000E+00 0. -1.
         22   -1    0    0    0    0 -0.00000000000E+00 -0.00000000000E+00 -0.88675828763E+00  0.88675828763E+00  0.00000000000E+00 0.  1.
          4    1    1    2  501    0  0.51617687693E+00 -0.21583557667E+01  0.11058618855E+01  0.24794896035E+01  0.00000000000E+00 0. -1.
         -4    1    1    2    0  501 -0.51617687693E+00  0.21583557667E+01  0.59579393115E+01  0.63578281688E+01  0.00000000000E+00 0.  1.
<mgrwt>
<rscale>  0 0.22192202E+01</rscale>
<asrwt>0</asrwt>
<pdfrwt beam="1">0</pdfrwt>
<pdfrwt beam="2">0</pdfrwt>
<totfact> 0.23997271E+12</totfact>
</mgrwt>
</event>
<event>
 4    2  0.1060494E+006  0.2439729E+01  0.7546771E-02  0.2735713E+00
         22   -1    0    0    0    0  0.00000000000E+00  0.00000000000E+00  0.10200838510E+01  0.10200838510E+01  0.00000000000E+00 0. -1.
         22   -1    0    0    0    0 -0.00000000000E+00 -0.00000000000E+00 -0.62803626104E+01  0.62803626104E+01  0.00000000000E+00 0.  1.
          4    1    1    2  501    0 -0.11471866171E+01  0.21531927748E+01 -0.36020858777E+01  0.43505515662E+01  0.00000000000E+00 0.  1.
         -4    1    1    2    0  501  0.11471866171E+01 -0.21531927748E+01 -0.16581928818E+01  0.29498948952E+01  0.00000000000E+00 0. -1.
<mgrwt>
<rscale>  0 0.24397287E+01</rscale>
<asrwt>0</asrwt>
<pdfrwt beam="1">0</pdfrwt>
<pdfrwt beam="2">0</pdfrwt>
<totfact> 0.27121362E+12</totfact>
</mgrwt>
</event>
<event>
 4    2  0.1060494E+006  0.2014875E+01  0.7546771E-02  0.2970757E+00
         22   -1    0    0    0    0  0.00000000000E+00  0.00000000000E+00  0.95215167689E+00  0.95215167689E+00  0.00000000000E+00 0.  1.
         22   -1    0    0    0    0 -0.00000000000E+00 -0.00000000000E+00 -0.16336176744E+02  0.16336176744E+02  0.00000000000E+00 0. -1.
          4    1    1    2  501    0  0.11792615528E+00 -0.20114213952E+01 -0.15122979873E+02  0.15256613086E+02  0.00000000000E+00 0. -1.
         -4    1    1    2    0  501 -0.11792615528E+00  0.20114213952E+01 -0.26104519331E+00  0.20317153344E+01  0.00000000000E+00 0.  1.
<mgrwt>
<rscale>  0 0.20148753E+01</rscale>
<asrwt>0</asrwt>
<pdfrwt beam="1">0</pdfrwt>
<pdfrwt beam="2">0</pdfrwt>
<totfact> 0.92082690E+11</totfact>
</mgrwt>
</event>
<event>
 4    2  0.1060494E+006  0.2318574E+01  0.7546771E-02  0.2794354E+00
         22   -1    0    0    0    0  0.00000000000E+00  0.00000000000E+00  0.21338858239E+01  0.21338858239E+01  0.00000000000E+00 0. -1.
         22   -1    0    0    0    0 -0.00000000000E+00 -0.00000000000E+00 -0.67319655239E+01  0.67319655239E+01  0.00000000000E+00 0.  1.
          4    1    1    2  501    0  0.15535441851E+01  0.17211287762E+01 -0.58057572584E+01  0.62516078846E+01  0.00000000000E+00 0.  1.
         -4    1    1    2    0  501 -0.15535441851E+01 -0.17211287762E+01  0.12076775585E+01  0.26142434631E+01  0.00000000000E+00 0. -1.
<mgrwt>
<rscale>  0 0.23185737E+01</rscale>
<asrwt>0</asrwt>
<pdfrwt beam="1">0</pdfrwt>
<pdfrwt beam="2">0</pdfrwt>
<totfact> 0.10679974E+12</totfact>
</mgrwt>
</event>
<event>
 4    2  0.1060494E+006  0.2242254E+01  0.7546771E-02  0.2834364E+00
         22   -1    0    0    0    0  0.00000000000E+00  0.00000000000E+00  0.13595876210E+01  0.13595876210E+01  0.00000000000E+00 0.  1.
         22   -1    0    0    0    0 -0.00000000000E+00 -0.00000000000E+00 -0.15308556880E+02  0.15308556880E+02  0.00000000000E+00 0. -1.
          4    1    1    2  501    0  0.18735076562E+01 -0.12319379052E+01 -0.14232491759E+02  0.14408036772E+02  0.00000000000E+00 0. -1.
         -4    1    1    2    0  501 -0.18735076562E+01  0.12319379052E+01  0.28352250011E+00  0.22601077293E+01  0.00000000000E+00 0.  1.
<mgrwt>
<rscale>  0 0.22422538E+01</rscale>
<asrwt>0</asrwt>
<pdfrwt beam="1">0</pdfrwt>
<pdfrwt beam="2">0</pdfrwt>
<totfact> 0.66364167E+11</totfact>
</mgrwt>
</event>
<event>
 4    2  0.1060494E+006  0.2201387E+01  0.7546771E-02  0.2856874E+00
         22   -1    0    0    0    0  0.00000000000E+00  0.00000000000E+00  0.83466485145E+00  0.83466485145E+00  0.00000000000E+00 0. -1.
         22   -1    0    0    0    0 -0.00000000000E+00 -0.00000000000E+00 -0.58959530856E+01  0.58959530856E+01  0.00000000000E+00 0.  1.
          4    1    1    2  501    0  0.39185318041E+00  0.21662303456E+01 -0.29462139519E+01  0.36778090592E+01  0.00000000000E+00 0.  1.
         -4    1    1    2    0  501 -0.39185318041E+00 -0.21662303456E+01 -0.21150742822E+01  0.30528088778E+01  0.00000000000E+00 0. -1.
<mgrwt>
<rscale>  0 0.22013866E+01</rscale>
<asrwt>0</asrwt>
<pdfrwt beam="1">0</pdfrwt>
<pdfrwt beam="2">0</pdfrwt>
<totfact> 0.36755088E+12</totfact>
</mgrwt>
</event>
<event>
 4    2  0.1060494E+006  0.2318331E+01  0.7546771E-02  0.2794477E+00
         22   -1    0    0    0    0  0.00000000000E+00  0.00000000000E+00  0.12604533490E+01  0.12604533490E+01  0.00000000000E+00 0. -1.
         22   -1    0    0    0    0 -0.00000000000E+00 -0.00000000000E+00 -0.56858616045E+01  0.56858616045E+01  0.00000000000E+00 0.  1.
          4    1    1    2  501    0 -0.21632762343E+01  0.83360473822E+00 -0.39494823004E+01  0.45796365976E+01  0.00000000000E+00 0.  1.
         -4    1    1    2    0  501  0.21632762343E+01 -0.83360473822E+00 -0.47592595521E+00  0.23666783559E+01  0.00000000000E+00 0. -1.
<mgrwt>
<rscale>  0 0.23183315E+01</rscale>
<asrwt>0</asrwt>
<pdfrwt beam="1">0</pdfrwt>
<pdfrwt beam="2">0</pdfrwt>
<totfact> 0.23962755E+12</totfact>
</mgrwt>
</event>
<event>
 4    2  0.1060494E+006  0.2228669E+01  0.7546771E-02  0.2841759E+00
         22   -1    0    0    0    0  0.00000000000E+00  0.00000000000E+00  0.24487614699E+00  0.24487614699E+00  0.00000000000E+00 0.  1.
         22   -1    0    0    0    0 -0.00000000000E+00 -0.00000000000E+00 -0.50662063200E+02  0.50662063200E+02  0.00000000000E+00 0. -1.
          4    1    1    2  501    0 -0.18476908850E+01  0.12461960501E+01 -0.44918681399E+02  0.44973935839E+02  0.00000000000E+00 0. -1.
         -4    1    1    2    0  501  0.18476908850E+01 -0.12461960501E+01 -0.54985056541E+01  0.59330035084E+01  0.00000000000E+00 0.  1.
<mgrwt>
<rscale>  0 0.22286692E+01</rscale>
<asrwt>0</asrwt>
<pdfrwt beam="1">0</pdfrwt>
<pdfrwt beam="2">0</pdfrwt>
<totfact> 0.10095004E+12</totfact>
</mgrwt>
</event>
<event>
 4    2  0.1060494E+006  0.2817902E+01  0.7546771E-02  0.2583058E+00
         22   -1    0    0    0    0  0.00000000000E+00  0.00000000000E+00  0.37905033664E+01  0.37905033664E+01  0.00000000000E+00 0. -1.
         22   -1    0    0    0    0 -0.00000000000E+00 -0.00000000000E+00 -0.51767039109E+01  0.51767039109E+01  0.00000000000E+00 0.  1.
          4    1    1    2  501    0 -0.87353852680E+00  0.26790856590E+01 -0.41525414500E+01  0.50183832078E+01  0.00000000000E+00 0.  1.
         -4    1    1    2    0  501  0.87353852680E+00 -0.26790856590E+01  0.27663409055E+01  0.39488240695E+01  0.00000000000E+00 0. -1.
<mgrwt>
<rscale>  0 0.28179016E+01</rscale>
<asrwt>0</asrwt>
<pdfrwt beam="1">0</pdfrwt>
<pdfrwt beam="2">0</pdfrwt>
<totfact> 0.74676104E+11</totfact>
</mgrwt>
</event>
<event>
 4    2  0.1060494E+006  0.2978503E+01  0.7546771E-02  0.2529017E+00
         22   -1    0    0    0    0  0.00000000000E+00  0.00000000000E+00  0.29281781569E+00  0.29281781569E+00  0.00000000000E+00 0.  1.
         22   -1    0    0    0    0 -0.00000000000E+00 -0.00000000000E+00 -0.31631332176E+02  0.31631332176E+02  0.00000000000E+00 0. -1.
          4    1    1    2  501    0 -0.16086700516E+01  0.25067229852E+01 -0.18947753929E+02  0.19180429047E+02  0.00000000000E+00 0. -1.
         -4    1    1    2    0  501  0.16086700516E+01 -0.25067229852E+01 -0.12390760432E+02  0.12743720945E+02  0.00000000000E+00 0.  1.
<mgrwt>
<rscale>  0 0.29785029E+01</rscale>
<asrwt>0</asrwt>
<pdfrwt beam="1">0</pdfrwt>
<pdfrwt beam="2">0</pdfrwt>
<totfact> 0.15233591E+12</totfact>
</mgrwt>
</event>
<event>
 4    2  0.1060494E+006  0.2125012E+01  0.7546771E-02  0.2901167E+00
         22   -1    0    0    0    0  0.00000000000E+00  0.00000000000E+00  0.92190906848E+01  0.92190906848E+01  0.00000000000E+00 0. -1.
         22   -1    0    0    0    0 -0.00000000000E+00 -0.00000000000E+00 -0.11037347388E+01  0.11037347388E+01  0.00000000000E+00 0.  1.
          4    1    1    2  501    0 -0.14193354122E+01 -0.15815062044E+01  0.79070601654E+01  0.81876294094E+01  0.00000000000E+00 0.  1.
         -4    1    1    2    0  501  0.14193354122E+01  0.15815062044E+01  0.20829578062E+00  0.21351960142E+01  0.00000000000E+00 0. -1.
<mgrwt>
<rscale>  0 0.21250117E+01</rscale>
<asrwt>0</asrwt>
<pdfrwt beam="1">0</pdfrwt>
<pdfrwt beam="2">0</pdfrwt>
<totfact> 0.15638573E+12</totfact>
</mgrwt>
</event>
<event>
 4    2  0.1060494E+006  0.2363010E+01  0.7546771E-02  0.2772189E+00
         22   -1    0    0    0    0  0.00000000000E+00  0.00000000000E+00  0.25775519534E+00  0.25775519534E+00  0.00000000000E+00 0. -1.
         22   -1    0    0    0    0 -0.00000000000E+00 -0.00000000000E+00 -0.58602136793E+02  0.58602136793E+02  0.00000000000E+00 0.  1.
          4    1    1    2  501    0 -0.48049570140E+00  0.23136422630E+01 -0.58067160951E+01  0.62691122537E+01  0.00000000000E+00 0. -1.
         -4    1    1    2    0  501  0.48049570140E+00 -0.23136422630E+01 -0.52537665502E+02  0.52590779734E+02  0.00000000000E+00 0.  1.
<mgrwt>
<rscale>  0 0.23630101E+01</rscale>
<asrwt>0</asrwt>
<pdfrwt beam="1">0</pdfrwt>
<pdfrwt beam="2">0</pdfrwt>
<totfact> 0.78569172E+11</totfact>
</mgrwt>
</event>
<event>
 4    2  0.1060494E+006  0.4193521E+01  0.7546771E-02  0.2241761E+00
         22   -1    0    0    0    0  0.00000000000E+00  0.00000000000E+00  0.22808792718E+01  0.22808792718E+01  0.00000000000E+00 0.  1.
         22   -1    0    0    0    0 -0.00000000000E+00 -0.00000000000E+00 -0.80049165995E+01  0.80049165995E+01  0.00000000000E+00 0. -1.
          4    1    1    2  501    0 -0.35025110357E+01 -0.23060868999E+01 -0.18749080508E+01  0.45935716544E+01  0.00000000000E+00 0.  1.
         -4    1    1    2    0  501  0.35025110357E+01  0.23060868999E+01 -0.38491292769E+01  0.56922242169E+01  0.00000000000E+00 0. -1.
<mgrwt>
<rscale>  0 0.41935212E+01</rscale>
<asrwt>0</asrwt>
<pdfrwt beam="1">0</pdfrwt>
<pdfrwt beam="2">0</pdfrwt>
<totfact> 0.80338884E+11</totfact>
</mgrwt>
</event>
<event>
 4    2  0.1060494E+006  0.2570311E+01  0.7546771E-02  0.2678321E+00
         22   -1    0    0    0    0  0.00000000000E+00  0.00000000000E+00  0.19158259223E+02  0.19158259223E+02  0.00000000000E+00 0.  1.
         22   -1    0    0    0    0 -0.00000000000E+00 -0.00000000000E+00 -0.46766777494E+00  0.46766777494E+00  0.00000000000E+00 0. -1.
          4    1    1    2  501    0  0.25623567839E+01  0.20205315733E+00  0.43162786896E+01  0.50236201581E+01  0.00000000000E+00 0. -1.
         -4    1    1    2    0  501 -0.25623567839E+01 -0.20205315733E+00  0.14374312758E+02  0.14602306840E+02  0.00000000000E+00 0.  1.
<mgrwt>
<rscale>  0 0.25703108E+01</rscale>
<asrwt>0</asrwt>
<pdfrwt beam="1">0</pdfrwt>
<pdfrwt beam="2">0</pdfrwt>
<totfact> 0.16930865E+12</totfact>
</mgrwt>
</event>
<event>
 4    2  0.1060494E+006  0.2376476E+01  0.7546771E-02  0.2765626E+00
         22   -1    0    0    0    0  0.00000000000E+00  0.00000000000E+00  0.39619190449E+01  0.39619190449E+01  0.00000000000E+00 0.  1.
         22   -1    0    0    0    0 -0.00000000000E+00 -0.00000000000E+00 -0.15156027941E+01  0.15156027941E+01  0.00000000000E+00 0. -1.
          4    1    1    2  501    0  0.19437222551E+01  0.13673264726E+01  0.18910064155E+01  0.30370286715E+01  0.00000000000E+00 0. -1.
         -4    1    1    2    0  501 -0.19437222551E+01 -0.13673264726E+01  0.55530983528E+00  0.24404931676E+01  0.00000000000E+00 0.  1.
<mgrwt>
<rscale>  0 0.23764759E+01</rscale>
<asrwt>0</asrwt>
<pdfrwt beam="1">0</pdfrwt>
<pdfrwt beam="2">0</pdfrwt>
<totfact> 0.29721000E+12</totfact>
</mgrwt>
</event>
<event>
 4    2  0.1060494E+006  0.2692020E+01  0.7546771E-02  0.2629486E+00
         22   -1    0    0    0    0  0.00000000000E+00  0.00000000000E+00  0.51669701660E+00  0.51669701660E+00  0.00000000000E+00 0.  1.
         22   -1    0    0    0    0 -0.00000000000E+00 -0.00000000000E+00 -0.23575069102E+02  0.23575069102E+02  0.00000000000E+00 0. -1.
          4    1    1    2  501    0  0.26052410272E+01 -0.67800510787E+00 -0.19195778596E+02  0.19383624213E+02  0.00000000000E+00 0. -1.
         -4    1    1    2    0  501 -0.26052410272E+01  0.67800510787E+00 -0.38625934893E+01  0.47081419052E+01  0.00000000000E+00 0.  1.
<mgrwt>
<rscale>  0 0.26920200E+01</rscale>
<asrwt>0</asrwt>
<pdfrwt beam="1">0</pdfrwt>
<pdfrwt beam="2">0</pdfrwt>
<totfact> 0.11670985E+12</totfact>
</mgrwt>
</event>
<event>
 4    2  0.1060494E+006  0.2792430E+01  0.7546771E-02  0.2592144E+00
         22   -1    0    0    0    0  0.00000000000E+00  0.00000000000E+00  0.64771684435E+01  0.64771684435E+01  0.00000000000E+00 0. -1.
         22   -1    0    0    0    0 -0.00000000000E+00 -0.00000000000E+00 -0.13535228259E+01  0.13535228259E+01  0.00000000000E+00 0.  1.
          4    1    1    2  501    0 -0.14178835991E+01 -0.24056744523E+01  0.38637328099E+01  0.47671893918E+01  0.00000000000E+00 0. -1.
         -4    1    1    2    0  501  0.14178835991E+01  0.24056744523E+01  0.12599128077E+01  0.30635018776E+01  0.00000000000E+00 0.  1.
<mgrwt>
<rscale>  0 0.27924297E+01</rscale>
<asrwt>0</asrwt>
<pdfrwt beam="1">0</pdfrwt>
<pdfrwt beam="2">0</pdfrwt>
<totfact> 0.18908676E+12</totfact>
</mgrwt>
</event>
<event>
 4    2  0.1060494E+006  0.3578786E+01  0.7546771E-02  0.2365852E+00
         22   -1    0    0    0    0  0.00000000000E+00  0.00000000000E+00  0.73443550107E+01  0.73443550107E+01  0.00000000000E+00 0. -1.
         22   -1    0    0    0    0 -0.00000000000E+00 -0.00000000000E+00 -0.17454900224E+01  0.17454900224E+01  0.00000000000E+00 0.  1.
          4    1    1    2  501    0  0.33907478606E+01  0.11447863085E+01  0.29372734172E+01  0.46298252531E+01  0.00000000000E+00 0.  1.
         -4    1    1    2    0  501 -0.33907478606E+01 -0.11447863085E+01  0.26615915712E+01  0.44600197800E+01  0.00000000000E+00 0. -1.
<mgrwt>
<rscale>  0 0.35787857E+01</rscale>
<asrwt>0</asrwt>
<pdfrwt beam="1">0</pdfrwt>
<pdfrwt beam="2">0</pdfrwt>
<totfact> 0.12141504E+12</totfact>
</mgrwt>
</event>
<event>
 4    2  0.1060494E+006  0.2129919E+01  0.7546771E-02  0.2898229E+00
         22   -1    0    0    0    0  0.00000000000E+00  0.00000000000E+00  0.60900212404E+00  0.60900212404E+00  0.00000000000E+00 0.  1.
         22   -1    0    0    0    0 -0.00000000000E+00 -0.00000000000E+00 -0.81365154340E+01  0.81365154340E+01  0.00000000000E+00 0. -1.
          4    1    1    2  501    0 -0.13165846307E+01 -0.16742638483E+01 -0.50347019089E+01  0.54666971596E+01  0.00000000000E+00 0.  1.
         -4    1    1    2    0  501  0.13165846307E+01  0.16742638483E+01 -0.24928114011E+01  0.32788203984E+01  0.00000000000E+00 0. -1.
<mgrwt>
<rscale>  0 0.21299189E+01</rscale>
<asrwt>0</asrwt>
<pdfrwt beam="1">0</pdfrwt>
<pdfrwt beam="2">0</pdfrwt>
<totfact> 0.35766339E+12</totfact>
</mgrwt>
</event>
<event>
 4    2  0.1060494E+006  0.2720269E+01  0.7546771E-02  0.2618725E+00
         22   -1    0    0    0    0  0.00000000000E+00  0.00000000000E+00  0.17065599936E+02  0.17065599936E+02  0.00000000000E+00 0.  1.
         22   -1    0    0    0    0 -0.00000000000E+00 -0.00000000000E+00 -0.44250066967E+00  0.44250066967E+00  0.00000000000E+00 0. -1.
          4    1    1    2  501    0 -0.14800501148E+00  0.27162401686E+01  0.70709095562E+01  0.75761222330E+01  0.00000000000E+00 0.  1.
         -4    1    1    2    0  501  0.14800501148E+00 -0.27162401686E+01  0.95521897097E+01  0.99319783723E+01  0.00000000000E+00 0. -1.
<mgrwt>
<rscale>  0 0.27202695E+01</rscale>
<asrwt>0</asrwt>
<pdfrwt beam="1">0</pdfrwt>
<pdfrwt beam="2">0</pdfrwt>
<totfact> 0.20802461E+12</totfact>
</mgrwt>
</event>
<event>
 4    2  0.1060494E+006  0.2378552E+01  0.7546771E-02  0.2764621E+00
         22   -1    0    0    0    0  0.00000000000E+00  0.00000000000E+00  0.71281452485E+01  0.71281452485E+01  0.00000000000E+00 0. -1.
         22   -1    0    0    0    0 -0.00000000000E+00 -0.00000000000E+00 -0.82591601073E+00  0.82591601073E+00  0.00000000000E+00 0.  1.
          4    1    1    2  501    0  0.23758547590E+01 -0.11323544202E+00  0.23654772141E+01  0.33545477418E+01  0.00000000000E+00 0.  1.
         -4    1    1    2    0  501 -0.23758547590E+01  0.11323544202E+00  0.39367520237E+01  0.45995135175E+01  0.00000000000E+00 0. -1.
<mgrwt>
<rscale>  0 0.23785517E+01</rscale>
<asrwt>0</asrwt>
<pdfrwt beam="1">0</pdfrwt>
<pdfrwt beam="2">0</pdfrwt>
<totfact> 0.29661069E+12</totfact>
</mgrwt>
</event>
<event>
 4    2  0.1060494E+006  0.2288907E+01  0.7546771E-02  0.2809605E+00
         22   -1    0    0    0    0  0.00000000000E+00  0.00000000000E+00  0.34719964059E+01  0.34719964059E+01  0.00000000000E+00 0.  1.
         22   -1    0    0    0    0 -0.00000000000E+00 -0.00000000000E+00 -0.16465834952E+01  0.16465834952E+01  0.00000000000E+00 0. -1.
          4    1    1    2  501    0  0.97518597502E-01  0.22868284380E+01  0.17279759471E+00  0.22954200466E+01  0.00000000000E+00 0.  1.
         -4    1    1    2    0  501 -0.97518597502E-01 -0.22868284380E+01  0.16526153159E+01  0.28231598545E+01  0.00000000000E+00 0. -1.
<mgrwt>
<rscale>  0 0.22889068E+01</rscale>
<asrwt>0</asrwt>
<pdfrwt beam="1">0</pdfrwt>
<pdfrwt beam="2">0</pdfrwt>
<totfact> 0.31544263E+12</totfact>
</mgrwt>
</event>
<event>
 4    2  0.1060494E+006  0.2633056E+01  0.7546771E-02  0.2652626E+00
         22   -1    0    0    0    0  0.00000000000E+00  0.00000000000E+00  0.11684672445E+01  0.11684672445E+01  0.00000000000E+00 0. -1.
         22   -1    0    0    0    0 -0.00000000000E+00 -0.00000000000E+00 -0.25668683503E+02  0.25668683503E+02  0.00000000000E+00 0.  1.
          4    1    1    2  501    0 -0.25909191000E+01 -0.46917083088E+00 -0.24016039257E+02  0.24159948772E+02  0.00000000000E+00 0.  1.
         -4    1    1    2    0  501  0.25909191000E+01  0.46917083088E+00 -0.48417700152E+00  0.26772019759E+01  0.00000000000E+00 0. -1.
<mgrwt>
<rscale>  0 0.26330558E+01</rscale>
<asrwt>0</asrwt>
<pdfrwt beam="1">0</pdfrwt>
<pdfrwt beam="2">0</pdfrwt>
<totfact> 0.41451400E+11</totfact>
</mgrwt>
</event>
<event>
 4    2  0.1060494E+006  0.2224349E+01  0.7546771E-02  0.2844129E+00
         22   -1    0    0    0    0  0.00000000000E+00  0.00000000000E+00  0.13603284781E+01  0.13603284781E+01  0.00000000000E+00 0.  1.
         22   -1    0    0    0    0 -0.00000000000E+00 -0.00000000000E+00 -0.48336484952E+01  0.48336484952E+01  0.00000000000E+00 0. -1.
          4    1    1    2  501    0  0.11632895996E+01 -0.18959129585E+01 -0.32774974176E+01  0.39610248625E+01  0.00000000000E+00 0. -1.
         -4    1    1    2    0  501 -0.11632895996E+01  0.18959129585E+01 -0.19582259952E+00  0.22329521108E+01  0.00000000000E+00 0.  1.
<mgrwt>
<rscale>  0 0.22243490E+01</rscale>
<asrwt>0</asrwt>
<pdfrwt beam="1">0</pdfrwt>
<pdfrwt beam="2">0</pdfrwt>
<totfact> 0.26615656E+12</totfact>
</mgrwt>
</event>
<event>
 4    2  0.1060494E+006  0.2312440E+01  0.7546771E-02  0.2797477E+00
         22   -1    0    0    0    0  0.00000000000E+00  0.00000000000E+00  0.65814403525E+00  0.65814403525E+00  0.00000000000E+00 0.  1.
         22   -1    0    0    0    0 -0.00000000000E+00 -0.00000000000E+00 -0.82573614995E+01  0.82573614995E+01  0.00000000000E+00 0. -1.
          4    1    1    2  501    0  0.99480674011E-01  0.23102988352E+01 -0.32350829750E+01  0.39765737725E+01  0.00000000000E+00 0.  1.
         -4    1    1    2    0  501 -0.99480674011E-01 -0.23102988352E+01 -0.43641344892E+01  0.49389317623E+01  0.00000000000E+00 0. -1.
<mgrwt>
<rscale>  0 0.23124396E+01</rscale>
<asrwt>0</asrwt>
<pdfrwt beam="1">0</pdfrwt>
<pdfrwt beam="2">0</pdfrwt>
<totfact> 0.32180732E+12</totfact>
</mgrwt>
</event>
<event>
 4    2  0.1060494E+006  0.2066557E+01  0.7546771E-02  0.2937203E+00
         22   -1    0    0    0    0  0.00000000000E+00  0.00000000000E+00  0.31334297079E+01  0.31334297079E+01  0.00000000000E+00 0.  1.
         22   -1    0    0    0    0 -0.00000000000E+00 -0.00000000000E+00 -0.14240097593E+01  0.14240097593E+01  0.00000000000E+00 0. -1.
          4    1    1    2  501    0 -0.61474026220E+00 -0.19730060847E+01  0.38279032843E+00  0.21017105023E+01  0.00000000000E+00 0. -1.
         -4    1    1    2    0  501  0.61474026220E+00  0.19730060847E+01  0.13266296201E+01  0.24557289649E+01  0.00000000000E+00 0.  1.
<mgrwt>
<rscale>  0 0.20665572E+01</rscale>
<asrwt>0</asrwt>
<pdfrwt beam="1">0</pdfrwt>
<pdfrwt beam="2">0</pdfrwt>
<totfact> 0.42041335E+12</totfact>
</mgrwt>
</event>
<event>
 4    2  0.1060494E+006  0.2348938E+01  0.7546771E-02  0.2779122E+00
         22   -1    0    0    0    0  0.00000000000E+00  0.00000000000E+00  0.72122999286E+02  0.72122999286E+02  0.00000000000E+00 0.  1.
         22   -1    0    0    0    0 -0.00000000000E+00 -0.00000000000E+00 -0.91302487529E-01  0.91302487529E-01  0.00000000000E+00 0. -1.
          4    1    1    2  501    0  0.14073165592E+01 -0.18806830985E+01  0.50553660631E+02  0.50608202023E+02  0.00000000000E+00 0.  1.
         -4    1    1    2    0  501 -0.14073165592E+01  0.18806830985E+01  0.21478036167E+02  0.21606099750E+02  0.00000000000E+00 0. -1.
<mgrwt>
<rscale>  0 0.23489378E+01</rscale>
<asrwt>0</asrwt>
<pdfrwt beam="1">0</pdfrwt>
<pdfrwt beam="2">0</pdfrwt>
<totfact> 0.18838403E+12</totfact>
</mgrwt>
</event>
<event>
 4    2  0.1060494E+006  0.2289375E+01  0.7546771E-02  0.2809362E+00
         22   -1    0    0    0    0  0.00000000000E+00  0.00000000000E+00  0.10977496489E+01  0.10977496489E+01  0.00000000000E+00 0. -1.
         22   -1    0    0    0    0 -0.00000000000E+00 -0.00000000000E+00 -0.88451073903E+01  0.88451073903E+01  0.00000000000E+00 0.  1.
          4    1    1    2  501    0 -0.20464892548E+01  0.10262162205E+01 -0.50113441594E+00  0.23435813841E+01  0.00000000000E+00 0. -1.
         -4    1    1    2    0  501  0.20464892548E+01 -0.10262162205E+01 -0.72462233254E+01  0.75992756551E+01  0.00000000000E+00 0.  1.
<mgrwt>
<rscale>  0 0.22893750E+01</rscale>
<asrwt>0</asrwt>
<pdfrwt beam="1">0</pdfrwt>
<pdfrwt beam="2">0</pdfrwt>
<totfact> 0.16542899E+12</totfact>
</mgrwt>
</event>
<event>
 4    2  0.1060494E+006  0.2194430E+01  0.7546771E-02  0.2860786E+00
         22   -1    0    0    0    0  0.00000000000E+00  0.00000000000E+00  0.10499864320E+00  0.10499864320E+00  0.00000000000E+00 0. -1.
         22   -1    0    0    0    0 -0.00000000000E+00 -0.00000000000E+00 -0.46071906235E+02  0.46071906235E+02  0.00000000000E+00 0.  1.
          4    1    1    2  501    0 -0.52144864805E+00  0.21315760243E+01 -0.21427750360E+02  0.21539823827E+02  0.00000000000E+00 0. -1.
         -4    1    1    2    0  501  0.52144864805E+00 -0.21315760243E+01 -0.24539157232E+02  0.24637081051E+02  0.00000000000E+00 0.  1.
<mgrwt>
<rscale>  0 0.21944305E+01</rscale>
<asrwt>0</asrwt>
<pdfrwt beam="1">0</pdfrwt>
<pdfrwt beam="2">0</pdfrwt>
<totfact> 0.29349250E+12</totfact>
</mgrwt>
</event>
<event>
 4    2  0.1060494E+006  0.3231894E+01  0.7546771E-02  0.2453617E+00
         22   -1    0    0    0    0  0.00000000000E+00  0.00000000000E+00  0.22699481853E+01  0.22699481853E+01  0.00000000000E+00 0.  1.
         22   -1    0    0    0    0 -0.00000000000E+00 -0.00000000000E+00 -0.64358134803E+01  0.64358134803E+01  0.00000000000E+00 0. -1.
          4    1    1    2  501    0 -0.28769599219E+01 -0.14724936389E+01 -0.44068112191E+01  0.54648989954E+01  0.00000000000E+00 0. -1.
         -4    1    1    2    0  501  0.28769599219E+01  0.14724936389E+01  0.24094592408E+00  0.32408626702E+01  0.00000000000E+00 0.  1.
<mgrwt>
<rscale>  0 0.32318935E+01</rscale>
<asrwt>0</asrwt>
<pdfrwt beam="1">0</pdfrwt>
<pdfrwt beam="2">0</pdfrwt>
<totfact> 0.10490080E+12</totfact>
</mgrwt>
</event>
<event>
 4    2  0.1060494E+006  0.2384106E+01  0.7546771E-02  0.2761939E+00
         22   -1    0    0    0    0  0.00000000000E+00  0.00000000000E+00  0.18460691576E+00  0.18460691576E+00  0.00000000000E+00 0.  1.
         22   -1    0    0    0    0 -0.00000000000E+00 -0.00000000000E+00 -0.30820357554E+02  0.30820357554E+02  0.00000000000E+00 0. -1.
          4    1    1    2  501    0  0.16759927776E+01 -0.16955854285E+01 -0.14827653958E+02  0.15018098536E+02  0.00000000000E+00 0. -1.
         -4    1    1    2    0  501 -0.16759927776E+01  0.16955854285E+01 -0.15808096680E+02  0.15986865934E+02  0.00000000000E+00 0.  1.
<mgrwt>
<rscale>  0 0.23841061E+01</rscale>
<asrwt>0</asrwt>
<pdfrwt beam="1">0</pdfrwt>
<pdfrwt beam="2">0</pdfrwt>
<totfact> 0.26370145E+12</totfact>
</mgrwt>
</event>
<event>
 4    2  0.1060494E+006  0.2885545E+01  0.7546771E-02  0.2559634E+00
         22   -1    0    0    0    0  0.00000000000E+00  0.00000000000E+00  0.16687372265E+01  0.16687372265E+01  0.00000000000E+00 0.  1.
         22   -1    0    0    0    0 -0.00000000000E+00 -0.00000000000E+00 -0.74978255154E+01  0.74978255154E+01  0.00000000000E+00 0. -1.
          4    1    1    2  501    0 -0.26427013886E+01  0.11586632127E+01 -0.55654242180E+01  0.62689965541E+01  0.00000000000E+00 0. -1.
         -4    1    1    2    0  501  0.26427013886E+01 -0.11586632127E+01 -0.26366407087E+00  0.28975661877E+01  0.00000000000E+00 0.  1.
<mgrwt>
<rscale>  0 0.28855452E+01</rscale>
<asrwt>0</asrwt>
<pdfrwt beam="1">0</pdfrwt>
<pdfrwt beam="2">0</pdfrwt>
<totfact> 0.12474822E+12</totfact>
</mgrwt>
</event>
<event>
 4    2  0.1060494E+006  0.2022726E+01  0.7546771E-02  0.2965552E+00
         22   -1    0    0    0    0  0.00000000000E+00  0.00000000000E+00  0.34769719464E+02  0.34769719464E+02  0.00000000000E+00 0. -1.
         22   -1    0    0    0    0 -0.00000000000E+00 -0.00000000000E+00 -0.12671555620E+00  0.12671555620E+00  0.00000000000E+00 0.  1.
          4    1    1    2  501    0 -0.77643540998E-01 -0.20212356952E+01  0.12660214992E+02  0.12820782577E+02  0.00000000000E+00 0. -1.
         -4    1    1    2    0  501  0.77643540998E-01  0.20212356952E+01  0.21982788917E+02  0.22075652444E+02  0.00000000000E+00 0.  1.
<mgrwt>
<rscale>  0 0.20227264E+01</rscale>
<asrwt>0</asrwt>
<pdfrwt beam="1">0</pdfrwt>
<pdfrwt beam="2">0</pdfrwt>
<totfact> 0.34334046E+12</totfact>
</mgrwt>
</event>
<event>
 4    2  0.1060494E+006  0.6684038E+01  0.7546771E-02  0.1963278E+00
         22   -1    0    0    0    0  0.00000000000E+00  0.00000000000E+00  0.10031311646E+02  0.10031311646E+02  0.00000000000E+00 0.  1.
         22   -1    0    0    0    0 -0.00000000000E+00 -0.00000000000E+00 -0.44537385077E+01  0.44537385077E+01  0.00000000000E+00 0. -1.
          4    1    1    2  501    0 -0.33414326573E+01  0.57888854192E+01  0.27652368209E+01  0.72334570764E+01  0.00000000000E+00 0. -1.
         -4    1    1    2    0  501  0.33414326573E+01 -0.57888854192E+01  0.28123363176E+01  0.72515930776E+01  0.00000000000E+00 0.  1.
<mgrwt>
<rscale>  0 0.66840382E+01</rscale>
<asrwt>0</asrwt>
<pdfrwt beam="1">0</pdfrwt>
<pdfrwt beam="2">0</pdfrwt>
<totfact> 0.27968094E+11</totfact>
</mgrwt>
</event>
<event>
 4    2  0.1060494E+006  0.2282243E+01  0.7546771E-02  0.2813083E+00
         22   -1    0    0    0    0  0.00000000000E+00  0.00000000000E+00  0.20252659356E+01  0.20252659356E+01  0.00000000000E+00 0. -1.
         22   -1    0    0    0    0 -0.00000000000E+00 -0.00000000000E+00 -0.46200876861E+01  0.46200876861E+01  0.00000000000E+00 0.  1.
          4    1    1    2  501    0 -0.21142597534E+01 -0.85938304339E+00 -0.35097699242E+01  0.41865401516E+01  0.00000000000E+00 0.  1.
         -4    1    1    2    0  501  0.21142597534E+01  0.85938304339E+00  0.91494817373E+00  0.24588134701E+01  0.00000000000E+00 0. -1.
<mgrwt>
<rscale>  0 0.22822431E+01</rscale>
<asrwt>0</asrwt>
<pdfrwt beam="1">0</pdfrwt>
<pdfrwt beam="2">0</pdfrwt>
<totfact> 0.17744172E+12</totfact>
</mgrwt>
</event>
<event>
 4    2  0.1060494E+006  0.2964854E+01  0.7546771E-02  0.2533405E+00
         22   -1    0    0    0    0  0.00000000000E+00  0.00000000000E+00  0.38392622965E+00  0.38392622965E+00  0.00000000000E+00 0.  1.
         22   -1    0    0    0    0 -0.00000000000E+00 -0.00000000000E+00 -0.24596697849E+02  0.24596697849E+02  0.00000000000E+00 0. -1.
          4    1    1    2  501    0 -0.29646956323E+01 -0.30611736943E-01 -0.15390772980E+02  0.15673743975E+02  0.00000000000E+00 0. -1.
         -4    1    1    2    0  501  0.29646956323E+01  0.30611736943E-01 -0.88219986385E+01  0.93068801029E+01  0.00000000000E+00 0.  1.
<mgrwt>
<rscale>  0 0.29648537E+01</rscale>
<asrwt>0</asrwt>
<pdfrwt beam="1">0</pdfrwt>
<pdfrwt beam="2">0</pdfrwt>
<totfact> 0.15464444E+12</totfact>
</mgrwt>
</event>
<event>
 4    2  0.1060494E+006  0.2105610E+01  0.7546771E-02  0.2912912E+00
         22   -1    0    0    0    0  0.00000000000E+00  0.00000000000E+00  0.26735001497E+02  0.26735001497E+02  0.00000000000E+00 0.  1.
         22   -1    0    0    0    0 -0.00000000000E+00 -0.00000000000E+00 -0.18761494829E+00  0.18761494829E+00  0.00000000000E+00 0. -1.
          4    1    1    2  501    0 -0.85896375757E+00  0.19224401705E+01  0.86871713549E+01  0.89387102591E+01  0.00000000000E+00 0. -1.
         -4    1    1    2    0  501  0.85896375757E+00 -0.19224401705E+01  0.17860215194E+02  0.17983906186E+02  0.00000000000E+00 0.  1.
<mgrwt>
<rscale>  0 0.21056104E+01</rscale>
<asrwt>0</asrwt>
<pdfrwt beam="1">0</pdfrwt>
<pdfrwt beam="2">0</pdfrwt>
<totfact> 0.31029026E+12</totfact>
</mgrwt>
</event>
<event>
 4    2  0.1060494E+006  0.3524619E+01  0.7546771E-02  0.2378558E+00
         22   -1    0    0    0    0  0.00000000000E+00  0.00000000000E+00  0.22600424169E+02  0.22600424169E+02  0.00000000000E+00 0.  1.
         22   -1    0    0    0    0 -0.00000000000E+00 -0.00000000000E+00 -0.60969483474E+00  0.60969483474E+00  0.00000000000E+00 0. -1.
          4    1    1    2  501    0 -0.50032336441E+00 -0.34889272542E+01  0.73542805237E+01  0.81552669407E+01  0.00000000000E+00 0. -1.
         -4    1    1    2    0  501  0.50032336441E+00  0.34889272542E+01  0.14636448811E+02  0.15054852063E+02  0.00000000000E+00 0.  1.
<mgrwt>
<rscale>  0 0.35246187E+01</rscale>
<asrwt>0</asrwt>
<pdfrwt beam="1">0</pdfrwt>
<pdfrwt beam="2">0</pdfrwt>
<totfact> 0.10205608E+12</totfact>
</mgrwt>
</event>
<event>
 4    2  0.1060494E+006  0.2196682E+01  0.7546771E-02  0.2859517E+00
         22   -1    0    0    0    0  0.00000000000E+00  0.00000000000E+00  0.49501349586E+00  0.49501349586E+00  0.00000000000E+00 0.  1.
         22   -1    0    0    0    0 -0.00000000000E+00 -0.00000000000E+00 -0.10184508323E+02  0.10184508323E+02  0.00000000000E+00 0. -1.
          4    1    1    2  501    0  0.70371352357E+00  0.20809133718E+01 -0.59501648418E+01  0.63427024862E+01  0.00000000000E+00 0. -1.
         -4    1    1    2    0  501 -0.70371352357E+00 -0.20809133718E+01 -0.37393299850E+01  0.43368193323E+01  0.00000000000E+00 0.  1.
<mgrwt>
<rscale>  0 0.21966823E+01</rscale>
<asrwt>0</asrwt>
<pdfrwt beam="1">0</pdfrwt>
<pdfrwt beam="2">0</pdfrwt>
<totfact> 0.34481731E+12</totfact>
</mgrwt>
</event>
<event>
 4    2  0.1060494E+006  0.3340774E+01  0.7546771E-02  0.2424351E+00
         22   -1    0    0    0    0  0.00000000000E+00  0.00000000000E+00  0.74951236392E+02  0.74951236392E+02  0.00000000000E+00 0.  1.
         22   -1    0    0    0    0 -0.00000000000E+00 -0.00000000000E+00 -0.28542600849E+00  0.28542600849E+00  0.00000000000E+00 0. -1.
          4    1    1    2  501    0  0.33252859541E+01 -0.32131836353E+00  0.11316389174E+02  0.11799213368E+02  0.00000000000E+00 0. -1.
         -4    1    1    2    0  501 -0.33252859541E+01  0.32131836353E+00  0.63349421209E+02  0.63437449032E+02  0.00000000000E+00 0.  1.
<mgrwt>
<rscale>  0 0.33407742E+01</rscale>
<asrwt>0</asrwt>
<pdfrwt beam="1">0</pdfrwt>
<pdfrwt beam="2">0</pdfrwt>
<totfact> 0.50279254E+11</totfact>
</mgrwt>
</event>
<event>
 4    2  0.1060494E+006  0.2259759E+01  0.7546771E-02  0.2824960E+00
         22   -1    0    0    0    0  0.00000000000E+00  0.00000000000E+00  0.72854839585E+00  0.72854839585E+00  0.00000000000E+00 0.  1.
         22   -1    0    0    0    0 -0.00000000000E+00 -0.00000000000E+00 -0.92374832922E+01  0.92374832922E+01  0.00000000000E+00 0. -1.
          4    1    1    2  501    0  0.16928894923E+01  0.14968750570E+01 -0.67018669658E+01  0.70725900911E+01  0.00000000000E+00 0. -1.
         -4    1    1    2    0  501 -0.16928894923E+01 -0.14968750570E+01 -0.18070679306E+01  0.28934415970E+01  0.00000000000E+00 0.  1.
<mgrwt>
<rscale>  0 0.22597588E+01</rscale>
<asrwt>0</asrwt>
<pdfrwt beam="1">0</pdfrwt>
<pdfrwt beam="2">0</pdfrwt>
<totfact> 0.25049474E+12</totfact>
</mgrwt>
</event>
<event>
 4    2  0.1060494E+006  0.2252615E+01  0.7546771E-02  0.2828781E+00
         22   -1    0    0    0    0  0.00000000000E+00  0.00000000000E+00  0.14735745078E+01  0.14735745078E+01  0.00000000000E+00 0. -1.
         22   -1    0    0    0    0 -0.00000000000E+00 -0.00000000000E+00 -0.34805661781E+01  0.34805661781E+01  0.00000000000E+00 0.  1.
          4    1    1    2  501    0  0.20718982840E+01 -0.88403242592E+00 -0.74792295523E+00  0.23735341953E+01  0.00000000000E+00 0. -1.
         -4    1    1    2    0  501 -0.20718982840E+01  0.88403242592E+00 -0.12590687151E+01  0.25806064905E+01  0.00000000000E+00 0.  1.
<mgrwt>
<rscale>  0 0.22526153E+01</rscale>
<asrwt>0</asrwt>
<pdfrwt beam="1">0</pdfrwt>
<pdfrwt beam="2">0</pdfrwt>
<totfact> 0.35741944E+12</totfact>
</mgrwt>
</event>
<event>
 4    2  0.1060494E+006  0.2477483E+01  0.7546771E-02  0.2718541E+00
         22   -1    0    0    0    0  0.00000000000E+00  0.00000000000E+00  0.23107367749E+00  0.23107367749E+00  0.00000000000E+00 0. -1.
         22   -1    0    0    0    0 -0.00000000000E+00 -0.00000000000E+00 -0.32032664388E+02  0.32032664388E+02  0.00000000000E+00 0.  1.
          4    1    1    2  501    0  0.99241992168E+00  0.22700272272E+01 -0.22567079437E+02  0.22702664936E+02  0.00000000000E+00 0.  1.
         -4    1    1    2    0  501 -0.99241992168E+00 -0.22700272272E+01 -0.92345112740E+01  0.95610731293E+01  0.00000000000E+00 0. -1.
<mgrwt>
<rscale>  0 0.24774828E+01</rscale>
<asrwt>0</asrwt>
<pdfrwt beam="1">0</pdfrwt>
<pdfrwt beam="2">0</pdfrwt>
<totfact> 0.19538567E+12</totfact>
</mgrwt>
</event>
<event>
 4    2  0.1060494E+006  0.2422979E+01  0.7546771E-02  0.2743491E+00
         22   -1    0    0    0    0  0.00000000000E+00  0.00000000000E+00  0.61175918841E+01  0.61175918841E+01  0.00000000000E+00 0. -1.
         22   -1    0    0    0    0 -0.00000000000E+00 -0.00000000000E+00 -0.10034390717E+01  0.10034390717E+01  0.00000000000E+00 0.  1.
          4    1    1    2  501    0  0.24166407260E+01 -0.17514752214E+00  0.33007524003E+01  0.40946056540E+01  0.00000000000E+00 0. -1.
         -4    1    1    2    0  501 -0.24166407260E+01  0.17514752214E+00  0.18134004121E+01  0.30264253019E+01  0.00000000000E+00 0.  1.
<mgrwt>
<rscale>  0 0.24229794E+01</rscale>
<asrwt>0</asrwt>
<pdfrwt beam="1">0</pdfrwt>
<pdfrwt beam="2">0</pdfrwt>
<totfact> 0.28514163E+12</totfact>
</mgrwt>
</event>
<event>
 4    2  0.1060494E+006  0.2079344E+01  0.7546771E-02  0.2929152E+00
         22   -1    0    0    0    0  0.00000000000E+00  0.00000000000E+00  0.35333407042E+02  0.35333407042E+02  0.00000000000E+00 0.  1.
         22   -1    0    0    0    0 -0.00000000000E+00 -0.00000000000E+00 -0.30248766422E+00  0.30248766422E+00  0.00000000000E+00 0. -1.
          4    1    1    2  501    0 -0.58125084880E+00  0.19964520259E+01  0.37660334355E+01  0.43019392230E+01  0.00000000000E+00 0. -1.
         -4    1    1    2    0  501  0.58125084880E+00 -0.19964520259E+01  0.31264885943E+02  0.31333955484E+02  0.00000000000E+00 0.  1.
<mgrwt>
<rscale>  0 0.20793444E+01</rscale>
<asrwt>0</asrwt>
<pdfrwt beam="1">0</pdfrwt>
<pdfrwt beam="2">0</pdfrwt>
<totfact> 0.12743070E+12</totfact>
</mgrwt>
</event>
<event>
 4    2  0.1060494E+006  0.2049326E+01  0.7546771E-02  0.2948206E+00
         22   -1    0    0    0    0  0.00000000000E+00  0.00000000000E+00  0.46503327940E+00  0.46503327940E+00  0.00000000000E+00 0.  1.
         22   -1    0    0    0    0 -0.00000000000E+00 -0.00000000000E+00 -0.13641750220E+02  0.13641750220E+02  0.00000000000E+00 0. -1.
          4    1    1    2  501    0 -0.16810605527E+01 -0.11720807630E+01 -0.10688949838E+02  0.10883629291E+02  0.00000000000E+00 0.  1.
         -4    1    1    2    0  501  0.16810605527E+01  0.11720807630E+01 -0.24877671028E+01  0.32231542089E+01  0.00000000000E+00 0. -1.
<mgrwt>
<rscale>  0 0.20493262E+01</rscale>
<asrwt>0</asrwt>
<pdfrwt beam="1">0</pdfrwt>
<pdfrwt beam="2">0</pdfrwt>
<totfact> 0.25913223E+12</totfact>
</mgrwt>
</event>
<event>
 4    2  0.1060494E+006  0.2390240E+01  0.7546771E-02  0.2758990E+00
         22   -1    0    0    0    0  0.00000000000E+00  0.00000000000E+00  0.30915217827E+01  0.30915217827E+01  0.00000000000E+00 0.  1.
         22   -1    0    0    0    0 -0.00000000000E+00 -0.00000000000E+00 -0.18505879545E+01  0.18505879545E+01  0.00000000000E+00 0. -1.
          4    1    1    2  501    0 -0.10582042226E+01  0.21432342242E+01  0.52873706024E+00  0.24480220578E+01  0.00000000000E+00 0.  1.
         -4    1    1    2    0  501  0.10582042226E+01 -0.21432342242E+01  0.71219676793E+00  0.24940876794E+01  0.00000000000E+00 0. -1.
<mgrwt>
<rscale>  0 0.23902404E+01</rscale>
<asrwt>0</asrwt>
<pdfrwt beam="1">0</pdfrwt>
<pdfrwt beam="2">0</pdfrwt>
<totfact> 0.31578614E+12</totfact>
</mgrwt>
</event>
<event>
 4    2  0.1060494E+006  0.3302538E+01  0.7546771E-02  0.2434434E+00
         22   -1    0    0    0    0  0.00000000000E+00  0.00000000000E+00  0.56218145168E+01  0.56218145168E+01  0.00000000000E+00 0. -1.
         22   -1    0    0    0    0 -0.00000000000E+00 -0.00000000000E+00 -0.76814730652E+01  0.76814730652E+01  0.00000000000E+00 0.  1.
          4    1    1    2  501    0  0.17801373173E+01  0.27817026212E+01 -0.67804595411E+01  0.75419752008E+01  0.00000000000E+00 0.  1.
         -4    1    1    2    0  501 -0.17801373173E+01 -0.27817026212E+01  0.47208009927E+01  0.57613123812E+01  0.00000000000E+00 0. -1.
<mgrwt>
<rscale>  0 0.33025382E+01</rscale>
<asrwt>0</asrwt>
<pdfrwt beam="1">0</pdfrwt>
<pdfrwt beam="2">0</pdfrwt>
<totfact> 0.29282130E+11</totfact>
</mgrwt>
</event>
<event>
 4    2  0.1060494E+006  0.3047666E+01  0.7546771E-02  0.2507329E+00
         22   -1    0    0    0    0  0.00000000000E+00  0.00000000000E+00  0.17058018592E+01  0.17058018592E+01  0.00000000000E+00 0.  1.
         22   -1    0    0    0    0 -0.00000000000E+00 -0.00000000000E+00 -0.60686912047E+01  0.60686912047E+01  0.00000000000E+00 0. -1.
          4    1    1    2  501    0  0.93210188575E+00 -0.29016292622E+01 -0.34275180494E+01  0.45865178818E+01  0.00000000000E+00 0.  1.
         -4    1    1    2    0  501 -0.93210188575E+00  0.29016292622E+01 -0.93537129606E+00  0.31879751822E+01  0.00000000000E+00 0. -1.
<mgrwt>
<rscale>  0 0.30476657E+01</rscale>
<asrwt>0</asrwt>
<pdfrwt beam="1">0</pdfrwt>
<pdfrwt beam="2">0</pdfrwt>
<totfact> 0.15658820E+12</totfact>
</mgrwt>
</event>
<event>
 4    2  0.1060494E+006  0.2458037E+01  0.7546771E-02  0.2727324E+00
         22   -1    0    0    0    0  0.00000000000E+00  0.00000000000E+00  0.42442790160E+01  0.42442790160E+01  0.00000000000E+00 0. -1.
         22   -1    0    0    0    0 -0.00000000000E+00 -0.00000000000E+00 -0.14259057628E+01  0.14259057628E+01  0.00000000000E+00 0.  1.
          4    1    1    2  501    0  0.24156012596E+01  0.45476841782E+00  0.12939528929E+01  0.27778153013E+01  0.00000000000E+00 0.  1.
         -4    1    1    2    0  501 -0.24156012596E+01 -0.45476841782E+00  0.15244203603E+01  0.28923694774E+01  0.00000000000E+00 0. -1.
<mgrwt>
<rscale>  0 0.24580366E+01</rscale>
<asrwt>0</asrwt>
<pdfrwt beam="1">0</pdfrwt>
<pdfrwt beam="2">0</pdfrwt>
<totfact> 0.29399114E+12</totfact>
</mgrwt>
</event>
<event>
 4    2  0.1060494E+006  0.2840813E+01  0.7546771E-02  0.2575011E+00
         22   -1    0    0    0    0  0.00000000000E+00  0.00000000000E+00  0.22338414826E+01  0.22338414826E+01  0.00000000000E+00 0.  1.
         22   -1    0    0    0    0 -0.00000000000E+00 -0.00000000000E+00 -0.67391982536E+01  0.67391982536E+01  0.00000000000E+00 0. -1.
          4    1    1    2  501    0  0.22459864499E+01 -0.17394720428E+01  0.80318534264E+00  0.29521728973E+01  0.00000000000E+00 0.  1.
         -4    1    1    2    0  501 -0.22459864499E+01  0.17394720428E+01 -0.53085421136E+01  0.60208668390E+01  0.00000000000E+00 0. -1.
<mgrwt>
<rscale>  0 0.28408129E+01</rscale>
<asrwt>0</asrwt>
<pdfrwt beam="1">0</pdfrwt>
<pdfrwt beam="2">0</pdfrwt>
<totfact> 0.10115194E+12</totfact>
</mgrwt>
</event>
<event>
 4    2  0.1060494E+006  0.2053883E+01  0.7546771E-02  0.2945279E+00
         22   -1    0    0    0    0  0.00000000000E+00  0.00000000000E+00  0.29123856636E+01  0.29123856636E+01  0.00000000000E+00 0.  1.
         22   -1    0    0    0    0 -0.00000000000E+00 -0.00000000000E+00 -0.14583832616E+01  0.14583832616E+01  0.00000000000E+00 0. -1.
          4    1    1    2  501    0 -0.18895305940E+01  0.80505162378E+00  0.54660776004E+00  0.21253738556E+01  0.00000000000E+00 0.  1.
         -4    1    1    2    0  501  0.18895305940E+01 -0.80505162378E+00  0.90739464195E+00  0.22453950696E+01  0.00000000000E+00 0. -1.
<mgrwt>
<rscale>  0 0.20538827E+01</rscale>
<asrwt>0</asrwt>
<pdfrwt beam="1">0</pdfrwt>
<pdfrwt beam="2">0</pdfrwt>
<totfact> 0.44553956E+12</totfact>
</mgrwt>
</event>
<event>
 4    2  0.1060494E+006  0.2017360E+01  0.7546771E-02  0.2969105E+00
         22   -1    0    0    0    0  0.00000000000E+00  0.00000000000E+00  0.11339499644E+02  0.11339499644E+02  0.00000000000E+00 0.  1.
         22   -1    0    0    0    0 -0.00000000000E+00 -0.00000000000E+00 -0.36633711093E+00  0.36633711093E+00  0.00000000000E+00 0. -1.
          4    1    1    2  501    0  0.14843489619E+00 -0.20118921806E+01  0.63205365865E+01  0.66346760137E+01  0.00000000000E+00 0.  1.
         -4    1    1    2    0  501 -0.14843489619E+00  0.20118921806E+01  0.46526259461E+01  0.50711607408E+01  0.00000000000E+00 0. -1.
<mgrwt>
<rscale>  0 0.20173604E+01</rscale>
<asrwt>0</asrwt>
<pdfrwt beam="1">0</pdfrwt>
<pdfrwt beam="2">0</pdfrwt>
<totfact> 0.42482754E+12</totfact>
</mgrwt>
</event>
<event>
 4    2  0.1060494E+006  0.2517018E+01  0.7546771E-02  0.2701075E+00
         22   -1    0    0    0    0  0.00000000000E+00  0.00000000000E+00  0.10435686889E+02  0.10435686889E+02  0.00000000000E+00 0.  1.
         22   -1    0    0    0    0 -0.00000000000E+00 -0.00000000000E+00 -0.14932462721E+01  0.14932462721E+01  0.00000000000E+00 0. -1.
          4    1    1    2  501    0 -0.24915210674E+01  0.35735533165E+00 -0.12352605858E+00  0.25200473705E+01  0.00000000000E+00 0. -1.
         -4    1    1    2    0  501  0.24915210674E+01 -0.35735533165E+00  0.90659666754E+01  0.94088857906E+01  0.00000000000E+00 0.  1.
<mgrwt>
<rscale>  0 0.25170181E+01</rscale>
<asrwt>0</asrwt>
<pdfrwt beam="1">0</pdfrwt>
<pdfrwt beam="2">0</pdfrwt>
<totfact> 0.95168464E+11</totfact>
</mgrwt>
</event>
<event>
 4    2  0.1060494E+006  0.2719795E+01  0.7546771E-02  0.2618904E+00
         22   -1    0    0    0    0  0.00000000000E+00  0.00000000000E+00  0.16123627296E+00  0.16123627296E+00  0.00000000000E+00 0. -1.
         22   -1    0    0    0    0 -0.00000000000E+00 -0.00000000000E+00 -0.45946498560E+02  0.45946498560E+02  0.00000000000E+00 0.  1.
          4    1    1    2  501    0  0.30114887564E+00 -0.27030716089E+01 -0.22006086466E+02  0.22173523137E+02  0.00000000000E+00 0. -1.
         -4    1    1    2    0  501 -0.30114887564E+00  0.27030716089E+01 -0.23779175821E+02  0.23934211696E+02  0.00000000000E+00 0.  1.
<mgrwt>
<rscale>  0 0.27197954E+01</rscale>
<asrwt>0</asrwt>
<pdfrwt beam="1">0</pdfrwt>
<pdfrwt beam="2">0</pdfrwt>
<totfact> 0.18297323E+12</totfact>
</mgrwt>
</event>
<event>
 4    2  0.1060494E+006  0.2122121E+01  0.7546771E-02  0.2902904E+00
         22   -1    0    0    0    0  0.00000000000E+00  0.00000000000E+00  0.19502625225E+00  0.19502625225E+00  0.00000000000E+00 0. -1.
         22   -1    0    0    0    0 -0.00000000000E+00 -0.00000000000E+00 -0.24555968952E+02  0.24555968952E+02  0.00000000000E+00 0.  1.
          4    1    1    2  501    0  0.16197618035E+01  0.13710468904E+01 -0.15202947328E+02  0.15350342189E+02  0.00000000000E+00 0. -1.
         -4    1    1    2    0  501 -0.16197618035E+01 -0.13710468904E+01 -0.91579953716E+01  0.94006530147E+01  0.00000000000E+00 0.  1.
<mgrwt>
<rscale>  0 0.21221211E+01</rscale>
<asrwt>0</asrwt>
<pdfrwt beam="1">0</pdfrwt>
<pdfrwt beam="2">0</pdfrwt>
<totfact> 0.33086183E+12</totfact>
</mgrwt>
</event>
<event>
 4    2  0.1060494E+006  0.2380567E+01  0.7546771E-02  0.2763646E+00
         22   -1    0    0    0    0  0.00000000000E+00  0.00000000000E+00  0.17156678876E+01  0.17156678876E+01  0.00000000000E+00 0. -1.
         22   -1    0    0    0    0 -0.00000000000E+00 -0.00000000000E+00 -0.37277480578E+01  0.37277480578E+01  0.00000000000E+00 0.  1.
          4    1    1    2  501    0 -0.22242344079E+01 -0.84845816719E+00 -0.19246048043E+01  0.30612421687E+01  0.00000000000E+00 0. -1.
         -4    1    1    2    0  501  0.22242344079E+01  0.84845816719E+00 -0.87475365781E-01  0.23821737767E+01  0.00000000000E+00 0.  1.
<mgrwt>
<rscale>  0 0.23805672E+01</rscale>
<asrwt>0</asrwt>
<pdfrwt beam="1">0</pdfrwt>
<pdfrwt beam="2">0</pdfrwt>
<totfact> 0.27676923E+12</totfact>
</mgrwt>
</event>
<event>
 4    2  0.1060494E+006  0.2362088E+01  0.7546771E-02  0.2772641E+00
         22   -1    0    0    0    0  0.00000000000E+00  0.00000000000E+00  0.59939219003E+00  0.59939219003E+00  0.00000000000E+00 0.  1.
         22   -1    0    0    0    0 -0.00000000000E+00 -0.00000000000E+00 -0.10326574018E+02  0.10326574018E+02  0.00000000000E+00 0. -1.
          4    1    1    2  501    0  0.22548362913E+01 -0.70368447409E+00 -0.65788731462E+01  0.69900665529E+01  0.00000000000E+00 0. -1.
         -4    1    1    2    0  501 -0.22548362913E+01  0.70368447409E+00 -0.31483086816E+01  0.39358996550E+01  0.00000000000E+00 0.  1.
<mgrwt>
<rscale>  0 0.23620878E+01</rscale>
<asrwt>0</asrwt>
<pdfrwt beam="1">0</pdfrwt>
<pdfrwt beam="2">0</pdfrwt>
<totfact> 0.27312085E+12</totfact>
</mgrwt>
</event>
<event>
 4    2  0.1060494E+006  0.3109817E+01  0.7546771E-02  0.2488576E+00
         22   -1    0    0    0    0  0.00000000000E+00  0.00000000000E+00  0.11790725182E+02  0.11790725182E+02  0.00000000000E+00 0.  1.
         22   -1    0    0    0    0 -0.00000000000E+00 -0.00000000000E+00 -0.13190623920E+01  0.13190623920E+01  0.00000000000E+00 0. -1.
          4    1    1    2  501    0  0.27624675878E+01 -0.14281925016E+01  0.12048045926E+01  0.33350434932E+01  0.00000000000E+00 0. -1.
         -4    1    1    2    0  501 -0.27624675878E+01  0.14281925016E+01  0.92668581976E+01  0.97747440810E+01  0.00000000000E+00 0.  1.
<mgrwt>
<rscale>  0 0.31098169E+01</rscale>
<asrwt>0</asrwt>
<pdfrwt beam="1">0</pdfrwt>
<pdfrwt beam="2">0</pdfrwt>
<totfact> 0.94613033E+11</totfact>
</mgrwt>
</event>
<event>
 4    2  0.1060494E+006  0.2618591E+01  0.7546771E-02  0.2658449E+00
         22   -1    0    0    0    0  0.00000000000E+00  0.00000000000E+00  0.12875462113E+02  0.12875462113E+02  0.00000000000E+00 0.  1.
         22   -1    0    0    0    0 -0.00000000000E+00 -0.00000000000E+00 -0.61420477319E+00  0.61420477319E+00  0.00000000000E+00 0. -1.
          4    1    1    2  501    0  0.21419498767E+01  0.15063423443E+01  0.36715844060E+01  0.45097171289E+01  0.00000000000E+00 0.  1.
         -4    1    1    2    0  501 -0.21419498767E+01 -0.15063423443E+01  0.85896729335E+01  0.89799497569E+01  0.00000000000E+00 0. -1.
<mgrwt>
<rscale>  0 0.26185906E+01</rscale>
<asrwt>0</asrwt>
<pdfrwt beam="1">0</pdfrwt>
<pdfrwt beam="2">0</pdfrwt>
<totfact> 0.20310257E+12</totfact>
</mgrwt>
</event>
<event>
 4    2  0.1060494E+006  0.2967643E+01  0.7546771E-02  0.2532505E+00
         22   -1    0    0    0    0  0.00000000000E+00  0.00000000000E+00  0.19669844419E+01  0.19669844419E+01  0.00000000000E+00 0. -1.
         22   -1    0    0    0    0 -0.00000000000E+00 -0.00000000000E+00 -0.12967397566E+02  0.12967397566E+02  0.00000000000E+00 0.  1.
          4    1    1    2  501    0  0.89563271122E-01 -0.29662907399E+01 -0.11542274300E+02  0.11917675879E+02  0.00000000000E+00 0.  1.
         -4    1    1    2    0  501 -0.89563271122E-01  0.29662907399E+01  0.54186117640E+00  0.30167061288E+01  0.00000000000E+00 0. -1.
<mgrwt>
<rscale>  0 0.29676426E+01</rscale>
<asrwt>0</asrwt>
<pdfrwt beam="1">0</pdfrwt>
<pdfrwt beam="2">0</pdfrwt>
<totfact> 0.53155679E+11</totfact>
</mgrwt>
</event>
<event>
 4    2  0.1060494E+006  0.2287668E+01  0.7546771E-02  0.2810250E+00
         22   -1    0    0    0    0  0.00000000000E+00  0.00000000000E+00  0.24931817139E+01  0.24931817139E+01  0.00000000000E+00 0. -1.
         22   -1    0    0    0    0 -0.00000000000E+00 -0.00000000000E+00 -0.21077434854E+01  0.21077434854E+01  0.00000000000E+00 0.  1.
          4    1    1    2  501    0  0.60401035770E-01 -0.22868702932E+01  0.45355968162E-01  0.22881173892E+01  0.00000000000E+00 0. -1.
         -4    1    1    2    0  501 -0.60401035770E-01  0.22868702932E+01  0.34008226032E+00  0.23128078102E+01  0.00000000000E+00 0.  1.
<mgrwt>
<rscale>  0 0.22876678E+01</rscale>
<asrwt>0</asrwt>
<pdfrwt beam="1">0</pdfrwt>
<pdfrwt beam="2">0</pdfrwt>
<totfact> 0.34908361E+12</totfact>
</mgrwt>
</event>
<event>
 4    2  0.1060494E+006  0.2697904E+01  0.7546771E-02  0.2627227E+00
         22   -1    0    0    0    0  0.00000000000E+00  0.00000000000E+00  0.54337077810E+01  0.54337077810E+01  0.00000000000E+00 0. -1.
         22   -1    0    0    0    0 -0.00000000000E+00 -0.00000000000E+00 -0.28096496632E+01  0.28096496632E+01  0.00000000000E+00 0.  1.
          4    1    1    2  501    0 -0.17344270991E+01  0.20665065569E+01 -0.16693859492E+01  0.31726229147E+01  0.00000000000E+00 0.  1.
         -4    1    1    2    0  501  0.17344270991E+01 -0.20665065569E+01  0.42934440670E+01  0.50707345295E+01  0.00000000000E+00 0. -1.
<mgrwt>
<rscale>  0 0.26979041E+01</rscale>
<asrwt>0</asrwt>
<pdfrwt beam="1">0</pdfrwt>
<pdfrwt beam="2">0</pdfrwt>
<totfact> 0.10010555E+12</totfact>
</mgrwt>
</event>
<event>
 4    2  0.1060494E+006  0.2088631E+01  0.7546771E-02  0.2923365E+00
         22   -1    0    0    0    0  0.00000000000E+00  0.00000000000E+00  0.30621774272E+00  0.30621774272E+00  0.00000000000E+00 0.  1.
         22   -1    0    0    0    0 -0.00000000000E+00 -0.00000000000E+00 -0.14313582105E+02  0.14313582105E+02  0.00000000000E+00 0. -1.
          4    1    1    2  501    0  0.11952278441E+01 -0.17128370183E+01 -0.75059427878E+01  0.77911204191E+01  0.00000000000E+00 0.  1.
         -4    1    1    2    0  501 -0.11952278441E+01  0.17128370183E+01 -0.65014215745E+01  0.68286794287E+01  0.00000000000E+00 0. -1.
<mgrwt>
<rscale>  0 0.20886312E+01</rscale>
<asrwt>0</asrwt>
<pdfrwt beam="1">0</pdfrwt>
<pdfrwt beam="2">0</pdfrwt>
<totfact> 0.39083991E+12</totfact>
</mgrwt>
</event>
<event>
 4    2  0.1060494E+006  0.5440845E+01  0.7546771E-02  0.2073789E+00
         22   -1    0    0    0    0  0.00000000000E+00  0.00000000000E+00  0.26872750535E+01  0.26872750535E+01  0.00000000000E+00 0. -1.
         22   -1    0    0    0    0 -0.00000000000E+00 -0.00000000000E+00 -0.12707464022E+02  0.12707464022E+02  0.00000000000E+00 0.  1.
          4    1    1    2  501    0 -0.54396868048E+01 -0.11227276014E+00 -0.78184687771E+01  0.95252953616E+01  0.00000000000E+00 0.  1.
         -4    1    1    2    0  501  0.54396868048E+01  0.11227276014E+00 -0.22017201909E+01  0.58694437135E+01  0.00000000000E+00 0. -1.
<mgrwt>
<rscale>  0 0.54408453E+01</rscale>
<asrwt>0</asrwt>
<pdfrwt beam="1">0</pdfrwt>
<pdfrwt beam="2">0</pdfrwt>
<totfact> 0.37929281E+11</totfact>
</mgrwt>
</event>
<event>
 4    2  0.1060494E+006  0.2145997E+01  0.7546771E-02  0.2888694E+00
         22   -1    0    0    0    0  0.00000000000E+00  0.00000000000E+00  0.18733344483E+01  0.18733344483E+01  0.00000000000E+00 0.  1.
         22   -1    0    0    0    0 -0.00000000000E+00 -0.00000000000E+00 -0.27201056452E+01  0.27201056452E+01  0.00000000000E+00 0. -1.
          4    1    1    2  501    0 -0.63270462393E+00 -0.20506070944E+01 -0.11358552460E+01  0.24280592531E+01  0.00000000000E+00 0. -1.
         -4    1    1    2    0  501  0.63270462393E+00  0.20506070944E+01  0.28908404903E+00  0.21653808404E+01  0.00000000000E+00 0.  1.
<mgrwt>
<rscale>  0 0.21459973E+01</rscale>
<asrwt>0</asrwt>
<pdfrwt beam="1">0</pdfrwt>
<pdfrwt beam="2">0</pdfrwt>
<totfact> 0.36151592E+12</totfact>
</mgrwt>
</event>
<event>
 4    2  0.1060494E+006  0.6337346E+01  0.7546771E-02  0.1990693E+00
         22   -1    0    0    0    0  0.00000000000E+00  0.00000000000E+00  0.12097741692E+02  0.12097741692E+02  0.00000000000E+00 0. -1.
         22   -1    0    0    0    0 -0.00000000000E+00 -0.00000000000E+00 -0.38885696197E+01  0.38885696197E+01  0.00000000000E+00 0.  1.
          4    1    1    2  501    0 -0.25279724657E+01 -0.58113089950E+01  0.10475856201E+01  0.64233474649E+01  0.00000000000E+00 0.  1.
         -4    1    1    2    0  501  0.25279724657E+01  0.58113089950E+01  0.71615864521E+01  0.95629638467E+01  0.00000000000E+00 0. -1.
<mgrwt>
<rscale>  0 0.63373462E+01</rscale>
<asrwt>0</asrwt>
<pdfrwt beam="1">0</pdfrwt>
<pdfrwt beam="2">0</pdfrwt>
<totfact> 0.26135210E+11</totfact>
</mgrwt>
</event>
<event>
 4    2  0.1060494E+006  0.2548795E+01  0.7546771E-02  0.2687401E+00
         22   -1    0    0    0    0  0.00000000000E+00  0.00000000000E+00  0.31798573109E+01  0.31798573109E+01  0.00000000000E+00 0. -1.
         22   -1    0    0    0    0 -0.00000000000E+00 -0.00000000000E+00 -0.20516497361E+01  0.20516497361E+01  0.00000000000E+00 0.  1.
          4    1    1    2  501    0  0.61154375076E+00  0.24743419597E+01  0.73423819688E+00  0.26524440847E+01  0.00000000000E+00 0. -1.
         -4    1    1    2    0  501 -0.61154375076E+00 -0.24743419597E+01  0.39396937789E+00  0.25790629623E+01  0.00000000000E+00 0.  1.
<mgrwt>
<rscale>  0 0.25487946E+01</rscale>
<asrwt>0</asrwt>
<pdfrwt beam="1">0</pdfrwt>
<pdfrwt beam="2">0</pdfrwt>
<totfact> 0.27118935E+12</totfact>
</mgrwt>
</event>
<event>
 4    2  0.1060494E+006  0.2064783E+01  0.7546771E-02  0.2938327E+00
         22   -1    0    0    0    0  0.00000000000E+00  0.00000000000E+00  0.19665042890E+01  0.19665042890E+01  0.00000000000E+00 0. -1.
         22   -1    0    0    0    0 -0.00000000000E+00 -0.00000000000E+00 -0.17704233645E+02  0.17704233645E+02  0.00000000000E+00 0.  1.
          4    1    1    2  501    0 -0.56268671956E+00 -0.19866335839E+01 -0.17082379351E+02  0.17206714202E+02  0.00000000000E+00 0.  1.
         -4    1    1    2    0  501  0.56268671956E+00  0.19866335839E+01  0.13446499951E+01  0.24640237317E+01  0.00000000000E+00 0. -1.
<mgrwt>
<rscale>  0 0.20647831E+01</rscale>
<asrwt>0</asrwt>
<pdfrwt beam="1">0</pdfrwt>
<pdfrwt beam="2">0</pdfrwt>
<totfact> 0.36235146E+11</totfact>
</mgrwt>
</event>
<event>
 4    2  0.1060494E+006  0.2930717E+01  0.7546771E-02  0.2544538E+00
         22   -1    0    0    0    0  0.00000000000E+00  0.00000000000E+00  0.18301086949E+01  0.18301086949E+01  0.00000000000E+00 0.  1.
         22   -1    0    0    0    0 -0.00000000000E+00 -0.00000000000E+00 -0.30080398938E+02  0.30080398938E+02  0.00000000000E+00 0. -1.
          4    1    1    2  501    0  0.26975766688E+01 -0.11455059931E+01 -0.28782956820E+02  0.28931776771E+02  0.00000000000E+00 0. -1.
         -4    1    1    2    0  501 -0.26975766688E+01  0.11455059931E+01  0.53266657649E+00  0.29787308616E+01  0.00000000000E+00 0.  1.
<mgrwt>
<rscale>  0 0.29307173E+01</rscale>
<asrwt>0</asrwt>
<pdfrwt beam="1">0</pdfrwt>
<pdfrwt beam="2">0</pdfrwt>
<totfact> 0.20231983E+11</totfact>
</mgrwt>
</event>
<event>
 4    2  0.1060494E+006  0.2390348E+01  0.7546771E-02  0.2758939E+00
         22   -1    0    0    0    0  0.00000000000E+00  0.00000000000E+00  0.61328334046E+02  0.61328334046E+02  0.00000000000E+00 0.  1.
         22   -1    0    0    0    0 -0.00000000000E+00 -0.00000000000E+00 -0.93339800551E-01  0.93339800551E-01  0.00000000000E+00 0. -1.
          4    1    1    2  501    0  0.86780248846E-01  0.23887722890E+01  0.29295295250E+02  0.29392653634E+02  0.00000000000E+00 0. -1.
         -4    1    1    2    0  501 -0.86780248846E-01 -0.23887722890E+01  0.31939698995E+02  0.32029020213E+02  0.00000000000E+00 0.  1.
<mgrwt>
<rscale>  0 0.23903481E+01</rscale>
<asrwt>0</asrwt>
<pdfrwt beam="1">0</pdfrwt>
<pdfrwt beam="2">0</pdfrwt>
<totfact> 0.22884619E+12</totfact>
</mgrwt>
</event>
<event>
 4    2  0.1060494E+006  0.2540004E+01  0.7546771E-02  0.2691152E+00
         22   -1    0    0    0    0  0.00000000000E+00  0.00000000000E+00  0.11795376347E+01  0.11795376347E+01  0.00000000000E+00 0. -1.
         22   -1    0    0    0    0 -0.00000000000E+00 -0.00000000000E+00 -0.61504030542E+01  0.61504030542E+01  0.00000000000E+00 0.  1.
          4    1    1    2  501    0 -0.24898320370E+01  0.50235258642E+00 -0.12660969802E+01  0.28380668168E+01  0.00000000000E+00 0. -1.
         -4    1    1    2    0  501  0.24898320370E+01 -0.50235258642E+00 -0.37047684393E+01  0.44918738720E+01  0.00000000000E+00 0.  1.
<mgrwt>
<rscale>  0 0.25400043E+01</rscale>
<asrwt>0</asrwt>
<pdfrwt beam="1">0</pdfrwt>
<pdfrwt beam="2">0</pdfrwt>
<totfact> 0.23549799E+12</totfact>
</mgrwt>
</event>
<event>
 4    2  0.1060494E+006  0.3644094E+01  0.7546771E-02  0.2350969E+00
         22   -1    0    0    0    0  0.00000000000E+00  0.00000000000E+00  0.93787558928E+02  0.93787558928E+02  0.00000000000E+00 0.  1.
         22   -1    0    0    0    0 -0.00000000000E+00 -0.00000000000E+00 -0.16443825422E+00  0.16443825422E+00  0.00000000000E+00 0. -1.
          4    1    1    2  501    0 -0.13956303875E+01 -0.33662495844E+01  0.29301120602E+02  0.29526853693E+02  0.00000000000E+00 0. -1.
         -4    1    1    2    0  501  0.13956303875E+01  0.33662495844E+01  0.64322000072E+02  0.64425143490E+02  0.00000000000E+00 0.  1.
<mgrwt>
<rscale>  0 0.36440939E+01</rscale>
<asrwt>0</asrwt>
<pdfrwt beam="1">0</pdfrwt>
<pdfrwt beam="2">0</pdfrwt>
<totfact> 0.68287906E+11</totfact>
</mgrwt>
</event>
<event>
 4    2  0.1060494E+006  0.2095642E+01  0.7546771E-02  0.2919029E+00
         22   -1    0    0    0    0  0.00000000000E+00  0.00000000000E+00  0.59422851946E+01  0.59422851946E+01  0.00000000000E+00 0. -1.
         22   -1    0    0    0    0 -0.00000000000E+00 -0.00000000000E+00 -0.15471796266E+01  0.15471796266E+01  0.00000000000E+00 0.  1.
          4    1    1    2  501    0  0.17925463946E+01  0.10855844813E+01 -0.50882084359E+00  0.21565284356E+01  0.00000000000E+00 0.  1.
         -4    1    1    2    0  501 -0.17925463946E+01 -0.10855844813E+01  0.49039264115E+01  0.53329363856E+01  0.00000000000E+00 0. -1.
<mgrwt>
<rscale>  0 0.20956422E+01</rscale>
<asrwt>0</asrwt>
<pdfrwt beam="1">0</pdfrwt>
<pdfrwt beam="2">0</pdfrwt>
<totfact> 0.17966094E+12</totfact>
</mgrwt>
</event>
<event>
 4    2  0.1060494E+006  0.2777411E+01  0.7546771E-02  0.2597573E+00
         22   -1    0    0    0    0  0.00000000000E+00  0.00000000000E+00  0.53561047178E+01  0.53561047178E+01  0.00000000000E+00 0.  1.
         22   -1    0    0    0    0 -0.00000000000E+00 -0.00000000000E+00 -0.21116091388E+01  0.21116091388E+01  0.00000000000E+00 0. -1.
          4    1    1    2  501    0  0.24315048466E+01 -0.13423089657E+01 -0.48315718221E+00  0.28191222111E+01  0.00000000000E+00 0. -1.
         -4    1    1    2    0  501 -0.24315048466E+01  0.13423089657E+01  0.37276527613E+01  0.46485916455E+01  0.00000000000E+00 0.  1.
<mgrwt>
<rscale>  0 0.27774105E+01</rscale>
<asrwt>0</asrwt>
<pdfrwt beam="1">0</pdfrwt>
<pdfrwt beam="2">0</pdfrwt>
<totfact> 0.14192880E+12</totfact>
</mgrwt>
</event>
<event>
 4    2  0.1060494E+006  0.3304729E+01  0.7546771E-02  0.2433851E+00
         22   -1    0    0    0    0  0.00000000000E+00  0.00000000000E+00  0.27088946223E+01  0.27088946223E+01  0.00000000000E+00 0. -1.
         22   -1    0    0    0    0 -0.00000000000E+00 -0.00000000000E+00 -0.43948567208E+01  0.43948567208E+01  0.00000000000E+00 0.  1.
          4    1    1    2  501    0  0.26417014716E+01 -0.19856101275E+01 -0.18641089821E+01  0.37942241026E+01  0.00000000000E+00 0.  1.
         -4    1    1    2    0  501 -0.26417014716E+01  0.19856101275E+01  0.17814688360E+00  0.33095272406E+01  0.00000000000E+00 0. -1.
<mgrwt>
<rscale>  0 0.33047291E+01</rscale>
<asrwt>0</asrwt>
<pdfrwt beam="1">0</pdfrwt>
<pdfrwt beam="2">0</pdfrwt>
<totfact> 0.13427428E+12</totfact>
</mgrwt>
</event>
<event>
 4    2  0.1060494E+006  0.2319076E+01  0.7546771E-02  0.2794099E+00
         22   -1    0    0    0    0  0.00000000000E+00  0.00000000000E+00  0.56330179122E+00  0.56330179122E+00  0.00000000000E+00 0.  1.
         22   -1    0    0    0    0 -0.00000000000E+00 -0.00000000000E+00 -0.96153283345E+01  0.96153283345E+01  0.00000000000E+00 0. -1.
          4    1    1    2  501    0 -0.12374001610E+01 -0.19613649543E+01 -0.49535291332E+01  0.54695120912E+01  0.00000000000E+00 0.  1.
         -4    1    1    2    0  501  0.12374001610E+01  0.19613649543E+01 -0.40984974101E+01  0.47091180346E+01  0.00000000000E+00 0. -1.
<mgrwt>
<rscale>  0 0.23190756E+01</rscale>
<asrwt>0</asrwt>
<pdfrwt beam="1">0</pdfrwt>
<pdfrwt beam="2">0</pdfrwt>
<totfact> 0.31944837E+12</totfact>
</mgrwt>
</event>
<event>
 4    2  0.1060494E+006  0.2015697E+01  0.7546771E-02  0.2970210E+00
         22   -1    0    0    0    0  0.00000000000E+00  0.00000000000E+00  0.86161505557E+01  0.86161505557E+01  0.00000000000E+00 0. -1.
         22   -1    0    0    0    0 -0.00000000000E+00 -0.00000000000E+00 -0.54707981517E+00  0.54707981517E+00  0.00000000000E+00 0.  1.
          4    1    1    2  501    0  0.15224041239E+01 -0.13211056455E+01  0.23322871334E+01  0.30826283778E+01  0.00000000000E+00 0.  1.
         -4    1    1    2    0  501 -0.15224041239E+01  0.13211056455E+01  0.57367836072E+01  0.60806019931E+01  0.00000000000E+00 0. -1.
<mgrwt>
<rscale>  0 0.20156970E+01</rscale>
<asrwt>0</asrwt>
<pdfrwt beam="1">0</pdfrwt>
<pdfrwt beam="2">0</pdfrwt>
<totfact> 0.37690143E+12</totfact>
</mgrwt>
</event>
<event>
 4    2  0.1060494E+006  0.2525253E+01  0.7546771E-02  0.2697500E+00
         22   -1    0    0    0    0  0.00000000000E+00  0.00000000000E+00  0.31575383037E+01  0.31575383037E+01  0.00000000000E+00 0.  1.
         22   -1    0    0    0    0 -0.00000000000E+00 -0.00000000000E+00 -0.54133089176E+01  0.54133089176E+01  0.00000000000E+00 0. -1.
          4    1    1    2  501    0  0.85774529277E+00 -0.23751159675E+01 -0.45210183907E+01  0.51784660021E+01  0.00000000000E+00 0. -1.
         -4    1    1    2    0  501 -0.85774529277E+00  0.23751159675E+01  0.22652477768E+01  0.33923812192E+01  0.00000000000E+00 0.  1.
<mgrwt>
<rscale>  0 0.25252530E+01</rscale>
<asrwt>0</asrwt>
<pdfrwt beam="1">0</pdfrwt>
<pdfrwt beam="2">0</pdfrwt>
<totfact> 0.87736258E+11</totfact>
</mgrwt>
</event>
<event>
 4    2  0.1060494E+006  0.2227812E+01  0.7546771E-02  0.2842229E+00
         22   -1    0    0    0    0  0.00000000000E+00  0.00000000000E+00  0.44015066534E+01  0.44015066534E+01  0.00000000000E+00 0.  1.
         22   -1    0    0    0    0 -0.00000000000E+00 -0.00000000000E+00 -0.11580445616E+01  0.11580445616E+01  0.00000000000E+00 0. -1.
          4    1    1    2  501    0 -0.93093750442E+00 -0.20239819702E+01  0.20724312826E+01  0.30427157399E+01  0.00000000000E+00 0.  1.
         -4    1    1    2    0  501  0.93093750442E+00  0.20239819702E+01  0.11710308092E+01  0.25168354751E+01  0.00000000000E+00 0. -1.
<mgrwt>
<rscale>  0 0.22278123E+01</rscale>
<asrwt>0</asrwt>
<pdfrwt beam="1">0</pdfrwt>
<pdfrwt beam="2">0</pdfrwt>
<totfact> 0.35757042E+12</totfact>
</mgrwt>
</event>
<event>
 4    2  0.1060494E+006  0.2472861E+01  0.7546771E-02  0.2720617E+00
         22   -1    0    0    0    0  0.00000000000E+00  0.00000000000E+00  0.55988419548E+00  0.55988419548E+00  0.00000000000E+00 0.  1.
         22   -1    0    0    0    0 -0.00000000000E+00 -0.00000000000E+00 -0.10941561659E+02  0.10941561659E+02  0.00000000000E+00 0. -1.
          4    1    1    2  501    0  0.88191216089E+00 -0.23102542337E+01 -0.49475547586E+01  0.55311248199E+01  0.00000000000E+00 0.  1.
         -4    1    1    2    0  501 -0.88191216089E+00  0.23102542337E+01 -0.54341227047E+01  0.59703210344E+01  0.00000000000E+00 0. -1.
<mgrwt>
<rscale>  0 0.24728614E+01</rscale>
<asrwt>0</asrwt>
<pdfrwt beam="1">0</pdfrwt>
<pdfrwt beam="2">0</pdfrwt>
<totfact> 0.27503222E+12</totfact>
</mgrwt>
</event>
<event>
 4    2  0.1060494E+006  0.2098748E+01  0.7546771E-02  0.2917117E+00
         22   -1    0    0    0    0  0.00000000000E+00  0.00000000000E+00  0.22812294495E+02  0.22812294495E+02  0.00000000000E+00 0. -1.
         22   -1    0    0    0    0 -0.00000000000E+00 -0.00000000000E+00 -0.58279835322E+00  0.58279835322E+00  0.00000000000E+00 0.  1.
          4    1    1    2  501    0  0.20896899662E+01 -0.19477629425E+00  0.15492513261E+01  0.26086244711E+01  0.00000000000E+00 0.  1.
         -4    1    1    2    0  501 -0.20896899662E+01  0.19477629425E+00  0.20680244816E+02  0.20786468377E+02  0.00000000000E+00 0. -1.
<mgrwt>
<rscale>  0 0.20987477E+01</rscale>
<asrwt>0</asrwt>
<pdfrwt beam="1">0</pdfrwt>
<pdfrwt beam="2">0</pdfrwt>
<totfact> 0.10614358E+12</totfact>
</mgrwt>
</event>
<event>
 4    2  0.1060494E+006  0.2453877E+01  0.7546771E-02  0.2729220E+00
         22   -1    0    0    0    0  0.00000000000E+00  0.00000000000E+00  0.12474797465E+01  0.12474797465E+01  0.00000000000E+00 0.  1.
         22   -1    0    0    0    0 -0.00000000000E+00 -0.00000000000E+00 -0.72097383270E+01  0.72097383270E+01  0.00000000000E+00 0. -1.
          4    1    1    2  501    0  0.13650168638E+01  0.20391769752E+01 -0.54121079227E+01  0.59424259307E+01  0.00000000000E+00 0. -1.
         -4    1    1    2    0  501 -0.13650168638E+01 -0.20391769752E+01 -0.55015065782E+00  0.25147921427E+01  0.00000000000E+00 0.  1.
<mgrwt>
<rscale>  0 0.24538773E+01</rscale>
<asrwt>0</asrwt>
<pdfrwt beam="1">0</pdfrwt>
<pdfrwt beam="2">0</pdfrwt>
<totfact> 0.18267942E+12</totfact>
</mgrwt>
</event>
<event>
 4    2  0.1060494E+006  0.2121037E+01  0.7546771E-02  0.2903556E+00
         22   -1    0    0    0    0  0.00000000000E+00  0.00000000000E+00  0.35131389248E+01  0.35131389248E+01  0.00000000000E+00 0.  1.
         22   -1    0    0    0    0 -0.00000000000E+00 -0.00000000000E+00 -0.12837521140E+01  0.12837521140E+01  0.00000000000E+00 0. -1.
          4    1    1    2  501    0 -0.11607154832E+01 -0.17752573138E+01  0.99516766529E+00  0.23428951418E+01  0.00000000000E+00 0.  1.
         -4    1    1    2    0  501  0.11607154832E+01  0.17752573138E+01  0.12342191455E+01  0.24539958970E+01  0.00000000000E+00 0. -1.
<mgrwt>
<rscale>  0 0.21210372E+01</rscale>
<asrwt>0</asrwt>
<pdfrwt beam="1">0</pdfrwt>
<pdfrwt beam="2">0</pdfrwt>
<totfact> 0.41420847E+12</totfact>
</mgrwt>
</event>
<event>
 4    2  0.1060494E+006  0.2471734E+01  0.7546771E-02  0.2721124E+00
         22   -1    0    0    0    0  0.00000000000E+00  0.00000000000E+00  0.29121028762E+00  0.29121028762E+00  0.00000000000E+00 0. -1.
         22   -1    0    0    0    0 -0.00000000000E+00 -0.00000000000E+00 -0.44794010513E+02  0.44794010513E+02  0.00000000000E+00 0.  1.
          4    1    1    2  501    0 -0.74113518265E+00 -0.23580049796E+01 -0.38688089687E+02  0.38766967285E+02  0.00000000000E+00 0.  1.
         -4    1    1    2    0  501  0.74113518265E+00  0.23580049796E+01 -0.58147105382E+01  0.63182535155E+01  0.00000000000E+00 0. -1.
<mgrwt>
<rscale>  0 0.24717340E+01</rscale>
<asrwt>0</asrwt>
<pdfrwt beam="1">0</pdfrwt>
<pdfrwt beam="2">0</pdfrwt>
<totfact> 0.97751503E+11</totfact>
</mgrwt>
</event>
<event>
 4    2  0.1060494E+006  0.2206860E+01  0.7546771E-02  0.2853813E+00
         22   -1    0    0    0    0  0.00000000000E+00  0.00000000000E+00  0.53185414333E+02  0.53185414333E+02  0.00000000000E+00 0.  1.
         22   -1    0    0    0    0 -0.00000000000E+00 -0.00000000000E+00 -0.32564724621E+00  0.32564724621E+00  0.00000000000E+00 0. -1.
          4    1    1    2  501    0 -0.71012361145E+00  0.20894872030E+01  0.37459325791E+01  0.43476710089E+01  0.00000000000E+00 0. -1.
         -4    1    1    2    0  501  0.71012361145E+00 -0.20894872030E+01  0.49113834508E+02  0.49163390570E+02  0.00000000000E+00 0.  1.
<mgrwt>
<rscale>  0 0.22068603E+01</rscale>
<asrwt>0</asrwt>
<pdfrwt beam="1">0</pdfrwt>
<pdfrwt beam="2">0</pdfrwt>
<totfact> 0.68782716E+11</totfact>
</mgrwt>
</event>
<event>
 4    2  0.1060494E+006  0.2539223E+01  0.7546771E-02  0.2691486E+00
         22   -1    0    0    0    0  0.00000000000E+00  0.00000000000E+00  0.78461612814E+01  0.78461612814E+01  0.00000000000E+00 0.  1.
         22   -1    0    0    0    0 -0.00000000000E+00 -0.00000000000E+00 -0.28443050905E+01  0.28443050905E+01  0.00000000000E+00 0. -1.
          4    1    1    2  501    0  0.25210010270E+01  0.30365747967E+00 -0.20064892854E+01  0.32363024110E+01  0.00000000000E+00 0. -1.
         -4    1    1    2    0  501 -0.25210010270E+01 -0.30365747967E+00  0.70083454762E+01  0.74541639610E+01  0.00000000000E+00 0.  1.
<mgrwt>
<rscale>  0 0.25392231E+01</rscale>
<asrwt>0</asrwt>
<pdfrwt beam="1">0</pdfrwt>
<pdfrwt beam="2">0</pdfrwt>
<totfact> 0.63649339E+11</totfact>
</mgrwt>
</event>
<event>
 4    2  0.1060494E+006  0.2106767E+01  0.7546771E-02  0.2912207E+00
         22   -1    0    0    0    0  0.00000000000E+00  0.00000000000E+00  0.15885965970E+01  0.15885965970E+01  0.00000000000E+00 0. -1.
         22   -1    0    0    0    0 -0.00000000000E+00 -0.00000000000E+00 -0.27995300218E+01  0.27995300218E+01  0.00000000000E+00 0.  1.
          4    1    1    2  501    0 -0.16486127935E+01  0.13116940092E+01 -0.70338889221E+00  0.22210856018E+01  0.00000000000E+00 0. -1.
         -4    1    1    2    0  501  0.16486127935E+01 -0.13116940092E+01 -0.50754453264E+00  0.21670410170E+01  0.00000000000E+00 0.  1.
<mgrwt>
<rscale>  0 0.21067666E+01</rscale>
<asrwt>0</asrwt>
<pdfrwt beam="1">0</pdfrwt>
<pdfrwt beam="2">0</pdfrwt>
<totfact> 0.42283464E+12</totfact>
</mgrwt>
</event>
<event>
 4    2  0.1060494E+006  0.2123925E+01  0.7546771E-02  0.2901820E+00
         22   -1    0    0    0    0  0.00000000000E+00  0.00000000000E+00  0.23818970529E+02  0.23818970529E+02  0.00000000000E+00 0.  1.
         22   -1    0    0    0    0 -0.00000000000E+00 -0.00000000000E+00 -0.35619703281E+00  0.35619703281E+00  0.00000000000E+00 0. -1.
          4    1    1    2  501    0  0.20636924975E+01  0.50222400353E+00  0.34595382036E+01  0.40594901473E+01  0.00000000000E+00 0.  1.
         -4    1    1    2    0  501 -0.20636924975E+01 -0.50222400353E+00  0.20003235293E+02  0.20115677415E+02  0.00000000000E+00 0. -1.
<mgrwt>
<rscale>  0 0.21239246E+01</rscale>
<asrwt>0</asrwt>
<pdfrwt beam="1">0</pdfrwt>
<pdfrwt beam="2">0</pdfrwt>
<totfact> 0.17517582E+12</totfact>
</mgrwt>
</event>
<event>
 4    2  0.1060494E+006  0.2558788E+01  0.7546771E-02  0.2683166E+00
         22   -1    0    0    0    0  0.00000000000E+00  0.00000000000E+00  0.62327106793E+00  0.62327106793E+00  0.00000000000E+00 0.  1.
         22   -1    0    0    0    0 -0.00000000000E+00 -0.00000000000E+00 -0.13263770466E+02  0.13263770466E+02  0.00000000000E+00 0. -1.
          4    1    1    2  501    0 -0.25486964419E+01  0.22702972065E+00 -0.94869898214E+01  0.98260048808E+01  0.00000000000E+00 0. -1.
         -4    1    1    2    0  501  0.25486964419E+01 -0.22702972065E+00 -0.31535095763E+01  0.40610366527E+01  0.00000000000E+00 0.  1.
<mgrwt>
<rscale>  0 0.25587880E+01</rscale>
<asrwt>0</asrwt>
<pdfrwt beam="1">0</pdfrwt>
<pdfrwt beam="2">0</pdfrwt>
<totfact> 0.19262642E+12</totfact>
</mgrwt>
</event>
<event>
 4    2  0.1060494E+006  0.3321474E+01  0.7546771E-02  0.2429415E+00
         22   -1    0    0    0    0  0.00000000000E+00  0.00000000000E+00  0.48407913615E+00  0.48407913615E+00  0.00000000000E+00 0.  1.
         22   -1    0    0    0    0 -0.00000000000E+00 -0.00000000000E+00 -0.23257602643E+02  0.23257602643E+02  0.00000000000E+00 0. -1.
          4    1    1    2  501    0 -0.33176348878E+01 -0.15965206122E+00 -0.13069870010E+02  0.13485313941E+02  0.00000000000E+00 0. -1.
         -4    1    1    2    0  501  0.33176348878E+01  0.15965206122E+00 -0.97036534978E+01  0.10256367838E+02  0.00000000000E+00 0.  1.
<mgrwt>
<rscale>  0 0.33214741E+01</rscale>
<asrwt>0</asrwt>
<pdfrwt beam="1">0</pdfrwt>
<pdfrwt beam="2">0</pdfrwt>
<totfact> 0.12778946E+12</totfact>
</mgrwt>
</event>
<event>
 4    2  0.1060494E+006  0.2103027E+01  0.7546771E-02  0.2914492E+00
         22   -1    0    0    0    0  0.00000000000E+00  0.00000000000E+00  0.58693845735E+01  0.58693845735E+01  0.00000000000E+00 0. -1.
         22   -1    0    0    0    0 -0.00000000000E+00 -0.00000000000E+00 -0.99411905234E+00  0.99411905234E+00  0.00000000000E+00 0.  1.
          4    1    1    2  501    0 -0.20823230230E+01  0.29436689630E+00  0.41258960940E+01  0.46309545043E+01  0.00000000000E+00 0. -1.
         -4    1    1    2    0  501  0.20823230230E+01 -0.29436689630E+00  0.74936942714E+00  0.22325491216E+01  0.00000000000E+00 0.  1.
<mgrwt>
<rscale>  0 0.21030266E+01</rscale>
<asrwt>0</asrwt>
<pdfrwt beam="1">0</pdfrwt>
<pdfrwt beam="2">0</pdfrwt>
<totfact> 0.30274459E+12</totfact>
</mgrwt>
</event>
<event>
 4    2  0.1060494E+006  0.3162588E+01  0.7546771E-02  0.2473170E+00
         22   -1    0    0    0    0  0.00000000000E+00  0.00000000000E+00  0.11483920217E+01  0.11483920217E+01  0.00000000000E+00 0. -1.
         22   -1    0    0    0    0 -0.00000000000E+00 -0.00000000000E+00 -0.98341191672E+01  0.98341191672E+01  0.00000000000E+00 0.  1.
          4    1    1    2  501    0  0.31544734363E+01 -0.22640601110E+00 -0.24859161846E+01  0.40226535545E+01  0.00000000000E+00 0. -1.
         -4    1    1    2    0  501 -0.31544734363E+01  0.22640601110E+00 -0.61998109608E+01  0.69598576345E+01  0.00000000000E+00 0.  1.
<mgrwt>
<rscale>  0 0.31625879E+01</rscale>
<asrwt>0</asrwt>
<pdfrwt beam="1">0</pdfrwt>
<pdfrwt beam="2">0</pdfrwt>
<totfact> 0.13823523E+12</totfact>
</mgrwt>
</event>
<event>
 4    2  0.1060494E+006  0.4859355E+01  0.7546771E-02  0.2140175E+00
         22   -1    0    0    0    0  0.00000000000E+00  0.00000000000E+00  0.36537429931E+00  0.36537429931E+00  0.00000000000E+00 0. -1.
         22   -1    0    0    0    0 -0.00000000000E+00 -0.00000000000E+00 -0.66068176287E+02  0.66068176287E+02  0.00000000000E+00 0.  1.
          4    1    1    2  501    0  0.47740705275E+01 -0.90641273670E+00 -0.37755969593E+02  0.38067395148E+02  0.00000000000E+00 0.  1.
         -4    1    1    2    0  501 -0.47740705275E+01  0.90641273670E+00 -0.27946832395E+02  0.28366155438E+02  0.00000000000E+00 0. -1.
<mgrwt>
<rscale>  0 0.48593553E+01</rscale>
<asrwt>0</asrwt>
<pdfrwt beam="1">0</pdfrwt>
<pdfrwt beam="2">0</pdfrwt>
<totfact> 0.45227192E+11</totfact>
</mgrwt>
</event>
<event>
 4    2  0.1060494E+006  0.3547920E+01  0.7546771E-02  0.2373051E+00
         22   -1    0    0    0    0  0.00000000000E+00  0.00000000000E+00  0.34167759285E+02  0.34167759285E+02  0.00000000000E+00 0.  1.
         22   -1    0    0    0    0 -0.00000000000E+00 -0.00000000000E+00 -0.72662510129E+00  0.72662510129E+00  0.00000000000E+00 0. -1.
          4    1    1    2  501    0 -0.18787936011E+01 -0.30096296180E+01  0.44703879261E+01  0.57071975647E+01  0.00000000000E+00 0.  1.
         -4    1    1    2    0  501  0.18787936011E+01  0.30096296180E+01  0.28970746257E+02  0.29187186821E+02  0.00000000000E+00 0. -1.
<mgrwt>
<rscale>  0 0.35479199E+01</rscale>
<asrwt>0</asrwt>
<pdfrwt beam="1">0</pdfrwt>
<pdfrwt beam="2">0</pdfrwt>
<totfact> 0.49501860E+11</totfact>
</mgrwt>
</event>
<event>
 4    2  0.1060494E+006  0.2463783E+01  0.7546771E-02  0.2724716E+00
         22   -1    0    0    0    0  0.00000000000E+00  0.00000000000E+00  0.47540565581E+01  0.47540565581E+01  0.00000000000E+00 0. -1.
         22   -1    0    0    0    0 -0.00000000000E+00 -0.00000000000E+00 -0.12887435718E+01  0.12887435718E+01  0.00000000000E+00 0.  1.
          4    1    1    2  501    0  0.16321675663E+01  0.18456041745E+01  0.20228903221E+01  0.31878379803E+01  0.00000000000E+00 0. -1.
         -4    1    1    2    0  501 -0.16321675663E+01 -0.18456041745E+01  0.14424226642E+01  0.28549621496E+01  0.00000000000E+00 0.  1.
<mgrwt>
<rscale>  0 0.24637828E+01</rscale>
<asrwt>0</asrwt>
<pdfrwt beam="1">0</pdfrwt>
<pdfrwt beam="2">0</pdfrwt>
<totfact> 0.28881939E+12</totfact>
</mgrwt>
</event>
<event>
 4    2  0.1060494E+006  0.2173231E+01  0.7546771E-02  0.2872854E+00
         22   -1    0    0    0    0  0.00000000000E+00  0.00000000000E+00  0.22655495280E+01  0.22655495280E+01  0.00000000000E+00 0.  1.
         22   -1    0    0    0    0 -0.00000000000E+00 -0.00000000000E+00 -0.21124395467E+01  0.21124395467E+01  0.00000000000E+00 0. -1.
          4    1    1    2  501    0  0.21081958403E+01  0.52767729647E+00  0.32751398799E+00  0.21977712443E+01  0.00000000000E+00 0. -1.
         -4    1    1    2    0  501 -0.21081958403E+01 -0.52767729647E+00 -0.17440400672E+00  0.21802178303E+01  0.00000000000E+00 0.  1.
<mgrwt>
<rscale>  0 0.21732310E+01</rscale>
<asrwt>0</asrwt>
<pdfrwt beam="1">0</pdfrwt>
<pdfrwt beam="2">0</pdfrwt>
<totfact> 0.38914464E+12</totfact>
</mgrwt>
</event>
<event>
 4    2  0.1060494E+006  0.2095532E+01  0.7546771E-02  0.2919097E+00
         22   -1    0    0    0    0  0.00000000000E+00  0.00000000000E+00  0.19236440583E+00  0.19236440583E+00  0.00000000000E+00 0.  1.
         22   -1    0    0    0    0 -0.00000000000E+00 -0.00000000000E+00 -0.23286054759E+02  0.23286054759E+02  0.00000000000E+00 0. -1.
          4    1    1    2  501    0 -0.63299369908E+00 -0.19976419606E+01 -0.13193674989E+02  0.13359053639E+02  0.00000000000E+00 0. -1.
         -4    1    1    2    0  501  0.63299369908E+00  0.19976419606E+01 -0.99000153643E+01  0.10119365526E+02  0.00000000000E+00 0.  1.
<mgrwt>
<rscale>  0 0.20955320E+01</rscale>
<asrwt>0</asrwt>
<pdfrwt beam="1">0</pdfrwt>
<pdfrwt beam="2">0</pdfrwt>
<totfact> 0.35918514E+12</totfact>
</mgrwt>
</event>
<event>
 4    2  0.1060494E+006  0.3203865E+01  0.7546771E-02  0.2461434E+00
         22   -1    0    0    0    0  0.00000000000E+00  0.00000000000E+00  0.37119443056E+01  0.37119443056E+01  0.00000000000E+00 0. -1.
         22   -1    0    0    0    0 -0.00000000000E+00 -0.00000000000E+00 -0.42783325281E+01  0.42783325281E+01  0.00000000000E+00 0.  1.
          4    1    1    2  501    0  0.20805802364E+01  0.24363780555E+01 -0.26590185354E+01  0.41635479727E+01  0.00000000000E+00 0.  1.
         -4    1    1    2    0  501 -0.20805802364E+01 -0.24363780555E+01  0.20926303130E+01  0.38267288610E+01  0.00000000000E+00 0. -1.
<mgrwt>
<rscale>  0 0.32038652E+01</rscale>
<asrwt>0</asrwt>
<pdfrwt beam="1">0</pdfrwt>
<pdfrwt beam="2">0</pdfrwt>
<totfact> 0.95876834E+11</totfact>
</mgrwt>
</event>
<event>
 4    2  0.1060494E+006  0.2275352E+01  0.7546771E-02  0.2816699E+00
         22   -1    0    0    0    0  0.00000000000E+00  0.00000000000E+00  0.21007751224E+02  0.21007751224E+02  0.00000000000E+00 0.  1.
         22   -1    0    0    0    0 -0.00000000000E+00 -0.00000000000E+00 -0.27420421785E+00  0.27420421785E+00  0.00000000000E+00 0. -1.
          4    1    1    2  501    0  0.12883860102E+01  0.18754432407E+01  0.69809912472E+01  0.73424426898E+01  0.00000000000E+00 0. -1.
         -4    1    1    2    0  501 -0.12883860102E+01 -0.18754432407E+01  0.13752555759E+02  0.13939512752E+02  0.00000000000E+00 0.  1.
<mgrwt>
<rscale>  0 0.22753518E+01</rscale>
<asrwt>0</asrwt>
<pdfrwt beam="1">0</pdfrwt>
<pdfrwt beam="2">0</pdfrwt>
<totfact> 0.27501019E+12</totfact>
</mgrwt>
</event>
<event>
 4    2  0.1060494E+006  0.3216646E+01  0.7546771E-02  0.2457855E+00
         22   -1    0    0    0    0  0.00000000000E+00  0.00000000000E+00  0.20943076566E+01  0.20943076566E+01  0.00000000000E+00 0.  1.
         22   -1    0    0    0    0 -0.00000000000E+00 -0.00000000000E+00 -0.72852314418E+01  0.72852314418E+01  0.00000000000E+00 0. -1.
          4    1    1    2  501    0 -0.31841507924E+01 -0.45606584928E+00 -0.52560733022E+01  0.61622332710E+01  0.00000000000E+00 0. -1.
         -4    1    1    2    0  501  0.31841507924E+01  0.45606584928E+00  0.65149516982E-01  0.32173058274E+01  0.00000000000E+00 0.  1.
<mgrwt>
<rscale>  0 0.32166461E+01</rscale>
<asrwt>0</asrwt>
<pdfrwt beam="1">0</pdfrwt>
<pdfrwt beam="2">0</pdfrwt>
<totfact> 0.99307450E+11</totfact>
</mgrwt>
</event>
<event>
 4    2  0.1060494E+006  0.2061076E+01  0.7546771E-02  0.2940684E+00
         22   -1    0    0    0    0  0.00000000000E+00  0.00000000000E+00  0.15218356448E+02  0.15218356448E+02  0.00000000000E+00 0. -1.
         22   -1    0    0    0    0 -0.00000000000E+00 -0.00000000000E+00 -0.28931291608E+00  0.28931291608E+00  0.00000000000E+00 0.  1.
          4    1    1    2  501    0 -0.98659689939E+00 -0.18096018485E+01  0.89185840998E+01  0.91536426976E+01  0.00000000000E+00 0. -1.
         -4    1    1    2    0  501  0.98659689939E+00  0.18096018485E+01  0.60104594318E+01  0.63540266661E+01  0.00000000000E+00 0.  1.
<mgrwt>
<rscale>  0 0.20610755E+01</rscale>
<asrwt>0</asrwt>
<pdfrwt beam="1">0</pdfrwt>
<pdfrwt beam="2">0</pdfrwt>
<totfact> 0.38628615E+12</totfact>
</mgrwt>
</event>
<event>
 4    2  0.1060494E+006  0.2047232E+01  0.7546771E-02  0.2949556E+00
         22   -1    0    0    0    0  0.00000000000E+00  0.00000000000E+00  0.54022119926E+02  0.54022119926E+02  0.00000000000E+00 0.  1.
         22   -1    0    0    0    0 -0.00000000000E+00 -0.00000000000E+00 -0.10070475564E+00  0.10070475564E+00  0.00000000000E+00 0. -1.
          4    1    1    2  501    0  0.19442760478E+01  0.64105201922E+00  0.13993602951E+02  0.14142562731E+02  0.00000000000E+00 0. -1.
         -4    1    1    2    0  501 -0.19442760478E+01 -0.64105201922E+00  0.39927812220E+02  0.39980261951E+02  0.00000000000E+00 0.  1.
<mgrwt>
<rscale>  0 0.20472316E+01</rscale>
<asrwt>0</asrwt>
<pdfrwt beam="1">0</pdfrwt>
<pdfrwt beam="2">0</pdfrwt>
<totfact> 0.24916281E+12</totfact>
</mgrwt>
</event>
<event>
 4    2  0.1060494E+006  0.2475235E+01  0.7546771E-02  0.2719550E+00
         22   -1    0    0    0    0  0.00000000000E+00  0.00000000000E+00  0.24461181371E+02  0.24461181371E+02  0.00000000000E+00 0. -1.
         22   -1    0    0    0    0 -0.00000000000E+00 -0.00000000000E+00 -0.56843186975E+00  0.56843186975E+00  0.00000000000E+00 0.  1.
          4    1    1    2  501    0  0.17135307702E+01  0.17862251541E+01  0.25864454330E+01  0.35800122876E+01  0.00000000000E+00 0.  1.
         -4    1    1    2    0  501 -0.17135307702E+01 -0.17862251541E+01  0.21306304068E+02  0.21449600953E+02  0.00000000000E+00 0. -1.
<mgrwt>
<rscale>  0 0.24752349E+01</rscale>
<asrwt>0</asrwt>
<pdfrwt beam="1">0</pdfrwt>
<pdfrwt beam="2">0</pdfrwt>
<totfact> 0.10001766E+12</totfact>
</mgrwt>
</event>
<event>
 4    2  0.1060494E+006  0.2423170E+01  0.7546771E-02  0.2743402E+00
         22   -1    0    0    0    0  0.00000000000E+00  0.00000000000E+00  0.64997172558E+00  0.64997172558E+00  0.00000000000E+00 0.  1.
         22   -1    0    0    0    0 -0.00000000000E+00 -0.00000000000E+00 -0.90813846984E+01  0.90813846984E+01  0.00000000000E+00 0. -1.
          4    1    1    2  501    0  0.18458039032E+01 -0.15699564114E+01 -0.38637283277E+01  0.45607183396E+01  0.00000000000E+00 0.  1.
         -4    1    1    2    0  501 -0.18458039032E+01  0.15699564114E+01 -0.45676846451E+01  0.51706380844E+01  0.00000000000E+00 0. -1.
<mgrwt>
<rscale>  0 0.24231705E+01</rscale>
<asrwt>0</asrwt>
<pdfrwt beam="1">0</pdfrwt>
<pdfrwt beam="2">0</pdfrwt>
<totfact> 0.29106357E+12</totfact>
</mgrwt>
</event>
<event>
 4    2  0.1060494E+006  0.2663865E+01  0.7546771E-02  0.2640417E+00
         22   -1    0    0    0    0  0.00000000000E+00  0.00000000000E+00  0.19319962855E+01  0.19319962855E+01  0.00000000000E+00 0.  1.
         22   -1    0    0    0    0 -0.00000000000E+00 -0.00000000000E+00 -0.47867237007E+01  0.47867237007E+01  0.00000000000E+00 0. -1.
          4    1    1    2  501    0 -0.26407045293E+01 -0.35051208640E+00  0.19306697824E+00  0.26708526713E+01  0.00000000000E+00 0.  1.
         -4    1    1    2    0  501  0.26407045293E+01  0.35051208640E+00 -0.30477943935E+01  0.40478673149E+01  0.00000000000E+00 0. -1.
<mgrwt>
<rscale>  0 0.26638654E+01</rscale>
<asrwt>0</asrwt>
<pdfrwt beam="1">0</pdfrwt>
<pdfrwt beam="2">0</pdfrwt>
<totfact> 0.17971201E+12</totfact>
</mgrwt>
</event>
<event>
 4    2  0.1060494E+006  0.5588656E+01  0.7546771E-02  0.2058668E+00
         22   -1    0    0    0    0  0.00000000000E+00  0.00000000000E+00  0.13098052522E+01  0.13098052522E+01  0.00000000000E+00 0.  1.
         22   -1    0    0    0    0 -0.00000000000E+00 -0.00000000000E+00 -0.24056869492E+02  0.24056869492E+02  0.00000000000E+00 0. -1.
          4    1    1    2  501    0 -0.18450717354E+01  0.52752991589E+01 -0.12562168493E+02  0.13749223548E+02  0.00000000000E+00 0.  1.
         -4    1    1    2    0  501  0.18450717354E+01 -0.52752991589E+01 -0.10184895747E+02  0.11617451197E+02  0.00000000000E+00 0. -1.
<mgrwt>
<rscale>  0 0.55886556E+01</rscale>
<asrwt>0</asrwt>
<pdfrwt beam="1">0</pdfrwt>
<pdfrwt beam="2">0</pdfrwt>
<totfact> 0.39465221E+11</totfact>
</mgrwt>
</event>
<event>
 4    2  0.1060494E+006  0.6184011E+01  0.7546771E-02  0.2003568E+00
         22   -1    0    0    0    0  0.00000000000E+00  0.00000000000E+00  0.19536598084E+01  0.19536598084E+01  0.00000000000E+00 0.  1.
         22   -1    0    0    0    0 -0.00000000000E+00 -0.00000000000E+00 -0.20779065695E+02  0.20779065695E+02  0.00000000000E+00 0. -1.
          4    1    1    2  501    0 -0.46970238755E+01  0.40224318408E+01 -0.12149336313E+02  0.13632621320E+02  0.00000000000E+00 0. -1.
         -4    1    1    2    0  501  0.46970238755E+01 -0.40224318408E+01 -0.66760695734E+01  0.91001041834E+01  0.00000000000E+00 0.  1.
<mgrwt>
<rscale>  0 0.61840109E+01</rscale>
<asrwt>0</asrwt>
<pdfrwt beam="1">0</pdfrwt>
<pdfrwt beam="2">0</pdfrwt>
<totfact> 0.29917337E+11</totfact>
</mgrwt>
</event>
<event>
 4    2  0.1060494E+006  0.3175697E+01  0.7546771E-02  0.2469414E+00
         22   -1    0    0    0    0  0.00000000000E+00  0.00000000000E+00  0.45330498504E+02  0.45330498504E+02  0.00000000000E+00 0.  1.
         22   -1    0    0    0    0 -0.00000000000E+00 -0.00000000000E+00 -0.23642255865E+00  0.23642255865E+00  0.00000000000E+00 0. -1.
          4    1    1    2  501    0 -0.30516995924E+01  0.87873805195E+00  0.17013875962E+02  0.17307715800E+02  0.00000000000E+00 0. -1.
         -4    1    1    2    0  501  0.30516995924E+01 -0.87873805195E+00  0.28080199984E+02  0.28259205263E+02  0.00000000000E+00 0.  1.
<mgrwt>
<rscale>  0 0.31756969E+01</rscale>
<asrwt>0</asrwt>
<pdfrwt beam="1">0</pdfrwt>
<pdfrwt beam="2">0</pdfrwt>
<totfact> 0.12153136E+12</totfact>
</mgrwt>
</event>
<event>
 4    2  0.1060494E+006  0.2490418E+01  0.7546771E-02  0.2712770E+00
         22   -1    0    0    0    0  0.00000000000E+00  0.00000000000E+00  0.28645384333E+00  0.28645384333E+00  0.00000000000E+00 0. -1.
         22   -1    0    0    0    0 -0.00000000000E+00 -0.00000000000E+00 -0.48480143895E+02  0.48480143895E+02  0.00000000000E+00 0.  1.
          4    1    1    2  501    0 -0.19207966166E+01  0.15851561979E+01 -0.42235671333E+02  0.42309031102E+02  0.00000000000E+00 0.  1.
         -4    1    1    2    0  501  0.19207966166E+01 -0.15851561979E+01 -0.59580187182E+01  0.64575666362E+01  0.00000000000E+00 0. -1.
<mgrwt>
<rscale>  0 0.24904176E+01</rscale>
<asrwt>0</asrwt>
<pdfrwt beam="1">0</pdfrwt>
<pdfrwt beam="2">0</pdfrwt>
<totfact> 0.89759729E+11</totfact>
</mgrwt>
</event>
<event>
 4    2  0.1060494E+006  0.2420160E+01  0.7546771E-02  0.2744811E+00
         22   -1    0    0    0    0  0.00000000000E+00  0.00000000000E+00  0.73760896401E+01  0.73760896401E+01  0.00000000000E+00 0. -1.
         22   -1    0    0    0    0 -0.00000000000E+00 -0.00000000000E+00 -0.81613759045E+00  0.81613759045E+00  0.00000000000E+00 0.  1.
          4    1    1    2  501    0  0.19723883770E+01  0.14024478988E+01  0.26065213631E+01  0.35568426497E+01  0.00000000000E+00 0.  1.
         -4    1    1    2    0  501 -0.19723883770E+01 -0.14024478988E+01  0.39534306865E+01  0.46353845808E+01  0.00000000000E+00 0. -1.
<mgrwt>
<rscale>  0 0.24201603E+01</rscale>
<asrwt>0</asrwt>
<pdfrwt beam="1">0</pdfrwt>
<pdfrwt beam="2">0</pdfrwt>
<totfact> 0.28859772E+12</totfact>
</mgrwt>
</event>
<event>
 4    2  0.1060494E+006  0.3947525E+01  0.7546771E-02  0.2287439E+00
         22   -1    0    0    0    0  0.00000000000E+00  0.00000000000E+00  0.40045598376E+01  0.40045598376E+01  0.00000000000E+00 0.  1.
         22   -1    0    0    0    0 -0.00000000000E+00 -0.00000000000E+00 -0.40552426322E+01  0.40552426322E+01  0.00000000000E+00 0. -1.
          4    1    1    2  501    0 -0.20498261496E+01 -0.33735986597E+01  0.78492558194E+00  0.40248059990E+01  0.00000000000E+00 0.  1.
         -4    1    1    2    0  501  0.20498261496E+01  0.33735986597E+01 -0.83560837654E+00  0.40349964708E+01  0.00000000000E+00 0. -1.
<mgrwt>
<rscale>  0 0.39475252E+01</rscale>
<asrwt>0</asrwt>
<pdfrwt beam="1">0</pdfrwt>
<pdfrwt beam="2">0</pdfrwt>
<totfact> 0.93405709E+11</totfact>
</mgrwt>
</event>
<event>
 4    2  0.1060494E+006  0.2333530E+01  0.7546771E-02  0.2786805E+00
         22   -1    0    0    0    0  0.00000000000E+00  0.00000000000E+00  0.93977315860E+00  0.93977315860E+00  0.00000000000E+00 0. -1.
         22   -1    0    0    0    0 -0.00000000000E+00 -0.00000000000E+00 -0.10061129165E+02  0.10061129165E+02  0.00000000000E+00 0.  1.
          4    1    1    2  501    0 -0.11502893618E+01 -0.20303194358E+01 -0.81426788323E+01  0.84704534232E+01  0.00000000000E+00 0.  1.
         -4    1    1    2    0  501  0.11502893618E+01  0.20303194358E+01 -0.97867717432E+00  0.25304489007E+01  0.00000000000E+00 0. -1.
<mgrwt>
<rscale>  0 0.23335301E+01</rscale>
<asrwt>0</asrwt>
<pdfrwt beam="1">0</pdfrwt>
<pdfrwt beam="2">0</pdfrwt>
<totfact> 0.16908157E+12</totfact>
</mgrwt>
</event>
<event>
 4    2  0.1060494E+006  0.2132489E+01  0.7546771E-02  0.2896696E+00
         22   -1    0    0    0    0  0.00000000000E+00  0.00000000000E+00  0.83199071068E+00  0.83199071068E+00  0.00000000000E+00 0.  1.
         22   -1    0    0    0    0 -0.00000000000E+00 -0.00000000000E+00 -0.55889117562E+01  0.55889117562E+01  0.00000000000E+00 0. -1.
          4    1    1    2  501    0 -0.12050891779E+01  0.17593372332E+01 -0.28549194846E+01  0.35634355179E+01  0.00000000000E+00 0.  1.
         -4    1    1    2    0  501  0.12050891779E+01 -0.17593372332E+01 -0.19020015609E+01  0.28574669490E+01  0.00000000000E+00 0. -1.
<mgrwt>
<rscale>  0 0.21324886E+01</rscale>
<asrwt>0</asrwt>
<pdfrwt beam="1">0</pdfrwt>
<pdfrwt beam="2">0</pdfrwt>
<totfact> 0.39310577E+12</totfact>
</mgrwt>
</event>
<event>
 4    2  0.1060494E+006  0.4194395E+01  0.7546771E-02  0.2241607E+00
         22   -1    0    0    0    0  0.00000000000E+00  0.00000000000E+00  0.38775608663E+02  0.38775608663E+02  0.00000000000E+00 0.  1.
         22   -1    0    0    0    0 -0.00000000000E+00 -0.00000000000E+00 -0.45916116347E+00  0.45916116347E+00  0.00000000000E+00 0. -1.
          4    1    1    2  501    0 -0.22135468832E+01 -0.35627458767E+01  0.17021075088E+02  0.17530257988E+02  0.00000000000E+00 0.  1.
         -4    1    1    2    0  501  0.22135468832E+01  0.35627458767E+01  0.21295372411E+02  0.21704511838E+02  0.00000000000E+00 0. -1.
<mgrwt>
<rscale>  0 0.41943948E+01</rscale>
<asrwt>0</asrwt>
<pdfrwt beam="1">0</pdfrwt>
<pdfrwt beam="2">0</pdfrwt>
<totfact> 0.70691450E+11</totfact>
</mgrwt>
</event>
<event>
 4    2  0.1060494E+006  0.2757084E+01  0.7546771E-02  0.2605006E+00
         22   -1    0    0    0    0  0.00000000000E+00  0.00000000000E+00  0.39703192174E+01  0.39703192174E+01  0.00000000000E+00 0.  1.
         22   -1    0    0    0    0 -0.00000000000E+00 -0.00000000000E+00 -0.46910225805E+01  0.46910225805E+01  0.00000000000E+00 0. -1.
          4    1    1    2  501    0 -0.26636768751E+01  0.71157226352E+00 -0.36920483649E+01  0.46078987305E+01  0.00000000000E+00 0. -1.
         -4    1    1    2    0  501  0.26636768751E+01 -0.71157226352E+00  0.29713450018E+01  0.40534430675E+01  0.00000000000E+00 0.  1.
<mgrwt>
<rscale>  0 0.27570835E+01</rscale>
<asrwt>0</asrwt>
<pdfrwt beam="1">0</pdfrwt>
<pdfrwt beam="2">0</pdfrwt>
<totfact> 0.79460505E+11</totfact>
</mgrwt>
</event>
<event>
 4    2  0.1060494E+006  0.2007018E+01  0.7546771E-02  0.2976006E+00
         22   -1    0    0    0    0  0.00000000000E+00  0.00000000000E+00  0.13802928426E+01  0.13802928426E+01  0.00000000000E+00 0.  1.
         22   -1    0    0    0    0 -0.00000000000E+00 -0.00000000000E+00 -0.40739278989E+01  0.40739278989E+01  0.00000000000E+00 0. -1.
          4    1    1    2  501    0 -0.16949852368E+01  0.10747766681E+01 -0.27992753342E+01  0.34444248048E+01  0.00000000000E+00 0. -1.
         -4    1    1    2    0  501  0.16949852368E+01 -0.10747766681E+01  0.10564027787E+00  0.20097959368E+01  0.00000000000E+00 0.  1.
<mgrwt>
<rscale>  0 0.20070176E+01</rscale>
<asrwt>0</asrwt>
<pdfrwt beam="1">0</pdfrwt>
<pdfrwt beam="2">0</pdfrwt>
<totfact> 0.32024156E+12</totfact>
</mgrwt>
</event>
<event>
 4    2  0.1060494E+006  0.2263529E+01  0.7546771E-02  0.2822953E+00
         22   -1    0    0    0    0  0.00000000000E+00  0.00000000000E+00  0.15492395442E+01  0.15492395442E+01  0.00000000000E+00 0.  1.
         22   -1    0    0    0    0 -0.00000000000E+00 -0.00000000000E+00 -0.94441986863E+01  0.94441986863E+01  0.00000000000E+00 0. -1.
          4    1    1    2  501    0  0.22550409923E+01 -0.19584019175E+00 -0.83784705909E+01  0.86788439726E+01  0.00000000000E+00 0. -1.
         -4    1    1    2    0  501 -0.22550409923E+01  0.19584019175E+00  0.48351144881E+00  0.23145942579E+01  0.00000000000E+00 0.  1.
<mgrwt>
<rscale>  0 0.22635289E+01</rscale>
<asrwt>0</asrwt>
<pdfrwt beam="1">0</pdfrwt>
<pdfrwt beam="2">0</pdfrwt>
<totfact> 0.10293553E+12</totfact>
</mgrwt>
</event>
<event>
 4    2  0.1060494E+006  0.4857637E+01  0.7546771E-02  0.2140390E+00
         22   -1    0    0    0    0  0.00000000000E+00  0.00000000000E+00  0.43666498403E+01  0.43666498403E+01  0.00000000000E+00 0. -1.
         22   -1    0    0    0    0 -0.00000000000E+00 -0.00000000000E+00 -0.10262292418E+02  0.10262292418E+02  0.00000000000E+00 0.  1.
          4    1    1    2  501    0 -0.43376183308E+01 -0.21867117492E+01 -0.79806260476E+01  0.93427529759E+01  0.00000000000E+00 0.  1.
         -4    1    1    2    0  501  0.43376183308E+01  0.21867117492E+01  0.20849834699E+01  0.52861892823E+01  0.00000000000E+00 0. -1.
<mgrwt>
<rscale>  0 0.48576374E+01</rscale>
<asrwt>0</asrwt>
<pdfrwt beam="1">0</pdfrwt>
<pdfrwt beam="2">0</pdfrwt>
<totfact> 0.27848603E+11</totfact>
</mgrwt>
</event>
<event>
 4    2  0.1060494E+006  0.3615874E+01  0.7546771E-02  0.2357343E+00
         22   -1    0    0    0    0  0.00000000000E+00  0.00000000000E+00  0.32017427568E+00  0.32017427568E+00  0.00000000000E+00 0.  1.
         22   -1    0    0    0    0 -0.00000000000E+00 -0.00000000000E+00 -0.48793081625E+02  0.48793081625E+02  0.00000000000E+00 0. -1.
          4    1    1    2  501    0  0.15570288692E+01  0.32634652157E+01 -0.34153318794E+02  0.34344194979E+02  0.00000000000E+00 0. -1.
         -4    1    1    2    0  501 -0.15570288692E+01 -0.32634652157E+01 -0.14319588555E+02  0.14769060922E+02  0.00000000000E+00 0.  1.
<mgrwt>
<rscale>  0 0.36158739E+01</rscale>
<asrwt>0</asrwt>
<pdfrwt beam="1">0</pdfrwt>
<pdfrwt beam="2">0</pdfrwt>
<totfact> 0.78563562E+11</totfact>
</mgrwt>
</event>
<event>
 4    2  0.1060494E+006  0.2195352E+01  0.7546771E-02  0.2860266E+00
         22   -1    0    0    0    0  0.00000000000E+00  0.00000000000E+00  0.12930372986E+01  0.12930372986E+01  0.00000000000E+00 0. -1.
         22   -1    0    0    0    0 -0.00000000000E+00 -0.00000000000E+00 -0.14771052202E+02  0.14771052202E+02  0.00000000000E+00 0.  1.
          4    1    1    2  501    0 -0.70924837501E+00 -0.20776280320E+01 -0.13684102907E+02  0.13859085246E+02  0.00000000000E+00 0.  1.
         -4    1    1    2    0  501  0.70924837501E+00  0.20776280320E+01  0.20608800337E+00  0.22050042544E+01  0.00000000000E+00 0. -1.
<mgrwt>
<rscale>  0 0.21953522E+01</rscale>
<asrwt>0</asrwt>
<pdfrwt beam="1">0</pdfrwt>
<pdfrwt beam="2">0</pdfrwt>
<totfact> 0.73460420E+11</totfact>
</mgrwt>
</event>
<event>
 4    2  0.1060494E+006  0.5962998E+01  0.7546771E-02  0.2023022E+00
         22   -1    0    0    0    0  0.00000000000E+00  0.00000000000E+00  0.44400495948E+01  0.44400495948E+01  0.00000000000E+00 0.  1.
         22   -1    0    0    0    0 -0.00000000000E+00 -0.00000000000E+00 -0.12200357959E+02  0.12200357959E+02  0.00000000000E+00 0. -1.
          4    1    1    2  501    0  0.15298261898E+01  0.57634171336E+01 -0.87572377271E+01  0.10594647603E+02  0.00000000000E+00 0.  1.
         -4    1    1    2    0  501 -0.15298261898E+01 -0.57634171336E+01  0.99692936290E+00  0.60457599507E+01  0.00000000000E+00 0. -1.
<mgrwt>
<rscale>  0 0.59629980E+01</rscale>
<asrwt>0</asrwt>
<pdfrwt beam="1">0</pdfrwt>
<pdfrwt beam="2">0</pdfrwt>
<totfact> 0.22126040E+11</totfact>
</mgrwt>
</event>
<event>
 4    2  0.1060494E+006  0.2044620E+01  0.7546771E-02  0.2951243E+00
         22   -1    0    0    0    0  0.00000000000E+00  0.00000000000E+00  0.91350782285E+01  0.91350782285E+01  0.00000000000E+00 0.  1.
         22   -1    0    0    0    0 -0.00000000000E+00 -0.00000000000E+00 -0.52430198709E+00  0.52430198709E+00  0.00000000000E+00 0. -1.
          4    1    1    2  501    0  0.19939498204E+01  0.45236641031E+00  0.25831015453E+01  0.32943716926E+01  0.00000000000E+00 0.  1.
         -4    1    1    2    0  501 -0.19939498204E+01 -0.45236641031E+00  0.60276746961E+01  0.63650085230E+01  0.00000000000E+00 0. -1.
<mgrwt>
<rscale>  0 0.20446201E+01</rscale>
<asrwt>0</asrwt>
<pdfrwt beam="1">0</pdfrwt>
<pdfrwt beam="2">0</pdfrwt>
<totfact> 0.36854112E+12</totfact>
</mgrwt>
</event>
<event>
 4    2  0.1060494E+006  0.3239496E+01  0.7546771E-02  0.2451517E+00
         22   -1    0    0    0    0  0.00000000000E+00  0.00000000000E+00  0.38736017148E+02  0.38736017148E+02  0.00000000000E+00 0.  1.
         22   -1    0    0    0    0 -0.00000000000E+00 -0.00000000000E+00 -0.34170392404E+00  0.34170392404E+00  0.00000000000E+00 0. -1.
          4    1    1    2  501    0  0.24750756815E+01 -0.20900562178E+01  0.10304250299E+02  0.10801477161E+02  0.00000000000E+00 0. -1.
         -4    1    1    2    0  501 -0.24750756815E+01  0.20900562178E+01  0.28090062925E+02  0.28276243912E+02  0.00000000000E+00 0.  1.
<mgrwt>
<rscale>  0 0.32394960E+01</rscale>
<asrwt>0</asrwt>
<pdfrwt beam="1">0</pdfrwt>
<pdfrwt beam="2">0</pdfrwt>
<totfact> 0.98708641E+11</totfact>
</mgrwt>
</event>
<event>
 4    2  0.1060494E+006  0.3442303E+01  0.7546771E-02  0.2398533E+00
         22   -1    0    0    0    0  0.00000000000E+00  0.00000000000E+00  0.24792198851E+00  0.24792198851E+00  0.00000000000E+00 0. -1.
         22   -1    0    0    0    0 -0.00000000000E+00 -0.00000000000E+00 -0.77409466974E+02  0.77409466974E+02  0.00000000000E+00 0.  1.
          4    1    1    2  501    0 -0.14902712839E+01 -0.31029887278E+01 -0.62597135210E+02  0.62691712244E+02  0.00000000000E+00 0.  1.
         -4    1    1    2    0  501  0.14902712839E+01  0.31029887278E+01 -0.14564409775E+02  0.14965676719E+02  0.00000000000E+00 0. -1.
<mgrwt>
<rscale>  0 0.34423027E+01</rscale>
<asrwt>0</asrwt>
<pdfrwt beam="1">0</pdfrwt>
<pdfrwt beam="2">0</pdfrwt>
<totfact> 0.56325912E+11</totfact>
</mgrwt>
</event>
<event>
 4    2  0.1060494E+006  0.3026254E+01  0.7546771E-02  0.2513948E+00
         22   -1    0    0    0    0  0.00000000000E+00  0.00000000000E+00  0.10768709313E+01  0.10768709313E+01  0.00000000000E+00 0. -1.
         22   -1    0    0    0    0 -0.00000000000E+00 -0.00000000000E+00 -0.13153212765E+02  0.13153212765E+02  0.00000000000E+00 0.  1.
          4    1    1    2  501    0 -0.13828832260E+00 -0.30230925934E+01 -0.10268064770E+02  0.10704735709E+02  0.00000000000E+00 0.  1.
         -4    1    1    2    0  501  0.13828832260E+00  0.30230925934E+01 -0.18082770637E+01  0.35253479867E+01  0.00000000000E+00 0. -1.
<mgrwt>
<rscale>  0 0.30262539E+01</rscale>
<asrwt>0</asrwt>
<pdfrwt beam="1">0</pdfrwt>
<pdfrwt beam="2">0</pdfrwt>
<totfact> 0.10444457E+12</totfact>
</mgrwt>
</event>
<event>
 4    2  0.1060494E+006  0.2340465E+01  0.7546771E-02  0.2783335E+00
         22   -1    0    0    0    0  0.00000000000E+00  0.00000000000E+00  0.37459657664E+01  0.37459657664E+01  0.00000000000E+00 0. -1.
         22   -1    0    0    0    0 -0.00000000000E+00 -0.00000000000E+00 -0.23925397053E+01  0.23925397053E+01  0.00000000000E+00 0.  1.
          4    1    1    2  501    0 -0.21458796211E+01  0.93433187376E+00 -0.12370907865E+01  0.26472946592E+01  0.00000000000E+00 0.  1.
         -4    1    1    2    0  501  0.21458796211E+01 -0.93433187376E+00  0.25905168477E+01  0.34912108124E+01  0.00000000000E+00 0. -1.
<mgrwt>
<rscale>  0 0.23404648E+01</rscale>
<asrwt>0</asrwt>
<pdfrwt beam="1">0</pdfrwt>
<pdfrwt beam="2">0</pdfrwt>
<totfact> 0.18724521E+12</totfact>
</mgrwt>
</event>
<event>
 4    2  0.1060494E+006  0.2967282E+01  0.7546771E-02  0.2532621E+00
         22   -1    0    0    0    0  0.00000000000E+00  0.00000000000E+00  0.42208172216E+00  0.42208172216E+00  0.00000000000E+00 0.  1.
         22   -1    0    0    0    0 -0.00000000000E+00 -0.00000000000E+00 -0.22971264853E+02  0.22971264853E+02  0.00000000000E+00 0. -1.
          4    1    1    2  501    0  0.21442423016E+01 -0.20510944821E+01 -0.14820335875E+02  0.15114467211E+02  0.00000000000E+00 0.  1.
         -4    1    1    2    0  501 -0.21442423016E+01  0.20510944821E+01 -0.77288472553E+01  0.82788793637E+01  0.00000000000E+00 0. -1.
<mgrwt>
<rscale>  0 0.29672822E+01</rscale>
<asrwt>0</asrwt>
<pdfrwt beam="1">0</pdfrwt>
<pdfrwt beam="2">0</pdfrwt>
<totfact> 0.15148302E+12</totfact>
</mgrwt>
</event>
<event>
 4    2  0.1060494E+006  0.2223338E+01  0.7546771E-02  0.2844685E+00
         22   -1    0    0    0    0  0.00000000000E+00  0.00000000000E+00  0.10942941630E+02  0.10942941630E+02  0.00000000000E+00 0. -1.
         22   -1    0    0    0    0 -0.00000000000E+00 -0.00000000000E+00 -0.48893985940E+00  0.48893985940E+00  0.00000000000E+00 0.  1.
          4    1    1    2  501    0  0.55582675614E+00  0.21527397279E+01  0.36501107435E+01  0.42739373134E+01  0.00000000000E+00 0. -1.
         -4    1    1    2    0  501 -0.55582675614E+00 -0.21527397279E+01  0.68038910272E+01  0.71579441762E+01  0.00000000000E+00 0.  1.
<mgrwt>
<rscale>  0 0.22233380E+01</rscale>
<asrwt>0</asrwt>
<pdfrwt beam="1">0</pdfrwt>
<pdfrwt beam="2">0</pdfrwt>
<totfact> 0.32047591E+12</totfact>
</mgrwt>
</event>
<event>
 4    2  0.1060494E+006  0.3057052E+01  0.7546771E-02  0.2504453E+00
         22   -1    0    0    0    0  0.00000000000E+00  0.00000000000E+00  0.10138751295E+01  0.10138751295E+01  0.00000000000E+00 0. -1.
         22   -1    0    0    0    0 -0.00000000000E+00 -0.00000000000E+00 -0.28288451640E+02  0.28288451640E+02  0.00000000000E+00 0.  1.
          4    1    1    2  501    0  0.26795596159E+01  0.14715721826E+01 -0.25666905006E+02  0.25848318650E+02  0.00000000000E+00 0.  1.
         -4    1    1    2    0  501 -0.26795596159E+01 -0.14715721826E+01 -0.16076715040E+01  0.34540081194E+01  0.00000000000E+00 0. -1.
<mgrwt>
<rscale>  0 0.30570516E+01</rscale>
<asrwt>0</asrwt>
<pdfrwt beam="1">0</pdfrwt>
<pdfrwt beam="2">0</pdfrwt>
<totfact> 0.43109907E+11</totfact>
</mgrwt>
</event>
<event>
 4    2  0.1060494E+006  0.2049757E+01  0.7546771E-02  0.2947929E+00
         22   -1    0    0    0    0  0.00000000000E+00  0.00000000000E+00  0.19708980307E+02  0.19708980307E+02  0.00000000000E+00 0. -1.
         22   -1    0    0    0    0 -0.00000000000E+00 -0.00000000000E+00 -0.23486324910E+00  0.23486324910E+00  0.00000000000E+00 0.  1.
          4    1    1    2  501    0 -0.83658240016E+00 -0.18712647410E+01  0.67069144899E+01  0.70131450732E+01  0.00000000000E+00 0.  1.
         -4    1    1    2    0  501  0.83658240016E+00  0.18712647410E+01  0.12767202568E+02  0.12930698483E+02  0.00000000000E+00 0. -1.
<mgrwt>
<rscale>  0 0.20497565E+01</rscale>
<asrwt>0</asrwt>
<pdfrwt beam="1">0</pdfrwt>
<pdfrwt beam="2">0</pdfrwt>
<totfact> 0.35413206E+12</totfact>
</mgrwt>
</event>
<event>
 4    2  0.1060494E+006  0.2895479E+01  0.7546771E-02  0.2556278E+00
         22   -1    0    0    0    0  0.00000000000E+00  0.00000000000E+00  0.28651664609E+01  0.28651664609E+01  0.00000000000E+00 0. -1.
         22   -1    0    0    0    0 -0.00000000000E+00 -0.00000000000E+00 -0.30250118440E+01  0.30250118440E+01  0.00000000000E+00 0.  1.
          4    1    1    2  501    0  0.69718336062E+00  0.28102903627E+01 -0.61244006847E+00  0.29595404033E+01  0.00000000000E+00 0. -1.
         -4    1    1    2    0  501 -0.69718336062E+00 -0.28102903627E+01  0.45259468531E+00  0.29306379016E+01  0.00000000000E+00 0.  1.
<mgrwt>
<rscale>  0 0.28954786E+01</rscale>
<asrwt>0</asrwt>
<pdfrwt beam="1">0</pdfrwt>
<pdfrwt beam="2">0</pdfrwt>
<totfact> 0.19499450E+12</totfact>
</mgrwt>
</event>
<event>
 4    2  0.1060494E+006  0.2008874E+01  0.7546771E-02  0.2974763E+00
         22   -1    0    0    0    0  0.00000000000E+00  0.00000000000E+00  0.91278974098E+01  0.91278974098E+01  0.00000000000E+00 0. -1.
         22   -1    0    0    0    0 -0.00000000000E+00 -0.00000000000E+00 -0.85519796228E+00  0.85519796228E+00  0.00000000000E+00 0.  1.
          4    1    1    2  501    0 -0.17417419990E+01  0.10009533590E+01  0.66721655218E+00  0.21167783883E+01  0.00000000000E+00 0.  1.
         -4    1    1    2    0  501  0.17417419990E+01 -0.10009533590E+01  0.76054828953E+01  0.78663169837E+01  0.00000000000E+00 0. -1.
<mgrwt>
<rscale>  0 0.20088735E+01</rscale>
<asrwt>0</asrwt>
<pdfrwt beam="1">0</pdfrwt>
<pdfrwt beam="2">0</pdfrwt>
<totfact> 0.21176623E+12</totfact>
</mgrwt>
</event>
<event>
 4    2  0.1060494E+006  0.3149636E+01  0.7546771E-02  0.2476909E+00
         22   -1    0    0    0    0  0.00000000000E+00  0.00000000000E+00  0.20970835991E+00  0.20970835991E+00  0.00000000000E+00 0.  1.
         22   -1    0    0    0    0 -0.00000000000E+00 -0.00000000000E+00 -0.51014359587E+02  0.51014359587E+02  0.00000000000E+00 0. -1.
          4    1    1    2  501    0  0.91965849987E+00 -0.30123802588E+01 -0.18495785394E+02  0.18762043703E+02  0.00000000000E+00 0.  1.
         -4    1    1    2    0  501 -0.91965849987E+00  0.30123802588E+01 -0.32308865833E+02  0.32462024244E+02  0.00000000000E+00 0. -1.
<mgrwt>
<rscale>  0 0.31496359E+01</rscale>
<asrwt>0</asrwt>
<pdfrwt beam="1">0</pdfrwt>
<pdfrwt beam="2">0</pdfrwt>
<totfact> 0.11895688E+12</totfact>
</mgrwt>
</event>
<event>
 4    2  0.1060494E+006  0.2700138E+01  0.7546771E-02  0.2626372E+00
         22   -1    0    0    0    0  0.00000000000E+00  0.00000000000E+00  0.12564464484E+01  0.12564464484E+01  0.00000000000E+00 0.  1.
         22   -1    0    0    0    0 -0.00000000000E+00 -0.00000000000E+00 -0.16368733850E+02  0.16368733850E+02  0.00000000000E+00 0. -1.
          4    1    1    2  501    0  0.94849353658E+00 -0.25280640517E+01 -0.14636458763E+02  0.14883436194E+02  0.00000000000E+00 0. -1.
         -4    1    1    2    0  501 -0.94849353658E+00  0.25280640517E+01 -0.47582863881E+00  0.27417441040E+01  0.00000000000E+00 0.  1.
<mgrwt>
<rscale>  0 0.27001385E+01</rscale>
<asrwt>0</asrwt>
<pdfrwt beam="1">0</pdfrwt>
<pdfrwt beam="2">0</pdfrwt>
<totfact> 0.66896382E+11</totfact>
</mgrwt>
</event>
<event>
 4    2  0.1060494E+006  0.7643963E+01  0.7546771E-02  0.1897551E+00
         22   -1    0    0    0    0  0.00000000000E+00  0.00000000000E+00  0.16495215578E+02  0.16495215578E+02  0.00000000000E+00 0.  1.
         22   -1    0    0    0    0 -0.00000000000E+00 -0.00000000000E+00 -0.35595634230E+01  0.35595634230E+01  0.00000000000E+00 0. -1.
          4    1    1    2  501    0 -0.62125692734E+01  0.44535555345E+01  0.57684936746E+01  0.95763089523E+01  0.00000000000E+00 0. -1.
         -4    1    1    2    0  501  0.62125692734E+01 -0.44535555345E+01  0.71671584801E+01  0.10478470048E+02  0.00000000000E+00 0.  1.
<mgrwt>
<rscale>  0 0.76439632E+01</rscale>
<asrwt>0</asrwt>
<pdfrwt beam="1">0</pdfrwt>
<pdfrwt beam="2">0</pdfrwt>
<totfact> 0.19816383E+11</totfact>
</mgrwt>
</event>
<event>
 4    2  0.1060494E+006  0.1027504E+02  0.7546771E-02  0.1767595E+00
         22   -1    0    0    0    0  0.00000000000E+00  0.00000000000E+00  0.33236473249E+01  0.33236473249E+01  0.00000000000E+00 0. -1.
         22   -1    0    0    0    0 -0.00000000000E+00 -0.00000000000E+00 -0.46891994145E+02  0.46891994145E+02  0.00000000000E+00 0.  1.
          4    1    1    2  501    0 -0.25728788918E+01 -0.99477005343E+01 -0.36044601282E+02  0.37480524720E+02  0.00000000000E+00 0.  1.
         -4    1    1    2    0  501  0.25728788918E+01  0.99477005343E+01 -0.75237455381E+01  0.12735116750E+02  0.00000000000E+00 0. -1.
<mgrwt>
<rscale>  0 0.10275040E+02</rscale>
<asrwt>0</asrwt>
<pdfrwt beam="1">0</pdfrwt>
<pdfrwt beam="2">0</pdfrwt>
<totfact> 0.56939504E+10</totfact>
</mgrwt>
</event>
<event>
 4    2  0.1060494E+006  0.2110058E+01  0.7546771E-02  0.2910202E+00
         22   -1    0    0    0    0  0.00000000000E+00  0.00000000000E+00  0.40166584345E+01  0.40166584345E+01  0.00000000000E+00 0.  1.
         22   -1    0    0    0    0 -0.00000000000E+00 -0.00000000000E+00 -0.12474460453E+01  0.12474460453E+01  0.00000000000E+00 0. -1.
          4    1    1    2  501    0 -0.20902576880E+01 -0.28838737257E+00  0.50608156269E+00  0.21698993126E+01  0.00000000000E+00 0. -1.
         -4    1    1    2    0  501  0.20902576880E+01  0.28838737257E+00  0.22631308264E+01  0.30942051672E+01  0.00000000000E+00 0.  1.
<mgrwt>
<rscale>  0 0.21100579E+01</rscale>
<asrwt>0</asrwt>
<pdfrwt beam="1">0</pdfrwt>
<pdfrwt beam="2">0</pdfrwt>
<totfact> 0.36573666E+12</totfact>
</mgrwt>
</event>
<event>
 4    2  0.1060494E+006  0.4652313E+01  0.7546771E-02  0.2167619E+00
         22   -1    0    0    0    0  0.00000000000E+00  0.00000000000E+00  0.50441083944E+01  0.50441083944E+01  0.00000000000E+00 0. -1.
         22   -1    0    0    0    0 -0.00000000000E+00 -0.00000000000E+00 -0.56538599119E+01  0.56538599119E+01  0.00000000000E+00 0.  1.
          4    1    1    2  501    0  0.35290260192E+01 -0.30314997151E+01 -0.29311037124E+01  0.54986711249E+01  0.00000000000E+00 0.  1.
         -4    1    1    2    0  501 -0.35290260192E+01  0.30314997151E+01  0.23213521950E+01  0.51992971813E+01  0.00000000000E+00 0. -1.
<mgrwt>
<rscale>  0 0.46523129E+01</rscale>
<asrwt>0</asrwt>
<pdfrwt beam="1">0</pdfrwt>
<pdfrwt beam="2">0</pdfrwt>
<totfact> 0.48014403E+11</totfact>
</mgrwt>
</event>
<event>
 4    2  0.1060494E+006  0.2263412E+01  0.7546771E-02  0.2823015E+00
         22   -1    0    0    0    0  0.00000000000E+00  0.00000000000E+00  0.27589832132E+02  0.27589832132E+02  0.00000000000E+00 0.  1.
         22   -1    0    0    0    0 -0.00000000000E+00 -0.00000000000E+00 -0.23364252706E+00  0.23364252706E+00  0.00000000000E+00 0. -1.
          4    1    1    2  501    0 -0.16355125115E+01 -0.15646505246E+01  0.73753250988E+01  0.77148203318E+01  0.00000000000E+00 0. -1.
         -4    1    1    2    0  501  0.16355125115E+01  0.15646505246E+01  0.19980864506E+02  0.20108654327E+02  0.00000000000E+00 0.  1.
<mgrwt>
<rscale>  0 0.22634117E+01</rscale>
<asrwt>0</asrwt>
<pdfrwt beam="1">0</pdfrwt>
<pdfrwt beam="2">0</pdfrwt>
<totfact> 0.23340502E+12</totfact>
</mgrwt>
</event>
<event>
 4    2  0.1060494E+006  0.2637245E+01  0.7546771E-02  0.2650951E+00
         22   -1    0    0    0    0  0.00000000000E+00  0.00000000000E+00  0.15709987913E+02  0.15709987913E+02  0.00000000000E+00 0.  1.
         22   -1    0    0    0    0 -0.00000000000E+00 -0.00000000000E+00 -0.21004556929E+01  0.21004556929E+01  0.00000000000E+00 0. -1.
          4    1    1    2  501    0  0.22790924935E+01  0.13269501012E+01 -0.11065033814E+01  0.28599665904E+01  0.00000000000E+00 0. -1.
         -4    1    1    2    0  501 -0.22790924935E+01 -0.13269501012E+01  0.14716035602E+02  0.14950477016E+02  0.00000000000E+00 0.  1.
<mgrwt>
<rscale>  0 0.26372446E+01</rscale>
<asrwt>0</asrwt>
<pdfrwt beam="1">0</pdfrwt>
<pdfrwt beam="2">0</pdfrwt>
<totfact> 0.38923072E+11</totfact>
</mgrwt>
</event>
<event>
 4    2  0.1060494E+006  0.4507579E+01  0.7546771E-02  0.2189638E+00
         22   -1    0    0    0    0  0.00000000000E+00  0.00000000000E+00  0.13875223491E+01  0.13875223491E+01  0.00000000000E+00 0. -1.
         22   -1    0    0    0    0 -0.00000000000E+00 -0.00000000000E+00 -0.18013479224E+02  0.18013479224E+02  0.00000000000E+00 0.  1.
          4    1    1    2  501    0  0.34639516731E+01 -0.28843208023E+01 -0.12508684514E+02  0.13296069192E+02  0.00000000000E+00 0.  1.
         -4    1    1    2    0  501 -0.34639516731E+01  0.28843208023E+01 -0.41172723610E+01  0.61049323812E+01  0.00000000000E+00 0. -1.
<mgrwt>
<rscale>  0 0.45075789E+01</rscale>
<asrwt>0</asrwt>
<pdfrwt beam="1">0</pdfrwt>
<pdfrwt beam="2">0</pdfrwt>
<totfact> 0.53023097E+11</totfact>
</mgrwt>
</event>
<event>
 4    2  0.1060494E+006  0.2422759E+01  0.7546771E-02  0.2743595E+00
         22   -1    0    0    0    0  0.00000000000E+00  0.00000000000E+00  0.94010373411E+00  0.94010373411E+00  0.00000000000E+00 0.  1.
         22   -1    0    0    0    0 -0.00000000000E+00 -0.00000000000E+00 -0.72908115987E+01  0.72908115987E+01  0.00000000000E+00 0. -1.
          4    1    1    2  501    0  0.27492078539E+00  0.24071097648E+01 -0.47349759876E+01  0.53188115647E+01  0.00000000000E+00 0. -1.
         -4    1    1    2    0  501 -0.27492078539E+00 -0.24071097648E+01 -0.16157318770E+01  0.29121037681E+01  0.00000000000E+00 0.  1.
<mgrwt>
<rscale>  0 0.24227585E+01</rscale>
<asrwt>0</asrwt>
<pdfrwt beam="1">0</pdfrwt>
<pdfrwt beam="2">0</pdfrwt>
<totfact> 0.24909972E+12</totfact>
</mgrwt>
</event>
<event>
 4    2  0.1060494E+006  0.2759530E+01  0.7546771E-02  0.2604106E+00
         22   -1    0    0    0    0  0.00000000000E+00  0.00000000000E+00  0.89440522336E+01  0.89440522336E+01  0.00000000000E+00 0. -1.
         22   -1    0    0    0    0 -0.00000000000E+00 -0.00000000000E+00 -0.15736494473E+01  0.15736494473E+01  0.00000000000E+00 0.  1.
          4    1    1    2  501    0 -0.15947065462E+01 -0.22520921893E+01  0.72478997141E+01  0.77554534660E+01  0.00000000000E+00 0. -1.
         -4    1    1    2    0  501  0.15947065462E+01  0.22520921893E+01  0.12250307217E+00  0.27622482148E+01  0.00000000000E+00 0.  1.
<mgrwt>
<rscale>  0 0.27595304E+01</rscale>
<asrwt>0</asrwt>
<pdfrwt beam="1">0</pdfrwt>
<pdfrwt beam="2">0</pdfrwt>
<totfact> 0.10796767E+12</totfact>
</mgrwt>
</event>
<event>
 4    2  0.1060494E+006  0.2016590E+01  0.7546771E-02  0.2969616E+00
         22   -1    0    0    0    0  0.00000000000E+00  0.00000000000E+00  0.42124376680E+00  0.42124376680E+00  0.00000000000E+00 0.  1.
         22   -1    0    0    0    0 -0.00000000000E+00 -0.00000000000E+00 -0.14163976809E+02  0.14163976809E+02  0.00000000000E+00 0. -1.
          4    1    1    2  501    0  0.19518766018E+01  0.50676832739E+00 -0.10986494788E+02  0.11170035995E+02  0.00000000000E+00 0. -1.
         -4    1    1    2    0  501 -0.19518766018E+01 -0.50676832739E+00 -0.27562382546E+01  0.34151845811E+01  0.00000000000E+00 0.  1.
<mgrwt>
<rscale>  0 0.20165903E+01</rscale>
<asrwt>0</asrwt>
<pdfrwt beam="1">0</pdfrwt>
<pdfrwt beam="2">0</pdfrwt>
<totfact> 0.27664241E+12</totfact>
</mgrwt>
</event>
<event>
 4    2  0.1060494E+006  0.3573729E+01  0.7546771E-02  0.2367024E+00
         22   -1    0    0    0    0  0.00000000000E+00  0.00000000000E+00  0.46616491709E+01  0.46616491709E+01  0.00000000000E+00 0.  1.
         22   -1    0    0    0    0 -0.00000000000E+00 -0.00000000000E+00 -0.32419520924E+01  0.32419520924E+01  0.00000000000E+00 0. -1.
          4    1    1    2  501    0 -0.35643350210E+01  0.25895259182E+00 -0.84558235074E+00  0.36724038584E+01  0.00000000000E+00 0. -1.
         -4    1    1    2    0  501  0.35643350210E+01 -0.25895259182E+00  0.22652794293E+01  0.42311974049E+01  0.00000000000E+00 0.  1.
<mgrwt>
<rscale>  0 0.35737292E+01</rscale>
<asrwt>0</asrwt>
<pdfrwt beam="1">0</pdfrwt>
<pdfrwt beam="2">0</pdfrwt>
<totfact> 0.10154634E+12</totfact>
</mgrwt>
</event>
<event>
 4    2  0.1060494E+006  0.2387930E+01  0.7546771E-02  0.2760099E+00
         22   -1    0    0    0    0  0.00000000000E+00  0.00000000000E+00  0.75938386954E+01  0.75938386954E+01  0.00000000000E+00 0.  1.
         22   -1    0    0    0    0 -0.00000000000E+00 -0.00000000000E+00 -0.14196922298E+01  0.14196922298E+01  0.00000000000E+00 0. -1.
          4    1    1    2  501    0 -0.11120820500E+01  0.21131691527E+01 -0.61666249672E-02  0.23879381025E+01  0.00000000000E+00 0. -1.
         -4    1    1    2    0  501  0.11120820500E+01 -0.21131691527E+01  0.61803130906E+01  0.66255928227E+01  0.00000000000E+00 0.  1.
<mgrwt>
<rscale>  0 0.23879301E+01</rscale>
<asrwt>0</asrwt>
<pdfrwt beam="1">0</pdfrwt>
<pdfrwt beam="2">0</pdfrwt>
<totfact> 0.14798033E+12</totfact>
</mgrwt>
</event>
<event>
 4    2  0.1060494E+006  0.2443703E+01  0.7546771E-02  0.2733882E+00
         22   -1    0    0    0    0  0.00000000000E+00  0.00000000000E+00  0.44923377139E+01  0.44923377139E+01  0.00000000000E+00 0.  1.
         22   -1    0    0    0    0 -0.00000000000E+00 -0.00000000000E+00 -0.42335828509E+01  0.42335828509E+01  0.00000000000E+00 0. -1.
          4    1    1    2  501    0 -0.16439675422E+01 -0.18080528824E+01 -0.34842747634E+01  0.42558025250E+01  0.00000000000E+00 0. -1.
         -4    1    1    2    0  501  0.16439675422E+01  0.18080528824E+01  0.37430296264E+01  0.44701180398E+01  0.00000000000E+00 0.  1.
<mgrwt>
<rscale>  0 0.24437030E+01</rscale>
<asrwt>0</asrwt>
<pdfrwt beam="1">0</pdfrwt>
<pdfrwt beam="2">0</pdfrwt>
<totfact> 0.77537203E+11</totfact>
</mgrwt>
</event>
<event>
 4    2  0.1060494E+006  0.2359221E+01  0.7546771E-02  0.2774048E+00
         22   -1    0    0    0    0  0.00000000000E+00  0.00000000000E+00  0.57505901763E+01  0.57505901763E+01  0.00000000000E+00 0. -1.
         22   -1    0    0    0    0 -0.00000000000E+00 -0.00000000000E+00 -0.12871158033E+01  0.12871158033E+01  0.00000000000E+00 0.  1.
          4    1    1    2  501    0 -0.10787262408E+01  0.20981590347E+01  0.47929650031E+00  0.24074149565E+01  0.00000000000E+00 0.  1.
         -4    1    1    2    0  501  0.10787262408E+01 -0.20981590347E+01  0.39841778726E+01  0.46302910231E+01  0.00000000000E+00 0. -1.
<mgrwt>
<rscale>  0 0.23592206E+01</rscale>
<asrwt>0</asrwt>
<pdfrwt beam="1">0</pdfrwt>
<pdfrwt beam="2">0</pdfrwt>
<totfact> 0.23081719E+12</totfact>
</mgrwt>
</event>
<event>
 4    2  0.1060494E+006  0.2173602E+01  0.7546771E-02  0.2872641E+00
         22   -1    0    0    0    0  0.00000000000E+00  0.00000000000E+00  0.13113043829E+01  0.13113043829E+01  0.00000000000E+00 0.  1.
         22   -1    0    0    0    0 -0.00000000000E+00 -0.00000000000E+00 -0.39268261556E+01  0.39268261556E+01  0.00000000000E+00 0. -1.
          4    1    1    2  501    0  0.74634060260E+00 -0.20414509137E+01 -0.20599450299E+01  0.29946485026E+01  0.00000000000E+00 0.  1.
         -4    1    1    2    0  501 -0.74634060260E+00  0.20414509137E+01 -0.55557674280E+00  0.22434820359E+01  0.00000000000E+00 0. -1.
<mgrwt>
<rscale>  0 0.21736021E+01</rscale>
<asrwt>0</asrwt>
<pdfrwt beam="1">0</pdfrwt>
<pdfrwt beam="2">0</pdfrwt>
<totfact> 0.35470003E+12</totfact>
</mgrwt>
</event>
<event>
 4    2  0.1060494E+006  0.2598237E+01  0.7546771E-02  0.2666743E+00
         22   -1    0    0    0    0  0.00000000000E+00  0.00000000000E+00  0.28384233320E+00  0.28384233320E+00  0.00000000000E+00 0. -1.
         22   -1    0    0    0    0 -0.00000000000E+00 -0.00000000000E+00 -0.24387893891E+02  0.24387893891E+02  0.00000000000E+00 0.  1.
          4    1    1    2  501    0  0.13139699562E+01 -0.22414995561E+01 -0.13993581951E+02  0.14232750020E+02  0.00000000000E+00 0. -1.
         -4    1    1    2    0  501 -0.13139699562E+01  0.22414995561E+01 -0.10110469606E+02  0.10438986204E+02  0.00000000000E+00 0.  1.
<mgrwt>
<rscale>  0 0.25982373E+01</rscale>
<asrwt>0</asrwt>
<pdfrwt beam="1">0</pdfrwt>
<pdfrwt beam="2">0</pdfrwt>
<totfact> 0.21940900E+12</totfact>
</mgrwt>
</event>
<event>
 4    2  0.1060494E+006  0.2062840E+01  0.7546771E-02  0.2939561E+00
         22   -1    0    0    0    0  0.00000000000E+00  0.00000000000E+00  0.58578844980E+00  0.58578844980E+00  0.00000000000E+00 0. -1.
         22   -1    0    0    0    0 -0.00000000000E+00 -0.00000000000E+00 -0.76120005009E+01  0.76120005009E+01  0.00000000000E+00 0.  1.
          4    1    1    2  501    0  0.24536719535E+00  0.20481955362E+01 -0.43892090773E+01  0.48497903398E+01  0.00000000000E+00 0.  1.
         -4    1    1    2    0  501 -0.24536719535E+00 -0.20481955362E+01 -0.26370029738E+01  0.33479986110E+01  0.00000000000E+00 0. -1.
<mgrwt>
<rscale>  0 0.20628403E+01</rscale>
<asrwt>0</asrwt>
<pdfrwt beam="1">0</pdfrwt>
<pdfrwt beam="2">0</pdfrwt>
<totfact> 0.40488027E+12</totfact>
</mgrwt>
</event>
<event>
 4    2  0.1060494E+006  0.3583341E+01  0.7546771E-02  0.2364798E+00
         22   -1    0    0    0    0  0.00000000000E+00  0.00000000000E+00  0.42735428203E+01  0.42735428203E+01  0.00000000000E+00 0.  1.
         22   -1    0    0    0    0 -0.00000000000E+00 -0.00000000000E+00 -0.41736464205E+01  0.41736464205E+01  0.00000000000E+00 0. -1.
          4    1    1    2  501    0 -0.21617550335E+01 -0.28578218652E+01 -0.21853649448E+01  0.41971598231E+01  0.00000000000E+00 0. -1.
         -4    1    1    2    0  501  0.21617550335E+01  0.28578218652E+01  0.22852613446E+01  0.42500294177E+01  0.00000000000E+00 0.  1.
<mgrwt>
<rscale>  0 0.35833407E+01</rscale>
<asrwt>0</asrwt>
<pdfrwt beam="1">0</pdfrwt>
<pdfrwt beam="2">0</pdfrwt>
<totfact> 0.83637459E+11</totfact>
</mgrwt>
</event>
<event>
 4    2  0.1060494E+006  0.2841551E+01  0.7546771E-02  0.2574754E+00
         22   -1    0    0    0    0  0.00000000000E+00  0.00000000000E+00  0.16296914947E+02  0.16296914947E+02  0.00000000000E+00 0. -1.
         22   -1    0    0    0    0 -0.00000000000E+00 -0.00000000000E+00 -0.33359291583E+01  0.33359291583E+01  0.00000000000E+00 0.  1.
          4    1    1    2  501    0  0.22215669998E+01 -0.17717362583E+01 -0.25776701594E+01  0.38365078853E+01  0.00000000000E+00 0.  1.
         -4    1    1    2    0  501 -0.22215669998E+01  0.17717362583E+01  0.15538655948E+02  0.15796336220E+02  0.00000000000E+00 0. -1.
<mgrwt>
<rscale>  0 0.28415505E+01</rscale>
<asrwt>0</asrwt>
<pdfrwt beam="1">0</pdfrwt>
<pdfrwt beam="2">0</pdfrwt>
<totfact> 0.21704015E+11</totfact>
</mgrwt>
</event>
<event>
 4    2  0.1060494E+006  0.2126971E+01  0.7546771E-02  0.2899993E+00
         22   -1    0    0    0    0  0.00000000000E+00  0.00000000000E+00  0.27192715069E+01  0.27192715069E+01  0.00000000000E+00 0. -1.
         22   -1    0    0    0    0 -0.00000000000E+00 -0.00000000000E+00 -0.16707007277E+01  0.16707007277E+01  0.00000000000E+00 0.  1.
          4    1    1    2  501    0 -0.65101903931E+00 -0.20248901356E+01  0.66654443115E+00  0.22289655290E+01  0.00000000000E+00 0.  1.
         -4    1    1    2    0  501  0.65101903931E+00  0.20248901356E+01  0.38202634805E+00  0.21610067055E+01  0.00000000000E+00 0. -1.
<mgrwt>
<rscale>  0 0.21269711E+01</rscale>
<asrwt>0</asrwt>
<pdfrwt beam="1">0</pdfrwt>
<pdfrwt beam="2">0</pdfrwt>
<totfact> 0.41274082E+12</totfact>
</mgrwt>
</event>
<event>
 4    2  0.1060494E+006  0.2686750E+01  0.7546771E-02  0.2631516E+00
         22   -1    0    0    0    0  0.00000000000E+00  0.00000000000E+00  0.20475340312E+01  0.20475340312E+01  0.00000000000E+00 0.  1.
         22   -1    0    0    0    0 -0.00000000000E+00 -0.00000000000E+00 -0.38603036116E+02  0.38603036116E+02  0.00000000000E+00 0. -1.
          4    1    1    2  501    0 -0.35115543715E+00 -0.26637037462E+01 -0.37652688685E+02  0.37748425040E+02  0.00000000000E+00 0. -1.
         -4    1    1    2    0  501  0.35115543715E+00  0.26637037462E+01  0.10971866001E+01  0.29021451073E+01  0.00000000000E+00 0.  1.
<mgrwt>
<rscale>  0 0.26867504E+01</rscale>
<asrwt>0</asrwt>
<pdfrwt beam="1">0</pdfrwt>
<pdfrwt beam="2">0</pdfrwt>
<totfact> 0.12897030E+11</totfact>
</mgrwt>
</event>
<event>
 4    2  0.1060494E+006  0.2737507E+01  0.7546771E-02  0.2612260E+00
         22   -1    0    0    0    0  0.00000000000E+00  0.00000000000E+00  0.11417909059E+02  0.11417909059E+02  0.00000000000E+00 0. -1.
         22   -1    0    0    0    0 -0.00000000000E+00 -0.00000000000E+00 -0.75986884380E+00  0.75986884380E+00  0.00000000000E+00 0.  1.
          4    1    1    2  501    0  0.98681735877E-01  0.27357281484E+01  0.30814418711E+01  0.41217994362E+01  0.00000000000E+00 0.  1.
         -4    1    1    2    0  501 -0.98681735877E-01 -0.27357281484E+01  0.75765983437E+01  0.80559784663E+01  0.00000000000E+00 0. -1.
<mgrwt>
<rscale>  0 0.27375074E+01</rscale>
<asrwt>0</asrwt>
<pdfrwt beam="1">0</pdfrwt>
<pdfrwt beam="2">0</pdfrwt>
<totfact> 0.18471027E+12</totfact>
</mgrwt>
</event>
<event>
 4    2  0.1060494E+006  0.4504637E+01  0.7546771E-02  0.2190098E+00
         22   -1    0    0    0    0  0.00000000000E+00  0.00000000000E+00  0.28941410127E+01  0.28941410127E+01  0.00000000000E+00 0. -1.
         22   -1    0    0    0    0 -0.00000000000E+00 -0.00000000000E+00 -0.70116860406E+01  0.70116860406E+01  0.00000000000E+00 0.  1.
          4    1    1    2  501    0 -0.39691872803E+01  0.21300952017E+01 -0.20944830342E+01  0.49677572822E+01  0.00000000000E+00 0. -1.
         -4    1    1    2    0  501  0.39691872803E+01 -0.21300952017E+01 -0.20230619937E+01  0.49380697711E+01  0.00000000000E+00 0.  1.
<mgrwt>
<rscale>  0 0.45046369E+01</rscale>
<asrwt>0</asrwt>
<pdfrwt beam="1">0</pdfrwt>
<pdfrwt beam="2">0</pdfrwt>
<totfact> 0.71371838E+11</totfact>
</mgrwt>
</event>
<event>
 4    2  0.1060494E+006  0.3123813E+01  0.7546771E-02  0.2484445E+00
         22   -1    0    0    0    0  0.00000000000E+00  0.00000000000E+00  0.30551922524E+00  0.30551922524E+00  0.00000000000E+00 0.  1.
         22   -1    0    0    0    0 -0.00000000000E+00 -0.00000000000E+00 -0.31960886273E+02  0.31960886273E+02  0.00000000000E+00 0. -1.
          4    1    1    2  501    0  0.23792601822E+01 -0.20241858797E+01 -0.15412794845E+02  0.15726170939E+02  0.00000000000E+00 0.  1.
         -4    1    1    2    0  501 -0.23792601822E+01  0.20241858797E+01 -0.16242572203E+02  0.16540234559E+02  0.00000000000E+00 0. -1.
<mgrwt>
<rscale>  0 0.31238130E+01</rscale>
<asrwt>0</asrwt>
<pdfrwt beam="1">0</pdfrwt>
<pdfrwt beam="2">0</pdfrwt>
<totfact> 0.14334123E+12</totfact>
</mgrwt>
</event>
<event>
 4    2  0.1060494E+006  0.3498818E+01  0.7546771E-02  0.2384731E+00
         22   -1    0    0    0    0  0.00000000000E+00  0.00000000000E+00  0.46414923659E+01  0.46414923659E+01  0.00000000000E+00 0.  1.
         22   -1    0    0    0    0 -0.00000000000E+00 -0.00000000000E+00 -0.40188063067E+01  0.40188063067E+01  0.00000000000E+00 0. -1.
          4    1    1    2  501    0 -0.11204931686E+01  0.33145468054E+01 -0.22273282429E+01  0.41476157690E+01  0.00000000000E+00 0. -1.
         -4    1    1    2    0  501  0.11204931686E+01 -0.33145468054E+01  0.28500143021E+01  0.45126829036E+01  0.00000000000E+00 0.  1.
<mgrwt>
<rscale>  0 0.34988177E+01</rscale>
<asrwt>0</asrwt>
<pdfrwt beam="1">0</pdfrwt>
<pdfrwt beam="2">0</pdfrwt>
<totfact> 0.79323368E+11</totfact>
</mgrwt>
</event>
<event>
 4    2  0.1060494E+006  0.4825664E+01  0.7546771E-02  0.2144406E+00
         22   -1    0    0    0    0  0.00000000000E+00  0.00000000000E+00  0.51386977534E+01  0.51386977534E+01  0.00000000000E+00 0.  1.
         22   -1    0    0    0    0 -0.00000000000E+00 -0.00000000000E+00 -0.45862751375E+01  0.45862751375E+01  0.00000000000E+00 0. -1.
          4    1    1    2  501    0  0.22084476671E+01  0.42906631773E+01 -0.25422061023E+00  0.48323555041E+01  0.00000000000E+00 0. -1.
         -4    1    1    2    0  501 -0.22084476671E+01 -0.42906631773E+01  0.80664322606E+00  0.48926173868E+01  0.00000000000E+00 0.  1.
<mgrwt>
<rscale>  0 0.48256639E+01</rscale>
<asrwt>0</asrwt>
<pdfrwt beam="1">0</pdfrwt>
<pdfrwt beam="2">0</pdfrwt>
<totfact> 0.60183778E+11</totfact>
</mgrwt>
</event>
<event>
 4    2  0.1060494E+006  0.2081505E+01  0.7546771E-02  0.2927801E+00
         22   -1    0    0    0    0  0.00000000000E+00  0.00000000000E+00  0.41895118479E+00  0.41895118479E+00  0.00000000000E+00 0. -1.
         22   -1    0    0    0    0 -0.00000000000E+00 -0.00000000000E+00 -0.11285908475E+02  0.11285908475E+02  0.00000000000E+00 0.  1.
          4    1    1    2  501    0 -0.18195614256E+01 -0.10108698179E+01 -0.71262766472E+01  0.74240474420E+01  0.00000000000E+00 0. -1.
         -4    1    1    2    0  501  0.18195614256E+01  0.10108698179E+01 -0.37406806429E+01  0.42808122176E+01  0.00000000000E+00 0.  1.
<mgrwt>
<rscale>  0 0.20815046E+01</rscale>
<asrwt>0</asrwt>
<pdfrwt beam="1">0</pdfrwt>
<pdfrwt beam="2">0</pdfrwt>
<totfact> 0.36740073E+12</totfact>
</mgrwt>
</event>
<event>
 4    2  0.1060494E+006  0.3098724E+01  0.7546771E-02  0.2491874E+00
         22   -1    0    0    0    0  0.00000000000E+00  0.00000000000E+00  0.83909202134E+00  0.83909202134E+00  0.00000000000E+00 0.  1.
         22   -1    0    0    0    0 -0.00000000000E+00 -0.00000000000E+00 -0.20302469869E+02  0.20302469869E+02  0.00000000000E+00 0. -1.
          4    1    1    2  501    0  0.30417234403E+01  0.59161707508E+00 -0.16714429733E+02  0.16999242734E+02  0.00000000000E+00 0. -1.
         -4    1    1    2    0  501 -0.30417234403E+01 -0.59161707508E+00 -0.27489481146E+01  0.41423191556E+01  0.00000000000E+00 0.  1.
<mgrwt>
<rscale>  0 0.30987243E+01</rscale>
<asrwt>0</asrwt>
<pdfrwt beam="1">0</pdfrwt>
<pdfrwt beam="2">0</pdfrwt>
<totfact> 0.81210016E+11</totfact>
</mgrwt>
</event>
<event>
 4    2  0.1060494E+006  0.3042681E+01  0.7546771E-02  0.2508862E+00
         22   -1    0    0    0    0  0.00000000000E+00  0.00000000000E+00  0.22698058507E+02  0.22698058507E+02  0.00000000000E+00 0. -1.
         22   -1    0    0    0    0 -0.00000000000E+00 -0.00000000000E+00 -0.44775753583E+00  0.44775753583E+00  0.00000000000E+00 0.  1.
          4    1    1    2  501    0  0.14937089717E+01  0.26508005523E+01  0.14579187254E+02  0.14893307593E+02  0.00000000000E+00 0. -1.
         -4    1    1    2    0  501 -0.14937089717E+01 -0.26508005523E+01  0.76711137176E+01  0.82525084507E+01  0.00000000000E+00 0.  1.
<mgrwt>
<rscale>  0 0.30426814E+01</rscale>
<asrwt>0</asrwt>
<pdfrwt beam="1">0</pdfrwt>
<pdfrwt beam="2">0</pdfrwt>
<totfact> 0.14387509E+12</totfact>
</mgrwt>
</event>
<event>
 4    2  0.1060494E+006  0.2397511E+01  0.7546771E-02  0.2755514E+00
         22   -1    0    0    0    0  0.00000000000E+00  0.00000000000E+00  0.82426652128E+02  0.82426652128E+02  0.00000000000E+00 0. -1.
         22   -1    0    0    0    0 -0.00000000000E+00 -0.00000000000E+00 -0.87480409449E-01  0.87480409449E-01  0.00000000000E+00 0.  1.
          4    1    1    2  501    0  0.93458492674E+00 -0.22078520330E+01  0.22588099171E+02  0.22714979281E+02  0.00000000000E+00 0.  1.
         -4    1    1    2    0  501 -0.93458492674E+00  0.22078520330E+01  0.59751072547E+02  0.59799153256E+02  0.00000000000E+00 0. -1.
<mgrwt>
<rscale>  0 0.23975111E+01</rscale>
<asrwt>0</asrwt>
<pdfrwt beam="1">0</pdfrwt>
<pdfrwt beam="2">0</pdfrwt>
<totfact> 0.16449922E+12</totfact>
</mgrwt>
</event>
<event>
 4    2  0.1060494E+006  0.2020853E+01  0.7546771E-02  0.2966790E+00
         22   -1    0    0    0    0  0.00000000000E+00  0.00000000000E+00  0.33550902363E+02  0.33550902363E+02  0.00000000000E+00 0. -1.
         22   -1    0    0    0    0 -0.00000000000E+00 -0.00000000000E+00 -0.13000074917E+00  0.13000074917E+00  0.00000000000E+00 0.  1.
          4    1    1    2  501    0  0.11730605836E+01  0.16455321091E+01  0.12460428420E+02  0.12623237440E+02  0.00000000000E+00 0. -1.
         -4    1    1    2    0  501 -0.11730605836E+01 -0.16455321091E+01  0.20960473194E+02  0.21057665672E+02  0.00000000000E+00 0.  1.
<mgrwt>
<rscale>  0 0.20208531E+01</rscale>
<asrwt>0</asrwt>
<pdfrwt beam="1">0</pdfrwt>
<pdfrwt beam="2">0</pdfrwt>
<totfact> 0.34937597E+12</totfact>
</mgrwt>
</event>
<event>
 4    2  0.1060494E+006  0.2339559E+01  0.7546771E-02  0.2783788E+00
         22   -1    0    0    0    0  0.00000000000E+00  0.00000000000E+00  0.11945378532E+01  0.11945378532E+01  0.00000000000E+00 0. -1.
         22   -1    0    0    0    0 -0.00000000000E+00 -0.00000000000E+00 -0.50576874953E+01  0.50576874953E+01  0.00000000000E+00 0.  1.
          4    1    1    2  501    0  0.13093035932E+00  0.23358920208E+01 -0.28901532237E+01  0.37184028760E+01  0.00000000000E+00 0.  1.
         -4    1    1    2    0  501 -0.13093035932E+00 -0.23358920208E+01 -0.97299641846E+00  0.25338224725E+01  0.00000000000E+00 0. -1.
<mgrwt>
<rscale>  0 0.23395586E+01</rscale>
<asrwt>0</asrwt>
<pdfrwt beam="1">0</pdfrwt>
<pdfrwt beam="2">0</pdfrwt>
<totfact> 0.29281793E+12</totfact>
</mgrwt>
</event>
<event>
 4    2  0.1060494E+006  0.3489609E+01  0.7546771E-02  0.2386953E+00
         22   -1    0    0    0    0  0.00000000000E+00  0.00000000000E+00  0.15472091824E+02  0.15472091824E+02  0.00000000000E+00 0.  1.
         22   -1    0    0    0    0 -0.00000000000E+00 -0.00000000000E+00 -0.99618265253E+00  0.99618265253E+00  0.00000000000E+00 0. -1.
          4    1    1    2  501    0 -0.30484938105E+01  0.16982516762E+01  0.34652284384E+01  0.49178431653E+01  0.00000000000E+00 0. -1.
         -4    1    1    2    0  501  0.30484938105E+01 -0.16982516762E+01  0.11010680733E+02  0.11550431311E+02  0.00000000000E+00 0.  1.
<mgrwt>
<rscale>  0 0.34896093E+01</rscale>
<asrwt>0</asrwt>
<pdfrwt beam="1">0</pdfrwt>
<pdfrwt beam="2">0</pdfrwt>
<totfact> 0.93528471E+11</totfact>
</mgrwt>
</event>
<event>
 4    2  0.1060494E+006  0.2658130E+01  0.7546771E-02  0.2642670E+00
         22   -1    0    0    0    0  0.00000000000E+00  0.00000000000E+00  0.27888087136E+02  0.27888087136E+02  0.00000000000E+00 0. -1.
         22   -1    0    0    0    0 -0.00000000000E+00 -0.00000000000E+00 -0.26370505491E+00  0.26370505491E+00  0.00000000000E+00 0.  1.
          4    1    1    2  501    0 -0.18698452839E+01  0.18892680724E+01  0.11023911592E+02  0.11339853704E+02  0.00000000000E+00 0. -1.
         -4    1    1    2    0  501  0.18698452839E+01 -0.18892680724E+01  0.16600470489E+02  0.16811938487E+02  0.00000000000E+00 0.  1.
<mgrwt>
<rscale>  0 0.26581300E+01</rscale>
<asrwt>0</asrwt>
<pdfrwt beam="1">0</pdfrwt>
<pdfrwt beam="2">0</pdfrwt>
<totfact> 0.20109818E+12</totfact>
</mgrwt>
</event>
<event>
 4    2  0.1060494E+006  0.2870487E+01  0.7546771E-02  0.2564762E+00
         22   -1    0    0    0    0  0.00000000000E+00  0.00000000000E+00  0.18980985317E+00  0.18980985317E+00  0.00000000000E+00 0.  1.
         22   -1    0    0    0    0 -0.00000000000E+00 -0.00000000000E+00 -0.58901411853E+02  0.58901411853E+02  0.00000000000E+00 0. -1.
          4    1    1    2  501    0 -0.23388596203E+01 -0.16641604904E+01 -0.44507872883E+02  0.44600341288E+02  0.00000000000E+00 0. -1.
         -4    1    1    2    0  501  0.23388596203E+01  0.16641604904E+01 -0.14203729117E+02  0.14490880418E+02  0.00000000000E+00 0.  1.
<mgrwt>
<rscale>  0 0.28704868E+01</rscale>
<asrwt>0</asrwt>
<pdfrwt beam="1">0</pdfrwt>
<pdfrwt beam="2">0</pdfrwt>
<totfact> 0.10983531E+12</totfact>
</mgrwt>
</event>
<event>
 4    2  0.1060494E+006  0.2943292E+01  0.7546771E-02  0.2540410E+00
         22   -1    0    0    0    0  0.00000000000E+00  0.00000000000E+00  0.59436262788E+00  0.59436262788E+00  0.00000000000E+00 0. -1.
         22   -1    0    0    0    0 -0.00000000000E+00 -0.00000000000E+00 -0.34724866122E+02  0.34724866122E+02  0.00000000000E+00 0.  1.
          4    1    1    2  501    0  0.78650309780E+00  0.28362620141E+01 -0.30517490855E+02  0.30659096813E+02  0.00000000000E+00 0.  1.
         -4    1    1    2    0  501 -0.78650309780E+00 -0.28362620141E+01 -0.36130126398E+01  0.46601319370E+01  0.00000000000E+00 0. -1.
<mgrwt>
<rscale>  0 0.29432923E+01</rscale>
<asrwt>0</asrwt>
<pdfrwt beam="1">0</pdfrwt>
<pdfrwt beam="2">0</pdfrwt>
<totfact> 0.60889225E+11</totfact>
</mgrwt>
</event>
<event>
 4    2  0.1060494E+006  0.2579896E+01  0.7546771E-02  0.2674321E+00
         22   -1    0    0    0    0  0.00000000000E+00  0.00000000000E+00  0.48628755499E+00  0.48628755499E+00  0.00000000000E+00 0.  1.
         22   -1    0    0    0    0 -0.00000000000E+00 -0.00000000000E+00 -0.16049022080E+02  0.16049022080E+02  0.00000000000E+00 0. -1.
          4    1    1    2  501    0 -0.15479079557E+01 -0.20639392105E+01 -0.10953061147E+02  0.11252795768E+02  0.00000000000E+00 0. -1.
         -4    1    1    2    0  501  0.15479079557E+01  0.20639392105E+01 -0.46096733777E+01  0.52825138668E+01  0.00000000000E+00 0.  1.
<mgrwt>
<rscale>  0 0.25798961E+01</rscale>
<asrwt>0</asrwt>
<pdfrwt beam="1">0</pdfrwt>
<pdfrwt beam="2">0</pdfrwt>
<totfact> 0.20176852E+12</totfact>
</mgrwt>
</event>
