<event>
 4    1  0.1838758E+006  0.2253959E+01  0.7546771E-02  0.2828060E+00
         22   -1    0    0    0    0  0.00000000000E+00  0.00000000000E+00  0.12356780825E+01  0.12356780825E+01  0.00000000000E+00 0.  1.
         22   -1    0    0    0    0 -0.00000000000E+00 -0.00000000000E+00 -0.42866176555E+01  0.42866176555E+01  0.00000000000E+00 0.  1.
          4    1    1    2  501    0  0.10903544656E+01 -0.15094899513E+01 -0.96718548568E+00  0.24527088162E+01  0.12700000000E+01 0.  1.
         -4    1    1    2    0  501 -0.10903544656E+01  0.15094899513E+01 -0.20837540874E+01  0.30695869217E+01  0.12700000000E+01 0.  1.
<mgrwt>
<rscale>  0 0.22539594E+01</rscale>
<asrwt>0</asrwt>
<pdfrwt beam="1">0</pdfrwt>
<pdfrwt beam="2">0</pdfrwt>
<totfact> 0.34247227E+12</totfact>
</mgrwt>
</event>
<event>
 4    1  0.1838758E+006  0.2742796E+01  0.7546771E-02  0.2610291E+00
         22   -1    0    0    0    0  0.00000000000E+00  0.00000000000E+00  0.22454162679E+02  0.22454162679E+02  0.00000000000E+00 0.  1.
         22   -1    0    0    0    0 -0.00000000000E+00 -0.00000000000E+00 -0.33713672143E+00  0.33713672143E+00  0.00000000000E+00 0. -1.
          4    1    1    2  501    0 -0.14017345408E+01  0.19862451607E+01  0.11958274600E+02  0.12268792156E+02  0.12700000000E+01 0.  1.
         -4    1    1    2    0  501  0.14017345408E+01 -0.19862451607E+01  0.10158751358E+02  0.10522507244E+02  0.12700000000E+01 0. -1.
<mgrwt>
<rscale>  0 0.27427959E+01</rscale>
<asrwt>0</asrwt>
<pdfrwt beam="1">0</pdfrwt>
<pdfrwt beam="2">0</pdfrwt>
<totfact> 0.20069237E+12</totfact>
</mgrwt>
</event>
<event>
 4    1  0.1838758E+006  0.2257110E+01  0.7546771E-02  0.2826374E+00
         22   -1    0    0    0    0  0.00000000000E+00  0.00000000000E+00  0.22810912261E+00  0.22810912261E+00  0.00000000000E+00 0.  1.
         22   -1    0    0    0    0 -0.00000000000E+00 -0.00000000000E+00 -0.22381933841E+02  0.22381933841E+02  0.00000000000E+00 0. -1.
          4    1    1    2  501    0 -0.51805780089E+00  0.17925566710E+01 -0.10552645782E+02  0.10791333389E+02  0.12700000000E+01 0.  1.
         -4    1    1    2    0  501  0.51805780089E+00 -0.17925566710E+01 -0.11601178936E+02  0.11818709575E+02  0.12700000000E+01 0. -1.
<mgrwt>
<rscale>  0 0.22571095E+01</rscale>
<asrwt>0</asrwt>
<pdfrwt beam="1">0</pdfrwt>
<pdfrwt beam="2">0</pdfrwt>
<totfact> 0.31210994E+12</totfact>
</mgrwt>
</event>
<event>
 4    1  0.1838758E+006  0.2597045E+01  0.7546771E-02  0.2667233E+00
         22   -1    0    0    0    0  0.00000000000E+00  0.00000000000E+00  0.13032763495E+00  0.13032763495E+00  0.00000000000E+00 0.  1.
         22   -1    0    0    0    0 -0.00000000000E+00 -0.00000000000E+00 -0.60742509270E+02  0.60742509270E+02  0.00000000000E+00 0.  1.
          4    1    1    2  501    0 -0.21886824697E+01  0.58430598813E+00 -0.18596208079E+02  0.18776677005E+02  0.12700000000E+01 0.  1.
         -4    1    1    2    0  501  0.21886824697E+01 -0.58430598813E+00 -0.42015973556E+02  0.42096159900E+02  0.12700000000E+01 0.  1.
<mgrwt>
<rscale>  0 0.25970453E+01</rscale>
<asrwt>0</asrwt>
<pdfrwt beam="1">0</pdfrwt>
<pdfrwt beam="2">0</pdfrwt>
<totfact> 0.16013749E+12</totfact>
</mgrwt>
</event>
<event>
 4    1  0.1838758E+006  0.2014032E+01  0.7546771E-02  0.2971318E+00
         22   -1    0    0    0    0  0.00000000000E+00  0.00000000000E+00  0.23460446702E+00  0.23460446702E+00  0.00000000000E+00 0. -1.
         22   -1    0    0    0    0 -0.00000000000E+00 -0.00000000000E+00 -0.19847025213E+02  0.19847025213E+02  0.00000000000E+00 0.  1.
          4    1    1    2  501    0  0.14951783876E+01  0.45592367627E+00 -0.62022182000E+01  0.65210302414E+01  0.12700000000E+01 0. -1.
         -4    1    1    2    0  501 -0.14951783876E+01 -0.45592367627E+00 -0.13410202546E+02  0.13560599439E+02  0.12700000000E+01 0.  1.
<mgrwt>
<rscale>  0 0.20140320E+01</rscale>
<asrwt>0</asrwt>
<pdfrwt beam="1">0</pdfrwt>
<pdfrwt beam="2">0</pdfrwt>
<totfact> 0.35149265E+12</totfact>
</mgrwt>
</event>
<event>
 4    1  0.1838758E+006  0.2844387E+01  0.7546771E-02  0.2573766E+00
         22   -1    0    0    0    0  0.00000000000E+00  0.00000000000E+00  0.32851390931E+02  0.32851390931E+02  0.00000000000E+00 0. -1.
         22   -1    0    0    0    0 -0.00000000000E+00 -0.00000000000E+00 -0.45482798858E+00  0.45482798858E+00  0.00000000000E+00 0.  1.
          4    1    1    2  501    0  0.17175992991E+00  0.25393176857E+01  0.27474878714E+02  0.27621721455E+02  0.12700000000E+01 0. -1.
         -4    1    1    2    0  501 -0.17175992991E+00 -0.25393176857E+01  0.49216842287E+01  0.56844974650E+01  0.12700000000E+01 0.  1.
<mgrwt>
<rscale>  0 0.28443867E+01</rscale>
<asrwt>0</asrwt>
<pdfrwt beam="1">0</pdfrwt>
<pdfrwt beam="2">0</pdfrwt>
<totfact> 0.88462171E+11</totfact>
</mgrwt>
</event>
<event>
 4    1  0.1838758E+006  0.3148089E+01  0.7546771E-02  0.2477357E+00
         22   -1    0    0    0    0  0.00000000000E+00  0.00000000000E+00  0.17789531390E+02  0.17789531390E+02  0.00000000000E+00 0. -1.
         22   -1    0    0    0    0 -0.00000000000E+00 -0.00000000000E+00 -0.56473989224E+00  0.56473989224E+00  0.00000000000E+00 0.  1.
          4    1    1    2  501    0  0.27685499794E+01 -0.79542056913E+00  0.96801281093E+01  0.10179162199E+02  0.12700000000E+01 0. -1.
         -4    1    1    2    0  501 -0.27685499794E+01  0.79542056913E+00  0.75446633887E+01  0.81751090830E+01  0.12700000000E+01 0.  1.
<mgrwt>
<rscale>  0 0.31480888E+01</rscale>
<asrwt>0</asrwt>
<pdfrwt beam="1">0</pdfrwt>
<pdfrwt beam="2">0</pdfrwt>
<totfact> 0.15001709E+12</totfact>
</mgrwt>
</event>
<event>
 4    1  0.1838758E+006  0.2038593E+01  0.7546771E-02  0.2955152E+00
         22   -1    0    0    0    0  0.00000000000E+00  0.00000000000E+00  0.29153991936E+01  0.29153991936E+01  0.00000000000E+00 0. -1.
         22   -1    0    0    0    0 -0.00000000000E+00 -0.00000000000E+00 -0.15645437381E+01  0.15645437381E+01  0.00000000000E+00 0.  1.
          4    1    1    2  501    0  0.14894013951E+01 -0.56977444586E+00  0.13432284869E+01  0.24413361512E+01  0.12700000000E+01 0.  1.
         -4    1    1    2    0  501 -0.14894013951E+01  0.56977444586E+00  0.76269684839E-02  0.20386067805E+01  0.12700000000E+01 0. -1.
<mgrwt>
<rscale>  0 0.20385925E+01</rscale>
<asrwt>0</asrwt>
<pdfrwt beam="1">0</pdfrwt>
<pdfrwt beam="2">0</pdfrwt>
<totfact> 0.41043282E+12</totfact>
</mgrwt>
</event>
<event>
 4    1  0.1838758E+006  0.2102727E+01  0.7546771E-02  0.2914676E+00
         22   -1    0    0    0    0  0.00000000000E+00  0.00000000000E+00  0.99390189892E+00  0.99390189892E+00  0.00000000000E+00 0.  1.
         22   -1    0    0    0    0 -0.00000000000E+00 -0.00000000000E+00 -0.44521179998E+01  0.44521179998E+01  0.00000000000E+00 0. -1.
          4    1    1    2  501    0  0.12637569420E+01  0.11006723818E+01 -0.18057694056E+01  0.27716898179E+01  0.12700000000E+01 0.  1.
         -4    1    1    2    0  501 -0.12637569420E+01 -0.11006723818E+01 -0.16524466953E+01  0.26743300808E+01  0.12700000000E+01 0. -1.
<mgrwt>
<rscale>  0 0.21027271E+01</rscale>
<asrwt>0</asrwt>
<pdfrwt beam="1">0</pdfrwt>
<pdfrwt beam="2">0</pdfrwt>
<totfact> 0.42013744E+12</totfact>
</mgrwt>
</event>
<event>
 4    1  0.1838758E+006  0.2966628E+01  0.7546771E-02  0.2532832E+00
         22   -1    0    0    0    0  0.00000000000E+00  0.00000000000E+00  0.33677253817E+02  0.33677253817E+02  0.00000000000E+00 0.  1.
         22   -1    0    0    0    0 -0.00000000000E+00 -0.00000000000E+00 -0.46608214630E+00  0.46608214630E+00  0.00000000000E+00 0. -1.
          4    1    1    2  501    0  0.10594961368E+01  0.24628133053E+01  0.27920696494E+02  0.28077859145E+02  0.12700000000E+01 0.  1.
         -4    1    1    2    0  501 -0.10594961368E+01 -0.24628133053E+01  0.52904751762E+01  0.60654768181E+01  0.12700000000E+01 0. -1.
<mgrwt>
<rscale>  0 0.29666280E+01</rscale>
<asrwt>0</asrwt>
<pdfrwt beam="1">0</pdfrwt>
<pdfrwt beam="2">0</pdfrwt>
<totfact> 0.83360187E+11</totfact>
</mgrwt>
</event>
<event>
 4    1  0.1838758E+006  0.2021155E+01  0.7546771E-02  0.2966590E+00
         22   -1    0    0    0    0  0.00000000000E+00  0.00000000000E+00  0.63864174411E+02  0.63864174411E+02  0.00000000000E+00 0. -1.
         22   -1    0    0    0    0 -0.00000000000E+00 -0.00000000000E+00 -0.86497180931E-01  0.86497180931E-01  0.00000000000E+00 0.  1.
          4    1    1    2  501    0 -0.88771917675E-01  0.15698052408E+01  0.48208690027E+02  0.48251040021E+02  0.12700000000E+01 0. -1.
         -4    1    1    2    0  501  0.88771917675E-01 -0.15698052408E+01  0.15568987203E+02  0.15699631572E+02  0.12700000000E+01 0.  1.
<mgrwt>
<rscale>  0 0.20211553E+01</rscale>
<asrwt>0</asrwt>
<pdfrwt beam="1">0</pdfrwt>
<pdfrwt beam="2">0</pdfrwt>
<totfact> 0.23573495E+12</totfact>
</mgrwt>
</event>
<event>
 4    1  0.1838758E+006  0.2080795E+01  0.7546771E-02  0.2928244E+00
         22   -1    0    0    0    0  0.00000000000E+00  0.00000000000E+00  0.50355244147E+01  0.50355244147E+01  0.00000000000E+00 0.  1.
         22   -1    0    0    0    0 -0.00000000000E+00 -0.00000000000E+00 -0.90082122535E+00  0.90082122535E+00  0.00000000000E+00 0. -1.
          4    1    1    2  501    0 -0.13640680131E+01  0.92527194064E+00  0.27004916797E+01  0.34091589902E+01  0.12700000000E+01 0. -1.
         -4    1    1    2    0  501  0.13640680131E+01 -0.92527194064E+00  0.14342115096E+01  0.25271866498E+01  0.12700000000E+01 0. -1.
<mgrwt>
<rscale>  0 0.20807955E+01</rscale>
<asrwt>0</asrwt>
<pdfrwt beam="1">0</pdfrwt>
<pdfrwt beam="2">0</pdfrwt>
<totfact> 0.40633838E+12</totfact>
</mgrwt>
</event>
<event>
 4    1  0.1838758E+006  0.2063426E+01  0.7546771E-02  0.2939189E+00
         22   -1    0    0    0    0  0.00000000000E+00  0.00000000000E+00  0.55408176747E+00  0.55408176747E+00  0.00000000000E+00 0.  1.
         22   -1    0    0    0    0 -0.00000000000E+00 -0.00000000000E+00 -0.22443788951E+02  0.22443788951E+02  0.00000000000E+00 0.  1.
          4    1    1    2  501    0 -0.11503598404E+01  0.11495653011E+01 -0.16199303007E+01  0.26233380116E+01  0.12700000000E+01 0.  1.
         -4    1    1    2    0  501  0.11503598404E+01 -0.11495653011E+01 -0.20269776883E+02  0.20374532707E+02  0.12700000000E+01 0.  1.
<mgrwt>
<rscale>  0 0.20634263E+01</rscale>
<asrwt>0</asrwt>
<pdfrwt beam="1">0</pdfrwt>
<pdfrwt beam="2">0</pdfrwt>
<totfact> 0.11470735E+12</totfact>
</mgrwt>
</event>
<event>
 4    1  0.1838758E+006  0.2454662E+01  0.7546771E-02  0.2728862E+00
         22   -1    0    0    0    0  0.00000000000E+00  0.00000000000E+00  0.81533171983E+01  0.81533171983E+01  0.00000000000E+00 0.  1.
         22   -1    0    0    0    0 -0.00000000000E+00 -0.00000000000E+00 -0.90858546076E+00  0.90858546076E+00  0.00000000000E+00 0.  1.
          4    1    1    2  501    0 -0.15839231984E+01 -0.13797294945E+01  0.55798157076E+01  0.60958764348E+01  0.12700000000E+01 0.  1.
         -4    1    1    2    0  501  0.15839231984E+01  0.13797294945E+01  0.16649160299E+01  0.29660262243E+01  0.12700000000E+01 0.  1.
<mgrwt>
<rscale>  0 0.24546621E+01</rscale>
<asrwt>0</asrwt>
<pdfrwt beam="1">0</pdfrwt>
<pdfrwt beam="2">0</pdfrwt>
<totfact> 0.22646253E+12</totfact>
</mgrwt>
</event>
<event>
 4    1  0.1838758E+006  0.2487134E+01  0.7546771E-02  0.2714229E+00
         22   -1    0    0    0    0  0.00000000000E+00  0.00000000000E+00  0.12336644083E+01  0.12336644083E+01  0.00000000000E+00 0.  1.
         22   -1    0    0    0    0 -0.00000000000E+00 -0.00000000000E+00 -0.72714778696E+01  0.72714778696E+01  0.00000000000E+00 0. -1.
          4    1    1    2  501    0 -0.14487967137E+01  0.15728716754E+01 -0.64953622318E+00  0.25705514058E+01  0.12700000000E+01 0.  1.
         -4    1    1    2    0  501  0.14487967137E+01 -0.15728716754E+01 -0.53882772381E+01  0.59345908721E+01  0.12700000000E+01 0. -1.
<mgrwt>
<rscale>  0 0.24871343E+01</rscale>
<asrwt>0</asrwt>
<pdfrwt beam="1">0</pdfrwt>
<pdfrwt beam="2">0</pdfrwt>
<totfact> 0.18314760E+12</totfact>
</mgrwt>
</event>
<event>
 4    1  0.1838758E+006  0.4916743E+01  0.7546771E-02  0.2133075E+00
         22   -1    0    0    0    0  0.00000000000E+00  0.00000000000E+00  0.99316095683E+00  0.99316095683E+00  0.00000000000E+00 0. -1.
         22   -1    0    0    0    0 -0.00000000000E+00 -0.00000000000E+00 -0.38597572320E+02  0.38597572320E+02  0.00000000000E+00 0.  1.
          4    1    1    2  501    0 -0.36144083692E+01 -0.30818044301E+01 -0.67714297636E+01  0.83681914084E+01  0.12700000000E+01 0. -1.
         -4    1    1    2    0  501  0.36144083692E+01  0.30818044301E+01 -0.30832981600E+02  0.31222541868E+02  0.12700000000E+01 0.  1.
<mgrwt>
<rscale>  0 0.49167435E+01</rscale>
<asrwt>0</asrwt>
<pdfrwt beam="1">0</pdfrwt>
<pdfrwt beam="2">0</pdfrwt>
<totfact> 0.29635194E+11</totfact>
</mgrwt>
</event>
<event>
 4    1  0.1838758E+006  0.2112468E+01  0.7546771E-02  0.2908737E+00
         22   -1    0    0    0    0  0.00000000000E+00  0.00000000000E+00  0.13415528859E+02  0.13415528859E+02  0.00000000000E+00 0. -1.
         22   -1    0    0    0    0 -0.00000000000E+00 -0.00000000000E+00 -0.54981942436E+00  0.54981942436E+00  0.00000000000E+00 0. -1.
          4    1    1    2  501    0  0.37174540637E+00  0.16466403871E+01  0.10821421762E+02  0.11025683115E+02  0.12700000000E+01 0. -1.
         -4    1    1    2    0  501 -0.37174540637E+00 -0.16466403871E+01  0.20442876732E+01  0.29396651684E+01  0.12700000000E+01 0. -1.
<mgrwt>
<rscale>  0 0.21124676E+01</rscale>
<asrwt>0</asrwt>
<pdfrwt beam="1">0</pdfrwt>
<pdfrwt beam="2">0</pdfrwt>
<totfact> 0.21891610E+12</totfact>
</mgrwt>
</event>
<event>
 4    1  0.1838758E+006  0.2421314E+01  0.7546771E-02  0.2744270E+00
         22   -1    0    0    0    0  0.00000000000E+00  0.00000000000E+00  0.20868430929E+02  0.20868430929E+02  0.00000000000E+00 0. -1.
         22   -1    0    0    0    0 -0.00000000000E+00 -0.00000000000E+00 -0.29146319056E+00  0.29146319056E+00  0.00000000000E+00 0. -1.
          4    1    1    2  501    0  0.20433785144E+01 -0.27288449985E+00  0.12298874564E+02  0.12534954218E+02  0.12700000000E+01 0. -1.
         -4    1    1    2    0  501 -0.20433785144E+01  0.27288449985E+00  0.82780931750E+01  0.86249399023E+01  0.12700000000E+01 0. -1.
<mgrwt>
<rscale>  0 0.24213140E+01</rscale>
<asrwt>0</asrwt>
<pdfrwt beam="1">0</pdfrwt>
<pdfrwt beam="2">0</pdfrwt>
<totfact> 0.25898150E+12</totfact>
</mgrwt>
</event>
<event>
 4    1  0.1838758E+006  0.2326189E+01  0.7546771E-02  0.2790499E+00
         22   -1    0    0    0    0  0.00000000000E+00  0.00000000000E+00  0.99724453761E-01  0.99724453761E-01  0.00000000000E+00 0. -1.
         22   -1    0    0    0    0 -0.00000000000E+00 -0.00000000000E+00 -0.69494271107E+02  0.69494271107E+02  0.00000000000E+00 0. -1.
          4    1    1    2  501    0  0.15243300886E+01  0.12143604174E+01 -0.50988851804E+02  0.51041886346E+02  0.12700000000E+01 0. -1.
         -4    1    1    2    0  501 -0.15243300886E+01 -0.12143604174E+01 -0.18405694849E+02  0.18552109215E+02  0.12700000000E+01 0. -1.
<mgrwt>
<rscale>  0 0.23261886E+01</rscale>
<asrwt>0</asrwt>
<pdfrwt beam="1">0</pdfrwt>
<pdfrwt beam="2">0</pdfrwt>
<totfact> 0.17969776E+12</totfact>
</mgrwt>
</event>
<event>
 4    1  0.1838758E+006  0.2639199E+01  0.7546771E-02  0.2650171E+00
         22   -1    0    0    0    0  0.00000000000E+00  0.00000000000E+00  0.15169588991E+01  0.15169588991E+01  0.00000000000E+00 0. -1.
         22   -1    0    0    0    0 -0.00000000000E+00 -0.00000000000E+00 -0.49238521282E+01  0.49238521282E+01  0.00000000000E+00 0.  1.
          4    1    1    2  501    0  0.18483071960E+01 -0.13914857546E+01 -0.25399107037E+01  0.36628566009E+01  0.12700000000E+01 0.  1.
         -4    1    1    2    0  501 -0.18483071960E+01  0.13914857546E+01 -0.86698252538E+00  0.27779544264E+01  0.12700000000E+01 0.  1.
<mgrwt>
<rscale>  0 0.26391991E+01</rscale>
<asrwt>0</asrwt>
<pdfrwt beam="1">0</pdfrwt>
<pdfrwt beam="2">0</pdfrwt>
<totfact> 0.22974266E+12</totfact>
</mgrwt>
</event>
<event>
 4    1  0.1838758E+006  0.2369771E+01  0.7546771E-02  0.2768885E+00
         22   -1    0    0    0    0  0.00000000000E+00  0.00000000000E+00  0.11793508016E+01  0.11793508016E+01  0.00000000000E+00 0. -1.
         22   -1    0    0    0    0 -0.00000000000E+00 -0.00000000000E+00 -0.74925053971E+01  0.74925053971E+01  0.00000000000E+00 0.  1.
          4    1    1    2  501    0  0.15747753685E+01 -0.12340969426E+01 -0.53895303596E+00  0.24302845718E+01  0.12700000000E+01 0. -1.
         -4    1    1    2    0  501 -0.15747753685E+01  0.12340969426E+01 -0.57742015595E+01  0.62415716270E+01  0.12700000000E+01 0.  1.
<mgrwt>
<rscale>  0 0.23697706E+01</rscale>
<asrwt>0</asrwt>
<pdfrwt beam="1">0</pdfrwt>
<pdfrwt beam="2">0</pdfrwt>
<totfact> 0.18604583E+12</totfact>
</mgrwt>
</event>
<event>
 4    1  0.1838758E+006  0.2531301E+01  0.7546771E-02  0.2694890E+00
         22   -1    0    0    0    0  0.00000000000E+00  0.00000000000E+00  0.18694769903E+00  0.18694769903E+00  0.00000000000E+00 0.  1.
         22   -1    0    0    0    0 -0.00000000000E+00 -0.00000000000E+00 -0.36865049202E+02  0.36865049202E+02  0.00000000000E+00 0. -1.
          4    1    1    2  501    0  0.62777995460E+00  0.20977308104E+01 -0.23250340450E+02  0.23387727834E+02  0.12700000000E+01 0. -1.
         -4    1    1    2    0  501 -0.62777995460E+00 -0.20977308104E+01 -0.13427761053E+02  0.13664269066E+02  0.12700000000E+01 0.  1.
<mgrwt>
<rscale>  0 0.25313005E+01</rscale>
<asrwt>0</asrwt>
<pdfrwt beam="1">0</pdfrwt>
<pdfrwt beam="2">0</pdfrwt>
<totfact> 0.20662977E+12</totfact>
</mgrwt>
</event>
<event>
 4    1  0.1838758E+006  0.2060782E+01  0.7546771E-02  0.2940871E+00
         22   -1    0    0    0    0  0.00000000000E+00  0.00000000000E+00  0.15802734719E+01  0.15802734719E+01  0.00000000000E+00 0. -1.
         22   -1    0    0    0    0 -0.00000000000E+00 -0.00000000000E+00 -0.27126153947E+01  0.27126153947E+01  0.00000000000E+00 0.  1.
          4    1    1    2  501    0  0.16020907202E+01  0.25928010462E+00 -0.35920851252E+00  0.20918536287E+01  0.12700000000E+01 0.  1.
         -4    1    1    2    0  501 -0.16020907202E+01 -0.25928010462E+00 -0.77313341033E+00  0.22010352379E+01  0.12700000000E+01 0.  1.
<mgrwt>
<rscale>  0 0.20607816E+01</rscale>
<asrwt>0</asrwt>
<pdfrwt beam="1">0</pdfrwt>
<pdfrwt beam="2">0</pdfrwt>
<totfact> 0.44132749E+12</totfact>
</mgrwt>
</event>
<event>
 4    1  0.1838758E+006  0.3425884E+01  0.7546771E-02  0.2402617E+00
         22   -1    0    0    0    0  0.00000000000E+00  0.00000000000E+00  0.59390488826E+01  0.59390488826E+01  0.00000000000E+00 0. -1.
         22   -1    0    0    0    0 -0.00000000000E+00 -0.00000000000E+00 -0.44573512627E+01  0.44573512627E+01  0.00000000000E+00 0. -1.
          4    1    1    2  501    0 -0.28208118976E+00  0.31692602364E+01  0.46191558284E+01  0.57509373854E+01  0.12700000000E+01 0. -1.
         -4    1    1    2    0  501  0.28208118976E+00 -0.31692602364E+01 -0.31374582085E+01  0.46454627599E+01  0.12700000000E+01 0. -1.
<mgrwt>
<rscale>  0 0.34258839E+01</rscale>
<asrwt>0</asrwt>
<pdfrwt beam="1">0</pdfrwt>
<pdfrwt beam="2">0</pdfrwt>
<totfact> 0.52414419E+11</totfact>
</mgrwt>
</event>
<event>
 4    1  0.1838758E+006  0.2671565E+01  0.7546771E-02  0.2637407E+00
         22   -1    0    0    0    0  0.00000000000E+00  0.00000000000E+00  0.27208185913E+01  0.27208185913E+01  0.00000000000E+00 0.  1.
         22   -1    0    0    0    0 -0.00000000000E+00 -0.00000000000E+00 -0.31995034364E+01  0.31995034364E+01  0.00000000000E+00 0.  1.
          4    1    1    2  501    0  0.68763948237E+00  0.22475571396E+01  0.10169718337E+01  0.28585823172E+01  0.12700000000E+01 0.  1.
         -4    1    1    2    0  501 -0.68763948237E+00 -0.22475571396E+01 -0.14956566788E+01  0.30617397104E+01  0.12700000000E+01 0.  1.
<mgrwt>
<rscale>  0 0.26715653E+01</rscale>
<asrwt>0</asrwt>
<pdfrwt beam="1">0</pdfrwt>
<pdfrwt beam="2">0</pdfrwt>
<totfact> 0.19396484E+12</totfact>
</mgrwt>
</event>
<event>
 4    1  0.1838758E+006  0.5702314E+01  0.7546771E-02  0.2047460E+00
         22   -1    0    0    0    0  0.00000000000E+00  0.00000000000E+00  0.41423928532E+01  0.41423928532E+01  0.00000000000E+00 0. -1.
         22   -1    0    0    0    0 -0.00000000000E+00 -0.00000000000E+00 -0.10762420805E+02  0.10762420805E+02  0.00000000000E+00 0.  1.
          4    1    1    2  501    0 -0.33436761560E+01  0.44410940627E+01 -0.71869959316E+01  0.91743826621E+01  0.12700000000E+01 0.  1.
         -4    1    1    2    0  501  0.33436761560E+01 -0.44410940627E+01  0.56696797991E+00  0.57304309960E+01  0.12700000000E+01 0. -1.
<mgrwt>
<rscale>  0 0.57023142E+01</rscale>
<asrwt>0</asrwt>
<pdfrwt beam="1">0</pdfrwt>
<pdfrwt beam="2">0</pdfrwt>
<totfact> 0.27971890E+11</totfact>
</mgrwt>
</event>
<event>
 4    1  0.1838758E+006  0.2905407E+01  0.7546771E-02  0.2552945E+00
         22   -1    0    0    0    0  0.00000000000E+00  0.00000000000E+00  0.80989204178E+01  0.80989204178E+01  0.00000000000E+00 0. -1.
         22   -1    0    0    0    0 -0.00000000000E+00 -0.00000000000E+00 -0.12636833465E+01  0.12636833465E+01  0.00000000000E+00 0. -1.
          4    1    1    2  501    0 -0.22896415416E+01  0.12593764447E+01  0.14581684672E+01  0.32507910879E+01  0.12700000000E+01 0. -1.
         -4    1    1    2    0  501  0.22896415416E+01 -0.12593764447E+01  0.53770686041E+01  0.61118126764E+01  0.12700000000E+01 0. -1.
<mgrwt>
<rscale>  0 0.29054066E+01</rscale>
<asrwt>0</asrwt>
<pdfrwt beam="1">0</pdfrwt>
<pdfrwt beam="2">0</pdfrwt>
<totfact> 0.15656134E+12</totfact>
</mgrwt>
</event>
<event>
 4    1  0.1838758E+006  0.5404145E+01  0.7546771E-02  0.2077644E+00
         22   -1    0    0    0    0  0.00000000000E+00  0.00000000000E+00  0.38256513131E+01  0.38256513131E+01  0.00000000000E+00 0. -1.
         22   -1    0    0    0    0 -0.00000000000E+00 -0.00000000000E+00 -0.18928552091E+02  0.18928552091E+02  0.00000000000E+00 0.  1.
          4    1    1    2  501    0 -0.23249278841E+01  0.47102650765E+01  0.12369256689E+01  0.55438950087E+01  0.12700000000E+01 0. -1.
         -4    1    1    2    0  501  0.23249278841E+01 -0.47102650765E+01 -0.16339826447E+02  0.17210308396E+02  0.12700000000E+01 0.  1.
<mgrwt>
<rscale>  0 0.54041453E+01</rscale>
<asrwt>0</asrwt>
<pdfrwt beam="1">0</pdfrwt>
<pdfrwt beam="2">0</pdfrwt>
<totfact> 0.15352447E+11</totfact>
</mgrwt>
</event>
<event>
 4    1  0.1838758E+006  0.2372175E+01  0.7546771E-02  0.2767715E+00
         22   -1    0    0    0    0  0.00000000000E+00  0.00000000000E+00  0.87058636435E+01  0.87058636435E+01  0.00000000000E+00 0. -1.
         22   -1    0    0    0    0 -0.00000000000E+00 -0.00000000000E+00 -0.65096414369E+00  0.65096414369E+00  0.00000000000E+00 0.  1.
          4    1    1    2  501    0 -0.74876721470E+00 -0.18584024448E+01  0.44204624809E+01  0.50167420239E+01  0.12700000000E+01 0. -1.
         -4    1    1    2    0  501  0.74876721470E+00  0.18584024448E+01  0.36344370188E+01  0.43400857633E+01  0.12700000000E+01 0.  1.
<mgrwt>
<rscale>  0 0.23721745E+01</rscale>
<asrwt>0</asrwt>
<pdfrwt beam="1">0</pdfrwt>
<pdfrwt beam="2">0</pdfrwt>
<totfact> 0.30573762E+12</totfact>
</mgrwt>
</event>
<event>
 4    1  0.1838758E+006  0.2979352E+01  0.7546771E-02  0.2528746E+00
         22   -1    0    0    0    0  0.00000000000E+00  0.00000000000E+00  0.11522825652E+02  0.11522825652E+02  0.00000000000E+00 0.  1.
         22   -1    0    0    0    0 -0.00000000000E+00 -0.00000000000E+00 -0.12113509917E+01  0.12113509917E+01  0.00000000000E+00 0. -1.
          4    1    1    2  501    0  0.26815296244E+01 -0.27024955017E+00  0.89974843969E+01  0.94779355040E+01  0.12700000000E+01 0.  1.
         -4    1    1    2    0  501 -0.26815296244E+01  0.27024955017E+00  0.13139902629E+01  0.32562411392E+01  0.12700000000E+01 0. -1.
<mgrwt>
<rscale>  0 0.29793516E+01</rscale>
<asrwt>0</asrwt>
<pdfrwt beam="1">0</pdfrwt>
<pdfrwt beam="2">0</pdfrwt>
<totfact> 0.10728393E+12</totfact>
</mgrwt>
</event>
<event>
 4    1  0.1838758E+006  0.3706780E+01  0.7546771E-02  0.2337112E+00
         22   -1    0    0    0    0  0.00000000000E+00  0.00000000000E+00  0.74897098857E+00  0.74897098857E+00  0.00000000000E+00 0.  1.
         22   -1    0    0    0    0 -0.00000000000E+00 -0.00000000000E+00 -0.46337480643E+02  0.46337480643E+02  0.00000000000E+00 0. -1.
          4    1    1    2  501    0 -0.52580486726E+00  0.34425056494E+01 -0.44956954827E+01  0.58267910360E+01  0.12700000000E+01 0.  1.
         -4    1    1    2    0  501  0.52580486726E+00 -0.34425056494E+01 -0.41092814172E+02  0.41259660595E+02  0.12700000000E+01 0. -1.
<mgrwt>
<rscale>  0 0.37067797E+01</rscale>
<asrwt>0</asrwt>
<pdfrwt beam="1">0</pdfrwt>
<pdfrwt beam="2">0</pdfrwt>
<totfact> 0.32209875E+11</totfact>
</mgrwt>
</event>
<event>
 4    1  0.1838758E+006  0.2315808E+01  0.7546771E-02  0.2795760E+00
         22   -1    0    0    0    0  0.00000000000E+00  0.00000000000E+00  0.31300199084E+00  0.31300199084E+00  0.00000000000E+00 0.  1.
         22   -1    0    0    0    0 -0.00000000000E+00 -0.00000000000E+00 -0.17293138735E+02  0.17293138735E+02  0.00000000000E+00 0.  1.
          4    1    1    2  501    0 -0.12158911932E+01 -0.15072076240E+01 -0.76455125789E+01  0.79885435975E+01  0.12700000000E+01 0.  1.
         -4    1    1    2    0  501  0.12158911932E+01  0.15072076240E+01 -0.93346241650E+01  0.96175971281E+01  0.12700000000E+01 0.  1.
<mgrwt>
<rscale>  0 0.23158079E+01</rscale>
<asrwt>0</asrwt>
<pdfrwt beam="1">0</pdfrwt>
<pdfrwt beam="2">0</pdfrwt>
<totfact> 0.30204167E+12</totfact>
</mgrwt>
</event>
<event>
 4    1  0.1838758E+006  0.2244423E+01  0.7546771E-02  0.2833192E+00
         22   -1    0    0    0    0  0.00000000000E+00  0.00000000000E+00  0.12761957583E+02  0.12761957583E+02  0.00000000000E+00 0.  1.
         22   -1    0    0    0    0 -0.00000000000E+00 -0.00000000000E+00 -0.10444544253E+01  0.10444544253E+01  0.00000000000E+00 0. -1.
          4    1    1    2  501    0  0.18501391429E+01  0.38981891548E-01  0.11303441119E+02  0.11524114524E+02  0.12700000000E+01 0.  1.
         -4    1    1    2    0  501 -0.18501391429E+01 -0.38981891548E-01  0.41406203911E+00  0.22822974846E+01  0.12700000000E+01 0. -1.
<mgrwt>
<rscale>  0 0.22444230E+01</rscale>
<asrwt>0</asrwt>
<pdfrwt beam="1">0</pdfrwt>
<pdfrwt beam="2">0</pdfrwt>
<totfact> 0.11222144E+12</totfact>
</mgrwt>
</event>
<event>
 4    1  0.1838758E+006  0.2364093E+01  0.7546771E-02  0.2771658E+00
         22   -1    0    0    0    0  0.00000000000E+00  0.00000000000E+00  0.22421370459E+02  0.22421370459E+02  0.00000000000E+00 0.  1.
         22   -1    0    0    0    0 -0.00000000000E+00 -0.00000000000E+00 -0.24947672146E+00  0.24947672146E+00  0.00000000000E+00 0. -1.
          4    1    1    2  501    0 -0.81780812283E-01 -0.19923222182E+01  0.11413618837E+02  0.11655883960E+02  0.12700000000E+01 0.  1.
         -4    1    1    2    0  501  0.81780812283E-01  0.19923222182E+01  0.10758274901E+02  0.11014963221E+02  0.12700000000E+01 0. -1.
<mgrwt>
<rscale>  0 0.23640930E+01</rscale>
<asrwt>0</asrwt>
<pdfrwt beam="1">0</pdfrwt>
<pdfrwt beam="2">0</pdfrwt>
<totfact> 0.28176156E+12</totfact>
</mgrwt>
</event>
<event>
 4    1  0.1838758E+006  0.4705129E+01  0.7546771E-02  0.2159937E+00
         22   -1    0    0    0    0  0.00000000000E+00  0.00000000000E+00  0.42219752127E+01  0.42219752127E+01  0.00000000000E+00 0.  1.
         22   -1    0    0    0    0 -0.00000000000E+00 -0.00000000000E+00 -0.71342625982E+01  0.71342625982E+01  0.00000000000E+00 0. -1.
          4    1    1    2  501    0  0.28395657834E+01  0.35301846750E+01  0.14669315075E+01  0.49285013671E+01  0.12700000000E+01 0.  1.
         -4    1    1    2    0  501 -0.28395657834E+01 -0.35301846750E+01 -0.43792188930E+01  0.64277364438E+01  0.12700000000E+01 0. -1.
<mgrwt>
<rscale>  0 0.47051289E+01</rscale>
<asrwt>0</asrwt>
<pdfrwt beam="1">0</pdfrwt>
<pdfrwt beam="2">0</pdfrwt>
<totfact> 0.44895690E+11</totfact>
</mgrwt>
</event>
<event>
 4    1  0.1838758E+006  0.2520722E+01  0.7546771E-02  0.2699464E+00
         22   -1    0    0    0    0  0.00000000000E+00  0.00000000000E+00  0.38105758930E+00  0.38105758930E+00  0.00000000000E+00 0.  1.
         22   -1    0    0    0    0 -0.00000000000E+00 -0.00000000000E+00 -0.22444660487E+02  0.22444660487E+02  0.00000000000E+00 0. -1.
          4    1    1    2  501    0 -0.21268502878E+01  0.46652893037E+00 -0.52452164429E+01  0.58194790937E+01  0.12700000000E+01 0.  1.
         -4    1    1    2    0  501  0.21268502878E+01 -0.46652893037E+00 -0.16818386455E+02  0.17006238983E+02  0.12700000000E+01 0. -1.
<mgrwt>
<rscale>  0 0.25207224E+01</rscale>
<asrwt>0</asrwt>
<pdfrwt beam="1">0</pdfrwt>
<pdfrwt beam="2">0</pdfrwt>
<totfact> 0.17497688E+12</totfact>
</mgrwt>
</event>
<event>
 4    1  0.1838758E+006  0.2976667E+01  0.7546771E-02  0.2529605E+00
         22   -1    0    0    0    0  0.00000000000E+00  0.00000000000E+00  0.89293289245E+02  0.89293289245E+02  0.00000000000E+00 0. -1.
         22   -1    0    0    0    0 -0.00000000000E+00 -0.00000000000E+00 -0.99229717372E-01  0.99229717372E-01  0.00000000000E+00 0.  1.
          4    1    1    2  501    0  0.11790108677E+01 -0.24202437241E+01  0.44615691797E+02  0.44714880083E+02  0.12700000000E+01 0. -1.
         -4    1    1    2    0  501 -0.11790108677E+01  0.24202437241E+01  0.44578367731E+02  0.44677638879E+02  0.12700000000E+01 0.  1.
<mgrwt>
<rscale>  0 0.29766670E+01</rscale>
<asrwt>0</asrwt>
<pdfrwt beam="1">0</pdfrwt>
<pdfrwt beam="2">0</pdfrwt>
<totfact> 0.12809554E+12</totfact>
</mgrwt>
</event>
<event>
 4    1  0.1838758E+006  0.2190719E+01  0.7546771E-02  0.2862883E+00
         22   -1    0    0    0    0  0.00000000000E+00  0.00000000000E+00  0.12567264684E+00  0.12567264684E+00  0.00000000000E+00 0.  1.
         22   -1    0    0    0    0 -0.00000000000E+00 -0.00000000000E+00 -0.45917687959E+02  0.45917687959E+02  0.00000000000E+00 0. -1.
          4    1    1    2  501    0  0.16127560057E+01 -0.76509278971E+00 -0.13450742331E+02  0.13627975571E+02  0.12700000000E+01 0.  1.
         -4    1    1    2    0  501 -0.16127560057E+01  0.76509278971E+00 -0.32341272981E+02  0.32415385034E+02  0.12700000000E+01 0. -1.
<mgrwt>
<rscale>  0 0.21907188E+01</rscale>
<asrwt>0</asrwt>
<pdfrwt beam="1">0</pdfrwt>
<pdfrwt beam="2">0</pdfrwt>
<totfact> 0.24152990E+12</totfact>
</mgrwt>
</event>
<event>
 4    1  0.1838758E+006  0.2588917E+01  0.7546771E-02  0.2670581E+00
         22   -1    0    0    0    0  0.00000000000E+00  0.00000000000E+00  0.25800497722E+01  0.25800497722E+01  0.00000000000E+00 0. -1.
         22   -1    0    0    0    0 -0.00000000000E+00 -0.00000000000E+00 -0.10182462468E+02  0.10182462468E+02  0.00000000000E+00 0.  1.
          4    1    1    2  501    0  0.22558356852E+01  0.28249605581E-01  0.17062042923E+01  0.31005847458E+01  0.12700000000E+01 0. -1.
         -4    1    1    2    0  501 -0.22558356852E+01 -0.28249605581E-01 -0.93086169876E+01  0.96619274940E+01  0.12700000000E+01 0.  1.
<mgrwt>
<rscale>  0 0.25889173E+01</rscale>
<asrwt>0</asrwt>
<pdfrwt beam="1">0</pdfrwt>
<pdfrwt beam="2">0</pdfrwt>
<totfact> 0.52074382E+11</totfact>
</mgrwt>
</event>
<event>
 4    1  0.1838758E+006  0.2866168E+01  0.7546771E-02  0.2566242E+00
         22   -1    0    0    0    0  0.00000000000E+00  0.00000000000E+00  0.43051645765E+00  0.43051645765E+00  0.00000000000E+00 0.  1.
         22   -1    0    0    0    0 -0.00000000000E+00 -0.00000000000E+00 -0.19379279598E+02  0.19379279598E+02  0.00000000000E+00 0. -1.
          4    1    1    2  501    0  0.55374975609E+00  0.25090592824E+01 -0.82466623926E+01  0.87305416724E+01  0.12700000000E+01 0. -1.
         -4    1    1    2    0  501 -0.55374975609E+00 -0.25090592824E+01 -0.10702100748E+02  0.11079254383E+02  0.12700000000E+01 0.  1.
<mgrwt>
<rscale>  0 0.28661677E+01</rscale>
<asrwt>0</asrwt>
<pdfrwt beam="1">0</pdfrwt>
<pdfrwt beam="2">0</pdfrwt>
<totfact> 0.18323734E+12</totfact>
</mgrwt>
</event>
<event>
 4    1  0.1838758E+006  0.2419044E+01  0.7546771E-02  0.2745334E+00
         22   -1    0    0    0    0  0.00000000000E+00  0.00000000000E+00  0.30086638184E+02  0.30086638184E+02  0.00000000000E+00 0. -1.
         22   -1    0    0    0    0 -0.00000000000E+00 -0.00000000000E+00 -0.23345857464E+00  0.23345857464E+00  0.00000000000E+00 0.  1.
          4    1    1    2  501    0 -0.10202270950E+01  0.17882977785E+01  0.21119742820E+02  0.21257829359E+02  0.12700000000E+01 0. -1.
         -4    1    1    2    0  501  0.10202270950E+01 -0.17882977785E+01  0.87334367893E+01  0.90622673997E+01  0.12700000000E+01 0.  1.
<mgrwt>
<rscale>  0 0.24190437E+01</rscale>
<asrwt>0</asrwt>
<pdfrwt beam="1">0</pdfrwt>
<pdfrwt beam="2">0</pdfrwt>
<totfact> 0.20925025E+12</totfact>
</mgrwt>
</event>
<event>
 4    1  0.1838758E+006  0.4606016E+01  0.7546771E-02  0.2174536E+00
         22   -1    0    0    0    0  0.00000000000E+00  0.00000000000E+00  0.29049811352E+01  0.29049811352E+01  0.00000000000E+00 0. -1.
         22   -1    0    0    0    0 -0.00000000000E+00 -0.00000000000E+00 -0.80022853276E+01  0.80022853276E+01  0.00000000000E+00 0. -1.
          4    1    1    2  501    0  0.41947711026E+01 -0.14164659035E+01 -0.93661985172E+00  0.47002805242E+01  0.12700000000E+01 0. -1.
         -4    1    1    2    0  501 -0.41947711026E+01  0.14164659035E+01 -0.41606843408E+01  0.62069859387E+01  0.12700000000E+01 0. -1.
<mgrwt>
<rscale>  0 0.46060157E+01</rscale>
<asrwt>0</asrwt>
<pdfrwt beam="1">0</pdfrwt>
<pdfrwt beam="2">0</pdfrwt>
<totfact> 0.60650035E+11</totfact>
</mgrwt>
</event>
<event>
 4    1  0.1838758E+006  0.2314258E+01  0.7546771E-02  0.2796550E+00
         22   -1    0    0    0    0  0.00000000000E+00  0.00000000000E+00  0.30007226231E+02  0.30007226231E+02  0.00000000000E+00 0. -1.
         22   -1    0    0    0    0 -0.00000000000E+00 -0.00000000000E+00 -0.11547351083E+01  0.11547351083E+01  0.00000000000E+00 0.  1.
          4    1    1    2  501    0  0.14603559288E+01  0.12689560522E+01  0.28752561628E+02  0.28845547127E+02  0.12700000000E+01 0. -1.
         -4    1    1    2    0  501 -0.14603559288E+01 -0.12689560522E+01  0.99929495542E-01  0.23164142128E+01  0.12700000000E+01 0.  1.
<mgrwt>
<rscale>  0 0.23142577E+01</rscale>
<asrwt>0</asrwt>
<pdfrwt beam="1">0</pdfrwt>
<pdfrwt beam="2">0</pdfrwt>
<totfact> 0.34463163E+11</totfact>
</mgrwt>
</event>
<event>
 4    1  0.1838758E+006  0.2392544E+01  0.7546771E-02  0.2757887E+00
         22   -1    0    0    0    0  0.00000000000E+00  0.00000000000E+00  0.39889004895E+01  0.39889004895E+01  0.00000000000E+00 0. -1.
         22   -1    0    0    0    0 -0.00000000000E+00 -0.00000000000E+00 -0.16782543195E+01  0.16782543195E+01  0.00000000000E+00 0. -1.
          4    1    1    2  501    0  0.18791380135E+01 -0.76171274664E+00  0.22340042710E+01  0.32733837333E+01  0.12700000000E+01 0. -1.
         -4    1    1    2    0  501 -0.18791380135E+01  0.76171274664E+00  0.76641898938E-01  0.23937710757E+01  0.12700000000E+01 0. -1.
<mgrwt>
<rscale>  0 0.23925438E+01</rscale>
<asrwt>0</asrwt>
<pdfrwt beam="1">0</pdfrwt>
<pdfrwt beam="2">0</pdfrwt>
<totfact> 0.26217588E+12</totfact>
</mgrwt>
</event>
<event>
 4    1  0.1838758E+006  0.2019897E+01  0.7546771E-02  0.2967423E+00
         22   -1    0    0    0    0  0.00000000000E+00  0.00000000000E+00  0.92143137627E+00  0.92143137627E+00  0.00000000000E+00 0.  1.
         22   -1    0    0    0    0 -0.00000000000E+00 -0.00000000000E+00 -0.46356936970E+01  0.46356936970E+01  0.00000000000E+00 0. -1.
          4    1    1    2  501    0 -0.68756384648E+00 -0.14122103332E+01 -0.24454410165E+01  0.31717761323E+01  0.12700000000E+01 0.  1.
         -4    1    1    2    0  501  0.68756384648E+00  0.14122103332E+01 -0.12688213043E+01  0.23853489410E+01  0.12700000000E+01 0.  1.
<mgrwt>
<rscale>  0 0.20198965E+01</rscale>
<asrwt>0</asrwt>
<pdfrwt beam="1">0</pdfrwt>
<pdfrwt beam="2">0</pdfrwt>
<totfact> 0.43669520E+12</totfact>
</mgrwt>
</event>
<event>
 4    1  0.1838758E+006  0.3043910E+01  0.7546771E-02  0.2508484E+00
         22   -1    0    0    0    0  0.00000000000E+00  0.00000000000E+00  0.24561203180E+01  0.24561203180E+01  0.00000000000E+00 0.  1.
         22   -1    0    0    0    0 -0.00000000000E+00 -0.00000000000E+00 -0.37727091438E+01  0.37727091438E+01  0.00000000000E+00 0.  1.
          4    1    1    2  501    0  0.27660722299E+01  0.36544326490E-01 -0.62870329522E+00  0.31081600510E+01  0.12700000000E+01 0.  1.
         -4    1    1    2    0  501 -0.27660722299E+01 -0.36544326490E-01 -0.68788553053E+00  0.31206694109E+01  0.12700000000E+01 0.  1.
<mgrwt>
<rscale>  0 0.30439105E+01</rscale>
<asrwt>0</asrwt>
<pdfrwt beam="1">0</pdfrwt>
<pdfrwt beam="2">0</pdfrwt>
<totfact> 0.18011817E+12</totfact>
</mgrwt>
</event>
<event>
 4    1  0.1838758E+006  0.2411671E+01  0.7546771E-02  0.2748801E+00
         22   -1    0    0    0    0  0.00000000000E+00  0.00000000000E+00  0.17402392736E+02  0.17402392736E+02  0.00000000000E+00 0.  1.
         22   -1    0    0    0    0 -0.00000000000E+00 -0.00000000000E+00 -0.51796452401E+00  0.51796452401E+00  0.00000000000E+00 0. -1.
          4    1    1    2  501    0  0.17314409498E+01  0.10978921275E+01  0.13778988051E+02  0.13988447612E+02  0.12700000000E+01 0.  1.
         -4    1    1    2    0  501 -0.17314409498E+01 -0.10978921275E+01  0.31054401611E+01  0.39319096480E+01  0.12700000000E+01 0. -1.
<mgrwt>
<rscale>  0 0.24116706E+01</rscale>
<asrwt>0</asrwt>
<pdfrwt beam="1">0</pdfrwt>
<pdfrwt beam="2">0</pdfrwt>
<totfact> 0.16998877E+12</totfact>
</mgrwt>
</event>
<event>
 4    1  0.1838758E+006  0.3226414E+01  0.7546771E-02  0.2455136E+00
         22   -1    0    0    0    0  0.00000000000E+00  0.00000000000E+00  0.15419106211E+01  0.15419106211E+01  0.00000000000E+00 0. -1.
         22   -1    0    0    0    0 -0.00000000000E+00 -0.00000000000E+00 -0.71725191156E+01  0.71725191156E+01  0.00000000000E+00 0.  1.
          4    1    1    2  501    0 -0.11314529917E+01 -0.27416530831E+01 -0.17592687187E+01  0.36748842057E+01  0.12700000000E+01 0. -1.
         -4    1    1    2    0  501  0.11314529917E+01  0.27416530831E+01 -0.38713397757E+01  0.50395455310E+01  0.12700000000E+01 0.  1.
<mgrwt>
<rscale>  0 0.32264140E+01</rscale>
<asrwt>0</asrwt>
<pdfrwt beam="1">0</pdfrwt>
<pdfrwt beam="2">0</pdfrwt>
<totfact> 0.14410078E+12</totfact>
</mgrwt>
</event>
<event>
 4    1  0.1838758E+006  0.2838232E+01  0.7546771E-02  0.2575911E+00
         22   -1    0    0    0    0  0.00000000000E+00  0.00000000000E+00  0.21663598707E+01  0.21663598707E+01  0.00000000000E+00 0. -1.
         22   -1    0    0    0    0 -0.00000000000E+00 -0.00000000000E+00 -0.11329576225E+02  0.11329576225E+02  0.00000000000E+00 0. -1.
          4    1    1    2  501    0  0.65546848363E+00 -0.24521466990E+01 -0.10112432154E+02  0.10503182681E+02  0.12700000000E+01 0. -1.
         -4    1    1    2    0  501 -0.65546848363E+00  0.24521466990E+01  0.94921579958E+00  0.29927534146E+01  0.12700000000E+01 0. -1.
<mgrwt>
<rscale>  0 0.28382323E+01</rscale>
<asrwt>0</asrwt>
<pdfrwt beam="1">0</pdfrwt>
<pdfrwt beam="2">0</pdfrwt>
<totfact> 0.56041910E+11</totfact>
</mgrwt>
</event>
<event>
 4    1  0.1838758E+006  0.2342229E+01  0.7546771E-02  0.2782456E+00
         22   -1    0    0    0    0  0.00000000000E+00  0.00000000000E+00  0.26980984105E+02  0.26980984105E+02  0.00000000000E+00 0. -1.
         22   -1    0    0    0    0 -0.00000000000E+00 -0.00000000000E+00 -0.21231081062E+00  0.21231081062E+00  0.00000000000E+00 0. -1.
          4    1    1    2  501    0  0.21238663143E+00  0.19565351912E+01  0.16180795588E+02  0.16349439865E+02  0.12700000000E+01 0. -1.
         -4    1    1    2    0  501 -0.21238663143E+00 -0.19565351912E+01  0.10587877707E+02  0.10843855051E+02  0.12700000000E+01 0. -1.
<mgrwt>
<rscale>  0 0.23422293E+01</rscale>
<asrwt>0</asrwt>
<pdfrwt beam="1">0</pdfrwt>
<pdfrwt beam="2">0</pdfrwt>
<totfact> 0.26720493E+12</totfact>
</mgrwt>
</event>
<event>
 4    1  0.1838758E+006  0.3889759E+01  0.7546771E-02  0.2298876E+00
         22   -1    0    0    0    0  0.00000000000E+00  0.00000000000E+00  0.32764214605E+01  0.32764214605E+01  0.00000000000E+00 0.  1.
         22   -1    0    0    0    0 -0.00000000000E+00 -0.00000000000E+00 -0.63132862083E+01  0.63132862083E+01  0.00000000000E+00 0. -1.
          4    1    1    2  501    0  0.28381185112E+01 -0.23371788878E+01  0.96630550983E+00  0.40079880458E+01  0.12700000000E+01 0.  1.
         -4    1    1    2    0  501 -0.28381185112E+01  0.23371788878E+01 -0.40031702576E+01  0.55817196229E+01  0.12700000000E+01 0. -1.
<mgrwt>
<rscale>  0 0.38897586E+01</rscale>
<asrwt>0</asrwt>
<pdfrwt beam="1">0</pdfrwt>
<pdfrwt beam="2">0</pdfrwt>
<totfact> 0.69977886E+11</totfact>
</mgrwt>
</event>
<event>
 4    1  0.1838758E+006  0.2132653E+01  0.7546771E-02  0.2896598E+00
         22   -1    0    0    0    0  0.00000000000E+00  0.00000000000E+00  0.29313683744E+00  0.29313683744E+00  0.00000000000E+00 0. -1.
         22   -1    0    0    0    0 -0.00000000000E+00 -0.00000000000E+00 -0.16193649030E+02  0.16193649030E+02  0.00000000000E+00 0.  1.
          4    1    1    2  501    0 -0.55543954745E+00  0.16207398722E+01 -0.62635255267E+01  0.66166428684E+01  0.12700000000E+01 0. -1.
         -4    1    1    2    0  501  0.55543954745E+00 -0.16207398722E+01 -0.96369866659E+01  0.98701429991E+01  0.12700000000E+01 0.  1.
<mgrwt>
<rscale>  0 0.21326535E+01</rscale>
<asrwt>0</asrwt>
<pdfrwt beam="1">0</pdfrwt>
<pdfrwt beam="2">0</pdfrwt>
<totfact> 0.35258399E+12</totfact>
</mgrwt>
</event>
<event>
 4    1  0.1838758E+006  0.2121028E+01  0.7546771E-02  0.2903562E+00
         22   -1    0    0    0    0  0.00000000000E+00  0.00000000000E+00  0.86759179480E+01  0.86759179480E+01  0.00000000000E+00 0. -1.
         22   -1    0    0    0    0 -0.00000000000E+00 -0.00000000000E+00 -0.17317347797E+01  0.17317347797E+01  0.00000000000E+00 0.  1.
          4    1    1    2  501    0 -0.94665445851E+00  0.14105691255E+01  0.78276958765E+01  0.81099681046E+01  0.12700000000E+01 0. -1.
         -4    1    1    2    0  501  0.94665445851E+00 -0.14105691255E+01 -0.88351270823E+00  0.22976846231E+01  0.12700000000E+01 0.  1.
<mgrwt>
<rscale>  0 0.21210280E+01</rscale>
<asrwt>0</asrwt>
<pdfrwt beam="1">0</pdfrwt>
<pdfrwt beam="2">0</pdfrwt>
<totfact> 0.10029221E+12</totfact>
</mgrwt>
</event>
<event>
 4    1  0.1838758E+006  0.3639016E+01  0.7546771E-02  0.2352109E+00
         22   -1    0    0    0    0  0.00000000000E+00  0.00000000000E+00  0.32875176813E+02  0.32875176813E+02  0.00000000000E+00 0. -1.
         22   -1    0    0    0    0 -0.00000000000E+00 -0.00000000000E+00 -0.69524713493E+00  0.69524713493E+00  0.00000000000E+00 0. -1.
          4    1    1    2  501    0  0.10461035545E+01  0.32457984235E+01  0.26976099707E+02  0.27220440765E+02  0.12700000000E+01 0. -1.
         -4    1    1    2    0  501 -0.10461035545E+01 -0.32457984235E+01  0.52038299711E+01  0.63499831827E+01  0.12700000000E+01 0. -1.
<mgrwt>
<rscale>  0 0.36390164E+01</rscale>
<asrwt>0</asrwt>
<pdfrwt beam="1">0</pdfrwt>
<pdfrwt beam="2">0</pdfrwt>
<totfact> 0.54686046E+11</totfact>
</mgrwt>
</event>
<event>
 4    1  0.1838758E+006  0.2492724E+01  0.7546771E-02  0.2711747E+00
         22   -1    0    0    0    0  0.00000000000E+00  0.00000000000E+00  0.33004814767E+01  0.33004814767E+01  0.00000000000E+00 0. -1.
         22   -1    0    0    0    0 -0.00000000000E+00 -0.00000000000E+00 -0.19263865264E+01  0.19263865264E+01  0.00000000000E+00 0.  1.
          4    1    1    2  501    0  0.11715657787E+01 -0.17967204619E+01  0.29328632012E+00  0.25099178587E+01  0.12700000000E+01 0.  1.
         -4    1    1    2    0  501 -0.11715657787E+01  0.17967204619E+01  0.10808086301E+01  0.27169501444E+01  0.12700000000E+01 0. -1.
<mgrwt>
<rscale>  0 0.24927236E+01</rscale>
<asrwt>0</asrwt>
<pdfrwt beam="1">0</pdfrwt>
<pdfrwt beam="2">0</pdfrwt>
<totfact> 0.27926057E+12</totfact>
</mgrwt>
</event>
<event>
 4    1  0.1838758E+006  0.6654004E+01  0.7546771E-02  0.1965565E+00
         22   -1    0    0    0    0  0.00000000000E+00  0.00000000000E+00  0.76030669361E+01  0.76030669361E+01  0.00000000000E+00 0. -1.
         22   -1    0    0    0    0 -0.00000000000E+00 -0.00000000000E+00 -0.65255619148E+01  0.65255619148E+01  0.00000000000E+00 0.  1.
          4    1    1    2  501    0 -0.63551524779E+01 -0.15082774056E+01  0.28560249979E+01  0.72410387748E+01  0.12700000000E+01 0.  1.
         -4    1    1    2    0  501  0.63551524779E+01  0.15082774056E+01 -0.17785199767E+01  0.68875900761E+01  0.12700000000E+01 0.  1.
<mgrwt>
<rscale>  0 0.66540036E+01</rscale>
<asrwt>0</asrwt>
<pdfrwt beam="1">0</pdfrwt>
<pdfrwt beam="2">0</pdfrwt>
<totfact> 0.24823292E+11</totfact>
</mgrwt>
</event>
<event>
 4    1  0.1838758E+006  0.2216646E+01  0.7546771E-02  0.2848377E+00
         22   -1    0    0    0    0  0.00000000000E+00  0.00000000000E+00  0.10739158296E+02  0.10739158296E+02  0.00000000000E+00 0. -1.
         22   -1    0    0    0    0 -0.00000000000E+00 -0.00000000000E+00 -0.13562588503E+01  0.13562588503E+01  0.00000000000E+00 0. -1.
          4    1    1    2  501    0  0.16709531112E+01 -0.71311550375E+00  0.96144879543E+01  0.98667064741E+01  0.12700000000E+01 0. -1.
         -4    1    1    2    0  501 -0.16709531112E+01  0.71311550375E+00 -0.23158850889E+00  0.22287106719E+01  0.12700000000E+01 0. -1.
<mgrwt>
<rscale>  0 0.22166457E+01</rscale>
<asrwt>0</asrwt>
<pdfrwt beam="1">0</pdfrwt>
<pdfrwt beam="2">0</pdfrwt>
<totfact> 0.10266043E+12</totfact>
</mgrwt>
</event>
<event>
 4    1  0.1838758E+006  0.2675821E+01  0.7546771E-02  0.2635749E+00
         22   -1    0    0    0    0  0.00000000000E+00  0.00000000000E+00  0.27562114190E+00  0.27562114190E+00  0.00000000000E+00 0. -1.
         22   -1    0    0    0    0 -0.00000000000E+00 -0.00000000000E+00 -0.92166128744E+02  0.92166128744E+02  0.00000000000E+00 0.  1.
          4    1    1    2  501    0  0.16317740438E+01  0.16983618360E+01 -0.67761772269E+01  0.72853687118E+01  0.12700000000E+01 0. -1.
         -4    1    1    2    0  501 -0.16317740438E+01 -0.16983618360E+01 -0.85114330375E+02  0.85156381174E+02  0.12700000000E+01 0.  1.
<mgrwt>
<rscale>  0 0.26758213E+01</rscale>
<asrwt>0</asrwt>
<pdfrwt beam="1">0</pdfrwt>
<pdfrwt beam="2">0</pdfrwt>
<totfact> 0.39307902E+11</totfact>
</mgrwt>
</event>
<event>
 4    1  0.1838758E+006  0.2215598E+01  0.7546771E-02  0.2848957E+00
         22   -1    0    0    0    0  0.00000000000E+00  0.00000000000E+00  0.40243725434E+01  0.40243725434E+01  0.00000000000E+00 0. -1.
         22   -1    0    0    0    0 -0.00000000000E+00 -0.00000000000E+00 -0.12286308455E+01  0.12286308455E+01  0.00000000000E+00 0.  1.
          4    1    1    2  501    0 -0.12209780092E+01  0.13435723888E+01  0.16207181458E+01  0.27451049836E+01  0.12700000000E+01 0. -1.
         -4    1    1    2    0  501  0.12209780092E+01 -0.13435723888E+01  0.11750235521E+01  0.25078984052E+01  0.12700000000E+01 0. -1.
<mgrwt>
<rscale>  0 0.22155979E+01</rscale>
<asrwt>0</asrwt>
<pdfrwt beam="1">0</pdfrwt>
<pdfrwt beam="2">0</pdfrwt>
<totfact> 0.37133398E+12</totfact>
</mgrwt>
</event>
<event>
 4    1  0.1838758E+006  0.2656221E+01  0.7546771E-02  0.2643422E+00
         22   -1    0    0    0    0  0.00000000000E+00  0.00000000000E+00  0.16958068084E+02  0.16958068084E+02  0.00000000000E+00 0.  1.
         22   -1    0    0    0    0 -0.00000000000E+00 -0.00000000000E+00 -0.43099216773E+00  0.43099216773E+00  0.00000000000E+00 0.  1.
          4    1    1    2  501    0 -0.39517380813E+00  0.22992281478E+01  0.66449902775E+01  0.71562146560E+01  0.12700000000E+01 0.  1.
         -4    1    1    2    0  501  0.39517380813E+00 -0.22992281478E+01  0.98820856384E+01  0.10232845595E+02  0.12700000000E+01 0.  1.
<mgrwt>
<rscale>  0 0.26562215E+01</rscale>
<asrwt>0</asrwt>
<pdfrwt beam="1">0</pdfrwt>
<pdfrwt beam="2">0</pdfrwt>
<totfact> 0.21597762E+12</totfact>
</mgrwt>
</event>
<event>
 4    1  0.1838758E+006  0.2622571E+01  0.7546771E-02  0.2656840E+00
         22   -1    0    0    0    0  0.00000000000E+00  0.00000000000E+00  0.45031741505E+00  0.45031741505E+00  0.00000000000E+00 0.  1.
         22   -1    0    0    0    0 -0.00000000000E+00 -0.00000000000E+00 -0.20993735979E+02  0.20993735979E+02  0.00000000000E+00 0. -1.
          4    1    1    2  501    0  0.20650845137E+01  0.10002025446E+01 -0.46748718985E+01  0.53602524611E+01  0.12700000000E+01 0.  1.
         -4    1    1    2    0  501 -0.20650845137E+01 -0.10002025446E+01 -0.15868546665E+02  0.16083800933E+02  0.12700000000E+01 0. -1.
<mgrwt>
<rscale>  0 0.26225711E+01</rscale>
<asrwt>0</asrwt>
<pdfrwt beam="1">0</pdfrwt>
<pdfrwt beam="2">0</pdfrwt>
<totfact> 0.15763179E+12</totfact>
</mgrwt>
</event>
<event>
 4    1  0.1838758E+006  0.2681675E+01  0.7546771E-02  0.2633478E+00
         22   -1    0    0    0    0  0.00000000000E+00  0.00000000000E+00  0.43045697097E+01  0.43045697097E+01  0.00000000000E+00 0. -1.
         22   -1    0    0    0    0 -0.00000000000E+00 -0.00000000000E+00 -0.21315240226E+01  0.21315240226E+01  0.00000000000E+00 0.  1.
          4    1    1    2  501    0  0.10777206153E+00  0.23594202474E+01  0.25829097836E+01  0.37232783500E+01  0.12700000000E+01 0. -1.
         -4    1    1    2    0  501 -0.10777206153E+00 -0.23594202474E+01 -0.40986409660E+00  0.27128153823E+01  0.12700000000E+01 0.  1.
<mgrwt>
<rscale>  0 0.26816746E+01</rscale>
<asrwt>0</asrwt>
<pdfrwt beam="1">0</pdfrwt>
<pdfrwt beam="2">0</pdfrwt>
<totfact> 0.18180334E+12</totfact>
</mgrwt>
</event>
<event>
 4    1  0.1838758E+006  0.2367145E+01  0.7546771E-02  0.2770166E+00
         22   -1    0    0    0    0  0.00000000000E+00  0.00000000000E+00  0.32169491025E+00  0.32169491025E+00  0.00000000000E+00 0. -1.
         22   -1    0    0    0    0 -0.00000000000E+00 -0.00000000000E+00 -0.18653259526E+02  0.18653259526E+02  0.00000000000E+00 0.  1.
          4    1    1    2  501    0 -0.18541305109E+01 -0.74342190424E+00 -0.11606969264E+02  0.11845890071E+02  0.12700000000E+01 0.  1.
         -4    1    1    2    0  501  0.18541305109E+01  0.74342190424E+00 -0.67245953519E+01  0.71290643654E+01  0.12700000000E+01 0. -1.
<mgrwt>
<rscale>  0 0.23671451E+01</rscale>
<asrwt>0</asrwt>
<pdfrwt beam="1">0</pdfrwt>
<pdfrwt beam="2">0</pdfrwt>
<totfact> 0.26664189E+12</totfact>
</mgrwt>
</event>
<event>
 4    1  0.1838758E+006  0.3420337E+01  0.7546771E-02  0.2404005E+00
         22   -1    0    0    0    0  0.00000000000E+00  0.00000000000E+00  0.19389308534E+01  0.19389308534E+01  0.00000000000E+00 0. -1.
         22   -1    0    0    0    0 -0.00000000000E+00 -0.00000000000E+00 -0.23357325947E+02  0.23357325947E+02  0.00000000000E+00 0.  1.
          4    1    1    2  501    0 -0.15819611962E+01 -0.27537612707E+01  0.18350280798E+00  0.34252555588E+01  0.12700000000E+01 0. -1.
         -4    1    1    2    0  501  0.15819611962E+01  0.27537612707E+01 -0.21601897902E+02  0.21871001242E+02  0.12700000000E+01 0.  1.
<mgrwt>
<rscale>  0 0.34203366E+01</rscale>
<asrwt>0</asrwt>
<pdfrwt beam="1">0</pdfrwt>
<pdfrwt beam="2">0</pdfrwt>
<totfact> 0.26065914E+11</totfact>
</mgrwt>
</event>
<event>
 4    1  0.1838758E+006  0.4083240E+01  0.7546771E-02  0.2261660E+00
         22   -1    0    0    0    0  0.00000000000E+00  0.00000000000E+00  0.12441125430E+01  0.12441125430E+01  0.00000000000E+00 0.  1.
         22   -1    0    0    0    0 -0.00000000000E+00 -0.00000000000E+00 -0.26246079015E+02  0.26246079015E+02  0.00000000000E+00 0. -1.
          4    1    1    2  501    0  0.36130284448E+01 -0.14163250998E+01 -0.28853661154E+01  0.49998188918E+01  0.12700000000E+01 0.  1.
         -4    1    1    2    0  501 -0.36130284448E+01  0.14163250998E+01 -0.22116600357E+02  0.22490372667E+02  0.12700000000E+01 0. -1.
<mgrwt>
<rscale>  0 0.40832403E+01</rscale>
<asrwt>0</asrwt>
<pdfrwt beam="1">0</pdfrwt>
<pdfrwt beam="2">0</pdfrwt>
<totfact> 0.37507888E+11</totfact>
</mgrwt>
</event>
<event>
 4    1  0.1838758E+006  0.2432922E+01  0.7546771E-02  0.2738862E+00
         22   -1    0    0    0    0  0.00000000000E+00  0.00000000000E+00  0.52306395631E+00  0.52306395631E+00  0.00000000000E+00 0. -1.
         22   -1    0    0    0    0 -0.00000000000E+00 -0.00000000000E+00 -0.12340703378E+02  0.12340703378E+02  0.00000000000E+00 0.  1.
          4    1    1    2  501    0  0.20530707956E+01  0.30184348420E+00 -0.77620087328E+01  0.81343646801E+01  0.12700000000E+01 0.  1.
         -4    1    1    2    0  501 -0.20530707956E+01 -0.30184348420E+00 -0.40556306888E+01  0.47294026541E+01  0.12700000000E+01 0. -1.
<mgrwt>
<rscale>  0 0.24329219E+01</rscale>
<asrwt>0</asrwt>
<pdfrwt beam="1">0</pdfrwt>
<pdfrwt beam="2">0</pdfrwt>
<totfact> 0.25653094E+12</totfact>
</mgrwt>
</event>
<event>
 4    1  0.1838758E+006  0.4103623E+01  0.7546771E-02  0.2257914E+00
         22   -1    0    0    0    0  0.00000000000E+00  0.00000000000E+00  0.18034790587E+01  0.18034790587E+01  0.00000000000E+00 0. -1.
         22   -1    0    0    0    0 -0.00000000000E+00 -0.00000000000E+00 -0.12424309199E+02  0.12424309199E+02  0.00000000000E+00 0.  1.
          4    1    1    2  501    0 -0.38447587156E+01 -0.66682457978E+00 -0.17644345160E+01  0.44668729288E+01  0.12700000000E+01 0. -1.
         -4    1    1    2    0  501  0.38447587156E+01  0.66682457978E+00 -0.88563956242E+01  0.97609153287E+01  0.12700000000E+01 0.  1.
<mgrwt>
<rscale>  0 0.41036234E+01</rscale>
<asrwt>0</asrwt>
<pdfrwt beam="1">0</pdfrwt>
<pdfrwt beam="2">0</pdfrwt>
<totfact> 0.61919685E+11</totfact>
</mgrwt>
</event>
<event>
 4    1  0.1838758E+006  0.2124524E+01  0.7546771E-02  0.2901460E+00
         22   -1    0    0    0    0  0.00000000000E+00  0.00000000000E+00  0.45215398418E+01  0.45215398418E+01  0.00000000000E+00 0.  1.
         22   -1    0    0    0    0 -0.00000000000E+00 -0.00000000000E+00 -0.16180944081E+01  0.16180944081E+01  0.00000000000E+00 0.  1.
          4    1    1    2  501    0 -0.73354772954E+00  0.15370784282E+01  0.33517237616E+01  0.39683314554E+01  0.12700000000E+01 0.  1.
         -4    1    1    2    0  501  0.73354772954E+00 -0.15370784282E+01 -0.44827832790E+00  0.21713027945E+01  0.12700000000E+01 0.  1.
<mgrwt>
<rscale>  0 0.21245240E+01</rscale>
<asrwt>0</asrwt>
<pdfrwt beam="1">0</pdfrwt>
<pdfrwt beam="2">0</pdfrwt>
<totfact> 0.23588030E+12</totfact>
</mgrwt>
</event>
<event>
 4    1  0.1838758E+006  0.2150714E+01  0.7546771E-02  0.2885923E+00
         22   -1    0    0    0    0  0.00000000000E+00  0.00000000000E+00  0.27897509605E+02  0.27897509605E+02  0.00000000000E+00 0. -1.
         22   -1    0    0    0    0 -0.00000000000E+00 -0.00000000000E+00 -0.19278049038E+00  0.19278049038E+00  0.00000000000E+00 0.  1.
          4    1    1    2  501    0 -0.91107186623E+00  0.14773688937E+01  0.19106150517E+02  0.19226818727E+02  0.12700000000E+01 0. -1.
         -4    1    1    2    0  501  0.91107186623E+00 -0.14773688937E+01  0.85985785973E+01  0.88634713678E+01  0.12700000000E+01 0.  1.
<mgrwt>
<rscale>  0 0.21507140E+01</rscale>
<asrwt>0</asrwt>
<pdfrwt beam="1">0</pdfrwt>
<pdfrwt beam="2">0</pdfrwt>
<totfact> 0.28522806E+12</totfact>
</mgrwt>
</event>
<event>
 4    1  0.1838758E+006  0.2228326E+01  0.7546771E-02  0.2841947E+00
         22   -1    0    0    0    0  0.00000000000E+00  0.00000000000E+00  0.22605458889E+02  0.22605458889E+02  0.00000000000E+00 0. -1.
         22   -1    0    0    0    0 -0.00000000000E+00 -0.00000000000E+00 -0.30157636154E+00  0.30157636154E+00  0.00000000000E+00 0.  1.
          4    1    1    2  501    0  0.10379198397E+01 -0.15083966892E+01  0.17121394968E+02  0.17265792882E+02  0.12700000000E+01 0. -1.
         -4    1    1    2    0  501 -0.10379198397E+01  0.15083966892E+01  0.51824875591E+01  0.56412423690E+01  0.12700000000E+01 0.  1.
<mgrwt>
<rscale>  0 0.22283263E+01</rscale>
<asrwt>0</asrwt>
<pdfrwt beam="1">0</pdfrwt>
<pdfrwt beam="2">0</pdfrwt>
<totfact> 0.22551259E+12</totfact>
</mgrwt>
</event>
<event>
 4    1  0.1838758E+006  0.2536418E+01  0.7546771E-02  0.2692689E+00
         22   -1    0    0    0    0  0.00000000000E+00  0.00000000000E+00  0.59207021382E+00  0.59207021382E+00  0.00000000000E+00 0. -1.
         22   -1    0    0    0    0 -0.00000000000E+00 -0.00000000000E+00 -0.10871362384E+02  0.10871362384E+02  0.00000000000E+00 0. -1.
          4    1    1    2  501    0  0.84102559630E+00 -0.20281005523E+01 -0.50119669319E+01  0.56172260440E+01  0.12700000000E+01 0. -1.
         -4    1    1    2    0  501 -0.84102559630E+00  0.20281005523E+01 -0.52673252388E+01  0.58462065542E+01  0.12700000000E+01 0. -1.
<mgrwt>
<rscale>  0 0.25364179E+01</rscale>
<asrwt>0</asrwt>
<pdfrwt beam="1">0</pdfrwt>
<pdfrwt beam="2">0</pdfrwt>
<totfact> 0.26020224E+12</totfact>
</mgrwt>
</event>
<event>
 4    1  0.1838758E+006  0.2329814E+01  0.7546771E-02  0.2788672E+00
         22   -1    0    0    0    0  0.00000000000E+00  0.00000000000E+00  0.26283259962E+02  0.26283259962E+02  0.00000000000E+00 0. -1.
         22   -1    0    0    0    0 -0.00000000000E+00 -0.00000000000E+00 -0.20656696232E+00  0.20656696232E+00  0.00000000000E+00 0. -1.
          4    1    1    2  501    0  0.12092871217E+01  0.15338696022E+01  0.13237043698E+02  0.13440511789E+02  0.12700000000E+01 0. -1.
         -4    1    1    2    0  501 -0.12092871217E+01 -0.15338696022E+01  0.12839649302E+02  0.13049315135E+02  0.12700000000E+01 0. -1.
<mgrwt>
<rscale>  0 0.23298136E+01</rscale>
<asrwt>0</asrwt>
<pdfrwt beam="1">0</pdfrwt>
<pdfrwt beam="2">0</pdfrwt>
<totfact> 0.28480070E+12</totfact>
</mgrwt>
</event>
<event>
 4    1  0.1838758E+006  0.2738820E+01  0.7546771E-02  0.2611770E+00
         22   -1    0    0    0    0  0.00000000000E+00  0.00000000000E+00  0.28032733335E+02  0.28032733335E+02  0.00000000000E+00 0.  1.
         22   -1    0    0    0    0 -0.00000000000E+00 -0.00000000000E+00 -0.74965694758E+00  0.74965694758E+00  0.00000000000E+00 0. -1.
          4    1    1    2  501    0 -0.89314068917E+00 -0.22562213538E+01  0.25181956981E+02  0.25330457802E+02  0.12700000000E+01 0.  1.
         -4    1    1    2    0  501  0.89314068917E+00  0.22562213538E+01  0.21011194067E+01  0.34519324804E+01  0.12700000000E+01 0. -1.
<mgrwt>
<rscale>  0 0.27388200E+01</rscale>
<asrwt>0</asrwt>
<pdfrwt beam="1">0</pdfrwt>
<pdfrwt beam="2">0</pdfrwt>
<totfact> 0.61512452E+11</totfact>
</mgrwt>
</event>
<event>
 4    1  0.1838758E+006  0.2306976E+01  0.7546771E-02  0.2800272E+00
         22   -1    0    0    0    0  0.00000000000E+00  0.00000000000E+00  0.26018911768E+01  0.26018911768E+01  0.00000000000E+00 0.  1.
         22   -1    0    0    0    0 -0.00000000000E+00 -0.00000000000E+00 -0.25990476654E+01  0.25990476654E+01  0.00000000000E+00 0. -1.
          4    1    1    2  501    0 -0.18830691375E+01  0.40408814282E+00  0.12015480054E+01  0.26011255666E+01  0.12700000000E+01 0.  1.
         -4    1    1    2    0  501  0.18830691375E+01 -0.40408814282E+00 -0.11987044940E+01  0.25998132756E+01  0.12700000000E+01 0. -1.
<mgrwt>
<rscale>  0 0.23069756E+01</rscale>
<asrwt>0</asrwt>
<pdfrwt beam="1">0</pdfrwt>
<pdfrwt beam="2">0</pdfrwt>
<totfact> 0.26041863E+12</totfact>
</mgrwt>
</event>
<event>
 4    1  0.1838758E+006  0.2378104E+01  0.7546771E-02  0.2764838E+00
         22   -1    0    0    0    0  0.00000000000E+00  0.00000000000E+00  0.32628113575E+01  0.32628113575E+01  0.00000000000E+00 0.  1.
         22   -1    0    0    0    0 -0.00000000000E+00 -0.00000000000E+00 -0.17967761390E+01  0.17967761390E+01  0.00000000000E+00 0. -1.
          4    1    1    2  501    0  0.56350374711E+00  0.19300105049E+01  0.12085716644E+01  0.26675873912E+01  0.12700000000E+01 0. -1.
         -4    1    1    2    0  501 -0.56350374711E+00 -0.19300105049E+01  0.25746355411E+00  0.23920001053E+01  0.12700000000E+01 0.  1.
<mgrwt>
<rscale>  0 0.23781037E+01</rscale>
<asrwt>0</asrwt>
<pdfrwt beam="1">0</pdfrwt>
<pdfrwt beam="2">0</pdfrwt>
<totfact> 0.30676116E+12</totfact>
</mgrwt>
</event>
<event>
 4    1  0.1838758E+006  0.2076639E+01  0.7546771E-02  0.2930847E+00
         22   -1    0    0    0    0  0.00000000000E+00  0.00000000000E+00  0.14280079451E+01  0.14280079451E+01  0.00000000000E+00 0. -1.
         22   -1    0    0    0    0 -0.00000000000E+00 -0.00000000000E+00 -0.44637257745E+01  0.44637257745E+01  0.00000000000E+00 0.  1.
          4    1    1    2  501    0  0.14355757055E+01 -0.79915742108E+00  0.15755807732E+00  0.20826076773E+01  0.12700000000E+01 0. -1.
         -4    1    1    2    0  501 -0.14355757055E+01  0.79915742108E+00 -0.31932759067E+01  0.38091260423E+01  0.12700000000E+01 0.  1.
<mgrwt>
<rscale>  0 0.20766392E+01</rscale>
<asrwt>0</asrwt>
<pdfrwt beam="1">0</pdfrwt>
<pdfrwt beam="2">0</pdfrwt>
<totfact> 0.27653396E+12</totfact>
</mgrwt>
</event>
<event>
 4    1  0.1838758E+006  0.2071642E+01  0.7546771E-02  0.2933990E+00
         22   -1    0    0    0    0  0.00000000000E+00  0.00000000000E+00  0.41232989028E+00  0.41232989028E+00  0.00000000000E+00 0.  1.
         22   -1    0    0    0    0 -0.00000000000E+00 -0.00000000000E+00 -0.13670792151E+02  0.13670792151E+02  0.00000000000E+00 0. -1.
          4    1    1    2  501    0 -0.10481111697E+01 -0.12570849661E+01 -0.31893823704E+01  0.38031381175E+01  0.12700000000E+01 0. -1.
         -4    1    1    2    0  501  0.10481111697E+01  0.12570849661E+01 -0.10069079890E+02  0.10279983924E+02  0.12700000000E+01 0. -1.
<mgrwt>
<rscale>  0 0.20716418E+01</rscale>
<asrwt>0</asrwt>
<pdfrwt beam="1">0</pdfrwt>
<pdfrwt beam="2">0</pdfrwt>
<totfact> 0.29598512E+12</totfact>
</mgrwt>
</event>
<event>
 4    1  0.1838758E+006  0.3482702E+01  0.7546771E-02  0.2388626E+00
         22   -1    0    0    0    0  0.00000000000E+00  0.00000000000E+00  0.19081956952E+01  0.19081956952E+01  0.00000000000E+00 0.  1.
         22   -1    0    0    0    0 -0.00000000000E+00 -0.00000000000E+00 -0.12133674891E+02  0.12133674891E+02  0.00000000000E+00 0. -1.
          4    1    1    2  501    0  0.18362816962E+01  0.26728982444E+01 -0.26810429001E+00  0.34930066423E+01  0.12700000000E+01 0.  1.
         -4    1    1    2    0  501 -0.18362816962E+01 -0.26728982444E+01 -0.99573749060E+01  0.10548863944E+02  0.12700000000E+01 0. -1.
<mgrwt>
<rscale>  0 0.34827023E+01</rscale>
<asrwt>0</asrwt>
<pdfrwt beam="1">0</pdfrwt>
<pdfrwt beam="2">0</pdfrwt>
<totfact> 0.59710083E+11</totfact>
</mgrwt>
</event>
<event>
 4    1  0.1838758E+006  0.2251453E+01  0.7546771E-02  0.2829404E+00
         22   -1    0    0    0    0  0.00000000000E+00  0.00000000000E+00  0.41672631837E+00  0.41672631837E+00  0.00000000000E+00 0.  1.
         22   -1    0    0    0    0 -0.00000000000E+00 -0.00000000000E+00 -0.16304595167E+02  0.16304595167E+02  0.00000000000E+00 0. -1.
          4    1    1    2  501    0  0.20799185933E+00  0.18473987110E+01 -0.37306669466E+01  0.43573981317E+01  0.12700000000E+01 0. -1.
         -4    1    1    2    0  501 -0.20799185933E+00 -0.18473987110E+01 -0.12157201902E+02  0.12363923354E+02  0.12700000000E+01 0. -1.
<mgrwt>
<rscale>  0 0.22514534E+01</rscale>
<asrwt>0</asrwt>
<pdfrwt beam="1">0</pdfrwt>
<pdfrwt beam="2">0</pdfrwt>
<totfact> 0.23548123E+12</totfact>
</mgrwt>
</event>
<event>
 4    1  0.1838758E+006  0.2112735E+01  0.7546771E-02  0.2908575E+00
         22   -1    0    0    0    0  0.00000000000E+00  0.00000000000E+00  0.27169587774E+01  0.27169587774E+01  0.00000000000E+00 0.  1.
         22   -1    0    0    0    0 -0.00000000000E+00 -0.00000000000E+00 -0.31027255279E+01  0.31027255279E+01  0.00000000000E+00 0. -1.
          4    1    1    2  501    0  0.15576475686E+01 -0.65152336830E+00  0.18030708570E+01  0.27775372478E+01  0.12700000000E+01 0.  1.
         -4    1    1    2    0  501 -0.15576475686E+01  0.65152336830E+00 -0.21888376075E+01  0.30421470575E+01  0.12700000000E+01 0. -1.
<mgrwt>
<rscale>  0 0.21127349E+01</rscale>
<asrwt>0</asrwt>
<pdfrwt beam="1">0</pdfrwt>
<pdfrwt beam="2">0</pdfrwt>
<totfact> 0.20137823E+12</totfact>
</mgrwt>
</event>
<event>
 4    1  0.1838758E+006  0.2024950E+01  0.7546771E-02  0.2964084E+00
         22   -1    0    0    0    0  0.00000000000E+00  0.00000000000E+00  0.10089847071E+01  0.10089847071E+01  0.00000000000E+00 0.  1.
         22   -1    0    0    0    0 -0.00000000000E+00 -0.00000000000E+00 -0.40648078903E+01  0.40648078903E+01  0.00000000000E+00 0.  1.
          4    1    1    2  501    0  0.14679450679E+01 -0.57676762986E+00 -0.14902190709E+01  0.25141950005E+01  0.12700000000E+01 0.  1.
         -4    1    1    2    0  501 -0.14679450679E+01  0.57676762986E+00 -0.15656041123E+01  0.25595975969E+01  0.12700000000E+01 0.  1.
<mgrwt>
<rscale>  0 0.20249503E+01</rscale>
<asrwt>0</asrwt>
<pdfrwt beam="1">0</pdfrwt>
<pdfrwt beam="2">0</pdfrwt>
<totfact> 0.45972819E+12</totfact>
</mgrwt>
</event>
<event>
 4    1  0.1838758E+006  0.2845728E+01  0.7546771E-02  0.2573300E+00
         22   -1    0    0    0    0  0.00000000000E+00  0.00000000000E+00  0.20665312840E+02  0.20665312840E+02  0.00000000000E+00 0.  1.
         22   -1    0    0    0    0 -0.00000000000E+00 -0.00000000000E+00 -0.40752511630E+00  0.40752511630E+00  0.00000000000E+00 0. -1.
          4    1    1    2  501    0  0.11918567991E+01 -0.22504984907E+01  0.12193848264E+02  0.12521505563E+02  0.12700000000E+01 0. -1.
         -4    1    1    2    0  501 -0.11918567991E+01  0.22504984907E+01  0.80639394601E+01  0.85513323934E+01  0.12700000000E+01 0.  1.
<mgrwt>
<rscale>  0 0.28457277E+01</rscale>
<asrwt>0</asrwt>
<pdfrwt beam="1">0</pdfrwt>
<pdfrwt beam="2">0</pdfrwt>
<totfact> 0.17991337E+12</totfact>
</mgrwt>
</event>
<event>
 4    1  0.1838758E+006  0.2181356E+01  0.7546771E-02  0.2868202E+00
         22   -1    0    0    0    0  0.00000000000E+00  0.00000000000E+00  0.42523473836E+00  0.42523473836E+00  0.00000000000E+00 0.  1.
         22   -1    0    0    0    0 -0.00000000000E+00 -0.00000000000E+00 -0.11559693856E+02  0.11559693856E+02  0.00000000000E+00 0. -1.
          4    1    1    2  501    0 -0.17561129057E+01 -0.24795366258E+00 -0.66390959114E+01  0.69882693192E+01  0.12700000000E+01 0.  1.
         -4    1    1    2    0  501  0.17561129057E+01  0.24795366258E+00 -0.44953632063E+01  0.49966592752E+01  0.12700000000E+01 0.  1.
<mgrwt>
<rscale>  0 0.21813559E+01</rscale>
<asrwt>0</asrwt>
<pdfrwt beam="1">0</pdfrwt>
<pdfrwt beam="2">0</pdfrwt>
<totfact> 0.35091329E+12</totfact>
</mgrwt>
</event>
<event>
 4    1  0.1838758E+006  0.2697128E+01  0.7546771E-02  0.2627525E+00
         22   -1    0    0    0    0  0.00000000000E+00  0.00000000000E+00  0.19608847158E+00  0.19608847158E+00  0.00000000000E+00 0.  1.
         22   -1    0    0    0    0 -0.00000000000E+00 -0.00000000000E+00 -0.44328513694E+02  0.44328513694E+02  0.00000000000E+00 0. -1.
          4    1    1    2  501    0 -0.22323310200E+01 -0.82358943235E+00 -0.13075143716E+02  0.13350426380E+02  0.12700000000E+01 0. -1.
         -4    1    1    2    0  501  0.22323310200E+01  0.82358943235E+00 -0.31057281507E+02  0.31174175786E+02  0.12700000000E+01 0.  1.
<mgrwt>
<rscale>  0 0.26971283E+01</rscale>
<asrwt>0</asrwt>
<pdfrwt beam="1">0</pdfrwt>
<pdfrwt beam="2">0</pdfrwt>
<totfact> 0.15420065E+12</totfact>
</mgrwt>
</event>
<event>
 4    1  0.1838758E+006  0.2093808E+01  0.7546771E-02  0.2920160E+00
         22   -1    0    0    0    0  0.00000000000E+00  0.00000000000E+00  0.39444132765E+00  0.39444132765E+00  0.00000000000E+00 0. -1.
         22   -1    0    0    0    0 -0.00000000000E+00 -0.00000000000E+00 -0.17664627915E+02  0.17664627915E+02  0.00000000000E+00 0. -1.
          4    1    1    2  501    0 -0.60857637891E+00  0.15494412534E+01 -0.14133498318E+02  0.14287750282E+02  0.12700000000E+01 0. -1.
         -4    1    1    2    0  501  0.60857637891E+00 -0.15494412534E+01 -0.31366882696E+01  0.37713189612E+01  0.12700000000E+01 0. -1.
<mgrwt>
<rscale>  0 0.20938084E+01</rscale>
<asrwt>0</asrwt>
<pdfrwt beam="1">0</pdfrwt>
<pdfrwt beam="2">0</pdfrwt>
<totfact> 0.22685983E+12</totfact>
</mgrwt>
</event>
<event>
 4    1  0.1838758E+006  0.3157228E+01  0.7546771E-02  0.2474714E+00
         22   -1    0    0    0    0  0.00000000000E+00  0.00000000000E+00  0.21355846686E+02  0.21355846686E+02  0.00000000000E+00 0.  1.
         22   -1    0    0    0    0 -0.00000000000E+00 -0.00000000000E+00 -0.60996568760E+00  0.60996568760E+00  0.00000000000E+00 0.  1.
          4    1    1    2  501    0 -0.10488359664E+01 -0.26935346467E+01  0.15694544075E+02  0.16008959976E+02  0.12700000000E+01 0.  1.
         -4    1    1    2    0  501  0.10488359664E+01  0.26935346467E+01  0.50513369228E+01  0.59568523974E+01  0.12700000000E+01 0.  1.
<mgrwt>
<rscale>  0 0.31572275E+01</rscale>
<asrwt>0</asrwt>
<pdfrwt beam="1">0</pdfrwt>
<pdfrwt beam="2">0</pdfrwt>
<totfact> 0.10950613E+12</totfact>
</mgrwt>
</event>
<event>
 4    1  0.1838758E+006  0.2560694E+01  0.7546771E-02  0.2682362E+00
         22   -1    0    0    0    0  0.00000000000E+00  0.00000000000E+00  0.25383067073E+01  0.25383067073E+01  0.00000000000E+00 0. -1.
         22   -1    0    0    0    0 -0.00000000000E+00 -0.00000000000E+00 -0.28764902272E+01  0.28764902272E+01  0.00000000000E+00 0. -1.
          4    1    1    2  501    0 -0.87347577597E+00 -0.20448207006E+01  0.69530242627E+00  0.26534123488E+01  0.12700000000E+01 0. -1.
         -4    1    1    2    0  501  0.87347577597E+00  0.20448207006E+01 -0.10334859462E+01  0.27613845857E+01  0.12700000000E+01 0. -1.
<mgrwt>
<rscale>  0 0.25606936E+01</rscale>
<asrwt>0</asrwt>
<pdfrwt beam="1">0</pdfrwt>
<pdfrwt beam="2">0</pdfrwt>
<totfact> 0.23814723E+12</totfact>
</mgrwt>
</event>
<event>
 4    1  0.1838758E+006  0.3066610E+01  0.7546771E-02  0.2501541E+00
         22   -1    0    0    0    0  0.00000000000E+00  0.00000000000E+00  0.57696947595E+00  0.57696947595E+00  0.00000000000E+00 0.  1.
         22   -1    0    0    0    0 -0.00000000000E+00 -0.00000000000E+00 -0.22736307879E+02  0.22736307879E+02  0.00000000000E+00 0. -1.
          4    1    1    2  501    0 -0.27593918259E+01 -0.42065730961E+00 -0.48772460452E+01  0.57612173025E+01  0.12700000000E+01 0.  1.
         -4    1    1    2    0  501  0.27593918259E+01  0.42065730961E+00 -0.17282092358E+02  0.17552060052E+02  0.12700000000E+01 0. -1.
<mgrwt>
<rscale>  0 0.30666098E+01</rscale>
<asrwt>0</asrwt>
<pdfrwt beam="1">0</pdfrwt>
<pdfrwt beam="2">0</pdfrwt>
<totfact> 0.10781916E+12</totfact>
</mgrwt>
</event>
<event>
 4    1  0.1838758E+006  0.2276071E+01  0.7546771E-02  0.2816321E+00
         22   -1    0    0    0    0  0.00000000000E+00  0.00000000000E+00  0.39110807297E+01  0.39110807297E+01  0.00000000000E+00 0.  1.
         22   -1    0    0    0    0 -0.00000000000E+00 -0.00000000000E+00 -0.13935393035E+01  0.13935393035E+01  0.00000000000E+00 0. -1.
          4    1    1    2  501    0  0.17587331760E+01 -0.68880861895E+00  0.18488264000E+01  0.29323469705E+01  0.12700000000E+01 0.  1.
         -4    1    1    2    0  501 -0.17587331760E+01  0.68880861895E+00  0.66871502616E+00  0.23722730627E+01  0.12700000000E+01 0. -1.
<mgrwt>
<rscale>  0 0.22760711E+01</rscale>
<asrwt>0</asrwt>
<pdfrwt beam="1">0</pdfrwt>
<pdfrwt beam="2">0</pdfrwt>
<totfact> 0.33234423E+12</totfact>
</mgrwt>
</event>
<event>
 4    1  0.1838758E+006  0.2090469E+01  0.7546771E-02  0.2922225E+00
         22   -1    0    0    0    0  0.00000000000E+00  0.00000000000E+00  0.77022651296E+01  0.77022651296E+01  0.00000000000E+00 0.  1.
         22   -1    0    0    0    0 -0.00000000000E+00 -0.00000000000E+00 -0.72302506043E+00  0.72302506043E+00  0.00000000000E+00 0.  1.
          4    1    1    2  501    0  0.93532471457E+00  0.13719803380E+01  0.54442057079E+01  0.58317611542E+01  0.12700000000E+01 0.  1.
         -4    1    1    2    0  501 -0.93532471457E+00 -0.13719803380E+01  0.15350343613E+01  0.25935290358E+01  0.12700000000E+01 0.  1.
<mgrwt>
<rscale>  0 0.20904694E+01</rscale>
<asrwt>0</asrwt>
<pdfrwt beam="1">0</pdfrwt>
<pdfrwt beam="2">0</pdfrwt>
<totfact> 0.31444435E+12</totfact>
</mgrwt>
</event>
<event>
 4    1  0.1838758E+006  0.4734890E+01  0.7546771E-02  0.2156044E+00
         22   -1    0    0    0    0  0.00000000000E+00  0.00000000000E+00  0.13852138348E+01  0.13852138348E+01  0.00000000000E+00 0.  1.
         22   -1    0    0    0    0 -0.00000000000E+00 -0.00000000000E+00 -0.18830535444E+02  0.18830535444E+02  0.00000000000E+00 0. -1.
          4    1    1    2  501    0  0.31536981664E+01  0.32955225103E+01 -0.12511579068E+02  0.13377548038E+02  0.12700000000E+01 0. -1.
         -4    1    1    2    0  501 -0.31536981664E+01 -0.32955225103E+01 -0.49337425406E+01  0.68382012399E+01  0.12700000000E+01 0.  1.
<mgrwt>
<rscale>  0 0.47348897E+01</rscale>
<asrwt>0</asrwt>
<pdfrwt beam="1">0</pdfrwt>
<pdfrwt beam="2">0</pdfrwt>
<totfact> 0.50276805E+11</totfact>
</mgrwt>
</event>
<event>
 4    1  0.1838758E+006  0.2088778E+01  0.7546771E-02  0.2923273E+00
         22   -1    0    0    0    0  0.00000000000E+00  0.00000000000E+00  0.35012866916E+02  0.35012866916E+02  0.00000000000E+00 0. -1.
         22   -1    0    0    0    0 -0.00000000000E+00 -0.00000000000E+00 -0.68044177284E+01  0.68044177284E+01  0.00000000000E+00 0. -1.
          4    1    1    2  501    0  0.85203054285E+00 -0.14227221152E+01  0.34820529414E+02  0.34883122895E+02  0.12700000000E+01 0. -1.
         -4    1    1    2    0  501 -0.85203054285E+00  0.14227221152E+01 -0.66120802256E+01  0.69341617498E+01  0.12700000000E+01 0. -1.
<mgrwt>
<rscale>  0 0.20887782E+01</rscale>
<asrwt>0</asrwt>
<pdfrwt beam="1">0</pdfrwt>
<pdfrwt beam="2">0</pdfrwt>
<totfact> 0.35660699E+10</totfact>
</mgrwt>
</event>
<event>
 4    1  0.1838758E+006  0.2248070E+01  0.7546771E-02  0.2831225E+00
         22   -1    0    0    0    0  0.00000000000E+00  0.00000000000E+00  0.52503514314E+00  0.52503514314E+00  0.00000000000E+00 0.  1.
         22   -1    0    0    0    0 -0.00000000000E+00 -0.00000000000E+00 -0.96743032261E+01  0.96743032261E+01  0.00000000000E+00 0.  1.
          4    1    1    2  501    0 -0.95901026764E+00 -0.15878340071E+01 -0.49361915835E+01  0.54240026619E+01  0.12700000000E+01 0.  1.
         -4    1    1    2    0  501  0.95901026764E+00  0.15878340071E+01 -0.42130764995E+01  0.47753357073E+01  0.12700000000E+01 0.  1.
<mgrwt>
<rscale>  0 0.22480697E+01</rscale>
<asrwt>0</asrwt>
<pdfrwt beam="1">0</pdfrwt>
<pdfrwt beam="2">0</pdfrwt>
<totfact> 0.34334385E+12</totfact>
</mgrwt>
</event>
<event>
 4    1  0.1838758E+006  0.2006120E+01  0.7546771E-02  0.2976609E+00
         22   -1    0    0    0    0  0.00000000000E+00  0.00000000000E+00  0.20592616648E+01  0.20592616648E+01  0.00000000000E+00 0. -1.
         22   -1    0    0    0    0 -0.00000000000E+00 -0.00000000000E+00 -0.19910964225E+01  0.19910964225E+01  0.00000000000E+00 0. -1.
          4    1    1    2  501    0  0.11560195277E+01 -0.10369356144E+01  0.30920687615E+00  0.20298092297E+01  0.12700000000E+01 0. -1.
         -4    1    1    2    0  501 -0.11560195277E+01  0.10369356144E+01 -0.24104163382E+00  0.20205488576E+01  0.12700000000E+01 0. -1.
<mgrwt>
<rscale>  0 0.20061198E+01</rscale>
<asrwt>0</asrwt>
<pdfrwt beam="1">0</pdfrwt>
<pdfrwt beam="2">0</pdfrwt>
<totfact> 0.46549466E+12</totfact>
</mgrwt>
</event>
<event>
 4    1  0.1838758E+006  0.2588363E+01  0.7546771E-02  0.2670811E+00
         22   -1    0    0    0    0  0.00000000000E+00  0.00000000000E+00  0.46913047198E+00  0.46913047198E+00  0.00000000000E+00 0. -1.
         22   -1    0    0    0    0 -0.00000000000E+00 -0.00000000000E+00 -0.15452579066E+02  0.15452579066E+02  0.00000000000E+00 0.  1.
          4    1    1    2  501    0  0.13338022849E+01  0.18187063750E+01 -0.52996402268E+01  0.58979494697E+01  0.12700000000E+01 0. -1.
         -4    1    1    2    0  501 -0.13338022849E+01 -0.18187063750E+01 -0.96838083669E+01  0.10023760068E+02  0.12700000000E+01 0.  1.
<mgrwt>
<rscale>  0 0.25883627E+01</rscale>
<asrwt>0</asrwt>
<pdfrwt beam="1">0</pdfrwt>
<pdfrwt beam="2">0</pdfrwt>
<totfact> 0.22016132E+12</totfact>
</mgrwt>
</event>
<event>
 4    1  0.1838758E+006  0.2140997E+01  0.7546771E-02  0.2891645E+00
         22   -1    0    0    0    0  0.00000000000E+00  0.00000000000E+00  0.14819941783E+00  0.14819941783E+00  0.00000000000E+00 0.  1.
         22   -1    0    0    0    0 -0.00000000000E+00 -0.00000000000E+00 -0.37052318461E+02  0.37052318461E+02  0.00000000000E+00 0.  1.
          4    1    1    2  501    0  0.83037139642E+00  0.15104471030E+01 -0.10891479638E+02  0.11099918730E+02  0.12700000000E+01 0.  1.
         -4    1    1    2    0  501 -0.83037139642E+00 -0.15104471030E+01 -0.26012639405E+02  0.26100599149E+02  0.12700000000E+01 0.  1.
<mgrwt>
<rscale>  0 0.21409968E+01</rscale>
<asrwt>0</asrwt>
<pdfrwt beam="1">0</pdfrwt>
<pdfrwt beam="2">0</pdfrwt>
<totfact> 0.26583491E+12</totfact>
</mgrwt>
</event>
<event>
 4    1  0.1838758E+006  0.2060509E+01  0.7546771E-02  0.2941045E+00
         22   -1    0    0    0    0  0.00000000000E+00  0.00000000000E+00  0.53860925628E+02  0.53860925628E+02  0.00000000000E+00 0. -1.
         22   -1    0    0    0    0 -0.00000000000E+00 -0.00000000000E+00 -0.14876417051E+00  0.14876417051E+00  0.00000000000E+00 0.  1.
          4    1    1    2  501    0 -0.16213231877E+01  0.64088492721E-01  0.45372051406E+02  0.45418814879E+02  0.12700000000E+01 0.  1.
         -4    1    1    2    0  501  0.16213231877E+01 -0.64088492721E-01  0.83401100517E+01  0.85908749199E+01  0.12700000000E+01 0. -1.
<mgrwt>
<rscale>  0 0.20605087E+01</rscale>
<asrwt>0</asrwt>
<pdfrwt beam="1">0</pdfrwt>
<pdfrwt beam="2">0</pdfrwt>
<totfact> 0.16226544E+12</totfact>
</mgrwt>
</event>
<event>
 4    1  0.1838758E+006  0.2346977E+01  0.7546771E-02  0.2780095E+00
         22   -1    0    0    0    0  0.00000000000E+00  0.00000000000E+00  0.28596771873E+00  0.28596771873E+00  0.00000000000E+00 0. -1.
         22   -1    0    0    0    0 -0.00000000000E+00 -0.00000000000E+00 -0.48351904510E+02  0.48351904510E+02  0.00000000000E+00 0.  1.
          4    1    1    2  501    0  0.19625018963E+01  0.20973121118E+00 -0.51700376363E+01  0.56778156041E+01  0.12700000000E+01 0. -1.
         -4    1    1    2    0  501 -0.19625018963E+01 -0.20973121118E+00 -0.42895899155E+02  0.42960056625E+02  0.12700000000E+01 0.  1.
<mgrwt>
<rscale>  0 0.23469770E+01</rscale>
<asrwt>0</asrwt>
<pdfrwt beam="1">0</pdfrwt>
<pdfrwt beam="2">0</pdfrwt>
<totfact> 0.90242954E+11</totfact>
</mgrwt>
</event>
<event>
 4    1  0.1838758E+006  0.2920649E+01  0.7546771E-02  0.2547866E+00
         22   -1    0    0    0    0  0.00000000000E+00  0.00000000000E+00  0.49035631173E+01  0.49035631173E+01  0.00000000000E+00 0. -1.
         22   -1    0    0    0    0 -0.00000000000E+00 -0.00000000000E+00 -0.25019104400E+01  0.25019104400E+01  0.00000000000E+00 0. -1.
          4    1    1    2  501    0  0.23861423028E+01 -0.11061721660E+01  0.32447072717E+01  0.43655832633E+01  0.12700000000E+01 0. -1.
         -4    1    1    2    0  501 -0.23861423028E+01  0.11061721660E+01 -0.84305459443E+00  0.30398902940E+01  0.12700000000E+01 0. -1.
<mgrwt>
<rscale>  0 0.29206492E+01</rscale>
<asrwt>0</asrwt>
<pdfrwt beam="1">0</pdfrwt>
<pdfrwt beam="2">0</pdfrwt>
<totfact> 0.12941354E+12</totfact>
</mgrwt>
</event>
<event>
 4    1  0.1838758E+006  0.4697563E+01  0.7546771E-02  0.2160967E+00
         22   -1    0    0    0    0  0.00000000000E+00  0.00000000000E+00  0.14457515431E+02  0.14457515431E+02  0.00000000000E+00 0.  1.
         22   -1    0    0    0    0 -0.00000000000E+00 -0.00000000000E+00 -0.20530198993E+02  0.20530198993E+02  0.00000000000E+00 0. -1.
          4    1    1    2  501    0  0.37906992792E+01 -0.24667387133E+01  0.13794656838E+02  0.14572565257E+02  0.12700000000E+01 0.  1.
         -4    1    1    2    0  501 -0.37906992792E+01  0.24667387133E+01 -0.19867340400E+02  0.20415149166E+02  0.12700000000E+01 0. -1.
<mgrwt>
<rscale>  0 0.46975633E+01</rscale>
<asrwt>0</asrwt>
<pdfrwt beam="1">0</pdfrwt>
<pdfrwt beam="2">0</pdfrwt>
<totfact> 0.28154572E+10</totfact>
</mgrwt>
</event>
<event>
 4    1  0.1838758E+006  0.2861653E+01  0.7546771E-02  0.2567793E+00
         22   -1    0    0    0    0  0.00000000000E+00  0.00000000000E+00  0.23600754594E+02  0.23600754594E+02  0.00000000000E+00 0. -1.
         22   -1    0    0    0    0 -0.00000000000E+00 -0.00000000000E+00 -0.34762657565E+00  0.34762657565E+00  0.00000000000E+00 0.  1.
          4    1    1    2  501    0  0.24538611644E+01  0.74479840100E+00  0.11111324792E+02  0.11473909443E+02  0.12700000000E+01 0. -1.
         -4    1    1    2    0  501 -0.24538611644E+01 -0.74479840100E+00  0.12141803227E+02  0.12474471727E+02  0.12700000000E+01 0. -1.
<mgrwt>
<rscale>  0 0.28616532E+01</rscale>
<asrwt>0</asrwt>
<pdfrwt beam="1">0</pdfrwt>
<pdfrwt beam="2">0</pdfrwt>
<totfact> 0.18214757E+12</totfact>
</mgrwt>
</event>
<event>
 4    1  0.1838758E+006  0.2033840E+01  0.7546771E-02  0.2958251E+00
         22   -1    0    0    0    0  0.00000000000E+00  0.00000000000E+00  0.14273100480E+01  0.14273100480E+01  0.00000000000E+00 0. -1.
         22   -1    0    0    0    0 -0.00000000000E+00 -0.00000000000E+00 -0.75696796248E+01  0.75696796248E+01  0.00000000000E+00 0.  1.
          4    1    1    2  501    0 -0.81642565626E+00  0.13627372833E+01  0.46276046315E+00  0.20858214213E+01  0.12700000000E+01 0. -1.
         -4    1    1    2    0  501  0.81642565626E+00 -0.13627372833E+01 -0.66051300399E+01  0.69111682515E+01  0.12700000000E+01 0.  1.
<mgrwt>
<rscale>  0 0.20338397E+01</rscale>
<asrwt>0</asrwt>
<pdfrwt beam="1">0</pdfrwt>
<pdfrwt beam="2">0</pdfrwt>
<totfact> 0.14762461E+12</totfact>
</mgrwt>
</event>
<event>
 4    1  0.1838758E+006  0.2423334E+01  0.7546771E-02  0.2743326E+00
         22   -1    0    0    0    0  0.00000000000E+00  0.00000000000E+00  0.10686521727E+01  0.10686521727E+01  0.00000000000E+00 0. -1.
         22   -1    0    0    0    0 -0.00000000000E+00 -0.00000000000E+00 -0.58646804947E+01  0.58646804947E+01  0.00000000000E+00 0.  1.
          4    1    1    2  501    0 -0.17174281272E+01  0.11445912687E+01 -0.32680467138E+01  0.40684982325E+01  0.12700000000E+01 0.  1.
         -4    1    1    2    0  501  0.17174281272E+01 -0.11445912687E+01 -0.15279816082E+01  0.28648344349E+01  0.12700000000E+01 0. -1.
<mgrwt>
<rscale>  0 0.24233342E+01</rscale>
<asrwt>0</asrwt>
<pdfrwt beam="1">0</pdfrwt>
<pdfrwt beam="2">0</pdfrwt>
<totfact> 0.27902301E+12</totfact>
</mgrwt>
</event>
<event>
 4    1  0.1838758E+006  0.3199529E+01  0.7546771E-02  0.2462655E+00
         22   -1    0    0    0    0  0.00000000000E+00  0.00000000000E+00  0.20437813619E+01  0.20437813619E+01  0.00000000000E+00 0. -1.
         22   -1    0    0    0    0 -0.00000000000E+00 -0.00000000000E+00 -0.11501930815E+02  0.11501930815E+02  0.00000000000E+00 0.  1.
          4    1    1    2  501    0 -0.22518531666E+01  0.18850044382E+01  0.35968608019E+00  0.32196829801E+01  0.12700000000E+01 0. -1.
         -4    1    1    2    0  501  0.22518531666E+01 -0.18850044382E+01 -0.98178355332E+01  0.10326029197E+02  0.12700000000E+01 0.  1.
<mgrwt>
<rscale>  0 0.31995288E+01</rscale>
<asrwt>0</asrwt>
<pdfrwt beam="1">0</pdfrwt>
<pdfrwt beam="2">0</pdfrwt>
<totfact> 0.58863734E+11</totfact>
</mgrwt>
</event>
<event>
 4    1  0.1838758E+006  0.2051206E+01  0.7546771E-02  0.2946997E+00
         22   -1    0    0    0    0  0.00000000000E+00  0.00000000000E+00  0.77717708232E+00  0.77717708232E+00  0.00000000000E+00 0. -1.
         22   -1    0    0    0    0 -0.00000000000E+00 -0.00000000000E+00 -0.60061142173E+01  0.60061142173E+01  0.00000000000E+00 0.  1.
          4    1    1    2  501    0  0.15618499963E+01  0.39391814039E+00 -0.15493303384E+01  0.25705780302E+01  0.12700000000E+01 0.  1.
         -4    1    1    2    0  501 -0.15618499963E+01 -0.39391814039E+00 -0.36796067966E+01  0.42127132693E+01  0.12700000000E+01 0. -1.
<mgrwt>
<rscale>  0 0.20512062E+01</rscale>
<asrwt>0</asrwt>
<pdfrwt beam="1">0</pdfrwt>
<pdfrwt beam="2">0</pdfrwt>
<totfact> 0.38993618E+12</totfact>
</mgrwt>
</event>
<event>
 4    1  0.1838758E+006  0.2491280E+01  0.7546771E-02  0.2712387E+00
         22   -1    0    0    0    0  0.00000000000E+00  0.00000000000E+00  0.58580662149E+00  0.58580662149E+00  0.00000000000E+00 0.  1.
         22   -1    0    0    0    0 -0.00000000000E+00 -0.00000000000E+00 -0.14488864195E+02  0.14488864195E+02  0.00000000000E+00 0. -1.
          4    1    1    2  501    0 -0.20304823656E+01 -0.68608926767E+00 -0.30439766424E+01  0.39334807638E+01  0.12700000000E+01 0.  1.
         -4    1    1    2    0  501  0.20304823656E+01  0.68608926767E+00 -0.10859080931E+02  0.11141190053E+02  0.12700000000E+01 0. -1.
<mgrwt>
<rscale>  0 0.24912802E+01</rscale>
<asrwt>0</asrwt>
<pdfrwt beam="1">0</pdfrwt>
<pdfrwt beam="2">0</pdfrwt>
<totfact> 0.18541525E+12</totfact>
</mgrwt>
</event>
<event>
 4    1  0.1838758E+006  0.2640597E+01  0.7546771E-02  0.2649613E+00
         22   -1    0    0    0    0  0.00000000000E+00  0.00000000000E+00  0.45794604821E+01  0.45794604821E+01  0.00000000000E+00 0.  1.
         22   -1    0    0    0    0 -0.00000000000E+00 -0.00000000000E+00 -0.15823453509E+01  0.15823453509E+01  0.00000000000E+00 0.  1.
          4    1    1    2  501    0 -0.22556276618E+01  0.52153458568E+00  0.20971421162E+01  0.33720556829E+01  0.12700000000E+01 0.  1.
         -4    1    1    2    0  501  0.22556276618E+01 -0.52153458568E+00  0.89997301488E+00  0.27897501501E+01  0.12700000000E+01 0.  1.
<mgrwt>
<rscale>  0 0.26405974E+01</rscale>
<asrwt>0</asrwt>
<pdfrwt beam="1">0</pdfrwt>
<pdfrwt beam="2">0</pdfrwt>
<totfact> 0.23843534E+12</totfact>
</mgrwt>
</event>
<event>
 4    1  0.1838758E+006  0.2149078E+01  0.7546771E-02  0.2886883E+00
         22   -1    0    0    0    0  0.00000000000E+00  0.00000000000E+00  0.14314006030E+01  0.14314006030E+01  0.00000000000E+00 0.  1.
         22   -1    0    0    0    0 -0.00000000000E+00 -0.00000000000E+00 -0.47024303723E+01  0.47024303723E+01  0.00000000000E+00 0.  1.
          4    1    1    2  501    0  0.39469068182E+00 -0.16881518359E+01  0.82634346212E-01  0.21506663597E+01  0.12700000000E+01 0.  1.
         -4    1    1    2    0  501 -0.39469068182E+00  0.16881518359E+01 -0.33536641155E+01  0.39831646156E+01  0.12700000000E+01 0.  1.
<mgrwt>
<rscale>  0 0.21490783E+01</rscale>
<asrwt>0</asrwt>
<pdfrwt beam="1">0</pdfrwt>
<pdfrwt beam="2">0</pdfrwt>
<totfact> 0.25932842E+12</totfact>
</mgrwt>
</event>
<event>
 4    1  0.1838758E+006  0.2108290E+01  0.7546771E-02  0.2911278E+00
         22   -1    0    0    0    0  0.00000000000E+00  0.00000000000E+00  0.71609526286E+01  0.71609526286E+01  0.00000000000E+00 0.  1.
         22   -1    0    0    0    0 -0.00000000000E+00 -0.00000000000E+00 -0.68600453930E+00  0.68600453930E+00  0.00000000000E+00 0.  1.
          4    1    1    2  501    0  0.16250534833E+01  0.43725047718E+00  0.20270412065E+01  0.29246850867E+01  0.12700000000E+01 0.  1.
         -4    1    1    2    0  501 -0.16250534833E+01 -0.43725047718E+00  0.44479068828E+01  0.49222720812E+01  0.12700000000E+01 0.  1.
<mgrwt>
<rscale>  0 0.21082900E+01</rscale>
<asrwt>0</asrwt>
<pdfrwt beam="1">0</pdfrwt>
<pdfrwt beam="2">0</pdfrwt>
<totfact> 0.36424001E+12</totfact>
</mgrwt>
</event>
<event>
 4    1  0.1838758E+006  0.3319218E+01  0.7546771E-02  0.2430011E+00
         22   -1    0    0    0    0  0.00000000000E+00  0.00000000000E+00  0.16075031871E+02  0.16075031871E+02  0.00000000000E+00 0.  1.
         22   -1    0    0    0    0 -0.00000000000E+00 -0.00000000000E+00 -0.68767772346E+00  0.68767772346E+00  0.00000000000E+00 0. -1.
          4    1    1    2  501    0  0.26405311394E+01  0.15594557158E+01  0.72072490882E+01  0.79348375060E+01  0.12700000000E+01 0. -1.
         -4    1    1    2    0  501 -0.26405311394E+01 -0.15594557158E+01  0.81801050593E+01  0.88278720884E+01  0.12700000000E+01 0. -1.
<mgrwt>
<rscale>  0 0.33192178E+01</rscale>
<asrwt>0</asrwt>
<pdfrwt beam="1">0</pdfrwt>
<pdfrwt beam="2">0</pdfrwt>
<totfact> 0.13604326E+12</totfact>
</mgrwt>
</event>
<event>
 4    1  0.1838758E+006  0.2880394E+01  0.7546771E-02  0.2561383E+00
         22   -1    0    0    0    0  0.00000000000E+00  0.00000000000E+00  0.43512130696E+00  0.43512130696E+00  0.00000000000E+00 0. -1.
         22   -1    0    0    0    0 -0.00000000000E+00 -0.00000000000E+00 -0.34341481494E+02  0.34341481494E+02  0.00000000000E+00 0.  1.
          4    1    1    2  501    0  0.28265663102E+00 -0.25698006869E+01 -0.53567598518E+01  0.60820676132E+01  0.12700000000E+01 0. -1.
         -4    1    1    2    0  501 -0.28265663102E+00  0.25698006869E+01 -0.28549600335E+02  0.28694535188E+02  0.12700000000E+01 0.  1.
<mgrwt>
<rscale>  0 0.28803941E+01</rscale>
<asrwt>0</asrwt>
<pdfrwt beam="1">0</pdfrwt>
<pdfrwt beam="2">0</pdfrwt>
<totfact> 0.87846320E+11</totfact>
</mgrwt>
</event>
<event>
 4    1  0.1838758E+006  0.2135340E+01  0.7546771E-02  0.2894999E+00
         22   -1    0    0    0    0  0.00000000000E+00  0.00000000000E+00  0.11715570056E+01  0.11715570056E+01  0.00000000000E+00 0. -1.
         22   -1    0    0    0    0 -0.00000000000E+00 -0.00000000000E+00 -0.13238111778E+02  0.13238111778E+02  0.00000000000E+00 0.  1.
          4    1    1    2  501    0 -0.12104432502E+01 -0.12172109894E+01  0.20507019758E-01  0.21354381266E+01  0.12700000000E+01 0. -1.
         -4    1    1    2    0  501  0.12104432502E+01  0.12172109894E+01 -0.12087061793E+02  0.12274230657E+02  0.12700000000E+01 0.  1.
<mgrwt>
<rscale>  0 0.21353397E+01</rscale>
<asrwt>0</asrwt>
<pdfrwt beam="1">0</pdfrwt>
<pdfrwt beam="2">0</pdfrwt>
<totfact> 0.94090840E+11</totfact>
</mgrwt>
</event>
<event>
 4    1  0.1838758E+006  0.2181492E+01  0.7546771E-02  0.2868125E+00
         22   -1    0    0    0    0  0.00000000000E+00  0.00000000000E+00  0.11465860123E+02  0.11465860123E+02  0.00000000000E+00 0. -1.
         22   -1    0    0    0    0 -0.00000000000E+00 -0.00000000000E+00 -0.49268655866E+00  0.49268655866E+00  0.00000000000E+00 0. -1.
          4    1    1    2  501    0 -0.14190987747E+01  0.10640333264E+01  0.78601207697E+01  0.81572303368E+01  0.12700000000E+01 0. -1.
         -4    1    1    2    0  501  0.14190987747E+01 -0.10640333264E+01  0.31130527945E+01  0.38013163448E+01  0.12700000000E+01 0. -1.
<mgrwt>
<rscale>  0 0.21814922E+01</rscale>
<asrwt>0</asrwt>
<pdfrwt beam="1">0</pdfrwt>
<pdfrwt beam="2">0</pdfrwt>
<totfact> 0.30018982E+12</totfact>
</mgrwt>
</event>
<event>
 4    1  0.1838758E+006  0.2838541E+01  0.7546771E-02  0.2575804E+00
         22   -1    0    0    0    0  0.00000000000E+00  0.00000000000E+00  0.90880814257E+00  0.90880814257E+00  0.00000000000E+00 0.  1.
         22   -1    0    0    0    0 -0.00000000000E+00 -0.00000000000E+00 -0.10450076739E+02  0.10450076739E+02  0.00000000000E+00 0. -1.
          4    1    1    2  501    0  0.14540350579E+01  0.20809119948E+01 -0.25592650451E+01  0.38219301735E+01  0.12700000000E+01 0.  1.
         -4    1    1    2    0  501 -0.14540350579E+01 -0.20809119948E+01 -0.69820035509E+01  0.75369547076E+01  0.12700000000E+01 0. -1.
<mgrwt>
<rscale>  0 0.28385406E+01</rscale>
<asrwt>0</asrwt>
<pdfrwt beam="1">0</pdfrwt>
<pdfrwt beam="2">0</pdfrwt>
<totfact> 0.16777993E+12</totfact>
</mgrwt>
</event>
<event>
 4    1  0.1838758E+006  0.2279822E+01  0.7546771E-02  0.2814351E+00
         22   -1    0    0    0    0  0.00000000000E+00  0.00000000000E+00  0.14453298780E+00  0.14453298780E+00  0.00000000000E+00 0.  1.
         22   -1    0    0    0    0 -0.00000000000E+00 -0.00000000000E+00 -0.52266318727E+02  0.52266318727E+02  0.00000000000E+00 0. -1.
          4    1    1    2  501    0  0.57108369671E+00 -0.18051464855E+01 -0.11424257344E+02  0.11649516998E+02  0.12700000000E+01 0.  1.
         -4    1    1    2    0  501 -0.57108369671E+00  0.18051464855E+01 -0.40697528395E+02  0.40761334717E+02  0.12700000000E+01 0. -1.
<mgrwt>
<rscale>  0 0.22798225E+01</rscale>
<asrwt>0</asrwt>
<pdfrwt beam="1">0</pdfrwt>
<pdfrwt beam="2">0</pdfrwt>
<totfact> 0.17437208E+12</totfact>
</mgrwt>
</event>
<event>
 4    1  0.1838758E+006  0.3138755E+01  0.7546771E-02  0.2480071E+00
         22   -1    0    0    0    0  0.00000000000E+00  0.00000000000E+00  0.11382947650E+02  0.11382947650E+02  0.00000000000E+00 0.  1.
         22   -1    0    0    0    0 -0.00000000000E+00 -0.00000000000E+00 -0.91135436395E+00  0.91135436395E+00  0.00000000000E+00 0. -1.
          4    1    1    2  501    0  0.28385405199E+01 -0.42611018913E+00  0.66148679533E+01  0.73217661951E+01  0.12700000000E+01 0. -1.
         -4    1    1    2    0  501 -0.28385405199E+01  0.42611018913E+00  0.38567253323E+01  0.49725358184E+01  0.12700000000E+01 0. -1.
<mgrwt>
<rscale>  0 0.31387549E+01</rscale>
<asrwt>0</asrwt>
<pdfrwt beam="1">0</pdfrwt>
<pdfrwt beam="2">0</pdfrwt>
<totfact> 0.15074552E+12</totfact>
</mgrwt>
</event>
<event>
 4    1  0.1838758E+006  0.3071145E+01  0.7546771E-02  0.2500165E+00
         22   -1    0    0    0    0  0.00000000000E+00  0.00000000000E+00  0.52011669527E+01  0.52011669527E+01  0.00000000000E+00 0.  1.
         22   -1    0    0    0    0 -0.00000000000E+00 -0.00000000000E+00 -0.20867520499E+01  0.20867520499E+01  0.00000000000E+00 0. -1.
          4    1    1    2  501    0 -0.35153614063E+00  0.27740679383E+01  0.28760068838E+01  0.42075344538E+01  0.12700000000E+01 0.  1.
         -4    1    1    2    0  501  0.35153614063E+00 -0.27740679383E+01  0.23840801907E+00  0.30803845488E+01  0.12700000000E+01 0. -1.
<mgrwt>
<rscale>  0 0.30711448E+01</rscale>
<asrwt>0</asrwt>
<pdfrwt beam="1">0</pdfrwt>
<pdfrwt beam="2">0</pdfrwt>
<totfact> 0.14898750E+12</totfact>
</mgrwt>
</event>
<event>
 4    1  0.1838758E+006  0.2483372E+01  0.7546771E-02  0.2715907E+00
         22   -1    0    0    0    0  0.00000000000E+00  0.00000000000E+00  0.43902098560E+02  0.43902098560E+02  0.00000000000E+00 0.  1.
         22   -1    0    0    0    0 -0.00000000000E+00 -0.00000000000E+00 -0.76285156317E+00  0.76285156317E+00  0.00000000000E+00 0.  1.
          4    1    1    2  501    0 -0.19033730550E+01 -0.96509430802E+00  0.41741371878E+02  0.41815179807E+02  0.12700000000E+01 0.  1.
         -4    1    1    2    0  501  0.19033730550E+01  0.96509430802E+00  0.13978751192E+01  0.28497703168E+01  0.12700000000E+01 0.  1.
<mgrwt>
<rscale>  0 0.24833719E+01</rscale>
<asrwt>0</asrwt>
<pdfrwt beam="1">0</pdfrwt>
<pdfrwt beam="2">0</pdfrwt>
<totfact> 0.33852995E+11</totfact>
</mgrwt>
</event>
<event>
 4    1  0.1838758E+006  0.3089358E+01  0.7546771E-02  0.2494675E+00
         22   -1    0    0    0    0  0.00000000000E+00  0.00000000000E+00  0.25891305813E+01  0.25891305813E+01  0.00000000000E+00 0.  1.
         22   -1    0    0    0    0 -0.00000000000E+00 -0.00000000000E+00 -0.52290996185E+01  0.52290996185E+01  0.00000000000E+00 0.  1.
          4    1    1    2  501    0 -0.23049074725E+01 -0.16182199400E+01  0.80340382291E+00  0.31921140226E+01  0.12700000000E+01 0.  1.
         -4    1    1    2    0  501  0.23049074725E+01  0.16182199400E+01 -0.34433728601E+01  0.46261161772E+01  0.12700000000E+01 0.  1.
<mgrwt>
<rscale>  0 0.30893582E+01</rscale>
<asrwt>0</asrwt>
<pdfrwt beam="1">0</pdfrwt>
<pdfrwt beam="2">0</pdfrwt>
<totfact> 0.11523907E+12</totfact>
</mgrwt>
</event>
<event>
 4    1  0.1838758E+006  0.4103018E+01  0.7546771E-02  0.2258024E+00
         22   -1    0    0    0    0  0.00000000000E+00  0.00000000000E+00  0.91918868256E+00  0.91918868256E+00  0.00000000000E+00 0. -1.
         22   -1    0    0    0    0 -0.00000000000E+00 -0.00000000000E+00 -0.23513848980E+02  0.23513848980E+02  0.00000000000E+00 0.  1.
          4    1    1    2  501    0  0.25272148227E+01  0.29723798079E+01 -0.55528917157E+01  0.69043003186E+01  0.12700000000E+01 0. -1.
         -4    1    1    2    0  501 -0.25272148227E+01 -0.29723798079E+01 -0.17041768582E+02  0.17528737344E+02  0.12700000000E+01 0.  1.
<mgrwt>
<rscale>  0 0.41030180E+01</rscale>
<asrwt>0</asrwt>
<pdfrwt beam="1">0</pdfrwt>
<pdfrwt beam="2">0</pdfrwt>
<totfact> 0.60900291E+11</totfact>
</mgrwt>
</event>
<event>
 4    1  0.1838758E+006  0.2653324E+01  0.7546771E-02  0.2644565E+00
         22   -1    0    0    0    0  0.00000000000E+00  0.00000000000E+00  0.94208800348E+02  0.94208800348E+02  0.00000000000E+00 0. -1.
         22   -1    0    0    0    0 -0.00000000000E+00 -0.00000000000E+00 -0.78953923975E-01  0.78953923975E-01  0.00000000000E+00 0.  1.
          4    1    1    2  501    0 -0.10269376687E+01  0.20910834100E+01  0.36159384015E+02  0.36256601925E+02  0.12700000000E+01 0.  1.
         -4    1    1    2    0  501  0.10269376687E+01 -0.20910834100E+01  0.57970462409E+02  0.58031152347E+02  0.12700000000E+01 0. -1.
<mgrwt>
<rscale>  0 0.26533245E+01</rscale>
<asrwt>0</asrwt>
<pdfrwt beam="1">0</pdfrwt>
<pdfrwt beam="2">0</pdfrwt>
<totfact> 0.15305008E+12</totfact>
</mgrwt>
</event>
<event>
 4    1  0.1838758E+006  0.3046406E+01  0.7546771E-02  0.2507716E+00
         22   -1    0    0    0    0  0.00000000000E+00  0.00000000000E+00  0.44326337698E+01  0.44326337698E+01  0.00000000000E+00 0.  1.
         22   -1    0    0    0    0 -0.00000000000E+00 -0.00000000000E+00 -0.26528854996E+01  0.26528854996E+01  0.00000000000E+00 0. -1.
          4    1    1    2  501    0 -0.20373619273E+01 -0.18753261066E+01  0.25164022895E+01  0.39513127074E+01  0.12700000000E+01 0.  1.
         -4    1    1    2    0  501  0.20373619273E+01  0.18753261066E+01 -0.73665401934E+00  0.31342065620E+01  0.12700000000E+01 0. -1.
<mgrwt>
<rscale>  0 0.30464063E+01</rscale>
<asrwt>0</asrwt>
<pdfrwt beam="1">0</pdfrwt>
<pdfrwt beam="2">0</pdfrwt>
<totfact> 0.13619997E+12</totfact>
</mgrwt>
</event>
<event>
 4    1  0.1838758E+006  0.2171150E+01  0.7546771E-02  0.2874051E+00
         22   -1    0    0    0    0  0.00000000000E+00  0.00000000000E+00  0.26635849963E+00  0.26635849963E+00  0.00000000000E+00 0. -1.
         22   -1    0    0    0    0 -0.00000000000E+00 -0.00000000000E+00 -0.33796009919E+02  0.33796009919E+02  0.00000000000E+00 0.  1.
          4    1    1    2  501    0 -0.10632216323E+01 -0.14037633046E+01 -0.50103203466E+01  0.54605129458E+01  0.12700000000E+01 0. -1.
         -4    1    1    2    0  501  0.10632216323E+01  0.14037633046E+01 -0.28519331072E+02  0.28601855473E+02  0.12700000000E+01 0.  1.
<mgrwt>
<rscale>  0 0.21711498E+01</rscale>
<asrwt>0</asrwt>
<pdfrwt beam="1">0</pdfrwt>
<pdfrwt beam="2">0</pdfrwt>
<totfact> 0.15560223E+12</totfact>
</mgrwt>
</event>
<event>
 4    1  0.1838758E+006  0.3694300E+01  0.7546771E-02  0.2339838E+00
         22   -1    0    0    0    0  0.00000000000E+00  0.00000000000E+00  0.87419528034E+01  0.87419528034E+01  0.00000000000E+00 0.  1.
         22   -1    0    0    0    0 -0.00000000000E+00 -0.00000000000E+00 -0.37367177486E+01  0.37367177486E+01  0.00000000000E+00 0. -1.
          4    1    1    2  501    0 -0.14120591825E+01  0.31687605222E+01  0.72633681347E+01  0.81488877181E+01  0.12700000000E+01 0.  1.
         -4    1    1    2    0  501  0.14120591825E+01 -0.31687605222E+01 -0.22581330799E+01  0.43297828339E+01  0.12700000000E+01 0. -1.
<mgrwt>
<rscale>  0 0.36943003E+01</rscale>
<asrwt>0</asrwt>
<pdfrwt beam="1">0</pdfrwt>
<pdfrwt beam="2">0</pdfrwt>
<totfact> 0.40606651E+11</totfact>
</mgrwt>
</event>
<event>
 4    1  0.1838758E+006  0.2608503E+01  0.7546771E-02  0.2662545E+00
         22   -1    0    0    0    0  0.00000000000E+00  0.00000000000E+00  0.43354121075E+00  0.43354121075E+00  0.00000000000E+00 0. -1.
         22   -1    0    0    0    0 -0.00000000000E+00 -0.00000000000E+00 -0.21592651700E+02  0.21592651700E+02  0.00000000000E+00 0.  1.
          4    1    1    2  501    0  0.12006198655E+01  0.19364653659E+01 -0.48237224597E+01  0.54838476039E+01  0.12700000000E+01 0. -1.
         -4    1    1    2    0  501 -0.12006198655E+01 -0.19364653659E+01 -0.16335388029E+02  0.16542345307E+02  0.12700000000E+01 0.  1.
<mgrwt>
<rscale>  0 0.26085027E+01</rscale>
<asrwt>0</asrwt>
<pdfrwt beam="1">0</pdfrwt>
<pdfrwt beam="2">0</pdfrwt>
<totfact> 0.15883584E+12</totfact>
</mgrwt>
</event>
<event>
 4    1  0.1838758E+006  0.2167862E+01  0.7546771E-02  0.2875947E+00
         22   -1    0    0    0    0  0.00000000000E+00  0.00000000000E+00  0.11922303032E+02  0.11922303032E+02  0.00000000000E+00 0. -1.
         22   -1    0    0    0    0 -0.00000000000E+00 -0.00000000000E+00 -0.37875191350E+02  0.37875191350E+02  0.00000000000E+00 0. -1.
          4    1    1    2  501    0 -0.13327692396E+01  0.11447496118E+01  0.11792396741E+02  0.11990006106E+02  0.12700000000E+01 0. -1.
         -4    1    1    2    0  501  0.13327692396E+01 -0.11447496118E+01 -0.37745285060E+02  0.37807488276E+02  0.12700000000E+01 0. -1.
<mgrwt>
<rscale>  0 0.21678620E+01</rscale>
<asrwt>0</asrwt>
<pdfrwt beam="1">0</pdfrwt>
<pdfrwt beam="2">0</pdfrwt>
<totfact> 0.16379444E+10</totfact>
</mgrwt>
</event>
<event>
 4    1  0.1838758E+006  0.3187746E+01  0.7546771E-02  0.2465985E+00
         22   -1    0    0    0    0  0.00000000000E+00  0.00000000000E+00  0.50648556848E+02  0.50648556848E+02  0.00000000000E+00 0. -1.
         22   -1    0    0    0    0 -0.00000000000E+00 -0.00000000000E+00 -0.20974241164E+00  0.20974241164E+00  0.00000000000E+00 0.  1.
          4    1    1    2  501    0 -0.28792005834E+01 -0.50894959045E+00  0.30519160167E+02  0.30685189635E+02  0.12700000000E+01 0. -1.
         -4    1    1    2    0  501  0.28792005834E+01  0.50894959045E+00  0.19919654270E+02  0.20173109624E+02  0.12700000000E+01 0. -1.
<mgrwt>
<rscale>  0 0.31877462E+01</rscale>
<asrwt>0</asrwt>
<pdfrwt beam="1">0</pdfrwt>
<pdfrwt beam="2">0</pdfrwt>
<totfact> 0.12007127E+12</totfact>
</mgrwt>
</event>
<event>
 4    1  0.1838758E+006  0.3192782E+01  0.7546771E-02  0.2464559E+00
         22   -1    0    0    0    0  0.00000000000E+00  0.00000000000E+00  0.50467393801E+02  0.50467393801E+02  0.00000000000E+00 0. -1.
         22   -1    0    0    0    0 -0.00000000000E+00 -0.00000000000E+00 -0.24391168143E+00  0.24391168143E+00  0.00000000000E+00 0.  1.
          4    1    1    2  501    0  0.16384102267E+01  0.24282858137E+01  0.35623680532E+02  0.35766471376E+02  0.12700000000E+01 0. -1.
         -4    1    1    2    0  501 -0.16384102267E+01 -0.24282858137E+01  0.14599801588E+02  0.14944834106E+02  0.12700000000E+01 0.  1.
<mgrwt>
<rscale>  0 0.31927825E+01</rscale>
<asrwt>0</asrwt>
<pdfrwt beam="1">0</pdfrwt>
<pdfrwt beam="2">0</pdfrwt>
<totfact> 0.10192090E+12</totfact>
</mgrwt>
</event>
<event>
 4    1  0.1838758E+006  0.2079625E+01  0.7546771E-02  0.2928976E+00
         22   -1    0    0    0    0  0.00000000000E+00  0.00000000000E+00  0.43176838030E+01  0.43176838030E+01  0.00000000000E+00 0.  1.
         22   -1    0    0    0    0 -0.00000000000E+00 -0.00000000000E+00 -0.10361427196E+01  0.10361427196E+01  0.00000000000E+00 0.  1.
          4    1    1    2  501    0 -0.16466855134E+01  0.19145178085E-01  0.21291326384E+01  0.29762468832E+01  0.12700000000E+01 0.  1.
         -4    1    1    2    0  501  0.16466855134E+01 -0.19145178085E-01  0.11524084450E+01  0.23775796394E+01  0.12700000000E+01 0.  1.
<mgrwt>
<rscale>  0 0.20796249E+01</rscale>
<asrwt>0</asrwt>
<pdfrwt beam="1">0</pdfrwt>
<pdfrwt beam="2">0</pdfrwt>
<totfact> 0.41538347E+12</totfact>
</mgrwt>
</event>
<event>
 4    1  0.1838758E+006  0.2365373E+01  0.7546771E-02  0.2771032E+00
         22   -1    0    0    0    0  0.00000000000E+00  0.00000000000E+00  0.98634195306E+00  0.98634195306E+00  0.00000000000E+00 0.  1.
         22   -1    0    0    0    0 -0.00000000000E+00 -0.00000000000E+00 -0.17970401239E+02  0.17970401239E+02  0.00000000000E+00 0. -1.
          4    1    1    2  501    0  0.13775282837E+01 -0.14437820495E+01 -0.65103869830E+00  0.24533328689E+01  0.12700000000E+01 0.  1.
         -4    1    1    2    0  501 -0.13775282837E+01  0.14437820495E+01 -0.16333020588E+02  0.16503410324E+02  0.12700000000E+01 0. -1.
<mgrwt>
<rscale>  0 0.23653733E+01</rscale>
<asrwt>0</asrwt>
<pdfrwt beam="1">0</pdfrwt>
<pdfrwt beam="2">0</pdfrwt>
<totfact> 0.78608714E+11</totfact>
</mgrwt>
</event>
<event>
 4    1  0.1838758E+006  0.2306866E+01  0.7546771E-02  0.2800329E+00
         22   -1    0    0    0    0  0.00000000000E+00  0.00000000000E+00  0.64086917300E+02  0.64086917300E+02  0.00000000000E+00 0. -1.
         22   -1    0    0    0    0 -0.00000000000E+00 -0.00000000000E+00 -0.88583868825E-01  0.88583868825E-01  0.00000000000E+00 0.  1.
          4    1    1    2  501    0 -0.78380884869E+00  0.17590830890E+01  0.40028118556E+02  0.40094537094E+02  0.12700000000E+01 0. -1.
         -4    1    1    2    0  501  0.78380884869E+00 -0.17590830890E+01  0.23970214875E+02  0.24080964075E+02  0.12700000000E+01 0.  1.
<mgrwt>
<rscale>  0 0.23068658E+01</rscale>
<asrwt>0</asrwt>
<pdfrwt beam="1">0</pdfrwt>
<pdfrwt beam="2">0</pdfrwt>
<totfact> 0.22855153E+12</totfact>
</mgrwt>
</event>
<event>
 4    1  0.1838758E+006  0.3113731E+01  0.7546771E-02  0.2487418E+00
         22   -1    0    0    0    0  0.00000000000E+00  0.00000000000E+00  0.47998794116E+00  0.47998794116E+00  0.00000000000E+00 0. -1.
         22   -1    0    0    0    0 -0.00000000000E+00 -0.00000000000E+00 -0.20493707096E+02  0.20493707096E+02  0.00000000000E+00 0.  1.
          4    1    1    2  501    0 -0.28092070197E+01  0.43677761322E+00 -0.87494841107E+01  0.92870227181E+01  0.12700000000E+01 0. -1.
         -4    1    1    2    0  501  0.28092070197E+01 -0.43677761322E+00 -0.11264235044E+02  0.11686672319E+02  0.12700000000E+01 0.  1.
<mgrwt>
<rscale>  0 0.31137307E+01</rscale>
<asrwt>0</asrwt>
<pdfrwt beam="1">0</pdfrwt>
<pdfrwt beam="2">0</pdfrwt>
<totfact> 0.15117136E+12</totfact>
</mgrwt>
</event>
<event>
 4    1  0.1838758E+006  0.2145148E+01  0.7546771E-02  0.2889195E+00
         22   -1    0    0    0    0  0.00000000000E+00  0.00000000000E+00  0.39550329549E+01  0.39550329549E+01  0.00000000000E+00 0.  1.
         22   -1    0    0    0    0 -0.00000000000E+00 -0.00000000000E+00 -0.19255830898E+01  0.19255830898E+01  0.00000000000E+00 0. -1.
          4    1    1    2  501    0  0.78362103847E+00 -0.15410056223E+01  0.28644804975E+01  0.35786741652E+01  0.12700000000E+01 0.  1.
         -4    1    1    2    0  501 -0.78362103847E+00  0.15410056223E+01 -0.83503063243E+00  0.23019418796E+01  0.12700000000E+01 0. -1.
<mgrwt>
<rscale>  0 0.21451481E+01</rscale>
<asrwt>0</asrwt>
<pdfrwt beam="1">0</pdfrwt>
<pdfrwt beam="2">0</pdfrwt>
<totfact> 0.22593392E+12</totfact>
</mgrwt>
</event>
<event>
 4    1  0.1838758E+006  0.2075417E+01  0.7546771E-02  0.2931614E+00
         22   -1    0    0    0    0  0.00000000000E+00  0.00000000000E+00  0.19003239300E+02  0.19003239300E+02  0.00000000000E+00 0.  1.
         22   -1    0    0    0    0 -0.00000000000E+00 -0.00000000000E+00 -0.23223406440E+00  0.23223406440E+00  0.00000000000E+00 0.  1.
          4    1    1    2  501    0  0.92392624147E+00 -0.13567672842E+01  0.10874952214E+02  0.11071221379E+02  0.12700000000E+01 0.  1.
         -4    1    1    2    0  501 -0.92392624147E+00  0.13567672842E+01  0.78960530212E+01  0.81642519851E+01  0.12700000000E+01 0.  1.
<mgrwt>
<rscale>  0 0.20754173E+01</rscale>
<asrwt>0</asrwt>
<pdfrwt beam="1">0</pdfrwt>
<pdfrwt beam="2">0</pdfrwt>
<totfact> 0.37527548E+12</totfact>
</mgrwt>
</event>
<event>
 4    1  0.1838758E+006  0.2407422E+01  0.7546771E-02  0.2750807E+00
         22   -1    0    0    0    0  0.00000000000E+00  0.00000000000E+00  0.25093244358E+00  0.25093244358E+00  0.00000000000E+00 0.  1.
         22   -1    0    0    0    0 -0.00000000000E+00 -0.00000000000E+00 -0.41368485697E+02  0.41368485697E+02  0.00000000000E+00 0. -1.
          4    1    1    2  501    0 -0.19139000136E+01 -0.72094988694E+00 -0.67287478400E+01  0.71464487331E+01  0.12700000000E+01 0.  1.
         -4    1    1    2    0  501  0.19139000136E+01  0.72094988694E+00 -0.34388805414E+02  0.34472969408E+02  0.12700000000E+01 0. -1.
<mgrwt>
<rscale>  0 0.24074223E+01</rscale>
<asrwt>0</asrwt>
<pdfrwt beam="1">0</pdfrwt>
<pdfrwt beam="2">0</pdfrwt>
<totfact> 0.12810921E+12</totfact>
</mgrwt>
</event>
<event>
 4    1  0.1838758E+006  0.2535838E+01  0.7546771E-02  0.2692938E+00
         22   -1    0    0    0    0  0.00000000000E+00  0.00000000000E+00  0.85449702808E+01  0.85449702808E+01  0.00000000000E+00 0. -1.
         22   -1    0    0    0    0 -0.00000000000E+00 -0.00000000000E+00 -0.79417200704E+00  0.79417200704E+00  0.00000000000E+00 0.  1.
          4    1    1    2  501    0 -0.16360834401E+01  0.14631492798E+01  0.49444717239E+01  0.55568224253E+01  0.12700000000E+01 0. -1.
         -4    1    1    2    0  501  0.16360834401E+01 -0.14631492798E+01  0.28063265499E+01  0.37823198625E+01  0.12700000000E+01 0.  1.
<mgrwt>
<rscale>  0 0.25358381E+01</rscale>
<asrwt>0</asrwt>
<pdfrwt beam="1">0</pdfrwt>
<pdfrwt beam="2">0</pdfrwt>
<totfact> 0.24948512E+12</totfact>
</mgrwt>
</event>
<event>
 4    1  0.1838758E+006  0.2911241E+01  0.7546771E-02  0.2550995E+00
         22   -1    0    0    0    0  0.00000000000E+00  0.00000000000E+00  0.60848811743E+00  0.60848811743E+00  0.00000000000E+00 0.  1.
         22   -1    0    0    0    0 -0.00000000000E+00 -0.00000000000E+00 -0.15909679243E+02  0.15909679243E+02  0.00000000000E+00 0. -1.
          4    1    1    2  501    0  0.23304064256E+01 -0.11965085817E+01 -0.10565088531E+02  0.10958851334E+02  0.12700000000E+01 0. -1.
         -4    1    1    2    0  501 -0.23304064256E+01  0.11965085817E+01 -0.47361025944E+01  0.55593160262E+01  0.12700000000E+01 0.  1.
<mgrwt>
<rscale>  0 0.29112415E+01</rscale>
<asrwt>0</asrwt>
<pdfrwt beam="1">0</pdfrwt>
<pdfrwt beam="2">0</pdfrwt>
<totfact> 0.15828943E+12</totfact>
</mgrwt>
</event>
<event>
 4    1  0.1838758E+006  0.5738919E+01  0.7546771E-02  0.2043924E+00
         22   -1    0    0    0    0  0.00000000000E+00  0.00000000000E+00  0.16930542080E+02  0.16930542080E+02  0.00000000000E+00 0. -1.
         22   -1    0    0    0    0 -0.00000000000E+00 -0.00000000000E+00 -0.19780482483E+01  0.19780482483E+01  0.00000000000E+00 0.  1.
          4    1    1    2  501    0 -0.48675240447E+01 -0.27621552523E+01  0.62599962327E+01  0.84925111008E+01  0.12700000000E+01 0. -1.
         -4    1    1    2    0  501  0.48675240447E+01  0.27621552523E+01  0.86924975987E+01  0.10416079227E+02  0.12700000000E+01 0.  1.
<mgrwt>
<rscale>  0 0.57389191E+01</rscale>
<asrwt>0</asrwt>
<pdfrwt beam="1">0</pdfrwt>
<pdfrwt beam="2">0</pdfrwt>
<totfact> 0.38043094E+11</totfact>
</mgrwt>
</event>
<event>
 4    1  0.1838758E+006  0.2302368E+01  0.7546771E-02  0.2802639E+00
         22   -1    0    0    0    0  0.00000000000E+00  0.00000000000E+00  0.12132998744E+01  0.12132998744E+01  0.00000000000E+00 0.  1.
         22   -1    0    0    0    0 -0.00000000000E+00 -0.00000000000E+00 -0.50641544270E+01  0.50641544270E+01  0.00000000000E+00 0. -1.
          4    1    1    2  501    0 -0.18667089415E+01  0.45099568386E+00 -0.30883282690E+01  0.38520995413E+01  0.12700000000E+01 0.  1.
         -4    1    1    2    0  501  0.18667089415E+01 -0.45099568386E+00 -0.76252628361E+00  0.24253547601E+01  0.12700000000E+01 0. -1.
<mgrwt>
<rscale>  0 0.23023682E+01</rscale>
<asrwt>0</asrwt>
<pdfrwt beam="1">0</pdfrwt>
<pdfrwt beam="2">0</pdfrwt>
<totfact> 0.28719914E+12</totfact>
</mgrwt>
</event>
<event>
 4    1  0.1838758E+006  0.2247629E+01  0.7546771E-02  0.2831462E+00
         22   -1    0    0    0    0  0.00000000000E+00  0.00000000000E+00  0.14257560273E+02  0.14257560273E+02  0.00000000000E+00 0. -1.
         22   -1    0    0    0    0 -0.00000000000E+00 -0.00000000000E+00 -0.52636258371E+00  0.52636258371E+00  0.00000000000E+00 0. -1.
          4    1    1    2  501    0 -0.14559017358E+01 -0.11486013237E+01  0.11091571248E+02  0.11317013194E+02  0.12700000000E+01 0. -1.
         -4    1    1    2    0  501  0.14559017358E+01  0.11486013237E+01  0.26396264410E+01  0.34669096632E+01  0.12700000000E+01 0. -1.
<mgrwt>
<rscale>  0 0.22476287E+01</rscale>
<asrwt>0</asrwt>
<pdfrwt beam="1">0</pdfrwt>
<pdfrwt beam="2">0</pdfrwt>
<totfact> 0.21343943E+12</totfact>
</mgrwt>
</event>
<event>
 4    1  0.1838758E+006  0.6590947E+01  0.7546771E-02  0.1970421E+00
         22   -1    0    0    0    0  0.00000000000E+00  0.00000000000E+00  0.15311646270E+02  0.15311646270E+02  0.00000000000E+00 0. -1.
         22   -1    0    0    0    0 -0.00000000000E+00 -0.00000000000E+00 -0.49299274192E+01  0.49299274192E+01  0.00000000000E+00 0.  1.
          4    1    1    2  501    0  0.64668162783E+01  0.89294294876E-01  0.11785047087E+02  0.13502885658E+02  0.12700000000E+01 0. -1.
         -4    1    1    2    0  501 -0.64668162783E+01 -0.89294294876E-01 -0.14033282359E+01  0.67386880315E+01  0.12700000000E+01 0.  1.
<mgrwt>
<rscale>  0 0.65909473E+01</rscale>
<asrwt>0</asrwt>
<pdfrwt beam="1">0</pdfrwt>
<pdfrwt beam="2">0</pdfrwt>
<totfact> 0.14800032E+11</totfact>
</mgrwt>
</event>
<event>
 4    1  0.1838758E+006  0.3418019E+01  0.7546771E-02  0.2404586E+00
         22   -1    0    0    0    0  0.00000000000E+00  0.00000000000E+00  0.14653836482E+01  0.14653836482E+01  0.00000000000E+00 0. -1.
         22   -1    0    0    0    0 -0.00000000000E+00 -0.00000000000E+00 -0.10355458919E+02  0.10355458919E+02  0.00000000000E+00 0.  1.
          4    1    1    2  501    0  0.73257591038E+00 -0.30876020644E+01 -0.16098168177E+01  0.37781429511E+01  0.12700000000E+01 0. -1.
         -4    1    1    2    0  501 -0.73257591038E+00  0.30876020644E+01 -0.72802584532E+01  0.80426996163E+01  0.12700000000E+01 0.  1.
<mgrwt>
<rscale>  0 0.34180190E+01</rscale>
<asrwt>0</asrwt>
<pdfrwt beam="1">0</pdfrwt>
<pdfrwt beam="2">0</pdfrwt>
<totfact> 0.98169932E+11</totfact>
</mgrwt>
</event>
<event>
 4    1  0.1838758E+006  0.2331500E+01  0.7546771E-02  0.2787824E+00
         22   -1    0    0    0    0  0.00000000000E+00  0.00000000000E+00  0.10771634130E+01  0.10771634130E+01  0.00000000000E+00 0. -1.
         22   -1    0    0    0    0 -0.00000000000E+00 -0.00000000000E+00 -0.69793422920E+01  0.69793422920E+01  0.00000000000E+00 0.  1.
          4    1    1    2  501    0  0.10655626583E+01  0.16393811859E+01 -0.83122152640E+00  0.24752421452E+01  0.12700000000E+01 0. -1.
         -4    1    1    2    0  501 -0.10655626583E+01 -0.16393811859E+01 -0.50709573526E+01  0.55812635597E+01  0.12700000000E+01 0.  1.
<mgrwt>
<rscale>  0 0.23315005E+01</rscale>
<asrwt>0</asrwt>
<pdfrwt beam="1">0</pdfrwt>
<pdfrwt beam="2">0</pdfrwt>
<totfact> 0.22467713E+12</totfact>
</mgrwt>
</event>
<event>
 4    1  0.1838758E+006  0.2093466E+01  0.7546771E-02  0.2920372E+00
         22   -1    0    0    0    0  0.00000000000E+00  0.00000000000E+00  0.18204361814E+01  0.18204361814E+01  0.00000000000E+00 0. -1.
         22   -1    0    0    0    0 -0.00000000000E+00 -0.00000000000E+00 -0.32816521311E+01  0.32816521311E+01  0.00000000000E+00 0. -1.
          4    1    1    2  501    0  0.10033949454E+00  0.16612141414E+01  0.58606770913E+00  0.21739539547E+01  0.12700000000E+01 0. -1.
         -4    1    1    2    0  501 -0.10033949454E+00 -0.16612141414E+01 -0.20472836588E+01  0.29281343578E+01  0.12700000000E+01 0. -1.
<mgrwt>
<rscale>  0 0.20934661E+01</rscale>
<asrwt>0</asrwt>
<pdfrwt beam="1">0</pdfrwt>
<pdfrwt beam="2">0</pdfrwt>
<totfact> 0.30011539E+12</totfact>
</mgrwt>
</event>
<event>
 4    1  0.1838758E+006  0.2061974E+01  0.7546771E-02  0.2940112E+00
         22   -1    0    0    0    0  0.00000000000E+00  0.00000000000E+00  0.52389394027E+00  0.52389394027E+00  0.00000000000E+00 0. -1.
         22   -1    0    0    0    0 -0.00000000000E+00 -0.00000000000E+00 -0.17659814927E+02  0.17659814927E+02  0.00000000000E+00 0. -1.
          4    1    1    2  501    0 -0.60569502849E+00 -0.15073061025E+01 -0.18840836117E+01  0.27931181876E+01  0.12700000000E+01 0. -1.
         -4    1    1    2    0  501  0.60569502849E+00  0.15073061025E+01 -0.15251837375E+02  0.15390590679E+02  0.12700000000E+01 0. -1.
<mgrwt>
<rscale>  0 0.20619743E+01</rscale>
<asrwt>0</asrwt>
<pdfrwt beam="1">0</pdfrwt>
<pdfrwt beam="2">0</pdfrwt>
<totfact> 0.16477824E+12</totfact>
</mgrwt>
</event>
<event>
 4    1  0.1838758E+006  0.3044397E+01  0.7546771E-02  0.2508334E+00
         22   -1    0    0    0    0  0.00000000000E+00  0.00000000000E+00  0.88108823091E+00  0.88108823091E+00  0.00000000000E+00 0. -1.
         22   -1    0    0    0    0 -0.00000000000E+00 -0.00000000000E+00 -0.10524281119E+02  0.10524281119E+02  0.00000000000E+00 0.  1.
          4    1    1    2  501    0  0.44788096747E+00  0.27303585978E+01 -0.49467301706E+01  0.58084847262E+01  0.12700000000E+01 0.  1.
         -4    1    1    2    0  501 -0.44788096747E+00 -0.27303585978E+01 -0.46964627171E+01  0.55968846233E+01  0.12700000000E+01 0. -1.
<mgrwt>
<rscale>  0 0.30443974E+01</rscale>
<asrwt>0</asrwt>
<pdfrwt beam="1">0</pdfrwt>
<pdfrwt beam="2">0</pdfrwt>
<totfact> 0.17232466E+12</totfact>
</mgrwt>
</event>
<event>
 4    1  0.1838758E+006  0.2198730E+01  0.7546771E-02  0.2858365E+00
         22   -1    0    0    0    0  0.00000000000E+00  0.00000000000E+00  0.13947587774E+01  0.13947587774E+01  0.00000000000E+00 0. -1.
         22   -1    0    0    0    0 -0.00000000000E+00 -0.00000000000E+00 -0.42541614058E+01  0.42541614058E+01  0.00000000000E+00 0.  1.
          4    1    1    2  501    0 -0.10110425675E+00  0.17920078826E+01 -0.21407412344E+00  0.22091269887E+01  0.12700000000E+01 0. -1.
         -4    1    1    2    0  501  0.10110425675E+00 -0.17920078826E+01 -0.26453285049E+01  0.34397931945E+01  0.12700000000E+01 0.  1.
<mgrwt>
<rscale>  0 0.21987302E+01</rscale>
<asrwt>0</asrwt>
<pdfrwt beam="1">0</pdfrwt>
<pdfrwt beam="2">0</pdfrwt>
<totfact> 0.30071269E+12</totfact>
</mgrwt>
</event>
<event>
 4    1  0.1838758E+006  0.5740831E+01  0.7546771E-02  0.2043741E+00
         22   -1    0    0    0    0  0.00000000000E+00  0.00000000000E+00  0.20422843534E+01  0.20422843534E+01  0.00000000000E+00 0. -1.
         22   -1    0    0    0    0 -0.00000000000E+00 -0.00000000000E+00 -0.20596243811E+02  0.20596243811E+02  0.00000000000E+00 0.  1.
          4    1    1    2  501    0 -0.47075157527E+01  0.30304340180E+01 -0.40103122739E+01  0.70028379557E+01  0.12700000000E+01 0. -1.
         -4    1    1    2    0  501  0.47075157527E+01 -0.30304340180E+01 -0.14543647183E+02  0.15635690208E+02  0.12700000000E+01 0.  1.
<mgrwt>
<rscale>  0 0.57408305E+01</rscale>
<asrwt>0</asrwt>
<pdfrwt beam="1">0</pdfrwt>
<pdfrwt beam="2">0</pdfrwt>
<totfact> 0.28735347E+11</totfact>
</mgrwt>
</event>
<event>
 4    1  0.1838758E+006  0.2546962E+01  0.7546771E-02  0.2688181E+00
         22   -1    0    0    0    0  0.00000000000E+00  0.00000000000E+00  0.14101161747E+02  0.14101161747E+02  0.00000000000E+00 0.  1.
         22   -1    0    0    0    0 -0.00000000000E+00 -0.00000000000E+00 -0.13540711350E+01  0.13540711350E+01  0.00000000000E+00 0.  1.
          4    1    1    2  501    0  0.98420128985E+00 -0.19762243403E+01  0.12652720204E+02  0.12906523288E+02  0.12700000000E+01 0.  1.
         -4    1    1    2    0  501 -0.98420128985E+00  0.19762243403E+01  0.94370408223E-01  0.25487095943E+01  0.12700000000E+01 0.  1.
<mgrwt>
<rscale>  0 0.25469619E+01</rscale>
<asrwt>0</asrwt>
<pdfrwt beam="1">0</pdfrwt>
<pdfrwt beam="2">0</pdfrwt>
<totfact> 0.73764415E+11</totfact>
</mgrwt>
</event>
<event>
 4    1  0.1838758E+006  0.2183039E+01  0.7546771E-02  0.2867243E+00
         22   -1    0    0    0    0  0.00000000000E+00  0.00000000000E+00  0.16712742003E+02  0.16712742003E+02  0.00000000000E+00 0. -1.
         22   -1    0    0    0    0 -0.00000000000E+00 -0.00000000000E+00 -0.38764231398E+00  0.38764231398E+00  0.00000000000E+00 0.  1.
          4    1    1    2  501    0  0.96760690413E+00 -0.14887901337E+01  0.12559011592E+02  0.12747330361E+02  0.12700000000E+01 0. -1.
         -4    1    1    2    0  501 -0.96760690413E+00  0.14887901337E+01  0.37660880973E+01  0.43530539555E+01  0.12700000000E+01 0.  1.
<mgrwt>
<rscale>  0 0.21830390E+01</rscale>
<asrwt>0</asrwt>
<pdfrwt beam="1">0</pdfrwt>
<pdfrwt beam="2">0</pdfrwt>
<totfact> 0.24777040E+12</totfact>
</mgrwt>
</event>
<event>
 4    1  0.1838758E+006  0.2166997E+01  0.7546771E-02  0.2876446E+00
         22   -1    0    0    0    0  0.00000000000E+00  0.00000000000E+00  0.55500437014E+00  0.55500437014E+00  0.00000000000E+00 0.  1.
         22   -1    0    0    0    0 -0.00000000000E+00 -0.00000000000E+00 -0.85473828084E+01  0.85473828084E+01  0.00000000000E+00 0. -1.
          4    1    1    2  501    0  0.16632509306E+01  0.56264809724E+00 -0.35385826023E+01  0.41493907231E+01  0.12700000000E+01 0. -1.
         -4    1    1    2    0  501 -0.16632509306E+01 -0.56264809724E+00 -0.44537958360E+01  0.49529964555E+01  0.12700000000E+01 0. -1.
<mgrwt>
<rscale>  0 0.21669971E+01</rscale>
<asrwt>0</asrwt>
<pdfrwt beam="1">0</pdfrwt>
<pdfrwt beam="2">0</pdfrwt>
<totfact> 0.37443399E+12</totfact>
</mgrwt>
</event>
<event>
 4    1  0.1838758E+006  0.3362471E+01  0.7546771E-02  0.2418719E+00
         22   -1    0    0    0    0  0.00000000000E+00  0.00000000000E+00  0.57280759611E-01  0.57280759611E-01  0.00000000000E+00 0. -1.
         22   -1    0    0    0    0 -0.00000000000E+00 -0.00000000000E+00 -0.20750343475E+03  0.20750343475E+03  0.00000000000E+00 0.  1.
          4    1    1    2  501    0 -0.24312028236E+01 -0.19448822259E+01 -0.80803062498E+02  0.80872993781E+02  0.12700000000E+01 0. -1.
         -4    1    1    2    0  501  0.24312028236E+01  0.19448822259E+01 -0.12664309149E+03  0.12668772173E+03  0.12700000000E+01 0.  1.
<mgrwt>
<rscale>  0 0.33624714E+01</rscale>
<asrwt>0</asrwt>
<pdfrwt beam="1">0</pdfrwt>
<pdfrwt beam="2">0</pdfrwt>
<totfact> 0.68043133E+11</totfact>
</mgrwt>
</event>
<event>
 4    1  0.1838758E+006  0.2319939E+01  0.7546771E-02  0.2793661E+00
         22   -1    0    0    0    0  0.00000000000E+00  0.00000000000E+00  0.42097630777E+00  0.42097630777E+00  0.00000000000E+00 0.  1.
         22   -1    0    0    0    0 -0.00000000000E+00 -0.00000000000E+00 -0.19360106697E+02  0.19360106697E+02  0.00000000000E+00 0. -1.
          4    1    1    2  501    0  0.16555931269E+01 -0.10140159641E+01 -0.37055819828E+01  0.43718937325E+01  0.12700000000E+01 0.  1.
         -4    1    1    2    0  501 -0.16555931269E+01  0.10140159641E+01 -0.15233548406E+02  0.15409189272E+02  0.12700000000E+01 0. -1.
<mgrwt>
<rscale>  0 0.23199390E+01</rscale>
<asrwt>0</asrwt>
<pdfrwt beam="1">0</pdfrwt>
<pdfrwt beam="2">0</pdfrwt>
<totfact> 0.18814640E+12</totfact>
</mgrwt>
</event>
<event>
 4    1  0.1838758E+006  0.2251181E+01  0.7546771E-02  0.2829550E+00
         22   -1    0    0    0    0  0.00000000000E+00  0.00000000000E+00  0.20455816534E+01  0.20455816534E+01  0.00000000000E+00 0. -1.
         22   -1    0    0    0    0 -0.00000000000E+00 -0.00000000000E+00 -0.59332552579E+01  0.59332552579E+01  0.00000000000E+00 0. -1.
          4    1    1    2  501    0  0.16459524099E+01  0.86357259866E+00  0.11008175235E+01  0.25059162374E+01  0.12700000000E+01 0. -1.
         -4    1    1    2    0  501 -0.16459524099E+01 -0.86357259866E+00 -0.49884911280E+01  0.54729206739E+01  0.12700000000E+01 0. -1.
<mgrwt>
<rscale>  0 0.22511812E+01</rscale>
<asrwt>0</asrwt>
<pdfrwt beam="1">0</pdfrwt>
<pdfrwt beam="2">0</pdfrwt>
<totfact> 0.13038459E+12</totfact>
</mgrwt>
</event>
<event>
 4    1  0.1838758E+006  0.2588374E+01  0.7546771E-02  0.2670806E+00
         22   -1    0    0    0    0  0.00000000000E+00  0.00000000000E+00  0.16376981974E+01  0.16376981974E+01  0.00000000000E+00 0.  1.
         22   -1    0    0    0    0 -0.00000000000E+00 -0.00000000000E+00 -0.41190408024E+01  0.41190408024E+01  0.00000000000E+00 0.  1.
          4    1    1    2  501    0 -0.67098166344E+00  0.21532684527E+01 -0.10028155370E+01  0.27758458933E+01  0.12700000000E+01 0.  1.
         -4    1    1    2    0  501  0.67098166344E+00 -0.21532684527E+01 -0.14785270680E+01  0.29808931065E+01  0.12700000000E+01 0.  1.
<mgrwt>
<rscale>  0 0.25883743E+01</rscale>
<asrwt>0</asrwt>
<pdfrwt beam="1">0</pdfrwt>
<pdfrwt beam="2">0</pdfrwt>
<totfact> 0.25967806E+12</totfact>
</mgrwt>
</event>
<event>
 4    1  0.1838758E+006  0.3781250E+01  0.7546771E-02  0.2321166E+00
         22   -1    0    0    0    0  0.00000000000E+00  0.00000000000E+00  0.11183044583E+01  0.11183044583E+01  0.00000000000E+00 0. -1.
         22   -1    0    0    0    0 -0.00000000000E+00 -0.00000000000E+00 -0.21222739814E+02  0.21222739814E+02  0.00000000000E+00 0.  1.
          4    1    1    2  501    0  0.33955438407E+01  0.10748165515E+01 -0.30088832656E+01  0.48323107412E+01  0.12700000000E+01 0. -1.
         -4    1    1    2    0  501 -0.33955438407E+01 -0.10748165515E+01 -0.17095552090E+02  0.17508733531E+02  0.12700000000E+01 0.  1.
<mgrwt>
<rscale>  0 0.37812496E+01</rscale>
<asrwt>0</asrwt>
<pdfrwt beam="1">0</pdfrwt>
<pdfrwt beam="2">0</pdfrwt>
<totfact> 0.55357693E+11</totfact>
</mgrwt>
</event>
<event>
 4    1  0.1838758E+006  0.2649551E+01  0.7546771E-02  0.2646057E+00
         22   -1    0    0    0    0  0.00000000000E+00  0.00000000000E+00  0.54826597634E+01  0.54826597634E+01  0.00000000000E+00 0. -1.
         22   -1    0    0    0    0 -0.00000000000E+00 -0.00000000000E+00 -0.13185545763E+01  0.13185545763E+01  0.00000000000E+00 0.  1.
          4    1    1    2  501    0  0.21539548690E+01  0.87618364281E+00  0.15037511643E+01  0.30465368729E+01  0.12700000000E+01 0.  1.
         -4    1    1    2    0  501 -0.21539548690E+01 -0.87618364281E+00  0.26603540227E+01  0.37546774668E+01  0.12700000000E+01 0. -1.
<mgrwt>
<rscale>  0 0.26495508E+01</rscale>
<asrwt>0</asrwt>
<pdfrwt beam="1">0</pdfrwt>
<pdfrwt beam="2">0</pdfrwt>
<totfact> 0.23761233E+12</totfact>
</mgrwt>
</event>
<event>
 4    1  0.1838758E+006  0.2525888E+01  0.7546771E-02  0.2697226E+00
         22   -1    0    0    0    0  0.00000000000E+00  0.00000000000E+00  0.32911346105E+02  0.32911346105E+02  0.00000000000E+00 0. -1.
         22   -1    0    0    0    0 -0.00000000000E+00 -0.00000000000E+00 -0.72592360575E+00  0.72592360575E+00  0.00000000000E+00 0.  1.
          4    1    1    2  501    0  0.21833270819E+01 -0.17165649375E-01  0.30491570043E+02  0.30596012084E+02  0.12700000000E+01 0. -1.
         -4    1    1    2    0  501 -0.21833270819E+01  0.17165649375E-01  0.16938524570E+01  0.30412576267E+01  0.12700000000E+01 0.  1.
<mgrwt>
<rscale>  0 0.25258883E+01</rscale>
<asrwt>0</asrwt>
<pdfrwt beam="1">0</pdfrwt>
<pdfrwt beam="2">0</pdfrwt>
<totfact> 0.51994901E+11</totfact>
</mgrwt>
</event>
<event>
 4    1  0.1838758E+006  0.2482513E+01  0.7546771E-02  0.2716290E+00
         22   -1    0    0    0    0  0.00000000000E+00  0.00000000000E+00  0.24820240279E+01  0.24820240279E+01  0.00000000000E+00 0. -1.
         22   -1    0    0    0    0 -0.00000000000E+00 -0.00000000000E+00 -0.26547492636E+01  0.26547492636E+01  0.00000000000E+00 0.  1.
          4    1    1    2  501    0 -0.20776023249E+01 -0.48326118093E+00  0.56690699832E+00  0.25464202980E+01  0.12700000000E+01 0. -1.
         -4    1    1    2    0  501  0.20776023249E+01  0.48326118093E+00 -0.73963223406E+00  0.25903529935E+01  0.12700000000E+01 0.  1.
<mgrwt>
<rscale>  0 0.24825134E+01</rscale>
<asrwt>0</asrwt>
<pdfrwt beam="1">0</pdfrwt>
<pdfrwt beam="2">0</pdfrwt>
<totfact> 0.26840503E+12</totfact>
</mgrwt>
</event>
<event>
 4    1  0.1838758E+006  0.2103757E+01  0.7546771E-02  0.2914045E+00
         22   -1    0    0    0    0  0.00000000000E+00  0.00000000000E+00  0.17341150761E+01  0.17341150761E+01  0.00000000000E+00 0. -1.
         22   -1    0    0    0    0 -0.00000000000E+00 -0.00000000000E+00 -0.49547261444E+01  0.49547261444E+01  0.00000000000E+00 0.  1.
          4    1    1    2  501    0 -0.15637277858E+01 -0.60634213970E+00  0.71856747948E+00  0.22230912264E+01  0.12700000000E+01 0. -1.
         -4    1    1    2    0  501  0.15637277858E+01  0.60634213970E+00 -0.39391785477E+01  0.44657499941E+01  0.12700000000E+01 0.  1.
<mgrwt>
<rscale>  0 0.21037574E+01</rscale>
<asrwt>0</asrwt>
<pdfrwt beam="1">0</pdfrwt>
<pdfrwt beam="2">0</pdfrwt>
<totfact> 0.19545046E+12</totfact>
</mgrwt>
</event>
<event>
 4    1  0.1838758E+006  0.2291703E+01  0.7546771E-02  0.2808152E+00
         22   -1    0    0    0    0  0.00000000000E+00  0.00000000000E+00  0.18938910096E+02  0.18938910096E+02  0.00000000000E+00 0. -1.
         22   -1    0    0    0    0 -0.00000000000E+00 -0.00000000000E+00 -0.87877831006E+00  0.87877831006E+00  0.00000000000E+00 0.  1.
          4    1    1    2  501    0  0.81910048540E+00  0.17228101656E+01  0.17227739802E+02  0.17379497092E+02  0.12700000000E+01 0. -1.
         -4    1    1    2    0  501 -0.81910048540E+00 -0.17228101656E+01  0.83239198428E+00  0.24381913148E+01  0.12700000000E+01 0.  1.
<mgrwt>
<rscale>  0 0.22917025E+01</rscale>
<asrwt>0</asrwt>
<pdfrwt beam="1">0</pdfrwt>
<pdfrwt beam="2">0</pdfrwt>
<totfact> 0.84012478E+11</totfact>
</mgrwt>
</event>
<event>
 4    1  0.1838758E+006  0.2211081E+01  0.7546771E-02  0.2851462E+00
         22   -1    0    0    0    0  0.00000000000E+00  0.00000000000E+00  0.14525877863E+02  0.14525877863E+02  0.00000000000E+00 0. -1.
         22   -1    0    0    0    0 -0.00000000000E+00 -0.00000000000E+00 -0.33999874608E+00  0.33999874608E+00  0.00000000000E+00 0. -1.
          4    1    1    2  501    0  0.15591477104E+01 -0.91926045465E+00  0.78400694827E+01  0.81458928829E+01  0.12700000000E+01 0. -1.
         -4    1    1    2    0  501 -0.15591477104E+01  0.91926045465E+00  0.63458096346E+01  0.67199837265E+01  0.12700000000E+01 0. -1.
<mgrwt>
<rscale>  0 0.22110815E+01</rscale>
<asrwt>0</asrwt>
<pdfrwt beam="1">0</pdfrwt>
<pdfrwt beam="2">0</pdfrwt>
<totfact> 0.34131159E+12</totfact>
</mgrwt>
</event>
<event>
 4    1  0.1838758E+006  0.2005774E+01  0.7546771E-02  0.2976841E+00
         22   -1    0    0    0    0  0.00000000000E+00  0.00000000000E+00  0.15144604919E+01  0.15144604919E+01  0.00000000000E+00 0. -1.
         22   -1    0    0    0    0 -0.00000000000E+00 -0.00000000000E+00 -0.42555183921E+01  0.42555183921E+01  0.00000000000E+00 0.  1.
          4    1    1    2  501    0 -0.12125758711E+01  0.96947778746E+00  0.39794239857E+00  0.20448681072E+01  0.12700000000E+01 0. -1.
         -4    1    1    2    0  501  0.12125758711E+01 -0.96947778746E+00 -0.31390002988E+01  0.37251107768E+01  0.12700000000E+01 0.  1.
<mgrwt>
<rscale>  0 0.20057735E+01</rscale>
<asrwt>0</asrwt>
<pdfrwt beam="1">0</pdfrwt>
<pdfrwt beam="2">0</pdfrwt>
<totfact> 0.27342920E+12</totfact>
</mgrwt>
</event>
<event>
 4    1  0.1838758E+006  0.2237982E+01  0.7546771E-02  0.2836681E+00
         22   -1    0    0    0    0  0.00000000000E+00  0.00000000000E+00  0.10627080375E+01  0.10627080375E+01  0.00000000000E+00 0.  1.
         22   -1    0    0    0    0 -0.00000000000E+00 -0.00000000000E+00 -0.69796337867E+01  0.69796337867E+01  0.00000000000E+00 0. -1.
          4    1    1    2  501    0  0.55408326005E+00  0.17574565568E+01 -0.66693472790E+00  0.23352438286E+01  0.12700000000E+01 0.  1.
         -4    1    1    2    0  501 -0.55408326005E+00 -0.17574565568E+01 -0.52499910213E+01  0.57070979956E+01  0.12700000000E+01 0. -1.
<mgrwt>
<rscale>  0 0.22379816E+01</rscale>
<asrwt>0</asrwt>
<pdfrwt beam="1">0</pdfrwt>
<pdfrwt beam="2">0</pdfrwt>
<totfact> 0.22815998E+12</totfact>
</mgrwt>
</event>
<event>
 4    1  0.1838758E+006  0.2044693E+01  0.7546771E-02  0.2951196E+00
         22   -1    0    0    0    0  0.00000000000E+00  0.00000000000E+00  0.29651885692E+02  0.29651885692E+02  0.00000000000E+00 0.  1.
         22   -1    0    0    0    0 -0.00000000000E+00 -0.00000000000E+00 -0.17672205536E+00  0.17672205536E+00  0.00000000000E+00 0. -1.
          4    1    1    2  501    0 -0.56794617519E+00  0.14984348612E+01  0.80317021358E+01  0.82878832695E+01  0.12700000000E+01 0.  1.
         -4    1    1    2    0  501  0.56794617519E+00 -0.14984348612E+01  0.21443461501E+02  0.21540724478E+02  0.12700000000E+01 0. -1.
<mgrwt>
<rscale>  0 0.20446931E+01</rscale>
<asrwt>0</asrwt>
<pdfrwt beam="1">0</pdfrwt>
<pdfrwt beam="2">0</pdfrwt>
<totfact> 0.29080470E+12</totfact>
</mgrwt>
</event>
<event>
 4    1  0.1838758E+006  0.2039040E+01  0.7546771E-02  0.2954861E+00
         22   -1    0    0    0    0  0.00000000000E+00  0.00000000000E+00  0.52113387521E+01  0.52113387521E+01  0.00000000000E+00 0.  1.
         22   -1    0    0    0    0 -0.00000000000E+00 -0.00000000000E+00 -0.92010171564E+00  0.92010171564E+00  0.00000000000E+00 0.  1.
          4    1    1    2  501    0 -0.12433477190E+01 -0.99943442572E+00  0.32632657666E+01  0.38479327158E+01  0.12700000000E+01 0.  1.
         -4    1    1    2    0  501  0.12433477190E+01  0.99943442572E+00  0.10279712699E+01  0.22835077520E+01  0.12700000000E+01 0.  1.
<mgrwt>
<rscale>  0 0.20390397E+01</rscale>
<asrwt>0</asrwt>
<pdfrwt beam="1">0</pdfrwt>
<pdfrwt beam="2">0</pdfrwt>
<totfact> 0.38083502E+12</totfact>
</mgrwt>
</event>
<event>
 4    1  0.1838758E+006  0.2097287E+01  0.7546771E-02  0.2918016E+00
         22   -1    0    0    0    0  0.00000000000E+00  0.00000000000E+00  0.10387440344E+01  0.10387440344E+01  0.00000000000E+00 0.  1.
         22   -1    0    0    0    0 -0.00000000000E+00 -0.00000000000E+00 -0.68271549014E+01  0.68271549014E+01  0.00000000000E+00 0.  1.
          4    1    1    2  501    0  0.13019865648E+01  0.10442905475E+01 -0.47057274609E+00  0.21494302668E+01  0.12700000000E+01 0.  1.
         -4    1    1    2    0  501 -0.13019865648E+01 -0.10442905475E+01 -0.53178381209E+01  0.57164686689E+01  0.12700000000E+01 0.  1.
<mgrwt>
<rscale>  0 0.20972868E+01</rscale>
<asrwt>0</asrwt>
<pdfrwt beam="1">0</pdfrwt>
<pdfrwt beam="2">0</pdfrwt>
<totfact> 0.24044530E+12</totfact>
</mgrwt>
</event>
<event>
 4    1  0.1838758E+006  0.3450166E+01  0.7546771E-02  0.2396589E+00
         22   -1    0    0    0    0  0.00000000000E+00  0.00000000000E+00  0.32131863791E+02  0.32131863791E+02  0.00000000000E+00 0.  1.
         22   -1    0    0    0    0 -0.00000000000E+00 -0.00000000000E+00 -0.16873196501E+01  0.16873196501E+01  0.00000000000E+00 0. -1.
          4    1    1    2  501    0  0.20020834200E+01  0.25064732960E+01  0.30160662095E+02  0.30357357995E+02  0.12700000000E+01 0.  1.
         -4    1    1    2    0  501 -0.20020834200E+01 -0.25064732960E+01  0.28388204559E+00  0.34618254462E+01  0.12700000000E+01 0. -1.
<mgrwt>
<rscale>  0 0.34501661E+01</rscale>
<asrwt>0</asrwt>
<pdfrwt beam="1">0</pdfrwt>
<pdfrwt beam="2">0</pdfrwt>
<totfact> 0.20425527E+11</totfact>
</mgrwt>
</event>
<event>
 4    1  0.1838758E+006  0.2027385E+01  0.7546771E-02  0.2962481E+00
         22   -1    0    0    0    0  0.00000000000E+00  0.00000000000E+00  0.17947661160E+01  0.17947661160E+01  0.00000000000E+00 0.  1.
         22   -1    0    0    0    0 -0.00000000000E+00 -0.00000000000E+00 -0.28588703727E+01  0.28588703727E+01  0.00000000000E+00 0. -1.
          4    1    1    2  501    0 -0.47794703319E+00  0.15063058221E+01  0.50574660748E+00  0.20895143520E+01  0.12700000000E+01 0.  1.
         -4    1    1    2    0  501  0.47794703319E+00 -0.15063058221E+01 -0.15698508643E+01  0.25641221367E+01  0.12700000000E+01 0. -1.
<mgrwt>
<rscale>  0 0.20273852E+01</rscale>
<asrwt>0</asrwt>
<pdfrwt beam="1">0</pdfrwt>
<pdfrwt beam="2">0</pdfrwt>
<totfact> 0.35843573E+12</totfact>
</mgrwt>
</event>
<event>
 4    1  0.1838758E+006  0.2095671E+01  0.7546771E-02  0.2919011E+00
         22   -1    0    0    0    0  0.00000000000E+00  0.00000000000E+00  0.18214116592E+02  0.18214116592E+02  0.00000000000E+00 0. -1.
         22   -1    0    0    0    0 -0.00000000000E+00 -0.00000000000E+00 -0.31314197605E+00  0.31314197605E+00  0.00000000000E+00 0.  1.
          4    1    1    2  501    0  0.48429233361E+00 -0.15951175135E+01  0.13393060297E+02  0.13556028293E+02  0.12700000000E+01 0. -1.
         -4    1    1    2    0  501 -0.48429233361E+00  0.15951175135E+01  0.45079143190E+01  0.49712302757E+01  0.12700000000E+01 0.  1.
<mgrwt>
<rscale>  0 0.20956715E+01</rscale>
<asrwt>0</asrwt>
<pdfrwt beam="1">0</pdfrwt>
<pdfrwt beam="2">0</pdfrwt>
<totfact> 0.28306573E+12</totfact>
</mgrwt>
</event>
<event>
 4    1  0.1838758E+006  0.2444651E+01  0.7546771E-02  0.2733446E+00
         22   -1    0    0    0    0  0.00000000000E+00  0.00000000000E+00  0.25492808029E+01  0.25492808029E+01  0.00000000000E+00 0. -1.
         22   -1    0    0    0    0 -0.00000000000E+00 -0.00000000000E+00 -0.23504266041E+01  0.23504266041E+01  0.00000000000E+00 0. -1.
          4    1    1    2  501    0 -0.11795371464E+01 -0.17239811749E+01  0.22434367692E+00  0.24549234319E+01  0.12700000000E+01 0. -1.
         -4    1    1    2    0  501  0.11795371464E+01  0.17239811749E+01 -0.25489478052E-01  0.24447839751E+01  0.12700000000E+01 0. -1.
<mgrwt>
<rscale>  0 0.24446511E+01</rscale>
<asrwt>0</asrwt>
<pdfrwt beam="1">0</pdfrwt>
<pdfrwt beam="2">0</pdfrwt>
<totfact> 0.29976818E+12</totfact>
</mgrwt>
</event>
<event>
 4    1  0.1838758E+006  0.3933449E+01  0.7546771E-02  0.2290199E+00
         22   -1    0    0    0    0  0.00000000000E+00  0.00000000000E+00  0.92678501940E+00  0.92678501940E+00  0.00000000000E+00 0.  1.
         22   -1    0    0    0    0 -0.00000000000E+00 -0.00000000000E+00 -0.26619253153E+02  0.26619253153E+02  0.00000000000E+00 0. -1.
          4    1    1    2  501    0 -0.37095938667E+01 -0.31310430962E+00 -0.44362418310E+01  0.59289343518E+01  0.12700000000E+01 0.  1.
         -4    1    1    2    0  501  0.37095938667E+01  0.31310430962E+00 -0.21256226302E+02  0.21617103820E+02  0.12700000000E+01 0.  1.
<mgrwt>
<rscale>  0 0.39334490E+01</rscale>
<asrwt>0</asrwt>
<pdfrwt beam="1">0</pdfrwt>
<pdfrwt beam="2">0</pdfrwt>
<totfact> 0.51592575E+11</totfact>
</mgrwt>
</event>
<event>
 4    1  0.1838758E+006  0.2083825E+01  0.7546771E-02  0.2926353E+00
         22   -1    0    0    0    0  0.00000000000E+00  0.00000000000E+00  0.59407325274E+00  0.59407325274E+00  0.00000000000E+00 0.  1.
         22   -1    0    0    0    0 -0.00000000000E+00 -0.00000000000E+00 -0.73185451626E+01  0.73185451626E+01  0.00000000000E+00 0.  1.
          4    1    1    2  501    0  0.14954530326E+01  0.70217359561E+00 -0.35019801115E+01  0.40750695985E+01  0.12700000000E+01 0.  1.
         -4    1    1    2    0  501 -0.14954530326E+01 -0.70217359561E+00 -0.32224917983E+01  0.38375488168E+01  0.12700000000E+01 0.  1.
<mgrwt>
<rscale>  0 0.20838252E+01</rscale>
<asrwt>0</asrwt>
<pdfrwt beam="1">0</pdfrwt>
<pdfrwt beam="2">0</pdfrwt>
<totfact> 0.41772514E+12</totfact>
</mgrwt>
</event>
<event>
 4    1  0.1838758E+006  0.2131775E+01  0.7546771E-02  0.2897121E+00
         22   -1    0    0    0    0  0.00000000000E+00  0.00000000000E+00  0.38964561869E+02  0.38964561869E+02  0.00000000000E+00 0.  1.
         22   -1    0    0    0    0 -0.00000000000E+00 -0.00000000000E+00 -0.12621257776E+00  0.12621257776E+00  0.00000000000E+00 0. -1.
          4    1    1    2  501    0  0.38107636309E+00 -0.16692353523E+01  0.24804565983E+02  0.24896002881E+02  0.12700000000E+01 0.  1.
         -4    1    1    2    0  501 -0.38107636309E+00  0.16692353523E+01  0.14033783308E+02  0.14194771566E+02  0.12700000000E+01 0. -1.
<mgrwt>
<rscale>  0 0.21317753E+01</rscale>
<asrwt>0</asrwt>
<pdfrwt beam="1">0</pdfrwt>
<pdfrwt beam="2">0</pdfrwt>
<totfact> 0.29772132E+12</totfact>
</mgrwt>
</event>
<event>
 4    1  0.1838758E+006  0.6036706E+01  0.7546771E-02  0.2016412E+00
         22   -1    0    0    0    0  0.00000000000E+00  0.00000000000E+00  0.52966649191E+01  0.52966649191E+01  0.00000000000E+00 0. -1.
         22   -1    0    0    0    0 -0.00000000000E+00 -0.00000000000E+00 -0.12806631687E+02  0.12806631687E+02  0.00000000000E+00 0.  1.
          4    1    1    2  501    0 -0.59013626083E+01  0.53277935964E-01  0.24025800172E+01  0.64972463330E+01  0.12700000000E+01 0. -1.
         -4    1    1    2    0  501  0.59013626083E+01 -0.53277935964E-01 -0.99125467848E+01  0.11606050273E+02  0.12700000000E+01 0.  1.
<mgrwt>
<rscale>  0 0.60367060E+01</rscale>
<asrwt>0</asrwt>
<pdfrwt beam="1">0</pdfrwt>
<pdfrwt beam="2">0</pdfrwt>
<totfact> 0.16925677E+11</totfact>
</mgrwt>
</event>
<event>
 4    1  0.1838758E+006  0.3563726E+01  0.7546771E-02  0.2369351E+00
         22   -1    0    0    0    0  0.00000000000E+00  0.00000000000E+00  0.11197496495E+02  0.11197496495E+02  0.00000000000E+00 0.  1.
         22   -1    0    0    0    0 -0.00000000000E+00 -0.00000000000E+00 -0.63881017555E+01  0.63881017555E+01  0.00000000000E+00 0. -1.
          4    1    1    2  501    0 -0.19880545083E+00  0.33238107802E+01  0.10378811180E+02  0.10973598462E+02  0.12700000000E+01 0.  1.
         -4    1    1    2    0  501  0.19880545083E+00 -0.33238107802E+01 -0.55694164404E+01  0.66119997880E+01  0.12700000000E+01 0. -1.
<mgrwt>
<rscale>  0 0.35637258E+01</rscale>
<asrwt>0</asrwt>
<pdfrwt beam="1">0</pdfrwt>
<pdfrwt beam="2">0</pdfrwt>
<totfact> 0.15954092E+11</totfact>
</mgrwt>
</event>
<event>
 4    1  0.1838758E+006  0.2800737E+01  0.7546771E-02  0.2589164E+00
         22   -1    0    0    0    0  0.00000000000E+00  0.00000000000E+00  0.21458175948E+00  0.21458175948E+00  0.00000000000E+00 0.  1.
         22   -1    0    0    0    0 -0.00000000000E+00 -0.00000000000E+00 -0.41287827569E+02  0.41287827569E+02  0.00000000000E+00 0. -1.
          4    1    1    2  501    0 -0.24938056967E+01 -0.11027110263E+00 -0.13511186299E+02  0.13798415915E+02  0.12700000000E+01 0.  1.
         -4    1    1    2    0  501  0.24938056967E+01  0.11027110263E+00 -0.27562059511E+02  0.27703993413E+02  0.12700000000E+01 0. -1.
<mgrwt>
<rscale>  0 0.28007368E+01</rscale>
<asrwt>0</asrwt>
<pdfrwt beam="1">0</pdfrwt>
<pdfrwt beam="2">0</pdfrwt>
<totfact> 0.15298576E+12</totfact>
</mgrwt>
</event>
<event>
 4    1  0.1838758E+006  0.2045375E+01  0.7546771E-02  0.2950755E+00
         22   -1    0    0    0    0  0.00000000000E+00  0.00000000000E+00  0.26022225833E+01  0.26022225833E+01  0.00000000000E+00 0.  1.
         22   -1    0    0    0    0 -0.00000000000E+00 -0.00000000000E+00 -0.23468151634E+01  0.23468151634E+01  0.00000000000E+00 0.  1.
          4    1    1    2  501    0  0.11799518410E+00  0.15989800923E+01  0.15164122778E+01  0.25461866379E+01  0.12700000000E+01 0.  1.
         -4    1    1    2    0  501 -0.11799518410E+00 -0.15989800923E+01 -0.12610048579E+01  0.24028511087E+01  0.12700000000E+01 0.  1.
<mgrwt>
<rscale>  0 0.20453753E+01</rscale>
<asrwt>0</asrwt>
<pdfrwt beam="1">0</pdfrwt>
<pdfrwt beam="2">0</pdfrwt>
<totfact> 0.29318292E+12</totfact>
</mgrwt>
</event>
<event>
 4    1  0.1838758E+006  0.2419227E+01  0.7546771E-02  0.2745248E+00
         22   -1    0    0    0    0  0.00000000000E+00  0.00000000000E+00  0.25560526396E+01  0.25560526396E+01  0.00000000000E+00 0.  1.
         22   -1    0    0    0    0 -0.00000000000E+00 -0.00000000000E+00 -0.24953026173E+01  0.24953026173E+01  0.00000000000E+00 0.  1.
          4    1    1    2  501    0 -0.10855168504E+01 -0.17496891492E+01  0.75531770020E+00  0.25343961371E+01  0.12700000000E+01 0.  1.
         -4    1    1    2    0  501  0.10855168504E+01  0.17496891492E+01 -0.69456767785E+00  0.25169591198E+01  0.12700000000E+01 0.  1.
<mgrwt>
<rscale>  0 0.24192269E+01</rscale>
<asrwt>0</asrwt>
<pdfrwt beam="1">0</pdfrwt>
<pdfrwt beam="2">0</pdfrwt>
<totfact> 0.27877254E+12</totfact>
</mgrwt>
</event>
<event>
 4    1  0.1838758E+006  0.2783571E+01  0.7546771E-02  0.2595340E+00
         22   -1    0    0    0    0  0.00000000000E+00  0.00000000000E+00  0.10051863145E+01  0.10051863145E+01  0.00000000000E+00 0. -1.
         22   -1    0    0    0    0 -0.00000000000E+00 -0.00000000000E+00 -0.10297085113E+02  0.10297085113E+02  0.00000000000E+00 0.  1.
          4    1    1    2  501    0 -0.13460310720E+01 -0.20793194338E+01 -0.18124226668E+01  0.33216178103E+01  0.12700000000E+01 0. -1.
         -4    1    1    2    0  501  0.13460310720E+01  0.20793194338E+01 -0.74794761320E+01  0.79806536175E+01  0.12700000000E+01 0.  1.
<mgrwt>
<rscale>  0 0.27835713E+01</rscale>
<asrwt>0</asrwt>
<pdfrwt beam="1">0</pdfrwt>
<pdfrwt beam="2">0</pdfrwt>
<totfact> 0.15224983E+12</totfact>
</mgrwt>
</event>
<event>
 4    1  0.1838758E+006  0.2182289E+01  0.7546771E-02  0.2867670E+00
         22   -1    0    0    0    0  0.00000000000E+00  0.00000000000E+00  0.27569031453E+00  0.27569031453E+00  0.00000000000E+00 0. -1.
         22   -1    0    0    0    0 -0.00000000000E+00 -0.00000000000E+00 -0.22342076413E+02  0.22342076413E+02  0.00000000000E+00 0. -1.
          4    1    1    2  501    0  0.34536210500E+00  0.17407505445E+01 -0.56472472190E+01  0.60542372430E+01  0.12700000000E+01 0. -1.
         -4    1    1    2    0  501 -0.34536210500E+00 -0.17407505445E+01 -0.16419138880E+02  0.16563529485E+02  0.12700000000E+01 0. -1.
<mgrwt>
<rscale>  0 0.21822895E+01</rscale>
<asrwt>0</asrwt>
<pdfrwt beam="1">0</pdfrwt>
<pdfrwt beam="2">0</pdfrwt>
<totfact> 0.25306315E+12</totfact>
</mgrwt>
</event>
<event>
 4    1  0.1838758E+006  0.2132319E+01  0.7546771E-02  0.2896797E+00
         22   -1    0    0    0    0  0.00000000000E+00  0.00000000000E+00  0.40957446307E+00  0.40957446307E+00  0.00000000000E+00 0.  1.
         22   -1    0    0    0    0 -0.00000000000E+00 -0.00000000000E+00 -0.12317048874E+02  0.12317048874E+02  0.00000000000E+00 0.  1.
          4    1    1    2  501    0  0.46540543503E-01  0.17122262223E+01 -0.39545088178E+01  0.44927635870E+01  0.12700000000E+01 0.  1.
         -4    1    1    2    0  501 -0.46540543503E-01 -0.17122262223E+01 -0.79529655928E+01  0.82338597498E+01  0.12700000000E+01 0.  1.
<mgrwt>
<rscale>  0 0.21323191E+01</rscale>
<asrwt>0</asrwt>
<pdfrwt beam="1">0</pdfrwt>
<pdfrwt beam="2">0</pdfrwt>
<totfact> 0.33880565E+12</totfact>
</mgrwt>
</event>
<event>
 4    1  0.1838758E+006  0.3868353E+01  0.7546771E-02  0.2303188E+00
         22   -1    0    0    0    0  0.00000000000E+00  0.00000000000E+00  0.31129109213E+02  0.31129109213E+02  0.00000000000E+00 0.  1.
         22   -1    0    0    0    0 -0.00000000000E+00 -0.00000000000E+00 -0.15203928546E+01  0.15203928546E+01  0.00000000000E+00 0. -1.
          4    1    1    2  501    0  0.36252586390E+01  0.45689953539E+00  0.28303884776E+02  0.28567009833E+02  0.12700000000E+01 0.  1.
         -4    1    1    2    0  501 -0.36252586390E+01 -0.45689953539E+00  0.13048315819E+01  0.40824922342E+01  0.12700000000E+01 0. -1.
<mgrwt>
<rscale>  0 0.38683533E+01</rscale>
<asrwt>0</asrwt>
<pdfrwt beam="1">0</pdfrwt>
<pdfrwt beam="2">0</pdfrwt>
<totfact> 0.23982887E+11</totfact>
</mgrwt>
</event>
<event>
 4    1  0.1838758E+006  0.2635416E+01  0.7546771E-02  0.2651681E+00
         22   -1    0    0    0    0  0.00000000000E+00  0.00000000000E+00  0.79729173989E+02  0.79729173989E+02  0.00000000000E+00 0.  1.
         22   -1    0    0    0    0 -0.00000000000E+00 -0.00000000000E+00 -0.76743937017E+00  0.76743937017E+00  0.00000000000E+00 0. -1.
          4    1    1    2  501    0 -0.85266903535E+00 -0.21460367282E+01  0.77376079765E+02  0.77420947669E+02  0.12700000000E+01 0.  1.
         -4    1    1    2    0  501  0.85266903535E+00  0.21460367282E+01  0.15856548534E+01  0.30756656900E+01  0.12700000000E+01 0. -1.
<mgrwt>
<rscale>  0 0.26354161E+01</rscale>
<asrwt>0</asrwt>
<pdfrwt beam="1">0</pdfrwt>
<pdfrwt beam="2">0</pdfrwt>
<totfact> 0.15133761E+11</totfact>
</mgrwt>
</event>
<event>
 4    1  0.1838758E+006  0.2354211E+01  0.7546771E-02  0.2776515E+00
         22   -1    0    0    0    0  0.00000000000E+00  0.00000000000E+00  0.51220290976E+00  0.51220290976E+00  0.00000000000E+00 0.  1.
         22   -1    0    0    0    0 -0.00000000000E+00 -0.00000000000E+00 -0.11281260920E+02  0.11281260920E+02  0.00000000000E+00 0.  1.
          4    1    1    2  501    0  0.88058484286E+00 -0.17759450186E+01 -0.41928670040E+01  0.48085802570E+01  0.12700000000E+01 0.  1.
         -4    1    1    2    0  501 -0.88058484286E+00  0.17759450186E+01 -0.65761910061E+01  0.69848835727E+01  0.12700000000E+01 0.  1.
<mgrwt>
<rscale>  0 0.23542112E+01</rscale>
<asrwt>0</asrwt>
<pdfrwt beam="1">0</pdfrwt>
<pdfrwt beam="2">0</pdfrwt>
<totfact> 0.29304390E+12</totfact>
</mgrwt>
</event>
<event>
 4    1  0.1838758E+006  0.2843833E+01  0.7546771E-02  0.2573959E+00
         22   -1    0    0    0    0  0.00000000000E+00  0.00000000000E+00  0.31726030991E+00  0.31726030991E+00  0.00000000000E+00 0.  1.
         22   -1    0    0    0    0 -0.00000000000E+00 -0.00000000000E+00 -0.25555158479E+02  0.25555158479E+02  0.00000000000E+00 0. -1.
          4    1    1    2  501    0 -0.77503525921E+00 -0.24235941462E+01 -0.11972455146E+02  0.12305570708E+02  0.12700000000E+01 0. -1.
         -4    1    1    2    0  501  0.77503525921E+00  0.24235941462E+01 -0.13265443024E+02  0.13566848081E+02  0.12700000000E+01 0.  1.
<mgrwt>
<rscale>  0 0.28438334E+01</rscale>
<asrwt>0</asrwt>
<pdfrwt beam="1">0</pdfrwt>
<pdfrwt beam="2">0</pdfrwt>
<totfact> 0.18257913E+12</totfact>
</mgrwt>
</event>
<event>
 4    1  0.1838758E+006  0.2092336E+01  0.7546771E-02  0.2921070E+00
         22   -1    0    0    0    0  0.00000000000E+00  0.00000000000E+00  0.16613732170E+01  0.16613732170E+01  0.00000000000E+00 0.  1.
         22   -1    0    0    0    0 -0.00000000000E+00 -0.00000000000E+00 -0.28076665067E+01  0.28076665067E+01  0.00000000000E+00 0. -1.
          4    1    1    2  501    0 -0.16614967843E+01 -0.66307830839E-01 -0.11271367864E+01  0.23766164242E+01  0.12700000000E+01 0.  1.
         -4    1    1    2    0  501  0.16614967843E+01  0.66307830839E-01 -0.19156503314E-01  0.20924232995E+01  0.12700000000E+01 0. -1.
<mgrwt>
<rscale>  0 0.20923356E+01</rscale>
<asrwt>0</asrwt>
<pdfrwt beam="1">0</pdfrwt>
<pdfrwt beam="2">0</pdfrwt>
<totfact> 0.40020200E+12</totfact>
</mgrwt>
</event>
<event>
 4    1  0.1838758E+006  0.5256009E+01  0.7546771E-02  0.2093631E+00
         22   -1    0    0    0    0  0.00000000000E+00  0.00000000000E+00  0.64935051186E+01  0.64935051186E+01  0.00000000000E+00 0.  1.
         22   -1    0    0    0    0 -0.00000000000E+00 -0.00000000000E+00 -0.51381437476E+01  0.51381437476E+01  0.00000000000E+00 0. -1.
          4    1    1    2  501    0  0.18711657753E+01 -0.47446255892E+01  0.30897179298E+01  0.60968836487E+01  0.12700000000E+01 0.  1.
         -4    1    1    2    0  501 -0.18711657753E+01  0.47446255892E+01 -0.17343565588E+01  0.55347652175E+01  0.12700000000E+01 0. -1.
<mgrwt>
<rscale>  0 0.52560093E+01</rscale>
<asrwt>0</asrwt>
<pdfrwt beam="1">0</pdfrwt>
<pdfrwt beam="2">0</pdfrwt>
<totfact> 0.39834921E+11</totfact>
</mgrwt>
</event>
<event>
 4    1  0.1838758E+006  0.2678071E+01  0.7546771E-02  0.2634875E+00
         22   -1    0    0    0    0  0.00000000000E+00  0.00000000000E+00  0.70693397484E+00  0.70693397484E+00  0.00000000000E+00 0.  1.
         22   -1    0    0    0    0 -0.00000000000E+00 -0.00000000000E+00 -0.17045634535E+02  0.17045634535E+02  0.00000000000E+00 0. -1.
          4    1    1    2  501    0 -0.21856040544E+01  0.88447684402E+00 -0.25218095506E+01  0.36785306550E+01  0.12700000000E+01 0.  1.
         -4    1    1    2    0  501  0.21856040544E+01 -0.88447684402E+00 -0.13816891009E+02  0.14074037854E+02  0.12700000000E+01 0. -1.
<mgrwt>
<rscale>  0 0.26780710E+01</rscale>
<asrwt>0</asrwt>
<pdfrwt beam="1">0</pdfrwt>
<pdfrwt beam="2">0</pdfrwt>
<totfact> 0.12262733E+12</totfact>
</mgrwt>
</event>
<event>
 4    1  0.1838758E+006  0.7720746E+01  0.7546771E-02  0.1892838E+00
         22   -1    0    0    0    0  0.00000000000E+00  0.00000000000E+00  0.95685942139E+01  0.95685942139E+01  0.00000000000E+00 0. -1.
         22   -1    0    0    0    0 -0.00000000000E+00 -0.00000000000E+00 -0.11795546433E+02  0.11795546433E+02  0.00000000000E+00 0.  1.
          4    1    1    2  501    0  0.76723470326E-01  0.76151906709E+01  0.62242280783E+01  0.99172037700E+01  0.12700000000E+01 0. -1.
         -4    1    1    2    0  501 -0.76723470326E-01 -0.76151906709E+01 -0.84511802978E+01  0.11446936877E+02  0.12700000000E+01 0.  1.
<mgrwt>
<rscale>  0 0.77207458E+01</rscale>
<asrwt>0</asrwt>
<pdfrwt beam="1">0</pdfrwt>
<pdfrwt beam="2">0</pdfrwt>
<totfact> 0.92191281E+10</totfact>
</mgrwt>
</event>
<event>
 4    1  0.1838758E+006  0.4642840E+01  0.7546771E-02  0.2169025E+00
         22   -1    0    0    0    0  0.00000000000E+00  0.00000000000E+00  0.36033998528E+01  0.36033998528E+01  0.00000000000E+00 0.  1.
         22   -1    0    0    0    0 -0.00000000000E+00 -0.00000000000E+00 -0.14418438285E+02  0.14418438285E+02  0.00000000000E+00 0.  1.
          4    1    1    2  501    0 -0.44521709883E+01 -0.34819228969E+00  0.14851351046E+01  0.48745862038E+01  0.12700000000E+01 0.  1.
         -4    1    1    2    0  501  0.44521709883E+01  0.34819228969E+00 -0.12300173537E+02  0.13147251934E+02  0.12700000000E+01 0.  1.
<mgrwt>
<rscale>  0 0.46428401E+01</rscale>
<asrwt>0</asrwt>
<pdfrwt beam="1">0</pdfrwt>
<pdfrwt beam="2">0</pdfrwt>
<totfact> 0.23056382E+11</totfact>
</mgrwt>
</event>
<event>
 4    1  0.1838758E+006  0.3042006E+01  0.7546771E-02  0.2509070E+00
         22   -1    0    0    0    0  0.00000000000E+00  0.00000000000E+00  0.68804394792E+01  0.68804394792E+01  0.00000000000E+00 0. -1.
         22   -1    0    0    0    0 -0.00000000000E+00 -0.00000000000E+00 -0.22576023931E+01  0.22576023931E+01  0.00000000000E+00 0.  1.
          4    1    1    2  501    0 -0.25442929088E+01 -0.10804958659E+01  0.52164699697E+01  0.60386552035E+01  0.12700000000E+01 0. -1.
         -4    1    1    2    0  501  0.25442929088E+01  0.10804958659E+01 -0.59363288360E+00  0.30993866688E+01  0.12700000000E+01 0.  1.
<mgrwt>
<rscale>  0 0.30420055E+01</rscale>
<asrwt>0</asrwt>
<pdfrwt beam="1">0</pdfrwt>
<pdfrwt beam="2">0</pdfrwt>
<totfact> 0.97471791E+11</totfact>
</mgrwt>
</event>
<event>
 4    1  0.1838758E+006  0.2385487E+01  0.7546771E-02  0.2761274E+00
         22   -1    0    0    0    0  0.00000000000E+00  0.00000000000E+00  0.46328079491E+00  0.46328079491E+00  0.00000000000E+00 0.  1.
         22   -1    0    0    0    0 -0.00000000000E+00 -0.00000000000E+00 -0.24304709798E+02  0.24304709798E+02  0.00000000000E+00 0.  1.
          4    1    1    2  501    0 -0.13340551247E+01  0.15158974565E+01 -0.32111599730E+01  0.40002620597E+01  0.12700000000E+01 0.  1.
         -4    1    1    2    0  501  0.13340551247E+01 -0.15158974565E+01 -0.20630269030E+02  0.20767728534E+02  0.12700000000E+01 0.  1.
<mgrwt>
<rscale>  0 0.23854870E+01</rscale>
<asrwt>0</asrwt>
<pdfrwt beam="1">0</pdfrwt>
<pdfrwt beam="2">0</pdfrwt>
<totfact> 0.12703911E+12</totfact>
</mgrwt>
</event>
<event>
 4    1  0.1838758E+006  0.2554755E+01  0.7546771E-02  0.2684872E+00
         22   -1    0    0    0    0  0.00000000000E+00  0.00000000000E+00  0.22542984721E+01  0.22542984721E+01  0.00000000000E+00 0. -1.
         22   -1    0    0    0    0 -0.00000000000E+00 -0.00000000000E+00 -0.37572433149E+01  0.37572433149E+01  0.00000000000E+00 0. -1.
          4    1    1    2  501    0 -0.26740655421E+00  0.22005383490E+01  0.68822488505E+00  0.26458323422E+01  0.12700000000E+01 0. -1.
         -4    1    1    2    0  501  0.26740655421E+00 -0.22005383490E+01 -0.21911697278E+01  0.33657094448E+01  0.12700000000E+01 0. -1.
<mgrwt>
<rscale>  0 0.25547554E+01</rscale>
<asrwt>0</asrwt>
<pdfrwt beam="1">0</pdfrwt>
<pdfrwt beam="2">0</pdfrwt>
<totfact> 0.19994082E+12</totfact>
</mgrwt>
</event>
<event>
 4    1  0.1838758E+006  0.2100378E+01  0.7546771E-02  0.2916116E+00
         22   -1    0    0    0    0  0.00000000000E+00  0.00000000000E+00  0.17199872075E+00  0.17199872075E+00  0.00000000000E+00 0. -1.
         22   -1    0    0    0    0 -0.00000000000E+00 -0.00000000000E+00 -0.26181581028E+02  0.26181581028E+02  0.00000000000E+00 0. -1.
          4    1    1    2  501    0  0.50465351745E+00  0.15949966940E+01 -0.11125397674E+02  0.11321928415E+02  0.12700000000E+01 0. -1.
         -4    1    1    2    0  501 -0.50465351745E+00 -0.15949966940E+01 -0.14884184633E+02  0.15031651334E+02  0.12700000000E+01 0. -1.
<mgrwt>
<rscale>  0 0.21003784E+01</rscale>
<asrwt>0</asrwt>
<pdfrwt beam="1">0</pdfrwt>
<pdfrwt beam="2">0</pdfrwt>
<totfact> 0.35100373E+12</totfact>
</mgrwt>
</event>
<event>
 4    1  0.1838758E+006  0.2891142E+01  0.7546771E-02  0.2557741E+00
         22   -1    0    0    0    0  0.00000000000E+00  0.00000000000E+00  0.52474093613E+00  0.52474093613E+00  0.00000000000E+00 0.  1.
         22   -1    0    0    0    0 -0.00000000000E+00 -0.00000000000E+00 -0.36825433378E+02  0.36825433378E+02  0.00000000000E+00 0.  1.
          4    1    1    2  501    0  0.25935682071E+01  0.13859207772E+00 -0.40826591389E+01  0.50026802270E+01  0.12700000000E+01 0.  1.
         -4    1    1    2    0  501 -0.25935682071E+01 -0.13859207772E+00 -0.32218033303E+02  0.32347494087E+02  0.12700000000E+01 0.  1.
<mgrwt>
<rscale>  0 0.28911423E+01</rscale>
<asrwt>0</asrwt>
<pdfrwt beam="1">0</pdfrwt>
<pdfrwt beam="2">0</pdfrwt>
<totfact> 0.64995106E+11</totfact>
</mgrwt>
</event>
<event>
 4    1  0.1838758E+006  0.5612048E+01  0.7546771E-02  0.2056332E+00
         22   -1    0    0    0    0  0.00000000000E+00  0.00000000000E+00  0.30465194364E+01  0.30465194364E+01  0.00000000000E+00 0.  1.
         22   -1    0    0    0    0 -0.00000000000E+00 -0.00000000000E+00 -0.10413153523E+02  0.10413153523E+02  0.00000000000E+00 0. -1.
          4    1    1    2  501    0  0.51685295668E+01 -0.17800249561E+01 -0.42548323966E+01  0.70426334173E+01  0.12700000000E+01 0.  1.
         -4    1    1    2    0  501 -0.51685295668E+01  0.17800249561E+01 -0.31118016897E+01  0.64170395419E+01  0.12700000000E+01 0. -1.
<mgrwt>
<rscale>  0 0.56120484E+01</rscale>
<asrwt>0</asrwt>
<pdfrwt beam="1">0</pdfrwt>
<pdfrwt beam="2">0</pdfrwt>
<totfact> 0.41750513E+11</totfact>
</mgrwt>
</event>
<event>
 4    1  0.1838758E+006  0.2833469E+01  0.7546771E-02  0.2577577E+00
         22   -1    0    0    0    0  0.00000000000E+00  0.00000000000E+00  0.24479989501E+02  0.24479989501E+02  0.00000000000E+00 0.  1.
         22   -1    0    0    0    0 -0.00000000000E+00 -0.00000000000E+00 -0.10213146014E+01  0.10213146014E+01  0.00000000000E+00 0.  1.
          4    1    1    2  501    0 -0.25109728291E+01  0.33265986160E+00  0.22235138606E+02  0.22414948939E+02  0.12700000000E+01 0.  1.
         -4    1    1    2    0  501  0.25109728291E+01 -0.33265986160E+00  0.12235362940E+01  0.30863551634E+01  0.12700000000E+01 0.  1.
<mgrwt>
<rscale>  0 0.28334691E+01</rscale>
<asrwt>0</asrwt>
<pdfrwt beam="1">0</pdfrwt>
<pdfrwt beam="2">0</pdfrwt>
<totfact> 0.51331372E+11</totfact>
</mgrwt>
</event>
<event>
 4    1  0.1838758E+006  0.3768322E+01  0.7546771E-02  0.2323896E+00
         22   -1    0    0    0    0  0.00000000000E+00  0.00000000000E+00  0.55053209215E+01  0.55053209215E+01  0.00000000000E+00 0. -1.
         22   -1    0    0    0    0 -0.00000000000E+00 -0.00000000000E+00 -0.29377469864E+01  0.29377469864E+01  0.00000000000E+00 0.  1.
          4    1    1    2  501    0 -0.10644922429E+01 -0.33844062790E+01  0.27582512354E+01  0.46699249966E+01  0.12700000000E+01 0. -1.
         -4    1    1    2    0  501  0.10644922429E+01  0.33844062790E+01 -0.19067730031E+00  0.37731429113E+01  0.12700000000E+01 0.  1.
<mgrwt>
<rscale>  0 0.37683219E+01</rscale>
<asrwt>0</asrwt>
<pdfrwt beam="1">0</pdfrwt>
<pdfrwt beam="2">0</pdfrwt>
<totfact> 0.93566363E+11</totfact>
</mgrwt>
</event>
<event>
 4    1  0.1838758E+006  0.2749793E+01  0.7546771E-02  0.2607696E+00
         22   -1    0    0    0    0  0.00000000000E+00  0.00000000000E+00  0.58833508590E+00  0.58833508590E+00  0.00000000000E+00 0.  1.
         22   -1    0    0    0    0 -0.00000000000E+00 -0.00000000000E+00 -0.12853941603E+02  0.12853941603E+02  0.00000000000E+00 0.  1.
          4    1    1    2  501    0  0.24388582283E+01  0.20755925954E-01 -0.60530589738E+01  0.66483744785E+01  0.12700000000E+01 0.  1.
         -4    1    1    2    0  501 -0.24388582283E+01 -0.20755925954E-01 -0.62125475432E+01  0.67939022103E+01  0.12700000000E+01 0.  1.
<mgrwt>
<rscale>  0 0.27497928E+01</rscale>
<asrwt>0</asrwt>
<pdfrwt beam="1">0</pdfrwt>
<pdfrwt beam="2">0</pdfrwt>
<totfact> 0.21368258E+12</totfact>
</mgrwt>
</event>
<event>
 4    1  0.1838758E+006  0.3572390E+01  0.7546771E-02  0.2367335E+00
         22   -1    0    0    0    0  0.00000000000E+00  0.00000000000E+00  0.84860219481E+00  0.84860219481E+00  0.00000000000E+00 0. -1.
         22   -1    0    0    0    0 -0.00000000000E+00 -0.00000000000E+00 -0.61928953532E+02  0.61928953532E+02  0.00000000000E+00 0. -1.
          4    1    1    2  501    0 -0.68884181040E+00 -0.32671952932E+01 -0.32272444059E+01  0.48142574276E+01  0.12700000000E+01 0. -1.
         -4    1    1    2    0  501  0.68884181040E+00  0.32671952932E+01 -0.57853106931E+02  0.57963298299E+02  0.12700000000E+01 0. -1.
<mgrwt>
<rscale>  0 0.35723897E+01</rscale>
<asrwt>0</asrwt>
<pdfrwt beam="1">0</pdfrwt>
<pdfrwt beam="2">0</pdfrwt>
<totfact> 0.19021053E+11</totfact>
</mgrwt>
</event>
<event>
 4    1  0.1838758E+006  0.2286669E+01  0.7546771E-02  0.2810771E+00
         22   -1    0    0    0    0  0.00000000000E+00  0.00000000000E+00  0.13862708650E+03  0.13862708650E+03  0.00000000000E+00 0. -1.
         22   -1    0    0    0    0 -0.00000000000E+00 -0.00000000000E+00 -0.24829622283E+00  0.24829622283E+00  0.00000000000E+00 0.  1.
          4    1    1    2  501    0  0.16103254873E+01  0.10113395914E+01  0.13313578865E+03  0.13315542451E+03  0.12700000000E+01 0. -1.
         -4    1    1    2    0  501 -0.16103254873E+01 -0.10113395914E+01  0.52430016329E+01  0.57199582225E+01  0.12700000000E+01 0.  1.
<mgrwt>
<rscale>  0 0.22866692E+01</rscale>
<asrwt>0</asrwt>
<pdfrwt beam="1">0</pdfrwt>
<pdfrwt beam="2">0</pdfrwt>
<totfact> 0.24647118E+11</totfact>
</mgrwt>
</event>
<event>
 4    1  0.1838758E+006  0.2165364E+01  0.7546771E-02  0.2877390E+00
         22   -1    0    0    0    0  0.00000000000E+00  0.00000000000E+00  0.34846608317E+00  0.34846608317E+00  0.00000000000E+00 0.  1.
         22   -1    0    0    0    0 -0.00000000000E+00 -0.00000000000E+00 -0.30058116875E+02  0.30058116875E+02  0.00000000000E+00 0. -1.
          4    1    1    2  501    0  0.14384033971E+01 -0.10034431104E+01 -0.35557118860E+01  0.41631585875E+01  0.12700000000E+01 0.  1.
         -4    1    1    2    0  501 -0.14384033971E+01  0.10034431104E+01 -0.26153938905E+02  0.26243424370E+02  0.12700000000E+01 0. -1.
<mgrwt>
<rscale>  0 0.21653643E+01</rscale>
<asrwt>0</asrwt>
<pdfrwt beam="1">0</pdfrwt>
<pdfrwt beam="2">0</pdfrwt>
<totfact> 0.13373798E+12</totfact>
</mgrwt>
</event>
<event>
 4    1  0.1838758E+006  0.2194645E+01  0.7546771E-02  0.2860665E+00
         22   -1    0    0    0    0  0.00000000000E+00  0.00000000000E+00  0.97129081156E+01  0.97129081156E+01  0.00000000000E+00 0.  1.
         22   -1    0    0    0    0 -0.00000000000E+00 -0.00000000000E+00 -0.57969958823E+00  0.57969958823E+00  0.00000000000E+00 0.  1.
          4    1    1    2  501    0  0.11563764320E+01  0.13661481643E+01  0.65234589930E+01  0.68827308891E+01  0.12700000000E+01 0.  1.
         -4    1    1    2    0  501 -0.11563764320E+01 -0.13661481643E+01  0.26097495344E+01  0.34098768147E+01  0.12700000000E+01 0.  1.
<mgrwt>
<rscale>  0 0.21946451E+01</rscale>
<asrwt>0</asrwt>
<pdfrwt beam="1">0</pdfrwt>
<pdfrwt beam="2">0</pdfrwt>
<totfact> 0.30548312E+12</totfact>
</mgrwt>
</event>
<event>
 4    1  0.1838758E+006  0.3629718E+01  0.7546771E-02  0.2354205E+00
         22   -1    0    0    0    0  0.00000000000E+00  0.00000000000E+00  0.81122859211E+00  0.81122859211E+00  0.00000000000E+00 0. -1.
         22   -1    0    0    0    0 -0.00000000000E+00 -0.00000000000E+00 -0.16289345036E+02  0.16289345036E+02  0.00000000000E+00 0.  1.
          4    1    1    2  501    0 -0.15873634392E+01  0.30070299541E+01 -0.72714049374E+01  0.81270032359E+01  0.12700000000E+01 0. -1.
         -4    1    1    2    0  501  0.15873634392E+01 -0.30070299541E+01 -0.82067115064E+01  0.89735703921E+01  0.12700000000E+01 0.  1.
<mgrwt>
<rscale>  0 0.36297179E+01</rscale>
<asrwt>0</asrwt>
<pdfrwt beam="1">0</pdfrwt>
<pdfrwt beam="2">0</pdfrwt>
<totfact> 0.11092668E+12</totfact>
</mgrwt>
</event>
<event>
 4    1  0.1838758E+006  0.3666596E+01  0.7546771E-02  0.2345947E+00
         22   -1    0    0    0    0  0.00000000000E+00  0.00000000000E+00  0.88516938423E+01  0.88516938423E+01  0.00000000000E+00 0.  1.
         22   -1    0    0    0    0 -0.00000000000E+00 -0.00000000000E+00 -0.10438260582E+02  0.10438260582E+02  0.00000000000E+00 0. -1.
          4    1    1    2  501    0 -0.34371102046E+01  0.13153628934E+00  0.81224382671E+01  0.89116739032E+01  0.12700000000E+01 0.  1.
         -4    1    1    2    0  501  0.34371102046E+01 -0.13153628934E+00 -0.97090050070E+01  0.10378280521E+02  0.12700000000E+01 0. -1.
<mgrwt>
<rscale>  0 0.36665963E+01</rscale>
<asrwt>0</asrwt>
<pdfrwt beam="1">0</pdfrwt>
<pdfrwt beam="2">0</pdfrwt>
<totfact> 0.11750568E+11</totfact>
</mgrwt>
</event>
<event>
 4    1  0.1838758E+006  0.2286525E+01  0.7546771E-02  0.2810846E+00
         22   -1    0    0    0    0  0.00000000000E+00  0.00000000000E+00  0.75793301308E+00  0.75793301308E+00  0.00000000000E+00 0. -1.
         22   -1    0    0    0    0 -0.00000000000E+00 -0.00000000000E+00 -0.69152368094E+01  0.69152368094E+01  0.00000000000E+00 0.  1.
          4    1    1    2  501    0  0.12776000853E+01  0.14082024204E+01 -0.32703861140E+01  0.39904412499E+01  0.12700000000E+01 0. -1.
         -4    1    1    2    0  501 -0.12776000853E+01 -0.14082024204E+01 -0.28869176823E+01  0.36827285726E+01  0.12700000000E+01 0. -1.
<mgrwt>
<rscale>  0 0.22865249E+01</rscale>
<asrwt>0</asrwt>
<pdfrwt beam="1">0</pdfrwt>
<pdfrwt beam="2">0</pdfrwt>
<totfact> 0.33912998E+12</totfact>
</mgrwt>
</event>
<event>
 4    1  0.1838758E+006  0.2696205E+01  0.7546771E-02  0.2627879E+00
         22   -1    0    0    0    0  0.00000000000E+00  0.00000000000E+00  0.65502712461E+01  0.65502712461E+01  0.00000000000E+00 0. -1.
         22   -1    0    0    0    0 -0.00000000000E+00 -0.00000000000E+00 -0.11101346002E+01  0.11101346002E+01  0.00000000000E+00 0.  1.
          4    1    1    2  501    0 -0.36486224539E+00 -0.23502118524E+01  0.26540162328E+01  0.37832951740E+01  0.12700000000E+01 0.  1.
         -4    1    1    2    0  501  0.36486224539E+00  0.23502118524E+01  0.27861204131E+01  0.38771106723E+01  0.12700000000E+01 0. -1.
<mgrwt>
<rscale>  0 0.26962048E+01</rscale>
<asrwt>0</asrwt>
<pdfrwt beam="1">0</pdfrwt>
<pdfrwt beam="2">0</pdfrwt>
<totfact> 0.23416308E+12</totfact>
</mgrwt>
</event>
<event>
 4    1  0.1838758E+006  0.2282005E+01  0.7546771E-02  0.2813207E+00
         22   -1    0    0    0    0  0.00000000000E+00  0.00000000000E+00  0.14308843944E+00  0.14308843944E+00  0.00000000000E+00 0.  1.
         22   -1    0    0    0    0 -0.00000000000E+00 -0.00000000000E+00 -0.63701267944E+02  0.63701267944E+02  0.00000000000E+00 0. -1.
          4    1    1    2  501    0  0.13301831040E+01 -0.13510224749E+01 -0.10878513351E+02  0.11115286840E+02  0.12700000000E+01 0.  1.
         -4    1    1    2    0  501 -0.13301831040E+01  0.13510224749E+01 -0.52679666154E+02  0.52729069544E+02  0.12700000000E+01 0. -1.
<mgrwt>
<rscale>  0 0.22820054E+01</rscale>
<asrwt>0</asrwt>
<pdfrwt beam="1">0</pdfrwt>
<pdfrwt beam="2">0</pdfrwt>
<totfact> 0.13542090E+12</totfact>
</mgrwt>
</event>
<event>
 4    1  0.1838758E+006  0.2018950E+01  0.7546771E-02  0.2968050E+00
         22   -1    0    0    0    0  0.00000000000E+00  0.00000000000E+00  0.37853557632E+01  0.37853557632E+01  0.00000000000E+00 0.  1.
         22   -1    0    0    0    0 -0.00000000000E+00 -0.00000000000E+00 -0.58156835470E+01  0.58156835470E+01  0.00000000000E+00 0.  1.
          4    1    1    2  501    0  0.42812340312E+00  0.15099566439E+01  0.33181966674E+01  0.38841457026E+01  0.12700000000E+01 0.  1.
         -4    1    1    2    0  501 -0.42812340312E+00 -0.15099566439E+01 -0.53485244513E+01  0.57168936076E+01  0.12700000000E+01 0.  1.
<mgrwt>
<rscale>  0 0.20189499E+01</rscale>
<asrwt>0</asrwt>
<pdfrwt beam="1">0</pdfrwt>
<pdfrwt beam="2">0</pdfrwt>
<totfact> 0.65135050E+11</totfact>
</mgrwt>
</event>
<event>
 4    1  0.1838758E+006  0.2164060E+01  0.7546771E-02  0.2878146E+00
         22   -1    0    0    0    0  0.00000000000E+00  0.00000000000E+00  0.38994642573E+00  0.38994642573E+00  0.00000000000E+00 0. -1.
         22   -1    0    0    0    0 -0.00000000000E+00 -0.00000000000E+00 -0.12026209542E+02  0.12026209542E+02  0.00000000000E+00 0. -1.
          4    1    1    2  501    0 -0.54053440506E+00  0.16667563902E+01 -0.55883774524E+01  0.59927553644E+01  0.12700000000E+01 0. -1.
         -4    1    1    2    0  501  0.54053440506E+00 -0.16667563902E+01 -0.60478856639E+01  0.64234006033E+01  0.12700000000E+01 0. -1.
<mgrwt>
<rscale>  0 0.21640597E+01</rscale>
<asrwt>0</asrwt>
<pdfrwt beam="1">0</pdfrwt>
<pdfrwt beam="2">0</pdfrwt>
<totfact> 0.36865674E+12</totfact>
</mgrwt>
</event>
<event>
 4    1  0.1838758E+006  0.3902379E+01  0.7546771E-02  0.2296352E+00
         22   -1    0    0    0    0  0.00000000000E+00  0.00000000000E+00  0.55668136178E+01  0.55668136178E+01  0.00000000000E+00 0.  1.
         22   -1    0    0    0    0 -0.00000000000E+00 -0.00000000000E+00 -0.28011750452E+01  0.28011750452E+01  0.00000000000E+00 0. -1.
          4    1    1    2  501    0  0.32896996660E+01  0.16713883896E+01  0.20229926117E+01  0.43955730171E+01  0.12700000000E+01 0.  1.
         -4    1    1    2    0  501 -0.32896996660E+01 -0.16713883896E+01  0.74264596092E+00  0.39724156460E+01  0.12700000000E+01 0. -1.
<mgrwt>
<rscale>  0 0.39023792E+01</rscale>
<asrwt>0</asrwt>
<pdfrwt beam="1">0</pdfrwt>
<pdfrwt beam="2">0</pdfrwt>
<totfact> 0.97615017E+11</totfact>
</mgrwt>
</event>
<event>
 4    1  0.1838758E+006  0.2819489E+01  0.7546771E-02  0.2582496E+00
         22   -1    0    0    0    0  0.00000000000E+00  0.00000000000E+00  0.13263496392E+01  0.13263496392E+01  0.00000000000E+00 0.  1.
         22   -1    0    0    0    0 -0.00000000000E+00 -0.00000000000E+00 -0.94889071623E+01  0.94889071623E+01  0.00000000000E+00 0. -1.
          4    1    1    2  501    0 -0.18391514433E+01  0.17187608884E+01 -0.79922468599E+00  0.29305762440E+01  0.12700000000E+01 0.  1.
         -4    1    1    2    0  501  0.18391514433E+01 -0.17187608884E+01 -0.73633328371E+01  0.78846805574E+01  0.12700000000E+01 0. -1.
<mgrwt>
<rscale>  0 0.28194888E+01</rscale>
<asrwt>0</asrwt>
<pdfrwt beam="1">0</pdfrwt>
<pdfrwt beam="2">0</pdfrwt>
<totfact> 0.12236591E+12</totfact>
</mgrwt>
</event>
<event>
 4    1  0.1838758E+006  0.3171925E+01  0.7546771E-02  0.2470492E+00
         22   -1    0    0    0    0  0.00000000000E+00  0.00000000000E+00  0.96275145760E+00  0.96275145760E+00  0.00000000000E+00 0. -1.
         22   -1    0    0    0    0 -0.00000000000E+00 -0.00000000000E+00 -0.10874383533E+03  0.10874383533E+03  0.00000000000E+00 0. -1.
          4    1    1    2  501    0  0.27203895554E+01 -0.10235663314E+01 -0.17395334147E+01  0.36176074786E+01  0.12700000000E+01 0. -1.
         -4    1    1    2    0  501 -0.27203895554E+01  0.10235663314E+01 -0.10604155046E+03  0.10608897931E+03  0.12700000000E+01 0. -1.
<mgrwt>
<rscale>  0 0.31719249E+01</rscale>
<asrwt>0</asrwt>
<pdfrwt beam="1">0</pdfrwt>
<pdfrwt beam="2">0</pdfrwt>
<totfact> 0.75771791E+10</totfact>
</mgrwt>
</event>
<event>
 4    1  0.1838758E+006  0.2596703E+01  0.7546771E-02  0.2667373E+00
         22   -1    0    0    0    0  0.00000000000E+00  0.00000000000E+00  0.12925392756E+02  0.12925392756E+02  0.00000000000E+00 0. -1.
         22   -1    0    0    0    0 -0.00000000000E+00 -0.00000000000E+00 -0.59447494135E+00  0.59447494135E+00  0.00000000000E+00 0.  1.
          4    1    1    2  501    0 -0.22640953353E+01 -0.61977393410E-01  0.85310398396E+01  0.89174833687E+01  0.12700000000E+01 0. -1.
         -4    1    1    2    0  501  0.22640953353E+01  0.61977393410E-01  0.37998779753E+01  0.46023843290E+01  0.12700000000E+01 0.  1.
<mgrwt>
<rscale>  0 0.25967035E+01</rscale>
<asrwt>0</asrwt>
<pdfrwt beam="1">0</pdfrwt>
<pdfrwt beam="2">0</pdfrwt>
<totfact> 0.20975751E+12</totfact>
</mgrwt>
</event>
<event>
 4    1  0.1838758E+006  0.4021868E+01  0.7546771E-02  0.2273134E+00
         22   -1    0    0    0    0  0.00000000000E+00  0.00000000000E+00  0.79045107357E+00  0.79045107357E+00  0.00000000000E+00 0.  1.
         22   -1    0    0    0    0 -0.00000000000E+00 -0.00000000000E+00 -0.24636751752E+02  0.24636751752E+02  0.00000000000E+00 0. -1.
          4    1    1    2  501    0 -0.38160854532E+01  0.32996457075E-02 -0.66906096862E+01  0.78063869394E+01  0.12700000000E+01 0.  1.
         -4    1    1    2    0  501  0.38160854532E+01 -0.32996457075E-02 -0.17155690992E+02  0.17620815886E+02  0.12700000000E+01 0. -1.
<mgrwt>
<rscale>  0 0.40218676E+01</rscale>
<asrwt>0</asrwt>
<pdfrwt beam="1">0</pdfrwt>
<pdfrwt beam="2">0</pdfrwt>
<totfact> 0.68193435E+11</totfact>
</mgrwt>
</event>
<event>
 4    1  0.1838758E+006  0.2011865E+01  0.7546771E-02  0.2972763E+00
         22   -1    0    0    0    0  0.00000000000E+00  0.00000000000E+00  0.12663852164E+02  0.12663852164E+02  0.00000000000E+00 0. -1.
         22   -1    0    0    0    0 -0.00000000000E+00 -0.00000000000E+00 -0.36470380673E+00  0.36470380673E+00  0.00000000000E+00 0. -1.
          4    1    1    2  501    0 -0.30757630537E+00 -0.15297380730E+01  0.84399857578E+01  0.86764601853E+01  0.12700000000E+01 0. -1.
         -4    1    1    2    0  501  0.30757630537E+00  0.15297380730E+01  0.38591625990E+01  0.43520957850E+01  0.12700000000E+01 0. -1.
<mgrwt>
<rscale>  0 0.20118652E+01</rscale>
<asrwt>0</asrwt>
<pdfrwt beam="1">0</pdfrwt>
<pdfrwt beam="2">0</pdfrwt>
<totfact> 0.37316582E+12</totfact>
</mgrwt>
</event>
<event>
 4    1  0.1838758E+006  0.2034495E+01  0.7546771E-02  0.2957823E+00
         22   -1    0    0    0    0  0.00000000000E+00  0.00000000000E+00  0.72023299232E+01  0.72023299232E+01  0.00000000000E+00 0. -1.
         22   -1    0    0    0    0 -0.00000000000E+00 -0.00000000000E+00 -0.28014982087E+01  0.28014982087E+01  0.00000000000E+00 0.  1.
          4    1    1    2  501    0 -0.11412021486E+01  0.11063124296E+01  0.66598690668E+01  0.69636933823E+01  0.12700000000E+01 0. -1.
         -4    1    1    2    0  501  0.11412021486E+01 -0.11063124296E+01 -0.22590373523E+01  0.30401347495E+01  0.12700000000E+01 0.  1.
<mgrwt>
<rscale>  0 0.20344949E+01</rscale>
<asrwt>0</asrwt>
<pdfrwt beam="1">0</pdfrwt>
<pdfrwt beam="2">0</pdfrwt>
<totfact> 0.71782157E+11</totfact>
</mgrwt>
</event>
<event>
 4    1  0.1838758E+006  0.2183921E+01  0.7546771E-02  0.2866741E+00
         22   -1    0    0    0    0  0.00000000000E+00  0.00000000000E+00  0.10214063921E+02  0.10214063921E+02  0.00000000000E+00 0. -1.
         22   -1    0    0    0    0 -0.00000000000E+00 -0.00000000000E+00 -0.49210046388E+00  0.49210046388E+00  0.00000000000E+00 0.  1.
          4    1    1    2  501    0 -0.21594041220E+00 -0.17635136664E+01  0.60710356997E+01  0.64518977968E+01  0.12700000000E+01 0.  1.
         -4    1    1    2    0  501  0.21594041220E+00  0.17635136664E+01  0.36509277577E+01  0.42542665884E+01  0.12700000000E+01 0. -1.
<mgrwt>
<rscale>  0 0.21839209E+01</rscale>
<asrwt>0</asrwt>
<pdfrwt beam="1">0</pdfrwt>
<pdfrwt beam="2">0</pdfrwt>
<totfact> 0.34590501E+12</totfact>
</mgrwt>
</event>
<event>
 4    1  0.1838758E+006  0.2506222E+01  0.7546771E-02  0.2705793E+00
         22   -1    0    0    0    0  0.00000000000E+00  0.00000000000E+00  0.19224535826E+01  0.19224535826E+01  0.00000000000E+00 0. -1.
         22   -1    0    0    0    0 -0.00000000000E+00 -0.00000000000E+00 -0.38158604078E+01  0.38158604078E+01  0.00000000000E+00 0. -1.
          4    1    1    2  501    0 -0.15462930149E+00  0.21550725436E+01  0.14119349669E+00  0.25101959072E+01  0.12700000000E+01 0. -1.
         -4    1    1    2    0  501  0.15462930149E+00 -0.21550725436E+01 -0.20346003219E+01  0.32281180832E+01  0.12700000000E+01 0. -1.
<mgrwt>
<rscale>  0 0.25062218E+01</rscale>
<asrwt>0</asrwt>
<pdfrwt beam="1">0</pdfrwt>
<pdfrwt beam="2">0</pdfrwt>
<totfact> 0.23610977E+12</totfact>
</mgrwt>
</event>
<event>
 4    1  0.1838758E+006  0.4348801E+01  0.7546771E-02  0.2215198E+00
         22   -1    0    0    0    0  0.00000000000E+00  0.00000000000E+00  0.69343204844E+01  0.69343204844E+01  0.00000000000E+00 0. -1.
         22   -1    0    0    0    0 -0.00000000000E+00 -0.00000000000E+00 -0.99038845202E+01  0.99038845202E+01  0.00000000000E+00 0.  1.
          4    1    1    2  501    0  0.40625208856E+01 -0.89167864434E+00  0.56819555683E+01  0.71551859397E+01  0.12700000000E+01 0. -1.
         -4    1    1    2    0  501 -0.40625208856E+01  0.89167864434E+00 -0.86515196041E+01  0.96830190649E+01  0.12700000000E+01 0.  1.
<mgrwt>
<rscale>  0 0.43488006E+01</rscale>
<asrwt>0</asrwt>
<pdfrwt beam="1">0</pdfrwt>
<pdfrwt beam="2">0</pdfrwt>
<totfact> 0.16788205E+11</totfact>
</mgrwt>
</event>
<event>
 4    1  0.1838758E+006  0.4604050E+01  0.7546771E-02  0.2174833E+00
         22   -1    0    0    0    0  0.00000000000E+00  0.00000000000E+00  0.11093968144E+01  0.11093968144E+01  0.00000000000E+00 0. -1.
         22   -1    0    0    0    0 -0.00000000000E+00 -0.00000000000E+00 -0.21959644799E+02  0.21959644799E+02  0.00000000000E+00 0.  1.
          4    1    1    2  501    0 -0.32434237130E+01  0.30107431772E+01 -0.62678475664E+01  0.77770936073E+01  0.12700000000E+01 0. -1.
         -4    1    1    2    0  501  0.32434237130E+01 -0.30107431772E+01 -0.14582400418E+02  0.15291948006E+02  0.12700000000E+01 0.  1.
<mgrwt>
<rscale>  0 0.46040495E+01</rscale>
<asrwt>0</asrwt>
<pdfrwt beam="1">0</pdfrwt>
<pdfrwt beam="2">0</pdfrwt>
<totfact> 0.53529977E+11</totfact>
</mgrwt>
</event>
<event>
 4    1  0.1838758E+006  0.2135289E+01  0.7546771E-02  0.2895030E+00
         22   -1    0    0    0    0  0.00000000000E+00  0.00000000000E+00  0.38338225613E+02  0.38338225613E+02  0.00000000000E+00 0. -1.
         22   -1    0    0    0    0 -0.00000000000E+00 -0.00000000000E+00 -0.13171565419E+00  0.13171565419E+00  0.00000000000E+00 0.  1.
          4    1    1    2  501    0  0.35397504330E+00  0.16796604394E+01  0.25096775422E+02  0.25187449139E+02  0.12700000000E+01 0. -1.
         -4    1    1    2    0  501 -0.35397504330E+00 -0.16796604394E+01  0.13109734537E+02  0.13282492129E+02  0.12700000000E+01 0.  1.
<mgrwt>
<rscale>  0 0.21352886E+01</rscale>
<asrwt>0</asrwt>
<pdfrwt beam="1">0</pdfrwt>
<pdfrwt beam="2">0</pdfrwt>
<totfact> 0.28996797E+12</totfact>
</mgrwt>
</event>
<event>
 4    1  0.1838758E+006  0.2020874E+01  0.7546771E-02  0.2966776E+00
         22   -1    0    0    0    0  0.00000000000E+00  0.00000000000E+00  0.77360253519E-01  0.77360253519E-01  0.00000000000E+00 0. -1.
         22   -1    0    0    0    0 -0.00000000000E+00 -0.00000000000E+00 -0.53254951949E+02  0.53254951949E+02  0.00000000000E+00 0. -1.
          4    1    1    2  501    0 -0.24031630084E+00  0.15534734894E+01 -0.24100072604E+02  0.24184652805E+02  0.12700000000E+01 0. -1.
         -4    1    1    2    0  501  0.24031630084E+00 -0.15534734894E+01 -0.29077519092E+02  0.29147659397E+02  0.12700000000E+01 0. -1.
<mgrwt>
<rscale>  0 0.20208740E+01</rscale>
<asrwt>0</asrwt>
<pdfrwt beam="1">0</pdfrwt>
<pdfrwt beam="2">0</pdfrwt>
<totfact> 0.33989052E+12</totfact>
</mgrwt>
</event>
<event>
 4    1  0.1838758E+006  0.2540678E+01  0.7546771E-02  0.2690864E+00
         22   -1    0    0    0    0  0.00000000000E+00  0.00000000000E+00  0.30082627616E+00  0.30082627616E+00  0.00000000000E+00 0.  1.
         22   -1    0    0    0    0 -0.00000000000E+00 -0.00000000000E+00 -0.21763633745E+02  0.21763633745E+02  0.00000000000E+00 0. -1.
          4    1    1    2  501    0 -0.69788328468E+00  0.20868889058E+01 -0.12039368959E+02  0.12304529707E+02  0.12700000000E+01 0. -1.
         -4    1    1    2    0  501  0.69788328468E+00 -0.20868889058E+01 -0.94234385093E+01  0.97599303134E+01  0.12700000000E+01 0.  1.
<mgrwt>
<rscale>  0 0.25406783E+01</rscale>
<asrwt>0</asrwt>
<pdfrwt beam="1">0</pdfrwt>
<pdfrwt beam="2">0</pdfrwt>
<totfact> 0.23717040E+12</totfact>
</mgrwt>
</event>
<event>
 4    1  0.1838758E+006  0.2826929E+01  0.7546771E-02  0.2579873E+00
         22   -1    0    0    0    0  0.00000000000E+00  0.00000000000E+00  0.25821874232E+01  0.25821874232E+01  0.00000000000E+00 0. -1.
         22   -1    0    0    0    0 -0.00000000000E+00 -0.00000000000E+00 -0.31593074449E+01  0.31593074449E+01  0.00000000000E+00 0.  1.
          4    1    1    2  501    0  0.15635401064E+01  0.19834234949E+01  0.12143501847E+00  0.28295358079E+01  0.12700000000E+01 0. -1.
         -4    1    1    2    0  501 -0.15635401064E+01 -0.19834234949E+01 -0.69855504026E+00  0.29119590602E+01  0.12700000000E+01 0.  1.
<mgrwt>
<rscale>  0 0.28269288E+01</rscale>
<asrwt>0</asrwt>
<pdfrwt beam="1">0</pdfrwt>
<pdfrwt beam="2">0</pdfrwt>
<totfact> 0.20921975E+12</totfact>
</mgrwt>
</event>
<event>
 4    1  0.1838758E+006  0.5643755E+01  0.7546771E-02  0.2053191E+00
         22   -1    0    0    0    0  0.00000000000E+00  0.00000000000E+00  0.10343762420E+01  0.10343762420E+01  0.00000000000E+00 0. -1.
         22   -1    0    0    0    0 -0.00000000000E+00 -0.00000000000E+00 -0.31819898250E+02  0.31819898250E+02  0.00000000000E+00 0.  1.
          4    1    1    2  501    0  0.40402591698E+01 -0.37303316490E+01 -0.12442298042E+02  0.13662457647E+02  0.12700000000E+01 0.  1.
         -4    1    1    2    0  501 -0.40402591698E+01  0.37303316490E+01 -0.18343223966E+02  0.19191816846E+02  0.12700000000E+01 0. -1.
<mgrwt>
<rscale>  0 0.56437548E+01</rscale>
<asrwt>0</asrwt>
<pdfrwt beam="1">0</pdfrwt>
<pdfrwt beam="2">0</pdfrwt>
<totfact> 0.36269211E+11</totfact>
</mgrwt>
</event>
<event>
 4    1  0.1838758E+006  0.2371597E+01  0.7546771E-02  0.2767996E+00
         22   -1    0    0    0    0  0.00000000000E+00  0.00000000000E+00  0.64786517384E+01  0.64786517384E+01  0.00000000000E+00 0.  1.
         22   -1    0    0    0    0 -0.00000000000E+00 -0.00000000000E+00 -0.10803754608E+01  0.10803754608E+01  0.00000000000E+00 0.  1.
          4    1    1    2  501    0 -0.19758297595E+01 -0.32813175480E+00  0.43742438410E+01  0.49757896728E+01  0.12700000000E+01 0.  1.
         -4    1    1    2    0  501  0.19758297595E+01  0.32813175480E+00  0.10240324365E+01  0.25832375264E+01  0.12700000000E+01 0.  1.
<mgrwt>
<rscale>  0 0.23715973E+01</rscale>
<asrwt>0</asrwt>
<pdfrwt beam="1">0</pdfrwt>
<pdfrwt beam="2">0</pdfrwt>
<totfact> 0.24473955E+12</totfact>
</mgrwt>
</event>
<event>
 4    1  0.1838758E+006  0.2006758E+01  0.7546771E-02  0.2976181E+00
         22   -1    0    0    0    0  0.00000000000E+00  0.00000000000E+00  0.34899764491E+01  0.34899764491E+01  0.00000000000E+00 0. -1.
         22   -1    0    0    0    0 -0.00000000000E+00 -0.00000000000E+00 -0.60093742723E+01  0.60093742723E+01  0.00000000000E+00 0. -1.
          4    1    1    2  501    0  0.30223668237E-01  0.15534683078E+01  0.30096850362E+01  0.36173583276E+01  0.12700000000E+01 0. -1.
         -4    1    1    2    0  501 -0.30223668237E-01 -0.15534683078E+01 -0.55290828594E+01  0.58819923937E+01  0.12700000000E+01 0. -1.
<mgrwt>
<rscale>  0 0.20067579E+01</rscale>
<asrwt>0</asrwt>
<pdfrwt beam="1">0</pdfrwt>
<pdfrwt beam="2">0</pdfrwt>
<totfact> 0.68912758E+11</totfact>
</mgrwt>
</event>
<event>
 4    1  0.1838758E+006  0.2862028E+01  0.7546771E-02  0.2567664E+00
         22   -1    0    0    0    0  0.00000000000E+00  0.00000000000E+00  0.95229448929E+01  0.95229448929E+01  0.00000000000E+00 0.  1.
         22   -1    0    0    0    0 -0.00000000000E+00 -0.00000000000E+00 -0.88751726703E+00  0.88751726703E+00  0.00000000000E+00 0.  1.
          4    1    1    2  501    0 -0.27059312144E+00  0.25505061153E+01  0.52316863216E+01  0.59633668216E+01  0.12700000000E+01 0.  1.
         -4    1    1    2    0  501  0.27059312144E+00 -0.25505061153E+01  0.34037413042E+01  0.44470953383E+01  0.12700000000E+01 0.  1.
<mgrwt>
<rscale>  0 0.28620276E+01</rscale>
<asrwt>0</asrwt>
<pdfrwt beam="1">0</pdfrwt>
<pdfrwt beam="2">0</pdfrwt>
<totfact> 0.19289843E+12</totfact>
</mgrwt>
</event>
<event>
 4    1  0.1838758E+006  0.3703967E+01  0.7546771E-02  0.2337725E+00
         22   -1    0    0    0    0  0.00000000000E+00  0.00000000000E+00  0.44856141393E+01  0.44856141393E+01  0.00000000000E+00 0.  1.
         22   -1    0    0    0    0 -0.00000000000E+00 -0.00000000000E+00 -0.52420732692E+01  0.52420732692E+01  0.00000000000E+00 0.  1.
          4    1    1    2  501    0  0.43708436043E+00 -0.34518729200E+01  0.27609005961E+01  0.46197339204E+01  0.12700000000E+01 0.  1.
         -4    1    1    2    0  501 -0.43708436043E+00  0.34518729200E+01 -0.35173597261E+01  0.51079534881E+01  0.12700000000E+01 0.  1.
<mgrwt>
<rscale>  0 0.37039667E+01</rscale>
<asrwt>0</asrwt>
<pdfrwt beam="1">0</pdfrwt>
<pdfrwt beam="2">0</pdfrwt>
<totfact> 0.60340165E+11</totfact>
</mgrwt>
</event>
<event>
 4    1  0.1838758E+006  0.3596752E+01  0.7546771E-02  0.2361711E+00
         22   -1    0    0    0    0  0.00000000000E+00  0.00000000000E+00  0.28231305610E+01  0.28231305610E+01  0.00000000000E+00 0.  1.
         22   -1    0    0    0    0 -0.00000000000E+00 -0.00000000000E+00 -0.50355835651E+01  0.50355835651E+01  0.00000000000E+00 0. -1.
          4    1    1    2  501    0 -0.98266357017E+00 -0.32183997716E+01 -0.22850498300E+01  0.42612295770E+01  0.12700000000E+01 0. -1.
         -4    1    1    2    0  501  0.98266357017E+00  0.32183997716E+01  0.72596825900E-01  0.35974845491E+01  0.12700000000E+01 0.  1.
<mgrwt>
<rscale>  0 0.35967520E+01</rscale>
<asrwt>0</asrwt>
<pdfrwt beam="1">0</pdfrwt>
<pdfrwt beam="2">0</pdfrwt>
<totfact> 0.10894772E+12</totfact>
</mgrwt>
</event>
<event>
 4    1  0.1838758E+006  0.2118404E+01  0.7546771E-02  0.2905144E+00
         22   -1    0    0    0    0  0.00000000000E+00  0.00000000000E+00  0.15373165548E+02  0.15373165548E+02  0.00000000000E+00 0.  1.
         22   -1    0    0    0    0 -0.00000000000E+00 -0.00000000000E+00 -0.42261464337E+00  0.42261464337E+00  0.00000000000E+00 0.  1.
          4    1    1    2  501    0 -0.15151528023E+01 -0.76095146108E+00  0.11867438423E+02  0.12055029236E+02  0.12700000000E+01 0.  1.
         -4    1    1    2    0  501  0.15151528023E+01  0.76095146108E+00  0.30831124811E+01  0.37407509556E+01  0.12700000000E+01 0.  1.
<mgrwt>
<rscale>  0 0.21184039E+01</rscale>
<asrwt>0</asrwt>
<pdfrwt beam="1">0</pdfrwt>
<pdfrwt beam="2">0</pdfrwt>
<totfact> 0.24922510E+12</totfact>
</mgrwt>
</event>
<event>
 4    1  0.1838758E+006  0.2674736E+01  0.7546771E-02  0.2636171E+00
         22   -1    0    0    0    0  0.00000000000E+00  0.00000000000E+00  0.10958694994E+02  0.10958694994E+02  0.00000000000E+00 0. -1.
         22   -1    0    0    0    0 -0.00000000000E+00 -0.00000000000E+00 -0.10436775143E+01  0.10436775143E+01  0.00000000000E+00 0.  1.
          4    1    1    2  501    0  0.13417478053E+01  0.19341733737E+01  0.86299523616E+01  0.90349483438E+01  0.12700000000E+01 0.  1.
         -4    1    1    2    0  501 -0.13417478053E+01 -0.19341733737E+01  0.12850651178E+01  0.29674241640E+01  0.12700000000E+01 0. -1.
<mgrwt>
<rscale>  0 0.26747362E+01</rscale>
<asrwt>0</asrwt>
<pdfrwt beam="1">0</pdfrwt>
<pdfrwt beam="2">0</pdfrwt>
<totfact> 0.13523484E+12</totfact>
</mgrwt>
</event>
<event>
 4    1  0.1838758E+006  0.2411642E+01  0.7546771E-02  0.2748814E+00
         22   -1    0    0    0    0  0.00000000000E+00  0.00000000000E+00  0.17919856464E+01  0.17919856464E+01  0.00000000000E+00 0.  1.
         22   -1    0    0    0    0 -0.00000000000E+00 -0.00000000000E+00 -0.70377207675E+01  0.70377207675E+01  0.00000000000E+00 0. -1.
          4    1    1    2  501    0  0.17107610620E+01 -0.11297854801E+01  0.61786303239E+00  0.24895327612E+01  0.12700000000E+01 0.  1.
         -4    1    1    2    0  501 -0.17107610620E+01  0.11297854801E+01 -0.58635981534E+01  0.63401736528E+01  0.12700000000E+01 0. -1.
<mgrwt>
<rscale>  0 0.24116423E+01</rscale>
<asrwt>0</asrwt>
<pdfrwt beam="1">0</pdfrwt>
<pdfrwt beam="2">0</pdfrwt>
<totfact> 0.12395095E+12</totfact>
</mgrwt>
</event>
<event>
 4    1  0.1838758E+006  0.2136806E+01  0.7546771E-02  0.2894128E+00
         22   -1    0    0    0    0  0.00000000000E+00  0.00000000000E+00  0.84023204969E+00  0.84023204969E+00  0.00000000000E+00 0. -1.
         22   -1    0    0    0    0 -0.00000000000E+00 -0.00000000000E+00 -0.57423683417E+01  0.57423683417E+01  0.00000000000E+00 0. -1.
          4    1    1    2  501    0 -0.12511724358E+01  0.11779671757E+01 -0.16885366199E+01  0.27234344214E+01  0.12700000000E+01 0. -1.
         -4    1    1    2    0  501  0.12511724358E+01 -0.11779671757E+01 -0.32135996721E+01  0.38591659699E+01  0.12700000000E+01 0. -1.
<mgrwt>
<rscale>  0 0.21368058E+01</rscale>
<asrwt>0</asrwt>
<pdfrwt beam="1">0</pdfrwt>
<pdfrwt beam="2">0</pdfrwt>
<totfact> 0.37640652E+12</totfact>
</mgrwt>
</event>
<event>
 4    1  0.1838758E+006  0.2220624E+01  0.7546771E-02  0.2846180E+00
         22   -1    0    0    0    0  0.00000000000E+00  0.00000000000E+00  0.69589260359E+00  0.69589260359E+00  0.00000000000E+00 0. -1.
         22   -1    0    0    0    0 -0.00000000000E+00 -0.00000000000E+00 -0.91752287881E+01  0.91752287881E+01  0.00000000000E+00 0. -1.
          4    1    1    2  501    0 -0.75167420603E+00  0.16592936695E+01 -0.65947710811E+01  0.69586044007E+01  0.12700000000E+01 0. -1.
         -4    1    1    2    0  501  0.75167420603E+00 -0.16592936695E+01 -0.18845651034E+01  0.29125169909E+01  0.12700000000E+01 0. -1.
<mgrwt>
<rscale>  0 0.22206237E+01</rscale>
<asrwt>0</asrwt>
<pdfrwt beam="1">0</pdfrwt>
<pdfrwt beam="2">0</pdfrwt>
<totfact> 0.26604462E+12</totfact>
</mgrwt>
</event>
<event>
 4    1  0.1838758E+006  0.2911312E+01  0.7546771E-02  0.2550971E+00
         22   -1    0    0    0    0  0.00000000000E+00  0.00000000000E+00  0.73264076946E+00  0.73264076946E+00  0.00000000000E+00 0.  1.
         22   -1    0    0    0    0 -0.00000000000E+00 -0.00000000000E+00 -0.28353389095E+02  0.28353389095E+02  0.00000000000E+00 0.  1.
          4    1    1    2  501    0 -0.81019446242E+00 -0.24912689398E+01 -0.26209432667E+01  0.39172796179E+01  0.12700000000E+01 0.  1.
         -4    1    1    2    0  501  0.81019446242E+00  0.24912689398E+01 -0.24999805058E+02  0.25168750246E+02  0.12700000000E+01 0.  1.
<mgrwt>
<rscale>  0 0.29113117E+01</rscale>
<asrwt>0</asrwt>
<pdfrwt beam="1">0</pdfrwt>
<pdfrwt beam="2">0</pdfrwt>
<totfact> 0.62233286E+11</totfact>
</mgrwt>
</event>
<event>
 4    1  0.1838758E+006  0.2664644E+01  0.7546771E-02  0.2640112E+00
         22   -1    0    0    0    0  0.00000000000E+00  0.00000000000E+00  0.31903353692E+01  0.31903353692E+01  0.00000000000E+00 0. -1.
         22   -1    0    0    0    0 -0.00000000000E+00 -0.00000000000E+00 -0.47686013210E+01  0.47686013210E+01  0.00000000000E+00 0. -1.
          4    1    1    2  501    0 -0.20101267555E+01  0.12028364828E+01  0.21169306652E+01  0.34031927096E+01  0.12700000000E+01 0. -1.
         -4    1    1    2    0  501  0.20101267555E+01 -0.12028364828E+01 -0.36951966170E+01  0.45557439805E+01  0.12700000000E+01 0. -1.
<mgrwt>
<rscale>  0 0.26646435E+01</rscale>
<asrwt>0</asrwt>
<pdfrwt beam="1">0</pdfrwt>
<pdfrwt beam="2">0</pdfrwt>
<totfact> 0.10073228E+12</totfact>
</mgrwt>
</event>
<event>
 4    1  0.1838758E+006  0.5883100E+01  0.7546771E-02  0.2030333E+00
         22   -1    0    0    0    0  0.00000000000E+00  0.00000000000E+00  0.15017677012E+01  0.15017677012E+01  0.00000000000E+00 0.  1.
         22   -1    0    0    0    0 -0.00000000000E+00 -0.00000000000E+00 -0.23058979091E+02  0.23058979091E+02  0.00000000000E+00 0. -1.
          4    1    1    2  501    0  0.18306390645E+01  0.54448803862E+01 -0.11061434512E+02  0.12528615057E+02  0.12700000000E+01 0. -1.
         -4    1    1    2    0  501 -0.18306390645E+01 -0.54448803862E+01 -0.10495776878E+02  0.12032131735E+02  0.12700000000E+01 0.  1.
<mgrwt>
<rscale>  0 0.58830997E+01</rscale>
<asrwt>0</asrwt>
<pdfrwt beam="1">0</pdfrwt>
<pdfrwt beam="2">0</pdfrwt>
<totfact> 0.35570941E+11</totfact>
</mgrwt>
</event>
<event>
 4    1  0.1838758E+006  0.3027500E+01  0.7546771E-02  0.2513561E+00
         22   -1    0    0    0    0  0.00000000000E+00  0.00000000000E+00  0.77217101669E+01  0.77217101669E+01  0.00000000000E+00 0.  1.
         22   -1    0    0    0    0 -0.00000000000E+00 -0.00000000000E+00 -0.17947931794E+01  0.17947931794E+01  0.00000000000E+00 0.  1.
          4    1    1    2  501    0  0.10695161077E+01  0.25315982665E+01  0.57324026958E+01  0.64827613834E+01  0.12700000000E+01 0.  1.
         -4    1    1    2    0  501 -0.10695161077E+01 -0.25315982665E+01  0.19451429168E+00  0.30337419629E+01  0.12700000000E+01 0.  1.
<mgrwt>
<rscale>  0 0.30274997E+01</rscale>
<asrwt>0</asrwt>
<pdfrwt beam="1">0</pdfrwt>
<pdfrwt beam="2">0</pdfrwt>
<totfact> 0.11071701E+12</totfact>
</mgrwt>
</event>
<event>
 4    1  0.1838758E+006  0.4760176E+01  0.7546771E-02  0.2152767E+00
         22   -1    0    0    0    0  0.00000000000E+00  0.00000000000E+00  0.43129039155E+01  0.43129039155E+01  0.00000000000E+00 0. -1.
         22   -1    0    0    0    0 -0.00000000000E+00 -0.00000000000E+00 -0.53829244416E+01  0.53829244416E+01  0.00000000000E+00 0.  1.
          4    1    1    2  501    0 -0.42238801683E+01 -0.17903116931E+01  0.21573646223E+00  0.47650626288E+01  0.12700000000E+01 0. -1.
         -4    1    1    2    0  501  0.42238801683E+01  0.17903116931E+01 -0.12857569884E+01  0.49307657284E+01  0.12700000000E+01 0.  1.
<mgrwt>
<rscale>  0 0.47601764E+01</rscale>
<asrwt>0</asrwt>
<pdfrwt beam="1">0</pdfrwt>
<pdfrwt beam="2">0</pdfrwt>
<totfact> 0.61244450E+11</totfact>
</mgrwt>
</event>
<event>
 4    1  0.1838758E+006  0.2196107E+01  0.7546771E-02  0.2859841E+00
         22   -1    0    0    0    0  0.00000000000E+00  0.00000000000E+00  0.49456151095E+01  0.49456151095E+01  0.00000000000E+00 0.  1.
         22   -1    0    0    0    0 -0.00000000000E+00 -0.00000000000E+00 -0.11874617426E+01  0.11874617426E+01  0.00000000000E+00 0. -1.
          4    1    1    2  501    0  0.12782517357E+01  0.12554120810E+01  0.31756299360E+01  0.38610247971E+01  0.12700000000E+01 0. -1.
         -4    1    1    2    0  501 -0.12782517357E+01 -0.12554120810E+01  0.58252343092E+00  0.22720520550E+01  0.12700000000E+01 0.  1.
<mgrwt>
<rscale>  0 0.21961072E+01</rscale>
<asrwt>0</asrwt>
<pdfrwt beam="1">0</pdfrwt>
<pdfrwt beam="2">0</pdfrwt>
<totfact> 0.30273730E+12</totfact>
</mgrwt>
</event>
<event>
 4    1  0.1838758E+006  0.2004587E+01  0.7546771E-02  0.2977638E+00
         22   -1    0    0    0    0  0.00000000000E+00  0.00000000000E+00  0.97933907168E+01  0.97933907168E+01  0.00000000000E+00 0.  1.
         22   -1    0    0    0    0 -0.00000000000E+00 -0.00000000000E+00 -0.45622845892E+00  0.45622845892E+00  0.00000000000E+00 0. -1.
          4    1    1    2  501    0  0.59984987317E+00 -0.14302623907E+01  0.62943501369E+01  0.66058469572E+01  0.12700000000E+01 0.  1.
         -4    1    1    2    0  501 -0.59984987317E+00  0.14302623907E+01  0.30428121209E+01  0.36437722184E+01  0.12700000000E+01 0.  1.
<mgrwt>
<rscale>  0 0.20045873E+01</rscale>
<asrwt>0</asrwt>
<pdfrwt beam="1">0</pdfrwt>
<pdfrwt beam="2">0</pdfrwt>
<totfact> 0.39640769E+12</totfact>
</mgrwt>
</event>
<event>
 4    1  0.1838758E+006  0.2155425E+01  0.7546771E-02  0.2883167E+00
         22   -1    0    0    0    0  0.00000000000E+00  0.00000000000E+00  0.57678931138E+02  0.57678931138E+02  0.00000000000E+00 0. -1.
         22   -1    0    0    0    0 -0.00000000000E+00 -0.00000000000E+00 -0.20939578456E+00  0.20939578456E+00  0.00000000000E+00 0.  1.
          4    1    1    2  501    0 -0.17232988057E+01  0.25139452264E+00  0.51439552964E+02  0.51484691581E+02  0.12700000000E+01 0. -1.
         -4    1    1    2    0  501  0.17232988057E+01 -0.25139452264E+00  0.60299823887E+01  0.64036353416E+01  0.12700000000E+01 0.  1.
<mgrwt>
<rscale>  0 0.21554252E+01</rscale>
<asrwt>0</asrwt>
<pdfrwt beam="1">0</pdfrwt>
<pdfrwt beam="2">0</pdfrwt>
<totfact> 0.10122540E+12</totfact>
</mgrwt>
</event>
<event>
 4    1  0.1838758E+006  0.2311580E+01  0.7546771E-02  0.2797916E+00
         22   -1    0    0    0    0  0.00000000000E+00  0.00000000000E+00  0.69203601994E+01  0.69203601994E+01  0.00000000000E+00 0.  1.
         22   -1    0    0    0    0 -0.00000000000E+00 -0.00000000000E+00 -0.95363820104E+00  0.95363820104E+00  0.00000000000E+00 0.  1.
          4    1    1    2  501    0 -0.19285206554E+01 -0.10634229299E+00  0.47009711273E+01  0.52385618391E+01  0.12700000000E+01 0.  1.
         -4    1    1    2    0  501  0.19285206554E+01  0.10634229299E+00  0.12657508710E+01  0.26354365614E+01  0.12700000000E+01 0.  1.
<mgrwt>
<rscale>  0 0.23115797E+01</rscale>
<asrwt>0</asrwt>
<pdfrwt beam="1">0</pdfrwt>
<pdfrwt beam="2">0</pdfrwt>
<totfact> 0.26084786E+12</totfact>
</mgrwt>
</event>
<event>
 4    1  0.1838758E+006  0.4490536E+01  0.7546771E-02  0.2192309E+00
         22   -1    0    0    0    0  0.00000000000E+00  0.00000000000E+00  0.14755367726E+01  0.14755367726E+01  0.00000000000E+00 0. -1.
         22   -1    0    0    0    0 -0.00000000000E+00 -0.00000000000E+00 -0.13938756365E+02  0.13938756365E+02  0.00000000000E+00 0.  1.
          4    1    1    2  501    0  0.42430025008E+01  0.74090770439E+00 -0.51537916113E+01  0.68356771735E+01  0.12700000000E+01 0.  1.
         -4    1    1    2    0  501 -0.42430025008E+01 -0.74090770439E+00 -0.73094279810E+01  0.85786159640E+01  0.12700000000E+01 0. -1.
<mgrwt>
<rscale>  0 0.44905361E+01</rscale>
<asrwt>0</asrwt>
<pdfrwt beam="1">0</pdfrwt>
<pdfrwt beam="2">0</pdfrwt>
<totfact> 0.67788135E+11</totfact>
</mgrwt>
</event>
<event>
 4    1  0.1838758E+006  0.2274415E+01  0.7546771E-02  0.2817193E+00
         22   -1    0    0    0    0  0.00000000000E+00  0.00000000000E+00  0.89649346141E+01  0.89649346141E+01  0.00000000000E+00 0.  1.
         22   -1    0    0    0    0 -0.00000000000E+00 -0.00000000000E+00 -0.12923684225E+01  0.12923684225E+01  0.00000000000E+00 0.  1.
          4    1    1    2  501    0  0.18593329464E+01  0.32084702305E+00  0.76519312167E+01  0.79827948215E+01  0.12700000000E+01 0.  1.
         -4    1    1    2    0  501 -0.18593329464E+01 -0.32084702305E+00  0.20634974918E-01  0.22745082150E+01  0.12700000000E+01 0.  1.
<mgrwt>
<rscale>  0 0.22744146E+01</rscale>
<asrwt>0</asrwt>
<pdfrwt beam="1">0</pdfrwt>
<pdfrwt beam="2">0</pdfrwt>
<totfact> 0.13500853E+12</totfact>
</mgrwt>
</event>
<event>
 4    1  0.1838758E+006  0.2208085E+01  0.7546771E-02  0.2853130E+00
         22   -1    0    0    0    0  0.00000000000E+00  0.00000000000E+00  0.33552795152E+00  0.33552795152E+00  0.00000000000E+00 0. -1.
         22   -1    0    0    0    0 -0.00000000000E+00 -0.00000000000E+00 -0.14569150194E+02  0.14569150194E+02  0.00000000000E+00 0.  1.
          4    1    1    2  501    0 -0.14284984512E+01  0.11054998993E+01 -0.67366723254E+01  0.70893153317E+01  0.12700000000E+01 0.  1.
         -4    1    1    2    0  501  0.14284984512E+01 -0.11054998993E+01 -0.74969499174E+01  0.78153628142E+01  0.12700000000E+01 0. -1.
<mgrwt>
<rscale>  0 0.22080847E+01</rscale>
<asrwt>0</asrwt>
<pdfrwt beam="1">0</pdfrwt>
<pdfrwt beam="2">0</pdfrwt>
<totfact> 0.34515866E+12</totfact>
</mgrwt>
</event>
<event>
 4    1  0.1838758E+006  0.2154427E+01  0.7546771E-02  0.2883750E+00
         22   -1    0    0    0    0  0.00000000000E+00  0.00000000000E+00  0.17940239425E+02  0.17940239425E+02  0.00000000000E+00 0.  1.
         22   -1    0    0    0    0 -0.00000000000E+00 -0.00000000000E+00 -0.30299524029E+00  0.30299524029E+00  0.00000000000E+00 0. -1.
          4    1    1    2  501    0 -0.17108840379E+01 -0.31864103676E+00  0.12305354944E+02  0.12492530432E+02  0.12700000000E+01 0.  1.
         -4    1    1    2    0  501  0.17108840379E+01  0.31864103676E+00  0.53318892412E+01  0.57507042336E+01  0.12700000000E+01 0. -1.
<mgrwt>
<rscale>  0 0.21544271E+01</rscale>
<asrwt>0</asrwt>
<pdfrwt beam="1">0</pdfrwt>
<pdfrwt beam="2">0</pdfrwt>
<totfact> 0.29929914E+12</totfact>
</mgrwt>
</event>
<event>
 4    1  0.1838758E+006  0.3530267E+01  0.7546771E-02  0.2377217E+00
         22   -1    0    0    0    0  0.00000000000E+00  0.00000000000E+00  0.75368172314E+00  0.75368172314E+00  0.00000000000E+00 0. -1.
         22   -1    0    0    0    0 -0.00000000000E+00 -0.00000000000E+00 -0.19856388331E+02  0.19856388331E+02  0.00000000000E+00 0. -1.
          4    1    1    2  501    0  0.31520686732E+01 -0.95621587389E+00 -0.53372803656E+01  0.63991677130E+01  0.12700000000E+01 0. -1.
         -4    1    1    2    0  501 -0.31520686732E+01  0.95621587389E+00 -0.13765426242E+02  0.14210902341E+02  0.12700000000E+01 0. -1.
<mgrwt>
<rscale>  0 0.35302671E+01</rscale>
<asrwt>0</asrwt>
<pdfrwt beam="1">0</pdfrwt>
<pdfrwt beam="2">0</pdfrwt>
<totfact> 0.94335890E+11</totfact>
</mgrwt>
</event>
<event>
 4    1  0.1838758E+006  0.2778656E+01  0.7546771E-02  0.2597121E+00
         22   -1    0    0    0    0  0.00000000000E+00  0.00000000000E+00  0.33775051787E+01  0.33775051787E+01  0.00000000000E+00 0. -1.
         22   -1    0    0    0    0 -0.00000000000E+00 -0.00000000000E+00 -0.23977123624E+01  0.23977123624E+01  0.00000000000E+00 0. -1.
          4    1    1    2  501    0  0.24634913972E+01  0.19809555886E+00  0.11132240650E+01  0.29933592390E+01  0.12700000000E+01 0. -1.
         -4    1    1    2    0  501 -0.24634913972E+01 -0.19809555886E+00 -0.13343124867E+00  0.27818583021E+01  0.12700000000E+01 0. -1.
<mgrwt>
<rscale>  0 0.27786565E+01</rscale>
<asrwt>0</asrwt>
<pdfrwt beam="1">0</pdfrwt>
<pdfrwt beam="2">0</pdfrwt>
<totfact> 0.21090579E+12</totfact>
</mgrwt>
</event>
<event>
 4    1  0.1838758E+006  0.2352451E+01  0.7546771E-02  0.2777384E+00
         22   -1    0    0    0    0  0.00000000000E+00  0.00000000000E+00  0.29437359135E+02  0.29437359135E+02  0.00000000000E+00 0. -1.
         22   -1    0    0    0    0 -0.00000000000E+00 -0.00000000000E+00 -0.27964513474E+00  0.27964513474E+00  0.00000000000E+00 0.  1.
          4    1    1    2  501    0  0.83088069913E+00  0.17974325563E+01  0.23085181754E+02  0.23204733205E+02  0.12700000000E+01 0. -1.
         -4    1    1    2    0  501 -0.83088069913E+00 -0.17974325563E+01  0.60725322471E+01  0.65122710649E+01  0.12700000000E+01 0.  1.
<mgrwt>
<rscale>  0 0.23524512E+01</rscale>
<asrwt>0</asrwt>
<pdfrwt beam="1">0</pdfrwt>
<pdfrwt beam="2">0</pdfrwt>
<totfact> 0.17579650E+12</totfact>
</mgrwt>
</event>
<event>
 4    1  0.1838758E+006  0.2364930E+01  0.7546771E-02  0.2771249E+00
         22   -1    0    0    0    0  0.00000000000E+00  0.00000000000E+00  0.16097204335E+01  0.16097204335E+01  0.00000000000E+00 0. -1.
         22   -1    0    0    0    0 -0.00000000000E+00 -0.00000000000E+00 -0.45846823730E+01  0.45846823730E+01  0.00000000000E+00 0. -1.
          4    1    1    2  501    0  0.15990448544E+01  0.11929156395E+01  0.36648584569E-01  0.23652135819E+01  0.12700000000E+01 0. -1.
         -4    1    1    2    0  501 -0.15990448544E+01 -0.11929156395E+01 -0.30116105240E+01  0.38291892246E+01  0.12700000000E+01 0. -1.
<mgrwt>
<rscale>  0 0.23649296E+01</rscale>
<asrwt>0</asrwt>
<pdfrwt beam="1">0</pdfrwt>
<pdfrwt beam="2">0</pdfrwt>
<totfact> 0.23345042E+12</totfact>
</mgrwt>
</event>
<event>
 4    1  0.1838758E+006  0.2411583E+01  0.7546771E-02  0.2748842E+00
         22   -1    0    0    0    0  0.00000000000E+00  0.00000000000E+00  0.72146981380E+01  0.72146981380E+01  0.00000000000E+00 0.  1.
         22   -1    0    0    0    0 -0.00000000000E+00 -0.00000000000E+00 -0.83984677414E+00  0.83984677414E+00  0.00000000000E+00 0. -1.
          4    1    1    2  501    0  0.24491628071E+00  0.20353984567E+01  0.23800784036E+01  0.33882892541E+01  0.12700000000E+01 0.  1.
         -4    1    1    2    0  501 -0.24491628071E+00 -0.20353984567E+01  0.39947729603E+01  0.46662556581E+01  0.12700000000E+01 0. -1.
<mgrwt>
<rscale>  0 0.24115826E+01</rscale>
<asrwt>0</asrwt>
<pdfrwt beam="1">0</pdfrwt>
<pdfrwt beam="2">0</pdfrwt>
<totfact> 0.28684311E+12</totfact>
</mgrwt>
</event>
<event>
 4    1  0.1838758E+006  0.3833211E+01  0.7546771E-02  0.2310357E+00
         22   -1    0    0    0    0  0.00000000000E+00  0.00000000000E+00  0.38499401376E+01  0.38499401376E+01  0.00000000000E+00 0. -1.
         22   -1    0    0    0    0 -0.00000000000E+00 -0.00000000000E+00 -0.45414342670E+01  0.45414342670E+01  0.00000000000E+00 0.  1.
          4    1    1    2  501    0 -0.29508423569E+01  0.20912036498E+01  0.13305068767E+01  0.40575549126E+01  0.12700000000E+01 0. -1.
         -4    1    1    2    0  501  0.29508423569E+01 -0.20912036498E+01 -0.20220010061E+01  0.43338194920E+01  0.12700000000E+01 0.  1.
<mgrwt>
<rscale>  0 0.38332106E+01</rscale>
<asrwt>0</asrwt>
<pdfrwt beam="1">0</pdfrwt>
<pdfrwt beam="2">0</pdfrwt>
<totfact> 0.85607004E+11</totfact>
</mgrwt>
</event>
<event>
 4    1  0.1838758E+006  0.2153730E+01  0.7546771E-02  0.2884158E+00
         22   -1    0    0    0    0  0.00000000000E+00  0.00000000000E+00  0.52758990101E+01  0.52758990101E+01  0.00000000000E+00 0.  1.
         22   -1    0    0    0    0 -0.00000000000E+00 -0.00000000000E+00 -0.26808970774E+01  0.26808970774E+01  0.00000000000E+00 0.  1.
          4    1    1    2  501    0  0.17360127755E+01 -0.10914500601E+00  0.45589413698E+01  0.50420729271E+01  0.12700000000E+01 0.  1.
         -4    1    1    2    0  501 -0.17360127755E+01  0.10914500601E+00 -0.19639394371E+01  0.29147231604E+01  0.12700000000E+01 0.  1.
<mgrwt>
<rscale>  0 0.21537300E+01</rscale>
<asrwt>0</asrwt>
<pdfrwt beam="1">0</pdfrwt>
<pdfrwt beam="2">0</pdfrwt>
<totfact> 0.10948719E+12</totfact>
</mgrwt>
</event>
<event>
 4    1  0.1838758E+006  0.2753624E+01  0.7546771E-02  0.2606281E+00
         22   -1    0    0    0    0  0.00000000000E+00  0.00000000000E+00  0.17988517268E+02  0.17988517268E+02  0.00000000000E+00 0.  1.
         22   -1    0    0    0    0 -0.00000000000E+00 -0.00000000000E+00 -0.43680846717E+00  0.43680846717E+00  0.00000000000E+00 0. -1.
          4    1    1    2  501    0  0.24338404743E+01 -0.21439816890E+00  0.70520822247E+01  0.75706214892E+01  0.12700000000E+01 0.  1.
         -4    1    1    2    0  501 -0.24338404743E+01  0.21439816890E+00  0.10499626576E+02  0.10854704246E+02  0.12700000000E+01 0. -1.
<mgrwt>
<rscale>  0 0.27536242E+01</rscale>
<asrwt>0</asrwt>
<pdfrwt beam="1">0</pdfrwt>
<pdfrwt beam="2">0</pdfrwt>
<totfact> 0.19774633E+12</totfact>
</mgrwt>
</event>
<event>
 4    1  0.1838758E+006  0.2748662E+01  0.7546771E-02  0.2608115E+00
         22   -1    0    0    0    0  0.00000000000E+00  0.00000000000E+00  0.25050434961E+01  0.25050434961E+01  0.00000000000E+00 0. -1.
         22   -1    0    0    0    0 -0.00000000000E+00 -0.00000000000E+00 -0.46622991311E+01  0.46622991311E+01  0.00000000000E+00 0.  1.
          4    1    1    2  501    0 -0.98830986281E+00  0.22283373838E+01  0.10509132583E+01  0.29427134685E+01  0.12700000000E+01 0. -1.
         -4    1    1    2    0  501  0.98830986281E+00 -0.22283373838E+01 -0.32081688933E+01  0.42246291588E+01  0.12700000000E+01 0.  1.
<mgrwt>
<rscale>  0 0.27486622E+01</rscale>
<asrwt>0</asrwt>
<pdfrwt beam="1">0</pdfrwt>
<pdfrwt beam="2">0</pdfrwt>
<totfact> 0.13716891E+12</totfact>
</mgrwt>
</event>
<event>
 4    1  0.1838758E+006  0.2160714E+01  0.7546771E-02  0.2880087E+00
         22   -1    0    0    0    0  0.00000000000E+00  0.00000000000E+00  0.78376978136E+01  0.78376978136E+01  0.00000000000E+00 0.  1.
         22   -1    0    0    0    0 -0.00000000000E+00 -0.00000000000E+00 -0.62438683208E+00  0.62438683208E+00  0.00000000000E+00 0.  1.
          4    1    1    2  501    0 -0.68193500748E+00  0.16095800113E+01  0.45140311306E+01  0.50045139839E+01  0.12700000000E+01 0.  1.
         -4    1    1    2    0  501  0.68193500748E+00 -0.16095800113E+01  0.26992798509E+01  0.34575706617E+01  0.12700000000E+01 0.  1.
<mgrwt>
<rscale>  0 0.21607136E+01</rscale>
<asrwt>0</asrwt>
<pdfrwt beam="1">0</pdfrwt>
<pdfrwt beam="2">0</pdfrwt>
<totfact> 0.36368503E+12</totfact>
</mgrwt>
</event>
<event>
 4    1  0.1838758E+006  0.2041713E+01  0.7546771E-02  0.2953126E+00
         22   -1    0    0    0    0  0.00000000000E+00  0.00000000000E+00  0.19380191993E+02  0.19380191993E+02  0.00000000000E+00 0.  1.
         22   -1    0    0    0    0 -0.00000000000E+00 -0.00000000000E+00 -0.22417479647E+00  0.22417479647E+00  0.00000000000E+00 0. -1.
          4    1    1    2  501    0  0.93103639178E+00 -0.12995620384E+01  0.11550693823E+02  0.11729753537E+02  0.12700000000E+01 0.  1.
         -4    1    1    2    0  501 -0.93103639178E+00  0.12995620384E+01  0.76053233738E+01  0.78746132524E+01  0.12700000000E+01 0. -1.
<mgrwt>
<rscale>  0 0.20417126E+01</rscale>
<asrwt>0</asrwt>
<pdfrwt beam="1">0</pdfrwt>
<pdfrwt beam="2">0</pdfrwt>
<totfact> 0.38094999E+12</totfact>
</mgrwt>
</event>
<event>
 4    1  0.1838758E+006  0.2135330E+01  0.7546771E-02  0.2895005E+00
         22   -1    0    0    0    0  0.00000000000E+00  0.00000000000E+00  0.43435601494E+01  0.43435601494E+01  0.00000000000E+00 0. -1.
         22   -1    0    0    0    0 -0.00000000000E+00 -0.00000000000E+00 -0.10630364507E+01  0.10630364507E+01  0.00000000000E+00 0. -1.
          4    1    1    2  501    0 -0.11212520926E+01  0.12998185236E+01  0.19425293217E+01  0.28867030702E+01  0.12700000000E+01 0. -1.
         -4    1    1    2    0  501  0.11212520926E+01 -0.12998185236E+01  0.13379943770E+01  0.25198935300E+01  0.12700000000E+01 0. -1.
<mgrwt>
<rscale>  0 0.21353301E+01</rscale>
<asrwt>0</asrwt>
<pdfrwt beam="1">0</pdfrwt>
<pdfrwt beam="2">0</pdfrwt>
<totfact> 0.40056791E+12</totfact>
</mgrwt>
</event>
<event>
 4    1  0.1838758E+006  0.2980407E+01  0.7546771E-02  0.2528408E+00
         22   -1    0    0    0    0  0.00000000000E+00  0.00000000000E+00  0.15309476572E+01  0.15309476572E+01  0.00000000000E+00 0.  1.
         22   -1    0    0    0    0 -0.00000000000E+00 -0.00000000000E+00 -0.58763259174E+01  0.58763259174E+01  0.00000000000E+00 0. -1.
          4    1    1    2  501    0 -0.13325888384E+01  0.23439562730E+01 -0.17566464111E+01  0.34595708745E+01  0.12700000000E+01 0. -1.
         -4    1    1    2    0  501  0.13325888384E+01 -0.23439562730E+01 -0.25887318491E+01  0.39477027001E+01  0.12700000000E+01 0.  1.
<mgrwt>
<rscale>  0 0.29804067E+01</rscale>
<asrwt>0</asrwt>
<pdfrwt beam="1">0</pdfrwt>
<pdfrwt beam="2">0</pdfrwt>
<totfact> 0.18430284E+12</totfact>
</mgrwt>
</event>
<event>
 4    1  0.1838758E+006  0.2059605E+01  0.7546771E-02  0.2941620E+00
         22   -1    0    0    0    0  0.00000000000E+00  0.00000000000E+00  0.23492266921E+00  0.23492266921E+00  0.00000000000E+00 0. -1.
         22   -1    0    0    0    0 -0.00000000000E+00 -0.00000000000E+00 -0.20544841285E+02  0.20544841285E+02  0.00000000000E+00 0. -1.
          4    1    1    2  501    0 -0.94516319437E+00 -0.13174748114E+01 -0.13770555765E+02  0.13923727211E+02  0.12700000000E+01 0. -1.
         -4    1    1    2    0  501  0.94516319437E+00  0.13174748114E+01 -0.65393628498E+01  0.68560367432E+01  0.12700000000E+01 0. -1.
<mgrwt>
<rscale>  0 0.20596051E+01</rscale>
<asrwt>0</asrwt>
<pdfrwt beam="1">0</pdfrwt>
<pdfrwt beam="2">0</pdfrwt>
<totfact> 0.33615764E+12</totfact>
</mgrwt>
</event>
<event>
 4    1  0.1838758E+006  0.3783971E+01  0.7546771E-02  0.2320594E+00
         22   -1    0    0    0    0  0.00000000000E+00  0.00000000000E+00  0.86763613503E+01  0.86763613503E+01  0.00000000000E+00 0. -1.
         22   -1    0    0    0    0 -0.00000000000E+00 -0.00000000000E+00 -0.93730427917E+01  0.93730427917E+01  0.00000000000E+00 0.  1.
          4    1    1    2  501    0 -0.34265273591E-01  0.35643174346E+01  0.78434509289E+01  0.87085105132E+01  0.12700000000E+01 0. -1.
         -4    1    1    2    0  501  0.34265273591E-01 -0.35643174346E+01 -0.85401323703E+01  0.93408936289E+01  0.12700000000E+01 0.  1.
<mgrwt>
<rscale>  0 0.37839705E+01</rscale>
<asrwt>0</asrwt>
<pdfrwt beam="1">0</pdfrwt>
<pdfrwt beam="2">0</pdfrwt>
<totfact> 0.13712439E+11</totfact>
</mgrwt>
</event>
<event>
 4    1  0.1838758E+006  0.2227098E+01  0.7546771E-02  0.2842620E+00
         22   -1    0    0    0    0  0.00000000000E+00  0.00000000000E+00  0.62588822523E+00  0.62588822523E+00  0.00000000000E+00 0.  1.
         22   -1    0    0    0    0 -0.00000000000E+00 -0.00000000000E+00 -0.11778641331E+02  0.11778641331E+02  0.00000000000E+00 0.  1.
          4    1    1    2  501    0  0.17317815814E+01 -0.58991364511E+00 -0.20286002265E+01  0.30125046777E+01  0.12700000000E+01 0.  1.
         -4    1    1    2    0  501 -0.17317815814E+01  0.58991364511E+00 -0.91241528798E+01  0.93920248790E+01  0.12700000000E+01 0.  1.
<mgrwt>
<rscale>  0 0.22270980E+01</rscale>
<asrwt>0</asrwt>
<pdfrwt beam="1">0</pdfrwt>
<pdfrwt beam="2">0</pdfrwt>
<totfact> 0.22162675E+12</totfact>
</mgrwt>
</event>
<event>
 4    1  0.1838758E+006  0.7432055E+01  0.7546771E-02  0.1910942E+00
         22   -1    0    0    0    0  0.00000000000E+00  0.00000000000E+00  0.37793895812E+01  0.37793895812E+01  0.00000000000E+00 0.  1.
         22   -1    0    0    0    0 -0.00000000000E+00 -0.00000000000E+00 -0.20614374313E+02  0.20614374313E+02  0.00000000000E+00 0. -1.
          4    1    1    2  501    0 -0.69822047676E+01 -0.22071139040E+01 -0.18375814918E+01  0.76558566432E+01  0.12700000000E+01 0.  1.
         -4    1    1    2    0  501  0.69822047676E+01  0.22071139040E+01 -0.14997403240E+02  0.16737907251E+02  0.12700000000E+01 0. -1.
<mgrwt>
<rscale>  0 0.74320546E+01</rscale>
<asrwt>0</asrwt>
<pdfrwt beam="1">0</pdfrwt>
<pdfrwt beam="2">0</pdfrwt>
<totfact> 0.14002662E+11</totfact>
</mgrwt>
</event>
<event>
 4    1  0.1838758E+006  0.2491980E+01  0.7546771E-02  0.2712076E+00
         22   -1    0    0    0    0  0.00000000000E+00  0.00000000000E+00  0.22857424407E+01  0.22857424407E+01  0.00000000000E+00 0. -1.
         22   -1    0    0    0    0 -0.00000000000E+00 -0.00000000000E+00 -0.30055940749E+01  0.30055940749E+01  0.00000000000E+00 0.  1.
          4    1    1    2  501    0 -0.18894905536E+01  0.10133557592E+01  0.46013266986E+00  0.25341046783E+01  0.12700000000E+01 0. -1.
         -4    1    1    2    0  501  0.18894905536E+01 -0.10133557592E+01 -0.11799843041E+01  0.27572318373E+01  0.12700000000E+01 0.  1.
<mgrwt>
<rscale>  0 0.24919800E+01</rscale>
<asrwt>0</asrwt>
<pdfrwt beam="1">0</pdfrwt>
<pdfrwt beam="2">0</pdfrwt>
<totfact> 0.25555224E+12</totfact>
</mgrwt>
</event>
<event>
 4    1  0.1838758E+006  0.2443103E+01  0.7546771E-02  0.2734158E+00
         22   -1    0    0    0    0  0.00000000000E+00  0.00000000000E+00  0.20711113518E+01  0.20711113518E+01  0.00000000000E+00 0. -1.
         22   -1    0    0    0    0 -0.00000000000E+00 -0.00000000000E+00 -0.29368304210E+01  0.29368304210E+01  0.00000000000E+00 0. -1.
          4    1    1    2  501    0  0.11958521886E+01 -0.17104945122E+01 -0.90437503025E-01  0.24447766514E+01  0.12700000000E+01 0. -1.
         -4    1    1    2    0  501 -0.11958521886E+01  0.17104945122E+01 -0.77528156611E+00  0.25631651214E+01  0.12700000000E+01 0. -1.
<mgrwt>
<rscale>  0 0.24431033E+01</rscale>
<asrwt>0</asrwt>
<pdfrwt beam="1">0</pdfrwt>
<pdfrwt beam="2">0</pdfrwt>
<totfact> 0.29435711E+12</totfact>
</mgrwt>
</event>
<event>
 4    1  0.1838758E+006  0.3392209E+01  0.7546771E-02  0.2411102E+00
         22   -1    0    0    0    0  0.00000000000E+00  0.00000000000E+00  0.17496325283E+02  0.17496325283E+02  0.00000000000E+00 0. -1.
         22   -1    0    0    0    0 -0.00000000000E+00 -0.00000000000E+00 -0.72806140243E+00  0.72806140243E+00  0.00000000000E+00 0.  1.
          4    1    1    2  501    0  0.26248778679E+01 -0.17332622966E+01  0.11217157271E+02  0.11718860834E+02  0.12700000000E+01 0. -1.
         -4    1    1    2    0  501 -0.26248778679E+01  0.17332622966E+01  0.55511066101E+01  0.65055258517E+01  0.12700000000E+01 0.  1.
<mgrwt>
<rscale>  0 0.33922090E+01</rscale>
<asrwt>0</asrwt>
<pdfrwt beam="1">0</pdfrwt>
<pdfrwt beam="2">0</pdfrwt>
<totfact> 0.11482498E+12</totfact>
</mgrwt>
</event>
<event>
 4    1  0.1838758E+006  0.2440786E+01  0.7546771E-02  0.2735226E+00
         22   -1    0    0    0    0  0.00000000000E+00  0.00000000000E+00  0.62445980943E+01  0.62445980943E+01  0.00000000000E+00 0.  1.
         22   -1    0    0    0    0 -0.00000000000E+00 -0.00000000000E+00 -0.36801668775E+01  0.36801668775E+01  0.00000000000E+00 0.  1.
          4    1    1    2  501    0  0.25283345232E+00  0.20689637808E+01  0.55532351514E+01  0.60659588300E+01  0.12700000000E+01 0.  1.
         -4    1    1    2    0  501 -0.25283345232E+00 -0.20689637808E+01 -0.29888039346E+01  0.38588061418E+01  0.12700000000E+01 0.  1.
<mgrwt>
<rscale>  0 0.24407859E+01</rscale>
<asrwt>0</asrwt>
<pdfrwt beam="1">0</pdfrwt>
<pdfrwt beam="2">0</pdfrwt>
<totfact> 0.61864081E+11</totfact>
</mgrwt>
</event>
<event>
 4    1  0.1838758E+006  0.2733228E+01  0.7546771E-02  0.2613858E+00
         22   -1    0    0    0    0  0.00000000000E+00  0.00000000000E+00  0.58569753726E+02  0.58569753726E+02  0.00000000000E+00 0.  1.
         22   -1    0    0    0    0 -0.00000000000E+00 -0.00000000000E+00 -0.29785210431E+00  0.29785210431E+00  0.00000000000E+00 0. -1.
          4    1    1    2  501    0  0.92892027502E+00  0.22348916577E+01  0.51392451679E+02  0.51465081591E+02  0.12700000000E+01 0.  1.
         -4    1    1    2    0  501 -0.92892027502E+00 -0.22348916577E+01  0.68794499433E+01  0.74025242398E+01  0.12700000000E+01 0. -1.
<mgrwt>
<rscale>  0 0.27332277E+01</rscale>
<asrwt>0</asrwt>
<pdfrwt beam="1">0</pdfrwt>
<pdfrwt beam="2">0</pdfrwt>
<totfact> 0.66873725E+11</totfact>
</mgrwt>
</event>
<event>
 4    1  0.1838758E+006  0.2068024E+01  0.7546771E-02  0.2936274E+00
         22   -1    0    0    0    0  0.00000000000E+00  0.00000000000E+00  0.24278414650E+02  0.24278414650E+02  0.00000000000E+00 0.  1.
         22   -1    0    0    0    0 -0.00000000000E+00 -0.00000000000E+00 -0.17755350884E+00  0.17755350884E+00  0.00000000000E+00 0. -1.
          4    1    1    2  501    0  0.16621658528E+00  0.16236367213E+01  0.10964559258E+02  0.11157879901E+02  0.12700000000E+01 0.  1.
         -4    1    1    2    0  501 -0.16621658528E+00 -0.16236367213E+01  0.13136301883E+02  0.13298088258E+02  0.12700000000E+01 0. -1.
<mgrwt>
<rscale>  0 0.20680242E+01</rscale>
<asrwt>0</asrwt>
<pdfrwt beam="1">0</pdfrwt>
<pdfrwt beam="2">0</pdfrwt>
<totfact> 0.37264395E+12</totfact>
</mgrwt>
</event>
<event>
 4    1  0.1838758E+006  0.2012369E+01  0.7546771E-02  0.2972427E+00
         22   -1    0    0    0    0  0.00000000000E+00  0.00000000000E+00  0.73042834139E+00  0.73042834139E+00  0.00000000000E+00 0. -1.
         22   -1    0    0    0    0 -0.00000000000E+00 -0.00000000000E+00 -0.10467680487E+02  0.10467680487E+02  0.00000000000E+00 0.  1.
          4    1    1    2  501    0  0.15576810128E+01 -0.10178473777E+00 -0.10286704430E+01  0.22600427321E+01  0.12700000000E+01 0. -1.
         -4    1    1    2    0  501 -0.15576810128E+01  0.10178473777E+00 -0.87085817022E+01  0.89380660959E+01  0.12700000000E+01 0.  1.
<mgrwt>
<rscale>  0 0.20123693E+01</rscale>
<asrwt>0</asrwt>
<pdfrwt beam="1">0</pdfrwt>
<pdfrwt beam="2">0</pdfrwt>
<totfact> 0.21467917E+12</totfact>
</mgrwt>
</event>
<event>
 4    1  0.1838758E+006  0.2084549E+01  0.7546771E-02  0.2925902E+00
         22   -1    0    0    0    0  0.00000000000E+00  0.00000000000E+00  0.18270093385E+00  0.18270093385E+00  0.00000000000E+00 0.  1.
         22   -1    0    0    0    0 -0.00000000000E+00 -0.00000000000E+00 -0.24114825394E+02  0.24114825394E+02  0.00000000000E+00 0.  1.
          4    1    1    2  501    0  0.76269783886E+00  0.14665388175E+01 -0.10542937395E+02  0.10747040198E+02  0.12700000000E+01 0.  1.
         -4    1    1    2    0  501 -0.76269783886E+00 -0.14665388175E+01 -0.13389187065E+02  0.13550486130E+02  0.12700000000E+01 0.  1.
<mgrwt>
<rscale>  0 0.20845489E+01</rscale>
<asrwt>0</asrwt>
<pdfrwt beam="1">0</pdfrwt>
<pdfrwt beam="2">0</pdfrwt>
<totfact> 0.36405318E+12</totfact>
</mgrwt>
</event>
<event>
 4    1  0.1838758E+006  0.2123734E+01  0.7546771E-02  0.2901934E+00
         22   -1    0    0    0    0  0.00000000000E+00  0.00000000000E+00  0.78712520680E+00  0.78712520680E+00  0.00000000000E+00 0.  1.
         22   -1    0    0    0    0 -0.00000000000E+00 -0.00000000000E+00 -0.66996555750E+01  0.66996555750E+01  0.00000000000E+00 0.  1.
          4    1    1    2  501    0  0.12791795223E+01  0.11229638331E+01 -0.15321609571E+01  0.26187335144E+01  0.12700000000E+01 0.  1.
         -4    1    1    2    0  501 -0.12791795223E+01 -0.11229638331E+01 -0.43803694111E+01  0.48680472674E+01  0.12700000000E+01 0.  1.
<mgrwt>
<rscale>  0 0.21237345E+01</rscale>
<asrwt>0</asrwt>
<pdfrwt beam="1">0</pdfrwt>
<pdfrwt beam="2">0</pdfrwt>
<totfact> 0.33738766E+12</totfact>
</mgrwt>
</event>
<event>
 4    1  0.1838758E+006  0.3302670E+01  0.7546771E-02  0.2434399E+00
         22   -1    0    0    0    0  0.00000000000E+00  0.00000000000E+00  0.15127971712E+02  0.15127971712E+02  0.00000000000E+00 0. -1.
         22   -1    0    0    0    0 -0.00000000000E+00 -0.00000000000E+00 -0.43268145879E+01  0.43268145879E+01  0.00000000000E+00 0.  1.
          4    1    1    2  501    0 -0.20129413338E+01 -0.22897152415E+01  0.14280570769E+02  0.14657500817E+02  0.12700000000E+01 0. -1.
         -4    1    1    2    0  501  0.20129413338E+01  0.22897152415E+01 -0.34794136446E+01  0.47972854836E+01  0.12700000000E+01 0.  1.
<mgrwt>
<rscale>  0 0.33026699E+01</rscale>
<asrwt>0</asrwt>
<pdfrwt beam="1">0</pdfrwt>
<pdfrwt beam="2">0</pdfrwt>
<totfact> 0.17525268E+11</totfact>
</mgrwt>
</event>
<event>
 4    1  0.1838758E+006  0.2004349E+01  0.7546771E-02  0.2977798E+00
         22   -1    0    0    0    0  0.00000000000E+00  0.00000000000E+00  0.32137413652E+00  0.32137413652E+00  0.00000000000E+00 0.  1.
         22   -1    0    0    0    0 -0.00000000000E+00 -0.00000000000E+00 -0.15731305773E+02  0.15731305773E+02  0.00000000000E+00 0. -1.
          4    1    1    2  501    0  0.41593671404E+00 -0.14938250136E+01 -0.40677083871E+01  0.45347180776E+01  0.12700000000E+01 0.  1.
         -4    1    1    2    0  501 -0.41593671404E+00  0.14938250136E+01 -0.11342223249E+02  0.11517961832E+02  0.12700000000E+01 0. -1.
<mgrwt>
<rscale>  0 0.20043494E+01</rscale>
<asrwt>0</asrwt>
<pdfrwt beam="1">0</pdfrwt>
<pdfrwt beam="2">0</pdfrwt>
<totfact> 0.32958735E+12</totfact>
</mgrwt>
</event>
<event>
 4    1  0.1838758E+006  0.3063966E+01  0.7546771E-02  0.2502345E+00
         22   -1    0    0    0    0  0.00000000000E+00  0.00000000000E+00  0.39638390707E+02  0.39638390707E+02  0.00000000000E+00 0.  1.
         22   -1    0    0    0    0 -0.00000000000E+00 -0.00000000000E+00 -0.15036249872E+01  0.15036249872E+01  0.00000000000E+00 0. -1.
          4    1    1    2  501    0 -0.85259854399E+00  0.26548186292E+01  0.37948929268E+02  0.38072419398E+02  0.12700000000E+01 0.  1.
         -4    1    1    2    0  501  0.85259854399E+00 -0.26548186292E+01  0.18583645120E+00  0.30695962956E+01  0.12700000000E+01 0. -1.
<mgrwt>
<rscale>  0 0.30639658E+01</rscale>
<asrwt>0</asrwt>
<pdfrwt beam="1">0</pdfrwt>
<pdfrwt beam="2">0</pdfrwt>
<totfact> 0.17798464E+11</totfact>
</mgrwt>
</event>
<event>
 4    1  0.1838758E+006  0.2226610E+01  0.7546771E-02  0.2842888E+00
         22   -1    0    0    0    0  0.00000000000E+00  0.00000000000E+00  0.27434345425E+01  0.27434345425E+01  0.00000000000E+00 0. -1.
         22   -1    0    0    0    0 -0.00000000000E+00 -0.00000000000E+00 -0.63050945317E+01  0.63050945317E+01  0.00000000000E+00 0.  1.
          4    1    1    2  501    0  0.15016946281E+01  0.10439363772E+01  0.20404545224E+01  0.30201398268E+01  0.12700000000E+01 0. -1.
         -4    1    1    2    0  501 -0.15016946281E+01 -0.10439363772E+01 -0.56021145117E+01  0.60283892473E+01  0.12700000000E+01 0.  1.
<mgrwt>
<rscale>  0 0.22266095E+01</rscale>
<asrwt>0</asrwt>
<pdfrwt beam="1">0</pdfrwt>
<pdfrwt beam="2">0</pdfrwt>
<totfact> 0.86233824E+11</totfact>
</mgrwt>
</event>
<event>
 4    1  0.1838758E+006  0.3287612E+01  0.7546771E-02  0.2438427E+00
         22   -1    0    0    0    0  0.00000000000E+00  0.00000000000E+00  0.13294600926E+02  0.13294600926E+02  0.00000000000E+00 0.  1.
         22   -1    0    0    0    0 -0.00000000000E+00 -0.00000000000E+00 -0.83669406806E+00  0.83669406806E+00  0.00000000000E+00 0. -1.
          4    1    1    2  501    0  0.26499034358E+01 -0.14742818006E+01  0.50397174292E+01  0.60172374735E+01  0.12700000000E+01 0. -1.
         -4    1    1    2    0  501 -0.26499034358E+01  0.14742818006E+01  0.74181894291E+01  0.81140575209E+01  0.12700000000E+01 0.  1.
<mgrwt>
<rscale>  0 0.32876124E+01</rscale>
<asrwt>0</asrwt>
<pdfrwt beam="1">0</pdfrwt>
<pdfrwt beam="2">0</pdfrwt>
<totfact> 0.13748199E+12</totfact>
</mgrwt>
</event>
<event>
 4    1  0.1838758E+006  0.2477808E+01  0.7546771E-02  0.2718395E+00
         22   -1    0    0    0    0  0.00000000000E+00  0.00000000000E+00  0.12687449882E+00  0.12687449882E+00  0.00000000000E+00 0.  1.
         22   -1    0    0    0    0 -0.00000000000E+00 -0.00000000000E+00 -0.49344140422E+02  0.49344140422E+02  0.00000000000E+00 0. -1.
          4    1    1    2  501    0  0.19844906787E+01  0.76709126531E+00 -0.21170092595E+02  0.21314604212E+02  0.12700000000E+01 0. -1.
         -4    1    1    2    0  501 -0.19844906787E+01 -0.76709126531E+00 -0.28047173328E+02  0.28156410708E+02  0.12700000000E+01 0.  1.
<mgrwt>
<rscale>  0 0.24778080E+01</rscale>
<asrwt>0</asrwt>
<pdfrwt beam="1">0</pdfrwt>
<pdfrwt beam="2">0</pdfrwt>
<totfact> 0.21743755E+12</totfact>
</mgrwt>
</event>
<event>
 4    1  0.1838758E+006  0.2245422E+01  0.7546771E-02  0.2832652E+00
         22   -1    0    0    0    0  0.00000000000E+00  0.00000000000E+00  0.14395617767E+02  0.14395617767E+02  0.00000000000E+00 0.  1.
         22   -1    0    0    0    0 -0.00000000000E+00 -0.00000000000E+00 -0.56946944705E+00  0.56946944705E+00  0.00000000000E+00 0. -1.
          4    1    1    2  501    0 -0.17240733984E+01 -0.67571563916E+00  0.11555698224E+02  0.11771834273E+02  0.12700000000E+01 0. -1.
         -4    1    1    2    0  501  0.17240733984E+01  0.67571563916E+00  0.22704500965E+01  0.31932529415E+01  0.12700000000E+01 0.  1.
<mgrwt>
<rscale>  0 0.22454222E+01</rscale>
<asrwt>0</asrwt>
<pdfrwt beam="1">0</pdfrwt>
<pdfrwt beam="2">0</pdfrwt>
<totfact> 0.19296486E+12</totfact>
</mgrwt>
</event>
<event>
 4    1  0.1838758E+006  0.2221535E+01  0.7546771E-02  0.2845677E+00
         22   -1    0    0    0    0  0.00000000000E+00  0.00000000000E+00  0.67219757640E+00  0.67219757640E+00  0.00000000000E+00 0. -1.
         22   -1    0    0    0    0 -0.00000000000E+00 -0.00000000000E+00 -0.99663841880E+02  0.99663841880E+02  0.00000000000E+00 0.  1.
          4    1    1    2  501    0 -0.17797806600E+01  0.39331989640E+00 -0.12110075207E+01  0.25301697481E+01  0.12700000000E+01 0. -1.
         -4    1    1    2    0  501  0.17797806600E+01 -0.39331989640E+00 -0.97780636783E+02  0.97805869708E+02  0.12700000000E+01 0.  1.
<mgrwt>
<rscale>  0 0.22215354E+01</rscale>
<asrwt>0</asrwt>
<pdfrwt beam="1">0</pdfrwt>
<pdfrwt beam="2">0</pdfrwt>
<totfact> 0.12898339E+11</totfact>
</mgrwt>
</event>
<event>
 4    1  0.1838758E+006  0.2235347E+01  0.7546771E-02  0.2838113E+00
         22   -1    0    0    0    0  0.00000000000E+00  0.00000000000E+00  0.33958628230E+00  0.33958628230E+00  0.00000000000E+00 0. -1.
         22   -1    0    0    0    0 -0.00000000000E+00 -0.00000000000E+00 -0.15124653113E+02  0.15124653113E+02  0.00000000000E+00 0.  1.
          4    1    1    2  501    0 -0.75389387353E-01 -0.18379865706E+01 -0.86661211395E+01  0.89497728350E+01  0.12700000000E+01 0.  1.
         -4    1    1    2    0  501  0.75389387353E-01  0.18379865706E+01 -0.61189456914E+01  0.65144665605E+01  0.12700000000E+01 0. -1.
<mgrwt>
<rscale>  0 0.22353474E+01</rscale>
<asrwt>0</asrwt>
<pdfrwt beam="1">0</pdfrwt>
<pdfrwt beam="2">0</pdfrwt>
<totfact> 0.32521267E+12</totfact>
</mgrwt>
</event>
<event>
 4    1  0.1838758E+006  0.2285106E+01  0.7546771E-02  0.2811586E+00
         22   -1    0    0    0    0  0.00000000000E+00  0.00000000000E+00  0.68369952824E+01  0.68369952824E+01  0.00000000000E+00 0. -1.
         22   -1    0    0    0    0 -0.00000000000E+00 -0.00000000000E+00 -0.93096722793E+00  0.93096722793E+00  0.00000000000E+00 0. -1.
          4    1    1    2  501    0  0.48523262540E+00 -0.18366709167E+01  0.45991240892E+01  0.51355285166E+01  0.12700000000E+01 0. -1.
         -4    1    1    2    0  501 -0.48523262540E+00  0.18366709167E+01  0.13069039652E+01  0.26324339937E+01  0.12700000000E+01 0. -1.
<mgrwt>
<rscale>  0 0.22851063E+01</rscale>
<asrwt>0</asrwt>
<pdfrwt beam="1">0</pdfrwt>
<pdfrwt beam="2">0</pdfrwt>
<totfact> 0.27201827E+12</totfact>
</mgrwt>
</event>
<event>
 4    1  0.1838758E+006  0.3237841E+01  0.7546771E-02  0.2451973E+00
         22   -1    0    0    0    0  0.00000000000E+00  0.00000000000E+00  0.12288054060E+03  0.12288054060E+03  0.00000000000E+00 0. -1.
         22   -1    0    0    0    0 -0.00000000000E+00 -0.00000000000E+00 -0.11426657072E+00  0.11426657072E+00  0.00000000000E+00 0. -1.
          4    1    1    2  501    0 -0.17744889479E+01 -0.23920503401E+01  0.92338038892E+02  0.92394789043E+02  0.12700000000E+01 0. -1.
         -4    1    1    2    0  501  0.17744889479E+01  0.23920503401E+01  0.30428235140E+02  0.30600018131E+02  0.12700000000E+01 0. -1.
<mgrwt>
<rscale>  0 0.32378412E+01</rscale>
<asrwt>0</asrwt>
<pdfrwt beam="1">0</pdfrwt>
<pdfrwt beam="2">0</pdfrwt>
<totfact> 0.69712567E+11</totfact>
</mgrwt>
</event>
<event>
 4    1  0.1838758E+006  0.2120161E+01  0.7546771E-02  0.2904084E+00
         22   -1    0    0    0    0  0.00000000000E+00  0.00000000000E+00  0.16217366594E+02  0.16217366594E+02  0.00000000000E+00 0. -1.
         22   -1    0    0    0    0 -0.00000000000E+00 -0.00000000000E+00 -0.57046377278E+00  0.57046377278E+00  0.00000000000E+00 0.  1.
          4    1    1    2  501    0 -0.85525282272E-01  0.16955436048E+01  0.13842068360E+02  0.14003497391E+02  0.12700000000E+01 0. -1.
         -4    1    1    2    0  501  0.85525282272E-01 -0.16955436048E+01  0.18048344616E+01  0.27843329764E+01  0.12700000000E+01 0.  1.
<mgrwt>
<rscale>  0 0.21201610E+01</rscale>
<asrwt>0</asrwt>
<pdfrwt beam="1">0</pdfrwt>
<pdfrwt beam="2">0</pdfrwt>
<totfact> 0.16629223E+12</totfact>
</mgrwt>
</event>
<event>
 4    1  0.1838758E+006  0.2167070E+01  0.7546771E-02  0.2876404E+00
         22   -1    0    0    0    0  0.00000000000E+00  0.00000000000E+00  0.52693852205E+01  0.52693852205E+01  0.00000000000E+00 0.  1.
         22   -1    0    0    0    0 -0.00000000000E+00 -0.00000000000E+00 -0.28944108810E+01  0.28944108810E+01  0.00000000000E+00 0. -1.
          4    1    1    2  501    0 -0.76474864863E+00  0.15806493201E+01  0.45832941592E+01  0.50697907372E+01  0.12700000000E+01 0.  1.
         -4    1    1    2    0  501  0.76474864863E+00 -0.15806493201E+01 -0.22083198197E+01  0.30940053644E+01  0.12700000000E+01 0. -1.
<mgrwt>
<rscale>  0 0.21670701E+01</rscale>
<asrwt>0</asrwt>
<pdfrwt beam="1">0</pdfrwt>
<pdfrwt beam="2">0</pdfrwt>
<totfact> 0.10027490E+12</totfact>
</mgrwt>
</event>
<event>
 4    1  0.1838758E+006  0.2610712E+01  0.7546771E-02  0.2661645E+00
         22   -1    0    0    0    0  0.00000000000E+00  0.00000000000E+00  0.98142693581E+00  0.98142693581E+00  0.00000000000E+00 0. -1.
         22   -1    0    0    0    0 -0.00000000000E+00 -0.00000000000E+00 -0.69555951843E+01  0.69555951843E+01  0.00000000000E+00 0.  1.
          4    1    1    2  501    0 -0.22698015803E+01 -0.22564851658E+00 -0.31434062572E+01  0.40861741721E+01  0.12700000000E+01 0.  1.
         -4    1    1    2    0  501  0.22698015803E+01  0.22564851658E+00 -0.28307619912E+01  0.38508479479E+01  0.12700000000E+01 0. -1.
<mgrwt>
<rscale>  0 0.26107119E+01</rscale>
<asrwt>0</asrwt>
<pdfrwt beam="1">0</pdfrwt>
<pdfrwt beam="2">0</pdfrwt>
<totfact> 0.25091401E+12</totfact>
</mgrwt>
</event>
<event>
 4    1  0.1838758E+006  0.3152216E+01  0.7546771E-02  0.2476162E+00
         22   -1    0    0    0    0  0.00000000000E+00  0.00000000000E+00  0.92823337505E+00  0.92823337505E+00  0.00000000000E+00 0.  1.
         22   -1    0    0    0    0 -0.00000000000E+00 -0.00000000000E+00 -0.15277086929E+02  0.15277086929E+02  0.00000000000E+00 0.  1.
          4    1    1    2  501    0  0.11062892944E+01 -0.26645240297E+01 -0.11607231563E+02  0.12027646855E+02  0.12700000000E+01 0.  1.
         -4    1    1    2    0  501 -0.11062892944E+01  0.26645240297E+01 -0.27416219912E+01  0.41776734494E+01  0.12700000000E+01 0.  1.
<mgrwt>
<rscale>  0 0.31522158E+01</rscale>
<asrwt>0</asrwt>
<pdfrwt beam="1">0</pdfrwt>
<pdfrwt beam="2">0</pdfrwt>
<totfact> 0.10297735E+12</totfact>
</mgrwt>
</event>
<event>
 4    1  0.1838758E+006  0.3309843E+01  0.7546771E-02  0.2432492E+00
         22   -1    0    0    0    0  0.00000000000E+00  0.00000000000E+00  0.29593599725E+01  0.29593599725E+01  0.00000000000E+00 0. -1.
         22   -1    0    0    0    0 -0.00000000000E+00 -0.00000000000E+00 -0.37339734015E+01  0.37339734015E+01  0.00000000000E+00 0.  1.
          4    1    1    2  501    0 -0.29775808268E+01  0.69005198676E+00 -0.69779543968E+00  0.33825992669E+01  0.12700000000E+01 0.  1.
         -4    1    1    2    0  501  0.29775808268E+01 -0.69005198676E+00 -0.76817989296E-01  0.33107341071E+01  0.12700000000E+01 0.  1.
<mgrwt>
<rscale>  0 0.33098428E+01</rscale>
<asrwt>0</asrwt>
<pdfrwt beam="1">0</pdfrwt>
<pdfrwt beam="2">0</pdfrwt>
<totfact> 0.14672392E+12</totfact>
</mgrwt>
</event>
<event>
 4    1  0.1838758E+006  0.2349562E+01  0.7546771E-02  0.2778813E+00
         22   -1    0    0    0    0  0.00000000000E+00  0.00000000000E+00  0.44201993615E+01  0.44201993615E+01  0.00000000000E+00 0. -1.
         22   -1    0    0    0    0 -0.00000000000E+00 -0.00000000000E+00 -0.16535650989E+01  0.16535650989E+01  0.00000000000E+00 0.  1.
          4    1    1    2  501    0  0.18323425402E+01 -0.74166286481E+00  0.28856230463E+01  0.37211911204E+01  0.12700000000E+01 0. -1.
         -4    1    1    2    0  501 -0.18323425402E+01  0.74166286481E+00 -0.11898878358E+00  0.23525733400E+01  0.12700000000E+01 0.  1.
<mgrwt>
<rscale>  0 0.23495623E+01</rscale>
<asrwt>0</asrwt>
<pdfrwt beam="1">0</pdfrwt>
<pdfrwt beam="2">0</pdfrwt>
<totfact> 0.23630571E+12</totfact>
</mgrwt>
</event>
<event>
 4    1  0.1838758E+006  0.2421866E+01  0.7546771E-02  0.2744012E+00
         22   -1    0    0    0    0  0.00000000000E+00  0.00000000000E+00  0.24056452922E+03  0.24056452922E+03  0.00000000000E+00 0.  1.
         22   -1    0    0    0    0 -0.00000000000E+00 -0.00000000000E+00 -0.38996011080E-01  0.38996011080E-01  0.00000000000E+00 0. -1.
          4    1    1    2  501    0 -0.33023323820E+00 -0.20355536484E+01  0.19390845686E+03  0.19392358050E+03  0.12700000000E+01 0.  1.
         -4    1    1    2    0  501  0.33023323820E+00  0.20355536484E+01  0.46617076350E+02  0.46679944731E+02  0.12700000000E+01 0.  1.
<mgrwt>
<rscale>  0 0.24218655E+01</rscale>
<asrwt>0</asrwt>
<pdfrwt beam="1">0</pdfrwt>
<pdfrwt beam="2">0</pdfrwt>
<totfact> 0.82040460E+11</totfact>
</mgrwt>
</event>
<event>
 4    1  0.1838758E+006  0.2411603E+01  0.7546771E-02  0.2748833E+00
         22   -1    0    0    0    0  0.00000000000E+00  0.00000000000E+00  0.64174138305E+00  0.64174138305E+00  0.00000000000E+00 0.  1.
         22   -1    0    0    0    0 -0.00000000000E+00 -0.00000000000E+00 -0.19160966922E+02  0.19160966922E+02  0.00000000000E+00 0. -1.
          4    1    1    2  501    0  0.13673808922E+01 -0.15274805766E+01 -0.20715466726E+01  0.31791717527E+01  0.12700000000E+01 0.  1.
         -4    1    1    2    0  501 -0.13673808922E+01  0.15274805766E+01 -0.16447678866E+02  0.16623536552E+02  0.12700000000E+01 0. -1.
<mgrwt>
<rscale>  0 0.24116027E+01</rscale>
<asrwt>0</asrwt>
<pdfrwt beam="1">0</pdfrwt>
<pdfrwt beam="2">0</pdfrwt>
<totfact> 0.11835821E+12</totfact>
</mgrwt>
</event>
<event>
 4    1  0.1838758E+006  0.3089794E+01  0.7546771E-02  0.2494544E+00
         22   -1    0    0    0    0  0.00000000000E+00  0.00000000000E+00  0.22123504091E+01  0.22123504091E+01  0.00000000000E+00 0.  1.
         22   -1    0    0    0    0 -0.00000000000E+00 -0.00000000000E+00 -0.43187309166E+01  0.43187309166E+01  0.00000000000E+00 0. -1.
          4    1    1    2  501    0  0.26926506353E+01  0.82677731433E+00 -0.11460015274E+01  0.32954738160E+01  0.12700000000E+01 0. -1.
         -4    1    1    2    0  501 -0.26926506353E+01 -0.82677731433E+00 -0.96037898016E+00  0.32356075097E+01  0.12700000000E+01 0.  1.
<mgrwt>
<rscale>  0 0.30897942E+01</rscale>
<asrwt>0</asrwt>
<pdfrwt beam="1">0</pdfrwt>
<pdfrwt beam="2">0</pdfrwt>
<totfact> 0.17345338E+12</totfact>
</mgrwt>
</event>
<event>
 4    1  0.1838758E+006  0.2161587E+01  0.7546771E-02  0.2879580E+00
         22   -1    0    0    0    0  0.00000000000E+00  0.00000000000E+00  0.96816745070E-01  0.96816745070E-01  0.00000000000E+00 0.  1.
         22   -1    0    0    0    0 -0.00000000000E+00 -0.00000000000E+00 -0.83782246671E+02  0.83782246671E+02  0.00000000000E+00 0. -1.
          4    1    1    2  501    0 -0.10072122643E+00 -0.17462574932E+01 -0.14534551587E+02  0.14694408794E+02  0.12700000000E+01 0.  1.
         -4    1    1    2    0  501  0.10072122643E+00  0.17462574932E+01 -0.69150878339E+02  0.69184654621E+02  0.12700000000E+01 0. -1.
<mgrwt>
<rscale>  0 0.21615874E+01</rscale>
<asrwt>0</asrwt>
<pdfrwt beam="1">0</pdfrwt>
<pdfrwt beam="2">0</pdfrwt>
<totfact> 0.14376453E+12</totfact>
</mgrwt>
</event>
<event>
 4    1  0.1838758E+006  0.2111591E+01  0.7546771E-02  0.2909270E+00
         22   -1    0    0    0    0  0.00000000000E+00  0.00000000000E+00  0.94563117793E+01  0.94563117793E+01  0.00000000000E+00 0. -1.
         22   -1    0    0    0    0 -0.00000000000E+00 -0.00000000000E+00 -0.27884353237E+01  0.27884353237E+01  0.00000000000E+00 0.  1.
          4    1    1    2  501    0  0.16157000878E+01 -0.48520968612E+00  0.89147177359E+01  0.91613867686E+01  0.12700000000E+01 0. -1.
         -4    1    1    2    0  501 -0.16157000878E+01  0.48520968612E+00 -0.22468412803E+01  0.30833603345E+01  0.12700000000E+01 0.  1.
<mgrwt>
<rscale>  0 0.21115907E+01</rscale>
<asrwt>0</asrwt>
<pdfrwt beam="1">0</pdfrwt>
<pdfrwt beam="2">0</pdfrwt>
<totfact> 0.52020133E+11</totfact>
</mgrwt>
</event>
<event>
 4    1  0.1838758E+006  0.2945572E+01  0.7546771E-02  0.2539665E+00
         22   -1    0    0    0    0  0.00000000000E+00  0.00000000000E+00  0.10130768776E+02  0.10130768776E+02  0.00000000000E+00 0.  1.
         22   -1    0    0    0    0 -0.00000000000E+00 -0.00000000000E+00 -0.93697374277E+00  0.93697374277E+00  0.00000000000E+00 0. -1.
          4    1    1    2  501    0  0.47515192866E+00 -0.26149039040E+01  0.62192876699E+01  0.68815645680E+01  0.12700000000E+01 0.  1.
         -4    1    1    2    0  501 -0.47515192866E+00  0.26149039040E+01  0.29745073638E+01  0.41861779513E+01  0.12700000000E+01 0. -1.
<mgrwt>
<rscale>  0 0.29455716E+01</rscale>
<asrwt>0</asrwt>
<pdfrwt beam="1">0</pdfrwt>
<pdfrwt beam="2">0</pdfrwt>
<totfact> 0.16825274E+12</totfact>
</mgrwt>
</event>
<event>
 4    1  0.1838758E+006  0.2641773E+01  0.7546771E-02  0.2649145E+00
         22   -1    0    0    0    0  0.00000000000E+00  0.00000000000E+00  0.36931095283E+01  0.36931095283E+01  0.00000000000E+00 0.  1.
         22   -1    0    0    0    0 -0.00000000000E+00 -0.00000000000E+00 -0.26892669849E+01  0.26892669849E+01  0.00000000000E+00 0.  1.
          4    1    1    2  501    0 -0.12980007273E+00 -0.23128368242E+01  0.22419484864E+01  0.34648658344E+01  0.12700000000E+01 0.  1.
         -4    1    1    2    0  501  0.12980007273E+00  0.23128368242E+01 -0.12381059430E+01  0.29175106787E+01  0.12700000000E+01 0.  1.
<mgrwt>
<rscale>  0 0.26417726E+01</rscale>
<asrwt>0</asrwt>
<pdfrwt beam="1">0</pdfrwt>
<pdfrwt beam="2">0</pdfrwt>
<totfact> 0.16618424E+12</totfact>
</mgrwt>
</event>
<event>
 4    1  0.1838758E+006  0.2663146E+01  0.7546771E-02  0.2640699E+00
         22   -1    0    0    0    0  0.00000000000E+00  0.00000000000E+00  0.41394256095E+00  0.41394256095E+00  0.00000000000E+00 0.  1.
         22   -1    0    0    0    0 -0.00000000000E+00 -0.00000000000E+00 -0.17272438269E+02  0.17272438269E+02  0.00000000000E+00 0. -1.
          4    1    1    2  501    0  0.22876658333E+01  0.49601766617E+00 -0.92219366989E+01  0.95987741388E+01  0.12700000000E+01 0. -1.
         -4    1    1    2    0  501 -0.22876658333E+01 -0.49601766617E+00 -0.76365590091E+01  0.80876066911E+01  0.12700000000E+01 0.  1.
<mgrwt>
<rscale>  0 0.26631464E+01</rscale>
<asrwt>0</asrwt>
<pdfrwt beam="1">0</pdfrwt>
<pdfrwt beam="2">0</pdfrwt>
<totfact> 0.22094325E+12</totfact>
</mgrwt>
</event>
<event>
 4    1  0.1838758E+006  0.2010083E+01  0.7546771E-02  0.2973954E+00
         22   -1    0    0    0    0  0.00000000000E+00  0.00000000000E+00  0.38506827700E+01  0.38506827700E+01  0.00000000000E+00 0. -1.
         22   -1    0    0    0    0 -0.00000000000E+00 -0.00000000000E+00 -0.39129007509E+01  0.39129007509E+01  0.00000000000E+00 0. -1.
          4    1    1    2  501    0 -0.14660838293E+01  0.52738049993E+00  0.32896764242E+01  0.38551787199E+01  0.12700000000E+01 0. -1.
         -4    1    1    2    0  501  0.14660838293E+01 -0.52738049993E+00 -0.33518944051E+01  0.39084048011E+01  0.12700000000E+01 0. -1.
<mgrwt>
<rscale>  0 0.20100826E+01</rscale>
<asrwt>0</asrwt>
<pdfrwt beam="1">0</pdfrwt>
<pdfrwt beam="2">0</pdfrwt>
<totfact> 0.10199807E+12</totfact>
</mgrwt>
</event>
<event>
 4    1  0.1838758E+006  0.2780138E+01  0.7546771E-02  0.2596583E+00
         22   -1    0    0    0    0  0.00000000000E+00  0.00000000000E+00  0.10428924262E+02  0.10428924262E+02  0.00000000000E+00 0.  1.
         22   -1    0    0    0    0 -0.00000000000E+00 -0.00000000000E+00 -0.15509572476E+01  0.15509572476E+01  0.00000000000E+00 0. -1.
          4    1    1    2  501    0  0.22451482174E+01 -0.10370990441E+01  0.87673040444E+01  0.91975423430E+01  0.12700000000E+01 0.  1.
         -4    1    1    2    0  501 -0.22451482174E+01  0.10370990441E+01  0.11066297006E+00  0.27823391666E+01  0.12700000000E+01 0. -1.
<mgrwt>
<rscale>  0 0.27801376E+01</rscale>
<asrwt>0</asrwt>
<pdfrwt beam="1">0</pdfrwt>
<pdfrwt beam="2">0</pdfrwt>
<totfact> 0.91177252E+11</totfact>
</mgrwt>
</event>
<event>
 4    1  0.1838758E+006  0.2162782E+01  0.7546771E-02  0.2878887E+00
         22   -1    0    0    0    0  0.00000000000E+00  0.00000000000E+00  0.10248791568E+01  0.10248791568E+01  0.00000000000E+00 0. -1.
         22   -1    0    0    0    0 -0.00000000000E+00 -0.00000000000E+00 -0.85202458213E+01  0.85202458213E+01  0.00000000000E+00 0. -1.
          4    1    1    2  501    0 -0.17261952533E+01  0.29150283086E+00 -0.49558886239E+00  0.22188357923E+01  0.12700000000E+01 0. -1.
         -4    1    1    2    0  501  0.17261952533E+01 -0.29150283086E+00 -0.69997778021E+01  0.73262891857E+01  0.12700000000E+01 0. -1.
<mgrwt>
<rscale>  0 0.21627815E+01</rscale>
<asrwt>0</asrwt>
<pdfrwt beam="1">0</pdfrwt>
<pdfrwt beam="2">0</pdfrwt>
<totfact> 0.18718938E+12</totfact>
</mgrwt>
</event>
<event>
 4    1  0.1838758E+006  0.2027762E+01  0.7546771E-02  0.2962234E+00
         22   -1    0    0    0    0  0.00000000000E+00  0.00000000000E+00  0.52550687278E+01  0.52550687278E+01  0.00000000000E+00 0. -1.
         22   -1    0    0    0    0 -0.00000000000E+00 -0.00000000000E+00 -0.88639095221E+00  0.88639095221E+00  0.00000000000E+00 0. -1.
          4    1    1    2  501    0  0.14075569276E+01 -0.71951547869E+00  0.11327982203E+01  0.23227248731E+01  0.12700000000E+01 0. -1.
         -4    1    1    2    0  501 -0.14075569276E+01  0.71951547869E+00  0.32358795554E+01  0.38187348069E+01  0.12700000000E+01 0. -1.
<mgrwt>
<rscale>  0 0.20277621E+01</rscale>
<asrwt>0</asrwt>
<pdfrwt beam="1">0</pdfrwt>
<pdfrwt beam="2">0</pdfrwt>
<totfact> 0.39347002E+12</totfact>
</mgrwt>
</event>
<event>
 4    1  0.1838758E+006  0.4617960E+01  0.7546771E-02  0.2172741E+00
         22   -1    0    0    0    0  0.00000000000E+00  0.00000000000E+00  0.11700484939E+01  0.11700484939E+01  0.00000000000E+00 0.  1.
         22   -1    0    0    0    0 -0.00000000000E+00 -0.00000000000E+00 -0.20779050952E+02  0.20779050952E+02  0.00000000000E+00 0. -1.
          4    1    1    2  501    0  0.13198349405E+01  0.42391849602E+01 -0.59578265683E+01  0.75379871858E+01  0.12700000000E+01 0.  1.
         -4    1    1    2    0  501 -0.13198349405E+01 -0.42391849602E+01 -0.13651175890E+02  0.14411112260E+02  0.12700000000E+01 0. -1.
<mgrwt>
<rscale>  0 0.46179599E+01</rscale>
<asrwt>0</asrwt>
<pdfrwt beam="1">0</pdfrwt>
<pdfrwt beam="2">0</pdfrwt>
<totfact> 0.53971124E+11</totfact>
</mgrwt>
</event>
<event>
 4    1  0.1838758E+006  0.3405810E+01  0.7546771E-02  0.2407657E+00
         22   -1    0    0    0    0  0.00000000000E+00  0.00000000000E+00  0.95977834483E+01  0.95977834483E+01  0.00000000000E+00 0.  1.
         22   -1    0    0    0    0 -0.00000000000E+00 -0.00000000000E+00 -0.21744078966E+01  0.21744078966E+01  0.00000000000E+00 0. -1.
          4    1    1    2  501    0 -0.17280818550E+01  0.26458219535E+01  0.76346141537E+01  0.83598369591E+01  0.12700000000E+01 0.  1.
         -4    1    1    2    0  501  0.17280818550E+01 -0.26458219535E+01 -0.21123860190E+00  0.34123543858E+01  0.12700000000E+01 0. -1.
<mgrwt>
<rscale>  0 0.34058098E+01</rscale>
<asrwt>0</asrwt>
<pdfrwt beam="1">0</pdfrwt>
<pdfrwt beam="2">0</pdfrwt>
<totfact> 0.68237484E+11</totfact>
</mgrwt>
</event>
<event>
 4    1  0.1838758E+006  0.2380137E+01  0.7546771E-02  0.2763854E+00
         22   -1    0    0    0    0  0.00000000000E+00  0.00000000000E+00  0.10497607539E+01  0.10497607539E+01  0.00000000000E+00 0.  1.
         22   -1    0    0    0    0 -0.00000000000E+00 -0.00000000000E+00 -0.68638354437E+01  0.68638354437E+01  0.00000000000E+00 0.  1.
          4    1    1    2  501    0  0.19390711695E+01 -0.54051512490E+00 -0.10775795842E+01  0.26127057548E+01  0.12700000000E+01 0.  1.
         -4    1    1    2    0  501 -0.19390711695E+01  0.54051512490E+00 -0.47364951057E+01  0.53008904428E+01  0.12700000000E+01 0.  1.
<mgrwt>
<rscale>  0 0.23801373E+01</rscale>
<asrwt>0</asrwt>
<pdfrwt beam="1">0</pdfrwt>
<pdfrwt beam="2">0</pdfrwt>
<totfact> 0.23605952E+12</totfact>
</mgrwt>
</event>
<event>
 4    1  0.1838758E+006  0.2156296E+01  0.7546771E-02  0.2882659E+00
         22   -1    0    0    0    0  0.00000000000E+00  0.00000000000E+00  0.57298228122E+01  0.57298228122E+01  0.00000000000E+00 0.  1.
         22   -1    0    0    0    0 -0.00000000000E+00 -0.00000000000E+00 -0.82221219464E+00  0.82221219464E+00  0.00000000000E+00 0.  1.
          4    1    1    2  501    0 -0.17225478781E+01 -0.26370324902E+00  0.20794444898E+01  0.29956134567E+01  0.12700000000E+01 0.  1.
         -4    1    1    2    0  501  0.17225478781E+01  0.26370324902E+00  0.28281661277E+01  0.35564215501E+01  0.12700000000E+01 0.  1.
<mgrwt>
<rscale>  0 0.21562956E+01</rscale>
<asrwt>0</asrwt>
<pdfrwt beam="1">0</pdfrwt>
<pdfrwt beam="2">0</pdfrwt>
<totfact> 0.38681746E+12</totfact>
</mgrwt>
</event>
<event>
 4    1  0.1838758E+006  0.2127513E+01  0.7546771E-02  0.2899668E+00
         22   -1    0    0    0    0  0.00000000000E+00  0.00000000000E+00  0.53336866589E+01  0.53336866589E+01  0.00000000000E+00 0.  1.
         22   -1    0    0    0    0 -0.00000000000E+00 -0.00000000000E+00 -0.13566794071E+01  0.13566794071E+01  0.00000000000E+00 0. -1.
          4    1    1    2  501    0  0.15315540074E+01  0.75349555795E+00  0.40355859447E+01  0.45620463775E+01  0.12700000000E+01 0.  1.
         -4    1    1    2    0  501 -0.15315540074E+01 -0.75349555795E+00 -0.58578692880E-01  0.21283196886E+01  0.12700000000E+01 0. -1.
<mgrwt>
<rscale>  0 0.21275134E+01</rscale>
<asrwt>0</asrwt>
<pdfrwt beam="1">0</pdfrwt>
<pdfrwt beam="2">0</pdfrwt>
<totfact> 0.23758879E+12</totfact>
</mgrwt>
</event>
<event>
 4    1  0.1838758E+006  0.2754157E+01  0.7546771E-02  0.2606084E+00
         22   -1    0    0    0    0  0.00000000000E+00  0.00000000000E+00  0.58055682620E+02  0.58055682620E+02  0.00000000000E+00 0.  1.
         22   -1    0    0    0    0 -0.00000000000E+00 -0.00000000000E+00 -0.20362071380E+00  0.20362071380E+00  0.00000000000E+00 0. -1.
          4    1    1    2  501    0  0.20277316152E+00 -0.24354389371E+01  0.46363275518E+02  0.46445007229E+02  0.12700000000E+01 0.  1.
         -4    1    1    2    0  501 -0.20277316152E+00  0.24354389371E+01  0.11488786388E+02  0.11814296104E+02  0.12700000000E+01 0. -1.
<mgrwt>
<rscale>  0 0.27541568E+01</rscale>
<asrwt>0</asrwt>
<pdfrwt beam="1">0</pdfrwt>
<pdfrwt beam="2">0</pdfrwt>
<totfact> 0.10353996E+12</totfact>
</mgrwt>
</event>
<event>
 4    1  0.1838758E+006  0.2036790E+01  0.7546771E-02  0.2956326E+00
         22   -1    0    0    0    0  0.00000000000E+00  0.00000000000E+00  0.16099694763E+01  0.16099694763E+01  0.00000000000E+00 0. -1.
         22   -1    0    0    0    0 -0.00000000000E+00 -0.00000000000E+00 -0.26921641665E+01  0.26921641665E+01  0.00000000000E+00 0. -1.
          4    1    1    2  501    0 -0.15837960973E+01 -0.16492922827E+00 -0.95742735727E-01  0.20390385969E+01  0.12700000000E+01 0. -1.
         -4    1    1    2    0  501  0.15837960973E+01  0.16492922827E+00 -0.98645195450E+00  0.22630950459E+01  0.12700000000E+01 0. -1.
<mgrwt>
<rscale>  0 0.20367896E+01</rscale>
<asrwt>0</asrwt>
<pdfrwt beam="1">0</pdfrwt>
<pdfrwt beam="2">0</pdfrwt>
<totfact> 0.43578559E+12</totfact>
</mgrwt>
</event>
<event>
 4    1  0.1838758E+006  0.3528887E+01  0.7546771E-02  0.2377545E+00
         22   -1    0    0    0    0  0.00000000000E+00  0.00000000000E+00  0.59348106189E+00  0.59348106189E+00  0.00000000000E+00 0.  1.
         22   -1    0    0    0    0 -0.00000000000E+00 -0.00000000000E+00 -0.21908886061E+02  0.21908886061E+02  0.00000000000E+00 0. -1.
          4    1    1    2  501    0 -0.24740988406E+01 -0.21723205650E+01 -0.83448095251E+01  0.90602918121E+01  0.12700000000E+01 0.  1.
         -4    1    1    2    0  501  0.24740988406E+01  0.21723205650E+01 -0.12970595474E+02  0.13442075310E+02  0.12700000000E+01 0. -1.
<mgrwt>
<rscale>  0 0.35288868E+01</rscale>
<asrwt>0</asrwt>
<pdfrwt beam="1">0</pdfrwt>
<pdfrwt beam="2">0</pdfrwt>
<totfact> 0.10939917E+12</totfact>
</mgrwt>
</event>
<event>
 4    1  0.1838758E+006  0.2106927E+01  0.7546771E-02  0.2912109E+00
         22   -1    0    0    0    0  0.00000000000E+00  0.00000000000E+00  0.77257553110E+00  0.77257553110E+00  0.00000000000E+00 0.  1.
         22   -1    0    0    0    0 -0.00000000000E+00 -0.00000000000E+00 -0.64465156291E+01  0.64465156291E+01  0.00000000000E+00 0.  1.
          4    1    1    2  501    0 -0.98632150933E+00 -0.13614003600E+01 -0.40269241099E+01  0.45448056996E+01  0.12700000000E+01 0.  1.
         -4    1    1    2    0  501  0.98632150933E+00  0.13614003600E+01 -0.16470159881E+01  0.26742854607E+01  0.12700000000E+01 0.  1.
<mgrwt>
<rscale>  0 0.21069269E+01</rscale>
<asrwt>0</asrwt>
<pdfrwt beam="1">0</pdfrwt>
<pdfrwt beam="2">0</pdfrwt>
<totfact> 0.36083582E+12</totfact>
</mgrwt>
</event>
<event>
 4    1  0.1838758E+006  0.2849103E+01  0.7546771E-02  0.2572128E+00
         22   -1    0    0    0    0  0.00000000000E+00  0.00000000000E+00  0.16319688484E+02  0.16319688484E+02  0.00000000000E+00 0.  1.
         22   -1    0    0    0    0 -0.00000000000E+00 -0.00000000000E+00 -0.99154531702E+00  0.99154531702E+00  0.00000000000E+00 0.  1.
          4    1    1    2  501    0 -0.96139147928E-01  0.25485766686E+01  0.13774474086E+02  0.14066041452E+02  0.12700000000E+01 0.  1.
         -4    1    1    2    0  501  0.96139147928E-01 -0.25485766686E+01  0.15536690809E+01  0.32451923494E+01  0.12700000000E+01 0.  1.
<mgrwt>
<rscale>  0 0.28491026E+01</rscale>
<asrwt>0</asrwt>
<pdfrwt beam="1">0</pdfrwt>
<pdfrwt beam="2">0</pdfrwt>
<totfact> 0.88039386E+11</totfact>
</mgrwt>
</event>
<event>
 4    1  0.1838758E+006  0.8354937E+01  0.7546771E-02  0.1856444E+00
         22   -1    0    0    0    0  0.00000000000E+00  0.00000000000E+00  0.36176692217E+02  0.36176692217E+02  0.00000000000E+00 0.  1.
         22   -1    0    0    0    0 -0.00000000000E+00 -0.00000000000E+00 -0.34455675697E+01  0.34455675697E+01  0.00000000000E+00 0. -1.
          4    1    1    2  501    0 -0.35200706227E+01 -0.74700184819E+01  0.29506611468E+02  0.30666677251E+02  0.12700000000E+01 0.  1.
         -4    1    1    2    0  501  0.35200706227E+01  0.74700184819E+01  0.32245131794E+01  0.89555825357E+01  0.12700000000E+01 0. -1.
<mgrwt>
<rscale>  0 0.83549371E+01</rscale>
<asrwt>0</asrwt>
<pdfrwt beam="1">0</pdfrwt>
<pdfrwt beam="2">0</pdfrwt>
<totfact> 0.76492352E+10</totfact>
</mgrwt>
</event>
<event>
 4    1  0.1838758E+006  0.2729103E+01  0.7546771E-02  0.2615403E+00
         22   -1    0    0    0    0  0.00000000000E+00  0.00000000000E+00  0.45542731987E+00  0.45542731987E+00  0.00000000000E+00 0. -1.
         22   -1    0    0    0    0 -0.00000000000E+00 -0.00000000000E+00 -0.22440160271E+02  0.22440160271E+02  0.00000000000E+00 0.  1.
          4    1    1    2  501    0  0.33661742804E+00 -0.23920271145E+01 -0.50304663690E+01  0.57230758250E+01  0.12700000000E+01 0. -1.
         -4    1    1    2    0  501 -0.33661742804E+00  0.23920271145E+01 -0.16954266582E+02  0.17172511766E+02  0.12700000000E+01 0.  1.
<mgrwt>
<rscale>  0 0.27291033E+01</rscale>
<asrwt>0</asrwt>
<pdfrwt beam="1">0</pdfrwt>
<pdfrwt beam="2">0</pdfrwt>
<totfact> 0.14318264E+12</totfact>
</mgrwt>
</event>
<event>
 4    1  0.1838758E+006  0.7349612E+01  0.7546771E-02  0.1916309E+00
         22   -1    0    0    0    0  0.00000000000E+00  0.00000000000E+00  0.43547532100E+02  0.43547532100E+02  0.00000000000E+00 0.  1.
         22   -1    0    0    0    0 -0.00000000000E+00 -0.00000000000E+00 -0.13261026203E+01  0.13261026203E+01  0.00000000000E+00 0. -1.
          4    1    1    2  501    0 -0.35951047669E+00 -0.72301208162E+01  0.26814253115E+02  0.27803254574E+02  0.12700000000E+01 0.  1.
         -4    1    1    2    0  501  0.35951047669E+00  0.72301208162E+01  0.15407176365E+02  0.17070380147E+02  0.12700000000E+01 0. -1.
<mgrwt>
<rscale>  0 0.73496119E+01</rscale>
<asrwt>0</asrwt>
<pdfrwt beam="1">0</pdfrwt>
<pdfrwt beam="2">0</pdfrwt>
<totfact> 0.18194557E+11</totfact>
</mgrwt>
</event>
<event>
 4    1  0.1838758E+006  0.2239360E+01  0.7546771E-02  0.2835932E+00
         22   -1    0    0    0    0  0.00000000000E+00  0.00000000000E+00  0.14460739433E+02  0.14460739433E+02  0.00000000000E+00 0.  1.
         22   -1    0    0    0    0 -0.00000000000E+00 -0.00000000000E+00 -0.35150458484E+00  0.35150458484E+00  0.00000000000E+00 0. -1.
          4    1    1    2  501    0 -0.17220447944E+01  0.66060283112E+00  0.61962312563E+01  0.65884760116E+01  0.12700000000E+01 0.  1.
         -4    1    1    2    0  501  0.17220447944E+01 -0.66060283112E+00  0.79130035914E+01  0.82237680058E+01  0.12700000000E+01 0. -1.
<mgrwt>
<rscale>  0 0.22393603E+01</rscale>
<asrwt>0</asrwt>
<pdfrwt beam="1">0</pdfrwt>
<pdfrwt beam="2">0</pdfrwt>
<totfact> 0.33060945E+12</totfact>
</mgrwt>
</event>
<event>
 4    1  0.1838758E+006  0.2314073E+01  0.7546771E-02  0.2796644E+00
         22   -1    0    0    0    0  0.00000000000E+00  0.00000000000E+00  0.89990944145E+01  0.89990944145E+01  0.00000000000E+00 0.  1.
         22   -1    0    0    0    0 -0.00000000000E+00 -0.00000000000E+00 -0.64749084363E+00  0.64749084363E+00  0.00000000000E+00 0.  1.
          4    1    1    2  501    0  0.18186646732E+01 -0.65915997839E+00  0.55484256181E+01  0.60116520118E+01  0.12700000000E+01 0.  1.
         -4    1    1    2    0  501 -0.18186646732E+01  0.65915997839E+00  0.28031779528E+01  0.36349332464E+01  0.12700000000E+01 0.  1.
<mgrwt>
<rscale>  0 0.23140728E+01</rscale>
<asrwt>0</asrwt>
<pdfrwt beam="1">0</pdfrwt>
<pdfrwt beam="2">0</pdfrwt>
<totfact> 0.29555259E+12</totfact>
</mgrwt>
</event>
<event>
 4    1  0.1838758E+006  0.3096559E+01  0.7546771E-02  0.2492520E+00
         22   -1    0    0    0    0  0.00000000000E+00  0.00000000000E+00  0.32359056960E+02  0.32359056960E+02  0.00000000000E+00 0. -1.
         22   -1    0    0    0    0 -0.00000000000E+00 -0.00000000000E+00 -0.67712429848E+00  0.67712429848E+00  0.00000000000E+00 0.  1.
          4    1    1    2  501    0 -0.24459597729E+01 -0.14117573877E+01  0.28228242484E+02  0.28397576514E+02  0.12700000000E+01 0. -1.
         -4    1    1    2    0  501  0.24459597729E+01  0.14117573877E+01  0.34536901770E+01  0.46386047440E+01  0.12700000000E+01 0.  1.
<mgrwt>
<rscale>  0 0.30965591E+01</rscale>
<asrwt>0</asrwt>
<pdfrwt beam="1">0</pdfrwt>
<pdfrwt beam="2">0</pdfrwt>
<totfact> 0.57503308E+11</totfact>
</mgrwt>
</event>
<event>
 4    1  0.1838758E+006  0.7678604E+01  0.7546771E-02  0.1895416E+00
         22   -1    0    0    0    0  0.00000000000E+00  0.00000000000E+00  0.35576338210E+00  0.35576338210E+00  0.00000000000E+00 0.  1.
         22   -1    0    0    0    0 -0.00000000000E+00 -0.00000000000E+00 -0.23076623974E+03  0.23076623974E+03  0.00000000000E+00 0. -1.
          4    1    1    2  501    0 -0.10000733175E+01 -0.75065246011E+01 -0.53857278548E+02  0.54401906316E+02  0.12700000000E+01 0.  1.
         -4    1    1    2    0  501  0.10000733175E+01  0.75065246011E+01 -0.17655319781E+03  0.17672009681E+03  0.12700000000E+01 0. -1.
<mgrwt>
<rscale>  0 0.76786039E+01</rscale>
<asrwt>0</asrwt>
<pdfrwt beam="1">0</pdfrwt>
<pdfrwt beam="2">0</pdfrwt>
<totfact> 0.75491956E+10</totfact>
</mgrwt>
</event>
<event>
 4    1  0.1838758E+006  0.3834605E+01  0.7546771E-02  0.2310071E+00
         22   -1    0    0    0    0  0.00000000000E+00  0.00000000000E+00  0.13638344735E+02  0.13638344735E+02  0.00000000000E+00 0.  1.
         22   -1    0    0    0    0 -0.00000000000E+00 -0.00000000000E+00 -0.14506627252E+02  0.14506627252E+02  0.00000000000E+00 0. -1.
          4    1    1    2  501    0  0.26009874003E+01  0.25151852861E+01  0.13105307090E+02  0.13654789138E+02  0.12700000000E+01 0.  1.
         -4    1    1    2    0  501 -0.26009874003E+01 -0.25151852861E+01 -0.13973589608E+02  0.14490182849E+02  0.12700000000E+01 0. -1.
<mgrwt>
<rscale>  0 0.38346046E+01</rscale>
<asrwt>0</asrwt>
<pdfrwt beam="1">0</pdfrwt>
<pdfrwt beam="2">0</pdfrwt>
<totfact> 0.46496956E+10</totfact>
</mgrwt>
</event>
<event>
 4    1  0.1838758E+006  0.3332313E+01  0.7546771E-02  0.2426565E+00
         22   -1    0    0    0    0  0.00000000000E+00  0.00000000000E+00  0.24061769873E+02  0.24061769873E+02  0.00000000000E+00 0.  1.
         22   -1    0    0    0    0 -0.00000000000E+00 -0.00000000000E+00 -0.15476009585E+01  0.15476009585E+01  0.00000000000E+00 0. -1.
          4    1    1    2  501    0 -0.16784907664E+01 -0.25834232796E+01  0.21984032474E+02  0.22235152145E+02  0.12700000000E+01 0.  1.
         -4    1    1    2    0  501  0.16784907664E+01  0.25834232796E+01  0.53013643976E+00  0.33742186858E+01  0.12700000000E+01 0. -1.
<mgrwt>
<rscale>  0 0.33323126E+01</rscale>
<asrwt>0</asrwt>
<pdfrwt beam="1">0</pdfrwt>
<pdfrwt beam="2">0</pdfrwt>
<totfact> 0.32570187E+11</totfact>
</mgrwt>
</event>
<event>
 4    1  0.1838758E+006  0.3648662E+01  0.7546771E-02  0.2349945E+00
         22   -1    0    0    0    0  0.00000000000E+00  0.00000000000E+00  0.32350521322E+02  0.32350521322E+02  0.00000000000E+00 0. -1.
         22   -1    0    0    0    0 -0.00000000000E+00 -0.00000000000E+00 -0.44003737256E+00  0.44003737256E+00  0.00000000000E+00 0.  1.
          4    1    1    2  501    0 -0.34199941480E+01 -0.58966574560E-01  0.11781131097E+02  0.12333198569E+02  0.12700000000E+01 0.  1.
         -4    1    1    2    0  501  0.34199941480E+01  0.58966574560E-01  0.20129352853E+02  0.20457360125E+02  0.12700000000E+01 0. -1.
<mgrwt>
<rscale>  0 0.36486624E+01</rscale>
<asrwt>0</asrwt>
<pdfrwt beam="1">0</pdfrwt>
<pdfrwt beam="2">0</pdfrwt>
<totfact> 0.93647391E+11</totfact>
</mgrwt>
</event>
<event>
 4    1  0.1838758E+006  0.2845796E+01  0.7546771E-02  0.2573276E+00
         22   -1    0    0    0    0  0.00000000000E+00  0.00000000000E+00  0.19516468445E+00  0.19516468445E+00  0.00000000000E+00 0. -1.
         22   -1    0    0    0    0 -0.00000000000E+00 -0.00000000000E+00 -0.41497148074E+02  0.41497148074E+02  0.00000000000E+00 0.  1.
          4    1    1    2  501    0 -0.15875833016E+01  0.19912892242E+01 -0.20760696699E+02  0.20954834310E+02  0.12700000000E+01 0. -1.
         -4    1    1    2    0  501  0.15875833016E+01 -0.19912892242E+01 -0.20541286690E+02  0.20737478448E+02  0.12700000000E+01 0.  1.
<mgrwt>
<rscale>  0 0.28457958E+01</rscale>
<asrwt>0</asrwt>
<pdfrwt beam="1">0</pdfrwt>
<pdfrwt beam="2">0</pdfrwt>
<totfact> 0.16895029E+12</totfact>
</mgrwt>
</event>
<event>
 4    1  0.1838758E+006  0.3322790E+01  0.7546771E-02  0.2429068E+00
         22   -1    0    0    0    0  0.00000000000E+00  0.00000000000E+00  0.48511050035E+01  0.48511050035E+01  0.00000000000E+00 0.  1.
         22   -1    0    0    0    0 -0.00000000000E+00 -0.00000000000E+00 -0.35439102187E+01  0.35439102187E+01  0.00000000000E+00 0.  1.
          4    1    1    2  501    0  0.25656580966E+01  0.16868400564E+01  0.31643324619E+01  0.45884562517E+01  0.12700000000E+01 0.  1.
         -4    1    1    2    0  501 -0.25656580966E+01 -0.16868400564E+01 -0.18571376771E+01  0.38065589705E+01  0.12700000000E+01 0.  1.
<mgrwt>
<rscale>  0 0.33227896E+01</rscale>
<asrwt>0</asrwt>
<pdfrwt beam="1">0</pdfrwt>
<pdfrwt beam="2">0</pdfrwt>
<totfact> 0.87275160E+11</totfact>
</mgrwt>
</event>
<event>
 4    1  0.1838758E+006  0.2199924E+01  0.7546771E-02  0.2857695E+00
         22   -1    0    0    0    0  0.00000000000E+00  0.00000000000E+00  0.11890712264E+02  0.11890712264E+02  0.00000000000E+00 0. -1.
         22   -1    0    0    0    0 -0.00000000000E+00 -0.00000000000E+00 -0.44051258850E+00  0.44051258850E+00  0.00000000000E+00 0. -1.
          4    1    1    2  501    0  0.13427974521E+01  0.11931722235E+01  0.40248138160E+01  0.45868062097E+01  0.12700000000E+01 0. -1.
         -4    1    1    2    0  501 -0.13427974521E+01 -0.11931722235E+01  0.74253858600E+01  0.77444186433E+01  0.12700000000E+01 0. -1.
<mgrwt>
<rscale>  0 0.21999239E+01</rscale>
<asrwt>0</asrwt>
<pdfrwt beam="1">0</pdfrwt>
<pdfrwt beam="2">0</pdfrwt>
<totfact> 0.32582901E+12</totfact>
</mgrwt>
</event>
<event>
 4    1  0.1838758E+006  0.2227475E+01  0.7546771E-02  0.2842413E+00
         22   -1    0    0    0    0  0.00000000000E+00  0.00000000000E+00  0.17783220980E+01  0.17783220980E+01  0.00000000000E+00 0. -1.
         22   -1    0    0    0    0 -0.00000000000E+00 -0.00000000000E+00 -0.28777215398E+01  0.28777215398E+01  0.00000000000E+00 0. -1.
          4    1    1    2  501    0  0.14527941880E+01 -0.11127149475E+01 -0.14340691335E+00  0.22320867030E+01  0.12700000000E+01 0. -1.
         -4    1    1    2    0  501 -0.14527941880E+01  0.11127149475E+01 -0.95599252840E+00  0.24239569347E+01  0.12700000000E+01 0. -1.
<mgrwt>
<rscale>  0 0.22274751E+01</rscale>
<asrwt>0</asrwt>
<pdfrwt beam="1">0</pdfrwt>
<pdfrwt beam="2">0</pdfrwt>
<totfact> 0.35951621E+12</totfact>
</mgrwt>
</event>
<event>
 4    1  0.1838758E+006  0.2068751E+01  0.7546771E-02  0.2935814E+00
         22   -1    0    0    0    0  0.00000000000E+00  0.00000000000E+00  0.75077057293E+00  0.75077057293E+00  0.00000000000E+00 0.  1.
         22   -1    0    0    0    0 -0.00000000000E+00 -0.00000000000E+00 -0.78286714398E+01  0.78286714398E+01  0.00000000000E+00 0. -1.
          4    1    1    2  501    0  0.26163151217E+00  0.16119494911E+01 -0.13023256330E+01  0.24445417289E+01  0.12700000000E+01 0.  1.
         -4    1    1    2    0  501 -0.26163151217E+00 -0.16119494911E+01 -0.57755752339E+01  0.61349002838E+01  0.12700000000E+01 0.  1.
<mgrwt>
<rscale>  0 0.20687514E+01</rscale>
<asrwt>0</asrwt>
<pdfrwt beam="1">0</pdfrwt>
<pdfrwt beam="2">0</pdfrwt>
<totfact> 0.29544506E+12</totfact>
</mgrwt>
</event>
<event>
 4    1  0.1838758E+006  0.2197400E+01  0.7546771E-02  0.2859113E+00
         22   -1    0    0    0    0  0.00000000000E+00  0.00000000000E+00  0.26847558444E+00  0.26847558444E+00  0.00000000000E+00 0. -1.
         22   -1    0    0    0    0 -0.00000000000E+00 -0.00000000000E+00 -0.24479196885E+02  0.24479196885E+02  0.00000000000E+00 0. -1.
          4    1    1    2  501    0 -0.13566746431E+01  0.11726465545E+01 -0.57320594847E+01  0.61388168213E+01  0.12700000000E+01 0. -1.
         -4    1    1    2    0  501  0.13566746431E+01 -0.11726465545E+01 -0.18478661816E+02  0.18608855648E+02  0.12700000000E+01 0. -1.
<mgrwt>
<rscale>  0 0.21973998E+01</rscale>
<asrwt>0</asrwt>
<pdfrwt beam="1">0</pdfrwt>
<pdfrwt beam="2">0</pdfrwt>
<totfact> 0.23241324E+12</totfact>
</mgrwt>
</event>
<event>
 4    1  0.1838758E+006  0.2105646E+01  0.7546771E-02  0.2912891E+00
         22   -1    0    0    0    0  0.00000000000E+00  0.00000000000E+00  0.22739452926E+02  0.22739452926E+02  0.00000000000E+00 0.  1.
         22   -1    0    0    0    0 -0.00000000000E+00 -0.00000000000E+00 -0.38841314774E+00  0.38841314774E+00  0.00000000000E+00 0.  1.
          4    1    1    2  501    0 -0.13408943930E+01 -0.10113588544E+01  0.19336151281E+02  0.19450462485E+02  0.12700000000E+01 0.  1.
         -4    1    1    2    0  501  0.13408943930E+01  0.10113588544E+01  0.30148884969E+01  0.36774035887E+01  0.12700000000E+01 0.  1.
<mgrwt>
<rscale>  0 0.21056459E+01</rscale>
<asrwt>0</asrwt>
<pdfrwt beam="1">0</pdfrwt>
<pdfrwt beam="2">0</pdfrwt>
<totfact> 0.16846061E+12</totfact>
</mgrwt>
</event>
<event>
 4    1  0.1838758E+006  0.2262538E+01  0.7546771E-02  0.2823479E+00
         22   -1    0    0    0    0  0.00000000000E+00  0.00000000000E+00  0.55858044869E+00  0.55858044869E+00  0.00000000000E+00 0.  1.
         22   -1    0    0    0    0 -0.00000000000E+00 -0.00000000000E+00 -0.16487712235E+02  0.16487712235E+02  0.00000000000E+00 0. -1.
          4    1    1    2  501    0  0.63937452057E+00  0.17599376415E+01 -0.22842542738E+01  0.32151046432E+01  0.12700000000E+01 0.  1.
         -4    1    1    2    0  501 -0.63937452057E+00 -0.17599376415E+01 -0.13644877513E+02  0.13831188041E+02  0.12700000000E+01 0. -1.
<mgrwt>
<rscale>  0 0.22625385E+01</rscale>
<asrwt>0</asrwt>
<pdfrwt beam="1">0</pdfrwt>
<pdfrwt beam="2">0</pdfrwt>
<totfact> 0.16686277E+12</totfact>
</mgrwt>
</event>
<event>
 4    1  0.1838758E+006  0.2000055E+01  0.7546771E-02  0.2980692E+00
         22   -1    0    0    0    0  0.00000000000E+00  0.00000000000E+00  0.31139873042E+00  0.31139873042E+00  0.00000000000E+00 0. -1.
         22   -1    0    0    0    0 -0.00000000000E+00 -0.00000000000E+00 -0.20338416614E+02  0.20338416614E+02  0.00000000000E+00 0. -1.
          4    1    1    2  501    0  0.15331758695E+01  0.19155098240E+00 -0.37468029925E+01  0.42472052800E+01  0.12700000000E+01 0. -1.
         -4    1    1    2    0  501 -0.15331758695E+01 -0.19155098240E+00 -0.16280214891E+02  0.16402610065E+02  0.12700000000E+01 0. -1.
<mgrwt>
<rscale>  0 0.20000550E+01</rscale>
<asrwt>0</asrwt>
<pdfrwt beam="1">0</pdfrwt>
<pdfrwt beam="2">0</pdfrwt>
<totfact> 0.24829008E+12</totfact>
</mgrwt>
</event>
<event>
 4    1  0.1838758E+006  0.2945620E+01  0.7546771E-02  0.2539649E+00
         22   -1    0    0    0    0  0.00000000000E+00  0.00000000000E+00  0.10314746936E+01  0.10314746936E+01  0.00000000000E+00 0. -1.
         22   -1    0    0    0    0 -0.00000000000E+00 -0.00000000000E+00 -0.11838802471E+02  0.11838802471E+02  0.00000000000E+00 0.  1.
          4    1    1    2  501    0 -0.19245834106E+01  0.18329634725E+01 -0.19414491315E+01  0.35278748740E+01  0.12700000000E+01 0. -1.
         -4    1    1    2    0  501  0.19245834106E+01 -0.18329634725E+01 -0.88658786455E+01  0.93424022902E+01  0.12700000000E+01 0.  1.
<mgrwt>
<rscale>  0 0.29456199E+01</rscale>
<asrwt>0</asrwt>
<pdfrwt beam="1">0</pdfrwt>
<pdfrwt beam="2">0</pdfrwt>
<totfact> 0.12476858E+12</totfact>
</mgrwt>
</event>
<event>
 4    1  0.1838758E+006  0.2697916E+01  0.7546771E-02  0.2627223E+00
         22   -1    0    0    0    0  0.00000000000E+00  0.00000000000E+00  0.23885631899E+01  0.23885631899E+01  0.00000000000E+00 0.  1.
         22   -1    0    0    0    0 -0.00000000000E+00 -0.00000000000E+00 -0.30608940666E+01  0.30608940666E+01  0.00000000000E+00 0.  1.
          4    1    1    2  501    0  0.23674895400E+01 -0.24666781109E+00 -0.51751528906E+00  0.27471028021E+01  0.12700000000E+01 0.  1.
         -4    1    1    2    0  501 -0.23674895400E+01  0.24666781109E+00 -0.15481558762E+00  0.27023544544E+01  0.12700000000E+01 0.  1.
<mgrwt>
<rscale>  0 0.26979162E+01</rscale>
<asrwt>0</asrwt>
<pdfrwt beam="1">0</pdfrwt>
<pdfrwt beam="2">0</pdfrwt>
<totfact> 0.23770536E+12</totfact>
</mgrwt>
</event>
<event>
 4    1  0.1838758E+006  0.3280529E+01  0.7546771E-02  0.2440333E+00
         22   -1    0    0    0    0  0.00000000000E+00  0.00000000000E+00  0.12972111960E+01  0.12972111960E+01  0.00000000000E+00 0. -1.
         22   -1    0    0    0    0 -0.00000000000E+00 -0.00000000000E+00 -0.13513443796E+02  0.13513443796E+02  0.00000000000E+00 0.  1.
          4    1    1    2  501    0 -0.88989102157E+00  0.28908588207E+01 -0.15067849501E+01  0.36100237724E+01  0.12700000000E+01 0. -1.
         -4    1    1    2    0  501  0.88989102157E+00 -0.28908588207E+01 -0.10709447649E+02  0.11200631219E+02  0.12700000000E+01 0.  1.
<mgrwt>
<rscale>  0 0.32805290E+01</rscale>
<asrwt>0</asrwt>
<pdfrwt beam="1">0</pdfrwt>
<pdfrwt beam="2">0</pdfrwt>
<totfact> 0.81642311E+11</totfact>
</mgrwt>
</event>
<event>
 4    1  0.1838758E+006  0.3363197E+01  0.7546771E-02  0.2418531E+00
         22   -1    0    0    0    0  0.00000000000E+00  0.00000000000E+00  0.12478600933E+01  0.12478600933E+01  0.00000000000E+00 0. -1.
         22   -1    0    0    0    0 -0.00000000000E+00 -0.00000000000E+00 -0.94898421175E+01  0.94898421175E+01  0.00000000000E+00 0. -1.
          4    1    1    2  501    0 -0.30649881948E+01 -0.55139883998E+00 -0.29842119114E+01  0.44962889194E+01  0.12700000000E+01 0. -1.
         -4    1    1    2    0  501  0.30649881948E+01  0.55139883998E+00 -0.52577701127E+01  0.62414132913E+01  0.12700000000E+01 0. -1.
<mgrwt>
<rscale>  0 0.33631969E+01</rscale>
<asrwt>0</asrwt>
<pdfrwt beam="1">0</pdfrwt>
<pdfrwt beam="2">0</pdfrwt>
<totfact> 0.13122157E+12</totfact>
</mgrwt>
</event>
<event>
 4    1  0.1838758E+006  0.2778781E+01  0.7546771E-02  0.2597075E+00
         22   -1    0    0    0    0  0.00000000000E+00  0.00000000000E+00  0.36674016277E+01  0.36674016277E+01  0.00000000000E+00 0.  1.
         22   -1    0    0    0    0 -0.00000000000E+00 -0.00000000000E+00 -0.22317972926E+01  0.22317972926E+01  0.00000000000E+00 0. -1.
          4    1    1    2  501    0 -0.12418947270E+01  0.21369183961E+01  0.16063303186E-01  0.27788272300E+01  0.12700000000E+01 0.  1.
         -4    1    1    2    0  501  0.12418947270E+01 -0.21369183961E+01  0.14195410319E+01  0.31203716903E+01  0.12700000000E+01 0. -1.
<mgrwt>
<rscale>  0 0.27787808E+01</rscale>
<asrwt>0</asrwt>
<pdfrwt beam="1">0</pdfrwt>
<pdfrwt beam="2">0</pdfrwt>
<totfact> 0.20811617E+12</totfact>
</mgrwt>
</event>
<event>
 4    1  0.1838758E+006  0.2022352E+01  0.7546771E-02  0.2965799E+00
         22   -1    0    0    0    0  0.00000000000E+00  0.00000000000E+00  0.48963967172E+02  0.48963967172E+02  0.00000000000E+00 0.  1.
         22   -1    0    0    0    0 -0.00000000000E+00 -0.00000000000E+00 -0.11749906712E+00  0.11749906712E+00  0.00000000000E+00 0. -1.
          4    1    1    2  501    0  0.13934551161E+01 -0.73163647226E+00  0.37618519917E+02  0.37672841011E+02  0.12700000000E+01 0. -1.
         -4    1    1    2    0  501 -0.13934551161E+01  0.73163647226E+00  0.11227948188E+02  0.11408625229E+02  0.12700000000E+01 0.  1.
<mgrwt>
<rscale>  0 0.20223524E+01</rscale>
<asrwt>0</asrwt>
<pdfrwt beam="1">0</pdfrwt>
<pdfrwt beam="2">0</pdfrwt>
<totfact> 0.23916466E+12</totfact>
</mgrwt>
</event>
<event>
 4    1  0.1838758E+006  0.2366769E+01  0.7546771E-02  0.2770350E+00
         22   -1    0    0    0    0  0.00000000000E+00  0.00000000000E+00  0.92051021441E+00  0.92051021441E+00  0.00000000000E+00 0.  1.
         22   -1    0    0    0    0 -0.00000000000E+00 -0.00000000000E+00 -0.73142454656E+01  0.73142454656E+01  0.00000000000E+00 0. -1.
          4    1    1    2  501    0  0.11795134094E+01  0.16116583474E+01 -0.15091505965E+01  0.28069788091E+01  0.12700000000E+01 0.  1.
         -4    1    1    2    0  501 -0.11795134094E+01 -0.16116583474E+01 -0.48845846547E+01  0.54277768709E+01  0.12700000000E+01 0. -1.
<mgrwt>
<rscale>  0 0.23667688E+01</rscale>
<asrwt>0</asrwt>
<pdfrwt beam="1">0</pdfrwt>
<pdfrwt beam="2">0</pdfrwt>
<totfact> 0.25417555E+12</totfact>
</mgrwt>
</event>
<event>
 4    1  0.1838758E+006  0.2883312E+01  0.7546771E-02  0.2560392E+00
         22   -1    0    0    0    0  0.00000000000E+00  0.00000000000E+00  0.30631036663E+01  0.30631036663E+01  0.00000000000E+00 0.  1.
         22   -1    0    0    0    0 -0.00000000000E+00 -0.00000000000E+00 -0.28549070701E+01  0.28549070701E+01  0.00000000000E+00 0.  1.
          4    1    1    2  501    0 -0.25008572978E+01  0.66805644787E+00  0.76130773213E+00  0.29821261047E+01  0.12700000000E+01 0.  1.
         -4    1    1    2    0  501  0.25008572978E+01 -0.66805644787E+00 -0.55311113601E+00  0.29358846317E+01  0.12700000000E+01 0.  1.
<mgrwt>
<rscale>  0 0.28833117E+01</rscale>
<asrwt>0</asrwt>
<pdfrwt beam="1">0</pdfrwt>
<pdfrwt beam="2">0</pdfrwt>
<totfact> 0.19296971E+12</totfact>
</mgrwt>
</event>
<event>
 4    1  0.1838758E+006  0.2131796E+01  0.7546771E-02  0.2897109E+00
         22   -1    0    0    0    0  0.00000000000E+00  0.00000000000E+00  0.70340356344E+00  0.70340356344E+00  0.00000000000E+00 0. -1.
         22   -1    0    0    0    0 -0.00000000000E+00 -0.00000000000E+00 -0.19386533622E+02  0.19386533622E+02  0.00000000000E+00 0.  1.
          4    1    1    2  501    0 -0.14724318992E+01 -0.87384238182E+00 -0.11394482515E+01  0.24172088292E+01  0.12700000000E+01 0. -1.
         -4    1    1    2    0  501  0.14724318992E+01  0.87384238182E+00 -0.17543681807E+02  0.17672728356E+02  0.12700000000E+01 0.  1.
<mgrwt>
<rscale>  0 0.21317965E+01</rscale>
<asrwt>0</asrwt>
<pdfrwt beam="1">0</pdfrwt>
<pdfrwt beam="2">0</pdfrwt>
<totfact> 0.10511146E+12</totfact>
</mgrwt>
</event>
<event>
 4    1  0.1838758E+006  0.2590572E+01  0.7546771E-02  0.2669898E+00
         22   -1    0    0    0    0  0.00000000000E+00  0.00000000000E+00  0.13553647753E+00  0.13553647753E+00  0.00000000000E+00 0. -1.
         22   -1    0    0    0    0 -0.00000000000E+00 -0.00000000000E+00 -0.54535488667E+02  0.54535488667E+02  0.00000000000E+00 0.  1.
          4    1    1    2  501    0  0.19700189960E+01  0.11032619699E+01 -0.18905877643E+02  0.19082538386E+02  0.12700000000E+01 0.  1.
         -4    1    1    2    0  501 -0.19700189960E+01 -0.11032619699E+01 -0.35494074547E+02  0.35588486759E+02  0.12700000000E+01 0. -1.
<mgrwt>
<rscale>  0 0.25905717E+01</rscale>
<asrwt>0</asrwt>
<pdfrwt beam="1">0</pdfrwt>
<pdfrwt beam="2">0</pdfrwt>
<totfact> 0.17702498E+12</totfact>
</mgrwt>
</event>
<event>
 4    1  0.1838758E+006  0.2356141E+01  0.7546771E-02  0.2775563E+00
         22   -1    0    0    0    0  0.00000000000E+00  0.00000000000E+00  0.13969170925E+02  0.13969170925E+02  0.00000000000E+00 0. -1.
         22   -1    0    0    0    0 -0.00000000000E+00 -0.00000000000E+00 -0.42068421125E+00  0.42068421125E+00  0.00000000000E+00 0.  1.
          4    1    1    2  501    0 -0.44647696090E+00  0.19336907554E+01  0.84668016690E+01  0.87885227494E+01  0.12700000000E+01 0. -1.
         -4    1    1    2    0  501  0.44647696090E+00 -0.19336907554E+01  0.50816850446E+01  0.56013323867E+01  0.12700000000E+01 0.  1.
<mgrwt>
<rscale>  0 0.23561413E+01</rscale>
<asrwt>0</asrwt>
<pdfrwt beam="1">0</pdfrwt>
<pdfrwt beam="2">0</pdfrwt>
<totfact> 0.28182893E+12</totfact>
</mgrwt>
</event>
<event>
 4    1  0.1838758E+006  0.2890824E+01  0.7546771E-02  0.2557848E+00
         22   -1    0    0    0    0  0.00000000000E+00  0.00000000000E+00  0.20290819899E+02  0.20290819899E+02  0.00000000000E+00 0.  1.
         22   -1    0    0    0    0 -0.00000000000E+00 -0.00000000000E+00 -0.47418308328E+00  0.47418308328E+00  0.00000000000E+00 0. -1.
          4    1    1    2  501    0 -0.16604218081E+01 -0.19967382264E+01  0.13672519663E+02  0.13974786512E+02  0.12700000000E+01 0.  1.
         -4    1    1    2    0  501  0.16604218081E+01  0.19967382264E+01  0.61441171537E+01  0.67902164710E+01  0.12700000000E+01 0. -1.
<mgrwt>
<rscale>  0 0.28908241E+01</rscale>
<asrwt>0</asrwt>
<pdfrwt beam="1">0</pdfrwt>
<pdfrwt beam="2">0</pdfrwt>
<totfact> 0.15517574E+12</totfact>
</mgrwt>
</event>
<event>
 4    1  0.1838758E+006  0.2082788E+01  0.7546771E-02  0.2927000E+00
         22   -1    0    0    0    0  0.00000000000E+00  0.00000000000E+00  0.62398747903E+01  0.62398747903E+01  0.00000000000E+00 0.  1.
         22   -1    0    0    0    0 -0.00000000000E+00 -0.00000000000E+00 -0.79356026457E+00  0.79356026457E+00  0.00000000000E+00 0. -1.
          4    1    1    2  501    0 -0.14564336544E+01 -0.77711542893E+00  0.39612151390E+01  0.44754030832E+01  0.12700000000E+01 0.  1.
         -4    1    1    2    0  501  0.14564336544E+01  0.77711542893E+00  0.14850993867E+01  0.25580319716E+01  0.12700000000E+01 0. -1.
<mgrwt>
<rscale>  0 0.20827884E+01</rscale>
<asrwt>0</asrwt>
<pdfrwt beam="1">0</pdfrwt>
<pdfrwt beam="2">0</pdfrwt>
<totfact> 0.36386705E+12</totfact>
</mgrwt>
</event>
<event>
 4    1  0.1838758E+006  0.5194392E+01  0.7546771E-02  0.2100491E+00
         22   -1    0    0    0    0  0.00000000000E+00  0.00000000000E+00  0.13403227851E+02  0.13403227851E+02  0.00000000000E+00 0. -1.
         22   -1    0    0    0    0 -0.00000000000E+00 -0.00000000000E+00 -0.26327402066E+01  0.26327402066E+01  0.00000000000E+00 0.  1.
          4    1    1    2  501    0 -0.43719607860E+01  0.25009528182E+01  0.92751547420E+01  0.10630625645E+02  0.12700000000E+01 0. -1.
         -4    1    1    2    0  501  0.43719607860E+01 -0.25009528182E+01  0.14953329029E+01  0.54053424131E+01  0.12700000000E+01 0.  1.
<mgrwt>
<rscale>  0 0.51943918E+01</rscale>
<asrwt>0</asrwt>
<pdfrwt beam="1">0</pdfrwt>
<pdfrwt beam="2">0</pdfrwt>
<totfact> 0.36393457E+11</totfact>
</mgrwt>
</event>
<event>
 4    1  0.1838758E+006  0.6946485E+01  0.7546771E-02  0.1943936E+00
         22   -1    0    0    0    0  0.00000000000E+00  0.00000000000E+00  0.23357238744E+01  0.23357238744E+01  0.00000000000E+00 0. -1.
         22   -1    0    0    0    0 -0.00000000000E+00 -0.00000000000E+00 -0.46515501010E+02  0.46515501010E+02  0.00000000000E+00 0.  1.
          4    1    1    2  501    0  0.68449805143E+00 -0.67950138448E+01 -0.38789749259E+01  0.79561358214E+01  0.12700000000E+01 0. -1.
         -4    1    1    2    0  501 -0.68449805143E+00  0.67950138448E+01 -0.40300802210E+02  0.40895089063E+02  0.12700000000E+01 0.  1.
<mgrwt>
<rscale>  0 0.69464848E+01</rscale>
<asrwt>0</asrwt>
<pdfrwt beam="1">0</pdfrwt>
<pdfrwt beam="2">0</pdfrwt>
<totfact> 0.86827493E+10</totfact>
</mgrwt>
</event>
<event>
 4    1  0.1838758E+006  0.2367659E+01  0.7546771E-02  0.2769915E+00
         22   -1    0    0    0    0  0.00000000000E+00  0.00000000000E+00  0.16306040138E+02  0.16306040138E+02  0.00000000000E+00 0. -1.
         22   -1    0    0    0    0 -0.00000000000E+00 -0.00000000000E+00 -0.34433103197E+00  0.34433103197E+00  0.00000000000E+00 0.  1.
          4    1    1    2  501    0  0.12384279685E+01 -0.15681848623E+01  0.76499938172E+01  0.80080093031E+01  0.12700000000E+01 0.  1.
         -4    1    1    2    0  501 -0.12384279685E+01  0.15681848623E+01  0.83117152891E+01  0.86423618671E+01  0.12700000000E+01 0. -1.
<mgrwt>
<rscale>  0 0.23676587E+01</rscale>
<asrwt>0</asrwt>
<pdfrwt beam="1">0</pdfrwt>
<pdfrwt beam="2">0</pdfrwt>
<totfact> 0.29183124E+12</totfact>
</mgrwt>
</event>
<event>
 4    1  0.1838758E+006  0.2558589E+01  0.7546771E-02  0.2683250E+00
         22   -1    0    0    0    0  0.00000000000E+00  0.00000000000E+00  0.11261643404E+02  0.11261643404E+02  0.00000000000E+00 0.  1.
         22   -1    0    0    0    0 -0.00000000000E+00 -0.00000000000E+00 -0.86405473390E+00  0.86405473390E+00  0.00000000000E+00 0. -1.
          4    1    1    2  501    0 -0.21942047742E+01  0.34488072242E+00  0.86670584610E+01  0.90368290716E+01  0.12700000000E+01 0.  1.
         -4    1    1    2    0  501  0.21942047742E+01 -0.34488072242E+00  0.17305302090E+01  0.30888690662E+01  0.12700000000E+01 0. -1.
<mgrwt>
<rscale>  0 0.25585889E+01</rscale>
<asrwt>0</asrwt>
<pdfrwt beam="1">0</pdfrwt>
<pdfrwt beam="2">0</pdfrwt>
<totfact> 0.16228316E+12</totfact>
</mgrwt>
</event>
<event>
 4    1  0.1838758E+006  0.2827230E+01  0.7546771E-02  0.2579767E+00
         22   -1    0    0    0    0  0.00000000000E+00  0.00000000000E+00  0.23679521033E+01  0.23679521033E+01  0.00000000000E+00 0. -1.
         22   -1    0    0    0    0 -0.00000000000E+00 -0.00000000000E+00 -0.43241083647E+01  0.43241083647E+01  0.00000000000E+00 0. -1.
          4    1    1    2  501    0 -0.19456531533E+01  0.16108264486E+01  0.58905237137E+00  0.28879423015E+01  0.12700000000E+01 0. -1.
         -4    1    1    2    0  501  0.19456531533E+01 -0.16108264486E+01 -0.25452086328E+01  0.38041181665E+01  0.12700000000E+01 0. -1.
<mgrwt>
<rscale>  0 0.28272297E+01</rscale>
<asrwt>0</asrwt>
<pdfrwt beam="1">0</pdfrwt>
<pdfrwt beam="2">0</pdfrwt>
<totfact> 0.16005722E+12</totfact>
</mgrwt>
</event>
<event>
 4    1  0.1838758E+006  0.2255813E+01  0.7546771E-02  0.2827067E+00
         22   -1    0    0    0    0  0.00000000000E+00  0.00000000000E+00  0.53442986215E+01  0.53442986215E+01  0.00000000000E+00 0. -1.
         22   -1    0    0    0    0 -0.00000000000E+00 -0.00000000000E+00 -0.29570866043E+01  0.29570866043E+01  0.00000000000E+00 0. -1.
          4    1    1    2  501    0 -0.97991879901E+00  0.15860496602E+01  0.46113256293E+01  0.51335191085E+01  0.12700000000E+01 0. -1.
         -4    1    1    2    0  501  0.97991879901E+00 -0.15860496602E+01 -0.22241136122E+01  0.31678661173E+01  0.12700000000E+01 0. -1.
<mgrwt>
<rscale>  0 0.22558135E+01</rscale>
<asrwt>0</asrwt>
<pdfrwt beam="1">0</pdfrwt>
<pdfrwt beam="2">0</pdfrwt>
<totfact> 0.96176007E+11</totfact>
</mgrwt>
</event>
<event>
 4    1  0.1838758E+006  0.5722467E+01  0.7546771E-02  0.2045509E+00
         22   -1    0    0    0    0  0.00000000000E+00  0.00000000000E+00  0.12653175116E+01  0.12653175116E+01  0.00000000000E+00 0.  1.
         22   -1    0    0    0    0 -0.00000000000E+00 -0.00000000000E+00 -0.28232061705E+02  0.28232061705E+02  0.00000000000E+00 0. -1.
          4    1    1    2  501    0  0.26482817886E+01 -0.49112449041E+01 -0.92264913690E+01  0.10857014595E+02  0.12700000000E+01 0.  1.
         -4    1    1    2    0  501 -0.26482817886E+01  0.49112449041E+01 -0.17740252824E+02  0.18640364621E+02  0.12700000000E+01 0. -1.
<mgrwt>
<rscale>  0 0.57224665E+01</rscale>
<asrwt>0</asrwt>
<pdfrwt beam="1">0</pdfrwt>
<pdfrwt beam="2">0</pdfrwt>
<totfact> 0.33539828E+11</totfact>
</mgrwt>
</event>
<event>
 4    1  0.1838758E+006  0.2508173E+01  0.7546771E-02  0.2704938E+00
         22   -1    0    0    0    0  0.00000000000E+00  0.00000000000E+00  0.54322928346E+00  0.54322928346E+00  0.00000000000E+00 0.  1.
         22   -1    0    0    0    0 -0.00000000000E+00 -0.00000000000E+00 -0.12745141911E+02  0.12745141911E+02  0.00000000000E+00 0.  1.
          4    1    1    2  501    0 -0.94709717702E+00  0.19444898928E+01 -0.40925918490E+01  0.48000252134E+01  0.12700000000E+01 0.  1.
         -4    1    1    2    0  501  0.94709717702E+00 -0.19444898928E+01 -0.81093207783E+01  0.84883459809E+01  0.12700000000E+01 0.  1.
<mgrwt>
<rscale>  0 0.25081734E+01</rscale>
<asrwt>0</asrwt>
<pdfrwt beam="1">0</pdfrwt>
<pdfrwt beam="2">0</pdfrwt>
<totfact> 0.23630175E+12</totfact>
</mgrwt>
</event>
<event>
 4    1  0.1838758E+006  0.3178936E+01  0.7546771E-02  0.2468490E+00
         22   -1    0    0    0    0  0.00000000000E+00  0.00000000000E+00  0.77418220245E+01  0.77418220245E+01  0.00000000000E+00 0. -1.
         22   -1    0    0    0    0 -0.00000000000E+00 -0.00000000000E+00 -0.15738314306E+01  0.15738314306E+01  0.00000000000E+00 0. -1.
          4    1    1    2  501    0 -0.27407278236E+01  0.99052718302E+00  0.50078730161E+01  0.59316460825E+01  0.12700000000E+01 0. -1.
         -4    1    1    2    0  501  0.27407278236E+01 -0.99052718302E+00  0.11601175778E+01  0.33840073726E+01  0.12700000000E+01 0. -1.
<mgrwt>
<rscale>  0 0.31789358E+01</rscale>
<asrwt>0</asrwt>
<pdfrwt beam="1">0</pdfrwt>
<pdfrwt beam="2">0</pdfrwt>
<totfact> 0.12842815E+12</totfact>
</mgrwt>
</event>
<event>
 4    1  0.1838758E+006  0.2332660E+01  0.7546771E-02  0.2787241E+00
         22   -1    0    0    0    0  0.00000000000E+00  0.00000000000E+00  0.26421541676E+01  0.26421541676E+01  0.00000000000E+00 0. -1.
         22   -1    0    0    0    0 -0.00000000000E+00 -0.00000000000E+00 -0.35328591484E+01  0.35328591484E+01  0.00000000000E+00 0. -1.
          4    1    1    2  501    0 -0.83100788292E-01  0.19548646809E+01  0.15485826967E+01  0.27998946462E+01  0.12700000000E+01 0. -1.
         -4    1    1    2    0  501  0.83100788292E-01 -0.19548646809E+01 -0.24392876775E+01  0.33751186698E+01  0.12700000000E+01 0. -1.
<mgrwt>
<rscale>  0 0.23326598E+01</rscale>
<asrwt>0</asrwt>
<pdfrwt beam="1">0</pdfrwt>
<pdfrwt beam="2">0</pdfrwt>
<totfact> 0.17870250E+12</totfact>
</mgrwt>
</event>
<event>
 4    1  0.1838758E+006  0.2033627E+01  0.7546771E-02  0.2958390E+00
         22   -1    0    0    0    0  0.00000000000E+00  0.00000000000E+00  0.43622238603E+00  0.43622238603E+00  0.00000000000E+00 0.  1.
         22   -1    0    0    0    0 -0.00000000000E+00 -0.00000000000E+00 -0.15519972824E+02  0.15519972824E+02  0.00000000000E+00 0.  1.
          4    1    1    2  501    0  0.10578866342E+01 -0.11847419254E+01 -0.25650681107E+01  0.32734098388E+01  0.12700000000E+01 0.  1.
         -4    1    1    2    0  501 -0.10578866342E+01  0.11847419254E+01 -0.12518682328E+02  0.12682785372E+02  0.12700000000E+01 0.  1.
<mgrwt>
<rscale>  0 0.20336267E+01</rscale>
<asrwt>0</asrwt>
<pdfrwt beam="1">0</pdfrwt>
<pdfrwt beam="2">0</pdfrwt>
<totfact> 0.23767610E+12</totfact>
</mgrwt>
</event>
<event>
 4    1  0.1838758E+006  0.2450971E+01  0.7546771E-02  0.2730548E+00
         22   -1    0    0    0    0  0.00000000000E+00  0.00000000000E+00  0.65669319462E-01  0.65669319462E-01  0.00000000000E+00 0.  1.
         22   -1    0    0    0    0 -0.00000000000E+00 -0.00000000000E+00 -0.96394047309E+02  0.96394047309E+02  0.00000000000E+00 0.  1.
          4    1    1    2  501    0  0.54953506742E+00  0.20229607679E+01 -0.59056627090E+02  0.59107465369E+02  0.12700000000E+01 0.  1.
         -4    1    1    2    0  501 -0.54953506742E+00 -0.20229607679E+01 -0.37271750899E+02  0.37352251260E+02  0.12700000000E+01 0.  1.
<mgrwt>
<rscale>  0 0.24509710E+01</rscale>
<asrwt>0</asrwt>
<pdfrwt beam="1">0</pdfrwt>
<pdfrwt beam="2">0</pdfrwt>
<totfact> 0.18161731E+12</totfact>
</mgrwt>
</event>
<event>
 4    1  0.1838758E+006  0.3408800E+01  0.7546771E-02  0.2406903E+00
         22   -1    0    0    0    0  0.00000000000E+00  0.00000000000E+00  0.15871235432E+02  0.15871235432E+02  0.00000000000E+00 0. -1.
         22   -1    0    0    0    0 -0.00000000000E+00 -0.00000000000E+00 -0.93780417031E+00  0.93780417031E+00  0.00000000000E+00 0.  1.
          4    1    1    2  501    0 -0.69852649241E+00  0.30853004093E+01  0.11402573127E+02  0.11901201275E+02  0.12700000000E+01 0. -1.
         -4    1    1    2    0  501  0.69852649241E+00 -0.30853004093E+01  0.35308581341E+01  0.49078383266E+01  0.12700000000E+01 0.  1.
<mgrwt>
<rscale>  0 0.34088001E+01</rscale>
<asrwt>0</asrwt>
<pdfrwt beam="1">0</pdfrwt>
<pdfrwt beam="2">0</pdfrwt>
<totfact> 0.97103983E+11</totfact>
</mgrwt>
</event>
<event>
 4    1  0.1838758E+006  0.2804541E+01  0.7546771E-02  0.2587805E+00
         22   -1    0    0    0    0  0.00000000000E+00  0.00000000000E+00  0.10629105297E+02  0.10629105297E+02  0.00000000000E+00 0. -1.
         22   -1    0    0    0    0 -0.00000000000E+00 -0.00000000000E+00 -0.76875647649E+00  0.76875647649E+00  0.00000000000E+00 0.  1.
          4    1    1    2  501    0 -0.24667978317E+01 -0.40921563497E+00  0.60325510706E+01  0.66526026033E+01  0.12700000000E+01 0.  1.
         -4    1    1    2    0  501  0.24667978317E+01  0.40921563497E+00  0.38277977502E+01  0.47452591705E+01  0.12700000000E+01 0. -1.
<mgrwt>
<rscale>  0 0.28045408E+01</rscale>
<asrwt>0</asrwt>
<pdfrwt beam="1">0</pdfrwt>
<pdfrwt beam="2">0</pdfrwt>
<totfact> 0.19885421E+12</totfact>
</mgrwt>
</event>
<event>
 4    1  0.1838758E+006  0.2286672E+01  0.7546771E-02  0.2810769E+00
         22   -1    0    0    0    0  0.00000000000E+00  0.00000000000E+00  0.45938288401E+01  0.45938288401E+01  0.00000000000E+00 0. -1.
         22   -1    0    0    0    0 -0.00000000000E+00 -0.00000000000E+00 -0.12346580256E+01  0.12346580256E+01  0.00000000000E+00 0. -1.
          4    1    1    2  501    0  0.17788689431E+01 -0.67200793054E+00  0.24939833771E+01  0.33836108613E+01  0.12700000000E+01 0. -1.
         -4    1    1    2    0  501 -0.17788689431E+01  0.67200793054E+00  0.86518743736E+00  0.24448760044E+01  0.12700000000E+01 0. -1.
<mgrwt>
<rscale>  0 0.22866721E+01</rscale>
<asrwt>0</asrwt>
<pdfrwt beam="1">0</pdfrwt>
<pdfrwt beam="2">0</pdfrwt>
<totfact> 0.31591216E+12</totfact>
</mgrwt>
</event>
<event>
 4    1  0.1838758E+006  0.2938805E+01  0.7546771E-02  0.2541879E+00
         22   -1    0    0    0    0  0.00000000000E+00  0.00000000000E+00  0.32474412112E+01  0.32474412112E+01  0.00000000000E+00 0. -1.
         22   -1    0    0    0    0 -0.00000000000E+00 -0.00000000000E+00 -0.28132787809E+01  0.28132787809E+01  0.00000000000E+00 0.  1.
          4    1    1    2  501    0  0.79774914178E+00 -0.25273054263E+01  0.92557038395E+00  0.30811129396E+01  0.12700000000E+01 0. -1.
         -4    1    1    2    0  501 -0.79774914178E+00  0.25273054263E+01 -0.49140795361E+00  0.29796070526E+01  0.12700000000E+01 0.  1.
<mgrwt>
<rscale>  0 0.29388053E+01</rscale>
<asrwt>0</asrwt>
<pdfrwt beam="1">0</pdfrwt>
<pdfrwt beam="2">0</pdfrwt>
<totfact> 0.18333577E+12</totfact>
</mgrwt>
</event>
<event>
 4    1  0.1838758E+006  0.2160384E+01  0.7546771E-02  0.2880279E+00
         22   -1    0    0    0    0  0.00000000000E+00  0.00000000000E+00  0.99414764372E+00  0.99414764372E+00  0.00000000000E+00 0. -1.
         22   -1    0    0    0    0 -0.00000000000E+00 -0.00000000000E+00 -0.75594384803E+01  0.75594384803E+01  0.00000000000E+00 0.  1.
          4    1    1    2  501    0 -0.93387662227E+00 -0.14772388506E+01 -0.64987327905E+00  0.22560131751E+01  0.12700000000E+01 0. -1.
         -4    1    1    2    0  501  0.93387662227E+00  0.14772388506E+01 -0.59154175576E+01  0.62975729490E+01  0.12700000000E+01 0.  1.
<mgrwt>
<rscale>  0 0.21603843E+01</rscale>
<asrwt>0</asrwt>
<pdfrwt beam="1">0</pdfrwt>
<pdfrwt beam="2">0</pdfrwt>
<totfact> 0.22377865E+12</totfact>
</mgrwt>
</event>
<event>
 4    1  0.1838758E+006  0.2662278E+01  0.7546771E-02  0.2641040E+00
         22   -1    0    0    0    0  0.00000000000E+00  0.00000000000E+00  0.70599808488E+01  0.70599808488E+01  0.00000000000E+00 0. -1.
         22   -1    0    0    0    0 -0.00000000000E+00 -0.00000000000E+00 -0.10483109688E+02  0.10483109688E+02  0.00000000000E+00 0.  1.
          4    1    1    2  501    0 -0.22599370949E+00 -0.23288944758E+01  0.66294031910E+01  0.71439981316E+01  0.12700000000E+01 0. -1.
         -4    1    1    2    0  501  0.22599370949E+00  0.23288944758E+01 -0.10052532030E+02  0.10399092405E+02  0.12700000000E+01 0.  1.
<mgrwt>
<rscale>  0 0.26622777E+01</rscale>
<asrwt>0</asrwt>
<pdfrwt beam="1">0</pdfrwt>
<pdfrwt beam="2">0</pdfrwt>
<totfact> 0.15337488E+11</totfact>
</mgrwt>
</event>
<event>
 4    1  0.1838758E+006  0.3570408E+01  0.7546771E-02  0.2367795E+00
         22   -1    0    0    0    0  0.00000000000E+00  0.00000000000E+00  0.58197328560E+00  0.58197328560E+00  0.00000000000E+00 0.  1.
         22   -1    0    0    0    0 -0.00000000000E+00 -0.00000000000E+00 -0.24497208828E+02  0.24497208828E+02  0.00000000000E+00 0. -1.
          4    1    1    2  501    0  0.33366746329E+01 -0.38950477225E-01 -0.78781388677E+01  0.86494443037E+01  0.12700000000E+01 0.  1.
         -4    1    1    2    0  501 -0.33366746329E+01  0.38950477225E-01 -0.16037096675E+02  0.16429737810E+02  0.12700000000E+01 0. -1.
<mgrwt>
<rscale>  0 0.35704082E+01</rscale>
<asrwt>0</asrwt>
<pdfrwt beam="1">0</pdfrwt>
<pdfrwt beam="2">0</pdfrwt>
<totfact> 0.97210968E+11</totfact>
</mgrwt>
</event>
<event>
 4    1  0.1838758E+006  0.2452524E+01  0.7546771E-02  0.2729838E+00
         22   -1    0    0    0    0  0.00000000000E+00  0.00000000000E+00  0.39151672032E+02  0.39151672032E+02  0.00000000000E+00 0.  1.
         22   -1    0    0    0    0 -0.00000000000E+00 -0.00000000000E+00 -0.15658763602E+00  0.15658763602E+00  0.00000000000E+00 0.  1.
          4    1    1    2  501    0  0.17620856245E+01 -0.11388725117E+01  0.22198626424E+02  0.22333694084E+02  0.12700000000E+01 0.  1.
         -4    1    1    2    0  501 -0.17620856245E+01  0.11388725117E+01  0.16796457972E+02  0.16974565583E+02  0.12700000000E+01 0.  1.
<mgrwt>
<rscale>  0 0.24525245E+01</rscale>
<asrwt>0</asrwt>
<pdfrwt beam="1">0</pdfrwt>
<pdfrwt beam="2">0</pdfrwt>
<totfact> 0.23285548E+12</totfact>
</mgrwt>
</event>
<event>
 4    1  0.1838758E+006  0.2053313E+01  0.7546771E-02  0.2945644E+00
         22   -1    0    0    0    0  0.00000000000E+00  0.00000000000E+00  0.35702875511E+01  0.35702875511E+01  0.00000000000E+00 0. -1.
         22   -1    0    0    0    0 -0.00000000000E+00 -0.00000000000E+00 -0.14008278406E+01  0.14008278406E+01  0.00000000000E+00 0.  1.
          4    1    1    2  501    0 -0.10335139152E+01  0.12389687628E+01  0.99840145647E-01  0.20557389578E+01  0.12700000000E+01 0.  1.
         -4    1    1    2    0  501  0.10335139152E+01 -0.12389687628E+01  0.20696195649E+01  0.29153764339E+01  0.12700000000E+01 0. -1.
<mgrwt>
<rscale>  0 0.20533131E+01</rscale>
<asrwt>0</asrwt>
<pdfrwt beam="1">0</pdfrwt>
<pdfrwt beam="2">0</pdfrwt>
<totfact> 0.36768140E+12</totfact>
</mgrwt>
</event>
<event>
 4    1  0.1838758E+006  0.2068478E+01  0.7546771E-02  0.2935987E+00
         22   -1    0    0    0    0  0.00000000000E+00  0.00000000000E+00  0.12728724939E+02  0.12728724939E+02  0.00000000000E+00 0.  1.
         22   -1    0    0    0    0 -0.00000000000E+00 -0.00000000000E+00 -0.36959685704E+00  0.36959685704E+00  0.00000000000E+00 0. -1.
          4    1    1    2  501    0  0.61768567356E+00  0.15113451375E+01  0.42090416543E+01  0.46898434263E+01  0.12700000000E+01 0.  1.
         -4    1    1    2    0  501 -0.61768567356E+00 -0.15113451375E+01  0.81500864281E+01  0.84084783702E+01  0.12700000000E+01 0. -1.
<mgrwt>
<rscale>  0 0.20684776E+01</rscale>
<asrwt>0</asrwt>
<pdfrwt beam="1">0</pdfrwt>
<pdfrwt beam="2">0</pdfrwt>
<totfact> 0.36533523E+12</totfact>
</mgrwt>
</event>
<event>
 4    1  0.1838758E+006  0.3231472E+01  0.7546771E-02  0.2453734E+00
         22   -1    0    0    0    0  0.00000000000E+00  0.00000000000E+00  0.70196160423E+02  0.70196160423E+02  0.00000000000E+00 0. -1.
         22   -1    0    0    0    0 -0.00000000000E+00 -0.00000000000E+00 -0.40067570396E+00  0.40067570396E+00  0.00000000000E+00 0. -1.
          4    1    1    2  501    0  0.28530734574E+01  0.83035162777E+00  0.62886651758E+02  0.62969622687E+02  0.12700000000E+01 0. -1.
         -4    1    1    2    0  501 -0.28530734574E+01 -0.83035162777E+00  0.69088329611E+01  0.76272134403E+01  0.12700000000E+01 0. -1.
<mgrwt>
<rscale>  0 0.32314721E+01</rscale>
<asrwt>0</asrwt>
<pdfrwt beam="1">0</pdfrwt>
<pdfrwt beam="2">0</pdfrwt>
<totfact> 0.37559170E+11</totfact>
</mgrwt>
</event>
<event>
 4    1  0.1838758E+006  0.2616850E+01  0.7546771E-02  0.2659153E+00
         22   -1    0    0    0    0  0.00000000000E+00  0.00000000000E+00  0.92336279431E+00  0.92336279431E+00  0.00000000000E+00 0. -1.
         22   -1    0    0    0    0 -0.00000000000E+00 -0.00000000000E+00 -0.84603330171E+01  0.84603330171E+01  0.00000000000E+00 0. -1.
          4    1    1    2  501    0  0.14211962285E+01  0.17930999376E+01 -0.54167003754E+01  0.60156919023E+01  0.12700000000E+01 0. -1.
         -4    1    1    2    0  501 -0.14211962285E+01 -0.17930999376E+01 -0.21202698474E+01  0.33680039091E+01  0.12700000000E+01 0. -1.
<mgrwt>
<rscale>  0 0.26168504E+01</rscale>
<asrwt>0</asrwt>
<pdfrwt beam="1">0</pdfrwt>
<pdfrwt beam="2">0</pdfrwt>
<totfact> 0.21266761E+12</totfact>
</mgrwt>
</event>
<event>
 4    1  0.1838758E+006  0.2134269E+01  0.7546771E-02  0.2895636E+00
         22   -1    0    0    0    0  0.00000000000E+00  0.00000000000E+00  0.37917815116E+01  0.37917815116E+01  0.00000000000E+00 0. -1.
         22   -1    0    0    0    0 -0.00000000000E+00 -0.00000000000E+00 -0.13370165831E+01  0.13370165831E+01  0.00000000000E+00 0.  1.
          4    1    1    2  501    0  0.13160377970E+01 -0.11001135013E+01  0.20443740882E+01  0.29554306981E+01  0.12700000000E+01 0. -1.
         -4    1    1    2    0  501 -0.13160377970E+01  0.11001135013E+01  0.41039084017E+00  0.21733673966E+01  0.12700000000E+01 0.  1.
<mgrwt>
<rscale>  0 0.21342692E+01</rscale>
<asrwt>0</asrwt>
<pdfrwt beam="1">0</pdfrwt>
<pdfrwt beam="2">0</pdfrwt>
<totfact> 0.36144717E+12</totfact>
</mgrwt>
</event>
<event>
 4    1  0.1838758E+006  0.4900735E+01  0.7546771E-02  0.2135042E+00
         22   -1    0    0    0    0  0.00000000000E+00  0.00000000000E+00  0.26360647545E+02  0.26360647545E+02  0.00000000000E+00 0. -1.
         22   -1    0    0    0    0 -0.00000000000E+00 -0.00000000000E+00 -0.91939662042E+00  0.91939662042E+00  0.00000000000E+00 0.  1.
          4    1    1    2  501    0  0.53220587038E+00  0.47033035554E+01  0.14016291097E+02  0.14848354236E+02  0.12700000000E+01 0.  1.
         -4    1    1    2    0  501 -0.53220587038E+00 -0.47033035554E+01  0.11424959828E+02  0.12431689929E+02  0.12700000000E+01 0. -1.
<mgrwt>
<rscale>  0 0.49007354E+01</rscale>
<asrwt>0</asrwt>
<pdfrwt beam="1">0</pdfrwt>
<pdfrwt beam="2">0</pdfrwt>
<totfact> 0.52712865E+11</totfact>
</mgrwt>
</event>
<event>
 4    1  0.1838758E+006  0.3504826E+01  0.7546771E-02  0.2383286E+00
         22   -1    0    0    0    0  0.00000000000E+00  0.00000000000E+00  0.69653263712E+00  0.69653263712E+00  0.00000000000E+00 0. -1.
         22   -1    0    0    0    0 -0.00000000000E+00 -0.00000000000E+00 -0.18675354221E+02  0.18675354221E+02  0.00000000000E+00 0. -1.
          4    1    1    2  501    0 -0.29706424501E+01  0.13587462694E+01 -0.67040132735E+01  0.75648927264E+01  0.12700000000E+01 0. -1.
         -4    1    1    2    0  501  0.29706424501E+01 -0.13587462694E+01 -0.11274808310E+02  0.11806994132E+02  0.12700000000E+01 0. -1.
<mgrwt>
<rscale>  0 0.35048264E+01</rscale>
<asrwt>0</asrwt>
<pdfrwt beam="1">0</pdfrwt>
<pdfrwt beam="2">0</pdfrwt>
<totfact> 0.11135772E+12</totfact>
</mgrwt>
</event>
<event>
 4    1  0.1838758E+006  0.7856438E+01  0.7546771E-02  0.1884679E+00
         22   -1    0    0    0    0  0.00000000000E+00  0.00000000000E+00  0.19095354519E+02  0.19095354519E+02  0.00000000000E+00 0.  1.
         22   -1    0    0    0    0 -0.00000000000E+00 -0.00000000000E+00 -0.64097011491E+01  0.64097011491E+01  0.00000000000E+00 0. -1.
          4    1    1    2  501    0 -0.56923583952E+01 -0.52638177525E+01  0.15321399401E+02  0.17218272301E+02  0.12700000000E+01 0.  1.
         -4    1    1    2    0  501  0.56923583952E+01  0.52638177525E+01 -0.26357460311E+01  0.82867833670E+01  0.12700000000E+01 0. -1.
<mgrwt>
<rscale>  0 0.78564382E+01</rscale>
<asrwt>0</asrwt>
<pdfrwt beam="1">0</pdfrwt>
<pdfrwt beam="2">0</pdfrwt>
<totfact> 0.82434279E+10</totfact>
</mgrwt>
</event>
<event>
 4    1  0.1838758E+006  0.2027961E+01  0.7546771E-02  0.2962103E+00
         22   -1    0    0    0    0  0.00000000000E+00  0.00000000000E+00  0.29084838215E+00  0.29084838215E+00  0.00000000000E+00 0. -1.
         22   -1    0    0    0    0 -0.00000000000E+00 -0.00000000000E+00 -0.33290664102E+02  0.33290664102E+02  0.00000000000E+00 0.  1.
          4    1    1    2  501    0  0.15570722262E+01 -0.27431804601E+00 -0.37648815033E+01  0.42763251796E+01  0.12700000000E+01 0. -1.
         -4    1    1    2    0  501 -0.15570722262E+01  0.27431804601E+00 -0.29234934216E+02  0.29305187304E+02  0.12700000000E+01 0.  1.
<mgrwt>
<rscale>  0 0.20279606E+01</rscale>
<asrwt>0</asrwt>
<pdfrwt beam="1">0</pdfrwt>
<pdfrwt beam="2">0</pdfrwt>
<totfact> 0.14374723E+12</totfact>
</mgrwt>
</event>
<event>
 4    1  0.1838758E+006  0.2737253E+01  0.7546771E-02  0.2612354E+00
         22   -1    0    0    0    0  0.00000000000E+00  0.00000000000E+00  0.16316473324E+02  0.16316473324E+02  0.00000000000E+00 0.  1.
         22   -1    0    0    0    0 -0.00000000000E+00 -0.00000000000E+00 -0.54680762031E+00  0.54680762031E+00  0.00000000000E+00 0.  1.
          4    1    1    2  501    0 -0.32344221102E+00  0.24031315655E+01  0.11259733069E+02  0.11587672112E+02  0.12700000000E+01 0.  1.
         -4    1    1    2    0  501  0.32344221102E+00 -0.24031315655E+01  0.45099326349E+01  0.52756088327E+01  0.12700000000E+01 0.  1.
<mgrwt>
<rscale>  0 0.27372534E+01</rscale>
<asrwt>0</asrwt>
<pdfrwt beam="1">0</pdfrwt>
<pdfrwt beam="2">0</pdfrwt>
<totfact> 0.17315823E+12</totfact>
</mgrwt>
</event>
<event>
 4    1  0.1838758E+006  0.2234986E+01  0.7546771E-02  0.2838310E+00
         22   -1    0    0    0    0  0.00000000000E+00  0.00000000000E+00  0.47048288070E+01  0.47048288070E+01  0.00000000000E+00 0. -1.
         22   -1    0    0    0    0 -0.00000000000E+00 -0.00000000000E+00 -0.43182773036E+01  0.43182773036E+01  0.00000000000E+00 0.  1.
          4    1    1    2  501    0 -0.17332790558E+01  0.61482136472E+00  0.41111533650E+01  0.46793956433E+01  0.12700000000E+01 0. -1.
         -4    1    1    2    0  501  0.17332790558E+01 -0.61482136472E+00 -0.37246018617E+01  0.43437104673E+01  0.12700000000E+01 0.  1.
<mgrwt>
<rscale>  0 0.22349858E+01</rscale>
<asrwt>0</asrwt>
<pdfrwt beam="1">0</pdfrwt>
<pdfrwt beam="2">0</pdfrwt>
<totfact> 0.71721237E+11</totfact>
</mgrwt>
</event>
<event>
 4    1  0.1838758E+006  0.4973462E+01  0.7546771E-02  0.2126185E+00
         22   -1    0    0    0    0  0.00000000000E+00  0.00000000000E+00  0.46448675167E+02  0.46448675167E+02  0.00000000000E+00 0.  1.
         22   -1    0    0    0    0 -0.00000000000E+00 -0.00000000000E+00 -0.53518224468E+00  0.53518224468E+00  0.00000000000E+00 0. -1.
          4    1    1    2  501    0 -0.45055737927E+01  0.16799477819E+01  0.24610469193E+02  0.25107977092E+02  0.12700000000E+01 0. -1.
         -4    1    1    2    0  501  0.45055737927E+01 -0.16799477819E+01  0.21303023730E+02  0.21875880320E+02  0.12700000000E+01 0.  1.
<mgrwt>
<rscale>  0 0.49734615E+01</rscale>
<asrwt>0</asrwt>
<pdfrwt beam="1">0</pdfrwt>
<pdfrwt beam="2">0</pdfrwt>
<totfact> 0.46994753E+11</totfact>
</mgrwt>
</event>
<event>
 4    1  0.1838758E+006  0.3064238E+01  0.7546771E-02  0.2502262E+00
         22   -1    0    0    0    0  0.00000000000E+00  0.00000000000E+00  0.10435016427E+00  0.10435016427E+00  0.00000000000E+00 0.  1.
         22   -1    0    0    0    0 -0.00000000000E+00 -0.00000000000E+00 -0.11275376604E+03  0.11275376604E+03  0.00000000000E+00 0. -1.
          4    1    1    2  501    0  0.10732746846E+01 -0.25738567257E+01 -0.30965079080E+02  0.31116324967E+02  0.12700000000E+01 0.  1.
         -4    1    1    2    0  501 -0.10732746846E+01  0.25738567257E+01 -0.81684336797E+02  0.81741791239E+02  0.12700000000E+01 0. -1.
<mgrwt>
<rscale>  0 0.30642384E+01</rscale>
<asrwt>0</asrwt>
<pdfrwt beam="1">0</pdfrwt>
<pdfrwt beam="2">0</pdfrwt>
<totfact> 0.87222324E+11</totfact>
</mgrwt>
</event>
<event>
 4    1  0.1838758E+006  0.2014188E+01  0.7546771E-02  0.2971215E+00
         22   -1    0    0    0    0  0.00000000000E+00  0.00000000000E+00  0.12212353550E+02  0.12212353550E+02  0.00000000000E+00 0. -1.
         22   -1    0    0    0    0 -0.00000000000E+00 -0.00000000000E+00 -0.35280135573E+00  0.35280135573E+00  0.00000000000E+00 0. -1.
          4    1    1    2  501    0  0.43136996954E-01  0.15627512712E+01  0.74479212747E+01  0.77154704102E+01  0.12700000000E+01 0. -1.
         -4    1    1    2    0  501 -0.43136996954E-01 -0.15627512712E+01  0.44116309197E+01  0.48496844956E+01  0.12700000000E+01 0. -1.
<mgrwt>
<rscale>  0 0.20141878E+01</rscale>
<asrwt>0</asrwt>
<pdfrwt beam="1">0</pdfrwt>
<pdfrwt beam="2">0</pdfrwt>
<totfact> 0.40490217E+12</totfact>
</mgrwt>
</event>
<event>
 4    1  0.1838758E+006  0.2150940E+01  0.7546771E-02  0.2885791E+00
         22   -1    0    0    0    0  0.00000000000E+00  0.00000000000E+00  0.45107938761E+01  0.45107938761E+01  0.00000000000E+00 0. -1.
         22   -1    0    0    0    0 -0.00000000000E+00 -0.00000000000E+00 -0.11118745883E+01  0.11118745883E+01  0.00000000000E+00 0. -1.
          4    1    1    2  501    0 -0.14816235806E+01  0.90467270327E+00  0.24823028684E+01  0.32845652170E+01  0.12700000000E+01 0. -1.
         -4    1    1    2    0  501  0.14816235806E+01 -0.90467270327E+00  0.91661641942E+00  0.23381032473E+01  0.12700000000E+01 0. -1.
<mgrwt>
<rscale>  0 0.21509396E+01</rscale>
<asrwt>0</asrwt>
<pdfrwt beam="1">0</pdfrwt>
<pdfrwt beam="2">0</pdfrwt>
<totfact> 0.36392136E+12</totfact>
</mgrwt>
</event>
<event>
 4    1  0.1838758E+006  0.2714025E+01  0.7546771E-02  0.2621086E+00
         22   -1    0    0    0    0  0.00000000000E+00  0.00000000000E+00  0.28296895077E+01  0.28296895077E+01  0.00000000000E+00 0.  1.
         22   -1    0    0    0    0 -0.00000000000E+00 -0.00000000000E+00 -0.38800451438E+01  0.38800451438E+01  0.00000000000E+00 0. -1.
          4    1    1    2  501    0  0.23061834800E+01  0.65920513942E+00  0.13994419842E+01  0.30535833911E+01  0.12700000000E+01 0.  1.
         -4    1    1    2    0  501 -0.23061834800E+01 -0.65920513942E+00 -0.24497976203E+01  0.36561512605E+01  0.12700000000E+01 0. -1.
<mgrwt>
<rscale>  0 0.27140254E+01</rscale>
<asrwt>0</asrwt>
<pdfrwt beam="1">0</pdfrwt>
<pdfrwt beam="2">0</pdfrwt>
<totfact> 0.14778220E+12</totfact>
</mgrwt>
</event>
<event>
 4    1  0.1838758E+006  0.2839222E+01  0.7546771E-02  0.2575566E+00
         22   -1    0    0    0    0  0.00000000000E+00  0.00000000000E+00  0.30022732037E+00  0.30022732037E+00  0.00000000000E+00 0.  1.
         22   -1    0    0    0    0 -0.00000000000E+00 -0.00000000000E+00 -0.41093412352E+02  0.41093412352E+02  0.00000000000E+00 0. -1.
          4    1    1    2  501    0  0.77670587837E+00 -0.24176456420E+01 -0.82117328342E+01  0.86887132887E+01  0.12700000000E+01 0.  1.
         -4    1    1    2    0  501 -0.77670587837E+00  0.24176456420E+01 -0.32581452197E+02  0.32704926384E+02  0.12700000000E+01 0. -1.
<mgrwt>
<rscale>  0 0.28392222E+01</rscale>
<asrwt>0</asrwt>
<pdfrwt beam="1">0</pdfrwt>
<pdfrwt beam="2">0</pdfrwt>
<totfact> 0.10571235E+12</totfact>
</mgrwt>
</event>
<event>
 4    1  0.1838758E+006  0.3956284E+01  0.7546771E-02  0.2285730E+00
         22   -1    0    0    0    0  0.00000000000E+00  0.00000000000E+00  0.61921334919E+01  0.61921334919E+01  0.00000000000E+00 0. -1.
         22   -1    0    0    0    0 -0.00000000000E+00 -0.00000000000E+00 -0.32095729965E+01  0.32095729965E+01  0.00000000000E+00 0. -1.
          4    1    1    2  501    0  0.14527114006E+01 -0.34538257349E+01  0.36579264654E+01  0.53881915933E+01  0.12700000000E+01 0. -1.
         -4    1    1    2    0  501 -0.14527114006E+01  0.34538257349E+01 -0.67536596995E+00  0.40135148952E+01  0.12700000000E+01 0. -1.
<mgrwt>
<rscale>  0 0.39562839E+01</rscale>
<asrwt>0</asrwt>
<pdfrwt beam="1">0</pdfrwt>
<pdfrwt beam="2">0</pdfrwt>
<totfact> 0.73361642E+11</totfact>
</mgrwt>
</event>
<event>
 4    1  0.1838758E+006  0.2124774E+01  0.7546771E-02  0.2901310E+00
         22   -1    0    0    0    0  0.00000000000E+00  0.00000000000E+00  0.26785181879E+02  0.26785181879E+02  0.00000000000E+00 0.  1.
         22   -1    0    0    0    0 -0.00000000000E+00 -0.00000000000E+00 -0.38370814179E+00  0.38370814179E+00  0.00000000000E+00 0. -1.
          4    1    1    2  501    0 -0.16987892464E+01 -0.12600660151E+00  0.23373045436E+02  0.23469425121E+02  0.12700000000E+01 0.  1.
         -4    1    1    2    0  501  0.16987892464E+01  0.12600660151E+00  0.30284283009E+01  0.36994648993E+01  0.12700000000E+01 0. -1.
<mgrwt>
<rscale>  0 0.21247735E+01</rscale>
<asrwt>0</asrwt>
<pdfrwt beam="1">0</pdfrwt>
<pdfrwt beam="2">0</pdfrwt>
<totfact> 0.13893549E+12</totfact>
</mgrwt>
</event>
<event>
 4    1  0.1838758E+006  0.1247905E+02  0.7546771E-02  0.1691766E+00
         22   -1    0    0    0    0  0.00000000000E+00  0.00000000000E+00  0.19855629420E+02  0.19855629420E+02  0.00000000000E+00 0.  1.
         22   -1    0    0    0    0 -0.00000000000E+00 -0.00000000000E+00 -0.92872181479E+01  0.92872181479E+01  0.00000000000E+00 0. -1.
          4    1    1    2  501    0  0.12395352370E+02  0.68476735780E+00  0.11030450889E+02  0.16655251830E+02  0.12700000000E+01 0.  1.
         -4    1    1    2    0  501 -0.12395352370E+02 -0.68476735780E+00 -0.46203961654E+00  0.12487595738E+02  0.12700000000E+01 0. -1.
<mgrwt>
<rscale>  0 0.12479045E+02</rscale>
<asrwt>0</asrwt>
<pdfrwt beam="1">0</pdfrwt>
<pdfrwt beam="2">0</pdfrwt>
<totfact> 0.50318318E+10</totfact>
</mgrwt>
</event>
<event>
 4    1  0.1838758E+006  0.2023432E+01  0.7546771E-02  0.2965085E+00
         22   -1    0    0    0    0  0.00000000000E+00  0.00000000000E+00  0.10003247653E+02  0.10003247653E+02  0.00000000000E+00 0. -1.
         22   -1    0    0    0    0 -0.00000000000E+00 -0.00000000000E+00 -0.61451065734E+00  0.61451065734E+00  0.00000000000E+00 0. -1.
          4    1    1    2  501    0  0.31789444033E+00 -0.15428290905E+01  0.77622844535E+01  0.80216792765E+01  0.12700000000E+01 0. -1.
         -4    1    1    2    0  501 -0.31789444033E+00  0.15428290905E+01  0.16264525420E+01  0.25960790337E+01  0.12700000000E+01 0. -1.
<mgrwt>
<rscale>  0 0.20234324E+01</rscale>
<asrwt>0</asrwt>
<pdfrwt beam="1">0</pdfrwt>
<pdfrwt beam="2">0</pdfrwt>
<totfact> 0.27593579E+12</totfact>
</mgrwt>
</event>
<event>
 4    1  0.1838758E+006  0.4007432E+01  0.7546771E-02  0.2275876E+00
         22   -1    0    0    0    0  0.00000000000E+00  0.00000000000E+00  0.41044566893E+00  0.41044566893E+00  0.00000000000E+00 0. -1.
         22   -1    0    0    0    0 -0.00000000000E+00 -0.00000000000E+00 -0.42255102865E+02  0.42255102865E+02  0.00000000000E+00 0.  1.
          4    1    1    2  501    0 -0.29889206914E+00 -0.37890993188E+01 -0.26726601966E+02  0.27025372574E+02  0.12700000000E+01 0.  1.
         -4    1    1    2    0  501  0.29889206914E+00  0.37890993188E+01 -0.15118055230E+02  0.15640175960E+02  0.12700000000E+01 0. -1.
<mgrwt>
<rscale>  0 0.40074319E+01</rscale>
<asrwt>0</asrwt>
<pdfrwt beam="1">0</pdfrwt>
<pdfrwt beam="2">0</pdfrwt>
<totfact> 0.71743566E+11</totfact>
</mgrwt>
</event>
<event>
 4    1  0.1838758E+006  0.2823812E+01  0.7546771E-02  0.2580971E+00
         22   -1    0    0    0    0  0.00000000000E+00  0.00000000000E+00  0.39623043652E+00  0.39623043652E+00  0.00000000000E+00 0. -1.
         22   -1    0    0    0    0 -0.00000000000E+00 -0.00000000000E+00 -0.24890265477E+02  0.24890265477E+02  0.00000000000E+00 0.  1.
          4    1    1    2  501    0 -0.19750846861E+01 -0.15684559007E+01 -0.67146221009E+01  0.72842338916E+01  0.12700000000E+01 0. -1.
         -4    1    1    2    0  501  0.19750846861E+01  0.15684559007E+01 -0.17779412940E+02  0.18002262022E+02  0.12700000000E+01 0.  1.
<mgrwt>
<rscale>  0 0.28238119E+01</rscale>
<asrwt>0</asrwt>
<pdfrwt beam="1">0</pdfrwt>
<pdfrwt beam="2">0</pdfrwt>
<totfact> 0.14703514E+12</totfact>
</mgrwt>
</event>
<event>
 4    1  0.1838758E+006  0.2570654E+01  0.7546771E-02  0.2678178E+00
         22   -1    0    0    0    0  0.00000000000E+00  0.00000000000E+00  0.79821449817E+00  0.79821449817E+00  0.00000000000E+00 0. -1.
         22   -1    0    0    0    0 -0.00000000000E+00 -0.00000000000E+00 -0.10321326447E+02  0.10321326447E+02  0.00000000000E+00 0.  1.
          4    1    1    2  501    0 -0.11198207927E+01 -0.19342598526E+01 -0.22882790986E+01  0.34415811800E+01  0.12700000000E+01 0. -1.
         -4    1    1    2    0  501  0.11198207927E+01  0.19342598526E+01 -0.72348328500E+01  0.76779597650E+01  0.12700000000E+01 0.  1.
<mgrwt>
<rscale>  0 0.25706536E+01</rscale>
<asrwt>0</asrwt>
<pdfrwt beam="1">0</pdfrwt>
<pdfrwt beam="2">0</pdfrwt>
<totfact> 0.19744107E+12</totfact>
</mgrwt>
</event>
<event>
 4    1  0.1838758E+006  0.4465257E+01  0.7546771E-02  0.2196302E+00
         22   -1    0    0    0    0  0.00000000000E+00  0.00000000000E+00  0.75528778821E+00  0.75528778821E+00  0.00000000000E+00 0.  1.
         22   -1    0    0    0    0 -0.00000000000E+00 -0.00000000000E+00 -0.29812539174E+02  0.29812539174E+02  0.00000000000E+00 0.  1.
          4    1    1    2  501    0  0.42762521961E+01 -0.19821077448E+00 -0.19700698719E+02  0.20200397282E+02  0.12700000000E+01 0.  1.
         -4    1    1    2    0  501 -0.42762521961E+01  0.19821077448E+00 -0.93565526667E+01  0.10367429680E+02  0.12700000000E+01 0.  1.
<mgrwt>
<rscale>  0 0.44652570E+01</rscale>
<asrwt>0</asrwt>
<pdfrwt beam="1">0</pdfrwt>
<pdfrwt beam="2">0</pdfrwt>
<totfact> 0.56400323E+11</totfact>
</mgrwt>
</event>
<event>
 4    1  0.1838758E+006  0.2249904E+01  0.7546771E-02  0.2830237E+00
         22   -1    0    0    0    0  0.00000000000E+00  0.00000000000E+00  0.62675167335E+00  0.62675167335E+00  0.00000000000E+00 0.  1.
         22   -1    0    0    0    0 -0.00000000000E+00 -0.00000000000E+00 -0.89746641696E+01  0.89746641696E+01  0.00000000000E+00 0. -1.
          4    1    1    2  501    0 -0.16202058120E+01 -0.90780035820E+00 -0.26553954084E+01  0.34804012899E+01  0.12700000000E+01 0.  1.
         -4    1    1    2    0  501  0.16202058120E+01  0.90780035820E+00 -0.56925170878E+01  0.61210145530E+01  0.12700000000E+01 0. -1.
<mgrwt>
<rscale>  0 0.22499041E+01</rscale>
<asrwt>0</asrwt>
<pdfrwt beam="1">0</pdfrwt>
<pdfrwt beam="2">0</pdfrwt>
<totfact> 0.30766556E+12</totfact>
</mgrwt>
</event>
<event>
 4    1  0.1838758E+006  0.4104851E+01  0.7546771E-02  0.2257689E+00
         22   -1    0    0    0    0  0.00000000000E+00  0.00000000000E+00  0.21436513853E+02  0.21436513853E+02  0.00000000000E+00 0. -1.
         22   -1    0    0    0    0 -0.00000000000E+00 -0.00000000000E+00 -0.81796628205E+00  0.81796628205E+00  0.00000000000E+00 0.  1.
          4    1    1    2  501    0 -0.29760517821E+01  0.25258695423E+01  0.81106876606E+01  0.90902725747E+01  0.12700000000E+01 0.  1.
         -4    1    1    2    0  501  0.29760517821E+01 -0.25258695423E+01  0.12507859910E+02  0.13164207560E+02  0.12700000000E+01 0. -1.
<mgrwt>
<rscale>  0 0.41048509E+01</rscale>
<asrwt>0</asrwt>
<pdfrwt beam="1">0</pdfrwt>
<pdfrwt beam="2">0</pdfrwt>
<totfact> 0.78112605E+11</totfact>
</mgrwt>
</event>
<event>
 4    1  0.1838758E+006  0.2472845E+01  0.7546771E-02  0.2720624E+00
         22   -1    0    0    0    0  0.00000000000E+00  0.00000000000E+00  0.23616094674E+01  0.23616094674E+01  0.00000000000E+00 0.  1.
         22   -1    0    0    0    0 -0.00000000000E+00 -0.00000000000E+00 -0.88413951543E+01  0.88413951543E+01  0.00000000000E+00 0. -1.
          4    1    1    2  501    0 -0.65176550139E+00 -0.20192242480E+01  0.14704897274E+01  0.28770305648E+01  0.12700000000E+01 0.  1.
         -4    1    1    2    0  501  0.65176550139E+00  0.20192242480E+01 -0.79502754143E+01  0.83259740569E+01  0.12700000000E+01 0. -1.
<mgrwt>
<rscale>  0 0.24728455E+01</rscale>
<asrwt>0</asrwt>
<pdfrwt beam="1">0</pdfrwt>
<pdfrwt beam="2">0</pdfrwt>
<totfact> 0.68457797E+11</totfact>
</mgrwt>
</event>
<event>
 4    1  0.1838758E+006  0.2540425E+01  0.7546771E-02  0.2690972E+00
         22   -1    0    0    0    0  0.00000000000E+00  0.00000000000E+00  0.24675617809E+01  0.24675617809E+01  0.00000000000E+00 0. -1.
         22   -1    0    0    0    0 -0.00000000000E+00 -0.00000000000E+00 -0.37165971212E+01  0.37165971212E+01  0.00000000000E+00 0.  1.
          4    1    1    2  501    0  0.21881508910E+01  0.22989942159E+00  0.10585542899E+01  0.27521437554E+01  0.12700000000E+01 0. -1.
         -4    1    1    2    0  501 -0.21881508910E+01 -0.22989942159E+00 -0.23075896301E+01  0.34320151467E+01  0.12700000000E+01 0.  1.
<mgrwt>
<rscale>  0 0.25404248E+01</rscale>
<asrwt>0</asrwt>
<pdfrwt beam="1">0</pdfrwt>
<pdfrwt beam="2">0</pdfrwt>
<totfact> 0.18232546E+12</totfact>
</mgrwt>
</event>
<event>
 4    1  0.1838758E+006  0.2613211E+01  0.7546771E-02  0.2660629E+00
         22   -1    0    0    0    0  0.00000000000E+00  0.00000000000E+00  0.52438034279E+00  0.52438034279E+00  0.00000000000E+00 0.  1.
         22   -1    0    0    0    0 -0.00000000000E+00 -0.00000000000E+00 -0.14969496806E+02  0.14969496806E+02  0.00000000000E+00 0. -1.
          4    1    1    2  501    0 -0.12480308055E+01 -0.19126922008E+01 -0.44288463053E+01  0.51423294277E+01  0.12700000000E+01 0.  1.
         -4    1    1    2    0  501  0.12480308055E+01  0.19126922008E+01 -0.10016270158E+02  0.10351547721E+02  0.12700000000E+01 0. -1.
<mgrwt>
<rscale>  0 0.26132111E+01</rscale>
<asrwt>0</asrwt>
<pdfrwt beam="1">0</pdfrwt>
<pdfrwt beam="2">0</pdfrwt>
<totfact> 0.20189759E+12</totfact>
</mgrwt>
</event>
<event>
 4    1  0.1838758E+006  0.2223127E+01  0.7546771E-02  0.2844801E+00
         22   -1    0    0    0    0  0.00000000000E+00  0.00000000000E+00  0.37532538523E+00  0.37532538523E+00  0.00000000000E+00 0. -1.
         22   -1    0    0    0    0 -0.00000000000E+00 -0.00000000000E+00 -0.19710792655E+02  0.19710792655E+02  0.00000000000E+00 0.  1.
          4    1    1    2  501    0  0.11783738904E+00 -0.18208541380E+01 -0.38815182379E+01  0.44730838661E+01  0.12700000000E+01 0. -1.
         -4    1    1    2    0  501 -0.11783738904E+00  0.18208541380E+01 -0.15453949031E+02  0.15613034174E+02  0.12700000000E+01 0.  1.
<mgrwt>
<rscale>  0 0.22231274E+01</rscale>
<asrwt>0</asrwt>
<pdfrwt beam="1">0</pdfrwt>
<pdfrwt beam="2">0</pdfrwt>
<totfact> 0.20935558E+12</totfact>
</mgrwt>
</event>
<event>
 4    1  0.1838758E+006  0.2122788E+01  0.7546771E-02  0.2902503E+00
         22   -1    0    0    0    0  0.00000000000E+00  0.00000000000E+00  0.13258673484E+02  0.13258673484E+02  0.00000000000E+00 0.  1.
         22   -1    0    0    0    0 -0.00000000000E+00 -0.00000000000E+00 -0.43067976941E+00  0.43067976941E+00  0.00000000000E+00 0. -1.
          4    1    1    2  501    0  0.16854639581E+01 -0.22921686742E+00  0.95569746008E+01  0.97898923716E+01  0.12700000000E+01 0.  1.
         -4    1    1    2    0  501 -0.16854639581E+01  0.22921686742E+00  0.32710191140E+01  0.38994608820E+01  0.12700000000E+01 0. -1.
<mgrwt>
<rscale>  0 0.21227881E+01</rscale>
<asrwt>0</asrwt>
<pdfrwt beam="1">0</pdfrwt>
<pdfrwt beam="2">0</pdfrwt>
<totfact> 0.29259085E+12</totfact>
</mgrwt>
</event>
<event>
 4    1  0.1838758E+006  0.3246282E+01  0.7546771E-02  0.2449650E+00
         22   -1    0    0    0    0  0.00000000000E+00  0.00000000000E+00  0.51748398525E+01  0.51748398525E+01  0.00000000000E+00 0.  1.
         22   -1    0    0    0    0 -0.00000000000E+00 -0.00000000000E+00 -0.10564966581E+02  0.10564966581E+02  0.00000000000E+00 0. -1.
          4    1    1    2  501    0  0.26988121854E+01 -0.12813504737E+01  0.43757905072E+01  0.54484758246E+01  0.12700000000E+01 0.  1.
         -4    1    1    2    0  501 -0.26988121854E+01  0.12813504737E+01 -0.97659172356E+01  0.10291330609E+02  0.12700000000E+01 0. -1.
<mgrwt>
<rscale>  0 0.32462819E+01</rscale>
<asrwt>0</asrwt>
<pdfrwt beam="1">0</pdfrwt>
<pdfrwt beam="2">0</pdfrwt>
<totfact> 0.21993688E+11</totfact>
</mgrwt>
</event>
<event>
 4    1  0.1838758E+006  0.2892532E+01  0.7546771E-02  0.2557272E+00
         22   -1    0    0    0    0  0.00000000000E+00  0.00000000000E+00  0.35936440025E+02  0.35936440025E+02  0.00000000000E+00 0. -1.
         22   -1    0    0    0    0 -0.00000000000E+00 -0.00000000000E+00 -0.66815793403E+00  0.66815793403E+00  0.00000000000E+00 0.  1.
          4    1    1    2  501    0 -0.24758894311E+01 -0.78981739303E+00  0.32407494430E+02  0.32536324857E+02  0.12700000000E+01 0. -1.
         -4    1    1    2    0  501  0.24758894311E+01  0.78981739303E+00  0.28607876611E+01  0.40682731019E+01  0.12700000000E+01 0.  1.
<mgrwt>
<rscale>  0 0.28925318E+01</rscale>
<asrwt>0</asrwt>
<pdfrwt beam="1">0</pdfrwt>
<pdfrwt beam="2">0</pdfrwt>
<totfact> 0.51023214E+11</totfact>
</mgrwt>
</event>
<event>
 4    1  0.1838758E+006  0.4998062E+01  0.7546771E-02  0.2123235E+00
         22   -1    0    0    0    0  0.00000000000E+00  0.00000000000E+00  0.21610549370E+02  0.21610549370E+02  0.00000000000E+00 0. -1.
         22   -1    0    0    0    0 -0.00000000000E+00 -0.00000000000E+00 -0.12482410355E+01  0.12482410355E+01  0.00000000000E+00 0.  1.
          4    1    1    2  501    0 -0.38575882956E+01  0.29132010538E+01  0.70732814693E+01  0.86609432848E+01  0.12700000000E+01 0.  1.
         -4    1    1    2    0  501  0.38575882956E+01 -0.29132010538E+01  0.13289026865E+02  0.14197847121E+02  0.12700000000E+01 0. -1.
<mgrwt>
<rscale>  0 0.49980624E+01</rscale>
<asrwt>0</asrwt>
<pdfrwt beam="1">0</pdfrwt>
<pdfrwt beam="2">0</pdfrwt>
<totfact> 0.47715445E+11</totfact>
</mgrwt>
</event>
<event>
 4    1  0.1838758E+006  0.2380767E+01  0.7546771E-02  0.2763550E+00
         22   -1    0    0    0    0  0.00000000000E+00  0.00000000000E+00  0.36812777016E+00  0.36812777016E+00  0.00000000000E+00 0.  1.
         22   -1    0    0    0    0 -0.00000000000E+00 -0.00000000000E+00 -0.15429788505E+02  0.15429788505E+02  0.00000000000E+00 0. -1.
          4    1    1    2  501    0 -0.51795855957E+00 -0.19459877281E+01 -0.71664946024E+01  0.75516020945E+01  0.12700000000E+01 0. -1.
         -4    1    1    2    0  501  0.51795855957E+00  0.19459877281E+01 -0.78951661329E+01  0.82463141811E+01  0.12700000000E+01 0. -1.
<mgrwt>
<rscale>  0 0.23807665E+01</rscale>
<asrwt>0</asrwt>
<pdfrwt beam="1">0</pdfrwt>
<pdfrwt beam="2">0</pdfrwt>
<totfact> 0.28980749E+12</totfact>
</mgrwt>
</event>
<event>
 4    1  0.1838758E+006  0.2559153E+01  0.7546771E-02  0.2683012E+00
         22   -1    0    0    0    0  0.00000000000E+00  0.00000000000E+00  0.56948115420E+00  0.56948115420E+00  0.00000000000E+00 0.  1.
         22   -1    0    0    0    0 -0.00000000000E+00 -0.00000000000E+00 -0.12072488711E+02  0.12072488711E+02  0.00000000000E+00 0.  1.
          4    1    1    2  501    0 -0.21947314382E+01  0.34571101735E+00 -0.43755074072E+01  0.50689572166E+01  0.12700000000E+01 0.  1.
         -4    1    1    2    0  501  0.21947314382E+01 -0.34571101735E+00 -0.71275001498E+01  0.75730126488E+01  0.12700000000E+01 0.  1.
<mgrwt>
<rscale>  0 0.25591526E+01</rscale>
<asrwt>0</asrwt>
<pdfrwt beam="1">0</pdfrwt>
<pdfrwt beam="2">0</pdfrwt>
<totfact> 0.23935193E+12</totfact>
</mgrwt>
</event>
<event>
 4    1  0.1838758E+006  0.2994385E+01  0.7546771E-02  0.2523957E+00
         22   -1    0    0    0    0  0.00000000000E+00  0.00000000000E+00  0.66075180700E+01  0.66075180700E+01  0.00000000000E+00 0.  1.
         22   -1    0    0    0    0 -0.00000000000E+00 -0.00000000000E+00 -0.22775656722E+01  0.22775656722E+01  0.00000000000E+00 0. -1.
          4    1    1    2  501    0 -0.14737489269E+00  0.27077152472E+01  0.49893725005E+01  0.58189500056E+01  0.12700000000E+01 0.  1.
         -4    1    1    2    0  501  0.14737489269E+00 -0.27077152472E+01 -0.65942010261E+00  0.30661337366E+01  0.12700000000E+01 0. -1.
<mgrwt>
<rscale>  0 0.29943849E+01</rscale>
<asrwt>0</asrwt>
<pdfrwt beam="1">0</pdfrwt>
<pdfrwt beam="2">0</pdfrwt>
<totfact> 0.10126081E+12</totfact>
</mgrwt>
</event>
<event>
 4    1  0.1838758E+006  0.2052683E+01  0.7546771E-02  0.2946048E+00
         22   -1    0    0    0    0  0.00000000000E+00  0.00000000000E+00  0.41846076206E+02  0.41846076206E+02  0.00000000000E+00 0. -1.
         22   -1    0    0    0    0 -0.00000000000E+00 -0.00000000000E+00 -0.25668699634E+00  0.25668699634E+00  0.00000000000E+00 0.  1.
          4    1    1    2  501    0 -0.78534403290E+00 -0.14084898104E+01  0.37205726029E+02  0.37262307472E+02  0.12700000000E+01 0. -1.
         -4    1    1    2    0  501  0.78534403290E+00  0.14084898104E+01  0.43836631812E+01  0.48404557308E+01  0.12700000000E+01 0.  1.
<mgrwt>
<rscale>  0 0.20526833E+01</rscale>
<asrwt>0</asrwt>
<pdfrwt beam="1">0</pdfrwt>
<pdfrwt beam="2">0</pdfrwt>
<totfact> 0.12303773E+12</totfact>
</mgrwt>
</event>
<event>
 4    1  0.1838758E+006  0.2636285E+01  0.7546771E-02  0.2651334E+00
         22   -1    0    0    0    0  0.00000000000E+00  0.00000000000E+00  0.12920413476E+01  0.12920413476E+01  0.00000000000E+00 0. -1.
         22   -1    0    0    0    0 -0.00000000000E+00 -0.00000000000E+00 -0.84767612668E+01  0.84767612668E+01  0.00000000000E+00 0.  1.
          4    1    1    2  501    0 -0.85692761924E+00 -0.21454069643E+01 -0.63969202862E+00  0.27127848936E+01  0.12700000000E+01 0. -1.
         -4    1    1    2    0  501  0.85692761924E+00  0.21454069643E+01 -0.65450278906E+01  0.70560177208E+01  0.12700000000E+01 0.  1.
<mgrwt>
<rscale>  0 0.26362845E+01</rscale>
<asrwt>0</asrwt>
<pdfrwt beam="1">0</pdfrwt>
<pdfrwt beam="2">0</pdfrwt>
<totfact> 0.14447892E+12</totfact>
</mgrwt>
</event>
<event>
 4    1  0.1838758E+006  0.2026091E+01  0.7546771E-02  0.2963333E+00
         22   -1    0    0    0    0  0.00000000000E+00  0.00000000000E+00  0.49342858537E+01  0.49342858537E+01  0.00000000000E+00 0.  1.
         22   -1    0    0    0    0 -0.00000000000E+00 -0.00000000000E+00 -0.10292013559E+01  0.10292013559E+01  0.00000000000E+00 0.  1.
          4    1    1    2  501    0 -0.15786138645E+01  0.11110428070E-01  0.32579244673E+01  0.38365501443E+01  0.12700000000E+01 0.  1.
         -4    1    1    2    0  501  0.15786138645E+01 -0.11110428070E-01  0.64716003047E+00  0.21269370653E+01  0.12700000000E+01 0.  1.
<mgrwt>
<rscale>  0 0.20260911E+01</rscale>
<asrwt>0</asrwt>
<pdfrwt beam="1">0</pdfrwt>
<pdfrwt beam="2">0</pdfrwt>
<totfact> 0.35751173E+12</totfact>
</mgrwt>
</event>
<event>
 4    1  0.1838758E+006  0.2403989E+01  0.7546771E-02  0.2752433E+00
         22   -1    0    0    0    0  0.00000000000E+00  0.00000000000E+00  0.19395072024E+02  0.19395072024E+02  0.00000000000E+00 0. -1.
         22   -1    0    0    0    0 -0.00000000000E+00 -0.00000000000E+00 -0.32837412250E+00  0.32837412250E+00  0.00000000000E+00 0.  1.
          4    1    1    2  501    0  0.13370985621E+01  0.15422165474E+01  0.12534094116E+02  0.12762549892E+02  0.12700000000E+01 0. -1.
         -4    1    1    2    0  501 -0.13370985621E+01 -0.15422165474E+01  0.65326037852E+01  0.69608962539E+01  0.12700000000E+01 0.  1.
<mgrwt>
<rscale>  0 0.24039893E+01</rscale>
<asrwt>0</asrwt>
<pdfrwt beam="1">0</pdfrwt>
<pdfrwt beam="2">0</pdfrwt>
<totfact> 0.24822441E+12</totfact>
</mgrwt>
</event>
<event>
 4    1  0.1838758E+006  0.2227276E+01  0.7546771E-02  0.2842523E+00
         22   -1    0    0    0    0  0.00000000000E+00  0.00000000000E+00  0.42139689197E+01  0.42139689197E+01  0.00000000000E+00 0. -1.
         22   -1    0    0    0    0 -0.00000000000E+00 -0.00000000000E+00 -0.13406404575E+01  0.13406404575E+01  0.00000000000E+00 0. -1.
          4    1    1    2  501    0  0.30712144673E-01 -0.18294570115E+01  0.46699312286E+00  0.22757062134E+01  0.12700000000E+01 0. -1.
         -4    1    1    2    0  501 -0.30712144673E-01  0.18294570115E+01  0.24063353393E+01  0.32789031638E+01  0.12700000000E+01 0. -1.
<mgrwt>
<rscale>  0 0.22272755E+01</rscale>
<asrwt>0</asrwt>
<pdfrwt beam="1">0</pdfrwt>
<pdfrwt beam="2">0</pdfrwt>
<totfact> 0.31823863E+12</totfact>
</mgrwt>
</event>
<event>
 4    1  0.1838758E+006  0.2240815E+01  0.7546771E-02  0.2835144E+00
         22   -1    0    0    0    0  0.00000000000E+00  0.00000000000E+00  0.11636494446E+01  0.11636494446E+01  0.00000000000E+00 0. -1.
         22   -1    0    0    0    0 -0.00000000000E+00 -0.00000000000E+00 -0.12818764768E+02  0.12818764768E+02  0.00000000000E+00 0.  1.
          4    1    1    2  501    0 -0.11117092838E+01  0.14739246926E+01 -0.13336166411E+00  0.22447799145E+01  0.12700000000E+01 0. -1.
         -4    1    1    2    0  501  0.11117092838E+01 -0.14739246926E+01 -0.11521753660E+02  0.11737634299E+02  0.12700000000E+01 0.  1.
<mgrwt>
<rscale>  0 0.22408149E+01</rscale>
<asrwt>0</asrwt>
<pdfrwt beam="1">0</pdfrwt>
<pdfrwt beam="2">0</pdfrwt>
<totfact> 0.98634450E+11</totfact>
</mgrwt>
</event>
<event>
 4    1  0.1838758E+006  0.3717477E+01  0.7546771E-02  0.2334787E+00
         22   -1    0    0    0    0  0.00000000000E+00  0.00000000000E+00  0.27849522480E+01  0.27849522480E+01  0.00000000000E+00 0.  1.
         22   -1    0    0    0    0 -0.00000000000E+00 -0.00000000000E+00 -0.65877438349E+01  0.65877438349E+01  0.00000000000E+00 0.  1.
          4    1    1    2  501    0 -0.32058840223E+01  0.13889007274E+01  0.42647275527E+00  0.37418600463E+01  0.12700000000E+01 0.  1.
         -4    1    1    2    0  501  0.32058840223E+01 -0.13889007274E+01 -0.42292643422E+01  0.56308360366E+01  0.12700000000E+01 0.  1.
<mgrwt>
<rscale>  0 0.37174773E+01</rscale>
<asrwt>0</asrwt>
<pdfrwt beam="1">0</pdfrwt>
<pdfrwt beam="2">0</pdfrwt>
<totfact> 0.80422838E+11</totfact>
</mgrwt>
</event>
<event>
 4    1  0.1838758E+006  0.2044569E+01  0.7546771E-02  0.2951276E+00
         22   -1    0    0    0    0  0.00000000000E+00  0.00000000000E+00  0.28518950756E+02  0.28518950756E+02  0.00000000000E+00 0.  1.
         22   -1    0    0    0    0 -0.00000000000E+00 -0.00000000000E+00 -0.21121193464E+00  0.21121193464E+00  0.00000000000E+00 0. -1.
          4    1    1    2  501    0 -0.92345390245E+00 -0.13094261244E+01  0.22100400996E+02  0.22194773891E+02  0.12700000000E+01 0.  1.
         -4    1    1    2    0  501  0.92345390245E+00  0.13094261244E+01  0.62073378253E+01  0.65353887997E+01  0.12700000000E+01 0. -1.
<mgrwt>
<rscale>  0 0.20445694E+01</rscale>
<asrwt>0</asrwt>
<pdfrwt beam="1">0</pdfrwt>
<pdfrwt beam="2">0</pdfrwt>
<totfact> 0.25048630E+12</totfact>
</mgrwt>
</event>
<event>
 4    1  0.1838758E+006  0.2344119E+01  0.7546771E-02  0.2781515E+00
         22   -1    0    0    0    0  0.00000000000E+00  0.00000000000E+00  0.16653396631E+01  0.16653396631E+01  0.00000000000E+00 0. -1.
         22   -1    0    0    0    0 -0.00000000000E+00 -0.00000000000E+00 -0.32995681752E+01  0.32995681752E+01  0.00000000000E+00 0. -1.
          4    1    1    2  501    0 -0.17339904754E+01  0.93555892350E+00 -0.81406602998E+00  0.24814505777E+01  0.12700000000E+01 0. -1.
         -4    1    1    2    0  501  0.17339904754E+01 -0.93555892350E+00 -0.82016248213E+00  0.24834572606E+01  0.12700000000E+01 0. -1.
<mgrwt>
<rscale>  0 0.23441189E+01</rscale>
<asrwt>0</asrwt>
<pdfrwt beam="1">0</pdfrwt>
<pdfrwt beam="2">0</pdfrwt>
<totfact> 0.33050074E+12</totfact>
</mgrwt>
</event>
<event>
 4    1  0.1838758E+006  0.2999525E+01  0.7546771E-02  0.2522330E+00
         22   -1    0    0    0    0  0.00000000000E+00  0.00000000000E+00  0.10446391850E+03  0.10446391850E+03  0.00000000000E+00 0. -1.
         22   -1    0    0    0    0 -0.00000000000E+00 -0.00000000000E+00 -0.13720395379E+00  0.13720395379E+00  0.00000000000E+00 0.  1.
          4    1    1    2  501    0  0.23878150112E+01  0.12971473918E+01  0.84074034370E+02  0.84127524670E+02  0.12700000000E+01 0. -1.
         -4    1    1    2    0  501 -0.23878150112E+01 -0.12971473918E+01  0.20252680172E+02  0.20473597780E+02  0.12700000000E+01 0.  1.
<mgrwt>
<rscale>  0 0.29995253E+01</rscale>
<asrwt>0</asrwt>
<pdfrwt beam="1">0</pdfrwt>
<pdfrwt beam="2">0</pdfrwt>
<totfact> 0.71768488E+11</totfact>
</mgrwt>
</event>
<event>
 4    1  0.1838758E+006  0.2152229E+01  0.7546771E-02  0.2885036E+00
         22   -1    0    0    0    0  0.00000000000E+00  0.00000000000E+00  0.27117041280E+00  0.27117041280E+00  0.00000000000E+00 0. -1.
         22   -1    0    0    0    0 -0.00000000000E+00 -0.00000000000E+00 -0.17179880971E+02  0.17179880971E+02  0.00000000000E+00 0.  1.
          4    1    1    2  501    0  0.12237892523E+01  0.12335035422E+01 -0.91134880817E+01  0.93641740766E+01  0.12700000000E+01 0.  1.
         -4    1    1    2    0  501 -0.12237892523E+01 -0.12335035422E+01 -0.77952224770E+01  0.80868773076E+01  0.12700000000E+01 0.  1.
<mgrwt>
<rscale>  0 0.21522293E+01</rscale>
<asrwt>0</asrwt>
<pdfrwt beam="1">0</pdfrwt>
<pdfrwt beam="2">0</pdfrwt>
<totfact> 0.35761717E+12</totfact>
</mgrwt>
</event>
<event>
 4    1  0.1838758E+006  0.2109441E+01  0.7546771E-02  0.2910577E+00
         22   -1    0    0    0    0  0.00000000000E+00  0.00000000000E+00  0.15203754921E+02  0.15203754921E+02  0.00000000000E+00 0. -1.
         22   -1    0    0    0    0 -0.00000000000E+00 -0.00000000000E+00 -0.80689736893E+00  0.80689736893E+00  0.00000000000E+00 0. -1.
          4    1    1    2  501    0 -0.16792603214E+01  0.13009726815E+00  0.13589091170E+02  0.13751841308E+02  0.12700000000E+01 0. -1.
         -4    1    1    2    0  501  0.16792603214E+01 -0.13009726815E+00  0.80776638232E+00  0.22588109825E+01  0.12700000000E+01 0. -1.
<mgrwt>
<rscale>  0 0.21094408E+01</rscale>
<asrwt>0</asrwt>
<pdfrwt beam="1">0</pdfrwt>
<pdfrwt beam="2">0</pdfrwt>
<totfact> 0.12150024E+12</totfact>
</mgrwt>
</event>
<event>
 4    1  0.1838758E+006  0.2143749E+01  0.7546771E-02  0.2890019E+00
         22   -1    0    0    0    0  0.00000000000E+00  0.00000000000E+00  0.21737661000E+01  0.21737661000E+01  0.00000000000E+00 0. -1.
         22   -1    0    0    0    0 -0.00000000000E+00 -0.00000000000E+00 -0.21434792448E+01  0.21434792448E+01  0.00000000000E+00 0.  1.
          4    1    1    2  501    0 -0.70182203204E+00  0.15780387161E+01  0.26766135312E+00  0.21603941663E+01  0.12700000000E+01 0. -1.
         -4    1    1    2    0  501  0.70182203204E+00 -0.15780387161E+01 -0.23737449792E+00  0.21568511785E+01  0.12700000000E+01 0.  1.
<mgrwt>
<rscale>  0 0.21437491E+01</rscale>
<asrwt>0</asrwt>
<pdfrwt beam="1">0</pdfrwt>
<pdfrwt beam="2">0</pdfrwt>
<totfact> 0.40142255E+12</totfact>
</mgrwt>
</event>
<event>
 4    1  0.1838758E+006  0.2034495E+01  0.7546771E-02  0.2957822E+00
         22   -1    0    0    0    0  0.00000000000E+00  0.00000000000E+00  0.18448045753E+01  0.18448045753E+01  0.00000000000E+00 0. -1.
         22   -1    0    0    0    0 -0.00000000000E+00 -0.00000000000E+00 -0.25630282576E+01  0.25630282576E+01  0.00000000000E+00 0.  1.
          4    1    1    2  501    0 -0.14201798688E+01  0.71369493786E+00 -0.11370467396E+01  0.23306751408E+01  0.12700000000E+01 0.  1.
         -4    1    1    2    0  501  0.14201798688E+01 -0.71369493786E+00  0.41882305727E+00  0.20771576920E+01  0.12700000000E+01 0. -1.
<mgrwt>
<rscale>  0 0.20344953E+01</rscale>
<asrwt>0</asrwt>
<pdfrwt beam="1">0</pdfrwt>
<pdfrwt beam="2">0</pdfrwt>
<totfact> 0.39436843E+12</totfact>
</mgrwt>
</event>
<event>
 4    1  0.1838758E+006  0.2988634E+01  0.7546771E-02  0.2525784E+00
         22   -1    0    0    0    0  0.00000000000E+00  0.00000000000E+00  0.82991201223E+00  0.82991201223E+00  0.00000000000E+00 0. -1.
         22   -1    0    0    0    0 -0.00000000000E+00 -0.00000000000E+00 -0.14289848384E+02  0.14289848384E+02  0.00000000000E+00 0.  1.
          4    1    1    2  501    0  0.26752015801E+01  0.40290514403E+00 -0.29739759502E+01  0.42162150089E+01  0.12700000000E+01 0. -1.
         -4    1    1    2    0  501 -0.26752015801E+01 -0.40290514403E+00 -0.10485960421E+02  0.10903545387E+02  0.12700000000E+01 0.  1.
<mgrwt>
<rscale>  0 0.29886345E+01</rscale>
<asrwt>0</asrwt>
<pdfrwt beam="1">0</pdfrwt>
<pdfrwt beam="2">0</pdfrwt>
<totfact> 0.12700574E+12</totfact>
</mgrwt>
</event>
<event>
 4    1  0.1838758E+006  0.2013861E+01  0.7546771E-02  0.2971432E+00
         22   -1    0    0    0    0  0.00000000000E+00  0.00000000000E+00  0.35867430256E+00  0.35867430256E+00  0.00000000000E+00 0.  1.
         22   -1    0    0    0    0 -0.00000000000E+00 -0.00000000000E+00 -0.32629358964E+02  0.32629358964E+02  0.00000000000E+00 0. -1.
          4    1    1    2  501    0 -0.14662879869E+01 -0.54104982820E+00 -0.28020684490E+01  0.34506844205E+01  0.12700000000E+01 0.  1.
         -4    1    1    2    0  501  0.14662879869E+01  0.54104982820E+00 -0.29468616212E+02  0.29537348846E+02  0.12700000000E+01 0. -1.
<mgrwt>
<rscale>  0 0.20138608E+01</rscale>
<asrwt>0</asrwt>
<pdfrwt beam="1">0</pdfrwt>
<pdfrwt beam="2">0</pdfrwt>
<totfact> 0.11657201E+12</totfact>
</mgrwt>
</event>
<event>
 4    1  0.1838758E+006  0.2146356E+01  0.7546771E-02  0.2888483E+00
         22   -1    0    0    0    0  0.00000000000E+00  0.00000000000E+00  0.14760336218E+00  0.14760336218E+00  0.00000000000E+00 0.  1.
         22   -1    0    0    0    0 -0.00000000000E+00 -0.00000000000E+00 -0.35721497611E+02  0.35721497611E+02  0.00000000000E+00 0.  1.
          4    1    1    2  501    0  0.14932101986E+01 -0.87422288761E+00 -0.11414005918E+02  0.11614059301E+02  0.12700000000E+01 0.  1.
         -4    1    1    2    0  501 -0.14932101986E+01  0.87422288761E+00 -0.24159888331E+02  0.24255041672E+02  0.12700000000E+01 0.  1.
<mgrwt>
<rscale>  0 0.21463556E+01</rscale>
<asrwt>0</asrwt>
<pdfrwt beam="1">0</pdfrwt>
<pdfrwt beam="2">0</pdfrwt>
<totfact> 0.27992794E+12</totfact>
</mgrwt>
</event>
<event>
 4    1  0.1838758E+006  0.2124412E+01  0.7546771E-02  0.2901527E+00
         22   -1    0    0    0    0  0.00000000000E+00  0.00000000000E+00  0.15245669471E+01  0.15245669471E+01  0.00000000000E+00 0. -1.
         22   -1    0    0    0    0 -0.00000000000E+00 -0.00000000000E+00 -0.32861026408E+01  0.32861026408E+01  0.00000000000E+00 0.  1.
          4    1    1    2  501    0  0.15374987779E+01  0.73234118987E+00 -0.12335289046E+00  0.21279901424E+01  0.12700000000E+01 0. -1.
         -4    1    1    2    0  501 -0.15374987779E+01 -0.73234118987E+00 -0.16381828032E+01  0.26826794455E+01  0.12700000000E+01 0.  1.
<mgrwt>
<rscale>  0 0.21244119E+01</rscale>
<asrwt>0</asrwt>
<pdfrwt beam="1">0</pdfrwt>
<pdfrwt beam="2">0</pdfrwt>
<totfact> 0.36763930E+12</totfact>
</mgrwt>
</event>
<event>
 4    1  0.1838758E+006  0.2550057E+01  0.7546771E-02  0.2686865E+00
         22   -1    0    0    0    0  0.00000000000E+00  0.00000000000E+00  0.59062223915E+01  0.59062223915E+01  0.00000000000E+00 0.  1.
         22   -1    0    0    0    0 -0.00000000000E+00 -0.00000000000E+00 -0.28282363252E+01  0.28282363252E+01  0.00000000000E+00 0. -1.
          4    1    1    2  501    0 -0.15249471627E+01 -0.16013826360E+01  0.49518901531E+01  0.55699197736E+01  0.12700000000E+01 0.  1.
         -4    1    1    2    0  501  0.15249471627E+01  0.16013826360E+01 -0.18739040868E+01  0.31645389431E+01  0.12700000000E+01 0. -1.
<mgrwt>
<rscale>  0 0.25500569E+01</rscale>
<asrwt>0</asrwt>
<pdfrwt beam="1">0</pdfrwt>
<pdfrwt beam="2">0</pdfrwt>
<totfact> 0.89966453E+11</totfact>
</mgrwt>
</event>
<event>
 4    1  0.1838758E+006  0.3623440E+01  0.7546771E-02  0.2355625E+00
         22   -1    0    0    0    0  0.00000000000E+00  0.00000000000E+00  0.40549825380E+01  0.40549825380E+01  0.00000000000E+00 0.  1.
         22   -1    0    0    0    0 -0.00000000000E+00 -0.00000000000E+00 -0.80173276390E+01  0.80173276390E+01  0.00000000000E+00 0.  1.
          4    1    1    2  501    0 -0.29873501324E+01  0.16100167046E+01  0.26793759301E+01  0.45064808862E+01  0.12700000000E+01 0.  1.
         -4    1    1    2    0  501  0.29873501324E+01 -0.16100167046E+01 -0.66417210311E+01  0.75658292909E+01  0.12700000000E+01 0.  1.
<mgrwt>
<rscale>  0 0.36234396E+01</rscale>
<asrwt>0</asrwt>
<pdfrwt beam="1">0</pdfrwt>
<pdfrwt beam="2">0</pdfrwt>
<totfact> 0.40932863E+11</totfact>
</mgrwt>
</event>
<event>
 4    1  0.1838758E+006  0.2459553E+01  0.7546771E-02  0.2726635E+00
         22   -1    0    0    0    0  0.00000000000E+00  0.00000000000E+00  0.83547486727E+01  0.83547486727E+01  0.00000000000E+00 0. -1.
         22   -1    0    0    0    0 -0.00000000000E+00 -0.00000000000E+00 -0.73359204416E+00  0.73359204416E+00  0.00000000000E+00 0. -1.
          4    1    1    2  501    0  0.20689724532E+01  0.39478637486E+00  0.32927976543E+01  0.41099780639E+01  0.12700000000E+01 0. -1.
         -4    1    1    2    0  501 -0.20689724532E+01 -0.39478637486E+00  0.43283589742E+01  0.49783626529E+01  0.12700000000E+01 0. -1.
<mgrwt>
<rscale>  0 0.24595535E+01</rscale>
<asrwt>0</asrwt>
<pdfrwt beam="1">0</pdfrwt>
<pdfrwt beam="2">0</pdfrwt>
<totfact> 0.28053149E+12</totfact>
</mgrwt>
</event>
<event>
 4    1  0.1838758E+006  0.3432952E+01  0.7546771E-02  0.2400855E+00
         22   -1    0    0    0    0  0.00000000000E+00  0.00000000000E+00  0.29112594189E+01  0.29112594189E+01  0.00000000000E+00 0.  1.
         22   -1    0    0    0    0 -0.00000000000E+00 -0.00000000000E+00 -0.42318084154E+01  0.42318084154E+01  0.00000000000E+00 0. -1.
          4    1    1    2  501    0 -0.21716017610E+01 -0.23358944334E+01  0.83807282645E-01  0.34339744718E+01  0.12700000000E+01 0.  1.
         -4    1    1    2    0  501  0.21716017610E+01  0.23358944334E+01 -0.14043562792E+01  0.37090933625E+01  0.12700000000E+01 0. -1.
<mgrwt>
<rscale>  0 0.34329516E+01</rscale>
<asrwt>0</asrwt>
<pdfrwt beam="1">0</pdfrwt>
<pdfrwt beam="2">0</pdfrwt>
<totfact> 0.12908016E+12</totfact>
</mgrwt>
</event>
<event>
 4    1  0.1838758E+006  0.4018337E+01  0.7546771E-02  0.2273803E+00
         22   -1    0    0    0    0  0.00000000000E+00  0.00000000000E+00  0.83849308600E+01  0.83849308600E+01  0.00000000000E+00 0.  1.
         22   -1    0    0    0    0 -0.00000000000E+00 -0.00000000000E+00 -0.21197167890E+01  0.21197167890E+01  0.00000000000E+00 0.  1.
          4    1    1    2  501    0 -0.25081001450E+01 -0.28711607320E+01  0.47215550210E+01  0.62000090405E+01  0.12700000000E+01 0.  1.
         -4    1    1    2    0  501  0.25081001450E+01  0.28711607320E+01  0.15436590500E+01  0.43046386084E+01  0.12700000000E+01 0.  1.
<mgrwt>
<rscale>  0 0.40183368E+01</rscale>
<asrwt>0</asrwt>
<pdfrwt beam="1">0</pdfrwt>
<pdfrwt beam="2">0</pdfrwt>
<totfact> 0.82721340E+11</totfact>
</mgrwt>
</event>
<event>
 4    1  0.1838758E+006  0.2082411E+01  0.7546771E-02  0.2927235E+00
         22   -1    0    0    0    0  0.00000000000E+00  0.00000000000E+00  0.19480524798E+00  0.19480524798E+00  0.00000000000E+00 0.  1.
         22   -1    0    0    0    0 -0.00000000000E+00 -0.00000000000E+00 -0.22323438940E+02  0.22323438940E+02  0.00000000000E+00 0. -1.
          4    1    1    2  501    0 -0.16500954372E+01  0.26828211921E-01 -0.11662825593E+02  0.11847275447E+02  0.12700000000E+01 0. -1.
         -4    1    1    2    0  501  0.16500954372E+01 -0.26828211921E-01 -0.10465808099E+02  0.10670968741E+02  0.12700000000E+01 0.  1.
<mgrwt>
<rscale>  0 0.20824108E+01</rscale>
<asrwt>0</asrwt>
<pdfrwt beam="1">0</pdfrwt>
<pdfrwt beam="2">0</pdfrwt>
<totfact> 0.37344342E+12</totfact>
</mgrwt>
</event>
<event>
 4    1  0.1838758E+006  0.2332867E+01  0.7546771E-02  0.2787137E+00
         22   -1    0    0    0    0  0.00000000000E+00  0.00000000000E+00  0.20734123832E+02  0.20734123832E+02  0.00000000000E+00 0. -1.
         22   -1    0    0    0    0 -0.00000000000E+00 -0.00000000000E+00 -0.28150958665E+00  0.28150958665E+00  0.00000000000E+00 0.  1.
          4    1    1    2  501    0 -0.68268611402E+00 -0.18339327986E+01  0.74942283303E+01  0.78489316539E+01  0.12700000000E+01 0.  1.
         -4    1    1    2    0  501  0.68268611402E+00  0.18339327986E+01  0.12958385915E+02  0.13166701765E+02  0.12700000000E+01 0. -1.
<mgrwt>
<rscale>  0 0.23328673E+01</rscale>
<asrwt>0</asrwt>
<pdfrwt beam="1">0</pdfrwt>
<pdfrwt beam="2">0</pdfrwt>
<totfact> 0.27144209E+12</totfact>
</mgrwt>
</event>
<event>
 4    1  0.1838758E+006  0.2199410E+01  0.7546771E-02  0.2857984E+00
         22   -1    0    0    0    0  0.00000000000E+00  0.00000000000E+00  0.64096327356E+01  0.64096327356E+01  0.00000000000E+00 0. -1.
         22   -1    0    0    0    0 -0.00000000000E+00 -0.00000000000E+00 -0.80374723187E+00  0.80374723187E+00  0.00000000000E+00 0. -1.
          4    1    1    2  501    0  0.16429730866E+01 -0.72466731751E+00  0.36938231246E+01  0.42990385623E+01  0.12700000000E+01 0. -1.
         -4    1    1    2    0  501 -0.16429730866E+01  0.72466731751E+00  0.19120623792E+01  0.29143414052E+01  0.12700000000E+01 0. -1.
<mgrwt>
<rscale>  0 0.21994098E+01</rscale>
<asrwt>0</asrwt>
<pdfrwt beam="1">0</pdfrwt>
<pdfrwt beam="2">0</pdfrwt>
<totfact> 0.34733960E+12</totfact>
</mgrwt>
</event>
<event>
 4    1  0.1838758E+006  0.2120927E+01  0.7546771E-02  0.2903623E+00
         22   -1    0    0    0    0  0.00000000000E+00  0.00000000000E+00  0.33076305722E+01  0.33076305722E+01  0.00000000000E+00 0.  1.
         22   -1    0    0    0    0 -0.00000000000E+00 -0.00000000000E+00 -0.14302232866E+01  0.14302232866E+01  0.00000000000E+00 0. -1.
          4    1    1    2  501    0  0.15833486166E+01  0.61517267082E+00  0.14636737249E+01  0.25769499470E+01  0.12700000000E+01 0.  1.
         -4    1    1    2    0  501 -0.15833486166E+01 -0.61517267082E+00  0.41373356067E+00  0.21609039118E+01  0.12700000000E+01 0.  1.
<mgrwt>
<rscale>  0 0.21209267E+01</rscale>
<asrwt>0</asrwt>
<pdfrwt beam="1">0</pdfrwt>
<pdfrwt beam="2">0</pdfrwt>
<totfact> 0.39265651E+12</totfact>
</mgrwt>
</event>
<event>
 4    1  0.1838758E+006  0.2579960E+01  0.7546771E-02  0.2674294E+00
         22   -1    0    0    0    0  0.00000000000E+00  0.00000000000E+00  0.42101916563E+01  0.42101916563E+01  0.00000000000E+00 0. -1.
         22   -1    0    0    0    0 -0.00000000000E+00 -0.00000000000E+00 -0.16205497685E+01  0.16205497685E+01  0.00000000000E+00 0.  1.
          4    1    1    2  501    0  0.18111100705E+01 -0.13278458772E+01  0.17504267453E+01  0.31177216283E+01  0.12700000000E+01 0.  1.
         -4    1    1    2    0  501 -0.18111100705E+01  0.13278458772E+01  0.83921514239E+00  0.27130197965E+01  0.12700000000E+01 0. -1.
<mgrwt>
<rscale>  0 0.25799601E+01</rscale>
<asrwt>0</asrwt>
<pdfrwt beam="1">0</pdfrwt>
<pdfrwt beam="2">0</pdfrwt>
<totfact> 0.25615681E+12</totfact>
</mgrwt>
</event>
<event>
 4    1  0.1838758E+006  0.2796853E+01  0.7546771E-02  0.2590556E+00
         22   -1    0    0    0    0  0.00000000000E+00  0.00000000000E+00  0.10496065175E+01  0.10496065175E+01  0.00000000000E+00 0. -1.
         22   -1    0    0    0    0 -0.00000000000E+00 -0.00000000000E+00 -0.74601527035E+01  0.74601527035E+01  0.00000000000E+00 0.  1.
          4    1    1    2  501    0 -0.24852357454E+01  0.18190266735E+00 -0.30706413910E+01  0.41534592622E+01  0.12700000000E+01 0. -1.
         -4    1    1    2    0  501  0.24852357454E+01 -0.18190266735E+00 -0.33399047950E+01  0.43562999587E+01  0.12700000000E+01 0.  1.
<mgrwt>
<rscale>  0 0.27968527E+01</rscale>
<asrwt>0</asrwt>
<pdfrwt beam="1">0</pdfrwt>
<pdfrwt beam="2">0</pdfrwt>
<totfact> 0.21369670E+12</totfact>
</mgrwt>
</event>
<event>
 4    1  0.1838758E+006  0.6091665E+01  0.7546771E-02  0.2011564E+00
         22   -1    0    0    0    0  0.00000000000E+00  0.00000000000E+00  0.93971552693E+01  0.93971552693E+01  0.00000000000E+00 0. -1.
         22   -1    0    0    0    0 -0.00000000000E+00 -0.00000000000E+00 -0.39835183852E+01  0.39835183852E+01  0.00000000000E+00 0.  1.
          4    1    1    2  501    0 -0.50352974446E+01 -0.31845340092E+01  0.20830824100E+01  0.64379817907E+01  0.12700000000E+01 0. -1.
         -4    1    1    2    0  501  0.50352974446E+01  0.31845340092E+01  0.33305544741E+01  0.69426918638E+01  0.12700000000E+01 0.  1.
<mgrwt>
<rscale>  0 0.60916646E+01</rscale>
<asrwt>0</asrwt>
<pdfrwt beam="1">0</pdfrwt>
<pdfrwt beam="2">0</pdfrwt>
<totfact> 0.34519948E+11</totfact>
</mgrwt>
</event>
<event>
 4    1  0.1838758E+006  0.2210698E+01  0.7546771E-02  0.2851676E+00
         22   -1    0    0    0    0  0.00000000000E+00  0.00000000000E+00  0.10612650923E+02  0.10612650923E+02  0.00000000000E+00 0.  1.
         22   -1    0    0    0    0 -0.00000000000E+00 -0.00000000000E+00 -0.46080078084E+00  0.46080078084E+00  0.00000000000E+00 0.  1.
          4    1    1    2  501    0 -0.39254031504E+00  0.17664078007E+01  0.52160751757E+01  0.56652117927E+01  0.12700000000E+01 0.  1.
         -4    1    1    2    0  501  0.39254031504E+00 -0.17664078007E+01  0.49357749666E+01  0.54082399113E+01  0.12700000000E+01 0.  1.
<mgrwt>
<rscale>  0 0.22106977E+01</rscale>
<asrwt>0</asrwt>
<pdfrwt beam="1">0</pdfrwt>
<pdfrwt beam="2">0</pdfrwt>
<totfact> 0.35563435E+12</totfact>
</mgrwt>
</event>
<event>
 4    1  0.1838758E+006  0.2169858E+01  0.7546771E-02  0.2874795E+00
         22   -1    0    0    0    0  0.00000000000E+00  0.00000000000E+00  0.47561722527E+02  0.47561722527E+02  0.00000000000E+00 0. -1.
         22   -1    0    0    0    0 -0.00000000000E+00 -0.00000000000E+00 -0.20637346762E+00  0.20637346762E+00  0.00000000000E+00 0.  1.
          4    1    1    2  501    0 -0.17509210502E+01  0.17221985080E+00  0.40906011961E+02  0.40963521562E+02  0.12700000000E+01 0. -1.
         -4    1    1    2    0  501  0.17509210502E+01 -0.17221985080E+00  0.64493370977E+01  0.68045744320E+01  0.12700000000E+01 0.  1.
<mgrwt>
<rscale>  0 0.21698581E+01</rscale>
<asrwt>0</asrwt>
<pdfrwt beam="1">0</pdfrwt>
<pdfrwt beam="2">0</pdfrwt>
<totfact> 0.13280583E+12</totfact>
</mgrwt>
</event>
<event>
 4    1  0.1838758E+006  0.2118175E+01  0.7546771E-02  0.2905282E+00
         22   -1    0    0    0    0  0.00000000000E+00  0.00000000000E+00  0.65716230280E-01  0.65716230280E-01  0.00000000000E+00 0. -1.
         22   -1    0    0    0    0 -0.00000000000E+00 -0.00000000000E+00 -0.75536934012E+02  0.75536934012E+02  0.00000000000E+00 0.  1.
          4    1    1    2  501    0  0.16762851765E+01  0.25265060028E+00 -0.49457674184E+02  0.49503012029E+02  0.12700000000E+01 0.  1.
         -4    1    1    2    0  501 -0.16762851765E+01 -0.25265060028E+00 -0.26013543598E+02  0.26099638213E+02  0.12700000000E+01 0. -1.
<mgrwt>
<rscale>  0 0.21181748E+01</rscale>
<asrwt>0</asrwt>
<pdfrwt beam="1">0</pdfrwt>
<pdfrwt beam="2">0</pdfrwt>
<totfact> 0.25427853E+12</totfact>
</mgrwt>
</event>
<event>
 4    1  0.1838758E+006  0.3030856E+01  0.7546771E-02  0.2512518E+00
         22   -1    0    0    0    0  0.00000000000E+00  0.00000000000E+00  0.14293778401E+01  0.14293778401E+01  0.00000000000E+00 0.  1.
         22   -1    0    0    0    0 -0.00000000000E+00 -0.00000000000E+00 -0.79320845977E+01  0.79320845977E+01  0.00000000000E+00 0. -1.
          4    1    1    2  501    0 -0.27517550411E+01  0.32091796916E-01 -0.52905239031E+01  0.60971902429E+01  0.12700000000E+01 0. -1.
         -4    1    1    2    0  501  0.27517550411E+01 -0.32091796916E-01 -0.12121828545E+01  0.32642721949E+01  0.12700000000E+01 0.  1.
<mgrwt>
<rscale>  0 0.30308556E+01</rscale>
<asrwt>0</asrwt>
<pdfrwt beam="1">0</pdfrwt>
<pdfrwt beam="2">0</pdfrwt>
<totfact> 0.13935073E+12</totfact>
</mgrwt>
</event>
<event>
 4    1  0.1838758E+006  0.2278831E+01  0.7546771E-02  0.2814871E+00
         22   -1    0    0    0    0  0.00000000000E+00  0.00000000000E+00  0.44035376005E+00  0.44035376005E+00  0.00000000000E+00 0.  1.
         22   -1    0    0    0    0 -0.00000000000E+00 -0.00000000000E+00 -0.12456832506E+02  0.12456832506E+02  0.00000000000E+00 0. -1.
          4    1    1    2  501    0 -0.12505966457E+01 -0.14199227284E+01 -0.45195475332E+01  0.50615592884E+01  0.12700000000E+01 0.  1.
         -4    1    1    2    0  501  0.12505966457E+01  0.14199227284E+01 -0.74969312130E+01  0.78356269779E+01  0.12700000000E+01 0.  1.
<mgrwt>
<rscale>  0 0.22788314E+01</rscale>
<asrwt>0</asrwt>
<pdfrwt beam="1">0</pdfrwt>
<pdfrwt beam="2">0</pdfrwt>
<totfact> 0.30798430E+12</totfact>
</mgrwt>
</event>
<event>
 4    1  0.1838758E+006  0.2750393E+01  0.7546771E-02  0.2607474E+00
         22   -1    0    0    0    0  0.00000000000E+00  0.00000000000E+00  0.37586707569E+01  0.37586707569E+01  0.00000000000E+00 0.  1.
         22   -1    0    0    0    0 -0.00000000000E+00 -0.00000000000E+00 -0.40752738695E+01  0.40752738695E+01  0.00000000000E+00 0. -1.
          4    1    1    2  501    0  0.67477454573E+00 -0.23444492060E+01  0.26283870990E+01  0.38043503399E+01  0.12700000000E+01 0.  1.
         -4    1    1    2    0  501 -0.67477454573E+00  0.23444492060E+01 -0.29449902116E+01  0.40295942864E+01  0.12700000000E+01 0. -1.
<mgrwt>
<rscale>  0 0.27503932E+01</rscale>
<asrwt>0</asrwt>
<pdfrwt beam="1">0</pdfrwt>
<pdfrwt beam="2">0</pdfrwt>
<totfact> 0.10004753E+12</totfact>
</mgrwt>
</event>
<event>
 4    1  0.1838758E+006  0.2548613E+01  0.7546771E-02  0.2687478E+00
         22   -1    0    0    0    0  0.00000000000E+00  0.00000000000E+00  0.17750833889E+01  0.17750833889E+01  0.00000000000E+00 0.  1.
         22   -1    0    0    0    0 -0.00000000000E+00 -0.00000000000E+00 -0.37711621864E+01  0.37711621864E+01  0.00000000000E+00 0.  1.
          4    1    1    2  501    0  0.19122389183E+01 -0.11071911605E+01 -0.14758086707E+01  0.29450706578E+01  0.12700000000E+01 0.  1.
         -4    1    1    2    0  501 -0.19122389183E+01  0.11071911605E+01 -0.52027012682E+00  0.26011749175E+01  0.12700000000E+01 0.  1.
<mgrwt>
<rscale>  0 0.25486133E+01</rscale>
<asrwt>0</asrwt>
<pdfrwt beam="1">0</pdfrwt>
<pdfrwt beam="2">0</pdfrwt>
<totfact> 0.26251378E+12</totfact>
</mgrwt>
</event>
<event>
 4    1  0.1838758E+006  0.2094008E+01  0.7546771E-02  0.2920037E+00
         22   -1    0    0    0    0  0.00000000000E+00  0.00000000000E+00  0.96537202269E+00  0.96537202269E+00  0.00000000000E+00 0.  1.
         22   -1    0    0    0    0 -0.00000000000E+00 -0.00000000000E+00 -0.45421565484E+01  0.45421565484E+01  0.00000000000E+00 0.  1.
          4    1    1    2  501    0  0.12312772718E+01 -0.11206804911E+01 -0.17904173777E+01  0.27550794670E+01  0.12700000000E+01 0.  1.
         -4    1    1    2    0  501 -0.12312772718E+01  0.11206804911E+01 -0.17863671480E+01  0.27524491041E+01  0.12700000000E+01 0.  1.
<mgrwt>
<rscale>  0 0.20940078E+01</rscale>
<asrwt>0</asrwt>
<pdfrwt beam="1">0</pdfrwt>
<pdfrwt beam="2">0</pdfrwt>
<totfact> 0.42419420E+12</totfact>
</mgrwt>
</event>
<event>
 4    1  0.1838758E+006  0.2207171E+01  0.7546771E-02  0.2853640E+00
         22   -1    0    0    0    0  0.00000000000E+00  0.00000000000E+00  0.18486421524E+01  0.18486421524E+01  0.00000000000E+00 0.  1.
         22   -1    0    0    0    0 -0.00000000000E+00 -0.00000000000E+00 -0.55499215835E+01  0.55499215835E+01  0.00000000000E+00 0.  1.
          4    1    1    2  501    0 -0.75296961951E+00  0.16406530492E+01  0.83019454208E+00  0.23581409316E+01  0.12700000000E+01 0.  1.
         -4    1    1    2    0  501  0.75296961951E+00 -0.16406530492E+01 -0.45314739732E+01  0.50404228043E+01  0.12700000000E+01 0.  1.
<mgrwt>
<rscale>  0 0.22071714E+01</rscale>
<asrwt>0</asrwt>
<pdfrwt beam="1">0</pdfrwt>
<pdfrwt beam="2">0</pdfrwt>
<totfact> 0.15869417E+12</totfact>
</mgrwt>
</event>
<event>
 4    1  0.1838758E+006  0.3606066E+01  0.7546771E-02  0.2359578E+00
         22   -1    0    0    0    0  0.00000000000E+00  0.00000000000E+00  0.18636220338E+02  0.18636220338E+02  0.00000000000E+00 0.  1.
         22   -1    0    0    0    0 -0.00000000000E+00 -0.00000000000E+00 -0.76630538672E+00  0.76630538672E+00  0.00000000000E+00 0. -1.
          4    1    1    2  501    0  0.46168325679E+00 -0.33433011453E+01  0.11836297442E+02  0.12373425197E+02  0.12700000000E+01 0.  1.
         -4    1    1    2    0  501 -0.46168325679E+00  0.33433011453E+01  0.60336175100E+01  0.70291005281E+01  0.12700000000E+01 0. -1.
<mgrwt>
<rscale>  0 0.36060663E+01</rscale>
<asrwt>0</asrwt>
<pdfrwt beam="1">0</pdfrwt>
<pdfrwt beam="2">0</pdfrwt>
<totfact> 0.10017465E+12</totfact>
</mgrwt>
</event>
<event>
 4    1  0.1838758E+006  0.4279536E+01  0.7546771E-02  0.2226846E+00
         22   -1    0    0    0    0  0.00000000000E+00  0.00000000000E+00  0.15126050100E+01  0.15126050100E+01  0.00000000000E+00 0.  1.
         22   -1    0    0    0    0 -0.00000000000E+00 -0.00000000000E+00 -0.17534274738E+02  0.17534274738E+02  0.00000000000E+00 0. -1.
          4    1    1    2  501    0 -0.48870257572E+00  0.40574252117E+01 -0.27129086295E+01  0.50669816250E+01  0.12700000000E+01 0.  1.
         -4    1    1    2    0  501  0.48870257572E+00 -0.40574252117E+01 -0.13308761098E+02  0.13979898123E+02  0.12700000000E+01 0. -1.
<mgrwt>
<rscale>  0 0.42795361E+01</rscale>
<asrwt>0</asrwt>
<pdfrwt beam="1">0</pdfrwt>
<pdfrwt beam="2">0</pdfrwt>
<totfact> 0.49645790E+11</totfact>
</mgrwt>
</event>
<event>
 4    1  0.1838758E+006  0.2995261E+01  0.7546771E-02  0.2523680E+00
         22   -1    0    0    0    0  0.00000000000E+00  0.00000000000E+00  0.14300217550E+02  0.14300217550E+02  0.00000000000E+00 0. -1.
         22   -1    0    0    0    0 -0.00000000000E+00 -0.00000000000E+00 -0.85835958909E+00  0.85835958909E+00  0.00000000000E+00 0.  1.
          4    1    1    2  501    0  0.65322452858E+00 -0.26328669581E+01  0.10652678642E+02  0.11065764906E+02  0.12700000000E+01 0. -1.
         -4    1    1    2    0  501 -0.65322452858E+00  0.26328669581E+01  0.27891793193E+01  0.40928122335E+01  0.12700000000E+01 0. -1.
<mgrwt>
<rscale>  0 0.29952614E+01</rscale>
<asrwt>0</asrwt>
<pdfrwt beam="1">0</pdfrwt>
<pdfrwt beam="2">0</pdfrwt>
<totfact> 0.12211537E+12</totfact>
</mgrwt>
</event>
<event>
 4    1  0.1838758E+006  0.3640482E+01  0.7546771E-02  0.2351780E+00
         22   -1    0    0    0    0  0.00000000000E+00  0.00000000000E+00  0.29161914425E+01  0.29161914425E+01  0.00000000000E+00 0. -1.
         22   -1    0    0    0    0 -0.00000000000E+00 -0.00000000000E+00 -0.74680979832E+01  0.74680979832E+01  0.00000000000E+00 0. -1.
          4    1    1    2  501    0 -0.27679883052E+01 -0.19946053070E+01  0.97258844118E+00  0.37681610720E+01  0.12700000000E+01 0. -1.
         -4    1    1    2    0  501  0.27679883052E+01  0.19946053070E+01 -0.55244949819E+01  0.66161283538E+01  0.12700000000E+01 0. -1.
<mgrwt>
<rscale>  0 0.36404821E+01</rscale>
<asrwt>0</asrwt>
<pdfrwt beam="1">0</pdfrwt>
<pdfrwt beam="2">0</pdfrwt>
<totfact> 0.65596958E+11</totfact>
</mgrwt>
</event>
<event>
 4    1  0.1838758E+006  0.3458290E+01  0.7546771E-02  0.2394588E+00
         22   -1    0    0    0    0  0.00000000000E+00  0.00000000000E+00  0.12279912942E+02  0.12279912942E+02  0.00000000000E+00 0. -1.
         22   -1    0    0    0    0 -0.00000000000E+00 -0.00000000000E+00 -0.99655490591E+00  0.99655490591E+00  0.00000000000E+00 0.  1.
          4    1    1    2  501    0  0.14303037751E+01 -0.28811631201E+01  0.46414490583E+01  0.57881619859E+01  0.12700000000E+01 0. -1.
         -4    1    1    2    0  501 -0.14303037751E+01  0.28811631201E+01  0.66419089775E+01  0.74883058617E+01  0.12700000000E+01 0.  1.
<mgrwt>
<rscale>  0 0.34582900E+01</rscale>
<asrwt>0</asrwt>
<pdfrwt beam="1">0</pdfrwt>
<pdfrwt beam="2">0</pdfrwt>
<totfact> 0.12411300E+12</totfact>
</mgrwt>
</event>
<event>
 4    1  0.1838758E+006  0.3323791E+01  0.7546771E-02  0.2428804E+00
         22   -1    0    0    0    0  0.00000000000E+00  0.00000000000E+00  0.33189408676E+02  0.33189408676E+02  0.00000000000E+00 0. -1.
         22   -1    0    0    0    0 -0.00000000000E+00 -0.00000000000E+00 -0.34180323505E+00  0.34180323505E+00  0.00000000000E+00 0.  1.
          4    1    1    2  501    0 -0.28605366097E+01  0.11189367426E+01  0.19134990116E+02  0.19421519917E+02  0.12700000000E+01 0. -1.
         -4    1    1    2    0  501  0.28605366097E+01 -0.11189367426E+01  0.13712615325E+02  0.14109691994E+02  0.12700000000E+01 0.  1.
<mgrwt>
<rscale>  0 0.33237914E+01</rscale>
<asrwt>0</asrwt>
<pdfrwt beam="1">0</pdfrwt>
<pdfrwt beam="2">0</pdfrwt>
<totfact> 0.12041851E+12</totfact>
</mgrwt>
</event>
<event>
 4    1  0.1838758E+006  0.2026259E+01  0.7546771E-02  0.2963222E+00
         22   -1    0    0    0    0  0.00000000000E+00  0.00000000000E+00  0.10731217466E+01  0.10731217466E+01  0.00000000000E+00 0.  1.
         22   -1    0    0    0    0 -0.00000000000E+00 -0.00000000000E+00 -0.10908455420E+02  0.10908455420E+02  0.00000000000E+00 0. -1.
          4    1    1    2  501    0  0.49920219413E+00  0.14978733219E+01 -0.90466422957E-01  0.20282779624E+01  0.12700000000E+01 0.  1.
         -4    1    1    2    0  501 -0.49920219413E+00 -0.14978733219E+01 -0.97448672502E+01  0.99532992039E+01  0.12700000000E+01 0. -1.
<mgrwt>
<rscale>  0 0.20262594E+01</rscale>
<asrwt>0</asrwt>
<pdfrwt beam="1">0</pdfrwt>
<pdfrwt beam="2">0</pdfrwt>
<totfact> 0.13172126E+12</totfact>
</mgrwt>
</event>
<event>
 4    1  0.1838758E+006  0.2131227E+01  0.7546771E-02  0.2897449E+00
         22   -1    0    0    0    0  0.00000000000E+00  0.00000000000E+00  0.89917425296E+01  0.89917425296E+01  0.00000000000E+00 0. -1.
         22   -1    0    0    0    0 -0.00000000000E+00 -0.00000000000E+00 -0.84005819070E+00  0.84005819070E+00  0.00000000000E+00 0. -1.
          4    1    1    2  501    0  0.16201322648E+01  0.55172381963E+00  0.71797938293E+01  0.74894303629E+01  0.12700000000E+01 0. -1.
         -4    1    1    2    0  501 -0.16201322648E+01 -0.55172381963E+00  0.97189050957E+00  0.23423703574E+01  0.12700000000E+01 0. -1.
<mgrwt>
<rscale>  0 0.21312268E+01</rscale>
<asrwt>0</asrwt>
<pdfrwt beam="1">0</pdfrwt>
<pdfrwt beam="2">0</pdfrwt>
<totfact> 0.22008112E+12</totfact>
</mgrwt>
</event>
<event>
 4    1  0.1838758E+006  0.3397643E+01  0.7546771E-02  0.2409723E+00
         22   -1    0    0    0    0  0.00000000000E+00  0.00000000000E+00  0.55325286967E+01  0.55325286967E+01  0.00000000000E+00 0. -1.
         22   -1    0    0    0    0 -0.00000000000E+00 -0.00000000000E+00 -0.58424671320E+01  0.58424671320E+01  0.00000000000E+00 0.  1.
          4    1    1    2  501    0  0.18843394586E+01  0.25259339446E+01  0.44051928645E+01  0.55632456050E+01  0.12700000000E+01 0. -1.
         -4    1    1    2    0  501 -0.18843394586E+01 -0.25259339446E+01 -0.47151312999E+01  0.58117502237E+01  0.12700000000E+01 0.  1.
<mgrwt>
<rscale>  0 0.33976429E+01</rscale>
<asrwt>0</asrwt>
<pdfrwt beam="1">0</pdfrwt>
<pdfrwt beam="2">0</pdfrwt>
<totfact> 0.41383494E+11</totfact>
</mgrwt>
</event>
<event>
 4    1  0.1838758E+006  0.5384129E+01  0.7546771E-02  0.2079763E+00
         22   -1    0    0    0    0  0.00000000000E+00  0.00000000000E+00  0.33467887312E+01  0.33467887312E+01  0.00000000000E+00 0. -1.
         22   -1    0    0    0    0 -0.00000000000E+00 -0.00000000000E+00 -0.96385107657E+01  0.96385107657E+01  0.00000000000E+00 0.  1.
          4    1    1    2  501    0 -0.33248342890E+01 -0.40399782474E+01 -0.10789375550E+01  0.54911705069E+01  0.12700000000E+01 0. -1.
         -4    1    1    2    0  501  0.33248342890E+01  0.40399782474E+01 -0.52127844795E+01  0.74941289900E+01  0.12700000000E+01 0.  1.
<mgrwt>
<rscale>  0 0.53841292E+01</rscale>
<asrwt>0</asrwt>
<pdfrwt beam="1">0</pdfrwt>
<pdfrwt beam="2">0</pdfrwt>
<totfact> 0.41072746E+11</totfact>
</mgrwt>
</event>
<event>
 4    1  0.1838758E+006  0.3264378E+01  0.7546771E-02  0.2444705E+00
         22   -1    0    0    0    0  0.00000000000E+00  0.00000000000E+00  0.11689205212E+01  0.11689205212E+01  0.00000000000E+00 0. -1.
         22   -1    0    0    0    0 -0.00000000000E+00 -0.00000000000E+00 -0.92546732732E+01  0.92546732732E+01  0.00000000000E+00 0.  1.
          4    1    1    2  501    0  0.21693306992E+01 -0.20826104503E+01 -0.46802947148E+01  0.57062527623E+01  0.12700000000E+01 0. -1.
         -4    1    1    2    0  501 -0.21693306992E+01  0.20826104503E+01 -0.34054580372E+01  0.47173410321E+01  0.12700000000E+01 0.  1.
<mgrwt>
<rscale>  0 0.32643777E+01</rscale>
<asrwt>0</asrwt>
<pdfrwt beam="1">0</pdfrwt>
<pdfrwt beam="2">0</pdfrwt>
<totfact> 0.14577759E+12</totfact>
</mgrwt>
</event>
<event>
 4    1  0.1838758E+006  0.2363014E+01  0.7546771E-02  0.2772187E+00
         22   -1    0    0    0    0  0.00000000000E+00  0.00000000000E+00  0.27033565451E+01  0.27033565451E+01  0.00000000000E+00 0.  1.
         22   -1    0    0    0    0 -0.00000000000E+00 -0.00000000000E+00 -0.31159196532E+01  0.31159196532E+01  0.00000000000E+00 0. -1.
          4    1    1    2  501    0  0.18462311533E+01 -0.74991054177E+00  0.14830825651E+01  0.27898690268E+01  0.12700000000E+01 0.  1.
         -4    1    1    2    0  501 -0.18462311533E+01  0.74991054177E+00 -0.18956456732E+01  0.30294071714E+01  0.12700000000E+01 0. -1.
<mgrwt>
<rscale>  0 0.23630140E+01</rscale>
<asrwt>0</asrwt>
<pdfrwt beam="1">0</pdfrwt>
<pdfrwt beam="2">0</pdfrwt>
<totfact> 0.20156636E+12</totfact>
</mgrwt>
</event>
<event>
 4    1  0.1838758E+006  0.3229413E+01  0.7546771E-02  0.2454304E+00
         22   -1    0    0    0    0  0.00000000000E+00  0.00000000000E+00  0.64686914211E+01  0.64686914211E+01  0.00000000000E+00 0. -1.
         22   -1    0    0    0    0 -0.00000000000E+00 -0.00000000000E+00 -0.22133266779E+01  0.22133266779E+01  0.00000000000E+00 0.  1.
          4    1    1    2  501    0 -0.57783932088E+00 -0.29124401272E+01  0.43899043343E+01  0.54498042020E+01  0.12700000000E+01 0. -1.
         -4    1    1    2    0  501  0.57783932088E+00  0.29124401272E+01 -0.13453959113E+00  0.32322138971E+01  0.12700000000E+01 0.  1.
<mgrwt>
<rscale>  0 0.32294126E+01</rscale>
<asrwt>0</asrwt>
<pdfrwt beam="1">0</pdfrwt>
<pdfrwt beam="2">0</pdfrwt>
<totfact> 0.10736627E+12</totfact>
</mgrwt>
</event>
<event>
 4    1  0.1838758E+006  0.2253620E+01  0.7546771E-02  0.2828242E+00
         22   -1    0    0    0    0  0.00000000000E+00  0.00000000000E+00  0.18728680077E+01  0.18728680077E+01  0.00000000000E+00 0.  1.
         22   -1    0    0    0    0 -0.00000000000E+00 -0.00000000000E+00 -0.52077184250E+01  0.52077184250E+01  0.00000000000E+00 0.  1.
          4    1    1    2  501    0 -0.21092015395E+00 -0.18497073824E+01  0.78351366078E+00  0.23859376288E+01  0.12700000000E+01 0.  1.
         -4    1    1    2    0  501  0.21092015395E+00  0.18497073824E+01 -0.41183640781E+01  0.46946488039E+01  0.12700000000E+01 0.  1.
<mgrwt>
<rscale>  0 0.22536204E+01</rscale>
<asrwt>0</asrwt>
<pdfrwt beam="1">0</pdfrwt>
<pdfrwt beam="2">0</pdfrwt>
<totfact> 0.16858701E+12</totfact>
</mgrwt>
</event>
<event>
 4    1  0.1838758E+006  0.3147368E+01  0.7546771E-02  0.2477566E+00
         22   -1    0    0    0    0  0.00000000000E+00  0.00000000000E+00  0.34919315160E+02  0.34919315160E+02  0.00000000000E+00 0. -1.
         22   -1    0    0    0    0 -0.00000000000E+00 -0.00000000000E+00 -0.12016480427E+01  0.12016480427E+01  0.00000000000E+00 0.  1.
          4    1    1    2  501    0  0.34032703978E+00 -0.28595811292E+01  0.32644188881E+02  0.32795563640E+02  0.12700000000E+01 0. -1.
         -4    1    1    2    0  501 -0.34032703978E+00  0.28595811292E+01  0.10734782358E+01  0.33253995627E+01  0.12700000000E+01 0.  1.
<mgrwt>
<rscale>  0 0.31473682E+01</rscale>
<asrwt>0</asrwt>
<pdfrwt beam="1">0</pdfrwt>
<pdfrwt beam="2">0</pdfrwt>
<totfact> 0.27119187E+11</totfact>
</mgrwt>
</event>
<event>
 4    1  0.1838758E+006  0.3653721E+01  0.7546771E-02  0.2348814E+00
         22   -1    0    0    0    0  0.00000000000E+00  0.00000000000E+00  0.58779588394E+01  0.58779588394E+01  0.00000000000E+00 0.  1.
         22   -1    0    0    0    0 -0.00000000000E+00 -0.00000000000E+00 -0.22950108486E+01  0.22950108486E+01  0.00000000000E+00 0. -1.
          4    1    1    2  501    0 -0.28457312165E+01 -0.19075097878E+01  0.22082209164E+01  0.42691825170E+01  0.12700000000E+01 0. -1.
         -4    1    1    2    0  501  0.28457312165E+01  0.19075097878E+01  0.13747270743E+01  0.39037871710E+01  0.12700000000E+01 0.  1.
<mgrwt>
<rscale>  0 0.36537214E+01</rscale>
<asrwt>0</asrwt>
<pdfrwt beam="1">0</pdfrwt>
<pdfrwt beam="2">0</pdfrwt>
<totfact> 0.11538621E+12</totfact>
</mgrwt>
</event>
<event>
 4    1  0.1838758E+006  0.4138165E+01  0.7546771E-02  0.2251637E+00
         22   -1    0    0    0    0  0.00000000000E+00  0.00000000000E+00  0.13856874420E+01  0.13856874420E+01  0.00000000000E+00 0. -1.
         22   -1    0    0    0    0 -0.00000000000E+00 -0.00000000000E+00 -0.14234061095E+02  0.14234061095E+02  0.00000000000E+00 0.  1.
          4    1    1    2  501    0 -0.17364794642E+01 -0.35349890968E+01 -0.35889055589E+01  0.54776502220E+01  0.12700000000E+01 0.  1.
         -4    1    1    2    0  501  0.17364794642E+01  0.35349890968E+01 -0.92594680946E+01  0.10142098315E+02  0.12700000000E+01 0. -1.
<mgrwt>
<rscale>  0 0.41381649E+01</rscale>
<asrwt>0</asrwt>
<pdfrwt beam="1">0</pdfrwt>
<pdfrwt beam="2">0</pdfrwt>
<totfact> 0.71014052E+11</totfact>
</mgrwt>
</event>
<event>
 4    1  0.1838758E+006  0.2198707E+01  0.7546771E-02  0.2858378E+00
         22   -1    0    0    0    0  0.00000000000E+00  0.00000000000E+00  0.83612077245E+01  0.83612077245E+01  0.00000000000E+00 0.  1.
         22   -1    0    0    0    0 -0.00000000000E+00 -0.00000000000E+00 -0.70866346479E+00  0.70866346479E+00  0.00000000000E+00 0.  1.
          4    1    1    2  501    0  0.11198506030E+01  0.14026220049E+01  0.57721819771E+01  0.61767627960E+01  0.12700000000E+01 0.  1.
         -4    1    1    2    0  501 -0.11198506030E+01 -0.14026220049E+01  0.18803622826E+01  0.28931083933E+01  0.12700000000E+01 0.  1.
<mgrwt>
<rscale>  0 0.21987073E+01</rscale>
<asrwt>0</asrwt>
<pdfrwt beam="1">0</pdfrwt>
<pdfrwt beam="2">0</pdfrwt>
<totfact> 0.29148315E+12</totfact>
</mgrwt>
</event>
<event>
 4    1  0.1838758E+006  0.2058265E+01  0.7546771E-02  0.2942476E+00
         22   -1    0    0    0    0  0.00000000000E+00  0.00000000000E+00  0.67432950050E+00  0.67432950050E+00  0.00000000000E+00 0.  1.
         22   -1    0    0    0    0 -0.00000000000E+00 -0.00000000000E+00 -0.14040165177E+02  0.14040165177E+02  0.00000000000E+00 0.  1.
          4    1    1    2  501    0  0.14302815073E+01  0.76016292506E+00 -0.12140719367E+01  0.23896492484E+01  0.12700000000E+01 0.  1.
         -4    1    1    2    0  501 -0.14302815073E+01 -0.76016292506E+00 -0.12151763740E+02  0.12324845429E+02  0.12700000000E+01 0.  1.
<mgrwt>
<rscale>  0 0.20582645E+01</rscale>
<asrwt>0</asrwt>
<pdfrwt beam="1">0</pdfrwt>
<pdfrwt beam="2">0</pdfrwt>
<totfact> 0.16429677E+12</totfact>
</mgrwt>
</event>
<event>
 4    1  0.1838758E+006  0.2139957E+01  0.7546771E-02  0.2892261E+00
         22   -1    0    0    0    0  0.00000000000E+00  0.00000000000E+00  0.48958969808E+01  0.48958969808E+01  0.00000000000E+00 0. -1.
         22   -1    0    0    0    0 -0.00000000000E+00 -0.00000000000E+00 -0.10292456593E+01  0.10292456593E+01  0.00000000000E+00 0. -1.
          4    1    1    2  501    0 -0.67439500830E+00 -0.15848360443E+01  0.10385488379E+01  0.23786545784E+01  0.12700000000E+01 0. -1.
         -4    1    1    2    0  501  0.67439500830E+00  0.15848360443E+01  0.28281024836E+01  0.35464880618E+01  0.12700000000E+01 0. -1.
<mgrwt>
<rscale>  0 0.21399565E+01</rscale>
<asrwt>0</asrwt>
<pdfrwt beam="1">0</pdfrwt>
<pdfrwt beam="2">0</pdfrwt>
<totfact> 0.36082598E+12</totfact>
</mgrwt>
</event>
<event>
 4    1  0.1838758E+006  0.2303414E+01  0.7546771E-02  0.2802101E+00
         22   -1    0    0    0    0  0.00000000000E+00  0.00000000000E+00  0.49887634527E+01  0.49887634527E+01  0.00000000000E+00 0. -1.
         22   -1    0    0    0    0 -0.00000000000E+00 -0.00000000000E+00 -0.12266361740E+01  0.12266361740E+01  0.00000000000E+00 0.  1.
          4    1    1    2  501    0 -0.17048903476E+01 -0.88665940700E+00  0.30142778175E+01  0.37936244888E+01  0.12700000000E+01 0. -1.
         -4    1    1    2    0  501  0.17048903476E+01  0.88665940700E+00  0.74784946125E+00  0.24217751378E+01  0.12700000000E+01 0.  1.
<mgrwt>
<rscale>  0 0.23034140E+01</rscale>
<asrwt>0</asrwt>
<pdfrwt beam="1">0</pdfrwt>
<pdfrwt beam="2">0</pdfrwt>
<totfact> 0.28870602E+12</totfact>
</mgrwt>
</event>
<event>
 4    1  0.1838758E+006  0.4806038E+01  0.7546771E-02  0.2146893E+00
         22   -1    0    0    0    0  0.00000000000E+00  0.00000000000E+00  0.89989628382E+02  0.89989628382E+02  0.00000000000E+00 0. -1.
         22   -1    0    0    0    0 -0.00000000000E+00 -0.00000000000E+00 -0.38001665740E+00  0.38001665740E+00  0.00000000000E+00 0.  1.
          4    1    1    2  501    0 -0.20825746222E-02 -0.46352014631E+01  0.70547140567E+02  0.70710657182E+02  0.12700000000E+01 0. -1.
         -4    1    1    2    0  501  0.20825746222E-02  0.46352014631E+01  0.19062471158E+02  0.19658987858E+02  0.12700000000E+01 0.  1.
<mgrwt>
<rscale>  0 0.48060376E+01</rscale>
<asrwt>0</asrwt>
<pdfrwt beam="1">0</pdfrwt>
<pdfrwt beam="2">0</pdfrwt>
<totfact> 0.28339438E+11</totfact>
</mgrwt>
</event>
<event>
 4    1  0.1838758E+006  0.7930172E+01  0.7546771E-02  0.1880335E+00
         22   -1    0    0    0    0  0.00000000000E+00  0.00000000000E+00  0.11673659808E+02  0.11673659808E+02  0.00000000000E+00 0.  1.
         22   -1    0    0    0    0 -0.00000000000E+00 -0.00000000000E+00 -0.57682875683E+01  0.57682875683E+01  0.00000000000E+00 0. -1.
          4    1    1    2  501    0  0.78190883093E+01  0.36956662618E+00  0.71092676742E+00  0.79619745257E+01  0.12700000000E+01 0.  1.
         -4    1    1    2    0  501 -0.78190883093E+01 -0.36956662618E+00  0.51944454717E+01  0.94799728501E+01  0.12700000000E+01 0. -1.
<mgrwt>
<rscale>  0 0.79301716E+01</rscale>
<asrwt>0</asrwt>
<pdfrwt beam="1">0</pdfrwt>
<pdfrwt beam="2">0</pdfrwt>
<totfact> 0.17125563E+11</totfact>
</mgrwt>
</event>
<event>
 4    1  0.1838758E+006  0.2127976E+01  0.7546771E-02  0.2899391E+00
         22   -1    0    0    0    0  0.00000000000E+00  0.00000000000E+00  0.12994922179E+01  0.12994922179E+01  0.00000000000E+00 0.  1.
         22   -1    0    0    0    0 -0.00000000000E+00 -0.00000000000E+00 -0.74740902269E+01  0.74740902269E+01  0.00000000000E+00 0. -1.
          4    1    1    2  501    0  0.67110458955E+00 -0.15700317372E+01  0.11766790445E+00  0.21312265862E+01  0.12700000000E+01 0.  1.
         -4    1    1    2    0  501 -0.67110458955E+00  0.15700317372E+01 -0.62922659135E+01  0.66423558585E+01  0.12700000000E+01 0. -1.
<mgrwt>
<rscale>  0 0.21279758E+01</rscale>
<asrwt>0</asrwt>
<pdfrwt beam="1">0</pdfrwt>
<pdfrwt beam="2">0</pdfrwt>
<totfact> 0.16694877E+12</totfact>
</mgrwt>
</event>
<event>
 4    1  0.1838758E+006  0.2510032E+01  0.7546771E-02  0.2704124E+00
         22   -1    0    0    0    0  0.00000000000E+00  0.00000000000E+00  0.86671290579E+01  0.86671290579E+01  0.00000000000E+00 0. -1.
         22   -1    0    0    0    0 -0.00000000000E+00 -0.00000000000E+00 -0.10197998793E+01  0.10197998793E+01  0.00000000000E+00 0. -1.
          4    1    1    2  501    0  0.20374746621E+01  0.73215927319E+00  0.64193234974E+01  0.68926028730E+01  0.12700000000E+01 0. -1.
         -4    1    1    2    0  501 -0.20374746621E+01 -0.73215927319E+00  0.12280056811E+01  0.27943260642E+01  0.12700000000E+01 0. -1.
<mgrwt>
<rscale>  0 0.25100319E+01</rscale>
<asrwt>0</asrwt>
<pdfrwt beam="1">0</pdfrwt>
<pdfrwt beam="2">0</pdfrwt>
<totfact> 0.18442828E+12</totfact>
</mgrwt>
</event>
<event>
 4    1  0.1838758E+006  0.2039687E+01  0.7546771E-02  0.2954441E+00
         22   -1    0    0    0    0  0.00000000000E+00  0.00000000000E+00  0.69393552244E+00  0.69393552244E+00  0.00000000000E+00 0. -1.
         22   -1    0    0    0    0 -0.00000000000E+00 -0.00000000000E+00 -0.61650970916E+01  0.61650970916E+01  0.00000000000E+00 0.  1.
          4    1    1    2  501    0 -0.11805355132E+01  0.10741314334E+01 -0.33048030093E+01  0.38835609129E+01  0.12700000000E+01 0.  1.
         -4    1    1    2    0  501  0.11805355132E+01 -0.10741314334E+01 -0.21663585598E+01  0.29754717011E+01  0.12700000000E+01 0. -1.
<mgrwt>
<rscale>  0 0.20396868E+01</rscale>
<asrwt>0</asrwt>
<pdfrwt beam="1">0</pdfrwt>
<pdfrwt beam="2">0</pdfrwt>
<totfact> 0.42990433E+12</totfact>
</mgrwt>
</event>
<event>
 4    1  0.1838758E+006  0.5065188E+01  0.7546771E-02  0.2115302E+00
         22   -1    0    0    0    0  0.00000000000E+00  0.00000000000E+00  0.78995384133E+01  0.78995384133E+01  0.00000000000E+00 0. -1.
         22   -1    0    0    0    0 -0.00000000000E+00 -0.00000000000E+00 -0.40444090162E+01  0.40444090162E+01  0.00000000000E+00 0.  1.
          4    1    1    2  501    0 -0.37769247098E+01 -0.31269896927E+01  0.45779732571E+01  0.68274419767E+01  0.12700000000E+01 0. -1.
         -4    1    1    2    0  501  0.37769247098E+01  0.31269896927E+01 -0.72284386000E+00  0.51165054527E+01  0.12700000000E+01 0.  1.
<mgrwt>
<rscale>  0 0.50651875E+01</rscale>
<asrwt>0</asrwt>
<pdfrwt beam="1">0</pdfrwt>
<pdfrwt beam="2">0</pdfrwt>
<totfact> 0.41795454E+11</totfact>
</mgrwt>
</event>
<event>
 4    1  0.1838758E+006  0.2203718E+01  0.7546771E-02  0.2855569E+00
         22   -1    0    0    0    0  0.00000000000E+00  0.00000000000E+00  0.15061012848E+01  0.15061012848E+01  0.00000000000E+00 0. -1.
         22   -1    0    0    0    0 -0.00000000000E+00 -0.00000000000E+00 -0.32886947800E+01  0.32886947800E+01  0.00000000000E+00 0.  1.
          4    1    1    2  501    0 -0.13315995438E+01  0.12125664760E+01 -0.12263298876E+01  0.25219555502E+01  0.12700000000E+01 0. -1.
         -4    1    1    2    0  501  0.13315995438E+01 -0.12125664760E+01 -0.55626360759E+00  0.22728405146E+01  0.12700000000E+01 0. -1.
<mgrwt>
<rscale>  0 0.22037184E+01</rscale>
<asrwt>0</asrwt>
<pdfrwt beam="1">0</pdfrwt>
<pdfrwt beam="2">0</pdfrwt>
<totfact> 0.37249405E+12</totfact>
</mgrwt>
</event>
<event>
 4    1  0.1838758E+006  0.2981555E+01  0.7546771E-02  0.2528041E+00
         22   -1    0    0    0    0  0.00000000000E+00  0.00000000000E+00  0.54904407857E+00  0.54904407857E+00  0.00000000000E+00 0.  1.
         22   -1    0    0    0    0 -0.00000000000E+00 -0.00000000000E+00 -0.16197910817E+02  0.16197910817E+02  0.00000000000E+00 0. -1.
          4    1    1    2  501    0  0.23701811455E+01 -0.12880255504E+01 -0.79951940138E+01  0.85330414156E+01  0.12700000000E+01 0.  1.
         -4    1    1    2    0  501 -0.23701811455E+01  0.12880255504E+01 -0.76536727241E+01  0.82139134795E+01  0.12700000000E+01 0. -1.
<mgrwt>
<rscale>  0 0.29815547E+01</rscale>
<asrwt>0</asrwt>
<pdfrwt beam="1">0</pdfrwt>
<pdfrwt beam="2">0</pdfrwt>
<totfact> 0.17392154E+12</totfact>
</mgrwt>
</event>
<event>
 4    1  0.1838758E+006  0.2305519E+01  0.7546771E-02  0.2801019E+00
         22   -1    0    0    0    0  0.00000000000E+00  0.00000000000E+00  0.14164516301E+01  0.14164516301E+01  0.00000000000E+00 0.  1.
         22   -1    0    0    0    0 -0.00000000000E+00 -0.00000000000E+00 -0.38992072206E+01  0.38992072206E+01  0.00000000000E+00 0.  1.
          4    1    1    2  501    0 -0.13032298618E+01  0.14156665663E+01 -0.17566908238E+01  0.28985138520E+01  0.12700000000E+01 0.  1.
         -4    1    1    2    0  501  0.13032298618E+01 -0.14156665663E+01 -0.72606476677E+00  0.24171449988E+01  0.12700000000E+01 0.  1.
<mgrwt>
<rscale>  0 0.23055194E+01</rscale>
<asrwt>0</asrwt>
<pdfrwt beam="1">0</pdfrwt>
<pdfrwt beam="2">0</pdfrwt>
<totfact> 0.32734365E+12</totfact>
</mgrwt>
</event>
<event>
 4    1  0.1838758E+006  0.2913916E+01  0.7546771E-02  0.2550103E+00
         22   -1    0    0    0    0  0.00000000000E+00  0.00000000000E+00  0.21796556887E+02  0.21796556887E+02  0.00000000000E+00 0.  1.
         22   -1    0    0    0    0 -0.00000000000E+00 -0.00000000000E+00 -0.42630685597E+00  0.42630685597E+00  0.00000000000E+00 0.  1.
          4    1    1    2  501    0  0.19097023350E+01 -0.17975110398E+01  0.13947709206E+02  0.14248842094E+02  0.12700000000E+01 0.  1.
         -4    1    1    2    0  501 -0.19097023350E+01  0.17975110398E+01  0.74225408252E+01  0.79740216483E+01  0.12700000000E+01 0.  1.
<mgrwt>
<rscale>  0 0.29139164E+01</rscale>
<asrwt>0</asrwt>
<pdfrwt beam="1">0</pdfrwt>
<pdfrwt beam="2">0</pdfrwt>
<totfact> 0.15998455E+12</totfact>
</mgrwt>
</event>
<event>
 4    1  0.1838758E+006  0.4804712E+01  0.7546771E-02  0.2147061E+00
         22   -1    0    0    0    0  0.00000000000E+00  0.00000000000E+00  0.12209778425E+01  0.12209778425E+01  0.00000000000E+00 0.  1.
         22   -1    0    0    0    0 -0.00000000000E+00 -0.00000000000E+00 -0.44259407113E+02  0.44259407113E+02  0.00000000000E+00 0. -1.
          4    1    1    2  501    0 -0.43049663850E+01  0.17145325583E+01 -0.43084830614E+01  0.64535481527E+01  0.12700000000E+01 0.  1.
         -4    1    1    2    0  501  0.43049663850E+01 -0.17145325583E+01 -0.38729946209E+02  0.39026836803E+02  0.12700000000E+01 0. -1.
<mgrwt>
<rscale>  0 0.48047120E+01</rscale>
<asrwt>0</asrwt>
<pdfrwt beam="1">0</pdfrwt>
<pdfrwt beam="2">0</pdfrwt>
<totfact> 0.19583220E+11</totfact>
</mgrwt>
</event>
<event>
 4    1  0.1838758E+006  0.2000677E+01  0.7546771E-02  0.2980272E+00
         22   -1    0    0    0    0  0.00000000000E+00  0.00000000000E+00  0.70954371115E+01  0.70954371115E+01  0.00000000000E+00 0.  1.
         22   -1    0    0    0    0 -0.00000000000E+00 -0.00000000000E+00 -0.59838104613E+00  0.59838104613E+00  0.00000000000E+00 0. -1.
          4    1    1    2  501    0  0.49179704884E+00 -0.14655866419E+01  0.41689691673E+01  0.46241769494E+01  0.12700000000E+01 0. -1.
         -4    1    1    2    0  501 -0.49179704884E+00  0.14655866419E+01  0.23280868982E+01  0.30696412083E+01  0.12700000000E+01 0.  1.
<mgrwt>
<rscale>  0 0.20006770E+01</rscale>
<asrwt>0</asrwt>
<pdfrwt beam="1">0</pdfrwt>
<pdfrwt beam="2">0</pdfrwt>
<totfact> 0.42995553E+12</totfact>
</mgrwt>
</event>
<event>
 4    1  0.1838758E+006  0.2769602E+01  0.7546771E-02  0.2600417E+00
         22   -1    0    0    0    0  0.00000000000E+00  0.00000000000E+00  0.23394664433E+02  0.23394664433E+02  0.00000000000E+00 0.  1.
         22   -1    0    0    0    0 -0.00000000000E+00 -0.00000000000E+00 -0.43130315197E+00  0.43130315197E+00  0.00000000000E+00 0. -1.
          4    1    1    2  501    0 -0.42707385131E+00  0.24239233585E+01  0.17315235386E+02  0.17535337835E+02  0.12700000000E+01 0.  1.
         -4    1    1    2    0  501  0.42707385131E+00 -0.24239233585E+01  0.56481258949E+01  0.62906297497E+01  0.12700000000E+01 0. -1.
<mgrwt>
<rscale>  0 0.27696022E+01</rscale>
<asrwt>0</asrwt>
<pdfrwt beam="1">0</pdfrwt>
<pdfrwt beam="2">0</pdfrwt>
<totfact> 0.14448462E+12</totfact>
</mgrwt>
</event>
<event>
 4    1  0.1838758E+006  0.2066323E+01  0.7546771E-02  0.2937351E+00
         22   -1    0    0    0    0  0.00000000000E+00  0.00000000000E+00  0.48364512490E+02  0.48364512490E+02  0.00000000000E+00 0.  1.
         22   -1    0    0    0    0 -0.00000000000E+00 -0.00000000000E+00 -0.13426523267E+00  0.13426523267E+00  0.00000000000E+00 0. -1.
          4    1    1    2  501    0 -0.11311955055E+01  0.11735354609E+01  0.38306398544E+02  0.38362088814E+02  0.12700000000E+01 0.  1.
         -4    1    1    2    0  501  0.11311955055E+01 -0.11735354609E+01  0.99238487137E+01  0.10136688909E+02  0.12700000000E+01 0. -1.
<mgrwt>
<rscale>  0 0.20663225E+01</rscale>
<asrwt>0</asrwt>
<pdfrwt beam="1">0</pdfrwt>
<pdfrwt beam="2">0</pdfrwt>
<totfact> 0.20963542E+12</totfact>
</mgrwt>
</event>
<event>
 4    1  0.1838758E+006  0.2321848E+01  0.7546771E-02  0.2792694E+00
         22   -1    0    0    0    0  0.00000000000E+00  0.00000000000E+00  0.45907813127E+00  0.45907813127E+00  0.00000000000E+00 0. -1.
         22   -1    0    0    0    0 -0.00000000000E+00 -0.00000000000E+00 -0.12074390960E+02  0.12074390960E+02  0.00000000000E+00 0.  1.
          4    1    1    2  501    0  0.22406951841E+00 -0.19307690630E+01 -0.47695357118E+01  0.53046627819E+01  0.12700000000E+01 0.  1.
         -4    1    1    2    0  501 -0.22406951841E+00  0.19307690630E+01 -0.68457771173E+01  0.72288063097E+01  0.12700000000E+01 0.  1.
<mgrwt>
<rscale>  0 0.23218476E+01</rscale>
<asrwt>0</asrwt>
<pdfrwt beam="1">0</pdfrwt>
<pdfrwt beam="2">0</pdfrwt>
<totfact> 0.30525851E+12</totfact>
</mgrwt>
</event>
<event>
 4    1  0.1838758E+006  0.2023794E+01  0.7546771E-02  0.2964847E+00
         22   -1    0    0    0    0  0.00000000000E+00  0.00000000000E+00  0.10545946652E+02  0.10545946652E+02  0.00000000000E+00 0. -1.
         22   -1    0    0    0    0 -0.00000000000E+00 -0.00000000000E+00 -0.77747993584E+00  0.77747993584E+00  0.00000000000E+00 0.  1.
          4    1    1    2  501    0 -0.11603194205E+01  0.10660685632E+01  0.88895669730E+01  0.91170249702E+01  0.12700000000E+01 0. -1.
         -4    1    1    2    0  501  0.11603194205E+01 -0.10660685632E+01  0.87889974286E+00  0.22064016174E+01  0.12700000000E+01 0.  1.
<mgrwt>
<rscale>  0 0.20237943E+01</rscale>
<asrwt>0</asrwt>
<pdfrwt beam="1">0</pdfrwt>
<pdfrwt beam="2">0</pdfrwt>
<totfact> 0.19817799E+12</totfact>
</mgrwt>
</event>
<event>
 4    1  0.1838758E+006  0.2626550E+01  0.7546771E-02  0.2655238E+00
         22   -1    0    0    0    0  0.00000000000E+00  0.00000000000E+00  0.43719524539E+01  0.43719524539E+01  0.00000000000E+00 0. -1.
         22   -1    0    0    0    0 -0.00000000000E+00 -0.00000000000E+00 -0.17937625938E+01  0.17937625938E+01  0.00000000000E+00 0. -1.
          4    1    1    2  501    0  0.12513090245E+01 -0.19287531299E+01  0.23583960834E+01  0.35299851270E+01  0.12700000000E+01 0. -1.
         -4    1    1    2    0  501 -0.12513090245E+01  0.19287531299E+01  0.21979377668E+00  0.26357299207E+01  0.12700000000E+01 0. -1.
<mgrwt>
<rscale>  0 0.26265496E+01</rscale>
<asrwt>0</asrwt>
<pdfrwt beam="1">0</pdfrwt>
<pdfrwt beam="2">0</pdfrwt>
<totfact> 0.21793488E+12</totfact>
</mgrwt>
</event>
<event>
 4    1  0.1838758E+006  0.2157916E+01  0.7546771E-02  0.2881715E+00
         22   -1    0    0    0    0  0.00000000000E+00  0.00000000000E+00  0.34615466842E+00  0.34615466842E+00  0.00000000000E+00 0.  1.
         22   -1    0    0    0    0 -0.00000000000E+00 -0.00000000000E+00 -0.17357083446E+02  0.17357083446E+02  0.00000000000E+00 0. -1.
          4    1    1    2  501    0  0.14189564376E+01 -0.10150189466E+01 -0.12703816873E+02  0.12885789226E+02  0.12700000000E+01 0. -1.
         -4    1    1    2    0  501 -0.14189564376E+01  0.10150189466E+01 -0.43071119043E+01  0.48174488882E+01  0.12700000000E+01 0.  1.
<mgrwt>
<rscale>  0 0.21579159E+01</rscale>
<asrwt>0</asrwt>
<pdfrwt beam="1">0</pdfrwt>
<pdfrwt beam="2">0</pdfrwt>
<totfact> 0.26852439E+12</totfact>
</mgrwt>
</event>
<event>
 4    1  0.1838758E+006  0.2770786E+01  0.7546771E-02  0.2599984E+00
         22   -1    0    0    0    0  0.00000000000E+00  0.00000000000E+00  0.47030588007E+01  0.47030588007E+01  0.00000000000E+00 0.  1.
         22   -1    0    0    0    0 -0.00000000000E+00 -0.00000000000E+00 -0.18801337793E+01  0.18801337793E+01  0.00000000000E+00 0.  1.
          4    1    1    2  501    0 -0.14031747334E+01 -0.20237238965E+01  0.26062968084E+01  0.38039506825E+01  0.12700000000E+01 0.  1.
         -4    1    1    2    0  501  0.14031747334E+01  0.20237238965E+01  0.21662821301E+00  0.27792418974E+01  0.12700000000E+01 0.  1.
<mgrwt>
<rscale>  0 0.27707865E+01</rscale>
<asrwt>0</asrwt>
<pdfrwt beam="1">0</pdfrwt>
<pdfrwt beam="2">0</pdfrwt>
<totfact> 0.18936374E+12</totfact>
</mgrwt>
</event>
<event>
 4    1  0.1838758E+006  0.2383215E+01  0.7546771E-02  0.2762368E+00
         22   -1    0    0    0    0  0.00000000000E+00  0.00000000000E+00  0.98910760904E+01  0.98910760904E+01  0.00000000000E+00 0.  1.
         22   -1    0    0    0    0 -0.00000000000E+00 -0.00000000000E+00 -0.67431021629E+00  0.67431021629E+00  0.00000000000E+00 0. -1.
          4    1    1    2  501    0 -0.68340402319E+00  0.18973066724E+01  0.66435880184E+01  0.70581141551E+01  0.12700000000E+01 0. -1.
         -4    1    1    2    0  501  0.68340402319E+00 -0.18973066724E+01  0.25731778557E+01  0.35072721516E+01  0.12700000000E+01 0.  1.
<mgrwt>
<rscale>  0 0.23832150E+01</rscale>
<asrwt>0</asrwt>
<pdfrwt beam="1">0</pdfrwt>
<pdfrwt beam="2">0</pdfrwt>
<totfact> 0.25179838E+12</totfact>
</mgrwt>
</event>
<event>
 4    1  0.1838758E+006  0.2199845E+01  0.7546771E-02  0.2857739E+00
         22   -1    0    0    0    0  0.00000000000E+00  0.00000000000E+00  0.13048045957E+01  0.13048045957E+01  0.00000000000E+00 0.  1.
         22   -1    0    0    0    0 -0.00000000000E+00 -0.00000000000E+00 -0.37185340813E+01  0.37185340813E+01  0.00000000000E+00 0.  1.
          4    1    1    2  501    0  0.90131193788E+00  0.15537225247E+01 -0.10786503140E+01  0.24500619162E+01  0.12700000000E+01 0.  1.
         -4    1    1    2    0  501 -0.90131193788E+00 -0.15537225247E+01 -0.13350791716E+01  0.25732767608E+01  0.12700000000E+01 0.  1.
<mgrwt>
<rscale>  0 0.21998447E+01</rscale>
<asrwt>0</asrwt>
<pdfrwt beam="1">0</pdfrwt>
<pdfrwt beam="2">0</pdfrwt>
<totfact> 0.38032958E+12</totfact>
</mgrwt>
</event>
<event>
 4    1  0.1838758E+006  0.3312546E+01  0.7546771E-02  0.2431775E+00
         22   -1    0    0    0    0  0.00000000000E+00  0.00000000000E+00  0.72552681153E+01  0.72552681153E+01  0.00000000000E+00 0. -1.
         22   -1    0    0    0    0 -0.00000000000E+00 -0.00000000000E+00 -0.15182204762E+01  0.15182204762E+01  0.00000000000E+00 0.  1.
          4    1    1    2  501    0 -0.29576357950E+01 -0.78259482289E+00  0.25972195849E+01  0.42093364946E+01  0.12700000000E+01 0. -1.
         -4    1    1    2    0  501  0.29576357950E+01  0.78259482289E+00  0.31398280542E+01  0.45641520968E+01  0.12700000000E+01 0.  1.
<mgrwt>
<rscale>  0 0.33125465E+01</rscale>
<asrwt>0</asrwt>
<pdfrwt beam="1">0</pdfrwt>
<pdfrwt beam="2">0</pdfrwt>
<totfact> 0.14469126E+12</totfact>
</mgrwt>
</event>
<event>
 4    1  0.1838758E+006  0.2825176E+01  0.7546771E-02  0.2580490E+00
         22   -1    0    0    0    0  0.00000000000E+00  0.00000000000E+00  0.23470529251E+01  0.23470529251E+01  0.00000000000E+00 0. -1.
         22   -1    0    0    0    0 -0.00000000000E+00 -0.00000000000E+00 -0.46988306929E+01  0.46988306929E+01  0.00000000000E+00 0. -1.
          4    1    1    2  501    0 -0.19418375262E+01  0.16118271735E+01  0.67580844055E+00  0.29048815576E+01  0.12700000000E+01 0. -1.
         -4    1    1    2    0  501  0.19418375262E+01 -0.16118271735E+01 -0.30275862083E+01  0.41410020604E+01  0.12700000000E+01 0. -1.
<mgrwt>
<rscale>  0 0.28251761E+01</rscale>
<asrwt>0</asrwt>
<pdfrwt beam="1">0</pdfrwt>
<pdfrwt beam="2">0</pdfrwt>
<totfact> 0.14660116E+12</totfact>
</mgrwt>
</event>
<event>
 4    1  0.1838758E+006  0.2313085E+01  0.7546771E-02  0.2797148E+00
         22   -1    0    0    0    0  0.00000000000E+00  0.00000000000E+00  0.34808245691E+00  0.34808245691E+00  0.00000000000E+00 0.  1.
         22   -1    0    0    0    0 -0.00000000000E+00 -0.00000000000E+00 -0.20810732156E+02  0.20810732156E+02  0.00000000000E+00 0. -1.
          4    1    1    2  501    0 -0.17126954518E+01 -0.89673615537E+00 -0.48224364377E+01  0.53484815265E+01  0.12700000000E+01 0. -1.
         -4    1    1    2    0  501  0.17126954518E+01  0.89673615537E+00 -0.15640213262E+02  0.15810333087E+02  0.12700000000E+01 0. -1.
<mgrwt>
<rscale>  0 0.23130848E+01</rscale>
<asrwt>0</asrwt>
<pdfrwt beam="1">0</pdfrwt>
<pdfrwt beam="2">0</pdfrwt>
<totfact> 0.21293670E+12</totfact>
</mgrwt>
</event>
<event>
 4    1  0.1838758E+006  0.2355716E+01  0.7546771E-02  0.2775773E+00
         22   -1    0    0    0    0  0.00000000000E+00  0.00000000000E+00  0.64978687022E+01  0.64978687022E+01  0.00000000000E+00 0. -1.
         22   -1    0    0    0    0 -0.00000000000E+00 -0.00000000000E+00 -0.11828320846E+01  0.11828320846E+01  0.00000000000E+00 0. -1.
          4    1    1    2  501    0  0.19390079044E+01 -0.42041054847E+00  0.63275454036E+00  0.24392160608E+01  0.12700000000E+01 0. -1.
         -4    1    1    2    0  501 -0.19390079044E+01  0.42041054847E+00  0.46822820773E+01  0.52414847261E+01  0.12700000000E+01 0. -1.
<mgrwt>
<rscale>  0 0.23557157E+01</rscale>
<asrwt>0</asrwt>
<pdfrwt beam="1">0</pdfrwt>
<pdfrwt beam="2">0</pdfrwt>
<totfact> 0.21985439E+12</totfact>
</mgrwt>
</event>
<event>
 4    1  0.1838758E+006  0.2607838E+01  0.7546771E-02  0.2662816E+00
         22   -1    0    0    0    0  0.00000000000E+00  0.00000000000E+00  0.28239112173E+02  0.28239112173E+02  0.00000000000E+00 0. -1.
         22   -1    0    0    0    0 -0.00000000000E+00 -0.00000000000E+00 -0.24436602664E+00  0.24436602664E+00  0.00000000000E+00 0.  1.
          4    1    1    2  501    0 -0.22173156786E+01  0.52098786549E+00  0.12284132979E+02  0.12557895533E+02  0.12700000000E+01 0.  1.
         -4    1    1    2    0  501  0.22173156786E+01 -0.52098786549E+00  0.15710613168E+02  0.15925582667E+02  0.12700000000E+01 0. -1.
<mgrwt>
<rscale>  0 0.26078376E+01</rscale>
<asrwt>0</asrwt>
<pdfrwt beam="1">0</pdfrwt>
<pdfrwt beam="2">0</pdfrwt>
<totfact> 0.21553552E+12</totfact>
</mgrwt>
</event>
<event>
 4    1  0.1838758E+006  0.2866211E+01  0.7546771E-02  0.2566227E+00
         22   -1    0    0    0    0  0.00000000000E+00  0.00000000000E+00  0.65883414227E+01  0.65883414227E+01  0.00000000000E+00 0.  1.
         22   -1    0    0    0    0 -0.00000000000E+00 -0.00000000000E+00 -0.26330440849E+01  0.26330440849E+01  0.00000000000E+00 0. -1.
          4    1    1    2  501    0 -0.11843375902E+01  0.22802655126E+01  0.53229667652E+01  0.60455885999E+01  0.12700000000E+01 0.  1.
         -4    1    1    2    0  501  0.11843375902E+01 -0.22802655126E+01 -0.13676694275E+01  0.31757969076E+01  0.12700000000E+01 0. -1.
<mgrwt>
<rscale>  0 0.28662111E+01</rscale>
<asrwt>0</asrwt>
<pdfrwt beam="1">0</pdfrwt>
<pdfrwt beam="2">0</pdfrwt>
<totfact> 0.85845059E+11</totfact>
</mgrwt>
</event>
<event>
 4    1  0.1838758E+006  0.2983846E+01  0.7546771E-02  0.2527310E+00
         22   -1    0    0    0    0  0.00000000000E+00  0.00000000000E+00  0.42765556705E+02  0.42765556705E+02  0.00000000000E+00 0.  1.
         22   -1    0    0    0    0 -0.00000000000E+00 -0.00000000000E+00 -0.59356020006E+00  0.59356020006E+00  0.00000000000E+00 0.  1.
          4    1    1    2  501    0  0.13687048358E+01  0.23274631915E+01  0.38554570852E+02  0.38669862573E+02  0.12700000000E+01 0.  1.
         -4    1    1    2    0  501 -0.13687048358E+01 -0.23274631915E+01  0.36174256527E+01  0.46892543318E+01  0.12700000000E+01 0.  1.
<mgrwt>
<rscale>  0 0.29838461E+01</rscale>
<asrwt>0</asrwt>
<pdfrwt beam="1">0</pdfrwt>
<pdfrwt beam="2">0</pdfrwt>
<totfact> 0.46569170E+11</totfact>
</mgrwt>
</event>
<event>
 4    1  0.1838758E+006  0.3719633E+01  0.7546771E-02  0.2334320E+00
         22   -1    0    0    0    0  0.00000000000E+00  0.00000000000E+00  0.10930512156E+01  0.10930512156E+01  0.00000000000E+00 0.  1.
         22   -1    0    0    0    0 -0.00000000000E+00 -0.00000000000E+00 -0.16218788635E+02  0.16218788635E+02  0.00000000000E+00 0. -1.
          4    1    1    2  501    0  0.34936674573E+01 -0.13061249307E+00 -0.35069744394E+01  0.51121953841E+01  0.12700000000E+01 0.  1.
         -4    1    1    2    0  501 -0.34936674573E+01  0.13061249307E+00 -0.11618762980E+02  0.12199644467E+02  0.12700000000E+01 0. -1.
<mgrwt>
<rscale>  0 0.37196333E+01</rscale>
<asrwt>0</asrwt>
<pdfrwt beam="1">0</pdfrwt>
<pdfrwt beam="2">0</pdfrwt>
<totfact> 0.79366440E+11</totfact>
</mgrwt>
</event>
<event>
 4    1  0.1838758E+006  0.2077447E+01  0.7546771E-02  0.2930340E+00
         22   -1    0    0    0    0  0.00000000000E+00  0.00000000000E+00  0.48969160059E+01  0.48969160059E+01  0.00000000000E+00 0. -1.
         22   -1    0    0    0    0 -0.00000000000E+00 -0.00000000000E+00 -0.94444378956E+00  0.94444378956E+00  0.00000000000E+00 0. -1.
          4    1    1    2  501    0 -0.16414612663E+01 -0.92144177761E-01  0.27312716728E+01  0.34315638693E+01  0.12700000000E+01 0. -1.
         -4    1    1    2    0  501  0.16414612663E+01  0.92144177761E-01  0.12212005435E+01  0.24097959261E+01  0.12700000000E+01 0. -1.
<mgrwt>
<rscale>  0 0.20774469E+01</rscale>
<asrwt>0</asrwt>
<pdfrwt beam="1">0</pdfrwt>
<pdfrwt beam="2">0</pdfrwt>
<totfact> 0.39793964E+12</totfact>
</mgrwt>
</event>
<event>
 4    1  0.1838758E+006  0.2175930E+01  0.7546771E-02  0.2871305E+00
         22   -1    0    0    0    0  0.00000000000E+00  0.00000000000E+00  0.52473651670E+01  0.52473651670E+01  0.00000000000E+00 0. -1.
         22   -1    0    0    0    0 -0.00000000000E+00 -0.00000000000E+00 -0.99233082961E+00  0.99233082961E+00  0.00000000000E+00 0.  1.
          4    1    1    2  501    0  0.89159435687E+00 -0.15253947707E+01  0.30672699869E+01  0.37606934037E+01  0.12700000000E+01 0. -1.
         -4    1    1    2    0  501 -0.89159435687E+00  0.15253947707E+01  0.11877643505E+01  0.24790025930E+01  0.12700000000E+01 0.  1.
<mgrwt>
<rscale>  0 0.21759296E+01</rscale>
<asrwt>0</asrwt>
<pdfrwt beam="1">0</pdfrwt>
<pdfrwt beam="2">0</pdfrwt>
<totfact> 0.34654204E+12</totfact>
</mgrwt>
</event>
<event>
 4    1  0.1838758E+006  0.2904719E+01  0.7546771E-02  0.2553175E+00
         22   -1    0    0    0    0  0.00000000000E+00  0.00000000000E+00  0.61874350541E+01  0.61874350541E+01  0.00000000000E+00 0.  1.
         22   -1    0    0    0    0 -0.00000000000E+00 -0.00000000000E+00 -0.14539119817E+01  0.14539119817E+01  0.00000000000E+00 0. -1.
          4    1    1    2  501    0 -0.25275618091E+01  0.66024585725E+00  0.14147040770E+01  0.32309102303E+01  0.12700000000E+01 0. -1.
         -4    1    1    2    0  501  0.25275618091E+01 -0.66024585725E+00  0.33188189954E+01  0.44104368055E+01  0.12700000000E+01 0. -1.
<mgrwt>
<rscale>  0 0.29047191E+01</rscale>
<asrwt>0</asrwt>
<pdfrwt beam="1">0</pdfrwt>
<pdfrwt beam="2">0</pdfrwt>
<totfact> 0.18393052E+12</totfact>
</mgrwt>
</event>
<event>
 4    1  0.1838758E+006  0.2028155E+01  0.7546771E-02  0.2961976E+00
         22   -1    0    0    0    0  0.00000000000E+00  0.00000000000E+00  0.95113964535E+00  0.95113964535E+00  0.00000000000E+00 0. -1.
         22   -1    0    0    0    0 -0.00000000000E+00 -0.00000000000E+00 -0.50630169779E+01  0.50630169779E+01  0.00000000000E+00 0. -1.
          4    1    1    2  501    0 -0.57151769624E-01  0.15802675907E+01 -0.90763752322E+00  0.22219851162E+01  0.12700000000E+01 0. -1.
         -4    1    1    2    0  501  0.57151769624E-01 -0.15802675907E+01 -0.32042398094E+01  0.37921715071E+01  0.12700000000E+01 0. -1.
<mgrwt>
<rscale>  0 0.20281548E+01</rscale>
<asrwt>0</asrwt>
<pdfrwt beam="1">0</pdfrwt>
<pdfrwt beam="2">0</pdfrwt>
<totfact> 0.37945423E+12</totfact>
</mgrwt>
</event>
<event>
 4    1  0.1838758E+006  0.9052331E+01  0.7546771E-02  0.1820935E+00
         22   -1    0    0    0    0  0.00000000000E+00  0.00000000000E+00  0.94897760746E+01  0.94897760746E+01  0.00000000000E+00 0.  1.
         22   -1    0    0    0    0 -0.00000000000E+00 -0.00000000000E+00 -0.13756860198E+02  0.13756860198E+02  0.00000000000E+00 0. -1.
          4    1    1    2  501    0  0.41348622992E+01 -0.79520252404E+01  0.49586779521E+01  0.10321491108E+02  0.12700000000E+01 0.  1.
         -4    1    1    2    0  501 -0.41348622992E+01  0.79520252404E+01 -0.92257620757E+01  0.12925145165E+02  0.12700000000E+01 0. -1.
<mgrwt>
<rscale>  0 0.90523307E+01</rscale>
<asrwt>0</asrwt>
<pdfrwt beam="1">0</pdfrwt>
<pdfrwt beam="2">0</pdfrwt>
<totfact> 0.77158479E+10</totfact>
</mgrwt>
</event>
<event>
 4    1  0.1838758E+006  0.2093447E+01  0.7546771E-02  0.2920384E+00
         22   -1    0    0    0    0  0.00000000000E+00  0.00000000000E+00  0.22744778429E+02  0.22744778429E+02  0.00000000000E+00 0.  1.
         22   -1    0    0    0    0 -0.00000000000E+00 -0.00000000000E+00 -0.22684792149E+00  0.22684792149E+00  0.00000000000E+00 0. -1.
          4    1    1    2  501    0 -0.13565381779E+01 -0.96406573066E+00  0.15716434487E+02  0.15855246184E+02  0.12700000000E+01 0.  1.
         -4    1    1    2    0  501  0.13565381779E+01  0.96406573066E+00  0.68014960200E+01  0.71163801663E+01  0.12700000000E+01 0.  1.
<mgrwt>
<rscale>  0 0.20934466E+01</rscale>
<asrwt>0</asrwt>
<pdfrwt beam="1">0</pdfrwt>
<pdfrwt beam="2">0</pdfrwt>
<totfact> 0.30776445E+12</totfact>
</mgrwt>
</event>
<event>
 4    1  0.1838758E+006  0.2224858E+01  0.7546771E-02  0.2843850E+00
         22   -1    0    0    0    0  0.00000000000E+00  0.00000000000E+00  0.35299365543E+02  0.35299365543E+02  0.00000000000E+00 0.  1.
         22   -1    0    0    0    0 -0.00000000000E+00 -0.00000000000E+00 -0.48664006311E+00  0.48664006311E+00  0.00000000000E+00 0. -1.
          4    1    1    2  501    0 -0.31494795431E+00 -0.17994166914E+01  0.32502825979E+02  0.32578884101E+02  0.12700000000E+01 0.  1.
         -4    1    1    2    0  501  0.31494795431E+00  0.17994166914E+01  0.23098995001E+01  0.32071215044E+01  0.12700000000E+01 0. -1.
<mgrwt>
<rscale>  0 0.22248579E+01</rscale>
<asrwt>0</asrwt>
<pdfrwt beam="1">0</pdfrwt>
<pdfrwt beam="2">0</pdfrwt>
<totfact> 0.74734008E+11</totfact>
</mgrwt>
</event>
<event>
 4    1  0.1838758E+006  0.3441942E+01  0.7546771E-02  0.2398622E+00
         22   -1    0    0    0    0  0.00000000000E+00  0.00000000000E+00  0.29230360497E+01  0.29230360497E+01  0.00000000000E+00 0.  1.
         22   -1    0    0    0    0 -0.00000000000E+00 -0.00000000000E+00 -0.42376666238E+01  0.42376666238E+01  0.00000000000E+00 0. -1.
          4    1    1    2  501    0 -0.31845362570E+01 -0.30461587402E+00 -0.14047924530E+01  0.37175803743E+01  0.12700000000E+01 0. -1.
         -4    1    1    2    0  501  0.31845362570E+01  0.30461587402E+00  0.90161878959E-01  0.34431222992E+01  0.12700000000E+01 0.  1.
<mgrwt>
<rscale>  0 0.34419416E+01</rscale>
<asrwt>0</asrwt>
<pdfrwt beam="1">0</pdfrwt>
<pdfrwt beam="2">0</pdfrwt>
<totfact> 0.12826398E+12</totfact>
</mgrwt>
</event>
<event>
 4    1  0.1838758E+006  0.2411648E+01  0.7546771E-02  0.2748811E+00
         22   -1    0    0    0    0  0.00000000000E+00  0.00000000000E+00  0.20080273003E+01  0.20080273003E+01  0.00000000000E+00 0. -1.
         22   -1    0    0    0    0 -0.00000000000E+00 -0.00000000000E+00 -0.40107180874E+01  0.40107180874E+01  0.00000000000E+00 0.  1.
          4    1    1    2  501    0  0.12355752618E+01 -0.16360013993E+01  0.58489802837E+00  0.24815625137E+01  0.12700000000E+01 0. -1.
         -4    1    1    2    0  501 -0.12355752618E+01  0.16360013993E+01 -0.25875888155E+01  0.35371828740E+01  0.12700000000E+01 0.  1.
<mgrwt>
<rscale>  0 0.24116482E+01</rscale>
<asrwt>0</asrwt>
<pdfrwt beam="1">0</pdfrwt>
<pdfrwt beam="2">0</pdfrwt>
<totfact> 0.21173331E+12</totfact>
</mgrwt>
</event>
<event>
 4    1  0.1838758E+006  0.4955861E+01  0.7546771E-02  0.2128309E+00
         22   -1    0    0    0    0  0.00000000000E+00  0.00000000000E+00  0.26061156399E+02  0.26061156399E+02  0.00000000000E+00 0.  1.
         22   -1    0    0    0    0 -0.00000000000E+00 -0.00000000000E+00 -0.10270200907E+01  0.10270200907E+01  0.00000000000E+00 0. -1.
          4    1    1    2  501    0 -0.47776584064E+01 -0.34876306333E+00  0.86297895401E+01  0.99515738971E+01  0.12700000000E+01 0. -1.
         -4    1    1    2    0  501  0.47776584064E+01  0.34876306333E+00  0.16404346769E+02  0.17136602593E+02  0.12700000000E+01 0.  1.
<mgrwt>
<rscale>  0 0.49558607E+01</rscale>
<asrwt>0</asrwt>
<pdfrwt beam="1">0</pdfrwt>
<pdfrwt beam="2">0</pdfrwt>
<totfact> 0.47132334E+11</totfact>
</mgrwt>
</event>
<event>
 4    1  0.1838758E+006  0.3815446E+01  0.7546771E-02  0.2314024E+00
         22   -1    0    0    0    0  0.00000000000E+00  0.00000000000E+00  0.52304089160E+01  0.52304089160E+01  0.00000000000E+00 0.  1.
         22   -1    0    0    0    0 -0.00000000000E+00 -0.00000000000E+00 -0.28140716117E+01  0.28140716117E+01  0.00000000000E+00 0. -1.
          4    1    1    2  501    0  0.13984004785E+01 -0.33149969860E+01  0.78734281250E+00  0.38958359334E+01  0.12700000000E+01 0. -1.
         -4    1    1    2    0  501 -0.13984004785E+01  0.33149969860E+01  0.16289944918E+01  0.41486445943E+01  0.12700000000E+01 0.  1.
<mgrwt>
<rscale>  0 0.38154461E+01</rscale>
<asrwt>0</asrwt>
<pdfrwt beam="1">0</pdfrwt>
<pdfrwt beam="2">0</pdfrwt>
<totfact> 0.10454729E+12</totfact>
</mgrwt>
</event>
<event>
 4    1  0.1838758E+006  0.2309701E+01  0.7546771E-02  0.2798877E+00
         22   -1    0    0    0    0  0.00000000000E+00  0.00000000000E+00  0.19359225022E+00  0.19359225022E+00  0.00000000000E+00 0. -1.
         22   -1    0    0    0    0 -0.00000000000E+00 -0.00000000000E+00 -0.49683637021E+02  0.49683637021E+02  0.00000000000E+00 0.  1.
          4    1    1    2  501    0  0.10292296251E+01 -0.16317179938E+01 -0.81021366064E+01  0.84249234312E+01  0.12700000000E+01 0. -1.
         -4    1    1    2    0  501 -0.10292296251E+01  0.16317179938E+01 -0.41387908164E+02  0.41452305840E+02  0.12700000000E+01 0.  1.
<mgrwt>
<rscale>  0 0.23097007E+01</rscale>
<asrwt>0</asrwt>
<pdfrwt beam="1">0</pdfrwt>
<pdfrwt beam="2">0</pdfrwt>
<totfact> 0.13466575E+12</totfact>
</mgrwt>
</event>
<event>
 4    1  0.1838758E+006  0.2201069E+01  0.7546771E-02  0.2857052E+00
         22   -1    0    0    0    0  0.00000000000E+00  0.00000000000E+00  0.68813497821E+00  0.68813497821E+00  0.00000000000E+00 0.  1.
         22   -1    0    0    0    0 -0.00000000000E+00 -0.00000000000E+00 -0.11717420668E+02  0.11717420668E+02  0.00000000000E+00 0. -1.
          4    1    1    2  501    0  0.15790233252E+01  0.85935547011E+00 -0.15958032136E+01  0.27186935065E+01  0.12700000000E+01 0. -1.
         -4    1    1    2    0  501 -0.15790233252E+01 -0.85935547011E+00 -0.94334824762E+01  0.96868621397E+01  0.12700000000E+01 0. -1.
<mgrwt>
<rscale>  0 0.22010694E+01</rscale>
<asrwt>0</asrwt>
<pdfrwt beam="1">0</pdfrwt>
<pdfrwt beam="2">0</pdfrwt>
<totfact> 0.20030165E+12</totfact>
</mgrwt>
</event>
<event>
 4    1  0.1838758E+006  0.2459568E+01  0.7546771E-02  0.2726628E+00
         22   -1    0    0    0    0  0.00000000000E+00  0.00000000000E+00  0.83258683909E+01  0.83258683909E+01  0.00000000000E+00 0.  1.
         22   -1    0    0    0    0 -0.00000000000E+00 -0.00000000000E+00 -0.11993810495E+01  0.11993810495E+01  0.00000000000E+00 0. -1.
          4    1    1    2  501    0  0.94884600737E-01 -0.21041795291E+01  0.57302193450E+00  0.25254363416E+01  0.12700000000E+01 0. -1.
         -4    1    1    2    0  501 -0.94884600737E-01  0.21041795291E+01  0.65534654069E+01  0.69998130988E+01  0.12700000000E+01 0.  1.
<mgrwt>
<rscale>  0 0.24595680E+01</rscale>
<asrwt>0</asrwt>
<pdfrwt beam="1">0</pdfrwt>
<pdfrwt beam="2">0</pdfrwt>
<totfact> 0.16078321E+12</totfact>
</mgrwt>
</event>
<event>
 4    1  0.1838758E+006  0.2086333E+01  0.7546771E-02  0.2924792E+00
         22   -1    0    0    0    0  0.00000000000E+00  0.00000000000E+00  0.16070958119E+01  0.16070958119E+01  0.00000000000E+00 0.  1.
         22   -1    0    0    0    0 -0.00000000000E+00 -0.00000000000E+00 -0.27718792309E+01  0.27718792309E+01  0.00000000000E+00 0. -1.
          4    1    1    2  501    0 -0.12175248933E+01  0.11213910160E+01 -0.91352434132E+00  0.22775669910E+01  0.12700000000E+01 0. -1.
         -4    1    1    2    0  501  0.12175248933E+01 -0.11213910160E+01 -0.25125907770E+00  0.21014080519E+01  0.12700000000E+01 0.  1.
<mgrwt>
<rscale>  0 0.20863328E+01</rscale>
<asrwt>0</asrwt>
<pdfrwt beam="1">0</pdfrwt>
<pdfrwt beam="2">0</pdfrwt>
<totfact> 0.42208728E+12</totfact>
</mgrwt>
</event>
<event>
 4    1  0.1838758E+006  0.3823596E+01  0.7546771E-02  0.2312338E+00
         22   -1    0    0    0    0  0.00000000000E+00  0.00000000000E+00  0.21073241007E+02  0.21073241007E+02  0.00000000000E+00 0.  1.
         22   -1    0    0    0    0 -0.00000000000E+00 -0.00000000000E+00 -0.86170773794E+00  0.86170773794E+00  0.00000000000E+00 0. -1.
          4    1    1    2  501    0 -0.35825761805E+01 -0.41489112996E+00  0.52639688008E+01  0.65060936263E+01  0.12700000000E+01 0.  1.
         -4    1    1    2    0  501  0.35825761805E+01  0.41489112996E+00  0.14947564469E+02  0.15428855119E+02  0.12700000000E+01 0. -1.
<mgrwt>
<rscale>  0 0.38235960E+01</rscale>
<asrwt>0</asrwt>
<pdfrwt beam="1">0</pdfrwt>
<pdfrwt beam="2">0</pdfrwt>
<totfact> 0.75204933E+11</totfact>
</mgrwt>
</event>
<event>
 4    1  0.1838758E+006  0.2087680E+01  0.7546771E-02  0.2923955E+00
         22   -1    0    0    0    0  0.00000000000E+00  0.00000000000E+00  0.50136521499E+00  0.50136521499E+00  0.00000000000E+00 0.  1.
         22   -1    0    0    0    0 -0.00000000000E+00 -0.00000000000E+00 -0.15970713738E+02  0.15970713738E+02  0.00000000000E+00 0. -1.
          4    1    1    2  501    0  0.21112668708E+00  0.16434511268E+01 -0.21749729037E+01  0.30147824491E+01  0.12700000000E+01 0.  1.
         -4    1    1    2    0  501 -0.21112668708E+00 -0.16434511268E+01 -0.13294375619E+02  0.13457296504E+02  0.12700000000E+01 0. -1.
<mgrwt>
<rscale>  0 0.20876796E+01</rscale>
<asrwt>0</asrwt>
<pdfrwt beam="1">0</pdfrwt>
<pdfrwt beam="2">0</pdfrwt>
<totfact> 0.19609602E+12</totfact>
</mgrwt>
</event>
<event>
 4    1  0.1838758E+006  0.2100960E+01  0.7546771E-02  0.2915759E+00
         22   -1    0    0    0    0  0.00000000000E+00  0.00000000000E+00  0.48609445380E+00  0.48609445380E+00  0.00000000000E+00 0. -1.
         22   -1    0    0    0    0 -0.00000000000E+00 -0.00000000000E+00 -0.10550274337E+02  0.10550274337E+02  0.00000000000E+00 0. -1.
          4    1    1    2  501    0  0.16736008263E+01 -0.13915814667E-01 -0.29725337378E+01  0.36400535983E+01  0.12700000000E+01 0. -1.
         -4    1    1    2    0  501 -0.16736008263E+01  0.13915814667E-01 -0.70916461451E+01  0.73963151923E+01  0.12700000000E+01 0. -1.
<mgrwt>
<rscale>  0 0.21009601E+01</rscale>
<asrwt>0</asrwt>
<pdfrwt beam="1">0</pdfrwt>
<pdfrwt beam="2">0</pdfrwt>
<totfact> 0.33721974E+12</totfact>
</mgrwt>
</event>
<event>
 4    1  0.1838758E+006  0.2390538E+01  0.7546771E-02  0.2758848E+00
         22   -1    0    0    0    0  0.00000000000E+00  0.00000000000E+00  0.20206235071E+02  0.20206235071E+02  0.00000000000E+00 0. -1.
         22   -1    0    0    0    0 -0.00000000000E+00 -0.00000000000E+00 -0.28295107613E+00  0.28295107613E+00  0.00000000000E+00 0.  1.
          4    1    1    2  501    0  0.64325508531E+00 -0.19204150600E+01  0.97388149115E+01  0.10027920372E+02  0.12700000000E+01 0. -1.
         -4    1    1    2    0  501 -0.64325508531E+00  0.19204150600E+01  0.10184469083E+02  0.10461265775E+02  0.12700000000E+01 0.  1.
<mgrwt>
<rscale>  0 0.23905378E+01</rscale>
<asrwt>0</asrwt>
<pdfrwt beam="1">0</pdfrwt>
<pdfrwt beam="2">0</pdfrwt>
<totfact> 0.27872625E+12</totfact>
</mgrwt>
</event>
<event>
 4    1  0.1838758E+006  0.2746354E+01  0.7546771E-02  0.2608970E+00
         22   -1    0    0    0    0  0.00000000000E+00  0.00000000000E+00  0.76149729650E+01  0.76149729650E+01  0.00000000000E+00 0. -1.
         22   -1    0    0    0    0 -0.00000000000E+00 -0.00000000000E+00 -0.99114037732E+00  0.99114037732E+00  0.00000000000E+00 0.  1.
          4    1    1    2  501    0 -0.19215566189E+01  0.14957214724E+01  0.34231635522E+01  0.43886799003E+01  0.12700000000E+01 0. -1.
         -4    1    1    2    0  501  0.19215566189E+01 -0.14957214724E+01  0.32006690355E+01  0.42174334420E+01  0.12700000000E+01 0.  1.
<mgrwt>
<rscale>  0 0.27463544E+01</rscale>
<asrwt>0</asrwt>
<pdfrwt beam="1">0</pdfrwt>
<pdfrwt beam="2">0</pdfrwt>
<totfact> 0.22260542E+12</totfact>
</mgrwt>
</event>
<event>
 4    1  0.1838758E+006  0.2080959E+01  0.7546771E-02  0.2928142E+00
         22   -1    0    0    0    0  0.00000000000E+00  0.00000000000E+00  0.16055598963E+01  0.16055598963E+01  0.00000000000E+00 0. -1.
         22   -1    0    0    0    0 -0.00000000000E+00 -0.00000000000E+00 -0.39461051330E+01  0.39461051330E+01  0.00000000000E+00 0.  1.
          4    1    1    2  501    0  0.41867595460E-01 -0.16479494904E+01 -0.27319354487E+01  0.34342192292E+01  0.12700000000E+01 0.  1.
         -4    1    1    2    0  501 -0.41867595460E-01  0.16479494904E+01  0.39139021201E+00  0.21174458001E+01  0.12700000000E+01 0. -1.
<mgrwt>
<rscale>  0 0.20809590E+01</rscale>
<asrwt>0</asrwt>
<pdfrwt beam="1">0</pdfrwt>
<pdfrwt beam="2">0</pdfrwt>
<totfact> 0.27941323E+12</totfact>
</mgrwt>
</event>
<event>
 4    1  0.1838758E+006  0.2378903E+01  0.7546771E-02  0.2764451E+00
         22   -1    0    0    0    0  0.00000000000E+00  0.00000000000E+00  0.14336696661E+00  0.14336696661E+00  0.00000000000E+00 0. -1.
         22   -1    0    0    0    0 -0.00000000000E+00 -0.00000000000E+00 -0.39598045045E+02  0.39598045045E+02  0.00000000000E+00 0. -1.
          4    1    1    2  501    0  0.17862839993E+01 -0.92491555714E+00 -0.18612423547E+02  0.18763834619E+02  0.12700000000E+01 0. -1.
         -4    1    1    2    0  501 -0.17862839993E+01  0.92491555714E+00 -0.20842254532E+02  0.20977577393E+02  0.12700000000E+01 0. -1.
<mgrwt>
<rscale>  0 0.23789030E+01</rscale>
<asrwt>0</asrwt>
<pdfrwt beam="1">0</pdfrwt>
<pdfrwt beam="2">0</pdfrwt>
<totfact> 0.25309938E+12</totfact>
</mgrwt>
</event>
<event>
 4    1  0.1838758E+006  0.2093131E+01  0.7546771E-02  0.2920579E+00
         22   -1    0    0    0    0  0.00000000000E+00  0.00000000000E+00  0.24865211057E+01  0.24865211057E+01  0.00000000000E+00 0. -1.
         22   -1    0    0    0    0 -0.00000000000E+00 -0.00000000000E+00 -0.19377356304E+01  0.19377356304E+01  0.00000000000E+00 0.  1.
          4    1    1    2  501    0 -0.12174912840E+01 -0.11340242472E+01  0.94061615090E+00  0.22947668211E+01  0.12700000000E+01 0. -1.
         -4    1    1    2    0  501  0.12174912840E+01  0.11340242472E+01 -0.39183067555E+00  0.21294899150E+01  0.12700000000E+01 0.  1.
<mgrwt>
<rscale>  0 0.20931307E+01</rscale>
<asrwt>0</asrwt>
<pdfrwt beam="1">0</pdfrwt>
<pdfrwt beam="2">0</pdfrwt>
<totfact> 0.38596416E+12</totfact>
</mgrwt>
</event>
<event>
 4    1  0.1838758E+006  0.2136312E+01  0.7546771E-02  0.2894421E+00
         22   -1    0    0    0    0  0.00000000000E+00  0.00000000000E+00  0.18949955954E+02  0.18949955954E+02  0.00000000000E+00 0. -1.
         22   -1    0    0    0    0 -0.00000000000E+00 -0.00000000000E+00 -0.40162547920E+00  0.40162547920E+00  0.00000000000E+00 0. -1.
          4    1    1    2  501    0  0.14518524378E+01 -0.91817985764E+00  0.15396326755E+02  0.15543831809E+02  0.12700000000E+01 0. -1.
         -4    1    1    2    0  501 -0.14518524378E+01  0.91817985764E+00  0.31520037193E+01  0.38077496239E+01  0.12700000000E+01 0. -1.
<mgrwt>
<rscale>  0 0.21363122E+01</rscale>
<asrwt>0</asrwt>
<pdfrwt beam="1">0</pdfrwt>
<pdfrwt beam="2">0</pdfrwt>
<totfact> 0.20373428E+12</totfact>
</mgrwt>
</event>
<event>
 4    1  0.1838758E+006  0.2090832E+01  0.7546771E-02  0.2922000E+00
         22   -1    0    0    0    0  0.00000000000E+00  0.00000000000E+00  0.13799781919E+01  0.13799781919E+01  0.00000000000E+00 0.  1.
         22   -1    0    0    0    0 -0.00000000000E+00 -0.00000000000E+00 -0.56703989404E+01  0.56703989404E+01  0.00000000000E+00 0. -1.
          4    1    1    2  501    0 -0.15761713332E+01  0.52379751798E+00  0.19667605171E+00  0.21000622326E+01  0.12700000000E+01 0.  1.
         -4    1    1    2    0  501  0.15761713332E+01 -0.52379751798E+00 -0.44870968003E+01  0.49503148997E+01  0.12700000000E+01 0. -1.
<mgrwt>
<rscale>  0 0.20908323E+01</rscale>
<asrwt>0</asrwt>
<pdfrwt beam="1">0</pdfrwt>
<pdfrwt beam="2">0</pdfrwt>
<totfact> 0.21665183E+12</totfact>
</mgrwt>
</event>
<event>
 4    1  0.1838758E+006  0.2861339E+01  0.7546771E-02  0.2567901E+00
         22   -1    0    0    0    0  0.00000000000E+00  0.00000000000E+00  0.31834488224E+01  0.31834488224E+01  0.00000000000E+00 0. -1.
         22   -1    0    0    0    0 -0.00000000000E+00 -0.00000000000E+00 -0.25894334319E+01  0.25894334319E+01  0.00000000000E+00 0.  1.
          4    1    1    2  501    0 -0.56712431011E+00  0.25005455621E+01  0.58951520281E-01  0.28619457320E+01  0.12700000000E+01 0. -1.
         -4    1    1    2    0  501  0.56712431011E+00 -0.25005455621E+01  0.53506387026E+00  0.29109365223E+01  0.12700000000E+01 0. -1.
<mgrwt>
<rscale>  0 0.28613385E+01</rscale>
<asrwt>0</asrwt>
<pdfrwt beam="1">0</pdfrwt>
<pdfrwt beam="2">0</pdfrwt>
<totfact> 0.20668986E+12</totfact>
</mgrwt>
</event>
<event>
 4    1  0.1838758E+006  0.3589587E+01  0.7546771E-02  0.2363358E+00
         22   -1    0    0    0    0  0.00000000000E+00  0.00000000000E+00  0.33818700794E+01  0.33818700794E+01  0.00000000000E+00 0. -1.
         22   -1    0    0    0    0 -0.00000000000E+00 -0.00000000000E+00 -0.39406822914E+01  0.39406822914E+01  0.00000000000E+00 0.  1.
          4    1    1    2  501    0 -0.20751962143E+01 -0.26392792132E+01  0.38717406669E+00  0.36104068816E+01  0.12700000000E+01 0. -1.
         -4    1    1    2    0  501  0.20751962143E+01  0.26392792132E+01 -0.94598627875E+00  0.37121454892E+01  0.12700000000E+01 0.  1.
<mgrwt>
<rscale>  0 0.35895869E+01</rscale>
<asrwt>0</asrwt>
<pdfrwt beam="1">0</pdfrwt>
<pdfrwt beam="2">0</pdfrwt>
<totfact> 0.11781500E+12</totfact>
</mgrwt>
</event>
<event>
 4    1  0.1838758E+006  0.2946083E+01  0.7546771E-02  0.2539498E+00
         22   -1    0    0    0    0  0.00000000000E+00  0.00000000000E+00  0.39833181638E+01  0.39833181638E+01  0.00000000000E+00 0.  1.
         22   -1    0    0    0    0 -0.00000000000E+00 -0.00000000000E+00 -0.40906195805E+01  0.40906195805E+01  0.00000000000E+00 0. -1.
          4    1    1    2  501    0 -0.19805184740E+01  0.17731477519E+01  0.27060916838E+01  0.40002923114E+01  0.12700000000E+01 0.  1.
         -4    1    1    2    0  501  0.19805184740E+01 -0.17731477519E+01 -0.28133931004E+01  0.40736454330E+01  0.12700000000E+01 0. -1.
<mgrwt>
<rscale>  0 0.29460832E+01</rscale>
<asrwt>0</asrwt>
<pdfrwt beam="1">0</pdfrwt>
<pdfrwt beam="2">0</pdfrwt>
<totfact> 0.93035044E+11</totfact>
</mgrwt>
</event>
<event>
 4    1  0.1838758E+006  0.2610351E+01  0.7546771E-02  0.2661792E+00
         22   -1    0    0    0    0  0.00000000000E+00  0.00000000000E+00  0.50677709854E+02  0.50677709854E+02  0.00000000000E+00 0. -1.
         22   -1    0    0    0    0 -0.00000000000E+00 -0.00000000000E+00 -0.13450932044E+00  0.13450932044E+00  0.00000000000E+00 0. -1.
          4    1    1    2  501    0  0.21082232113E+01  0.86972757482E+00  0.24766609075E+02  0.24903792005E+02  0.12700000000E+01 0. -1.
         -4    1    1    2    0  501 -0.21082232113E+01 -0.86972757482E+00  0.25776591459E+02  0.25908427169E+02  0.12700000000E+01 0. -1.
<mgrwt>
<rscale>  0 0.26103508E+01</rscale>
<asrwt>0</asrwt>
<pdfrwt beam="1">0</pdfrwt>
<pdfrwt beam="2">0</pdfrwt>
<totfact> 0.19674006E+12</totfact>
</mgrwt>
</event>
<event>
 4    1  0.1838758E+006  0.2024334E+01  0.7546771E-02  0.2964491E+00
         22   -1    0    0    0    0  0.00000000000E+00  0.00000000000E+00  0.71106195051E+00  0.71106195051E+00  0.00000000000E+00 0.  1.
         22   -1    0    0    0    0 -0.00000000000E+00 -0.00000000000E+00 -0.58454468789E+01  0.58454468789E+01  0.00000000000E+00 0.  1.
          4    1    1    2  501    0  0.67637008408E+00 -0.14239208871E+01 -0.29562688797E+01  0.35829391388E+01  0.12700000000E+01 0.  1.
         -4    1    1    2    0  501 -0.67637008408E+00  0.14239208871E+01 -0.21781160486E+01  0.29735696906E+01  0.12700000000E+01 0.  1.
<mgrwt>
<rscale>  0 0.20243338E+01</rscale>
<asrwt>0</asrwt>
<pdfrwt beam="1">0</pdfrwt>
<pdfrwt beam="2">0</pdfrwt>
<totfact> 0.44552787E+12</totfact>
</mgrwt>
</event>
<event>
 4    1  0.1838758E+006  0.2174974E+01  0.7546771E-02  0.2871854E+00
         22   -1    0    0    0    0  0.00000000000E+00  0.00000000000E+00  0.39994680842E+00  0.39994680842E+00  0.00000000000E+00 0.  1.
         22   -1    0    0    0    0 -0.00000000000E+00 -0.00000000000E+00 -0.27651590834E+02  0.27651590834E+02  0.00000000000E+00 0.  1.
          4    1    1    2  501    0 -0.16181850635E+01  0.70646167565E+00 -0.30156801359E+01  0.37181766608E+01  0.12700000000E+01 0.  1.
         -4    1    1    2    0  501  0.16181850635E+01 -0.70646167565E+00 -0.24235963890E+02  0.24333360982E+02  0.12700000000E+01 0.  1.
<mgrwt>
<rscale>  0 0.21749738E+01</rscale>
<asrwt>0</asrwt>
<pdfrwt beam="1">0</pdfrwt>
<pdfrwt beam="2">0</pdfrwt>
<totfact> 0.12736250E+12</totfact>
</mgrwt>
</event>
<event>
 4    1  0.1838758E+006  0.5746907E+01  0.7546771E-02  0.2043157E+00
         22   -1    0    0    0    0  0.00000000000E+00  0.00000000000E+00  0.55538017700E+01  0.55538017700E+01  0.00000000000E+00 0. -1.
         22   -1    0    0    0    0 -0.00000000000E+00 -0.00000000000E+00 -0.59530797068E+01  0.59530797068E+01  0.00000000000E+00 0.  1.
          4    1    1    2  501    0 -0.10942492196E+01  0.54969684942E+01 -0.11694398257E-01  0.57469192391E+01  0.12700000000E+01 0.  1.
         -4    1    1    2    0  501  0.10942492196E+01 -0.54969684942E+01 -0.38758353854E+00  0.57599622378E+01  0.12700000000E+01 0. -1.
<mgrwt>
<rscale>  0 0.57469073E+01</rscale>
<asrwt>0</asrwt>
<pdfrwt beam="1">0</pdfrwt>
<pdfrwt beam="2">0</pdfrwt>
<totfact> 0.40286384E+11</totfact>
</mgrwt>
</event>
<event>
 4    1  0.1838758E+006  0.2591997E+01  0.7546771E-02  0.2669310E+00
         22   -1    0    0    0    0  0.00000000000E+00  0.00000000000E+00  0.58350301360E+01  0.58350301360E+01  0.00000000000E+00 0. -1.
         22   -1    0    0    0    0 -0.00000000000E+00 -0.00000000000E+00 -0.22221599002E+01  0.22221599002E+01  0.00000000000E+00 0.  1.
          4    1    1    2  501    0  0.90964130649E+00  0.20683566437E+01  0.46029185923E+01  0.52825473097E+01  0.12700000000E+01 0.  1.
         -4    1    1    2    0  501 -0.90964130649E+00 -0.20683566437E+01 -0.99004835650E+00  0.27746427266E+01  0.12700000000E+01 0. -1.
<mgrwt>
<rscale>  0 0.25919966E+01</rscale>
<asrwt>0</asrwt>
<pdfrwt beam="1">0</pdfrwt>
<pdfrwt beam="2">0</pdfrwt>
<totfact> 0.12083413E+12</totfact>
</mgrwt>
</event>
<event>
 4    1  0.1838758E+006  0.4937307E+01  0.7546771E-02  0.2130562E+00
         22   -1    0    0    0    0  0.00000000000E+00  0.00000000000E+00  0.14598122734E+02  0.14598122734E+02  0.00000000000E+00 0.  1.
         22   -1    0    0    0    0 -0.00000000000E+00 -0.00000000000E+00 -0.17947111815E+01  0.17947111815E+01  0.00000000000E+00 0. -1.
          4    1    1    2  501    0  0.44907191470E+01  0.16116906489E+01  0.85634343681E+01  0.98848072000E+01  0.12700000000E+01 0.  1.
         -4    1    1    2    0  501 -0.44907191470E+01 -0.16116906489E+01  0.42399771845E+01  0.65080267155E+01  0.12700000000E+01 0. -1.
<mgrwt>
<rscale>  0 0.49373075E+01</rscale>
<asrwt>0</asrwt>
<pdfrwt beam="1">0</pdfrwt>
<pdfrwt beam="2">0</pdfrwt>
<totfact> 0.51108146E+11</totfact>
</mgrwt>
</event>
<event>
 4    1  0.1838758E+006  0.2400677E+01  0.7546771E-02  0.2754007E+00
         22   -1    0    0    0    0  0.00000000000E+00  0.00000000000E+00  0.10301304578E+01  0.10301304578E+01  0.00000000000E+00 0.  1.
         22   -1    0    0    0    0 -0.00000000000E+00 -0.00000000000E+00 -0.56187837451E+01  0.56187837451E+01  0.00000000000E+00 0. -1.
          4    1    1    2  501    0 -0.84612186823E+00 -0.18532209995E+01 -0.25120683737E+01  0.34747284502E+01  0.12700000000E+01 0. -1.
         -4    1    1    2    0  501  0.84612186823E+00  0.18532209995E+01 -0.20765849136E+01  0.31741857526E+01  0.12700000000E+01 0. -1.
<mgrwt>
<rscale>  0 0.24006770E+01</rscale>
<asrwt>0</asrwt>
<pdfrwt beam="1">0</pdfrwt>
<pdfrwt beam="2">0</pdfrwt>
<totfact> 0.30617960E+12</totfact>
</mgrwt>
</event>
<event>
 4    1  0.1838758E+006  0.2775069E+01  0.7546771E-02  0.2598424E+00
         22   -1    0    0    0    0  0.00000000000E+00  0.00000000000E+00  0.44630266702E+02  0.44630266702E+02  0.00000000000E+00 0. -1.
         22   -1    0    0    0    0 -0.00000000000E+00 -0.00000000000E+00 -0.19224849538E+00  0.19224849538E+00  0.00000000000E+00 0. -1.
          4    1    1    2  501    0  0.23913551002E+01 -0.60789014973E+00  0.29392609301E+02  0.29523321141E+02  0.12700000000E+01 0. -1.
         -4    1    1    2    0  501 -0.23913551002E+01  0.60789014973E+00  0.15045408905E+02  0.15299194056E+02  0.12700000000E+01 0. -1.
<mgrwt>
<rscale>  0 0.27750693E+01</rscale>
<asrwt>0</asrwt>
<pdfrwt beam="1">0</pdfrwt>
<pdfrwt beam="2">0</pdfrwt>
<totfact> 0.15624799E+12</totfact>
</mgrwt>
</event>
<event>
 4    1  0.1838758E+006  0.2017615E+01  0.7546771E-02  0.2968936E+00
         22   -1    0    0    0    0  0.00000000000E+00  0.00000000000E+00  0.69312226316E+01  0.69312226316E+01  0.00000000000E+00 0.  1.
         22   -1    0    0    0    0 -0.00000000000E+00 -0.00000000000E+00 -0.75730288824E+00  0.75730288824E+00  0.00000000000E+00 0. -1.
          4    1    1    2  501    0 -0.89194132401E+00 -0.12893060518E+01  0.49083161785E+01  0.53068198696E+01  0.12700000000E+01 0.  1.
         -4    1    1    2    0  501  0.89194132401E+00  0.12893060518E+01  0.12656035649E+01  0.23817056502E+01  0.12700000000E+01 0. -1.
<mgrwt>
<rscale>  0 0.20176148E+01</rscale>
<asrwt>0</asrwt>
<pdfrwt beam="1">0</pdfrwt>
<pdfrwt beam="2">0</pdfrwt>
<totfact> 0.33849244E+12</totfact>
</mgrwt>
</event>
<event>
 4    1  0.1838758E+006  0.2112812E+01  0.7546771E-02  0.2908529E+00
         22   -1    0    0    0    0  0.00000000000E+00  0.00000000000E+00  0.21499542281E+00  0.21499542281E+00  0.00000000000E+00 0.  1.
         22   -1    0    0    0    0 -0.00000000000E+00 -0.00000000000E+00 -0.20989177403E+02  0.20989177403E+02  0.00000000000E+00 0.  1.
          4    1    1    2  501    0  0.16157357245E+01 -0.49037843080E+00 -0.92867795560E+01  0.95240877494E+01  0.12700000000E+01 0.  1.
         -4    1    1    2    0  501 -0.16157357245E+01  0.49037843080E+00 -0.11487402424E+02  0.11680085077E+02  0.12700000000E+01 0.  1.
<mgrwt>
<rscale>  0 0.21128116E+01</rscale>
<asrwt>0</asrwt>
<pdfrwt beam="1">0</pdfrwt>
<pdfrwt beam="2">0</pdfrwt>
<totfact> 0.36136514E+12</totfact>
</mgrwt>
</event>
<event>
 4    1  0.1838758E+006  0.2148107E+01  0.7546771E-02  0.2887453E+00
         22   -1    0    0    0    0  0.00000000000E+00  0.00000000000E+00  0.77397447027E+01  0.77397447027E+01  0.00000000000E+00 0.  1.
         22   -1    0    0    0    0 -0.00000000000E+00 -0.00000000000E+00 -0.69662482532E+00  0.69662482532E+00  0.00000000000E+00 0. -1.
          4    1    1    2  501    0 -0.17085742452E+01  0.28677340747E+00  0.51232056725E+01  0.55553218900E+01  0.12700000000E+01 0.  1.
         -4    1    1    2    0  501  0.17085742452E+01 -0.28677340747E+00  0.19199142049E+01  0.28810476380E+01  0.12700000000E+01 0. -1.
<mgrwt>
<rscale>  0 0.21481073E+01</rscale>
<asrwt>0</asrwt>
<pdfrwt beam="1">0</pdfrwt>
<pdfrwt beam="2">0</pdfrwt>
<totfact> 0.32610838E+12</totfact>
</mgrwt>
</event>
<event>
 4    1  0.1838758E+006  0.2010074E+01  0.7546771E-02  0.2973959E+00
         22   -1    0    0    0    0  0.00000000000E+00  0.00000000000E+00  0.12112980405E+00  0.12112980405E+00  0.00000000000E+00 0. -1.
         22   -1    0    0    0    0 -0.00000000000E+00 -0.00000000000E+00 -0.44010185223E+02  0.44010185223E+02  0.00000000000E+00 0.  1.
          4    1    1    2  501    0  0.12859212087E+01 -0.87971907630E+00 -0.11087735405E+02  0.11268463756E+02  0.12700000000E+01 0. -1.
         -4    1    1    2    0  501 -0.12859212087E+01  0.87971907630E+00 -0.32801320015E+02  0.32862851272E+02  0.12700000000E+01 0.  1.
<mgrwt>
<rscale>  0 0.20100744E+01</rscale>
<asrwt>0</asrwt>
<pdfrwt beam="1">0</pdfrwt>
<pdfrwt beam="2">0</pdfrwt>
<totfact> 0.26594656E+12</totfact>
</mgrwt>
</event>
<event>
 4    1  0.1838758E+006  0.2148771E+01  0.7546771E-02  0.2887064E+00
         22   -1    0    0    0    0  0.00000000000E+00  0.00000000000E+00  0.40130995044E+01  0.40130995044E+01  0.00000000000E+00 0.  1.
         22   -1    0    0    0    0 -0.00000000000E+00 -0.00000000000E+00 -0.15270668262E+01  0.15270668262E+01  0.00000000000E+00 0.  1.
          4    1    1    2  501    0 -0.74479032091E+00  0.15651208410E+01  0.26185271091E+01  0.33873145838E+01  0.12700000000E+01 0.  1.
         -4    1    1    2    0  501  0.74479032091E+00 -0.15651208410E+01 -0.13249443086E+00  0.21528517467E+01  0.12700000000E+01 0.  1.
<mgrwt>
<rscale>  0 0.21487708E+01</rscale>
<asrwt>0</asrwt>
<pdfrwt beam="1">0</pdfrwt>
<pdfrwt beam="2">0</pdfrwt>
<totfact> 0.29021598E+12</totfact>
</mgrwt>
</event>
<event>
 4    1  0.1838758E+006  0.2361649E+01  0.7546771E-02  0.2772856E+00
         22   -1    0    0    0    0  0.00000000000E+00  0.00000000000E+00  0.91512667928E+01  0.91512667928E+01  0.00000000000E+00 0. -1.
         22   -1    0    0    0    0 -0.00000000000E+00 -0.00000000000E+00 -0.28389069086E+01  0.28389069086E+01  0.00000000000E+00 0.  1.
          4    1    1    2  501    0 -0.75821894130E+00 -0.18410837076E+01  0.84689117708E+01  0.87920334260E+01  0.12700000000E+01 0. -1.
         -4    1    1    2    0  501  0.75821894130E+00  0.18410837076E+01 -0.21565518867E+01  0.31981402754E+01  0.12700000000E+01 0.  1.
<mgrwt>
<rscale>  0 0.23616488E+01</rscale>
<asrwt>0</asrwt>
<pdfrwt beam="1">0</pdfrwt>
<pdfrwt beam="2">0</pdfrwt>
<totfact> 0.53003668E+11</totfact>
</mgrwt>
</event>
<event>
 4    1  0.1838758E+006  0.2156029E+01  0.7546771E-02  0.2882815E+00
         22   -1    0    0    0    0  0.00000000000E+00  0.00000000000E+00  0.70478762878E+02  0.70478762878E+02  0.00000000000E+00 0. -1.
         22   -1    0    0    0    0 -0.00000000000E+00 -0.00000000000E+00 -0.66028957060E-01  0.66028957060E-01  0.00000000000E+00 0.  1.
          4    1    1    2  501    0 -0.12445049419E+01 -0.12193308389E+01  0.36383051343E+02  0.36446877579E+02  0.12700000000E+01 0.  1.
         -4    1    1    2    0  501  0.12445049419E+01  0.12193308389E+01  0.34029682578E+02  0.34097914256E+02  0.12700000000E+01 0. -1.
<mgrwt>
<rscale>  0 0.21560288E+01</rscale>
<asrwt>0</asrwt>
<pdfrwt beam="1">0</pdfrwt>
<pdfrwt beam="2">0</pdfrwt>
<totfact> 0.27800234E+12</totfact>
</mgrwt>
</event>
<event>
 4    1  0.1838758E+006  0.2253910E+01  0.7546771E-02  0.2828087E+00
         22   -1    0    0    0    0  0.00000000000E+00  0.00000000000E+00  0.75954963238E+01  0.75954963238E+01  0.00000000000E+00 0.  1.
         22   -1    0    0    0    0 -0.00000000000E+00 -0.00000000000E+00 -0.71781264459E+00  0.71781264459E+00  0.00000000000E+00 0.  1.
          4    1    1    2  501    0  0.12844255803E+01  0.13481320144E+01  0.45246467161E+01  0.50549517214E+01  0.12700000000E+01 0.  1.
         -4    1    1    2    0  501 -0.12844255803E+01 -0.13481320144E+01  0.23530369631E+01  0.32583572470E+01  0.12700000000E+01 0.  1.
<mgrwt>
<rscale>  0 0.22539097E+01</rscale>
<asrwt>0</asrwt>
<pdfrwt beam="1">0</pdfrwt>
<pdfrwt beam="2">0</pdfrwt>
<totfact> 0.32240429E+12</totfact>
</mgrwt>
</event>
<event>
 4    1  0.1838758E+006  0.3914593E+01  0.7546771E-02  0.2293924E+00
         22   -1    0    0    0    0  0.00000000000E+00  0.00000000000E+00  0.49526401614E+00  0.49526401614E+00  0.00000000000E+00 0.  1.
         22   -1    0    0    0    0 -0.00000000000E+00 -0.00000000000E+00 -0.38518949226E+02  0.38518949226E+02  0.00000000000E+00 0.  1.
          4    1    1    2  501    0 -0.32479714236E+01  0.17781515259E+01 -0.10359633329E+02  0.11074567437E+02  0.12700000000E+01 0.  1.
         -4    1    1    2    0  501  0.32479714236E+01 -0.17781515259E+01 -0.27664051882E+02  0.27939645805E+02  0.12700000000E+01 0.  1.
<mgrwt>
<rscale>  0 0.39145934E+01</rscale>
<asrwt>0</asrwt>
<pdfrwt beam="1">0</pdfrwt>
<pdfrwt beam="2">0</pdfrwt>
<totfact> 0.65464644E+11</totfact>
</mgrwt>
</event>
<event>
 4    1  0.1838758E+006  0.3128822E+01  0.7546771E-02  0.2482975E+00
         22   -1    0    0    0    0  0.00000000000E+00  0.00000000000E+00  0.97633472888E+00  0.97633472888E+00  0.00000000000E+00 0. -1.
         22   -1    0    0    0    0 -0.00000000000E+00 -0.00000000000E+00 -0.11048799332E+02  0.11048799332E+02  0.00000000000E+00 0. -1.
          4    1    1    2  501    0 -0.25920953509E+01 -0.12073396158E+01 -0.32076075048E+01  0.44808786148E+01  0.12700000000E+01 0. -1.
         -4    1    1    2    0  501  0.25920953509E+01  0.12073396158E+01 -0.68648570987E+01  0.75442554465E+01  0.12700000000E+01 0. -1.
<mgrwt>
<rscale>  0 0.31288220E+01</rscale>
<asrwt>0</asrwt>
<pdfrwt beam="1">0</pdfrwt>
<pdfrwt beam="2">0</pdfrwt>
<totfact> 0.14449665E+12</totfact>
</mgrwt>
</event>
<event>
 4    1  0.1838758E+006  0.2033414E+01  0.7546771E-02  0.2958529E+00
         22   -1    0    0    0    0  0.00000000000E+00  0.00000000000E+00  0.38116480090E+01  0.38116480090E+01  0.00000000000E+00 0.  1.
         22   -1    0    0    0    0 -0.00000000000E+00 -0.00000000000E+00 -0.11072076718E+01  0.11072076718E+01  0.00000000000E+00 0. -1.
          4    1    1    2  501    0  0.28906909044E+00 -0.15615094081E+01  0.10021298503E+01  0.22669443768E+01  0.12700000000E+01 0.  1.
         -4    1    1    2    0  501 -0.28906909044E+00  0.15615094081E+01  0.17023104869E+01  0.26519113040E+01  0.12700000000E+01 0. -1.
<mgrwt>
<rscale>  0 0.20334140E+01</rscale>
<asrwt>0</asrwt>
<pdfrwt beam="1">0</pdfrwt>
<pdfrwt beam="2">0</pdfrwt>
<totfact> 0.44589690E+12</totfact>
</mgrwt>
</event>
<event>
 4    1  0.1838758E+006  0.2627349E+01  0.7546771E-02  0.2654916E+00
         22   -1    0    0    0    0  0.00000000000E+00  0.00000000000E+00  0.18921202367E+01  0.18921202367E+01  0.00000000000E+00 0.  1.
         22   -1    0    0    0    0 -0.00000000000E+00 -0.00000000000E+00 -0.39095479686E+01  0.39095479686E+01  0.00000000000E+00 0. -1.
          4    1    1    2  501    0  0.15546991862E+00  0.22947529576E+01 -0.25879800996E+00  0.26400640981E+01  0.12700000000E+01 0.  1.
         -4    1    1    2    0  501 -0.15546991862E+00 -0.22947529576E+01 -0.17586297220E+01  0.31616041073E+01  0.12700000000E+01 0. -1.
<mgrwt>
<rscale>  0 0.26273489E+01</rscale>
<asrwt>0</asrwt>
<pdfrwt beam="1">0</pdfrwt>
<pdfrwt beam="2">0</pdfrwt>
<totfact> 0.23373270E+12</totfact>
</mgrwt>
</event>
<event>
 4    1  0.1838758E+006  0.5412520E+01  0.7546771E-02  0.2076760E+00
         22   -1    0    0    0    0  0.00000000000E+00  0.00000000000E+00  0.50003712741E+02  0.50003712741E+02  0.00000000000E+00 0. -1.
         22   -1    0    0    0    0 -0.00000000000E+00 -0.00000000000E+00 -0.68118946563E+00  0.68118946563E+00  0.00000000000E+00 0. -1.
          4    1    1    2  501    0 -0.42229273029E+01 -0.31383687648E+01  0.34141498725E+02  0.34567865261E+02  0.12700000000E+01 0. -1.
         -4    1    1    2    0  501  0.42229273029E+01  0.31383687648E+01  0.15181024550E+02  0.16117036946E+02  0.12700000000E+01 0. -1.
<mgrwt>
<rscale>  0 0.54125201E+01</rscale>
<asrwt>0</asrwt>
<pdfrwt beam="1">0</pdfrwt>
<pdfrwt beam="2">0</pdfrwt>
<totfact> 0.32454744E+11</totfact>
</mgrwt>
</event>
<event>
 4    1  0.1838758E+006  0.2056690E+01  0.7546771E-02  0.2943482E+00
         22   -1    0    0    0    0  0.00000000000E+00  0.00000000000E+00  0.12424067411E+01  0.12424067411E+01  0.00000000000E+00 0.  1.
         22   -1    0    0    0    0 -0.00000000000E+00 -0.00000000000E+00 -0.62965975554E+01  0.62965975554E+01  0.00000000000E+00 0.  1.
          4    1    1    2  501    0 -0.16090858995E+01 -0.16708169943E+00  0.27519314137E-01  0.20568740941E+01  0.12700000000E+01 0.  1.
         -4    1    1    2    0  501  0.16090858995E+01  0.16708169943E+00 -0.50817101285E+01  0.54821302024E+01  0.12700000000E+01 0.  1.
<mgrwt>
<rscale>  0 0.20566900E+01</rscale>
<asrwt>0</asrwt>
<pdfrwt beam="1">0</pdfrwt>
<pdfrwt beam="2">0</pdfrwt>
<totfact> 0.21575021E+12</totfact>
</mgrwt>
</event>
<event>
 4    1  0.1838758E+006  0.2061669E+01  0.7546771E-02  0.2940306E+00
         22   -1    0    0    0    0  0.00000000000E+00  0.00000000000E+00  0.14316869325E+01  0.14316869325E+01  0.00000000000E+00 0.  1.
         22   -1    0    0    0    0 -0.00000000000E+00 -0.00000000000E+00 -0.53698365749E+01  0.53698365749E+01  0.00000000000E+00 0. -1.
          4    1    1    2  501    0  0.67006337975E+00 -0.14793897630E+01  0.30492054656E+00  0.20840958575E+01  0.12700000000E+01 0.  1.
         -4    1    1    2    0  501 -0.67006337975E+00  0.14793897630E+01 -0.42430701889E+01  0.47174276498E+01  0.12700000000E+01 0. -1.
<mgrwt>
<rscale>  0 0.20616690E+01</rscale>
<asrwt>0</asrwt>
<pdfrwt beam="1">0</pdfrwt>
<pdfrwt beam="2">0</pdfrwt>
<totfact> 0.22155660E+12</totfact>
</mgrwt>
</event>
<event>
 4    1  0.1838758E+006  0.2263912E+01  0.7546771E-02  0.2822749E+00
         22   -1    0    0    0    0  0.00000000000E+00  0.00000000000E+00  0.71882350887E+00  0.71882350887E+00  0.00000000000E+00 0.  1.
         22   -1    0    0    0    0 -0.00000000000E+00 -0.00000000000E+00 -0.94072221632E+01  0.94072221632E+01  0.00000000000E+00 0. -1.
          4    1    1    2  501    0 -0.34873735769E+00  0.18414073783E+01 -0.18532189227E+01  0.29256997886E+01  0.12700000000E+01 0.  1.
         -4    1    1    2    0  501  0.34873735769E+00 -0.18414073783E+01 -0.68351797317E+01  0.72003458835E+01  0.12700000000E+01 0. -1.
<mgrwt>
<rscale>  0 0.22639123E+01</rscale>
<asrwt>0</asrwt>
<pdfrwt beam="1">0</pdfrwt>
<pdfrwt beam="2">0</pdfrwt>
<totfact> 0.24881469E+12</totfact>
</mgrwt>
</event>
<event>
 4    1  0.1838758E+006  0.2502665E+01  0.7546771E-02  0.2707356E+00
         22   -1    0    0    0    0  0.00000000000E+00  0.00000000000E+00  0.18124021963E+01  0.18124021963E+01  0.00000000000E+00 0. -1.
         22   -1    0    0    0    0 -0.00000000000E+00 -0.00000000000E+00 -0.80106275440E+01  0.80106275440E+01  0.00000000000E+00 0.  1.
          4    1    1    2  501    0  0.21459775049E+01  0.21262911638E+00  0.60442993034E+00  0.25746196094E+01  0.12700000000E+01 0. -1.
         -4    1    1    2    0  501 -0.21459775049E+01 -0.21262911638E+00 -0.68026552781E+01  0.72484101308E+01  0.12700000000E+01 0.  1.
<mgrwt>
<rscale>  0 0.25026647E+01</rscale>
<asrwt>0</asrwt>
<pdfrwt beam="1">0</pdfrwt>
<pdfrwt beam="2">0</pdfrwt>
<totfact> 0.10474957E+12</totfact>
</mgrwt>
</event>
<event>
 4    1  0.1838758E+006  0.2285828E+01  0.7546771E-02  0.2811209E+00
         22   -1    0    0    0    0  0.00000000000E+00  0.00000000000E+00  0.16108649554E+01  0.16108649554E+01  0.00000000000E+00 0.  1.
         22   -1    0    0    0    0 -0.00000000000E+00 -0.00000000000E+00 -0.43723414793E+01  0.43723414793E+01  0.00000000000E+00 0.  1.
          4    1    1    2  501    0 -0.18027961828E+01  0.60169483870E+00  0.13926003212E+00  0.22900663991E+01  0.12700000000E+01 0.  1.
         -4    1    1    2    0  501  0.18027961828E+01 -0.60169483870E+00 -0.29007365560E+01  0.36931400357E+01  0.12700000000E+01 0.  1.
<mgrwt>
<rscale>  0 0.22858282E+01</rscale>
<asrwt>0</asrwt>
<pdfrwt beam="1">0</pdfrwt>
<pdfrwt beam="2">0</pdfrwt>
<totfact> 0.24668553E+12</totfact>
</mgrwt>
</event>
<event>
 4    1  0.1838758E+006  0.2021621E+01  0.7546771E-02  0.2966282E+00
         22   -1    0    0    0    0  0.00000000000E+00  0.00000000000E+00  0.15223713176E+01  0.15223713176E+01  0.00000000000E+00 0.  1.
         22   -1    0    0    0    0 -0.00000000000E+00 -0.00000000000E+00 -0.27695710859E+01  0.27695710859E+01  0.00000000000E+00 0. -1.
          4    1    1    2  501    0  0.12531686316E+01  0.95058942235E+00 -0.24770745988E+00  0.20367402522E+01  0.12700000000E+01 0.  1.
         -4    1    1    2    0  501 -0.12531686316E+01 -0.95058942235E+00 -0.99949230839E+00  0.22552021514E+01  0.12700000000E+01 0. -1.
<mgrwt>
<rscale>  0 0.20216211E+01</rscale>
<asrwt>0</asrwt>
<pdfrwt beam="1">0</pdfrwt>
<pdfrwt beam="2">0</pdfrwt>
<totfact> 0.44967836E+12</totfact>
</mgrwt>
</event>
<event>
 4    1  0.1838758E+006  0.2564027E+01  0.7546771E-02  0.2680958E+00
         22   -1    0    0    0    0  0.00000000000E+00  0.00000000000E+00  0.33348294350E+02  0.33348294350E+02  0.00000000000E+00 0.  1.
         22   -1    0    0    0    0 -0.00000000000E+00 -0.00000000000E+00 -0.24363322716E+00  0.24363322716E+00  0.00000000000E+00 0.  1.
          4    1    1    2  501    0 -0.14940471483E+01  0.16520168790E+01  0.23889659222E+02  0.24026861102E+02  0.12700000000E+01 0.  1.
         -4    1    1    2    0  501  0.14940471483E+01 -0.16520168790E+01  0.92150019003E+01  0.95650664750E+01  0.12700000000E+01 0.  1.
<mgrwt>
<rscale>  0 0.25640274E+01</rscale>
<asrwt>0</asrwt>
<pdfrwt beam="1">0</pdfrwt>
<pdfrwt beam="2">0</pdfrwt>
<totfact> 0.17490733E+12</totfact>
</mgrwt>
</event>
<event>
 4    1  0.1838758E+006  0.2171880E+01  0.7546771E-02  0.2873631E+00
         22   -1    0    0    0    0  0.00000000000E+00  0.00000000000E+00  0.59519129075E+01  0.59519129075E+01  0.00000000000E+00 0.  1.
         22   -1    0    0    0    0 -0.00000000000E+00 -0.00000000000E+00 -0.17860600352E+01  0.17860600352E+01  0.00000000000E+00 0.  1.
          4    1    1    2  501    0 -0.13073808196E+01  0.11810661293E+01 -0.80269907505E+00  0.23154670403E+01  0.12700000000E+01 0.  1.
         -4    1    1    2    0  501  0.13073808196E+01 -0.11810661293E+01  0.49685519473E+01  0.54225059025E+01  0.12700000000E+01 0.  1.
<mgrwt>
<rscale>  0 0.21718798E+01</rscale>
<asrwt>0</asrwt>
<pdfrwt beam="1">0</pdfrwt>
<pdfrwt beam="2">0</pdfrwt>
<totfact> 0.15196005E+12</totfact>
</mgrwt>
</event>
<event>
 4    1  0.1838758E+006  0.6030015E+01  0.7546771E-02  0.2017006E+00
         22   -1    0    0    0    0  0.00000000000E+00  0.00000000000E+00  0.14956709874E+02  0.14956709874E+02  0.00000000000E+00 0. -1.
         22   -1    0    0    0    0 -0.00000000000E+00 -0.00000000000E+00 -0.26001030087E+01  0.26001030087E+01  0.00000000000E+00 0.  1.
          4    1    1    2  501    0 -0.23727986021E+01 -0.53961109659E+01  0.84164178355E+01  0.10353606905E+02  0.12700000000E+01 0. -1.
         -4    1    1    2    0  501  0.23727986021E+01  0.53961109659E+01  0.39401890295E+01  0.72032059773E+01  0.12700000000E+01 0.  1.
<mgrwt>
<rscale>  0 0.60300155E+01</rscale>
<asrwt>0</asrwt>
<pdfrwt beam="1">0</pdfrwt>
<pdfrwt beam="2">0</pdfrwt>
<totfact> 0.32274939E+11</totfact>
</mgrwt>
</event>
<event>
 4    1  0.1838758E+006  0.3433405E+01  0.7546771E-02  0.2400742E+00
         22   -1    0    0    0    0  0.00000000000E+00  0.00000000000E+00  0.55070213372E+01  0.55070213372E+01  0.00000000000E+00 0.  1.
         22   -1    0    0    0    0 -0.00000000000E+00 -0.00000000000E+00 -0.21625690006E+01  0.21625690006E+01  0.00000000000E+00 0. -1.
          4    1    1    2  501    0 -0.28853349002E+01 -0.13602239664E+01  0.12856138843E+01  0.36662064569E+01  0.12700000000E+01 0.  1.
         -4    1    1    2    0  501  0.28853349002E+01  0.13602239664E+01  0.20588384523E+01  0.40033838809E+01  0.12700000000E+01 0. -1.
<mgrwt>
<rscale>  0 0.34334045E+01</rscale>
<asrwt>0</asrwt>
<pdfrwt beam="1">0</pdfrwt>
<pdfrwt beam="2">0</pdfrwt>
<totfact> 0.13358221E+12</totfact>
</mgrwt>
</event>
<event>
 4    1  0.1838758E+006  0.3601266E+01  0.7546771E-02  0.2360676E+00
         22   -1    0    0    0    0  0.00000000000E+00  0.00000000000E+00  0.67614035510E+01  0.67614035510E+01  0.00000000000E+00 0. -1.
         22   -1    0    0    0    0 -0.00000000000E+00 -0.00000000000E+00 -0.23518651851E+01  0.23518651851E+01  0.00000000000E+00 0.  1.
          4    1    1    2  501    0 -0.24247235085E+01 -0.23402854317E+01  0.41616302663E+01  0.55034794874E+01  0.12700000000E+01 0. -1.
         -4    1    1    2    0  501  0.24247235085E+01  0.23402854317E+01  0.24790809951E+00  0.36097892487E+01  0.12700000000E+01 0.  1.
<mgrwt>
<rscale>  0 0.36012664E+01</rscale>
<asrwt>0</asrwt>
<pdfrwt beam="1">0</pdfrwt>
<pdfrwt beam="2">0</pdfrwt>
<totfact> 0.94910408E+11</totfact>
</mgrwt>
</event>
<event>
 4    1  0.1838758E+006  0.2151491E+01  0.7546771E-02  0.2885468E+00
         22   -1    0    0    0    0  0.00000000000E+00  0.00000000000E+00  0.23771850976E+02  0.23771850976E+02  0.00000000000E+00 0.  1.
         22   -1    0    0    0    0 -0.00000000000E+00 -0.00000000000E+00 -0.20852595727E+00  0.20852595727E+00  0.00000000000E+00 0.  1.
          4    1    1    2  501    0  0.79704513751E+00  0.15429625631E+01  0.14866553146E+02  0.15021428589E+02  0.12700000000E+01 0.  1.
         -4    1    1    2    0  501 -0.79704513751E+00 -0.15429625631E+01  0.86967718722E+01  0.89589483434E+01  0.12700000000E+01 0.  1.
<mgrwt>
<rscale>  0 0.21514912E+01</rscale>
<asrwt>0</asrwt>
<pdfrwt beam="1">0</pdfrwt>
<pdfrwt beam="2">0</pdfrwt>
<totfact> 0.31986495E+12</totfact>
</mgrwt>
</event>
<event>
 4    1  0.1838758E+006  0.4105254E+01  0.7546771E-02  0.2257615E+00
         22   -1    0    0    0    0  0.00000000000E+00  0.00000000000E+00  0.80590457344E+00  0.80590457344E+00  0.00000000000E+00 0. -1.
         22   -1    0    0    0    0 -0.00000000000E+00 -0.00000000000E+00 -0.50763411558E+02  0.50763411558E+02  0.00000000000E+00 0. -1.
          4    1    1    2  501    0  0.31058622776E+01  0.23651270412E+01 -0.52059549524E+01  0.66298622440E+01  0.12700000000E+01 0. -1.
         -4    1    1    2    0  501 -0.31058622776E+01 -0.23651270412E+01 -0.44751552032E+02  0.44939453887E+02  0.12700000000E+01 0. -1.
<mgrwt>
<rscale>  0 0.41052535E+01</rscale>
<asrwt>0</asrwt>
<pdfrwt beam="1">0</pdfrwt>
<pdfrwt beam="2">0</pdfrwt>
<totfact> 0.26283166E+11</totfact>
</mgrwt>
</event>
<event>
 4    1  0.1838758E+006  0.2431188E+01  0.7546771E-02  0.2739667E+00
         22   -1    0    0    0    0  0.00000000000E+00  0.00000000000E+00  0.10320202502E+01  0.10320202502E+01  0.00000000000E+00 0. -1.
         22   -1    0    0    0    0 -0.00000000000E+00 -0.00000000000E+00 -0.10744317157E+02  0.10744317157E+02  0.00000000000E+00 0.  1.
          4    1    1    2  501    0 -0.44805454316E+00  0.20241101967E+01 -0.83255362810E+00  0.25697899731E+01  0.12700000000E+01 0.  1.
         -4    1    1    2    0  501  0.44805454316E+00 -0.20241101967E+01 -0.88797432790E+01  0.92065474344E+01  0.12700000000E+01 0.  1.
<mgrwt>
<rscale>  0 0.24311880E+01</rscale>
<asrwt>0</asrwt>
<pdfrwt beam="1">0</pdfrwt>
<pdfrwt beam="2">0</pdfrwt>
<totfact> 0.14030604E+12</totfact>
</mgrwt>
</event>
<event>
 4    1  0.1838758E+006  0.2567934E+01  0.7546771E-02  0.2679317E+00
         22   -1    0    0    0    0  0.00000000000E+00  0.00000000000E+00  0.40253582343E+01  0.40253582343E+01  0.00000000000E+00 0.  1.
         22   -1    0    0    0    0 -0.00000000000E+00 -0.00000000000E+00 -0.17677221035E+01  0.17677221035E+01  0.00000000000E+00 0. -1.
          4    1    1    2  501    0 -0.15071409897E+01 -0.16461814860E+01  0.19129103218E+01  0.32021107643E+01  0.12700000000E+01 0. -1.
         -4    1    1    2    0  501  0.15071409897E+01  0.16461814860E+01  0.34472580895E+00  0.25909695735E+01  0.12700000000E+01 0. -1.
<mgrwt>
<rscale>  0 0.25679345E+01</rscale>
<asrwt>0</asrwt>
<pdfrwt beam="1">0</pdfrwt>
<pdfrwt beam="2">0</pdfrwt>
<totfact> 0.24429974E+12</totfact>
</mgrwt>
</event>
<event>
 4    1  0.1838758E+006  0.3256980E+01  0.7546771E-02  0.2446721E+00
         22   -1    0    0    0    0  0.00000000000E+00  0.00000000000E+00  0.22970328696E+02  0.22970328696E+02  0.00000000000E+00 0.  1.
         22   -1    0    0    0    0 -0.00000000000E+00 -0.00000000000E+00 -0.46855037019E+00  0.46855037019E+00  0.00000000000E+00 0. -1.
          4    1    1    2  501    0 -0.24571512201E+01 -0.17197164069E+01  0.98452113163E+01  0.10369961548E+02  0.12700000000E+01 0. -1.
         -4    1    1    2    0  501  0.24571512201E+01  0.17197164069E+01  0.12656567010E+02  0.13068917519E+02  0.12700000000E+01 0.  1.
<mgrwt>
<rscale>  0 0.32569797E+01</rscale>
<asrwt>0</asrwt>
<pdfrwt beam="1">0</pdfrwt>
<pdfrwt beam="2">0</pdfrwt>
<totfact> 0.13466468E+12</totfact>
</mgrwt>
</event>
<event>
 4    1  0.1838758E+006  0.3659951E+01  0.7546771E-02  0.2347425E+00
         22   -1    0    0    0    0  0.00000000000E+00  0.00000000000E+00  0.68713947705E+01  0.68713947705E+01  0.00000000000E+00 0.  1.
         22   -1    0    0    0    0 -0.00000000000E+00 -0.00000000000E+00 -0.39704855332E+01  0.39704855332E+01  0.00000000000E+00 0. -1.
          4    1    1    2  501    0 -0.29060843715E+01 -0.18267505587E+01  0.53180661967E+01  0.64557781909E+01  0.12700000000E+01 0.  1.
         -4    1    1    2    0  501  0.29060843715E+01  0.18267505587E+01 -0.24171569594E+01  0.43861021128E+01  0.12700000000E+01 0. -1.
<mgrwt>
<rscale>  0 0.36599514E+01</rscale>
<asrwt>0</asrwt>
<pdfrwt beam="1">0</pdfrwt>
<pdfrwt beam="2">0</pdfrwt>
<totfact> 0.50479126E+11</totfact>
</mgrwt>
</event>
<event>
 4    1  0.1838758E+006  0.4385134E+01  0.7546771E-02  0.2209212E+00
         22   -1    0    0    0    0  0.00000000000E+00  0.00000000000E+00  0.11919191025E+02  0.11919191025E+02  0.00000000000E+00 0.  1.
         22   -1    0    0    0    0 -0.00000000000E+00 -0.00000000000E+00 -0.43957162012E+01  0.43957162012E+01  0.00000000000E+00 0. -1.
          4    1    1    2  501    0  0.95698964853E+00  0.40866452110E+01  0.10251812789E+02  0.11150294334E+02  0.12700000000E+01 0.  1.
         -4    1    1    2    0  501 -0.95698964853E+00 -0.40866452110E+01 -0.27283379657E+01  0.51646128919E+01  0.12700000000E+01 0. -1.
<mgrwt>
<rscale>  0 0.43851338E+01</rscale>
<asrwt>0</asrwt>
<pdfrwt beam="1">0</pdfrwt>
<pdfrwt beam="2">0</pdfrwt>
<totfact> 0.23035344E+11</totfact>
</mgrwt>
</event>
<event>
 4    1  0.1838758E+006  0.4561700E+01  0.7546771E-02  0.2181268E+00
         22   -1    0    0    0    0  0.00000000000E+00  0.00000000000E+00  0.28164690477E+01  0.28164690477E+01  0.00000000000E+00 0. -1.
         22   -1    0    0    0    0 -0.00000000000E+00 -0.00000000000E+00 -0.13698535949E+02  0.13698535949E+02  0.00000000000E+00 0.  1.
          4    1    1    2  501    0  0.32204297214E+01  0.29706962374E+01  0.16340585314E+00  0.45646254171E+01  0.12700000000E+01 0. -1.
         -4    1    1    2    0  501 -0.32204297214E+01 -0.29706962374E+01 -0.11045472754E+02  0.11950379580E+02  0.12700000000E+01 0.  1.
<mgrwt>
<rscale>  0 0.45616997E+01</rscale>
<asrwt>0</asrwt>
<pdfrwt beam="1">0</pdfrwt>
<pdfrwt beam="2">0</pdfrwt>
<totfact> 0.32755204E+11</totfact>
</mgrwt>
</event>
<event>
 4    1  0.1838758E+006  0.2686122E+01  0.7546771E-02  0.2631758E+00
         22   -1    0    0    0    0  0.00000000000E+00  0.00000000000E+00  0.40561242037E+02  0.40561242037E+02  0.00000000000E+00 0. -1.
         22   -1    0    0    0    0 -0.00000000000E+00 -0.00000000000E+00 -0.31620229752E+00  0.31620229752E+00  0.00000000000E+00 0.  1.
          4    1    1    2  501    0  0.80029265058E+00  0.22275279676E+01  0.33640412359E+02  0.33747482763E+02  0.12700000000E+01 0. -1.
         -4    1    1    2    0  501 -0.80029265058E+00 -0.22275279676E+01  0.66046273807E+01  0.71299615714E+01  0.12700000000E+01 0.  1.
<mgrwt>
<rscale>  0 0.26861216E+01</rscale>
<asrwt>0</asrwt>
<pdfrwt beam="1">0</pdfrwt>
<pdfrwt beam="2">0</pdfrwt>
<totfact> 0.10144414E+12</totfact>
</mgrwt>
</event>
<event>
 4    1  0.1838758E+006  0.2001263E+01  0.7546771E-02  0.2979877E+00
         22   -1    0    0    0    0  0.00000000000E+00  0.00000000000E+00  0.86311155439E+01  0.86311155439E+01  0.00000000000E+00 0.  1.
         22   -1    0    0    0    0 -0.00000000000E+00 -0.00000000000E+00 -0.79989814403E+00  0.79989814403E+00  0.00000000000E+00 0.  1.
          4    1    1    2  501    0  0.15385653397E+01  0.15801556029E+00  0.69712246074E+01  0.72527942717E+01  0.12700000000E+01 0.  1.
         -4    1    1    2    0  501 -0.15385653397E+01 -0.15801556029E+00  0.85999279254E+00  0.21782194162E+01  0.12700000000E+01 0.  1.
<mgrwt>
<rscale>  0 0.20012627E+01</rscale>
<asrwt>0</asrwt>
<pdfrwt beam="1">0</pdfrwt>
<pdfrwt beam="2">0</pdfrwt>
<totfact> 0.24445830E+12</totfact>
</mgrwt>
</event>
<event>
 4    1  0.1838758E+006  0.3183744E+01  0.7546771E-02  0.2467121E+00
         22   -1    0    0    0    0  0.00000000000E+00  0.00000000000E+00  0.25350650522E+01  0.25350650522E+01  0.00000000000E+00 0. -1.
         22   -1    0    0    0    0 -0.00000000000E+00 -0.00000000000E+00 -0.83736935573E+01  0.83736935573E+01  0.00000000000E+00 0.  1.
          4    1    1    2  501    0 -0.29169389279E+01 -0.12163126699E+00  0.10233514695E+01  0.33441703163E+01  0.12700000000E+01 0. -1.
         -4    1    1    2    0  501  0.29169389279E+01  0.12163126699E+00 -0.68619799746E+01  0.75645882932E+01  0.12700000000E+01 0.  1.
<mgrwt>
<rscale>  0 0.31837442E+01</rscale>
<asrwt>0</asrwt>
<pdfrwt beam="1">0</pdfrwt>
<pdfrwt beam="2">0</pdfrwt>
<totfact> 0.67309656E+11</totfact>
</mgrwt>
</event>
<event>
 4    1  0.1838758E+006  0.2749582E+01  0.7546771E-02  0.2607774E+00
         22   -1    0    0    0    0  0.00000000000E+00  0.00000000000E+00  0.52638416375E+02  0.52638416375E+02  0.00000000000E+00 0. -1.
         22   -1    0    0    0    0 -0.00000000000E+00 -0.00000000000E+00 -0.20926887288E+01  0.20926887288E+01  0.00000000000E+00 0.  1.
          4    1    1    2  501    0 -0.76774283831E+00 -0.23147075143E+01  0.51682651407E+02  0.51755740323E+02  0.12700000000E+01 0. -1.
         -4    1    1    2    0  501  0.76774283831E+00  0.23147075143E+01 -0.11369237604E+01  0.29753647809E+01  0.12700000000E+01 0.  1.
<mgrwt>
<rscale>  0 0.27495818E+01</rscale>
<asrwt>0</asrwt>
<pdfrwt beam="1">0</pdfrwt>
<pdfrwt beam="2">0</pdfrwt>
<totfact> 0.83795643E+10</totfact>
</mgrwt>
</event>
<event>
 4    1  0.1838758E+006  0.2260420E+01  0.7546771E-02  0.2824607E+00
         22   -1    0    0    0    0  0.00000000000E+00  0.00000000000E+00  0.16698545213E+02  0.16698545213E+02  0.00000000000E+00 0.  1.
         22   -1    0    0    0    0 -0.00000000000E+00 -0.00000000000E+00 -0.45840298448E+00  0.45840298448E+00  0.00000000000E+00 0. -1.
          4    1    1    2  501    0 -0.11435540790E+01 -0.14794878481E+01  0.13066648252E+02  0.13260723840E+02  0.12700000000E+01 0.  1.
         -4    1    1    2    0  501  0.11435540790E+01  0.14794878481E+01  0.31734939773E+01  0.38962243580E+01  0.12700000000E+01 0. -1.
<mgrwt>
<rscale>  0 0.22604204E+01</rscale>
<asrwt>0</asrwt>
<pdfrwt beam="1">0</pdfrwt>
<pdfrwt beam="2">0</pdfrwt>
<totfact> 0.20534694E+12</totfact>
</mgrwt>
</event>
<event>
 4    1  0.1838758E+006  0.2238543E+01  0.7546771E-02  0.2836376E+00
         22   -1    0    0    0    0  0.00000000000E+00  0.00000000000E+00  0.14370593569E+01  0.14370593569E+01  0.00000000000E+00 0. -1.
         22   -1    0    0    0    0 -0.00000000000E+00 -0.00000000000E+00 -0.73188262876E+01  0.73188262876E+01  0.00000000000E+00 0. -1.
          4    1    1    2  501    0 -0.16763152564E+01 -0.76690464109E+00  0.22686227988E+00  0.22500093470E+01  0.12700000000E+01 0. -1.
         -4    1    1    2    0  501  0.16763152564E+01  0.76690464109E+00 -0.61086292105E+01  0.65058762976E+01  0.12700000000E+01 0. -1.
<mgrwt>
<rscale>  0 0.22385432E+01</rscale>
<asrwt>0</asrwt>
<pdfrwt beam="1">0</pdfrwt>
<pdfrwt beam="2">0</pdfrwt>
<totfact> 0.15251967E+12</totfact>
</mgrwt>
</event>
<event>
 4    1  0.1838758E+006  0.7198027E+01  0.7546771E-02  0.1926420E+00
         22   -1    0    0    0    0  0.00000000000E+00  0.00000000000E+00  0.18506004224E+02  0.18506004224E+02  0.00000000000E+00 0.  1.
         22   -1    0    0    0    0 -0.00000000000E+00 -0.00000000000E+00 -0.15752352433E+02  0.15752352433E+02  0.00000000000E+00 0. -1.
          4    1    1    2  501    0  0.67329282669E+01  0.22059835021E+01  0.16909380222E+02  0.18377669214E+02  0.12700000000E+01 0.  1.
         -4    1    1    2    0  501 -0.67329282669E+01 -0.22059835021E+01 -0.14155728431E+02  0.15880687443E+02  0.12700000000E+01 0. -1.
<mgrwt>
<rscale>  0 0.71980266E+01</rscale>
<asrwt>0</asrwt>
<pdfrwt beam="1">0</pdfrwt>
<pdfrwt beam="2">0</pdfrwt>
<totfact> 0.28829643E+10</totfact>
</mgrwt>
</event>
<event>
 4    1  0.1838758E+006  0.2063530E+01  0.7546771E-02  0.2939123E+00
         22   -1    0    0    0    0  0.00000000000E+00  0.00000000000E+00  0.16508603677E+00  0.16508603677E+00  0.00000000000E+00 0.  1.
         22   -1    0    0    0    0 -0.00000000000E+00 -0.00000000000E+00 -0.26823271207E+02  0.26823271207E+02  0.00000000000E+00 0.  1.
          4    1    1    2  501    0 -0.91962302033E+00  0.13414723037E+01 -0.15973029294E+02  0.16105769751E+02  0.12700000000E+01 0.  1.
         -4    1    1    2    0  501  0.91962302033E+00 -0.13414723037E+01 -0.10685155876E+02  0.10882587492E+02  0.12700000000E+01 0.  1.
<mgrwt>
<rscale>  0 0.20635296E+01</rscale>
<asrwt>0</asrwt>
<pdfrwt beam="1">0</pdfrwt>
<pdfrwt beam="2">0</pdfrwt>
<totfact> 0.35631401E+12</totfact>
</mgrwt>
</event>
<event>
 4    1  0.1838758E+006  0.3247540E+01  0.7546771E-02  0.2449305E+00
         22   -1    0    0    0    0  0.00000000000E+00  0.00000000000E+00  0.95184897296E+01  0.95184897296E+01  0.00000000000E+00 0. -1.
         22   -1    0    0    0    0 -0.00000000000E+00 -0.00000000000E+00 -0.12733101253E+01  0.12733101253E+01  0.00000000000E+00 0.  1.
          4    1    1    2  501    0  0.25551671246E+01  0.15507209813E+01  0.60667974945E+01  0.68813186553E+01  0.12700000000E+01 0. -1.
         -4    1    1    2    0  501 -0.25551671246E+01 -0.15507209813E+01  0.21783821098E+01  0.39104811996E+01  0.12700000000E+01 0.  1.
<mgrwt>
<rscale>  0 0.32475398E+01</rscale>
<asrwt>0</asrwt>
<pdfrwt beam="1">0</pdfrwt>
<pdfrwt beam="2">0</pdfrwt>
<totfact> 0.12775186E+12</totfact>
</mgrwt>
</event>
<event>
 4    1  0.1838758E+006  0.2701801E+01  0.7546771E-02  0.2625737E+00
         22   -1    0    0    0    0  0.00000000000E+00  0.00000000000E+00  0.20837747594E+01  0.20837747594E+01  0.00000000000E+00 0.  1.
         22   -1    0    0    0    0 -0.00000000000E+00 -0.00000000000E+00 -0.36149232498E+01  0.36149232498E+01  0.00000000000E+00 0. -1.
          4    1    1    2  501    0  0.21644529584E+01 -0.10009850040E+01 -0.12666573466E+01  0.29839819739E+01  0.12700000000E+01 0. -1.
         -4    1    1    2    0  501 -0.21644529584E+01  0.10009850040E+01 -0.26449114383E+00  0.27147160353E+01  0.12700000000E+01 0. -1.
<mgrwt>
<rscale>  0 0.27018008E+01</rscale>
<asrwt>0</asrwt>
<pdfrwt beam="1">0</pdfrwt>
<pdfrwt beam="2">0</pdfrwt>
<totfact> 0.22919503E+12</totfact>
</mgrwt>
</event>
<event>
 4    1  0.1838758E+006  0.2113353E+01  0.7546771E-02  0.2908200E+00
         22   -1    0    0    0    0  0.00000000000E+00  0.00000000000E+00  0.50640620661E+01  0.50640620661E+01  0.00000000000E+00 0. -1.
         22   -1    0    0    0    0 -0.00000000000E+00 -0.00000000000E+00 -0.89052609191E+00  0.89052609191E+00  0.00000000000E+00 0. -1.
          4    1    1    2  501    0  0.83942556217E+00  0.14658525859E+01  0.23789109467E+01  0.31820553688E+01  0.12700000000E+01 0. -1.
         -4    1    1    2    0  501 -0.83942556217E+00 -0.14658525859E+01  0.17946250276E+01  0.27725327893E+01  0.12700000000E+01 0. -1.
<mgrwt>
<rscale>  0 0.21133526E+01</rscale>
<asrwt>0</asrwt>
<pdfrwt beam="1">0</pdfrwt>
<pdfrwt beam="2">0</pdfrwt>
<totfact> 0.40895427E+12</totfact>
</mgrwt>
</event>
<event>
 4    1  0.1838758E+006  0.4333820E+01  0.7546771E-02  0.2217691E+00
         22   -1    0    0    0    0  0.00000000000E+00  0.00000000000E+00  0.14601691671E+02  0.14601691671E+02  0.00000000000E+00 0.  1.
         22   -1    0    0    0    0 -0.00000000000E+00 -0.00000000000E+00 -0.58058308995E+01  0.58058308995E+01  0.00000000000E+00 0. -1.
          4    1    1    2  501    0 -0.20335618227E+01  0.36102247230E+01  0.13400682749E+02  0.14084043964E+02  0.12700000000E+01 0.  1.
         -4    1    1    2    0  501  0.20335618227E+01 -0.36102247230E+01 -0.46048219779E+01  0.63234786063E+01  0.12700000000E+01 0. -1.
<mgrwt>
<rscale>  0 0.43338201E+01</rscale>
<asrwt>0</asrwt>
<pdfrwt beam="1">0</pdfrwt>
<pdfrwt beam="2">0</pdfrwt>
<totfact> 0.12923333E+11</totfact>
</mgrwt>
</event>
<event>
 4    1  0.1838758E+006  0.2569395E+01  0.7546771E-02  0.2678704E+00
         22   -1    0    0    0    0  0.00000000000E+00  0.00000000000E+00  0.22264878706E+01  0.22264878706E+01  0.00000000000E+00 0. -1.
         22   -1    0    0    0    0 -0.00000000000E+00 -0.00000000000E+00 -0.33000915644E+01  0.33000915644E+01  0.00000000000E+00 0.  1.
          4    1    1    2  501    0  0.11788636189E+01  0.18971488065E+01  0.34357884414E+00  0.25922653121E+01  0.12700000000E+01 0. -1.
         -4    1    1    2    0  501 -0.11788636189E+01 -0.18971488065E+01 -0.14171825380E+01  0.29343141229E+01  0.12700000000E+01 0. -1.
<mgrwt>
<rscale>  0 0.25693955E+01</rscale>
<asrwt>0</asrwt>
<pdfrwt beam="1">0</pdfrwt>
<pdfrwt beam="2">0</pdfrwt>
<totfact> 0.23617823E+12</totfact>
</mgrwt>
</event>
<event>
 4    1  0.1838758E+006  0.3207107E+01  0.7546771E-02  0.2460524E+00
         22   -1    0    0    0    0  0.00000000000E+00  0.00000000000E+00  0.14083795139E+01  0.14083795139E+01  0.00000000000E+00 0. -1.
         22   -1    0    0    0    0 -0.00000000000E+00 -0.00000000000E+00 -0.73936272896E+01  0.73936272896E+01  0.00000000000E+00 0. -1.
          4    1    1    2  501    0  0.26339650808E+01  0.13171409166E+01 -0.34796136339E+01  0.47321499641E+01  0.12700000000E+01 0. -1.
         -4    1    1    2    0  501 -0.26339650808E+01 -0.13171409166E+01 -0.25056341418E+01  0.40698568395E+01  0.12700000000E+01 0. -1.
<mgrwt>
<rscale>  0 0.32071065E+01</rscale>
<asrwt>0</asrwt>
<pdfrwt beam="1">0</pdfrwt>
<pdfrwt beam="2">0</pdfrwt>
<totfact> 0.15421382E+12</totfact>
</mgrwt>
</event>
<event>
 4    1  0.1838758E+006  0.2363141E+01  0.7546771E-02  0.2772125E+00
         22   -1    0    0    0    0  0.00000000000E+00  0.00000000000E+00  0.24547696744E+01  0.24547696744E+01  0.00000000000E+00 0.  1.
         22   -1    0    0    0    0 -0.00000000000E+00 -0.00000000000E+00 -0.26482167672E+01  0.26482167672E+01  0.00000000000E+00 0. -1.
          4    1    1    2  501    0 -0.16234697905E+01 -0.11558024811E+01  0.86121559166E+00  0.25151790853E+01  0.12700000000E+01 0.  1.
         -4    1    1    2    0  501  0.16234697905E+01  0.11558024811E+01 -0.10546626844E+01  0.25878073564E+01  0.12700000000E+01 0. -1.
<mgrwt>
<rscale>  0 0.23631406E+01</rscale>
<asrwt>0</asrwt>
<pdfrwt beam="1">0</pdfrwt>
<pdfrwt beam="2">0</pdfrwt>
<totfact> 0.27265156E+12</totfact>
</mgrwt>
</event>
<event>
 4    1  0.1838758E+006  0.2392165E+01  0.7546771E-02  0.2758068E+00
         22   -1    0    0    0    0  0.00000000000E+00  0.00000000000E+00  0.86758734437E+01  0.86758734437E+01  0.00000000000E+00 0.  1.
         22   -1    0    0    0    0 -0.00000000000E+00 -0.00000000000E+00 -0.11604293529E+01  0.11604293529E+01  0.00000000000E+00 0. -1.
          4    1    1    2  501    0 -0.29517828943E+00 -0.20055976470E+01  0.69887827909E+01  0.73868489251E+01  0.12700000000E+01 0.  1.
         -4    1    1    2    0  501  0.29517828943E+00  0.20055976470E+01  0.52666129988E+00  0.24494538715E+01  0.12700000000E+01 0. -1.
<mgrwt>
<rscale>  0 0.23921647E+01</rscale>
<asrwt>0</asrwt>
<pdfrwt beam="1">0</pdfrwt>
<pdfrwt beam="2">0</pdfrwt>
<totfact> 0.15890233E+12</totfact>
</mgrwt>
</event>
<event>
 4    1  0.1838758E+006  0.4166931E+01  0.7546771E-02  0.2246477E+00
         22   -1    0    0    0    0  0.00000000000E+00  0.00000000000E+00  0.51974606382E+01  0.51974606382E+01  0.00000000000E+00 0. -1.
         22   -1    0    0    0    0 -0.00000000000E+00 -0.00000000000E+00 -0.62353473492E+01  0.62353473492E+01  0.00000000000E+00 0.  1.
          4    1    1    2  501    0  0.24628130196E+01 -0.31120674149E+01  0.33758837582E+01  0.53628260007E+01  0.12700000000E+01 0. -1.
         -4    1    1    2    0  501 -0.24628130196E+01  0.31120674149E+01 -0.44137704692E+01  0.60699819867E+01  0.12700000000E+01 0.  1.
<mgrwt>
<rscale>  0 0.41669307E+01</rscale>
<asrwt>0</asrwt>
<pdfrwt beam="1">0</pdfrwt>
<pdfrwt beam="2">0</pdfrwt>
<totfact> 0.41244563E+11</totfact>
</mgrwt>
</event>
<event>
 4    1  0.1838758E+006  0.2207460E+01  0.7546771E-02  0.2853479E+00
         22   -1    0    0    0    0  0.00000000000E+00  0.00000000000E+00  0.15250651752E+01  0.15250651752E+01  0.00000000000E+00 0. -1.
         22   -1    0    0    0    0 -0.00000000000E+00 -0.00000000000E+00 -0.53969587801E+01  0.53969587801E+01  0.00000000000E+00 0.  1.
          4    1    1    2  501    0 -0.18053731126E+01 -0.24607026320E-01  0.27467327427E+00  0.22244826341E+01  0.12700000000E+01 0. -1.
         -4    1    1    2    0  501  0.18053731126E+01  0.24607026320E-01 -0.41465668791E+01  0.46975413212E+01  0.12700000000E+01 0.  1.
<mgrwt>
<rscale>  0 0.22074595E+01</rscale>
<asrwt>0</asrwt>
<pdfrwt beam="1">0</pdfrwt>
<pdfrwt beam="2">0</pdfrwt>
<totfact> 0.20480489E+12</totfact>
</mgrwt>
</event>
<event>
 4    1  0.1838758E+006  0.2449307E+01  0.7546771E-02  0.2731310E+00
         22   -1    0    0    0    0  0.00000000000E+00  0.00000000000E+00  0.58725699768E+02  0.58725699768E+02  0.00000000000E+00 0.  1.
         22   -1    0    0    0    0 -0.00000000000E+00 -0.00000000000E+00 -0.10602587579E+00  0.10602587579E+00  0.00000000000E+00 0.  1.
          4    1    1    2  501    0  0.19439258123E+01 -0.77933099105E+00  0.34930646937E+02  0.35016413291E+02  0.12700000000E+01 0.  1.
         -4    1    1    2    0  501 -0.19439258123E+01  0.77933099105E+00  0.23689026956E+02  0.23815312353E+02  0.12700000000E+01 0.  1.
<mgrwt>
<rscale>  0 0.24493069E+01</rscale>
<asrwt>0</asrwt>
<pdfrwt beam="1">0</pdfrwt>
<pdfrwt beam="2">0</pdfrwt>
<totfact> 0.21061564E+12</totfact>
</mgrwt>
</event>
<event>
 4    1  0.1838758E+006  0.2155974E+01  0.7546771E-02  0.2882847E+00
         22   -1    0    0    0    0  0.00000000000E+00  0.00000000000E+00  0.86871129831E-01  0.86871129831E-01  0.00000000000E+00 0.  1.
         22   -1    0    0    0    0 -0.00000000000E+00 -0.00000000000E+00 -0.54218338130E+02  0.54218338130E+02  0.00000000000E+00 0.  1.
          4    1    1    2  501    0 -0.15531431423E+01  0.78934823053E+00 -0.23955887980E+02  0.24052708645E+02  0.12700000000E+01 0.  1.
         -4    1    1    2    0  501  0.15531431423E+01 -0.78934823053E+00 -0.30175579020E+02  0.30252500614E+02  0.12700000000E+01 0.  1.
<mgrwt>
<rscale>  0 0.21559741E+01</rscale>
<asrwt>0</asrwt>
<pdfrwt beam="1">0</pdfrwt>
<pdfrwt beam="2">0</pdfrwt>
<totfact> 0.29201226E+12</totfact>
</mgrwt>
</event>
<event>
 4    1  0.1838758E+006  0.3118957E+01  0.7546771E-02  0.2485875E+00
         22   -1    0    0    0    0  0.00000000000E+00  0.00000000000E+00  0.24776663654E+02  0.24776663654E+02  0.00000000000E+00 0. -1.
         22   -1    0    0    0    0 -0.00000000000E+00 -0.00000000000E+00 -0.39583177605E+00  0.39583177605E+00  0.00000000000E+00 0.  1.
          4    1    1    2  501    0 -0.93342356321E+00 -0.26914141705E+01  0.11057217906E+02  0.11488688246E+02  0.12700000000E+01 0. -1.
         -4    1    1    2    0  501  0.93342356321E+00  0.26914141705E+01  0.13323613972E+02  0.13683807184E+02  0.12700000000E+01 0. -1.
<mgrwt>
<rscale>  0 0.31189565E+01</rscale>
<asrwt>0</asrwt>
<pdfrwt beam="1">0</pdfrwt>
<pdfrwt beam="2">0</pdfrwt>
<totfact> 0.14805444E+12</totfact>
</mgrwt>
</event>
<event>
 4    1  0.1838758E+006  0.4146378E+01  0.7546771E-02  0.2250158E+00
         22   -1    0    0    0    0  0.00000000000E+00  0.00000000000E+00  0.12435745803E+02  0.12435745803E+02  0.00000000000E+00 0. -1.
         22   -1    0    0    0    0 -0.00000000000E+00 -0.00000000000E+00 -0.23560350142E+02  0.23560350142E+02  0.00000000000E+00 0.  1.
          4    1    1    2  501    0  0.38558688593E+01 -0.84369838909E+00  0.11899707770E+02  0.12601408519E+02  0.12700000000E+01 0. -1.
         -4    1    1    2    0  501 -0.38558688593E+01  0.84369838909E+00 -0.23024312110E+02  0.23394687426E+02  0.12700000000E+01 0.  1.
<mgrwt>
<rscale>  0 0.41463781E+01</rscale>
<asrwt>0</asrwt>
<pdfrwt beam="1">0</pdfrwt>
<pdfrwt beam="2">0</pdfrwt>
<totfact> 0.28494934E+10</totfact>
</mgrwt>
</event>
<event>
 4    1  0.1838758E+006  0.2321739E+01  0.7546771E-02  0.2792749E+00
         22   -1    0    0    0    0  0.00000000000E+00  0.00000000000E+00  0.65577869481E+00  0.65577869481E+00  0.00000000000E+00 0.  1.
         22   -1    0    0    0    0 -0.00000000000E+00 -0.00000000000E+00 -0.88854087582E+01  0.88854087582E+01  0.00000000000E+00 0.  1.
          4    1    1    2  501    0 -0.19077955076E+01  0.37133454206E+00 -0.28092700729E+01  0.36445125029E+01  0.12700000000E+01 0.  1.
         -4    1    1    2    0  501  0.19077955076E+01 -0.37133454206E+00 -0.54203599905E+01  0.58966749502E+01  0.12700000000E+01 0.  1.
<mgrwt>
<rscale>  0 0.23217392E+01</rscale>
<asrwt>0</asrwt>
<pdfrwt beam="1">0</pdfrwt>
<pdfrwt beam="2">0</pdfrwt>
<totfact> 0.29582263E+12</totfact>
</mgrwt>
</event>
<event>
 4    1  0.1838758E+006  0.2368778E+01  0.7546771E-02  0.2769369E+00
         22   -1    0    0    0    0  0.00000000000E+00  0.00000000000E+00  0.86760652864E+02  0.86760652864E+02  0.00000000000E+00 0. -1.
         22   -1    0    0    0    0 -0.00000000000E+00 -0.00000000000E+00 -0.65122460544E-01  0.65122460544E-01  0.00000000000E+00 0.  1.
          4    1    1    2  501    0 -0.87144819100E+00  0.17996637379E+01  0.46952532454E+02  0.47012247504E+02  0.12700000000E+01 0.  1.
         -4    1    1    2    0  501  0.87144819100E+00 -0.17996637379E+01  0.39742997950E+02  0.39813527821E+02  0.12700000000E+01 0. -1.
<mgrwt>
<rscale>  0 0.23687785E+01</rscale>
<asrwt>0</asrwt>
<pdfrwt beam="1">0</pdfrwt>
<pdfrwt beam="2">0</pdfrwt>
<totfact> 0.21227359E+12</totfact>
</mgrwt>
</event>
<event>
 4    1  0.1838758E+006  0.2617964E+01  0.7546771E-02  0.2658702E+00
         22   -1    0    0    0    0  0.00000000000E+00  0.00000000000E+00  0.46542029687E+00  0.46542029687E+00  0.00000000000E+00 0. -1.
         22   -1    0    0    0    0 -0.00000000000E+00 -0.00000000000E+00 -0.17975258942E+02  0.17975258942E+02  0.00000000000E+00 0.  1.
          4    1    1    2  501    0 -0.15734478196E+01 -0.16628586234E+01 -0.48347249853E+01  0.54980271485E+01  0.12700000000E+01 0. -1.
         -4    1    1    2    0  501  0.15734478196E+01  0.16628586234E+01 -0.12675113660E+02  0.12942652091E+02  0.12700000000E+01 0.  1.
<mgrwt>
<rscale>  0 0.26179643E+01</rscale>
<asrwt>0</asrwt>
<pdfrwt beam="1">0</pdfrwt>
<pdfrwt beam="2">0</pdfrwt>
<totfact> 0.18426135E+12</totfact>
</mgrwt>
</event>
<event>
 4    1  0.1838758E+006  0.4755322E+01  0.7546771E-02  0.2153394E+00
         22   -1    0    0    0    0  0.00000000000E+00  0.00000000000E+00  0.14171762171E+02  0.14171762171E+02  0.00000000000E+00 0.  1.
         22   -1    0    0    0    0 -0.00000000000E+00 -0.00000000000E+00 -0.43161890481E+01  0.43161890481E+01  0.00000000000E+00 0. -1.
          4    1    1    2  501    0 -0.42021900083E+01  0.18280551359E+01  0.12266780469E+02  0.13156252868E+02  0.12700000000E+01 0.  1.
         -4    1    1    2    0  501  0.42021900083E+01 -0.18280551359E+01 -0.24112073459E+01  0.53316983514E+01  0.12700000000E+01 0. -1.
<mgrwt>
<rscale>  0 0.47553219E+01</rscale>
<asrwt>0</asrwt>
<pdfrwt beam="1">0</pdfrwt>
<pdfrwt beam="2">0</pdfrwt>
<totfact> 0.19045214E+11</totfact>
</mgrwt>
</event>
<event>
 4    1  0.1838758E+006  0.3258022E+01  0.7546771E-02  0.2446437E+00
         22   -1    0    0    0    0  0.00000000000E+00  0.00000000000E+00  0.40048120202E+01  0.40048120202E+01  0.00000000000E+00 0. -1.
         22   -1    0    0    0    0 -0.00000000000E+00 -0.00000000000E+00 -0.29657073149E+01  0.29657073149E+01  0.00000000000E+00 0.  1.
          4    1    1    2  501    0 -0.40138156758E+00 -0.29733315053E+01  0.16558109965E+01  0.36546432739E+01  0.12700000000E+01 0. -1.
         -4    1    1    2    0  501  0.40138156758E+00  0.29733315053E+01 -0.61670629124E+00  0.33158760611E+01  0.12700000000E+01 0.  1.
<mgrwt>
<rscale>  0 0.32580220E+01</rscale>
<asrwt>0</asrwt>
<pdfrwt beam="1">0</pdfrwt>
<pdfrwt beam="2">0</pdfrwt>
<totfact> 0.13479076E+12</totfact>
</mgrwt>
</event>
<event>
 4    1  0.1838758E+006  0.2045873E+01  0.7546771E-02  0.2950433E+00
         22   -1    0    0    0    0  0.00000000000E+00  0.00000000000E+00  0.36522392200E+00  0.36522392200E+00  0.00000000000E+00 0.  1.
         22   -1    0    0    0    0 -0.00000000000E+00 -0.00000000000E+00 -0.11472859817E+02  0.11472859817E+02  0.00000000000E+00 0. -1.
          4    1    1    2  501    0 -0.84195607168E+00 -0.13652123238E+01 -0.53583813824E+01  0.57356643691E+01  0.12700000000E+01 0.  1.
         -4    1    1    2    0  501  0.84195607168E+00  0.13652123238E+01 -0.57492545124E+01  0.61024193697E+01  0.12700000000E+01 0.  1.
<mgrwt>
<rscale>  0 0.20458726E+01</rscale>
<asrwt>0</asrwt>
<pdfrwt beam="1">0</pdfrwt>
<pdfrwt beam="2">0</pdfrwt>
<totfact> 0.42026552E+12</totfact>
</mgrwt>
</event>
<event>
 4    1  0.1838758E+006  0.2177296E+01  0.7546771E-02  0.2870522E+00
         22   -1    0    0    0    0  0.00000000000E+00  0.00000000000E+00  0.21589981416E+01  0.21589981416E+01  0.00000000000E+00 0.  1.
         22   -1    0    0    0    0 -0.00000000000E+00 -0.00000000000E+00 -0.27556608470E+01  0.27556608470E+01  0.00000000000E+00 0.  1.
          4    1    1    2  501    0  0.13311515912E+01  0.11643691260E+01  0.80933758717E+00  0.23228532778E+01  0.12700000000E+01 0.  1.
         -4    1    1    2    0  501 -0.13311515912E+01 -0.11643691260E+01 -0.14060002925E+01  0.25918057109E+01  0.12700000000E+01 0.  1.
<mgrwt>
<rscale>  0 0.21772965E+01</rscale>
<asrwt>0</asrwt>
<pdfrwt beam="1">0</pdfrwt>
<pdfrwt beam="2">0</pdfrwt>
<totfact> 0.30213794E+12</totfact>
</mgrwt>
</event>
<event>
 4    1  0.1838758E+006  0.2361825E+01  0.7546771E-02  0.2772770E+00
         22   -1    0    0    0    0  0.00000000000E+00  0.00000000000E+00  0.47151582603E+01  0.47151582603E+01  0.00000000000E+00 0.  1.
         22   -1    0    0    0    0 -0.00000000000E+00 -0.00000000000E+00 -0.12377112048E+01  0.12377112048E+01  0.00000000000E+00 0. -1.
          4    1    1    2  501    0  0.72579850608E+00 -0.18543283290E+01  0.23642839012E+01  0.33418640589E+01  0.12700000000E+01 0. -1.
         -4    1    1    2    0  501 -0.72579850608E+00  0.18543283290E+01  0.11131631544E+01  0.26110054062E+01  0.12700000000E+01 0.  1.
<mgrwt>
<rscale>  0 0.23618249E+01</rscale>
<asrwt>0</asrwt>
<pdfrwt beam="1">0</pdfrwt>
<pdfrwt beam="2">0</pdfrwt>
<totfact> 0.30546645E+12</totfact>
</mgrwt>
</event>
<event>
 4    1  0.1838758E+006  0.2656965E+01  0.7546771E-02  0.2643129E+00
         22   -1    0    0    0    0  0.00000000000E+00  0.00000000000E+00  0.58452350928E+00  0.58452350928E+00  0.00000000000E+00 0. -1.
         22   -1    0    0    0    0 -0.00000000000E+00 -0.00000000000E+00 -0.31141042861E+02  0.31141042861E+02  0.00000000000E+00 0.  1.
          4    1    1    2  501    0 -0.17696735888E+01 -0.15214524138E+01 -0.28669683334E+01  0.39088322403E+01  0.12700000000E+01 0. -1.
         -4    1    1    2    0  501  0.17696735888E+01  0.15214524138E+01 -0.27689551019E+02  0.27816734130E+02  0.12700000000E+01 0.  1.
<mgrwt>
<rscale>  0 0.26569648E+01</rscale>
<asrwt>0</asrwt>
<pdfrwt beam="1">0</pdfrwt>
<pdfrwt beam="2">0</pdfrwt>
<totfact> 0.71345461E+11</totfact>
</mgrwt>
</event>
<event>
 4    1  0.1838758E+006  0.2080814E+01  0.7546771E-02  0.2928232E+00
         22   -1    0    0    0    0  0.00000000000E+00  0.00000000000E+00  0.19906119991E+01  0.19906119991E+01  0.00000000000E+00 0.  1.
         22   -1    0    0    0    0 -0.00000000000E+00 -0.00000000000E+00 -0.23600515678E+01  0.23600515678E+01  0.00000000000E+00 0. -1.
          4    1    1    2  501    0 -0.10445532914E+01  0.12750670470E+01  0.42424111318E+00  0.21236214528E+01  0.12700000000E+01 0.  1.
         -4    1    1    2    0  501  0.10445532914E+01 -0.12750670470E+01 -0.79368068185E+00  0.22270421140E+01  0.12700000000E+01 0. -1.
<mgrwt>
<rscale>  0 0.20808142E+01</rscale>
<asrwt>0</asrwt>
<pdfrwt beam="1">0</pdfrwt>
<pdfrwt beam="2">0</pdfrwt>
<totfact> 0.39752919E+12</totfact>
</mgrwt>
</event>
<event>
 4    1  0.1838758E+006  0.2146970E+01  0.7546771E-02  0.2888122E+00
         22   -1    0    0    0    0  0.00000000000E+00  0.00000000000E+00  0.18969460207E+01  0.18969460207E+01  0.00000000000E+00 0.  1.
         22   -1    0    0    0    0 -0.00000000000E+00 -0.00000000000E+00 -0.32664046580E+01  0.32664046580E+01  0.00000000000E+00 0. -1.
          4    1    1    2  501    0 -0.17088219354E+01 -0.27660312093E+00  0.62170670931E+00  0.22351735784E+01  0.12700000000E+01 0. -1.
         -4    1    1    2    0  501  0.17088219354E+01  0.27660312093E+00 -0.19911653466E+01  0.29281771003E+01  0.12700000000E+01 0. -1.
<mgrwt>
<rscale>  0 0.21469704E+01</rscale>
<asrwt>0</asrwt>
<pdfrwt beam="1">0</pdfrwt>
<pdfrwt beam="2">0</pdfrwt>
<totfact> 0.28773954E+12</totfact>
</mgrwt>
</event>
<event>
 4    1  0.1838758E+006  0.3014185E+01  0.7546771E-02  0.2517716E+00
         22   -1    0    0    0    0  0.00000000000E+00  0.00000000000E+00  0.71670232918E+01  0.71670232918E+01  0.00000000000E+00 0. -1.
         22   -1    0    0    0    0 -0.00000000000E+00 -0.00000000000E+00 -0.13799131724E+01  0.13799131724E+01  0.00000000000E+00 0.  1.
          4    1    1    2  501    0 -0.25753518968E+01  0.91650066202E+00  0.16746661148E+01  0.34481614597E+01  0.12700000000E+01 0.  1.
         -4    1    1    2    0  501  0.25753518968E+01 -0.91650066202E+00  0.41124440045E+01  0.50987750045E+01  0.12700000000E+01 0. -1.
<mgrwt>
<rscale>  0 0.30141849E+01</rscale>
<asrwt>0</asrwt>
<pdfrwt beam="1">0</pdfrwt>
<pdfrwt beam="2">0</pdfrwt>
<totfact> 0.16387098E+12</totfact>
</mgrwt>
</event>
<event>
 4    1  0.1838758E+006  0.3902441E+01  0.7546771E-02  0.2296340E+00
         22   -1    0    0    0    0  0.00000000000E+00  0.00000000000E+00  0.48053907743E+01  0.48053907743E+01  0.00000000000E+00 0. -1.
         22   -1    0    0    0    0 -0.00000000000E+00 -0.00000000000E+00 -0.39827113337E+01  0.39827113337E+01  0.00000000000E+00 0.  1.
          4    1    1    2  501    0 -0.34586957316E+01  0.12859123957E+01  0.23972904184E+01  0.45799615941E+01  0.12700000000E+01 0. -1.
         -4    1    1    2    0  501  0.34586957316E+01 -0.12859123957E+01 -0.15746109778E+01  0.42081405139E+01  0.12700000000E+01 0.  1.
<mgrwt>
<rscale>  0 0.39024411E+01</rscale>
<asrwt>0</asrwt>
<pdfrwt beam="1">0</pdfrwt>
<pdfrwt beam="2">0</pdfrwt>
<totfact> 0.76947990E+11</totfact>
</mgrwt>
</event>
<event>
 4    1  0.1838758E+006  0.3664644E+01  0.7546771E-02  0.2346381E+00
         22   -1    0    0    0    0  0.00000000000E+00  0.00000000000E+00  0.50025804979E+00  0.50025804979E+00  0.00000000000E+00 0. -1.
         22   -1    0    0    0    0 -0.00000000000E+00 -0.00000000000E+00 -0.29150313503E+02  0.29150313503E+02  0.00000000000E+00 0.  1.
          4    1    1    2  501    0  0.29308676568E+01 -0.17963107350E+01 -0.10156231638E+02  0.10797159745E+02  0.12700000000E+01 0.  1.
         -4    1    1    2    0  501 -0.29308676568E+01  0.17963107350E+01 -0.18493823815E+02  0.18853411808E+02  0.12700000000E+01 0. -1.
<mgrwt>
<rscale>  0 0.36646442E+01</rscale>
<asrwt>0</asrwt>
<pdfrwt beam="1">0</pdfrwt>
<pdfrwt beam="2">0</pdfrwt>
<totfact> 0.92551304E+11</totfact>
</mgrwt>
</event>
<event>
 4    1  0.1838758E+006  0.6283436E+01  0.7546771E-02  0.1995164E+00
         22   -1    0    0    0    0  0.00000000000E+00  0.00000000000E+00  0.51267862551E+01  0.51267862551E+01  0.00000000000E+00 0. -1.
         22   -1    0    0    0    0 -0.00000000000E+00 -0.00000000000E+00 -0.15932074897E+02  0.15932074897E+02  0.00000000000E+00 0.  1.
          4    1    1    2  501    0 -0.42183729856E+01 -0.44804012355E+01  0.21656156362E+01  0.66461610694E+01  0.12700000000E+01 0. -1.
         -4    1    1    2    0  501  0.42183729856E+01  0.44804012355E+01 -0.12970904278E+02  0.14412700082E+02  0.12700000000E+01 0.  1.
<mgrwt>
<rscale>  0 0.62834358E+01</rscale>
<asrwt>0</asrwt>
<pdfrwt beam="1">0</pdfrwt>
<pdfrwt beam="2">0</pdfrwt>
<totfact> 0.13454266E+11</totfact>
</mgrwt>
</event>
<event>
 4    1  0.1838758E+006  0.2581421E+01  0.7546771E-02  0.2673687E+00
         22   -1    0    0    0    0  0.00000000000E+00  0.00000000000E+00  0.29575702429E+02  0.29575702429E+02  0.00000000000E+00 0.  1.
         22   -1    0    0    0    0 -0.00000000000E+00 -0.00000000000E+00 -0.81820164572E+00  0.81820164572E+00  0.00000000000E+00 0.  1.
          4    1    1    2  501    0  0.45970428371E+00 -0.21998875571E+01  0.27315154998E+02  0.27436862537E+02  0.12700000000E+01 0.  1.
         -4    1    1    2    0  501 -0.45970428371E+00  0.21998875571E+01  0.14423457850E+01  0.29570415378E+01  0.12700000000E+01 0.  1.
<mgrwt>
<rscale>  0 0.25814208E+01</rscale>
<asrwt>0</asrwt>
<pdfrwt beam="1">0</pdfrwt>
<pdfrwt beam="2">0</pdfrwt>
<totfact> 0.52019205E+11</totfact>
</mgrwt>
</event>
<event>
 4    1  0.1838758E+006  0.3272118E+01  0.7546771E-02  0.2442605E+00
         22   -1    0    0    0    0  0.00000000000E+00  0.00000000000E+00  0.13668661705E+02  0.13668661705E+02  0.00000000000E+00 0.  1.
         22   -1    0    0    0    0 -0.00000000000E+00 -0.00000000000E+00 -0.78446656304E+00  0.78446656304E+00  0.00000000000E+00 0. -1.
          4    1    1    2  501    0  0.29350235677E+01 -0.69245327464E+00  0.67199664816E+01  0.74742694890E+01  0.12700000000E+01 0.  1.
         -4    1    1    2    0  501 -0.29350235677E+01  0.69245327464E+00  0.61642286608E+01  0.69788587794E+01  0.12700000000E+01 0. -1.
<mgrwt>
<rscale>  0 0.32721178E+01</rscale>
<asrwt>0</asrwt>
<pdfrwt beam="1">0</pdfrwt>
<pdfrwt beam="2">0</pdfrwt>
<totfact> 0.14299917E+12</totfact>
</mgrwt>
</event>
<event>
 4    1  0.1838758E+006  0.2005541E+01  0.7546771E-02  0.2976997E+00
         22   -1    0    0    0    0  0.00000000000E+00  0.00000000000E+00  0.21271954802E+00  0.21271954802E+00  0.00000000000E+00 0.  1.
         22   -1    0    0    0    0 -0.00000000000E+00 -0.00000000000E+00 -0.19295734711E+02  0.19295734711E+02  0.00000000000E+00 0.  1.
          4    1    1    2  501    0 -0.15236588223E+01  0.29624386618E+00 -0.81596026116E+01  0.84024586529E+01  0.12700000000E+01 0.  1.
         -4    1    1    2    0  501  0.15236588223E+01 -0.29624386618E+00 -0.10923412552E+02  0.11105995606E+02  0.12700000000E+01 0.  1.
<mgrwt>
<rscale>  0 0.20055415E+01</rscale>
<asrwt>0</asrwt>
<pdfrwt beam="1">0</pdfrwt>
<pdfrwt beam="2">0</pdfrwt>
<totfact> 0.40612683E+12</totfact>
</mgrwt>
</event>
<event>
 4    1  0.1838758E+006  0.3359330E+01  0.7546771E-02  0.2419530E+00
         22   -1    0    0    0    0  0.00000000000E+00  0.00000000000E+00  0.58581471542E+00  0.58581471542E+00  0.00000000000E+00 0. -1.
         22   -1    0    0    0    0 -0.00000000000E+00 -0.00000000000E+00 -0.37849093442E+02  0.37849093442E+02  0.00000000000E+00 0.  1.
          4    1    1    2  501    0 -0.31008931287E+01  0.23803479322E+00 -0.51652489272E+01  0.61615659729E+01  0.12700000000E+01 0. -1.
         -4    1    1    2    0  501  0.31008931287E+01 -0.23803479322E+00 -0.32098029799E+02  0.32273342184E+02  0.12700000000E+01 0.  1.
<mgrwt>
<rscale>  0 0.33593301E+01</rscale>
<asrwt>0</asrwt>
<pdfrwt beam="1">0</pdfrwt>
<pdfrwt beam="2">0</pdfrwt>
<totfact> 0.55388894E+11</totfact>
</mgrwt>
</event>
<event>
 4    1  0.1838758E+006  0.2110330E+01  0.7546771E-02  0.2910036E+00
         22   -1    0    0    0    0  0.00000000000E+00  0.00000000000E+00  0.11433509929E+01  0.11433509929E+01  0.00000000000E+00 0.  1.
         22   -1    0    0    0    0 -0.00000000000E+00 -0.00000000000E+00 -0.43635755626E+01  0.43635755626E+01  0.00000000000E+00 0.  1.
          4    1    1    2  501    0  0.39436637221E+00  0.16386179606E+01 -0.25122866449E+01  0.32810178058E+01  0.12700000000E+01 0.  1.
         -4    1    1    2    0  501 -0.39436637221E+00 -0.16386179606E+01 -0.70793792487E+00  0.22259087496E+01  0.12700000000E+01 0.  1.
<mgrwt>
<rscale>  0 0.21103302E+01</rscale>
<asrwt>0</asrwt>
<pdfrwt beam="1">0</pdfrwt>
<pdfrwt beam="2">0</pdfrwt>
<totfact> 0.36655021E+12</totfact>
</mgrwt>
</event>
<event>
 4    1  0.1838758E+006  0.2850143E+01  0.7546771E-02  0.2571768E+00
         22   -1    0    0    0    0  0.00000000000E+00  0.00000000000E+00  0.30163492068E+01  0.30163492068E+01  0.00000000000E+00 0.  1.
         22   -1    0    0    0    0 -0.00000000000E+00 -0.00000000000E+00 -0.26979523470E+01  0.26979523470E+01  0.00000000000E+00 0. -1.
          4    1    1    2  501    0  0.70026961487E+00 -0.24535769133E+01  0.37976151029E-01  0.28503963568E+01  0.12700000000E+01 0. -1.
         -4    1    1    2    0  501 -0.70026961487E+00  0.24535769133E+01  0.28042070873E+00  0.28639051969E+01  0.12700000000E+01 0.  1.
<mgrwt>
<rscale>  0 0.28501434E+01</rscale>
<asrwt>0</asrwt>
<pdfrwt beam="1">0</pdfrwt>
<pdfrwt beam="2">0</pdfrwt>
<totfact> 0.20985994E+12</totfact>
</mgrwt>
</event>
<event>
 4    1  0.1838758E+006  0.2289797E+01  0.7546771E-02  0.2809142E+00
         22   -1    0    0    0    0  0.00000000000E+00  0.00000000000E+00  0.10548634661E+02  0.10548634661E+02  0.00000000000E+00 0. -1.
         22   -1    0    0    0    0 -0.00000000000E+00 -0.00000000000E+00 -0.50081490968E+00  0.50081490968E+00  0.00000000000E+00 0.  1.
          4    1    1    2  501    0  0.76818513481E-01  0.19037771568E+01  0.55031078519E+01  0.59604835858E+01  0.12700000000E+01 0.  1.
         -4    1    1    2    0  501 -0.76818513481E-01 -0.19037771568E+01  0.45447118996E+01  0.50889659850E+01  0.12700000000E+01 0. -1.
<mgrwt>
<rscale>  0 0.22897966E+01</rscale>
<asrwt>0</asrwt>
<pdfrwt beam="1">0</pdfrwt>
<pdfrwt beam="2">0</pdfrwt>
<totfact> 0.32612513E+12</totfact>
</mgrwt>
</event>
<event>
 4    1  0.1838758E+006  0.7954659E+01  0.7546771E-02  0.1878905E+00
         22   -1    0    0    0    0  0.00000000000E+00  0.00000000000E+00  0.66840157979E+01  0.66840157979E+01  0.00000000000E+00 0.  1.
         22   -1    0    0    0    0 -0.00000000000E+00 -0.00000000000E+00 -0.12101848480E+02  0.12101848480E+02  0.00000000000E+00 0. -1.
          4    1    1    2  501    0 -0.46609823889E+01  0.63197259299E+01  0.16740213374E+01  0.81288953798E+01  0.12700000000E+01 0.  1.
         -4    1    1    2    0  501  0.46609823889E+01 -0.63197259299E+01 -0.70918540191E+01  0.10656968898E+02  0.12700000000E+01 0. -1.
<mgrwt>
<rscale>  0 0.79546586E+01</rscale>
<asrwt>0</asrwt>
<pdfrwt beam="1">0</pdfrwt>
<pdfrwt beam="2">0</pdfrwt>
<totfact> 0.13750603E+11</totfact>
</mgrwt>
</event>
<event>
 4    1  0.1838758E+006  0.2075738E+01  0.7546771E-02  0.2931412E+00
         22   -1    0    0    0    0  0.00000000000E+00  0.00000000000E+00  0.94414908483E+00  0.94414908483E+00  0.00000000000E+00 0.  1.
         22   -1    0    0    0    0 -0.00000000000E+00 -0.00000000000E+00 -0.81498711389E+01  0.81498711389E+01  0.00000000000E+00 0. -1.
          4    1    1    2  501    0 -0.16350190795E+01 -0.15000808957E+00 -0.58656497288E+00  0.21570230144E+01  0.12700000000E+01 0.  1.
         -4    1    1    2    0  501  0.16350190795E+01  0.15000808957E+00 -0.66191570812E+01  0.69369972093E+01  0.12700000000E+01 0. -1.
<mgrwt>
<rscale>  0 0.20757384E+01</rscale>
<asrwt>0</asrwt>
<pdfrwt beam="1">0</pdfrwt>
<pdfrwt beam="2">0</pdfrwt>
<totfact> 0.21685578E+12</totfact>
</mgrwt>
</event>
<event>
 4    1  0.1838758E+006  0.2012245E+01  0.7546771E-02  0.2972510E+00
         22   -1    0    0    0    0  0.00000000000E+00  0.00000000000E+00  0.94720392061E-01  0.94720392061E-01  0.00000000000E+00 0. -1.
         22   -1    0    0    0    0 -0.00000000000E+00 -0.00000000000E+00 -0.44418117938E+02  0.44418117938E+02  0.00000000000E+00 0. -1.
          4    1    1    2  501    0 -0.18294647419E+00 -0.15500834753E+01 -0.26477089581E+02  0.26553444238E+02  0.12700000000E+01 0. -1.
         -4    1    1    2    0  501  0.18294647419E+00  0.15500834753E+01 -0.17846307965E+02  0.17959394092E+02  0.12700000000E+01 0. -1.
<mgrwt>
<rscale>  0 0.20122446E+01</rscale>
<asrwt>0</asrwt>
<pdfrwt beam="1">0</pdfrwt>
<pdfrwt beam="2">0</pdfrwt>
<totfact> 0.34504683E+12</totfact>
</mgrwt>
</event>
<event>
 4    1  0.1838758E+006  0.2424811E+01  0.7546771E-02  0.2742636E+00
         22   -1    0    0    0    0  0.00000000000E+00  0.00000000000E+00  0.14291075323E+01  0.14291075323E+01  0.00000000000E+00 0.  1.
         22   -1    0    0    0    0 -0.00000000000E+00 -0.00000000000E+00 -0.41549727223E+01  0.41549727223E+01  0.00000000000E+00 0. -1.
          4    1    1    2  501    0 -0.15375658031E+01  0.13793834390E+01 -0.16393401930E+01  0.29269683187E+01  0.12700000000E+01 0. -1.
         -4    1    1    2    0  501  0.15375658031E+01 -0.13793834390E+01 -0.10865249971E+01  0.26571119359E+01  0.12700000000E+01 0.  1.
<mgrwt>
<rscale>  0 0.24248108E+01</rscale>
<asrwt>0</asrwt>
<pdfrwt beam="1">0</pdfrwt>
<pdfrwt beam="2">0</pdfrwt>
<totfact> 0.30067372E+12</totfact>
</mgrwt>
</event>
<event>
 4    1  0.1838758E+006  0.3263859E+01  0.7546771E-02  0.2444846E+00
         22   -1    0    0    0    0  0.00000000000E+00  0.00000000000E+00  0.22341935971E+01  0.22341935971E+01  0.00000000000E+00 0. -1.
         22   -1    0    0    0    0 -0.00000000000E+00 -0.00000000000E+00 -0.87642324780E+01  0.87642324780E+01  0.00000000000E+00 0.  1.
          4    1    1    2  501    0 -0.12590236432E+01 -0.27303362001E+01  0.44832758587E+00  0.32945066283E+01  0.12700000000E+01 0. -1.
         -4    1    1    2    0  501  0.12590236432E+01  0.27303362001E+01 -0.69783664668E+01  0.77039194469E+01  0.12700000000E+01 0.  1.
<mgrwt>
<rscale>  0 0.32638591E+01</rscale>
<asrwt>0</asrwt>
<pdfrwt beam="1">0</pdfrwt>
<pdfrwt beam="2">0</pdfrwt>
<totfact> 0.73788499E+11</totfact>
</mgrwt>
</event>
<event>
 4    1  0.1838758E+006  0.4825052E+01  0.7546771E-02  0.2144484E+00
         22   -1    0    0    0    0  0.00000000000E+00  0.00000000000E+00  0.26970121884E+01  0.26970121884E+01  0.00000000000E+00 0.  1.
         22   -1    0    0    0    0 -0.00000000000E+00 -0.00000000000E+00 -0.13221753653E+02  0.13221753653E+02  0.00000000000E+00 0. -1.
          4    1    1    2  501    0  0.44154849886E+01 -0.14736755100E+01 -0.57293628172E+00  0.48589487727E+01  0.12700000000E+01 0.  1.
         -4    1    1    2    0  501 -0.44154849886E+01  0.14736755100E+01 -0.99518051829E+01  0.11059817069E+02  0.12700000000E+01 0. -1.
<mgrwt>
<rscale>  0 0.48250520E+01</rscale>
<asrwt>0</asrwt>
<pdfrwt beam="1">0</pdfrwt>
<pdfrwt beam="2">0</pdfrwt>
<totfact> 0.35980739E+11</totfact>
</mgrwt>
</event>
<event>
 4    1  0.1838758E+006  0.2548445E+01  0.7546771E-02  0.2687550E+00
         22   -1    0    0    0    0  0.00000000000E+00  0.00000000000E+00  0.13446628592E+00  0.13446628592E+00  0.00000000000E+00 0.  1.
         22   -1    0    0    0    0 -0.00000000000E+00 -0.00000000000E+00 -0.56084042199E+02  0.56084042199E+02  0.00000000000E+00 0. -1.
          4    1    1    2  501    0 -0.10072543713E+00 -0.22071532823E+01 -0.17501972339E+02  0.17686537450E+02  0.12700000000E+01 0.  1.
         -4    1    1    2    0  501  0.10072543713E+00  0.22071532823E+01 -0.38447603575E+02  0.38531971035E+02  0.12700000000E+01 0. -1.
<mgrwt>
<rscale>  0 0.25484449E+01</rscale>
<asrwt>0</asrwt>
<pdfrwt beam="1">0</pdfrwt>
<pdfrwt beam="2">0</pdfrwt>
<totfact> 0.17206423E+12</totfact>
</mgrwt>
</event>
<event>
 4    1  0.1838758E+006  0.2074254E+01  0.7546771E-02  0.2932345E+00
         22   -1    0    0    0    0  0.00000000000E+00  0.00000000000E+00  0.42908581651E+00  0.42908581651E+00  0.00000000000E+00 0.  1.
         22   -1    0    0    0    0 -0.00000000000E+00 -0.00000000000E+00 -0.13696674259E+02  0.13696674259E+02  0.00000000000E+00 0. -1.
          4    1    1    2  501    0 -0.79775354067E+00 -0.14329061709E+01 -0.29780484934E+01  0.36292290690E+01  0.12700000000E+01 0.  1.
         -4    1    1    2    0  501  0.79775354067E+00  0.14329061709E+01 -0.10289539949E+02  0.10496531006E+02  0.12700000000E+01 0. -1.
<mgrwt>
<rscale>  0 0.20742543E+01</rscale>
<asrwt>0</asrwt>
<pdfrwt beam="1">0</pdfrwt>
<pdfrwt beam="2">0</pdfrwt>
<totfact> 0.28234296E+12</totfact>
</mgrwt>
</event>
<event>
 4    1  0.1838758E+006  0.2967139E+01  0.7546771E-02  0.2532667E+00
         22   -1    0    0    0    0  0.00000000000E+00  0.00000000000E+00  0.11899782737E+00  0.11899782737E+00  0.00000000000E+00 0.  1.
         22   -1    0    0    0    0 -0.00000000000E+00 -0.00000000000E+00 -0.11069035876E+03  0.11069035876E+03  0.00000000000E+00 0. -1.
          4    1    1    2  501    0 -0.26669555163E+01  0.27992993646E+00 -0.23380344349E+02  0.23567868261E+02  0.12700000000E+01 0.  1.
         -4    1    1    2    0  501  0.26669555163E+01 -0.27992993646E+00 -0.87191016587E+02  0.87241488330E+02  0.12700000000E+01 0. -1.
<mgrwt>
<rscale>  0 0.29671388E+01</rscale>
<asrwt>0</asrwt>
<pdfrwt beam="1">0</pdfrwt>
<pdfrwt beam="2">0</pdfrwt>
<totfact> 0.77419182E+11</totfact>
</mgrwt>
</event>
<event>
 4    1  0.1838758E+006  0.2208969E+01  0.7546771E-02  0.2852638E+00
         22   -1    0    0    0    0  0.00000000000E+00  0.00000000000E+00  0.57253776902E+02  0.57253776902E+02  0.00000000000E+00 0. -1.
         22   -1    0    0    0    0 -0.00000000000E+00 -0.00000000000E+00 -0.87360987325E-01  0.87360987325E-01  0.00000000000E+00 0.  1.
          4    1    1    2  501    0  0.17964495293E+01  0.19852641852E+00  0.33064632640E+02  0.33138338451E+02  0.12700000000E+01 0. -1.
         -4    1    1    2    0  501 -0.17964495293E+01 -0.19852641852E+00  0.24101783274E+02  0.24202799438E+02  0.12700000000E+01 0. -1.
<mgrwt>
<rscale>  0 0.22089689E+01</rscale>
<asrwt>0</asrwt>
<pdfrwt beam="1">0</pdfrwt>
<pdfrwt beam="2">0</pdfrwt>
<totfact> 0.26992285E+12</totfact>
</mgrwt>
</event>
<event>
 4    1  0.1838758E+006  0.2012227E+01  0.7546771E-02  0.2972522E+00
         22   -1    0    0    0    0  0.00000000000E+00  0.00000000000E+00  0.72534015540E+00  0.72534015540E+00  0.00000000000E+00 0.  1.
         22   -1    0    0    0    0 -0.00000000000E+00 -0.00000000000E+00 -0.57470666663E+01  0.57470666663E+01  0.00000000000E+00 0.  1.
          4    1    1    2  501    0 -0.30611325600E+00  0.15305066047E+01 -0.30588455821E+01  0.36613647848E+01  0.12700000000E+01 0.  1.
         -4    1    1    2    0  501  0.30611325600E+00 -0.15305066047E+01 -0.19628809288E+01  0.28110420368E+01  0.12700000000E+01 0.  1.
<mgrwt>
<rscale>  0 0.20122266E+01</rscale>
<asrwt>0</asrwt>
<pdfrwt beam="1">0</pdfrwt>
<pdfrwt beam="2">0</pdfrwt>
<totfact> 0.44446110E+12</totfact>
</mgrwt>
</event>
<event>
 4    1  0.1838758E+006  0.2096578E+01  0.7546771E-02  0.2918452E+00
         22   -1    0    0    0    0  0.00000000000E+00  0.00000000000E+00  0.70563863105E+01  0.70563863105E+01  0.00000000000E+00 0.  1.
         22   -1    0    0    0    0 -0.00000000000E+00 -0.00000000000E+00 -0.10072354071E+01  0.10072354071E+01  0.00000000000E+00 0. -1.
          4    1    1    2  501    0  0.16496895062E+01  0.24751371166E+00  0.55149954952E+01  0.59000689671E+01  0.12700000000E+01 0.  1.
         -4    1    1    2    0  501 -0.16496895062E+01 -0.24751371166E+00  0.53415540822E+00  0.21635527505E+01  0.12700000000E+01 0. -1.
<mgrwt>
<rscale>  0 0.20965778E+01</rscale>
<asrwt>0</asrwt>
<pdfrwt beam="1">0</pdfrwt>
<pdfrwt beam="2">0</pdfrwt>
<totfact> 0.23941300E+12</totfact>
</mgrwt>
</event>
<event>
 4    1  0.1838758E+006  0.2158453E+01  0.7546771E-02  0.2881402E+00
         22   -1    0    0    0    0  0.00000000000E+00  0.00000000000E+00  0.86803275991E-01  0.86803275991E-01  0.00000000000E+00 0.  1.
         22   -1    0    0    0    0 -0.00000000000E+00 -0.00000000000E+00 -0.64051658275E+02  0.64051658275E+02  0.00000000000E+00 0.  1.
          4    1    1    2  501    0 -0.14079906680E+00  0.17395965041E+01 -0.19072872272E+02  0.19194618441E+02  0.12700000000E+01 0.  1.
         -4    1    1    2    0  501  0.14079906680E+00 -0.17395965041E+01 -0.44891982727E+02  0.44943843110E+02  0.12700000000E+01 0.  1.
<mgrwt>
<rscale>  0 0.21584532E+01</rscale>
<asrwt>0</asrwt>
<pdfrwt beam="1">0</pdfrwt>
<pdfrwt beam="2">0</pdfrwt>
<totfact> 0.23390324E+12</totfact>
</mgrwt>
</event>
<event>
 4    1  0.1838758E+006  0.2110106E+01  0.7546771E-02  0.2910172E+00
         22   -1    0    0    0    0  0.00000000000E+00  0.00000000000E+00  0.14935201402E+02  0.14935201402E+02  0.00000000000E+00 0.  1.
         22   -1    0    0    0    0 -0.00000000000E+00 -0.00000000000E+00 -0.38828412936E+00  0.38828412936E+00  0.00000000000E+00 0.  1.
          4    1    1    2  501    0 -0.49585650672E+00 -0.16105193838E+01  0.10965438334E+02  0.11166619194E+02  0.12700000000E+01 0.  1.
         -4    1    1    2    0  501  0.49585650672E+00  0.16105193838E+01  0.35814789382E+01  0.41568663372E+01  0.12700000000E+01 0.  1.
<mgrwt>
<rscale>  0 0.21101058E+01</rscale>
<asrwt>0</asrwt>
<pdfrwt beam="1">0</pdfrwt>
<pdfrwt beam="2">0</pdfrwt>
<totfact> 0.28409857E+12</totfact>
</mgrwt>
</event>
<event>
 4    1  0.1838758E+006  0.2746817E+01  0.7546771E-02  0.2608798E+00
         22   -1    0    0    0    0  0.00000000000E+00  0.00000000000E+00  0.11539637328E+01  0.11539637328E+01  0.00000000000E+00 0. -1.
         22   -1    0    0    0    0 -0.00000000000E+00 -0.00000000000E+00 -0.16151593716E+02  0.16151593716E+02  0.00000000000E+00 0.  1.
          4    1    1    2  501    0  0.18177159348E+01 -0.16211150757E+01 -0.82332503502E+00  0.28675546065E+01  0.12700000000E+01 0. -1.
         -4    1    1    2    0  501 -0.18177159348E+01  0.16211150757E+01 -0.14174304948E+02  0.14438002842E+02  0.12700000000E+01 0.  1.
<mgrwt>
<rscale>  0 0.27468173E+01</rscale>
<asrwt>0</asrwt>
<pdfrwt beam="1">0</pdfrwt>
<pdfrwt beam="2">0</pdfrwt>
<totfact> 0.74973128E+11</totfact>
</mgrwt>
</event>
<event>
 4    1  0.1838758E+006  0.7888390E+01  0.7546771E-02  0.1882789E+00
         22   -1    0    0    0    0  0.00000000000E+00  0.00000000000E+00  0.46546208106E+02  0.46546208106E+02  0.00000000000E+00 0. -1.
         22   -1    0    0    0    0 -0.00000000000E+00 -0.00000000000E+00 -0.14690304624E+01  0.14690304624E+01  0.00000000000E+00 0.  1.
          4    1    1    2  501    0 -0.42102016609E+01 -0.65488930135E+01  0.29739176302E+02  0.30767601545E+02  0.12700000000E+01 0. -1.
         -4    1    1    2    0  501  0.42102016609E+01  0.65488930135E+01  0.15338001342E+02  0.17247637023E+02  0.12700000000E+01 0.  1.
<mgrwt>
<rscale>  0 0.78883901E+01</rscale>
<asrwt>0</asrwt>
<pdfrwt beam="1">0</pdfrwt>
<pdfrwt beam="2">0</pdfrwt>
<totfact> 0.14825743E+11</totfact>
</mgrwt>
</event>
<event>
 4    1  0.1838758E+006  0.2570762E+01  0.7546771E-02  0.2678132E+00
         22   -1    0    0    0    0  0.00000000000E+00  0.00000000000E+00  0.11087246565E+02  0.11087246565E+02  0.00000000000E+00 0. -1.
         22   -1    0    0    0    0 -0.00000000000E+00 -0.00000000000E+00 -0.60543236055E+00  0.60543236055E+00  0.00000000000E+00 0.  1.
          4    1    1    2  501    0  0.19465494779E+01  0.10985730064E+01  0.59677742703E+01  0.64979340764E+01  0.12700000000E+01 0. -1.
         -4    1    1    2    0  501 -0.19465494779E+01 -0.10985730064E+01  0.45140399339E+01  0.51947448489E+01  0.12700000000E+01 0.  1.
<mgrwt>
<rscale>  0 0.25707621E+01</rscale>
<asrwt>0</asrwt>
<pdfrwt beam="1">0</pdfrwt>
<pdfrwt beam="2">0</pdfrwt>
<totfact> 0.24771952E+12</totfact>
</mgrwt>
</event>
<event>
 4    1  0.1838758E+006  0.3054901E+01  0.7546771E-02  0.2505111E+00
         22   -1    0    0    0    0  0.00000000000E+00  0.00000000000E+00  0.28981241845E+01  0.28981241845E+01  0.00000000000E+00 0.  1.
         22   -1    0    0    0    0 -0.00000000000E+00 -0.00000000000E+00 -0.32274462302E+01  0.32274462302E+01  0.00000000000E+00 0. -1.
          4    1    1    2  501    0  0.22198542026E+01 -0.16708582660E+01 -0.19123506756E-01  0.30549608401E+01  0.12700000000E+01 0.  1.
         -4    1    1    2    0  501 -0.22198542026E+01  0.16708582660E+01 -0.31019853886E+00  0.30706095746E+01  0.12700000000E+01 0. -1.
<mgrwt>
<rscale>  0 0.30549010E+01</rscale>
<asrwt>0</asrwt>
<pdfrwt beam="1">0</pdfrwt>
<pdfrwt beam="2">0</pdfrwt>
<totfact> 0.17837367E+12</totfact>
</mgrwt>
</event>
<event>
 4    1  0.1838758E+006  0.2035770E+01  0.7546771E-02  0.2956990E+00
         22   -1    0    0    0    0  0.00000000000E+00  0.00000000000E+00  0.23588764440E+01  0.23588764440E+01  0.00000000000E+00 0.  1.
         22   -1    0    0    0    0 -0.00000000000E+00 -0.00000000000E+00 -0.21506542825E+01  0.21506542825E+01  0.00000000000E+00 0.  1.
          4    1    1    2  501    0  0.11941254092E+01 -0.10514394082E+01  0.10688658605E+01  0.22993117557E+01  0.12700000000E+01 0.  1.
         -4    1    1    2    0  501 -0.11941254092E+01  0.10514394082E+01 -0.86064369898E+00  0.22102189708E+01  0.12700000000E+01 0.  1.
<mgrwt>
<rscale>  0 0.20357702E+01</rscale>
<asrwt>0</asrwt>
<pdfrwt beam="1">0</pdfrwt>
<pdfrwt beam="2">0</pdfrwt>
<totfact> 0.36367511E+12</totfact>
</mgrwt>
</event>
<event>
 4    1  0.1838758E+006  0.2061616E+01  0.7546771E-02  0.2940340E+00
         22   -1    0    0    0    0  0.00000000000E+00  0.00000000000E+00  0.90959480910E-01  0.90959480910E-01  0.00000000000E+00 0.  1.
         22   -1    0    0    0    0 -0.00000000000E+00 -0.00000000000E+00 -0.71618378209E+02  0.71618378209E+02  0.00000000000E+00 0.  1.
          4    1    1    2  501    0 -0.11508753096E+01 -0.11457950233E+01 -0.56901436015E+02  0.56938771332E+02  0.12700000000E+01 0.  1.
         -4    1    1    2    0  501  0.11508753096E+01  0.11457950233E+01 -0.14625982713E+02  0.14770566358E+02  0.12700000000E+01 0.  1.
<mgrwt>
<rscale>  0 0.20616159E+01</rscale>
<asrwt>0</asrwt>
<pdfrwt beam="1">0</pdfrwt>
<pdfrwt beam="2">0</pdfrwt>
<totfact> 0.19096787E+12</totfact>
</mgrwt>
</event>
<event>
 4    1  0.1838758E+006  0.2351733E+01  0.7546771E-02  0.2777739E+00
         22   -1    0    0    0    0  0.00000000000E+00  0.00000000000E+00  0.18597489169E+01  0.18597489169E+01  0.00000000000E+00 0. -1.
         22   -1    0    0    0    0 -0.00000000000E+00 -0.00000000000E+00 -0.50443742028E+01  0.50443742028E+01  0.00000000000E+00 0.  1.
          4    1    1    2  501    0 -0.18379769020E+01  0.73456754858E+00  0.61932059152E+00  0.24319141784E+01  0.12700000000E+01 0. -1.
         -4    1    1    2    0  501  0.18379769020E+01 -0.73456754858E+00 -0.38039458774E+01  0.44722089412E+01  0.12700000000E+01 0.  1.
<mgrwt>
<rscale>  0 0.23517331E+01</rscale>
<asrwt>0</asrwt>
<pdfrwt beam="1">0</pdfrwt>
<pdfrwt beam="2">0</pdfrwt>
<totfact> 0.17650512E+12</totfact>
</mgrwt>
</event>
<event>
 4    1  0.1838758E+006  0.2431834E+01  0.7546771E-02  0.2739367E+00
         22   -1    0    0    0    0  0.00000000000E+00  0.00000000000E+00  0.20824950981E+01  0.20824950981E+01  0.00000000000E+00 0.  1.
         22   -1    0    0    0    0 -0.00000000000E+00 -0.00000000000E+00 -0.32467505668E+01  0.32467505668E+01  0.00000000000E+00 0.  1.
          4    1    1    2  501    0 -0.20461145154E+01  0.33812796294E+00  0.36127267966E+00  0.24585225398E+01  0.12700000000E+01 0.  1.
         -4    1    1    2    0  501  0.20461145154E+01 -0.33812796294E+00 -0.15255281484E+01  0.28707231251E+01  0.12700000000E+01 0.  1.
<mgrwt>
<rscale>  0 0.24318337E+01</rscale>
<asrwt>0</asrwt>
<pdfrwt beam="1">0</pdfrwt>
<pdfrwt beam="2">0</pdfrwt>
<totfact> 0.26012515E+12</totfact>
</mgrwt>
</event>
<event>
 4    1  0.1838758E+006  0.2560701E+01  0.7546771E-02  0.2682359E+00
         22   -1    0    0    0    0  0.00000000000E+00  0.00000000000E+00  0.31568092799E+00  0.31568092799E+00  0.00000000000E+00 0. -1.
         22   -1    0    0    0    0 -0.00000000000E+00 -0.00000000000E+00 -0.21180688377E+02  0.21180688377E+02  0.00000000000E+00 0.  1.
          4    1    1    2  501    0 -0.63837860415E+00 -0.21299672798E+01 -0.11926297517E+02  0.12198104784E+02  0.12700000000E+01 0. -1.
         -4    1    1    2    0  501  0.63837860415E+00  0.21299672798E+01 -0.89387099313E+01  0.92982645204E+01  0.12700000000E+01 0. -1.
<mgrwt>
<rscale>  0 0.25607007E+01</rscale>
<asrwt>0</asrwt>
<pdfrwt beam="1">0</pdfrwt>
<pdfrwt beam="2">0</pdfrwt>
<totfact> 0.23245448E+12</totfact>
</mgrwt>
</event>
<event>
 4    1  0.1838758E+006  0.2378339E+01  0.7546771E-02  0.2764724E+00
         22   -1    0    0    0    0  0.00000000000E+00  0.00000000000E+00  0.62425113309E+01  0.62425113309E+01  0.00000000000E+00 0.  1.
         22   -1    0    0    0    0 -0.00000000000E+00 -0.00000000000E+00 -0.91183636041E+00  0.91183636041E+00  0.00000000000E+00 0.  1.
          4    1    1    2  501    0  0.17733209746E+01  0.94811928547E+00  0.29484375281E+01  0.37881105205E+01  0.12700000000E+01 0.  1.
         -4    1    1    2    0  501 -0.17733209746E+01 -0.94811928547E+00  0.23822374424E+01  0.33662371708E+01  0.12700000000E+01 0.  1.
<mgrwt>
<rscale>  0 0.23783392E+01</rscale>
<asrwt>0</asrwt>
<pdfrwt beam="1">0</pdfrwt>
<pdfrwt beam="2">0</pdfrwt>
<totfact> 0.31048306E+12</totfact>
</mgrwt>
</event>
<event>
 4    1  0.1838758E+006  0.2673351E+01  0.7546771E-02  0.2636711E+00
         22   -1    0    0    0    0  0.00000000000E+00  0.00000000000E+00  0.42307593210E+01  0.42307593210E+01  0.00000000000E+00 0. -1.
         22   -1    0    0    0    0 -0.00000000000E+00 -0.00000000000E+00 -0.20074258692E+01  0.20074258692E+01  0.00000000000E+00 0.  1.
          4    1    1    2  501    0  0.21220049192E+01 -0.10153828734E+01  0.23534408362E+01  0.35616696964E+01  0.12700000000E+01 0. -1.
         -4    1    1    2    0  501 -0.21220049192E+01  0.10153828734E+01 -0.13010738439E+00  0.26765154937E+01  0.12700000000E+01 0. -1.
<mgrwt>
<rscale>  0 0.26733513E+01</rscale>
<asrwt>0</asrwt>
<pdfrwt beam="1">0</pdfrwt>
<pdfrwt beam="2">0</pdfrwt>
<totfact> 0.19889802E+12</totfact>
</mgrwt>
</event>
<event>
 4    1  0.1838758E+006  0.2400917E+01  0.7546771E-02  0.2753892E+00
         22   -1    0    0    0    0  0.00000000000E+00  0.00000000000E+00  0.96168342149E+01  0.96168342149E+01  0.00000000000E+00 0. -1.
         22   -1    0    0    0    0 -0.00000000000E+00 -0.00000000000E+00 -0.60430731195E+00  0.60430731195E+00  0.00000000000E+00 0.  1.
          4    1    1    2  501    0 -0.20365505983E+01 -0.62962552266E-01  0.49664457152E+01  0.55163380666E+01  0.12700000000E+01 0. -1.
         -4    1    1    2    0  501  0.20365505983E+01  0.62962552266E-01  0.40460811877E+01  0.47048034603E+01  0.12700000000E+01 0.  1.
<mgrwt>
<rscale>  0 0.24009170E+01</rscale>
<asrwt>0</asrwt>
<pdfrwt beam="1">0</pdfrwt>
<pdfrwt beam="2">0</pdfrwt>
<totfact> 0.29497268E+12</totfact>
</mgrwt>
</event>
<event>
 4    1  0.1838758E+006  0.2165764E+01  0.7546771E-02  0.2877159E+00
         22   -1    0    0    0    0  0.00000000000E+00  0.00000000000E+00  0.18918040498E+02  0.18918040498E+02  0.00000000000E+00 0.  1.
         22   -1    0    0    0    0 -0.00000000000E+00 -0.00000000000E+00 -0.26086579337E+00  0.26086579337E+00  0.00000000000E+00 0.  1.
          4    1    1    2  501    0  0.15416624921E+01 -0.83720375834E+00  0.71939758695E+01  0.75129103671E+01  0.12700000000E+01 0.  1.
         -4    1    1    2    0  501 -0.15416624921E+01  0.83720375834E+00  0.11463198835E+02  0.11665995925E+02  0.12700000000E+01 0.  1.
<mgrwt>
<rscale>  0 0.21657639E+01</rscale>
<asrwt>0</asrwt>
<pdfrwt beam="1">0</pdfrwt>
<pdfrwt beam="2">0</pdfrwt>
<totfact> 0.33137468E+12</totfact>
</mgrwt>
</event>
<event>
 4    1  0.1838758E+006  0.2359378E+01  0.7546771E-02  0.2773971E+00
         22   -1    0    0    0    0  0.00000000000E+00  0.00000000000E+00  0.14751214825E+02  0.14751214825E+02  0.00000000000E+00 0.  1.
         22   -1    0    0    0    0 -0.00000000000E+00 -0.00000000000E+00 -0.47941626197E+00  0.47941626197E+00  0.00000000000E+00 0. -1.
          4    1    1    2  501    0 -0.18575269567E+01  0.70947862907E+00  0.10649318867E+02  0.10907550534E+02  0.12700000000E+01 0.  1.
         -4    1    1    2    0  501  0.18575269567E+01 -0.70947862907E+00  0.36224796965E+01  0.43230805535E+01  0.12700000000E+01 0. -1.
<mgrwt>
<rscale>  0 0.23593784E+01</rscale>
<asrwt>0</asrwt>
<pdfrwt beam="1">0</pdfrwt>
<pdfrwt beam="2">0</pdfrwt>
<totfact> 0.22747621E+12</totfact>
</mgrwt>
</event>
<event>
 4    1  0.1838758E+006  0.2462002E+01  0.7546771E-02  0.2725523E+00
         22   -1    0    0    0    0  0.00000000000E+00  0.00000000000E+00  0.83055865909E+00  0.83055865909E+00  0.00000000000E+00 0.  1.
         22   -1    0    0    0    0 -0.00000000000E+00 -0.00000000000E+00 -0.73144667819E+01  0.73144667819E+01  0.00000000000E+00 0.  1.
          4    1    1    2  501    0 -0.11442737916E+01  0.17717757883E+01 -0.34349380552E+01  0.42261390651E+01  0.12700000000E+01 0.  1.
         -4    1    1    2    0  501  0.11442737916E+01 -0.17717757883E+01 -0.30489700676E+01  0.39188863759E+01  0.12700000000E+01 0.  1.
<mgrwt>
<rscale>  0 0.24620016E+01</rscale>
<asrwt>0</asrwt>
<pdfrwt beam="1">0</pdfrwt>
<pdfrwt beam="2">0</pdfrwt>
<totfact> 0.28576023E+12</totfact>
</mgrwt>
</event>
<event>
 4    1  0.1838758E+006  0.3178822E+01  0.7546771E-02  0.2468522E+00
         22   -1    0    0    0    0  0.00000000000E+00  0.00000000000E+00  0.84812743128E+01  0.84812743128E+01  0.00000000000E+00 0. -1.
         22   -1    0    0    0    0 -0.00000000000E+00 -0.00000000000E+00 -0.12641885306E+01  0.12641885306E+01  0.00000000000E+00 0.  1.
          4    1    1    2  501    0 -0.23654969793E+01 -0.17018920378E+01  0.47774625083E+01  0.57383848325E+01  0.12700000000E+01 0.  1.
         -4    1    1    2    0  501  0.23654969793E+01  0.17018920378E+01  0.24396232739E+01  0.40070780110E+01  0.12700000000E+01 0. -1.
<mgrwt>
<rscale>  0 0.31788225E+01</rscale>
<asrwt>0</asrwt>
<pdfrwt beam="1">0</pdfrwt>
<pdfrwt beam="2">0</pdfrwt>
<totfact> 0.14804354E+12</totfact>
</mgrwt>
</event>
<event>
 4    1  0.1838758E+006  0.2508002E+01  0.7546771E-02  0.2705013E+00
         22   -1    0    0    0    0  0.00000000000E+00  0.00000000000E+00  0.14778785619E+01  0.14778785619E+01  0.00000000000E+00 0.  1.
         22   -1    0    0    0    0 -0.00000000000E+00 -0.00000000000E+00 -0.44738803907E+01  0.44738803907E+01  0.00000000000E+00 0. -1.
          4    1    1    2  501    0  0.85143157989E+00 -0.19880241487E+01 -0.21544948461E+01  0.33063459881E+01  0.12700000000E+01 0. -1.
         -4    1    1    2    0  501 -0.85143157989E+00  0.19880241487E+01 -0.84150698263E+00  0.26454129645E+01  0.12700000000E+01 0.  1.
<mgrwt>
<rscale>  0 0.25080023E+01</rscale>
<asrwt>0</asrwt>
<pdfrwt beam="1">0</pdfrwt>
<pdfrwt beam="2">0</pdfrwt>
<totfact> 0.26513740E+12</totfact>
</mgrwt>
</event>
<event>
 4    1  0.1838758E+006  0.3162906E+01  0.7546771E-02  0.2473079E+00
         22   -1    0    0    0    0  0.00000000000E+00  0.00000000000E+00  0.33585271292E+01  0.33585271292E+01  0.00000000000E+00 0. -1.
         22   -1    0    0    0    0 -0.00000000000E+00 -0.00000000000E+00 -0.10451797355E+02  0.10451797355E+02  0.00000000000E+00 0.  1.
          4    1    1    2  501    0 -0.22252695843E+01  0.18545213096E+01  0.22922419167E+01  0.39061934175E+01  0.12700000000E+01 0. -1.
         -4    1    1    2    0  501  0.22252695843E+01 -0.18545213096E+01 -0.93855121430E+01  0.99041310672E+01  0.12700000000E+01 0.  1.
<mgrwt>
<rscale>  0 0.31629059E+01</rscale>
<asrwt>0</asrwt>
<pdfrwt beam="1">0</pdfrwt>
<pdfrwt beam="2">0</pdfrwt>
<totfact> 0.37082023E+11</totfact>
</mgrwt>
</event>
<event>
 4    1  0.1838758E+006  0.2279170E+01  0.7546771E-02  0.2814693E+00
         22   -1    0    0    0    0  0.00000000000E+00  0.00000000000E+00  0.80238943762E+00  0.80238943762E+00  0.00000000000E+00 0. -1.
         22   -1    0    0    0    0 -0.00000000000E+00 -0.00000000000E+00 -0.74045706576E+01  0.74045706576E+01  0.00000000000E+00 0.  1.
          4    1    1    2  501    0 -0.18634249399E+01 -0.33070410471E+00 -0.18463282985E+01  0.29331801679E+01  0.12700000000E+01 0. -1.
         -4    1    1    2    0  501  0.18634249399E+01  0.33070410471E+00 -0.47558529215E+01  0.52737799273E+01  0.12700000000E+01 0.  1.
<mgrwt>
<rscale>  0 0.22791704E+01</rscale>
<asrwt>0</asrwt>
<pdfrwt beam="1">0</pdfrwt>
<pdfrwt beam="2">0</pdfrwt>
<totfact> 0.29286984E+12</totfact>
</mgrwt>
</event>
<event>
 4    1  0.1838758E+006  0.3074819E+01  0.7546771E-02  0.2499053E+00
         22   -1    0    0    0    0  0.00000000000E+00  0.00000000000E+00  0.53808906869E+01  0.53808906869E+01  0.00000000000E+00 0.  1.
         22   -1    0    0    0    0 -0.00000000000E+00 -0.00000000000E+00 -0.25634825708E+01  0.25634825708E+01  0.00000000000E+00 0. -1.
          4    1    1    2  501    0  0.11304248372E+01  0.25619813634E+01  0.36366145986E+01  0.47622971933E+01  0.12700000000E+01 0.  1.
         -4    1    1    2    0  501 -0.11304248372E+01 -0.25619813634E+01 -0.81920648246E+00  0.31820760644E+01  0.12700000000E+01 0. -1.
<mgrwt>
<rscale>  0 0.30748185E+01</rscale>
<asrwt>0</asrwt>
<pdfrwt beam="1">0</pdfrwt>
<pdfrwt beam="2">0</pdfrwt>
<totfact> 0.11269204E+12</totfact>
</mgrwt>
</event>
<event>
 4    1  0.1838758E+006  0.3564751E+01  0.7546771E-02  0.2369112E+00
         22   -1    0    0    0    0  0.00000000000E+00  0.00000000000E+00  0.51690499449E+00  0.51690499449E+00  0.00000000000E+00 0.  1.
         22   -1    0    0    0    0 -0.00000000000E+00 -0.00000000000E+00 -0.26133087721E+02  0.26133087721E+02  0.00000000000E+00 0. -1.
          4    1    1    2  501    0 -0.27159909657E+01 -0.19281972153E+01 -0.95635899773E+01  0.10206356092E+02  0.12700000000E+01 0.  1.
         -4    1    1    2    0  501  0.27159909657E+01  0.19281972153E+01 -0.16052592749E+02  0.16443636623E+02  0.12700000000E+01 0. -1.
<mgrwt>
<rscale>  0 0.35647512E+01</rscale>
<asrwt>0</asrwt>
<pdfrwt beam="1">0</pdfrwt>
<pdfrwt beam="2">0</pdfrwt>
<totfact> 0.10244915E+12</totfact>
</mgrwt>
</event>
<event>
 4    1  0.1838758E+006  0.2547851E+01  0.7546771E-02  0.2687803E+00
         22   -1    0    0    0    0  0.00000000000E+00  0.00000000000E+00  0.17320762061E+00  0.17320762061E+00  0.00000000000E+00 0. -1.
         22   -1    0    0    0    0 -0.00000000000E+00 -0.00000000000E+00 -0.38582493785E+02  0.38582493785E+02  0.00000000000E+00 0. -1.
          4    1    1    2  501    0  0.16773233376E+00 -0.22023876456E+01 -0.22482668506E+02  0.22626575716E+02  0.12700000000E+01 0. -1.
         -4    1    1    2    0  501 -0.16773233376E+00  0.22023876456E+01 -0.15926617658E+02  0.16129125690E+02  0.12700000000E+01 0. -1.
<mgrwt>
<rscale>  0 0.25478511E+01</rscale>
<asrwt>0</asrwt>
<pdfrwt beam="1">0</pdfrwt>
<pdfrwt beam="2">0</pdfrwt>
<totfact> 0.21211292E+12</totfact>
</mgrwt>
</event>
<event>
 4    1  0.1838758E+006  0.2428822E+01  0.7546771E-02  0.2740767E+00
         22   -1    0    0    0    0  0.00000000000E+00  0.00000000000E+00  0.26453434076E+01  0.26453434076E+01  0.00000000000E+00 0.  1.
         22   -1    0    0    0    0 -0.00000000000E+00 -0.00000000000E+00 -0.30534915717E+01  0.30534915717E+01  0.00000000000E+00 0. -1.
          4    1    1    2  501    0 -0.13716955668E+01  0.15507186010E+01  0.12756515975E+01  0.27434401589E+01  0.12700000000E+01 0.  1.
         -4    1    1    2    0  501  0.13716955668E+01 -0.15507186010E+01 -0.16837997615E+01  0.29553948204E+01  0.12700000000E+01 0. -1.
<mgrwt>
<rscale>  0 0.24288221E+01</rscale>
<asrwt>0</asrwt>
<pdfrwt beam="1">0</pdfrwt>
<pdfrwt beam="2">0</pdfrwt>
<totfact> 0.21167606E+12</totfact>
</mgrwt>
</event>
<event>
 4    1  0.1838758E+006  0.2156557E+01  0.7546771E-02  0.2882506E+00
         22   -1    0    0    0    0  0.00000000000E+00  0.00000000000E+00  0.92309130585E+01  0.92309130585E+01  0.00000000000E+00 0.  1.
         22   -1    0    0    0    0 -0.00000000000E+00 -0.00000000000E+00 -0.65292446473E+00  0.65292446473E+00  0.00000000000E+00 0.  1.
          4    1    1    2  501    0  0.14453567176E+01  0.97405550761E+00  0.66505927422E+01  0.69915037006E+01  0.12700000000E+01 0.  1.
         -4    1    1    2    0  501 -0.14453567176E+01 -0.97405550761E+00  0.19273958516E+01  0.28923338227E+01  0.12700000000E+01 0.  1.
<mgrwt>
<rscale>  0 0.21565575E+01</rscale>
<asrwt>0</asrwt>
<pdfrwt beam="1">0</pdfrwt>
<pdfrwt beam="2">0</pdfrwt>
<totfact> 0.28390719E+12</totfact>
</mgrwt>
</event>
<event>
 4    1  0.1838758E+006  0.3294910E+01  0.7546771E-02  0.2436471E+00
         22   -1    0    0    0    0  0.00000000000E+00  0.00000000000E+00  0.12609601369E+01  0.12609601369E+01  0.00000000000E+00 0. -1.
         22   -1    0    0    0    0 -0.00000000000E+00 -0.00000000000E+00 -0.91025118152E+01  0.91025118152E+01  0.00000000000E+00 0.  1.
          4    1    1    2  501    0  0.26262828407E+01 -0.15317220915E+01 -0.51265173349E+01  0.60940638419E+01  0.12700000000E+01 0.  1.
         -4    1    1    2    0  501 -0.26262828407E+01  0.15317220915E+01 -0.27150343434E+01  0.42694081101E+01  0.12700000000E+01 0. -1.
<mgrwt>
<rscale>  0 0.32949103E+01</rscale>
<asrwt>0</asrwt>
<pdfrwt beam="1">0</pdfrwt>
<pdfrwt beam="2">0</pdfrwt>
<totfact> 0.13635175E+12</totfact>
</mgrwt>
</event>
<event>
 4    1  0.1838758E+006  0.7863034E+01  0.7546771E-02  0.1884288E+00
         22   -1    0    0    0    0  0.00000000000E+00  0.00000000000E+00  0.23392089224E+01  0.23392089224E+01  0.00000000000E+00 0.  1.
         22   -1    0    0    0    0 -0.00000000000E+00 -0.00000000000E+00 -0.26865497219E+02  0.26865497219E+02  0.00000000000E+00 0. -1.
          4    1    1    2  501    0 -0.52020272948E+00 -0.77423381643E+01 -0.10405821993E+02  0.13042562727E+02  0.12700000000E+01 0. -1.
         -4    1    1    2    0  501  0.52020272948E+00  0.77423381643E+01 -0.14120466304E+02  0.16162143415E+02  0.12700000000E+01 0.  1.
<mgrwt>
<rscale>  0 0.78630345E+01</rscale>
<asrwt>0</asrwt>
<pdfrwt beam="1">0</pdfrwt>
<pdfrwt beam="2">0</pdfrwt>
<totfact> 0.17576826E+11</totfact>
</mgrwt>
</event>
<event>
 4    1  0.1838758E+006  0.2022323E+01  0.7546771E-02  0.2965818E+00
         22   -1    0    0    0    0  0.00000000000E+00  0.00000000000E+00  0.33841813808E+02  0.33841813808E+02  0.00000000000E+00 0.  1.
         22   -1    0    0    0    0 -0.00000000000E+00 -0.00000000000E+00 -0.12581883277E+01  0.12581883277E+01  0.00000000000E+00 0. -1.
          4    1    1    2  501    0 -0.78959046597E+00  0.13614103800E+01  0.32977692622E+02  0.33039642886E+02  0.12700000000E+01 0.  1.
         -4    1    1    2    0  501  0.78959046597E+00 -0.13614103800E+01 -0.39406714203E+00  0.20603592500E+01  0.12700000000E+01 0. -1.
<mgrwt>
<rscale>  0 0.20223232E+01</rscale>
<asrwt>0</asrwt>
<pdfrwt beam="1">0</pdfrwt>
<pdfrwt beam="2">0</pdfrwt>
<totfact> 0.26780427E+11</totfact>
</mgrwt>
</event>
<event>
 4    1  0.1838758E+006  0.3527169E+01  0.7546771E-02  0.2377952E+00
         22   -1    0    0    0    0  0.00000000000E+00  0.00000000000E+00  0.46891084729E+02  0.46891084729E+02  0.00000000000E+00 0. -1.
         22   -1    0    0    0    0 -0.00000000000E+00 -0.00000000000E+00 -0.52863607134E+00  0.52863607134E+00  0.00000000000E+00 0.  1.
          4    1    1    2  501    0  0.24400183532E+00 -0.32815364309E+01  0.39914972508E+02  0.40070512207E+02  0.12700000000E+01 0. -1.
         -4    1    1    2    0  501 -0.24400183532E+00  0.32815364309E+01  0.64474761497E+01  0.73492085931E+01  0.12700000000E+01 0.  1.
<mgrwt>
<rscale>  0 0.35271686E+01</rscale>
<asrwt>0</asrwt>
<pdfrwt beam="1">0</pdfrwt>
<pdfrwt beam="2">0</pdfrwt>
<totfact> 0.47063861E+11</totfact>
</mgrwt>
</event>
<event>
 4    1  0.1838758E+006  0.2580368E+01  0.7546771E-02  0.2674125E+00
         22   -1    0    0    0    0  0.00000000000E+00  0.00000000000E+00  0.11197425546E+02  0.11197425546E+02  0.00000000000E+00 0.  1.
         22   -1    0    0    0    0 -0.00000000000E+00 -0.00000000000E+00 -0.61513463060E+00  0.61513463060E+00  0.00000000000E+00 0. -1.
          4    1    1    2  501    0 -0.11225047443E+01  0.19456055503E+01  0.63695475869E+01  0.68723674466E+01  0.12700000000E+01 0.  1.
         -4    1    1    2    0  501  0.11225047443E+01 -0.19456055503E+01  0.42127433283E+01  0.49401927299E+01  0.12700000000E+01 0. -1.
<mgrwt>
<rscale>  0 0.25803678E+01</rscale>
<asrwt>0</asrwt>
<pdfrwt beam="1">0</pdfrwt>
<pdfrwt beam="2">0</pdfrwt>
<totfact> 0.24039127E+12</totfact>
</mgrwt>
</event>
<event>
 4    1  0.1838758E+006  0.3209068E+01  0.7546771E-02  0.2459974E+00
         22   -1    0    0    0    0  0.00000000000E+00  0.00000000000E+00  0.61230479115E+00  0.61230479115E+00  0.00000000000E+00 0.  1.
         22   -1    0    0    0    0 -0.00000000000E+00 -0.00000000000E+00 -0.23812941598E+02  0.23812941598E+02  0.00000000000E+00 0.  1.
          4    1    1    2  501    0  0.26428260242E+01  0.13041037774E+01 -0.49815754622E+01  0.59257244403E+01  0.12700000000E+01 0.  1.
         -4    1    1    2    0  501 -0.26428260242E+01 -0.13041037774E+01 -0.18219061344E+02  0.18499521949E+02  0.12700000000E+01 0.  1.
<mgrwt>
<rscale>  0 0.32090678E+01</rscale>
<asrwt>0</asrwt>
<pdfrwt beam="1">0</pdfrwt>
<pdfrwt beam="2">0</pdfrwt>
<totfact> 0.95108946E+11</totfact>
</mgrwt>
</event>
<event>
 4    1  0.1838758E+006  0.2515109E+01  0.7546771E-02  0.2701906E+00
         22   -1    0    0    0    0  0.00000000000E+00  0.00000000000E+00  0.11066305408E+02  0.11066305408E+02  0.00000000000E+00 0. -1.
         22   -1    0    0    0    0 -0.00000000000E+00 -0.00000000000E+00 -0.63898148397E+00  0.63898148397E+00  0.00000000000E+00 0.  1.
          4    1    1    2  501    0  0.95167033933E+00 -0.19512038169E+01  0.71138597881E+01  0.75453809615E+01  0.12700000000E+01 0. -1.
         -4    1    1    2    0  501 -0.95167033933E+00  0.19512038169E+01  0.33134641357E+01  0.41599059302E+01  0.12700000000E+01 0.  1.
<mgrwt>
<rscale>  0 0.25151089E+01</rscale>
<asrwt>0</asrwt>
<pdfrwt beam="1">0</pdfrwt>
<pdfrwt beam="2">0</pdfrwt>
<totfact> 0.23357094E+12</totfact>
</mgrwt>
</event>
<event>
 4    1  0.1838758E+006  0.3210494E+01  0.7546771E-02  0.2459575E+00
         22   -1    0    0    0    0  0.00000000000E+00  0.00000000000E+00  0.26449060317E+01  0.26449060317E+01  0.00000000000E+00 0.  1.
         22   -1    0    0    0    0 -0.00000000000E+00 -0.00000000000E+00 -0.40388675217E+01  0.40388675217E+01  0.00000000000E+00 0.  1.
          4    1    1    2  501    0  0.19296278620E+01  0.22295534249E+01 -0.70711674597E-01  0.32112726918E+01  0.12700000000E+01 0.  1.
         -4    1    1    2    0  501 -0.19296278620E+01 -0.22295534249E+01 -0.13232498154E+01  0.34725008617E+01  0.12700000000E+01 0.  1.
<mgrwt>
<rscale>  0 0.32104941E+01</rscale>
<asrwt>0</asrwt>
<pdfrwt beam="1">0</pdfrwt>
<pdfrwt beam="2">0</pdfrwt>
<totfact> 0.15251642E+12</totfact>
</mgrwt>
</event>
<event>
 4    1  0.1838758E+006  0.2014680E+01  0.7546771E-02  0.2970887E+00
         22   -1    0    0    0    0  0.00000000000E+00  0.00000000000E+00  0.26297460213E+02  0.26297460213E+02  0.00000000000E+00 0.  1.
         22   -1    0    0    0    0 -0.00000000000E+00 -0.00000000000E+00 -0.33451351176E+00  0.33451351176E+00  0.00000000000E+00 0.  1.
          4    1    1    2  501    0 -0.20540313302E+00 -0.15504343790E+01  0.22753922467E+02  0.22842940372E+02  0.12700000000E+01 0.  1.
         -4    1    1    2    0  501  0.20540313302E+00  0.15504343790E+01  0.32090242336E+01  0.37890333520E+01  0.12700000000E+01 0.  1.
<mgrwt>
<rscale>  0 0.20146804E+01</rscale>
<asrwt>0</asrwt>
<pdfrwt beam="1">0</pdfrwt>
<pdfrwt beam="2">0</pdfrwt>
<totfact> 0.16590756E+12</totfact>
</mgrwt>
</event>
<event>
 4    1  0.1838758E+006  0.3928967E+01  0.7546771E-02  0.2291082E+00
         22   -1    0    0    0    0  0.00000000000E+00  0.00000000000E+00  0.61203864225E+01  0.61203864225E+01  0.00000000000E+00 0.  1.
         22   -1    0    0    0    0 -0.00000000000E+00 -0.00000000000E+00 -0.35127591449E+01  0.35127591449E+01  0.00000000000E+00 0.  1.
          4    1    1    2  501    0 -0.17286202965E+01  0.32917711321E+01  0.38615516427E+01  0.55089351426E+01  0.12700000000E+01 0.  1.
         -4    1    1    2    0  501  0.17286202965E+01 -0.32917711321E+01 -0.12539243651E+01  0.41242104249E+01  0.12700000000E+01 0.  1.
<mgrwt>
<rscale>  0 0.39289675E+01</rscale>
<asrwt>0</asrwt>
<pdfrwt beam="1">0</pdfrwt>
<pdfrwt beam="2">0</pdfrwt>
<totfact> 0.66923255E+11</totfact>
</mgrwt>
</event>
<event>
 4    1  0.1838758E+006  0.2402704E+01  0.7546771E-02  0.2753043E+00
         22   -1    0    0    0    0  0.00000000000E+00  0.00000000000E+00  0.36067610209E+02  0.36067610209E+02  0.00000000000E+00 0.  1.
         22   -1    0    0    0    0 -0.00000000000E+00 -0.00000000000E+00 -0.82155077969E+00  0.82155077969E+00  0.00000000000E+00 0.  1.
          4    1    1    2  501    0 -0.34216577185E+00  0.20107235170E+01  0.34173617797E+02  0.34257979214E+02  0.12700000000E+01 0.  1.
         -4    1    1    2    0  501  0.34216577185E+00 -0.20107235170E+01  0.10724416321E+01  0.26311817747E+01  0.12700000000E+01 0.  1.
<mgrwt>
<rscale>  0 0.24027040E+01</rscale>
<asrwt>0</asrwt>
<pdfrwt beam="1">0</pdfrwt>
<pdfrwt beam="2">0</pdfrwt>
<totfact> 0.40154686E+11</totfact>
</mgrwt>
</event>
<event>
 4    1  0.1838758E+006  0.3244358E+01  0.7546771E-02  0.2450179E+00
         22   -1    0    0    0    0  0.00000000000E+00  0.00000000000E+00  0.98528528384E+01  0.98528528384E+01  0.00000000000E+00 0. -1.
         22   -1    0    0    0    0 -0.00000000000E+00 -0.00000000000E+00 -0.13601405575E+01  0.13601405575E+01  0.00000000000E+00 0.  1.
          4    1    1    2  501    0 -0.26779550503E+00 -0.29734232185E+01  0.68433335096E+01  0.75734452921E+01  0.12700000000E+01 0. -1.
         -4    1    1    2    0  501  0.26779550503E+00  0.29734232185E+01  0.16493787714E+01  0.36395481038E+01  0.12700000000E+01 0.  1.
<mgrwt>
<rscale>  0 0.32443582E+01</rscale>
<asrwt>0</asrwt>
<pdfrwt beam="1">0</pdfrwt>
<pdfrwt beam="2">0</pdfrwt>
<totfact> 0.11359278E+12</totfact>
</mgrwt>
</event>
<event>
 4    1  0.1838758E+006  0.2072761E+01  0.7546771E-02  0.2933285E+00
         22   -1    0    0    0    0  0.00000000000E+00  0.00000000000E+00  0.37482100303E+02  0.37482100303E+02  0.00000000000E+00 0. -1.
         22   -1    0    0    0    0 -0.00000000000E+00 -0.00000000000E+00 -0.12618638505E+00  0.12618638505E+00  0.00000000000E+00 0. -1.
          4    1    1    2  501    0  0.11540650296E+01 -0.11625711056E+01  0.24370106844E+02  0.24458095700E+02  0.12700000000E+01 0. -1.
         -4    1    1    2    0  501 -0.11540650296E+01  0.11625711056E+01  0.12985807074E+02  0.13150190989E+02  0.12700000000E+01 0. -1.
<mgrwt>
<rscale>  0 0.20727609E+01</rscale>
<asrwt>0</asrwt>
<pdfrwt beam="1">0</pdfrwt>
<pdfrwt beam="2">0</pdfrwt>
<totfact> 0.31311055E+12</totfact>
</mgrwt>
</event>
<event>
 4    1  0.1838758E+006  0.3358961E+01  0.7546771E-02  0.2419625E+00
         22   -1    0    0    0    0  0.00000000000E+00  0.00000000000E+00  0.15092944704E+00  0.15092944704E+00  0.00000000000E+00 0. -1.
         22   -1    0    0    0    0 -0.00000000000E+00 -0.00000000000E+00 -0.75900789034E+02  0.75900789034E+02  0.00000000000E+00 0.  1.
          4    1    1    2  501    0 -0.19825002900E+01  0.23957072850E+01 -0.33201385919E+02  0.33370865253E+02  0.12700000000E+01 0.  1.
         -4    1    1    2    0  501  0.19825002900E+01 -0.23957072850E+01 -0.42548473667E+02  0.42680853227E+02  0.12700000000E+01 0. -1.
<mgrwt>
<rscale>  0 0.33589613E+01</rscale>
<asrwt>0</asrwt>
<pdfrwt beam="1">0</pdfrwt>
<pdfrwt beam="2">0</pdfrwt>
<totfact> 0.10063876E+12</totfact>
</mgrwt>
</event>
<event>
 4    1  0.1838758E+006  0.2036707E+01  0.7546771E-02  0.2956380E+00
         22   -1    0    0    0    0  0.00000000000E+00  0.00000000000E+00  0.10893540355E+01  0.10893540355E+01  0.00000000000E+00 0.  1.
         22   -1    0    0    0    0 -0.00000000000E+00 -0.00000000000E+00 -0.38087858452E+01  0.38087858452E+01  0.00000000000E+00 0.  1.
          4    1    1    2  501    0 -0.15569889137E+01  0.33325511086E+00 -0.13966331776E+01  0.24695662937E+01  0.12700000000E+01 0.  1.
         -4    1    1    2    0  501  0.15569889137E+01 -0.33325511086E+00 -0.13227986322E+01  0.24285735870E+01  0.12700000000E+01 0.  1.
<mgrwt>
<rscale>  0 0.20367065E+01</rscale>
<asrwt>0</asrwt>
<pdfrwt beam="1">0</pdfrwt>
<pdfrwt beam="2">0</pdfrwt>
<totfact> 0.45466777E+12</totfact>
</mgrwt>
</event>
<event>
 4    1  0.1838758E+006  0.6227905E+01  0.7546771E-02  0.1999833E+00
         22   -1    0    0    0    0  0.00000000000E+00  0.00000000000E+00  0.14741586358E+01  0.14741586358E+01  0.00000000000E+00 0.  1.
         22   -1    0    0    0    0 -0.00000000000E+00 -0.00000000000E+00 -0.68266100923E+02  0.68266100923E+02  0.00000000000E+00 0. -1.
          4    1    1    2  501    0  0.58317793357E+01  0.17788339254E+01 -0.60594872464E+01  0.86893144748E+01  0.12700000000E+01 0.  1.
         -4    1    1    2    0  501 -0.58317793357E+01 -0.17788339254E+01 -0.60732455041E+02  0.61050945084E+02  0.12700000000E+01 0. -1.
<mgrwt>
<rscale>  0 0.62279050E+01</rscale>
<asrwt>0</asrwt>
<pdfrwt beam="1">0</pdfrwt>
<pdfrwt beam="2">0</pdfrwt>
<totfact> 0.88665330E+10</totfact>
</mgrwt>
</event>
<event>
 4    1  0.1838758E+006  0.2210628E+01  0.7546771E-02  0.2851715E+00
         22   -1    0    0    0    0  0.00000000000E+00  0.00000000000E+00  0.30041134716E+02  0.30041134716E+02  0.00000000000E+00 0. -1.
         22   -1    0    0    0    0 -0.00000000000E+00 -0.00000000000E+00 -0.16267355481E+00  0.16267355481E+00  0.00000000000E+00 0.  1.
          4    1    1    2  501    0  0.35627584849E+00  0.17739908290E+01  0.14907018764E+02  0.15070039295E+02  0.12700000000E+01 0. -1.
         -4    1    1    2    0  501 -0.35627584849E+00 -0.17739908290E+01  0.14971442397E+02  0.15133768975E+02  0.12700000000E+01 0.  1.
<mgrwt>
<rscale>  0 0.22106280E+01</rscale>
<asrwt>0</asrwt>
<pdfrwt beam="1">0</pdfrwt>
<pdfrwt beam="2">0</pdfrwt>
<totfact> 0.31366082E+12</totfact>
</mgrwt>
</event>
<event>
 4    1  0.1838758E+006  0.2277253E+01  0.7546771E-02  0.2815699E+00
         22   -1    0    0    0    0  0.00000000000E+00  0.00000000000E+00  0.50606592541E+01  0.50606592541E+01  0.00000000000E+00 0.  1.
         22   -1    0    0    0    0 -0.00000000000E+00 -0.00000000000E+00 -0.34804460910E+01  0.34804460910E+01  0.00000000000E+00 0. -1.
          4    1    1    2  501    0 -0.11241030645E+00 -0.18868882571E+01  0.43772968425E+01  0.49342285130E+01  0.12700000000E+01 0.  1.
         -4    1    1    2    0  501  0.11241030645E+00  0.18868882571E+01 -0.27970836794E+01  0.36068768321E+01  0.12700000000E+01 0. -1.
<mgrwt>
<rscale>  0 0.22772535E+01</rscale>
<asrwt>0</asrwt>
<pdfrwt beam="1">0</pdfrwt>
<pdfrwt beam="2">0</pdfrwt>
<totfact> 0.84787336E+11</totfact>
</mgrwt>
</event>
<event>
 4    1  0.1838758E+006  0.2189634E+01  0.7546771E-02  0.2863496E+00
         22   -1    0    0    0    0  0.00000000000E+00  0.00000000000E+00  0.74569716575E+01  0.74569716575E+01  0.00000000000E+00 0. -1.
         22   -1    0    0    0    0 -0.00000000000E+00 -0.00000000000E+00 -0.13279556171E+01  0.13279556171E+01  0.00000000000E+00 0.  1.
          4    1    1    2  501    0  0.14253772846E+01 -0.10723331797E+01  0.62192351921E+01  0.65934350097E+01  0.12700000000E+01 0. -1.
         -4    1    1    2    0  501 -0.14253772846E+01  0.10723331797E+01 -0.90219151705E-01  0.21914922649E+01  0.12700000000E+01 0.  1.
<mgrwt>
<rscale>  0 0.21896344E+01</rscale>
<asrwt>0</asrwt>
<pdfrwt beam="1">0</pdfrwt>
<pdfrwt beam="2">0</pdfrwt>
<totfact> 0.16329911E+12</totfact>
</mgrwt>
</event>
<event>
 4    1  0.1838758E+006  0.3822283E+01  0.7546771E-02  0.2312609E+00
         22   -1    0    0    0    0  0.00000000000E+00  0.00000000000E+00  0.38858474682E+01  0.38858474682E+01  0.00000000000E+00 0.  1.
         22   -1    0    0    0    0 -0.00000000000E+00 -0.00000000000E+00 -0.48297336222E+01  0.48297336222E+01  0.00000000000E+00 0. -1.
          4    1    1    2  501    0  0.23967517259E+01  0.26930519433E+01  0.15791795533E+01  0.41356566185E+01  0.12700000000E+01 0.  1.
         -4    1    1    2    0  501 -0.23967517259E+01 -0.26930519433E+01 -0.25230657072E+01  0.45799244719E+01  0.12700000000E+01 0. -1.
<mgrwt>
<rscale>  0 0.38222830E+01</rscale>
<asrwt>0</asrwt>
<pdfrwt beam="1">0</pdfrwt>
<pdfrwt beam="2">0</pdfrwt>
<totfact> 0.78737049E+11</totfact>
</mgrwt>
</event>
<event>
 4    1  0.1838758E+006  0.4711575E+01  0.7546771E-02  0.2159091E+00
         22   -1    0    0    0    0  0.00000000000E+00  0.00000000000E+00  0.70300320625E+00  0.70300320625E+00  0.00000000000E+00 0.  1.
         22   -1    0    0    0    0 -0.00000000000E+00 -0.00000000000E+00 -0.33056825708E+02  0.33056825708E+02  0.00000000000E+00 0. -1.
          4    1    1    2  501    0 -0.41532910484E+01  0.18265290610E+01 -0.12605806106E+02  0.13457536272E+02  0.12700000000E+01 0.  1.
         -4    1    1    2    0  501  0.41532910484E+01 -0.18265290610E+01 -0.19748016396E+02  0.20302292642E+02  0.12700000000E+01 0. -1.
<mgrwt>
<rscale>  0 0.47115746E+01</rscale>
<asrwt>0</asrwt>
<pdfrwt beam="1">0</pdfrwt>
<pdfrwt beam="2">0</pdfrwt>
<totfact> 0.53621784E+11</totfact>
</mgrwt>
</event>
<event>
 4    1  0.1838758E+006  0.2681518E+01  0.7546771E-02  0.2633539E+00
         22   -1    0    0    0    0  0.00000000000E+00  0.00000000000E+00  0.32044630374E+01  0.32044630374E+01  0.00000000000E+00 0. -1.
         22   -1    0    0    0    0 -0.00000000000E+00 -0.00000000000E+00 -0.24308290268E+01  0.24308290268E+01  0.00000000000E+00 0. -1.
          4    1    1    2  501    0  0.53665160824E+00  0.22999227610E+01  0.11681411934E+01  0.29249091444E+01  0.12700000000E+01 0. -1.
         -4    1    1    2    0  501 -0.53665160824E+00 -0.22999227610E+01 -0.39450718280E+00  0.27103829199E+01  0.12700000000E+01 0. -1.
<mgrwt>
<rscale>  0 0.26815182E+01</rscale>
<asrwt>0</asrwt>
<pdfrwt beam="1">0</pdfrwt>
<pdfrwt beam="2">0</pdfrwt>
<totfact> 0.22075256E+12</totfact>
</mgrwt>
</event>
<event>
 4    1  0.1838758E+006  0.4888133E+01  0.7546771E-02  0.2136598E+00
         22   -1    0    0    0    0  0.00000000000E+00  0.00000000000E+00  0.16804733718E+01  0.16804733718E+01  0.00000000000E+00 0.  1.
         22   -1    0    0    0    0 -0.00000000000E+00 -0.00000000000E+00 -0.16443832644E+02  0.16443832644E+02  0.00000000000E+00 0. -1.
          4    1    1    2  501    0 -0.39039752073E+01  0.26532842876E+01 -0.40479863913E+01  0.63466553203E+01  0.12700000000E+01 0.  1.
         -4    1    1    2    0  501  0.39039752073E+01 -0.26532842876E+01 -0.10715372881E+02  0.11777650696E+02  0.12700000000E+01 0. -1.
<mgrwt>
<rscale>  0 0.48881326E+01</rscale>
<asrwt>0</asrwt>
<pdfrwt beam="1">0</pdfrwt>
<pdfrwt beam="2">0</pdfrwt>
<totfact> 0.47613748E+11</totfact>
</mgrwt>
</event>
<event>
 4    1  0.1838758E+006  0.2051468E+01  0.7546771E-02  0.2946828E+00
         22   -1    0    0    0    0  0.00000000000E+00  0.00000000000E+00  0.19531032051E+01  0.19531032051E+01  0.00000000000E+00 0.  1.
         22   -1    0    0    0    0 -0.00000000000E+00 -0.00000000000E+00 -0.24342639474E+01  0.24342639474E+01  0.00000000000E+00 0.  1.
          4    1    1    2  501    0  0.45536621109E+00  0.15454010038E+01  0.50271708643E+00  0.21121664512E+01  0.12700000000E+01 0.  1.
         -4    1    1    2    0  501 -0.45536621109E+00 -0.15454010038E+01 -0.98387782872E+00  0.22752007012E+01  0.12700000000E+01 0.  1.
<mgrwt>
<rscale>  0 0.20514684E+01</rscale>
<asrwt>0</asrwt>
<pdfrwt beam="1">0</pdfrwt>
<pdfrwt beam="2">0</pdfrwt>
<totfact> 0.39201165E+12</totfact>
</mgrwt>
</event>
<event>
 4    1  0.1838758E+006  0.2731733E+01  0.7546771E-02  0.2614417E+00
         22   -1    0    0    0    0  0.00000000000E+00  0.00000000000E+00  0.12526389164E+01  0.12526389164E+01  0.00000000000E+00 0. -1.
         22   -1    0    0    0    0 -0.00000000000E+00 -0.00000000000E+00 -0.59634088421E+01  0.59634088421E+01  0.00000000000E+00 0.  1.
          4    1    1    2  501    0 -0.23346559261E+01  0.63154137794E+00 -0.22400346091E+01  0.35327210271E+01  0.12700000000E+01 0. -1.
         -4    1    1    2    0  501  0.23346559261E+01 -0.63154137794E+00 -0.24707353166E+01  0.36833267314E+01  0.12700000000E+01 0.  1.
<mgrwt>
<rscale>  0 0.27317326E+01</rscale>
<asrwt>0</asrwt>
<pdfrwt beam="1">0</pdfrwt>
<pdfrwt beam="2">0</pdfrwt>
<totfact> 0.22805060E+12</totfact>
</mgrwt>
</event>
<event>
 4    1  0.1838758E+006  0.3107769E+01  0.7546771E-02  0.2489183E+00
         22   -1    0    0    0    0  0.00000000000E+00  0.00000000000E+00  0.33108154208E+01  0.33108154208E+01  0.00000000000E+00 0. -1.
         22   -1    0    0    0    0 -0.00000000000E+00 -0.00000000000E+00 -0.65077557181E+01  0.65077557181E+01  0.00000000000E+00 0.  1.
          4    1    1    2  501    0  0.28364072333E+01 -0.10958273594E-01  0.20481040605E+01  0.37219559803E+01  0.12700000000E+01 0. -1.
         -4    1    1    2    0  501 -0.28364072333E+01  0.10958273594E-01 -0.52450443578E+01  0.60966151586E+01  0.12700000000E+01 0.  1.
<mgrwt>
<rscale>  0 0.31077687E+01</rscale>
<asrwt>0</asrwt>
<pdfrwt beam="1">0</pdfrwt>
<pdfrwt beam="2">0</pdfrwt>
<totfact> 0.66670253E+11</totfact>
</mgrwt>
</event>
<event>
 4    1  0.1838758E+006  0.3287412E+01  0.7546771E-02  0.2438481E+00
         22   -1    0    0    0    0  0.00000000000E+00  0.00000000000E+00  0.14655494885E+02  0.14655494885E+02  0.00000000000E+00 0. -1.
         22   -1    0    0    0    0 -0.00000000000E+00 -0.00000000000E+00 -0.76694233587E+00  0.76694233587E+00  0.00000000000E+00 0.  1.
          4    1    1    2  501    0  0.30182853009E+01 -0.29005445756E+00  0.84575098882E+01  0.90739490441E+01  0.12700000000E+01 0. -1.
         -4    1    1    2    0  501 -0.30182853009E+01  0.29005445756E+00  0.54310426608E+01  0.63484881767E+01  0.12700000000E+01 0.  1.
<mgrwt>
<rscale>  0 0.32874120E+01</rscale>
<asrwt>0</asrwt>
<pdfrwt beam="1">0</pdfrwt>
<pdfrwt beam="2">0</pdfrwt>
<totfact> 0.13468703E+12</totfact>
</mgrwt>
</event>
<event>
 4    1  0.1838758E+006  0.2479453E+01  0.7546771E-02  0.2717658E+00
         22   -1    0    0    0    0  0.00000000000E+00  0.00000000000E+00  0.47394274842E+01  0.47394274842E+01  0.00000000000E+00 0. -1.
         22   -1    0    0    0    0 -0.00000000000E+00 -0.00000000000E+00 -0.13408181439E+01  0.13408181439E+01  0.00000000000E+00 0. -1.
          4    1    1    2  501    0  0.40279903773E+00  0.20910622509E+01  0.11505838279E+01  0.27334102412E+01  0.12700000000E+01 0. -1.
         -4    1    1    2    0  501 -0.40279903773E+00 -0.20910622509E+01  0.22480255124E+01  0.33468353868E+01  0.12700000000E+01 0. -1.
<mgrwt>
<rscale>  0 0.24794532E+01</rscale>
<asrwt>0</asrwt>
<pdfrwt beam="1">0</pdfrwt>
<pdfrwt beam="2">0</pdfrwt>
<totfact> 0.27699067E+12</totfact>
</mgrwt>
</event>
<event>
 4    1  0.1838758E+006  0.4080409E+01  0.7546771E-02  0.2262183E+00
         22   -1    0    0    0    0  0.00000000000E+00  0.00000000000E+00  0.47594609074E+00  0.47594609074E+00  0.00000000000E+00 0. -1.
         22   -1    0    0    0    0 -0.00000000000E+00 -0.00000000000E+00 -0.35734196194E+02  0.35734196194E+02  0.00000000000E+00 0.  1.
          4    1    1    2  501    0 -0.23278436773E+01  0.31012864750E+01 -0.15003033703E+02  0.15548014480E+02  0.12700000000E+01 0.  1.
         -4    1    1    2    0  501  0.23278436773E+01 -0.31012864750E+01 -0.20255216400E+02  0.20662127804E+02  0.12700000000E+01 0. -1.
<mgrwt>
<rscale>  0 0.40804086E+01</rscale>
<asrwt>0</asrwt>
<pdfrwt beam="1">0</pdfrwt>
<pdfrwt beam="2">0</pdfrwt>
<totfact> 0.75438999E+11</totfact>
</mgrwt>
</event>
<event>
 4    1  0.1838758E+006  0.2138841E+01  0.7546771E-02  0.2892921E+00
         22   -1    0    0    0    0  0.00000000000E+00  0.00000000000E+00  0.63704753686E+00  0.63704753686E+00  0.00000000000E+00 0.  1.
         22   -1    0    0    0    0 -0.00000000000E+00 -0.00000000000E+00 -0.88521889783E+01  0.88521889783E+01  0.00000000000E+00 0. -1.
          4    1    1    2  501    0  0.14357207511E+01 -0.94891834385E+00 -0.20460468661E+01  0.29598898420E+01  0.12700000000E+01 0.  1.
         -4    1    1    2    0  501 -0.14357207511E+01  0.94891834385E+00 -0.61690945754E+01  0.65293466732E+01  0.12700000000E+01 0. -1.
<mgrwt>
<rscale>  0 0.21388408E+01</rscale>
<asrwt>0</asrwt>
<pdfrwt beam="1">0</pdfrwt>
<pdfrwt beam="2">0</pdfrwt>
<totfact> 0.30707578E+12</totfact>
</mgrwt>
</event>
<event>
 4    1  0.1838758E+006  0.2581311E+01  0.7546771E-02  0.2673733E+00
         22   -1    0    0    0    0  0.00000000000E+00  0.00000000000E+00  0.14012215810E+02  0.14012215810E+02  0.00000000000E+00 0. -1.
         22   -1    0    0    0    0 -0.00000000000E+00 -0.00000000000E+00 -0.11230146335E+01  0.11230146335E+01  0.00000000000E+00 0.  1.
          4    1    1    2  501    0 -0.46908867290E-01  0.22467907169E+01  0.12190823955E+02  0.12461113821E+02  0.12700000000E+01 0. -1.
         -4    1    1    2    0  501  0.46908867290E-01 -0.22467907169E+01  0.69837722197E+00  0.26741166226E+01  0.12700000000E+01 0.  1.
<mgrwt>
<rscale>  0 0.25813115E+01</rscale>
<asrwt>0</asrwt>
<pdfrwt beam="1">0</pdfrwt>
<pdfrwt beam="2">0</pdfrwt>
<totfact> 0.92122548E+11</totfact>
</mgrwt>
</event>
<event>
 4    1  0.1838758E+006  0.2006583E+01  0.7546771E-02  0.2976298E+00
         22   -1    0    0    0    0  0.00000000000E+00  0.00000000000E+00  0.12865926208E+00  0.12865926208E+00  0.00000000000E+00 0.  1.
         22   -1    0    0    0    0 -0.00000000000E+00 -0.00000000000E+00 -0.56700520018E+02  0.56700520018E+02  0.00000000000E+00 0. -1.
          4    1    1    2  501    0 -0.34233772555E+00  0.15153484895E+01 -0.92658241667E+01  0.94806051310E+01  0.12700000000E+01 0.  1.
         -4    1    1    2    0  501  0.34233772555E+00 -0.15153484895E+01 -0.47306036589E+02  0.47348574149E+02  0.12700000000E+01 0. -1.
<mgrwt>
<rscale>  0 0.20065832E+01</rscale>
<asrwt>0</asrwt>
<pdfrwt beam="1">0</pdfrwt>
<pdfrwt beam="2">0</pdfrwt>
<totfact> 0.17807300E+12</totfact>
</mgrwt>
</event>
<event>
 4    1  0.1838758E+006  0.3393046E+01  0.7546771E-02  0.2410889E+00
         22   -1    0    0    0    0  0.00000000000E+00  0.00000000000E+00  0.27127765485E+02  0.27127765485E+02  0.00000000000E+00 0.  1.
         22   -1    0    0    0    0 -0.00000000000E+00 -0.00000000000E+00 -0.45667472023E+00  0.45667472023E+00  0.00000000000E+00 0.  1.
          4    1    1    2  501    0 -0.18971473273E+01  0.25101177094E+01  0.17002686266E+02  0.17337938146E+02  0.12700000000E+01 0.  1.
         -4    1    1    2    0  501  0.18971473273E+01 -0.25101177094E+01  0.96684044987E+01  0.10246502059E+02  0.12700000000E+01 0.  1.
<mgrwt>
<rscale>  0 0.33930457E+01</rscale>
<asrwt>0</asrwt>
<pdfrwt beam="1">0</pdfrwt>
<pdfrwt beam="2">0</pdfrwt>
<totfact> 0.11238426E+12</totfact>
</mgrwt>
</event>
<event>
 4    1  0.1838758E+006  0.4210847E+01  0.7546771E-02  0.2238715E+00
         22   -1    0    0    0    0  0.00000000000E+00  0.00000000000E+00  0.16267430733E+02  0.16267430733E+02  0.00000000000E+00 0.  1.
         22   -1    0    0    0    0 -0.00000000000E+00 -0.00000000000E+00 -0.20157640667E+01  0.20157640667E+01  0.00000000000E+00 0. -1.
          4    1    1    2  501    0  0.28132664916E+01  0.28642385827E+01  0.13321046758E+02  0.13970737910E+02  0.12700000000E+01 0.  1.
         -4    1    1    2    0  501 -0.28132664916E+01 -0.28642385827E+01  0.93061990777E+00  0.43124568895E+01  0.12700000000E+01 0. -1.
<mgrwt>
<rscale>  0 0.42108468E+01</rscale>
<asrwt>0</asrwt>
<pdfrwt beam="1">0</pdfrwt>
<pdfrwt beam="2">0</pdfrwt>
<totfact> 0.39104822E+11</totfact>
</mgrwt>
</event>
<event>
 4    1  0.1838758E+006  0.3401320E+01  0.7546771E-02  0.2408792E+00
         22   -1    0    0    0    0  0.00000000000E+00  0.00000000000E+00  0.27236252761E+02  0.27236252761E+02  0.00000000000E+00 0. -1.
         22   -1    0    0    0    0 -0.00000000000E+00 -0.00000000000E+00 -0.45307405219E+00  0.45307405219E+00  0.00000000000E+00 0.  1.
          4    1    1    2  501    0 -0.22325306400E+01  0.22297724746E+01  0.16852325693E+02  0.17192145288E+02  0.12700000000E+01 0. -1.
         -4    1    1    2    0  501  0.22325306400E+01 -0.22297724746E+01  0.99308530156E+01  0.10497181525E+02  0.12700000000E+01 0.  1.
<mgrwt>
<rscale>  0 0.34013201E+01</rscale>
<asrwt>0</asrwt>
<pdfrwt beam="1">0</pdfrwt>
<pdfrwt beam="2">0</pdfrwt>
<totfact> 0.11281992E+12</totfact>
</mgrwt>
</event>
<event>
 4    1  0.1838758E+006  0.2519687E+01  0.7546771E-02  0.2699914E+00
         22   -1    0    0    0    0  0.00000000000E+00  0.00000000000E+00  0.24932776148E+00  0.24932776148E+00  0.00000000000E+00 0. -1.
         22   -1    0    0    0    0 -0.00000000000E+00 -0.00000000000E+00 -0.54094265070E+02  0.54094265070E+02  0.00000000000E+00 0. -1.
          4    1    1    2  501    0  0.85583184653E+00  0.20008681218E+01 -0.71547172250E+01  0.75854334063E+01  0.12700000000E+01 0. -1.
         -4    1    1    2    0  501 -0.85583184653E+00 -0.20008681218E+01 -0.46690220083E+02  0.46758159425E+02  0.12700000000E+01 0. -1.
<mgrwt>
<rscale>  0 0.25196868E+01</rscale>
<asrwt>0</asrwt>
<pdfrwt beam="1">0</pdfrwt>
<pdfrwt beam="2">0</pdfrwt>
<totfact> 0.90718169E+11</totfact>
</mgrwt>
</event>
<event>
 4    1  0.1838758E+006  0.2376396E+01  0.7546771E-02  0.2765665E+00
         22   -1    0    0    0    0  0.00000000000E+00  0.00000000000E+00  0.28975293182E+00  0.28975293182E+00  0.00000000000E+00 0.  1.
         22   -1    0    0    0    0 -0.00000000000E+00 -0.00000000000E+00 -0.25643144880E+02  0.25643144880E+02  0.00000000000E+00 0. -1.
          4    1    1    2  501    0  0.64250549082E+00  0.19030355129E+01 -0.63250352817E+01  0.67567247083E+01  0.12700000000E+01 0.  1.
         -4    1    1    2    0  501 -0.64250549082E+00 -0.19030355129E+01 -0.19028356666E+02  0.19176173103E+02  0.12700000000E+01 0. -1.
<mgrwt>
<rscale>  0 0.23763959E+01</rscale>
<asrwt>0</asrwt>
<pdfrwt beam="1">0</pdfrwt>
<pdfrwt beam="2">0</pdfrwt>
<totfact> 0.20124305E+12</totfact>
</mgrwt>
</event>
<event>
 4    1  0.1838758E+006  0.2180836E+01  0.7546771E-02  0.2868499E+00
         22   -1    0    0    0    0  0.00000000000E+00  0.00000000000E+00  0.13661832342E+01  0.13661832342E+01  0.00000000000E+00 0.  1.
         22   -1    0    0    0    0 -0.00000000000E+00 -0.00000000000E+00 -0.15229721620E+02  0.15229721620E+02  0.00000000000E+00 0.  1.
          4    1    1    2  501    0  0.47838180393E+00 -0.17071311448E+01  0.35634832241E+00  0.22097579104E+01  0.12700000000E+01 0.  1.
         -4    1    1    2    0  501 -0.47838180393E+00  0.17071311448E+01 -0.14219886708E+02  0.14386146944E+02  0.12700000000E+01 0.  1.
<mgrwt>
<rscale>  0 0.21808361E+01</rscale>
<asrwt>0</asrwt>
<pdfrwt beam="1">0</pdfrwt>
<pdfrwt beam="2">0</pdfrwt>
<totfact> 0.66416411E+11</totfact>
</mgrwt>
</event>
<event>
 4    1  0.1838758E+006  0.2126160E+01  0.7546771E-02  0.2900479E+00
         22   -1    0    0    0    0  0.00000000000E+00  0.00000000000E+00  0.45210270775E+00  0.45210270775E+00  0.00000000000E+00 0. -1.
         22   -1    0    0    0    0 -0.00000000000E+00 -0.00000000000E+00 -0.21244229889E+02  0.21244229889E+02  0.00000000000E+00 0.  1.
          4    1    1    2  501    0 -0.16825613312E+01  0.27684302673E+00 -0.25034494132E+01  0.32844807290E+01  0.12700000000E+01 0. -1.
         -4    1    1    2    0  501  0.16825613312E+01 -0.27684302673E+00 -0.18288677768E+02  0.18411851867E+02  0.12700000000E+01 0.  1.
<mgrwt>
<rscale>  0 0.21261596E+01</rscale>
<asrwt>0</asrwt>
<pdfrwt beam="1">0</pdfrwt>
<pdfrwt beam="2">0</pdfrwt>
<totfact> 0.15460872E+12</totfact>
</mgrwt>
</event>
<event>
 4    1  0.1838758E+006  0.2043137E+01  0.7546771E-02  0.2952203E+00
         22   -1    0    0    0    0  0.00000000000E+00  0.00000000000E+00  0.31787201818E+01  0.31787201818E+01  0.00000000000E+00 0. -1.
         22   -1    0    0    0    0 -0.00000000000E+00 -0.00000000000E+00 -0.13136140074E+01  0.13136140074E+01  0.00000000000E+00 0.  1.
          4    1    1    2  501    0 -0.80684948458E-01  0.15984364982E+01  0.89444260130E+00  0.22303445623E+01  0.12700000000E+01 0. -1.
         -4    1    1    2    0  501  0.80684948458E-01 -0.15984364982E+01  0.97066357309E+00  0.22619896268E+01  0.12700000000E+01 0.  1.
<mgrwt>
<rscale>  0 0.20431371E+01</rscale>
<asrwt>0</asrwt>
<pdfrwt beam="1">0</pdfrwt>
<pdfrwt beam="2">0</pdfrwt>
<totfact> 0.45356079E+12</totfact>
</mgrwt>
</event>
<event>
 4    1  0.1838758E+006  0.3384269E+01  0.7546771E-02  0.2413124E+00
         22   -1    0    0    0    0  0.00000000000E+00  0.00000000000E+00  0.92340956565E+02  0.92340956565E+02  0.00000000000E+00 0.  1.
         22   -1    0    0    0    0 -0.00000000000E+00 -0.00000000000E+00 -0.27969472115E+00  0.27969472115E+00  0.00000000000E+00 0. -1.
          4    1    1    2  501    0 -0.30618957860E+01 -0.68203297696E+00  0.80578986892E+02  0.80650024199E+02  0.12700000000E+01 0.  1.
         -4    1    1    2    0  501  0.30618957860E+01  0.68203297696E+00  0.11482274952E+02  0.11970627087E+02  0.12700000000E+01 0. -1.
<mgrwt>
<rscale>  0 0.33842687E+01</rscale>
<asrwt>0</asrwt>
<pdfrwt beam="1">0</pdfrwt>
<pdfrwt beam="2">0</pdfrwt>
<totfact> 0.38566098E+11</totfact>
</mgrwt>
</event>
<event>
 4    1  0.1838758E+006  0.2541788E+01  0.7546771E-02  0.2690389E+00
         22   -1    0    0    0    0  0.00000000000E+00  0.00000000000E+00  0.38840540782E+02  0.38840540782E+02  0.00000000000E+00 0.  1.
         22   -1    0    0    0    0 -0.00000000000E+00 -0.00000000000E+00 -0.24003005771E+00  0.24003005771E+00  0.00000000000E+00 0. -1.
          4    1    1    2  501    0 -0.17448177309E+01 -0.13429057922E+01  0.30127211591E+02  0.30234244875E+02  0.12700000000E+01 0.  1.
         -4    1    1    2    0  501  0.17448177309E+01  0.13429057922E+01  0.84732991328E+01  0.88463259648E+01  0.12700000000E+01 0. -1.
<mgrwt>
<rscale>  0 0.25417877E+01</rscale>
<asrwt>0</asrwt>
<pdfrwt beam="1">0</pdfrwt>
<pdfrwt beam="2">0</pdfrwt>
<totfact> 0.14611913E+12</totfact>
</mgrwt>
</event>
<event>
 4    1  0.1838758E+006  0.2483195E+01  0.7546771E-02  0.2715985E+00
         22   -1    0    0    0    0  0.00000000000E+00  0.00000000000E+00  0.30381728502E+01  0.30381728502E+01  0.00000000000E+00 0.  1.
         22   -1    0    0    0    0 -0.00000000000E+00 -0.00000000000E+00 -0.29509695544E+01  0.29509695544E+01  0.00000000000E+00 0. -1.
          4    1    1    2  501    0 -0.56132702727E-01  0.21331217179E+01  0.17168888366E+01  0.30189346500E+01  0.12700000000E+01 0.  1.
         -4    1    1    2    0  501  0.56132702727E-01 -0.21331217179E+01 -0.16296855407E+01  0.29702077546E+01  0.12700000000E+01 0. -1.
<mgrwt>
<rscale>  0 0.24831953E+01</rscale>
<asrwt>0</asrwt>
<pdfrwt beam="1">0</pdfrwt>
<pdfrwt beam="2">0</pdfrwt>
<totfact> 0.18743547E+12</totfact>
</mgrwt>
</event>
<event>
 4    1  0.1838758E+006  0.2590702E+01  0.7546771E-02  0.2669845E+00
         22   -1    0    0    0    0  0.00000000000E+00  0.00000000000E+00  0.18433801081E+01  0.18433801081E+01  0.00000000000E+00 0.  1.
         22   -1    0    0    0    0 -0.00000000000E+00 -0.00000000000E+00 -0.39078279482E+01  0.39078279482E+01  0.00000000000E+00 0. -1.
          4    1    1    2  501    0  0.22386995232E+01 -0.29505972125E+00 -0.17836425524E+01  0.31453325021E+01  0.12700000000E+01 0. -1.
         -4    1    1    2    0  501 -0.22386995232E+01  0.29505972125E+00 -0.28080528766E+00  0.26058755542E+01  0.12700000000E+01 0.  1.
<mgrwt>
<rscale>  0 0.25907018E+01</rscale>
<asrwt>0</asrwt>
<pdfrwt beam="1">0</pdfrwt>
<pdfrwt beam="2">0</pdfrwt>
<totfact> 0.24101422E+12</totfact>
</mgrwt>
</event>
<event>
 4    1  0.1838758E+006  0.2805484E+01  0.7546771E-02  0.2587469E+00
         22   -1    0    0    0    0  0.00000000000E+00  0.00000000000E+00  0.41633016856E+02  0.41633016856E+02  0.00000000000E+00 0.  1.
         22   -1    0    0    0    0 -0.00000000000E+00 -0.00000000000E+00 -0.18942590175E+00  0.18942590175E+00  0.00000000000E+00 0. -1.
          4    1    1    2  501    0 -0.20688852813E+01  0.14062550959E+01  0.19790797233E+02  0.19988656654E+02  0.12700000000E+01 0. -1.
         -4    1    1    2    0  501  0.20688852813E+01 -0.14062550959E+01  0.21652793721E+02  0.21833786104E+02  0.12700000000E+01 0. -1.
<mgrwt>
<rscale>  0 0.28054839E+01</rscale>
<asrwt>0</asrwt>
<pdfrwt beam="1">0</pdfrwt>
<pdfrwt beam="2">0</pdfrwt>
<totfact> 0.17392597E+12</totfact>
</mgrwt>
</event>
<event>
 4    1  0.1838758E+006  0.3460583E+01  0.7546771E-02  0.2394025E+00
         22   -1    0    0    0    0  0.00000000000E+00  0.00000000000E+00  0.66502952243E+01  0.66502952243E+01  0.00000000000E+00 0.  1.
         22   -1    0    0    0    0 -0.00000000000E+00 -0.00000000000E+00 -0.18492680750E+01  0.18492680750E+01  0.00000000000E+00 0. -1.
          4    1    1    2  501    0 -0.79152146645E+00  0.31202927202E+01  0.17122704455E+01  0.38610235651E+01  0.12700000000E+01 0.  1.
         -4    1    1    2    0  501  0.79152146645E+00 -0.31202927202E+01  0.30887567038E+01  0.46385397343E+01  0.12700000000E+01 0.  1.
<mgrwt>
<rscale>  0 0.34605827E+01</rscale>
<asrwt>0</asrwt>
<pdfrwt beam="1">0</pdfrwt>
<pdfrwt beam="2">0</pdfrwt>
<totfact> 0.12790059E+12</totfact>
</mgrwt>
</event>
<event>
 4    1  0.1838758E+006  0.2313742E+01  0.7546771E-02  0.2796813E+00
         22   -1    0    0    0    0  0.00000000000E+00  0.00000000000E+00  0.35292407496E+00  0.35292407496E+00  0.00000000000E+00 0. -1.
         22   -1    0    0    0    0 -0.00000000000E+00 -0.00000000000E+00 -0.21308473004E+02  0.21308473004E+02  0.00000000000E+00 0.  1.
          4    1    1    2  501    0 -0.13675822407E+01  0.13675598884E+01 -0.46640254498E+01  0.52063936299E+01  0.12700000000E+01 0. -1.
         -4    1    1    2    0  501  0.13675822407E+01 -0.13675598884E+01 -0.16291523479E+02  0.16455003449E+02  0.12700000000E+01 0.  1.
<mgrwt>
<rscale>  0 0.23137418E+01</rscale>
<asrwt>0</asrwt>
<pdfrwt beam="1">0</pdfrwt>
<pdfrwt beam="2">0</pdfrwt>
<totfact> 0.20355285E+12</totfact>
</mgrwt>
</event>
<event>
 4    1  0.1838758E+006  0.1142049E+02  0.7546771E-02  0.1725504E+00
         22   -1    0    0    0    0  0.00000000000E+00  0.00000000000E+00  0.16670145721E+02  0.16670145721E+02  0.00000000000E+00 0. -1.
         22   -1    0    0    0    0 -0.00000000000E+00 -0.00000000000E+00 -0.98654402750E+01  0.98654402750E+01  0.00000000000E+00 0.  1.
          4    1    1    2  501    0  0.26004548636E+00  0.11346675918E+02  0.94377589507E+01  0.14815494324E+02  0.12700000000E+01 0. -1.
         -4    1    1    2    0  501 -0.26004548636E+00 -0.11346675918E+02 -0.26330535046E+01  0.11720091672E+02  0.12700000000E+01 0.  1.
<mgrwt>
<rscale>  0 0.11420489E+02</rscale>
<asrwt>0</asrwt>
<pdfrwt beam="1">0</pdfrwt>
<pdfrwt beam="2">0</pdfrwt>
<totfact> 0.58115119E+10</totfact>
</mgrwt>
</event>
<event>
 4    1  0.1838758E+006  0.2274950E+01  0.7546771E-02  0.2816911E+00
         22   -1    0    0    0    0  0.00000000000E+00  0.00000000000E+00  0.11202767719E+02  0.11202767719E+02  0.00000000000E+00 0. -1.
         22   -1    0    0    0    0 -0.00000000000E+00 -0.00000000000E+00 -0.46544477551E+00  0.46544477551E+00  0.00000000000E+00 0. -1.
          4    1    1    2  501    0 -0.15002715561E+01  0.11452869527E+01  0.48649286165E+01  0.53705611802E+01  0.12700000000E+01 0. -1.
         -4    1    1    2    0  501  0.15002715561E+01 -0.11452869527E+01  0.58723943274E+01  0.62976513148E+01  0.12700000000E+01 0. -1.
<mgrwt>
<rscale>  0 0.22749499E+01</rscale>
<asrwt>0</asrwt>
<pdfrwt beam="1">0</pdfrwt>
<pdfrwt beam="2">0</pdfrwt>
<totfact> 0.32926559E+12</totfact>
</mgrwt>
</event>
<event>
 4    1  0.1838758E+006  0.2023079E+01  0.7546771E-02  0.2965319E+00
         22   -1    0    0    0    0  0.00000000000E+00  0.00000000000E+00  0.29702354798E+02  0.29702354798E+02  0.00000000000E+00 0. -1.
         22   -1    0    0    0    0 -0.00000000000E+00 -0.00000000000E+00 -0.13926376581E+00  0.13926376581E+00  0.00000000000E+00 0. -1.
          4    1    1    2  501    0  0.13400864566E+01  0.82711439554E+00  0.16313620836E+02  0.16438584937E+02  0.12700000000E+01 0. -1.
         -4    1    1    2    0  501 -0.13400864566E+01 -0.82711439554E+00  0.13249470196E+02  0.13403033627E+02  0.12700000000E+01 0. -1.
<mgrwt>
<rscale>  0 0.20230793E+01</rscale>
<asrwt>0</asrwt>
<pdfrwt beam="1">0</pdfrwt>
<pdfrwt beam="2">0</pdfrwt>
<totfact> 0.37821515E+12</totfact>
</mgrwt>
</event>
<event>
 4    1  0.1838758E+006  0.2332208E+01  0.7546771E-02  0.2787468E+00
         22   -1    0    0    0    0  0.00000000000E+00  0.00000000000E+00  0.93409408622E+00  0.93409408622E+00  0.00000000000E+00 0.  1.
         22   -1    0    0    0    0 -0.00000000000E+00 -0.00000000000E+00 -0.23688954447E+02  0.23688954447E+02  0.00000000000E+00 0. -1.
          4    1    1    2  501    0 -0.18167435461E+01 -0.72507722987E+00 -0.68559007002E+00  0.24308903401E+01  0.12700000000E+01 0.  1.
         -4    1    1    2    0  501  0.18167435461E+01  0.72507722987E+00 -0.22069270291E+02  0.22192158193E+02  0.12700000000E+01 0. -1.
<mgrwt>
<rscale>  0 0.23322080E+01</rscale>
<asrwt>0</asrwt>
<pdfrwt beam="1">0</pdfrwt>
<pdfrwt beam="2">0</pdfrwt>
<totfact> 0.59234840E+11</totfact>
</mgrwt>
</event>
<event>
 4    1  0.1838758E+006  0.2368267E+01  0.7546771E-02  0.2769619E+00
         22   -1    0    0    0    0  0.00000000000E+00  0.00000000000E+00  0.39197520621E+00  0.39197520621E+00  0.00000000000E+00 0. -1.
         22   -1    0    0    0    0 -0.00000000000E+00 -0.00000000000E+00 -0.25612073336E+02  0.25612073336E+02  0.00000000000E+00 0.  1.
          4    1    1    2  501    0 -0.18128476386E+01 -0.84224151890E+00 -0.39724888841E+01  0.46248627300E+01  0.12700000000E+01 0. -1.
         -4    1    1    2    0  501  0.18128476386E+01  0.84224151890E+00 -0.21247609246E+02  0.21379185812E+02  0.12700000000E+01 0. -1.
<mgrwt>
<rscale>  0 0.23682667E+01</rscale>
<asrwt>0</asrwt>
<pdfrwt beam="1">0</pdfrwt>
<pdfrwt beam="2">0</pdfrwt>
<totfact> 0.14355397E+12</totfact>
</mgrwt>
</event>
<event>
 4    1  0.1838758E+006  0.2823926E+01  0.7546771E-02  0.2580930E+00
         22   -1    0    0    0    0  0.00000000000E+00  0.00000000000E+00  0.19715886088E+01  0.19715886088E+01  0.00000000000E+00 0.  1.
         22   -1    0    0    0    0 -0.00000000000E+00 -0.00000000000E+00 -0.63880598004E+01  0.63880598004E+01  0.00000000000E+00 0.  1.
          4    1    1    2  501    0  0.72058215956E-02  0.25222227141E+01  0.32333182238E+00  0.28423762613E+01  0.12700000000E+01 0.  1.
         -4    1    1    2    0  501 -0.72058215956E-02 -0.25222227141E+01 -0.47398030139E+01  0.55172721479E+01  0.12700000000E+01 0.  1.
<mgrwt>
<rscale>  0 0.28239262E+01</rscale>
<asrwt>0</asrwt>
<pdfrwt beam="1">0</pdfrwt>
<pdfrwt beam="2">0</pdfrwt>
<totfact> 0.12461074E+12</totfact>
</mgrwt>
</event>
<event>
 4    1  0.1838758E+006  0.2281422E+01  0.7546771E-02  0.2813513E+00
         22   -1    0    0    0    0  0.00000000000E+00  0.00000000000E+00  0.10914857164E+02  0.10914857164E+02  0.00000000000E+00 0.  1.
         22   -1    0    0    0    0 -0.00000000000E+00 -0.00000000000E+00 -0.97716723421E+00  0.97716723421E+00  0.00000000000E+00 0. -1.
          4    1    1    2  501    0 -0.10427389381E+01 -0.15826179823E+01  0.92234449063E+01  0.95014114799E+01  0.12700000000E+01 0.  1.
         -4    1    1    2    0  501  0.10427389381E+01  0.15826179823E+01  0.71424502326E+00  0.23906129181E+01  0.12700000000E+01 0. -1.
<mgrwt>
<rscale>  0 0.22814215E+01</rscale>
<asrwt>0</asrwt>
<pdfrwt beam="1">0</pdfrwt>
<pdfrwt beam="2">0</pdfrwt>
<totfact> 0.14650420E+12</totfact>
</mgrwt>
</event>
<event>
 4    1  0.1838758E+006  0.2074033E+01  0.7546771E-02  0.2932484E+00
         22   -1    0    0    0    0  0.00000000000E+00  0.00000000000E+00  0.10747524627E+01  0.10747524627E+01  0.00000000000E+00 0. -1.
         22   -1    0    0    0    0 -0.00000000000E+00 -0.00000000000E+00 -0.48581662368E+01  0.48581662368E+01  0.00000000000E+00 0.  1.
          4    1    1    2  501    0 -0.16311315980E+01 -0.16770254987E+00 -0.64669400494E+00  0.21725164145E+01  0.12700000000E+01 0. -1.
         -4    1    1    2    0  501  0.16311315980E+01  0.16770254987E+00 -0.31367197691E+01  0.37604022850E+01  0.12700000000E+01 0.  1.
<mgrwt>
<rscale>  0 0.20740334E+01</rscale>
<asrwt>0</asrwt>
<pdfrwt beam="1">0</pdfrwt>
<pdfrwt beam="2">0</pdfrwt>
<totfact> 0.34656868E+12</totfact>
</mgrwt>
</event>
<event>
 4    1  0.1838758E+006  0.2699213E+01  0.7546771E-02  0.2626726E+00
         22   -1    0    0    0    0  0.00000000000E+00  0.00000000000E+00  0.22835323836E+02  0.22835323836E+02  0.00000000000E+00 0.  1.
         22   -1    0    0    0    0 -0.00000000000E+00 -0.00000000000E+00 -0.32323350232E+00  0.32323350232E+00  0.00000000000E+00 0.  1.
          4    1    1    2  501    0 -0.23810051796E+01  0.60551028005E-01  0.12572391799E+02  0.12858879720E+02  0.12700000000E+01 0.  1.
         -4    1    1    2    0  501  0.23810051796E+01 -0.60551028005E-01  0.99396985347E+01  0.10299677619E+02  0.12700000000E+01 0.  1.
<mgrwt>
<rscale>  0 0.26992132E+01</rscale>
<asrwt>0</asrwt>
<pdfrwt beam="1">0</pdfrwt>
<pdfrwt beam="2">0</pdfrwt>
<totfact> 0.20601092E+12</totfact>
</mgrwt>
</event>
<event>
 4    1  0.1838758E+006  0.2511118E+01  0.7546771E-02  0.2703649E+00
         22   -1    0    0    0    0  0.00000000000E+00  0.00000000000E+00  0.12483118338E+01  0.12483118338E+01  0.00000000000E+00 0.  1.
         22   -1    0    0    0    0 -0.00000000000E+00 -0.00000000000E+00 -0.87994344203E+01  0.87994344203E+01  0.00000000000E+00 0. -1.
          4    1    1    2  501    0 -0.68773407567E+00 -0.20542243835E+01 -0.49677306627E+00  0.25597850410E+01  0.12700000000E+01 0.  1.
         -4    1    1    2    0  501  0.68773407567E+00  0.20542243835E+01 -0.70543495202E+01  0.74879612131E+01  0.12700000000E+01 0. -1.
<mgrwt>
<rscale>  0 0.25111185E+01</rscale>
<asrwt>0</asrwt>
<pdfrwt beam="1">0</pdfrwt>
<pdfrwt beam="2">0</pdfrwt>
<totfact> 0.14368370E+12</totfact>
</mgrwt>
</event>
<event>
 4    1  0.1838758E+006  0.2000077E+01  0.7546771E-02  0.2980677E+00
         22   -1    0    0    0    0  0.00000000000E+00  0.00000000000E+00  0.36140055167E+02  0.36140055167E+02  0.00000000000E+00 0.  1.
         22   -1    0    0    0    0 -0.00000000000E+00 -0.00000000000E+00 -0.39284239617E+00  0.39284239617E+00  0.00000000000E+00 0.  1.
          4    1    1    2  501    0 -0.15226363016E+01  0.26265046978E+00  0.33354199237E+02  0.33414112488E+02  0.12700000000E+01 0.  1.
         -4    1    1    2    0  501  0.15226363016E+01 -0.26265046978E+00  0.23930135339E+01  0.31187850759E+01  0.12700000000E+01 0.  1.
<mgrwt>
<rscale>  0 0.20000766E+01</rscale>
<asrwt>0</asrwt>
<pdfrwt beam="1">0</pdfrwt>
<pdfrwt beam="2">0</pdfrwt>
<totfact> 0.92282759E+11</totfact>
</mgrwt>
</event>
<event>
 4    1  0.1838758E+006  0.2898081E+01  0.7546771E-02  0.2555402E+00
         22   -1    0    0    0    0  0.00000000000E+00  0.00000000000E+00  0.57696785611E+01  0.57696785611E+01  0.00000000000E+00 0. -1.
         22   -1    0    0    0    0 -0.00000000000E+00 -0.00000000000E+00 -0.53241898360E+01  0.53241898360E+01  0.00000000000E+00 0.  1.
          4    1    1    2  501    0  0.15707814927E+01  0.20781292454E+01  0.49509615787E+01  0.57368019150E+01  0.12700000000E+01 0. -1.
         -4    1    1    2    0  501 -0.15707814927E+01 -0.20781292454E+01 -0.45054728536E+01  0.53570664821E+01  0.12700000000E+01 0.  1.
<mgrwt>
<rscale>  0 0.28980814E+01</rscale>
<asrwt>0</asrwt>
<pdfrwt beam="1">0</pdfrwt>
<pdfrwt beam="2">0</pdfrwt>
<totfact> 0.43962564E+11</totfact>
</mgrwt>
</event>
<event>
 4    1  0.1838758E+006  0.2537229E+01  0.7546771E-02  0.2692341E+00
         22   -1    0    0    0    0  0.00000000000E+00  0.00000000000E+00  0.20928249235E+00  0.20928249235E+00  0.00000000000E+00 0. -1.
         22   -1    0    0    0    0 -0.00000000000E+00 -0.00000000000E+00 -0.42818523908E+02  0.42818523908E+02  0.00000000000E+00 0.  1.
          4    1    1    2  501    0 -0.38444893816E+00 -0.21625976460E+01 -0.98876620040E+01  0.10208006146E+02  0.12700000000E+01 0. -1.
         -4    1    1    2    0  501  0.38444893816E+00  0.21625976460E+01 -0.32721579412E+02  0.32819800255E+02  0.12700000000E+01 0.  1.
<mgrwt>
<rscale>  0 0.25372287E+01</rscale>
<asrwt>0</asrwt>
<pdfrwt beam="1">0</pdfrwt>
<pdfrwt beam="2">0</pdfrwt>
<totfact> 0.15003007E+12</totfact>
</mgrwt>
</event>
<event>
 4    1  0.1838758E+006  0.5957853E+01  0.7546771E-02  0.2023488E+00
         22   -1    0    0    0    0  0.00000000000E+00  0.00000000000E+00  0.56981195112E+01  0.56981195112E+01  0.00000000000E+00 0.  1.
         22   -1    0    0    0    0 -0.00000000000E+00 -0.00000000000E+00 -0.94778246281E+01  0.94778246281E+01  0.00000000000E+00 0. -1.
          4    1    1    2  501    0 -0.51422943039E+01 -0.27276220874E+01  0.25524287702E+01  0.64815820280E+01  0.12700000000E+01 0.  1.
         -4    1    1    2    0  501  0.51422943039E+01  0.27276220874E+01 -0.63321338871E+01  0.86943621113E+01  0.12700000000E+01 0. -1.
<mgrwt>
<rscale>  0 0.59578530E+01</rscale>
<asrwt>0</asrwt>
<pdfrwt beam="1">0</pdfrwt>
<pdfrwt beam="2">0</pdfrwt>
<totfact> 0.22374650E+11</totfact>
</mgrwt>
</event>
<event>
 4    1  0.1838758E+006  0.4119670E+01  0.7546771E-02  0.2254987E+00
         22   -1    0    0    0    0  0.00000000000E+00  0.00000000000E+00  0.94084145775E+00  0.94084145775E+00  0.00000000000E+00 0. -1.
         22   -1    0    0    0    0 -0.00000000000E+00 -0.00000000000E+00 -0.43421791812E+02  0.43421791812E+02  0.00000000000E+00 0.  1.
          4    1    1    2  501    0 -0.34266652778E+01  0.19017752350E+01 -0.42813066845E+01  0.59414872631E+01  0.12700000000E+01 0. -1.
         -4    1    1    2    0  501  0.34266652778E+01 -0.19017752350E+01 -0.38199643669E+02  0.38421146006E+02  0.12700000000E+01 0.  1.
<mgrwt>
<rscale>  0 0.41196704E+01</rscale>
<asrwt>0</asrwt>
<pdfrwt beam="1">0</pdfrwt>
<pdfrwt beam="2">0</pdfrwt>
<totfact> 0.27048501E+11</totfact>
</mgrwt>
</event>
<event>
 4    1  0.1838758E+006  0.2025409E+01  0.7546771E-02  0.2963782E+00
         22   -1    0    0    0    0  0.00000000000E+00  0.00000000000E+00  0.39897253752E+00  0.39897253752E+00  0.00000000000E+00 0.  1.
         22   -1    0    0    0    0 -0.00000000000E+00 -0.00000000000E+00 -0.11389915096E+02  0.11389915096E+02  0.00000000000E+00 0.  1.
          4    1    1    2  501    0 -0.13310529093E+01  0.84716003302E+00 -0.73337572142E+01  0.76083031516E+01  0.12700000000E+01 0.  1.
         -4    1    1    2    0  501  0.13310529093E+01 -0.84716003302E+00 -0.36571853444E+01  0.41805844821E+01  0.12700000000E+01 0.  1.
<mgrwt>
<rscale>  0 0.20254091E+01</rscale>
<asrwt>0</asrwt>
<pdfrwt beam="1">0</pdfrwt>
<pdfrwt beam="2">0</pdfrwt>
<totfact> 0.38386465E+12</totfact>
</mgrwt>
</event>
<event>
 4    1  0.1838758E+006  0.2362329E+01  0.7546771E-02  0.2772522E+00
         22   -1    0    0    0    0  0.00000000000E+00  0.00000000000E+00  0.24760233757E+00  0.24760233757E+00  0.00000000000E+00 0.  1.
         22   -1    0    0    0    0 -0.00000000000E+00 -0.00000000000E+00 -0.32919073428E+02  0.32919073428E+02  0.00000000000E+00 0. -1.
          4    1    1    2  501    0 -0.11769697571E+00 -0.19884284316E+01 -0.70234226473E+01  0.74100651744E+01  0.12700000000E+01 0.  1.
         -4    1    1    2    0  501  0.11769697571E+00  0.19884284316E+01 -0.25648048443E+02  0.25756610592E+02  0.12700000000E+01 0. -1.
<mgrwt>
<rscale>  0 0.23623294E+01</rscale>
<asrwt>0</asrwt>
<pdfrwt beam="1">0</pdfrwt>
<pdfrwt beam="2">0</pdfrwt>
<totfact> 0.17464751E+12</totfact>
</mgrwt>
</event>
<event>
 4    1  0.1838758E+006  0.2567938E+01  0.7546771E-02  0.2679315E+00
         22   -1    0    0    0    0  0.00000000000E+00  0.00000000000E+00  0.92626950942E+01  0.92626950942E+01  0.00000000000E+00 0.  1.
         22   -1    0    0    0    0 -0.00000000000E+00 -0.00000000000E+00 -0.12542136309E+01  0.12542136309E+01  0.00000000000E+00 0.  1.
          4    1    1    2  501    0 -0.21981730844E+01  0.38657875725E+00  0.74619554920E+01  0.78914566341E+01  0.12700000000E+01 0.  1.
         -4    1    1    2    0  501  0.21981730844E+01 -0.38657875725E+00  0.54652597136E+00  0.26254520909E+01  0.12700000000E+01 0.  1.
<mgrwt>
<rscale>  0 0.25679385E+01</rscale>
<asrwt>0</asrwt>
<pdfrwt beam="1">0</pdfrwt>
<pdfrwt beam="2">0</pdfrwt>
<totfact> 0.13433146E+12</totfact>
</mgrwt>
</event>
<event>
 4    1  0.1838758E+006  0.2994157E+01  0.7546771E-02  0.2524030E+00
         22   -1    0    0    0    0  0.00000000000E+00  0.00000000000E+00  0.25945352728E+01  0.25945352728E+01  0.00000000000E+00 0. -1.
         22   -1    0    0    0    0 -0.00000000000E+00 -0.00000000000E+00 -0.34663087015E+01  0.34663087015E+01  0.00000000000E+00 0.  1.
          4    1    1    2  501    0  0.31633969546E+00  0.26929546560E+01 -0.26533941682E+00  0.30058909808E+01  0.12700000000E+01 0. -1.
         -4    1    1    2    0  501 -0.31633969546E+00 -0.26929546560E+01 -0.60643401184E+00  0.30549529936E+01  0.12700000000E+01 0.  1.
<mgrwt>
<rscale>  0 0.29941569E+01</rscale>
<asrwt>0</asrwt>
<pdfrwt beam="1">0</pdfrwt>
<pdfrwt beam="2">0</pdfrwt>
<totfact> 0.18665067E+12</totfact>
</mgrwt>
</event>
<event>
 4    1  0.1838758E+006  0.4648117E+01  0.7546771E-02  0.2168241E+00
         22   -1    0    0    0    0  0.00000000000E+00  0.00000000000E+00  0.14398690433E+01  0.14398690433E+01  0.00000000000E+00 0.  1.
         22   -1    0    0    0    0 -0.00000000000E+00 -0.00000000000E+00 -0.17640818034E+02  0.17640818034E+02  0.00000000000E+00 0. -1.
          4    1    1    2  501    0 -0.33580247706E+01  0.29522461445E+01 -0.44125967375E+01  0.64090559075E+01  0.12700000000E+01 0.  1.
         -4    1    1    2    0  501  0.33580247706E+01 -0.29522461445E+01 -0.11788352253E+02  0.12671631170E+02  0.12700000000E+01 0. -1.
<mgrwt>
<rscale>  0 0.46481166E+01</rscale>
<asrwt>0</asrwt>
<pdfrwt beam="1">0</pdfrwt>
<pdfrwt beam="2">0</pdfrwt>
<totfact> 0.52148321E+11</totfact>
</mgrwt>
</event>
<event>
 4    1  0.1838758E+006  0.2101732E+01  0.7546771E-02  0.2915285E+00
         22   -1    0    0    0    0  0.00000000000E+00  0.00000000000E+00  0.30247520583E+01  0.30247520583E+01  0.00000000000E+00 0. -1.
         22   -1    0    0    0    0 -0.00000000000E+00 -0.00000000000E+00 -0.38517437443E+01  0.38517437443E+01  0.00000000000E+00 0. -1.
          4    1    1    2  501    0 -0.19802968315E+00 -0.16628778168E+01  0.22956450063E+01  0.31124370490E+01  0.12700000000E+01 0. -1.
         -4    1    1    2    0  501  0.19802968315E+00  0.16628778168E+01 -0.31226366923E+01  0.37640587537E+01  0.12700000000E+01 0. -1.
<mgrwt>
<rscale>  0 0.21017322E+01</rscale>
<asrwt>0</asrwt>
<pdfrwt beam="1">0</pdfrwt>
<pdfrwt beam="2">0</pdfrwt>
<totfact> 0.13788809E+12</totfact>
</mgrwt>
</event>
<event>
 4    1  0.1838758E+006  0.2697781E+01  0.7546771E-02  0.2627275E+00
         22   -1    0    0    0    0  0.00000000000E+00  0.00000000000E+00  0.15508510267E+02  0.15508510267E+02  0.00000000000E+00 0.  1.
         22   -1    0    0    0    0 -0.00000000000E+00 -0.00000000000E+00 -0.47942529618E+00  0.47942529618E+00  0.00000000000E+00 0. -1.
          4    1    1    2  501    0  0.16590045745E+01  0.17066998131E+01  0.63523543997E+01  0.69014800478E+01  0.12700000000E+01 0.  1.
         -4    1    1    2    0  501 -0.16590045745E+01 -0.17066998131E+01  0.86767305714E+01  0.90864555157E+01  0.12700000000E+01 0. -1.
<mgrwt>
<rscale>  0 0.26977806E+01</rscale>
<asrwt>0</asrwt>
<pdfrwt beam="1">0</pdfrwt>
<pdfrwt beam="2">0</pdfrwt>
<totfact> 0.21388123E+12</totfact>
</mgrwt>
</event>
<event>
 4    1  0.1838758E+006  0.2145420E+01  0.7546771E-02  0.2889035E+00
         22   -1    0    0    0    0  0.00000000000E+00  0.00000000000E+00  0.70577197816E+02  0.70577197816E+02  0.00000000000E+00 0.  1.
         22   -1    0    0    0    0 -0.00000000000E+00 -0.00000000000E+00 -0.33358195333E+01  0.33358195333E+01  0.00000000000E+00 0.  1.
          4    1    1    2  501    0 -0.51481373760E+00  0.16507248340E+01  0.70214155785E+02  0.70246925187E+02  0.12700000000E+01 0.  1.
         -4    1    1    2    0  501  0.51481373760E+00 -0.16507248340E+01 -0.29727775023E+01  0.36660921620E+01  0.12700000000E+01 0.  1.
<mgrwt>
<rscale>  0 0.21454197E+01</rscale>
<asrwt>0</asrwt>
<pdfrwt beam="1">0</pdfrwt>
<pdfrwt beam="2">0</pdfrwt>
<totfact> 0.32854308E+10</totfact>
</mgrwt>
</event>
<event>
 4    1  0.1838758E+006  0.2612634E+01  0.7546771E-02  0.2660864E+00
         22   -1    0    0    0    0  0.00000000000E+00  0.00000000000E+00  0.37009397932E+02  0.37009397932E+02  0.00000000000E+00 0. -1.
         22   -1    0    0    0    0 -0.00000000000E+00 -0.00000000000E+00 -0.23298171620E+00  0.23298171620E+00  0.00000000000E+00 0.  1.
          4    1    1    2  501    0  0.12806102802E+01  0.18902369881E+01  0.26888283548E+02  0.27014915338E+02  0.12700000000E+01 0. -1.
         -4    1    1    2    0  501 -0.12806102802E+01 -0.18902369881E+01  0.98881326678E+01  0.10227464310E+02  0.12700000000E+01 0.  1.
<mgrwt>
<rscale>  0 0.26126344E+01</rscale>
<asrwt>0</asrwt>
<pdfrwt beam="1">0</pdfrwt>
<pdfrwt beam="2">0</pdfrwt>
<totfact> 0.16080542E+12</totfact>
</mgrwt>
</event>
<event>
 4    1  0.1838758E+006  0.2288050E+01  0.7546771E-02  0.2810051E+00
         22   -1    0    0    0    0  0.00000000000E+00  0.00000000000E+00  0.68798001443E+00  0.68798001443E+00  0.00000000000E+00 0. -1.
         22   -1    0    0    0    0 -0.00000000000E+00 -0.00000000000E+00 -0.82091737140E+01  0.82091737140E+01  0.00000000000E+00 0.  1.
          4    1    1    2  501    0 -0.19027607893E+01 -0.42139438433E-01 -0.25582385180E+01  0.34321653032E+01  0.12700000000E+01 0. -1.
         -4    1    1    2    0  501  0.19027607893E+01  0.42139438433E-01 -0.49629551816E+01  0.54649884252E+01  0.12700000000E+01 0.  1.
<mgrwt>
<rscale>  0 0.22880503E+01</rscale>
<asrwt>0</asrwt>
<pdfrwt beam="1">0</pdfrwt>
<pdfrwt beam="2">0</pdfrwt>
<totfact> 0.30818282E+12</totfact>
</mgrwt>
</event>
<event>
 4    1  0.1838758E+006  0.2269401E+01  0.7546771E-02  0.2819839E+00
         22   -1    0    0    0    0  0.00000000000E+00  0.00000000000E+00  0.28066877184E+02  0.28066877184E+02  0.00000000000E+00 0. -1.
         22   -1    0    0    0    0 -0.00000000000E+00 -0.00000000000E+00 -0.38082437758E+00  0.38082437758E+00  0.00000000000E+00 0. -1.
          4    1    1    2  501    0 -0.16256786071E+01  0.94575304181E+00  0.24081820359E+02  0.24188514868E+02  0.12700000000E+01 0. -1.
         -4    1    1    2    0  501  0.16256786071E+01 -0.94575304181E+00  0.36042324473E+01  0.42591866928E+01  0.12700000000E+01 0. -1.
<mgrwt>
<rscale>  0 0.22694007E+01</rscale>
<asrwt>0</asrwt>
<pdfrwt beam="1">0</pdfrwt>
<pdfrwt beam="2">0</pdfrwt>
<totfact> 0.13206197E+12</totfact>
</mgrwt>
</event>
<event>
 4    1  0.1838758E+006  0.2164810E+01  0.7546771E-02  0.2877711E+00
         22   -1    0    0    0    0  0.00000000000E+00  0.00000000000E+00  0.11110030263E+01  0.11110030263E+01  0.00000000000E+00 0.  1.
         22   -1    0    0    0    0 -0.00000000000E+00 -0.00000000000E+00 -0.46540873511E+01  0.46540873511E+01  0.00000000000E+00 0. -1.
          4    1    1    2  501    0 -0.16601508275E+01  0.56338516459E+00 -0.88935821009E+00  0.23403763884E+01  0.12700000000E+01 0.  1.
         -4    1    1    2    0  501  0.16601508275E+01 -0.56338516459E+00 -0.26537261147E+01  0.34247139889E+01  0.12700000000E+01 0. -1.
<mgrwt>
<rscale>  0 0.21648103E+01</rscale>
<asrwt>0</asrwt>
<pdfrwt beam="1">0</pdfrwt>
<pdfrwt beam="2">0</pdfrwt>
<totfact> 0.35104067E+12</totfact>
</mgrwt>
</event>
<event>
 4    1  0.1838758E+006  0.2111053E+01  0.7546771E-02  0.2909596E+00
         22   -1    0    0    0    0  0.00000000000E+00  0.00000000000E+00  0.14115985728E+00  0.14115985728E+00  0.00000000000E+00 0. -1.
         22   -1    0    0    0    0 -0.00000000000E+00 -0.00000000000E+00 -0.61081033165E+02  0.61081033165E+02  0.00000000000E+00 0.  1.
          4    1    1    2  501    0  0.12220809894E+01 -0.11619651636E+01 -0.91928962147E+01  0.94321729098E+01  0.12700000000E+01 0. -1.
         -4    1    1    2    0  501 -0.12220809894E+01  0.11619651636E+01 -0.51746977093E+02  0.51790020112E+02  0.12700000000E+01 0.  1.
<mgrwt>
<rscale>  0 0.21110531E+01</rscale>
<asrwt>0</asrwt>
<pdfrwt beam="1">0</pdfrwt>
<pdfrwt beam="2">0</pdfrwt>
<totfact> 0.14544870E+12</totfact>
</mgrwt>
</event>
<event>
 4    1  0.1838758E+006  0.4107369E+01  0.7546771E-02  0.2257229E+00
         22   -1    0    0    0    0  0.00000000000E+00  0.00000000000E+00  0.30558969350E+00  0.30558969350E+00  0.00000000000E+00 0. -1.
         22   -1    0    0    0    0 -0.00000000000E+00 -0.00000000000E+00 -0.57815599548E+02  0.57815599548E+02  0.00000000000E+00 0.  1.
          4    1    1    2  501    0 -0.19904683590E+01  0.33608954890E+01 -0.22581352369E+02  0.22951861746E+02  0.12700000000E+01 0.  1.
         -4    1    1    2    0  501  0.19904683590E+01 -0.33608954890E+01 -0.34928657485E+02  0.35169327495E+02  0.12700000000E+01 0. -1.
<mgrwt>
<rscale>  0 0.41073693E+01</rscale>
<asrwt>0</asrwt>
<pdfrwt beam="1">0</pdfrwt>
<pdfrwt beam="2">0</pdfrwt>
<totfact> 0.66113171E+11</totfact>
</mgrwt>
</event>
<event>
 4    1  0.1838758E+006  0.2608367E+01  0.7546771E-02  0.2662600E+00
         22   -1    0    0    0    0  0.00000000000E+00  0.00000000000E+00  0.44378787498E+01  0.44378787498E+01  0.00000000000E+00 0. -1.
         22   -1    0    0    0    0 -0.00000000000E+00 -0.00000000000E+00 -0.15331050006E+01  0.15331050006E+01  0.00000000000E+00 0.  1.
          4    1    1    2  501    0 -0.21723174094E+01  0.68681605287E+00  0.14381423462E+01  0.29785621742E+01  0.12700000000E+01 0.  1.
         -4    1    1    2    0  501  0.21723174094E+01 -0.68681605287E+00  0.14666314029E+01  0.29924215762E+01  0.12700000000E+01 0. -1.
<mgrwt>
<rscale>  0 0.26083672E+01</rscale>
<asrwt>0</asrwt>
<pdfrwt beam="1">0</pdfrwt>
<pdfrwt beam="2">0</pdfrwt>
<totfact> 0.25661415E+12</totfact>
</mgrwt>
</event>
<event>
 4    1  0.1838758E+006  0.2147613E+01  0.7546771E-02  0.2887744E+00
         22   -1    0    0    0    0  0.00000000000E+00  0.00000000000E+00  0.53794253351E+01  0.53794253351E+01  0.00000000000E+00 0.  1.
         22   -1    0    0    0    0 -0.00000000000E+00 -0.00000000000E+00 -0.13822145334E+01  0.13822145334E+01  0.00000000000E+00 0. -1.
          4    1    1    2  501    0  0.16568455406E+01  0.50418732531E+00  0.40818640007E+01  0.46123590194E+01  0.12700000000E+01 0.  1.
         -4    1    1    2    0  501 -0.16568455406E+01 -0.50418732531E+00 -0.84653198968E-01  0.21492808491E+01  0.12700000000E+01 0. -1.
<mgrwt>
<rscale>  0 0.21476131E+01</rscale>
<asrwt>0</asrwt>
<pdfrwt beam="1">0</pdfrwt>
<pdfrwt beam="2">0</pdfrwt>
<totfact> 0.23021152E+12</totfact>
</mgrwt>
</event>
<event>
 4    1  0.1838758E+006  0.2029314E+01  0.7546771E-02  0.2961215E+00
         22   -1    0    0    0    0  0.00000000000E+00  0.00000000000E+00  0.24912834145E+01  0.24912834145E+01  0.00000000000E+00 0. -1.
         22   -1    0    0    0    0 -0.00000000000E+00 -0.00000000000E+00 -0.17137073941E+01  0.17137073941E+01  0.00000000000E+00 0. -1.
          4    1    1    2  501    0 -0.14773105297E+01  0.56812577679E+00  0.78447902722E+00  0.21756655634E+01  0.12700000000E+01 0. -1.
         -4    1    1    2    0  501  0.14773105297E+01 -0.56812577679E+00 -0.69030068383E-02  0.20293252452E+01  0.12700000000E+01 0. -1.
<mgrwt>
<rscale>  0 0.20293135E+01</rscale>
<asrwt>0</asrwt>
<pdfrwt beam="1">0</pdfrwt>
<pdfrwt beam="2">0</pdfrwt>
<totfact> 0.44382350E+12</totfact>
</mgrwt>
</event>
<event>
 4    1  0.1838758E+006  0.2725132E+01  0.7546771E-02  0.2616894E+00
         22   -1    0    0    0    0  0.00000000000E+00  0.00000000000E+00  0.26830760195E+02  0.26830760195E+02  0.00000000000E+00 0.  1.
         22   -1    0    0    0    0 -0.00000000000E+00 -0.00000000000E+00 -0.11466291389E+01  0.11466291389E+01  0.00000000000E+00 0. -1.
          4    1    1    2  501    0 -0.23633599586E+01 -0.47746567678E+00  0.25025970435E+02  0.25173905935E+02  0.12700000000E+01 0.  1.
         -4    1    1    2    0  501  0.23633599586E+01  0.47746567678E+00  0.65816062034E+00  0.28034833990E+01  0.12700000000E+01 0. -1.
<mgrwt>
<rscale>  0 0.27251319E+01</rscale>
<asrwt>0</asrwt>
<pdfrwt beam="1">0</pdfrwt>
<pdfrwt beam="2">0</pdfrwt>
<totfact> 0.40050061E+11</totfact>
</mgrwt>
</event>
<event>
 4    1  0.1838758E+006  0.2315549E+01  0.7546771E-02  0.2795892E+00
         22   -1    0    0    0    0  0.00000000000E+00  0.00000000000E+00  0.57133088169E+01  0.57133088169E+01  0.00000000000E+00 0. -1.
         22   -1    0    0    0    0 -0.00000000000E+00 -0.00000000000E+00 -0.10289027571E+01  0.10289027571E+01  0.00000000000E+00 0. -1.
          4    1    1    2  501    0  0.19350876037E+01 -0.65583769866E-01  0.33416267211E+01  0.40654931322E+01  0.12700000000E+01 0. -1.
         -4    1    1    2    0  501 -0.19350876037E+01  0.65583769866E-01  0.13427793387E+01  0.26767184419E+01  0.12700000000E+01 0. -1.
<mgrwt>
<rscale>  0 0.23155486E+01</rscale>
<asrwt>0</asrwt>
<pdfrwt beam="1">0</pdfrwt>
<pdfrwt beam="2">0</pdfrwt>
<totfact> 0.30057549E+12</totfact>
</mgrwt>
</event>
<event>
 4    1  0.1838758E+006  0.2380238E+01  0.7546771E-02  0.2763805E+00
         22   -1    0    0    0    0  0.00000000000E+00  0.00000000000E+00  0.28959840099E+01  0.28959840099E+01  0.00000000000E+00 0.  1.
         22   -1    0    0    0    0 -0.00000000000E+00 -0.00000000000E+00 -0.79213547802E+01  0.79213547802E+01  0.00000000000E+00 0. -1.
          4    1    1    2  501    0 -0.14845203087E+01 -0.13597185520E+01  0.21808099831E+01  0.32282297424E+01  0.12700000000E+01 0.  1.
         -4    1    1    2    0  501  0.14845203087E+01  0.13597185520E+01 -0.72061807534E+01  0.75891090477E+01  0.12700000000E+01 0. -1.
<mgrwt>
<rscale>  0 0.23802385E+01</rscale>
<asrwt>0</asrwt>
<pdfrwt beam="1">0</pdfrwt>
<pdfrwt beam="2">0</pdfrwt>
<totfact> 0.61615145E+11</totfact>
</mgrwt>
</event>
<event>
 4    1  0.1838758E+006  0.2015951E+01  0.7546771E-02  0.2970041E+00
         22   -1    0    0    0    0  0.00000000000E+00  0.00000000000E+00  0.63229908353E+00  0.63229908353E+00  0.00000000000E+00 0.  1.
         22   -1    0    0    0    0 -0.00000000000E+00 -0.00000000000E+00 -0.66361290572E+01  0.66361290572E+01  0.00000000000E+00 0. -1.
          4    1    1    2  501    0 -0.63915061407E+00 -0.14292114129E+01 -0.36463991230E+01  0.41665675723E+01  0.12700000000E+01 0. -1.
         -4    1    1    2    0  501  0.63915061407E+00  0.14292114129E+01 -0.23574308506E+01  0.31018605684E+01  0.12700000000E+01 0.  1.
<mgrwt>
<rscale>  0 0.20159511E+01</rscale>
<asrwt>0</asrwt>
<pdfrwt beam="1">0</pdfrwt>
<pdfrwt beam="2">0</pdfrwt>
<totfact> 0.43756724E+12</totfact>
</mgrwt>
</event>
<event>
 4    1  0.1838758E+006  0.2545342E+01  0.7546771E-02  0.2688872E+00
         22   -1    0    0    0    0  0.00000000000E+00  0.00000000000E+00  0.20890561626E+00  0.20890561626E+00  0.00000000000E+00 0.  1.
         22   -1    0    0    0    0 -0.00000000000E+00 -0.00000000000E+00 -0.31780492830E+02  0.31780492830E+02  0.00000000000E+00 0.  1.
          4    1    1    2  501    0  0.14457326268E+00 -0.22011274947E+01 -0.13299980866E+02  0.13541353504E+02  0.12700000000E+01 0.  1.
         -4    1    1    2    0  501 -0.14457326268E+00  0.22011274947E+01 -0.18271606348E+02  0.18448044943E+02  0.12700000000E+01 0.  1.
<mgrwt>
<rscale>  0 0.25453416E+01</rscale>
<asrwt>0</asrwt>
<pdfrwt beam="1">0</pdfrwt>
<pdfrwt beam="2">0</pdfrwt>
<totfact> 0.22090382E+12</totfact>
</mgrwt>
</event>
<event>
 4    1  0.1838758E+006  0.2661126E+01  0.7546771E-02  0.2641492E+00
         22   -1    0    0    0    0  0.00000000000E+00  0.00000000000E+00  0.48429489106E+01  0.48429489106E+01  0.00000000000E+00 0.  1.
         22   -1    0    0    0    0 -0.00000000000E+00 -0.00000000000E+00 -0.18266787053E+01  0.18266787053E+01  0.00000000000E+00 0.  1.
          4    1    1    2  501    0 -0.20724938717E+01  0.10832635068E+01  0.29976614725E+01  0.40084367249E+01  0.12700000000E+01 0.  1.
         -4    1    1    2    0  501  0.20724938717E+01 -0.10832635068E+01  0.18608732811E-01  0.26611908910E+01  0.12700000000E+01 0.  1.
<mgrwt>
<rscale>  0 0.26611258E+01</rscale>
<asrwt>0</asrwt>
<pdfrwt beam="1">0</pdfrwt>
<pdfrwt beam="2">0</pdfrwt>
<totfact> 0.18911176E+12</totfact>
</mgrwt>
</event>
<event>
 4    1  0.1838758E+006  0.2014051E+01  0.7546771E-02  0.2971306E+00
         22   -1    0    0    0    0  0.00000000000E+00  0.00000000000E+00  0.59993871659E+00  0.59993871659E+00  0.00000000000E+00 0. -1.
         22   -1    0    0    0    0 -0.00000000000E+00 -0.00000000000E+00 -0.17143017766E+02  0.17143017766E+02  0.00000000000E+00 0. -1.
          4    1    1    2  501    0  0.60687943945E+00  0.14405552892E+01 -0.13677794684E+01  0.24345888502E+01  0.12700000000E+01 0. -1.
         -4    1    1    2    0  501 -0.60687943945E+00 -0.14405552892E+01 -0.15175299581E+02  0.15308367632E+02  0.12700000000E+01 0. -1.
<mgrwt>
<rscale>  0 0.20140512E+01</rscale>
<asrwt>0</asrwt>
<pdfrwt beam="1">0</pdfrwt>
<pdfrwt beam="2">0</pdfrwt>
<totfact> 0.14665098E+12</totfact>
</mgrwt>
</event>
<event>
 4    1  0.1838758E+006  0.2210908E+01  0.7546771E-02  0.2851559E+00
         22   -1    0    0    0    0  0.00000000000E+00  0.00000000000E+00  0.48871796754E+02  0.48871796754E+02  0.00000000000E+00 0.  1.
         22   -1    0    0    0    0 -0.00000000000E+00 -0.00000000000E+00 -0.14916653867E+00  0.14916653867E+00  0.00000000000E+00 0. -1.
          4    1    1    2  501    0  0.46420392781E+00  0.17492076740E+01  0.10292205406E+02  0.10526994105E+02  0.12700000000E+01 0. -1.
         -4    1    1    2    0  501 -0.46420392781E+00 -0.17492076740E+01  0.38430424809E+02  0.38493969188E+02  0.12700000000E+01 0.  1.
<mgrwt>
<rscale>  0 0.22109077E+01</rscale>
<asrwt>0</asrwt>
<pdfrwt beam="1">0</pdfrwt>
<pdfrwt beam="2">0</pdfrwt>
<totfact> 0.18396450E+12</totfact>
</mgrwt>
</event>
<event>
 4    1  0.1838758E+006  0.2827832E+01  0.7546771E-02  0.2579555E+00
         22   -1    0    0    0    0  0.00000000000E+00  0.00000000000E+00  0.16959131739E+02  0.16959131739E+02  0.00000000000E+00 0.  1.
         22   -1    0    0    0    0 -0.00000000000E+00 -0.00000000000E+00 -0.47191507819E+00  0.47191507819E+00  0.00000000000E+00 0.  1.
          4    1    1    2  501    0 -0.16705870192E+01 -0.18954881302E+01  0.84945304578E+01  0.89528589813E+01  0.12700000000E+01 0.  1.
         -4    1    1    2    0  501  0.16705870192E+01  0.18954881302E+01  0.79926862026E+01  0.84781878355E+01  0.12700000000E+01 0.  1.
<mgrwt>
<rscale>  0 0.28278324E+01</rscale>
<asrwt>0</asrwt>
<pdfrwt beam="1">0</pdfrwt>
<pdfrwt beam="2">0</pdfrwt>
<totfact> 0.19496619E+12</totfact>
</mgrwt>
</event>
<event>
 4    1  0.1838758E+006  0.2024596E+01  0.7546771E-02  0.2964318E+00
         22   -1    0    0    0    0  0.00000000000E+00  0.00000000000E+00  0.14141236886E+00  0.14141236886E+00  0.00000000000E+00 0.  1.
         22   -1    0    0    0    0 -0.00000000000E+00 -0.00000000000E+00 -0.45886126386E+02  0.45886126386E+02  0.00000000000E+00 0.  1.
          4    1    1    2  501    0 -0.15111336177E+01 -0.45007048911E+00 -0.89057412103E+01  0.91329740370E+01  0.12700000000E+01 0. -1.
         -4    1    1    2    0  501  0.15111336177E+01  0.45007048911E+00 -0.36838972807E+02  0.36894564718E+02  0.12700000000E+01 0. -1.
<mgrwt>
<rscale>  0 0.20245958E+01</rscale>
<asrwt>0</asrwt>
<pdfrwt beam="1">0</pdfrwt>
<pdfrwt beam="2">0</pdfrwt>
<totfact> 0.21204752E+12</totfact>
</mgrwt>
</event>
<event>
 4    1  0.1838758E+006  0.2363120E+01  0.7546771E-02  0.2772135E+00
         22   -1    0    0    0    0  0.00000000000E+00  0.00000000000E+00  0.81538587511E+00  0.81538587511E+00  0.00000000000E+00 0. -1.
         22   -1    0    0    0    0 -0.00000000000E+00 -0.00000000000E+00 -0.79326489255E+01  0.79326489255E+01  0.00000000000E+00 0.  1.
          4    1    1    2  501    0  0.19259896133E+01  0.51185794089E+00 -0.19417601230E+01  0.30585563453E+01  0.12700000000E+01 0. -1.
         -4    1    1    2    0  501 -0.19259896133E+01 -0.51185794089E+00 -0.51755029275E+01  0.56894784554E+01  0.12700000000E+01 0.  1.
<mgrwt>
<rscale>  0 0.23631197E+01</rscale>
<asrwt>0</asrwt>
<pdfrwt beam="1">0</pdfrwt>
<pdfrwt beam="2">0</pdfrwt>
<totfact> 0.26475673E+12</totfact>
</mgrwt>
</event>
<event>
 4    1  0.1838758E+006  0.3170059E+01  0.7546771E-02  0.2471026E+00
         22   -1    0    0    0    0  0.00000000000E+00  0.00000000000E+00  0.45682328006E+01  0.45682328006E+01  0.00000000000E+00 0.  1.
         22   -1    0    0    0    0 -0.00000000000E+00 -0.00000000000E+00 -0.24213234442E+01  0.24213234442E+01  0.00000000000E+00 0. -1.
          4    1    1    2  501    0  0.28721551397E+01  0.43254963526E+00  0.21304833868E+01  0.38194546462E+01  0.12700000000E+01 0.  1.
         -4    1    1    2    0  501 -0.28721551397E+01 -0.43254963526E+00  0.16425969602E-01  0.31701015986E+01  0.12700000000E+01 0. -1.
<mgrwt>
<rscale>  0 0.31700590E+01</rscale>
<asrwt>0</asrwt>
<pdfrwt beam="1">0</pdfrwt>
<pdfrwt beam="2">0</pdfrwt>
<totfact> 0.14617817E+12</totfact>
</mgrwt>
</event>
<event>
 4    1  0.1838758E+006  0.2478915E+01  0.7546771E-02  0.2717899E+00
         22   -1    0    0    0    0  0.00000000000E+00  0.00000000000E+00  0.29574926555E+02  0.29574926555E+02  0.00000000000E+00 0.  1.
         22   -1    0    0    0    0 -0.00000000000E+00 -0.00000000000E+00 -0.21887836988E+00  0.21887836988E+00  0.00000000000E+00 0. -1.
          4    1    1    2  501    0 -0.17924251688E+01 -0.11486217448E+01  0.18032794024E+02  0.18202381169E+02  0.12700000000E+01 0.  1.
         -4    1    1    2    0  501  0.17924251688E+01  0.11486217448E+01  0.11323254161E+02  0.11591423756E+02  0.12700000000E+01 0. -1.
<mgrwt>
<rscale>  0 0.24789151E+01</rscale>
<asrwt>0</asrwt>
<pdfrwt beam="1">0</pdfrwt>
<pdfrwt beam="2">0</pdfrwt>
<totfact> 0.22985279E+12</totfact>
</mgrwt>
</event>
<event>
 4    1  0.1838758E+006  0.2151854E+01  0.7546771E-02  0.2885255E+00
         22   -1    0    0    0    0  0.00000000000E+00  0.00000000000E+00  0.15365243829E+01  0.15365243829E+01  0.00000000000E+00 0.  1.
         22   -1    0    0    0    0 -0.00000000000E+00 -0.00000000000E+00 -0.44523599461E+01  0.44523599461E+01  0.00000000000E+00 0. -1.
          4    1    1    2  501    0 -0.16557307833E+01 -0.52548151706E+00  0.24429731429E+00  0.21656768987E+01  0.12700000000E+01 0.  1.
         -4    1    1    2    0  501  0.16557307833E+01  0.52548151706E+00 -0.31601328775E+01  0.38232074303E+01  0.12700000000E+01 0. -1.
<mgrwt>
<rscale>  0 0.21518539E+01</rscale>
<asrwt>0</asrwt>
<pdfrwt beam="1">0</pdfrwt>
<pdfrwt beam="2">0</pdfrwt>
<totfact> 0.25496038E+12</totfact>
</mgrwt>
</event>
<event>
 4    1  0.1838758E+006  0.2087617E+01  0.7546771E-02  0.2923994E+00
         22   -1    0    0    0    0  0.00000000000E+00  0.00000000000E+00  0.98860892304E+00  0.98860892304E+00  0.00000000000E+00 0.  1.
         22   -1    0    0    0    0 -0.00000000000E+00 -0.00000000000E+00 -0.54931231561E+01  0.54931231561E+01  0.00000000000E+00 0. -1.
          4    1    1    2  501    0 -0.52017603789E+00 -0.15731053359E+01 -0.81206980295E+00  0.22400001949E+01  0.12700000000E+01 0.  1.
         -4    1    1    2    0  501  0.52017603789E+00  0.15731053359E+01 -0.36924444301E+01  0.42417318842E+01  0.12700000000E+01 0. -1.
<mgrwt>
<rscale>  0 0.20876167E+01</rscale>
<asrwt>0</asrwt>
<pdfrwt beam="1">0</pdfrwt>
<pdfrwt beam="2">0</pdfrwt>
<totfact> 0.32962891E+12</totfact>
</mgrwt>
</event>
<event>
 4    1  0.1838758E+006  0.2458023E+01  0.7546771E-02  0.2727331E+00
         22   -1    0    0    0    0  0.00000000000E+00  0.00000000000E+00  0.28298842616E+01  0.28298842616E+01  0.00000000000E+00 0. -1.
         22   -1    0    0    0    0 -0.00000000000E+00 -0.00000000000E+00 -0.57187787330E+01  0.57187787330E+01  0.00000000000E+00 0.  1.
          4    1    1    2  501    0  0.20952761130E+01 -0.19696031357E+00  0.19392040340E+01  0.31308764971E+01  0.12700000000E+01 0. -1.
         -4    1    1    2    0  501 -0.20952761130E+01  0.19696031357E+00 -0.48280985054E+01  0.54177864975E+01  0.12700000000E+01 0.  1.
<mgrwt>
<rscale>  0 0.24580227E+01</rscale>
<asrwt>0</asrwt>
<pdfrwt beam="1">0</pdfrwt>
<pdfrwt beam="2">0</pdfrwt>
<totfact> 0.93419877E+11</totfact>
</mgrwt>
</event>
<event>
 4    1  0.1838758E+006  0.2645590E+01  0.7546771E-02  0.2647627E+00
         22   -1    0    0    0    0  0.00000000000E+00  0.00000000000E+00  0.58273060540E+01  0.58273060540E+01  0.00000000000E+00 0.  1.
         22   -1    0    0    0    0 -0.00000000000E+00 -0.00000000000E+00 -0.16504762125E+01  0.16504762125E+01  0.00000000000E+00 0.  1.
          4    1    1    2  501    0 -0.17396633484E+01  0.15361706853E+01  0.40393623938E+01  0.48286227320E+01  0.12700000000E+01 0.  1.
         -4    1    1    2    0  501  0.17396633484E+01 -0.15361706853E+01  0.13746744774E+00  0.26491595345E+01  0.12700000000E+01 0.  1.
<mgrwt>
<rscale>  0 0.26455905E+01</rscale>
<asrwt>0</asrwt>
<pdfrwt beam="1">0</pdfrwt>
<pdfrwt beam="2">0</pdfrwt>
<totfact> 0.17070427E+12</totfact>
</mgrwt>
</event>
<event>
 4    1  0.1838758E+006  0.2193352E+01  0.7546771E-02  0.2861395E+00
         22   -1    0    0    0    0  0.00000000000E+00  0.00000000000E+00  0.12037774216E+01  0.12037774216E+01  0.00000000000E+00 0.  1.
         22   -1    0    0    0    0 -0.00000000000E+00 -0.00000000000E+00 -0.97337485113E+01  0.97337485113E+01  0.00000000000E+00 0. -1.
          4    1    1    2  501    0  0.17882163960E+01  0.13150284910E-01 -0.66388532725E-01  0.21943559981E+01  0.12700000000E+01 0.  1.
         -4    1    1    2    0  501 -0.17882163960E+01 -0.13150284910E-01 -0.84635825570E+01  0.87431699348E+01  0.12700000000E+01 0. -1.
<mgrwt>
<rscale>  0 0.21933515E+01</rscale>
<asrwt>0</asrwt>
<pdfrwt beam="1">0</pdfrwt>
<pdfrwt beam="2">0</pdfrwt>
<totfact> 0.13260254E+12</totfact>
</mgrwt>
</event>
<event>
 4    1  0.1838758E+006  0.3245085E+01  0.7546771E-02  0.2449979E+00
         22   -1    0    0    0    0  0.00000000000E+00  0.00000000000E+00  0.10017597597E+01  0.10017597597E+01  0.00000000000E+00 0.  1.
         22   -1    0    0    0    0 -0.00000000000E+00 -0.00000000000E+00 -0.10523555969E+02  0.10523555969E+02  0.00000000000E+00 0. -1.
          4    1    1    2  501    0 -0.11210740468E+01 -0.27678274195E+01 -0.49512225947E+01  0.59198970282E+01  0.12700000000E+01 0.  1.
         -4    1    1    2    0  501  0.11210740468E+01  0.27678274195E+01 -0.45705736151E+01  0.56054187010E+01  0.12700000000E+01 0. -1.
<mgrwt>
<rscale>  0 0.32450848E+01</rscale>
<asrwt>0</asrwt>
<pdfrwt beam="1">0</pdfrwt>
<pdfrwt beam="2">0</pdfrwt>
<totfact> 0.14886643E+12</totfact>
</mgrwt>
</event>
<event>
 4    1  0.1838758E+006  0.2263816E+01  0.7546771E-02  0.2822800E+00
         22   -1    0    0    0    0  0.00000000000E+00  0.00000000000E+00  0.17434639056E+01  0.17434639056E+01  0.00000000000E+00 0.  1.
         22   -1    0    0    0    0 -0.00000000000E+00 -0.00000000000E+00 -0.65631493965E+01  0.65631493965E+01  0.00000000000E+00 0. -1.
          4    1    1    2  501    0  0.10207704502E+01 -0.15716197223E+01  0.67627648564E+00  0.23626702581E+01  0.12700000000E+01 0.  1.
         -4    1    1    2    0  501 -0.10207704502E+01  0.15716197223E+01 -0.54959619765E+01  0.59439430440E+01  0.12700000000E+01 0. -1.
<mgrwt>
<rscale>  0 0.22638156E+01</rscale>
<asrwt>0</asrwt>
<pdfrwt beam="1">0</pdfrwt>
<pdfrwt beam="2">0</pdfrwt>
<totfact> 0.13907101E+12</totfact>
</mgrwt>
</event>
<event>
 4    1  0.1838758E+006  0.2264481E+01  0.7546771E-02  0.2822447E+00
         22   -1    0    0    0    0  0.00000000000E+00  0.00000000000E+00  0.27046144375E+01  0.27046144375E+01  0.00000000000E+00 0. -1.
         22   -1    0    0    0    0 -0.00000000000E+00 -0.00000000000E+00 -0.24068029904E+01  0.24068029904E+01  0.00000000000E+00 0.  1.
          4    1    1    2  501    0 -0.16068249496E+01  0.96596509944E+00  0.13263203489E+01  0.26243095587E+01  0.12700000000E+01 0. -1.
         -4    1    1    2    0  501  0.16068249496E+01 -0.96596509944E+00 -0.10285089019E+01  0.24871078692E+01  0.12700000000E+01 0.  1.
<mgrwt>
<rscale>  0 0.22644812E+01</rscale>
<asrwt>0</asrwt>
<pdfrwt beam="1">0</pdfrwt>
<pdfrwt beam="2">0</pdfrwt>
<totfact> 0.27220893E+12</totfact>
</mgrwt>
</event>
<event>
 4    1  0.1838758E+006  0.2088165E+01  0.7546771E-02  0.2923654E+00
         22   -1    0    0    0    0  0.00000000000E+00  0.00000000000E+00  0.23193806047E+01  0.23193806047E+01  0.00000000000E+00 0.  1.
         22   -1    0    0    0    0 -0.00000000000E+00 -0.00000000000E+00 -0.45341156036E+01  0.45341156036E+01  0.00000000000E+00 0. -1.
          4    1    1    2  501    0  0.12451021814E+01 -0.10941908153E+01  0.15144103773E+01  0.25795099870E+01  0.12700000000E+01 0.  1.
         -4    1    1    2    0  501 -0.12451021814E+01  0.10941908153E+01 -0.37291453762E+01  0.42739862212E+01  0.12700000000E+01 0. -1.
<mgrwt>
<rscale>  0 0.20881650E+01</rscale>
<asrwt>0</asrwt>
<pdfrwt beam="1">0</pdfrwt>
<pdfrwt beam="2">0</pdfrwt>
<totfact> 0.15502081E+12</totfact>
</mgrwt>
</event>
<event>
 4    1  0.1838758E+006  0.2060253E+01  0.7546771E-02  0.2941207E+00
         22   -1    0    0    0    0  0.00000000000E+00  0.00000000000E+00  0.10410494559E+01  0.10410494559E+01  0.00000000000E+00 0. -1.
         22   -1    0    0    0    0 -0.00000000000E+00 -0.00000000000E+00 -0.45367085711E+01  0.45367085711E+01  0.00000000000E+00 0. -1.
          4    1    1    2  501    0 -0.16185554984E+00  0.16141704660E+01 -0.26353354302E+01  0.33450913802E+01  0.12700000000E+01 0. -1.
         -4    1    1    2    0  501  0.16185554984E+00 -0.16141704660E+01 -0.86032368502E+00  0.22326666467E+01  0.12700000000E+01 0. -1.
<mgrwt>
<rscale>  0 0.20602533E+01</rscale>
<asrwt>0</asrwt>
<pdfrwt beam="1">0</pdfrwt>
<pdfrwt beam="2">0</pdfrwt>
<totfact> 0.38971256E+12</totfact>
</mgrwt>
</event>
<event>
 4    1  0.1838758E+006  0.2634184E+01  0.7546771E-02  0.2652174E+00
         22   -1    0    0    0    0  0.00000000000E+00  0.00000000000E+00  0.25593194672E+01  0.25593194672E+01  0.00000000000E+00 0. -1.
         22   -1    0    0    0    0 -0.00000000000E+00 -0.00000000000E+00 -0.28925641317E+01  0.28925641317E+01  0.00000000000E+00 0. -1.
          4    1    1    2  501    0 -0.23032494262E+01  0.14514085857E+00  0.51588208847E+00  0.26842239321E+01  0.12700000000E+01 0. -1.
         -4    1    1    2    0  501  0.23032494262E+01 -0.14514085857E+00 -0.84912675299E+00  0.27676596668E+01  0.12700000000E+01 0. -1.
<mgrwt>
<rscale>  0 0.26341837E+01</rscale>
<asrwt>0</asrwt>
<pdfrwt beam="1">0</pdfrwt>
<pdfrwt beam="2">0</pdfrwt>
<totfact> 0.23434538E+12</totfact>
</mgrwt>
</event>
<event>
 4    1  0.1838758E+006  0.2680742E+01  0.7546771E-02  0.2633839E+00
         22   -1    0    0    0    0  0.00000000000E+00  0.00000000000E+00  0.14513024120E+02  0.14513024120E+02  0.00000000000E+00 0.  1.
         22   -1    0    0    0    0 -0.00000000000E+00 -0.00000000000E+00 -0.63405964009E+00  0.63405964009E+00  0.00000000000E+00 0.  1.
          4    1    1    2  501    0  0.98024792692E+00  0.21476943272E+01  0.10484128602E+02  0.10821429178E+02  0.12700000000E+01 0.  1.
         -4    1    1    2    0  501 -0.98024792692E+00 -0.21476943272E+01  0.33948358778E+01  0.43256545815E+01  0.12700000000E+01 0.  1.
<mgrwt>
<rscale>  0 0.26807419E+01</rscale>
<asrwt>0</asrwt>
<pdfrwt beam="1">0</pdfrwt>
<pdfrwt beam="2">0</pdfrwt>
<totfact> 0.16917123E+12</totfact>
</mgrwt>
</event>
<event>
 4    1  0.1838758E+006  0.4428622E+01  0.7546771E-02  0.2202156E+00
         22   -1    0    0    0    0  0.00000000000E+00  0.00000000000E+00  0.85102397509E+01  0.85102397509E+01  0.00000000000E+00 0.  1.
         22   -1    0    0    0    0 -0.00000000000E+00 -0.00000000000E+00 -0.23046227659E+01  0.23046227659E+01  0.00000000000E+00 0. -1.
          4    1    1    2  501    0 -0.37253654342E+01 -0.20301334932E+01  0.30854265488E+01  0.53974574205E+01  0.12700000000E+01 0.  1.
         -4    1    1    2    0  501  0.37253654342E+01  0.20301334932E+01  0.31201904363E+01  0.54174050963E+01  0.12700000000E+01 0. -1.
<mgrwt>
<rscale>  0 0.44286216E+01</rscale>
<asrwt>0</asrwt>
<pdfrwt beam="1">0</pdfrwt>
<pdfrwt beam="2">0</pdfrwt>
<totfact> 0.73744738E+11</totfact>
</mgrwt>
</event>
<event>
 4    1  0.1838758E+006  0.3215572E+01  0.7546771E-02  0.2458155E+00
         22   -1    0    0    0    0  0.00000000000E+00  0.00000000000E+00  0.38208982484E+01  0.38208982484E+01  0.00000000000E+00 0.  1.
         22   -1    0    0    0    0 -0.00000000000E+00 -0.00000000000E+00 -0.27579163617E+01  0.27579163617E+01  0.00000000000E+00 0. -1.
          4    1    1    2  501    0  0.17013086698E+01  0.24150671124E+01  0.98217964236E+00  0.33622280109E+01  0.12700000000E+01 0.  1.
         -4    1    1    2    0  501 -0.17013086698E+01 -0.24150671124E+01  0.80802244352E-01  0.32165865992E+01  0.12700000000E+01 0. -1.
<mgrwt>
<rscale>  0 0.32155715E+01</rscale>
<asrwt>0</asrwt>
<pdfrwt beam="1">0</pdfrwt>
<pdfrwt beam="2">0</pdfrwt>
<totfact> 0.15505356E+12</totfact>
</mgrwt>
</event>
<event>
 4    1  0.1838758E+006  0.2612464E+01  0.7546771E-02  0.2660933E+00
         22   -1    0    0    0    0  0.00000000000E+00  0.00000000000E+00  0.33196707551E+01  0.33196707551E+01  0.00000000000E+00 0. -1.
         22   -1    0    0    0    0 -0.00000000000E+00 -0.00000000000E+00 -0.85953481405E+01  0.85953481405E+01  0.00000000000E+00 0.  1.
          4    1    1    2  501    0  0.56278856146E+00  0.22125408333E+01  0.25585662329E+01  0.36566691226E+01  0.12700000000E+01 0. -1.
         -4    1    1    2    0  501 -0.56278856146E+00 -0.22125408333E+01 -0.78342436183E+01  0.82583497731E+01  0.12700000000E+01 0.  1.
<mgrwt>
<rscale>  0 0.26124640E+01</rscale>
<asrwt>0</asrwt>
<pdfrwt beam="1">0</pdfrwt>
<pdfrwt beam="2">0</pdfrwt>
<totfact> 0.47611941E+11</totfact>
</mgrwt>
</event>
<event>
 4    1  0.1838758E+006  0.9145123E+01  0.7546771E-02  0.1816519E+00
         22   -1    0    0    0    0  0.00000000000E+00  0.00000000000E+00  0.68458401174E+02  0.68458401174E+02  0.00000000000E+00 0.  1.
         22   -1    0    0    0    0 -0.00000000000E+00 -0.00000000000E+00 -0.12234514022E+01  0.12234514022E+01  0.00000000000E+00 0. -1.
          4    1    1    2  501    0 -0.90351610551E+01  0.62148058680E+00  0.34948583847E+02  0.36125292889E+02  0.12700000000E+01 0.  1.
         -4    1    1    2    0  501  0.90351610551E+01 -0.62148058680E+00  0.32286365926E+02  0.33556559688E+02  0.12700000000E+01 0. -1.
<mgrwt>
<rscale>  0 0.91451229E+01</rscale>
<asrwt>0</asrwt>
<pdfrwt beam="1">0</pdfrwt>
<pdfrwt beam="2">0</pdfrwt>
<totfact> 0.10940898E+11</totfact>
</mgrwt>
</event>
<event>
 4    1  0.1838758E+006  0.2604114E+01  0.7546771E-02  0.2664336E+00
         22   -1    0    0    0    0  0.00000000000E+00  0.00000000000E+00  0.12255085707E+01  0.12255085707E+01  0.00000000000E+00 0.  1.
         22   -1    0    0    0    0 -0.00000000000E+00 -0.00000000000E+00 -0.18005727424E+02  0.18005727424E+02  0.00000000000E+00 0. -1.
          4    1    1    2  501    0  0.99559921258E+00  0.20438430474E+01 -0.38729001531E+00  0.26327563029E+01  0.12700000000E+01 0.  1.
         -4    1    1    2    0  501 -0.99559921258E+00 -0.20438430474E+01 -0.16392928838E+02  0.16598479692E+02  0.12700000000E+01 0. -1.
<mgrwt>
<rscale>  0 0.26041145E+01</rscale>
<asrwt>0</asrwt>
<pdfrwt beam="1">0</pdfrwt>
<pdfrwt beam="2">0</pdfrwt>
<totfact> 0.61173713E+11</totfact>
</mgrwt>
</event>
<event>
 4    1  0.1838758E+006  0.3083996E+01  0.7546771E-02  0.2496285E+00
         22   -1    0    0    0    0  0.00000000000E+00  0.00000000000E+00  0.55351366120E+00  0.55351366120E+00  0.00000000000E+00 0. -1.
         22   -1    0    0    0    0 -0.00000000000E+00 -0.00000000000E+00 -0.17477368181E+02  0.17477368181E+02  0.00000000000E+00 0. -1.
          4    1    1    2  501    0  0.20796954915E+01  0.18902376946E+01 -0.96319263889E+01  0.10113606569E+02  0.12700000000E+01 0.  1.
         -4    1    1    2    0  501 -0.20796954915E+01 -0.18902376946E+01 -0.72919281313E+01  0.79172752732E+01  0.12700000000E+01 0.  1.
<mgrwt>
<rscale>  0 0.30839961E+01</rscale>
<asrwt>0</asrwt>
<pdfrwt beam="1">0</pdfrwt>
<pdfrwt beam="2">0</pdfrwt>
<totfact> 0.15686787E+12</totfact>
</mgrwt>
</event>
<event>
 4    1  0.1838758E+006  0.2454925E+01  0.7546771E-02  0.2728742E+00
         22   -1    0    0    0    0  0.00000000000E+00  0.00000000000E+00  0.53447668591E+00  0.53447668591E+00  0.00000000000E+00 0. -1.
         22   -1    0    0    0    0 -0.00000000000E+00 -0.00000000000E+00 -0.15890226849E+02  0.15890226849E+02  0.00000000000E+00 0.  1.
          4    1    1    2  501    0  0.17974949249E+01  0.10875525086E+01 -0.32523905442E+01  0.40748868348E+01  0.12700000000E+01 0. -1.
         -4    1    1    2    0  501 -0.17974949249E+01 -0.10875525086E+01 -0.12103359619E+02  0.12349816701E+02  0.12700000000E+01 0.  1.
<mgrwt>
<rscale>  0 0.24549253E+01</rscale>
<asrwt>0</asrwt>
<pdfrwt beam="1">0</pdfrwt>
<pdfrwt beam="2">0</pdfrwt>
<totfact> 0.18358003E+12</totfact>
</mgrwt>
</event>
<event>
 4    1  0.1838758E+006  0.3768378E+01  0.7546771E-02  0.2323884E+00
         22   -1    0    0    0    0  0.00000000000E+00  0.00000000000E+00  0.10606694346E+01  0.10606694346E+01  0.00000000000E+00 0. -1.
         22   -1    0    0    0    0 -0.00000000000E+00 -0.00000000000E+00 -0.13962854094E+02  0.13962854094E+02  0.00000000000E+00 0.  1.
          4    1    1    2  501    0 -0.34042388268E+01 -0.99946340185E+00 -0.79747293167E+01  0.88202594494E+01  0.12700000000E+01 0.  1.
         -4    1    1    2    0  501  0.34042388268E+01  0.99946340185E+00 -0.49274553424E+01  0.62032640789E+01  0.12700000000E+01 0. -1.
<mgrwt>
<rscale>  0 0.37683775E+01</rscale>
<asrwt>0</asrwt>
<pdfrwt beam="1">0</pdfrwt>
<pdfrwt beam="2">0</pdfrwt>
<totfact> 0.98770589E+11</totfact>
</mgrwt>
</event>
<event>
 4    1  0.1838758E+006  0.3357685E+01  0.7546771E-02  0.2419955E+00
         22   -1    0    0    0    0  0.00000000000E+00  0.00000000000E+00  0.27312827078E+02  0.27312827078E+02  0.00000000000E+00 0. -1.
         22   -1    0    0    0    0 -0.00000000000E+00 -0.00000000000E+00 -0.98326529968E+00  0.98326529968E+00  0.00000000000E+00 0.  1.
          4    1    1    2  501    0  0.28797408831E+00  0.30948702547E+01  0.23941467704E+02  0.24175771483E+02  0.12700000000E+01 0. -1.
         -4    1    1    2    0  501 -0.28797408831E+00 -0.30948702547E+01  0.23880940743E+01  0.41203208949E+01  0.12700000000E+01 0.  1.
<mgrwt>
<rscale>  0 0.33576854E+01</rscale>
<asrwt>0</asrwt>
<pdfrwt beam="1">0</pdfrwt>
<pdfrwt beam="2">0</pdfrwt>
<totfact> 0.46679038E+11</totfact>
</mgrwt>
</event>
<event>
 4    1  0.1838758E+006  0.2206635E+01  0.7546771E-02  0.2853939E+00
         22   -1    0    0    0    0  0.00000000000E+00  0.00000000000E+00  0.92407786573E+01  0.92407786573E+01  0.00000000000E+00 0. -1.
         22   -1    0    0    0    0 -0.00000000000E+00 -0.00000000000E+00 -0.52908537018E+00  0.52908537018E+00  0.00000000000E+00 0.  1.
          4    1    1    2  501    0 -0.76070064877E-01 -0.18029282309E+01  0.46676845696E+01  0.51629948772E+01  0.12700000000E+01 0. -1.
         -4    1    1    2    0  501  0.76070064877E-01  0.18029282309E+01  0.40440087175E+01  0.46068691503E+01  0.12700000000E+01 0.  1.
<mgrwt>
<rscale>  0 0.22066347E+01</rscale>
<asrwt>0</asrwt>
<pdfrwt beam="1">0</pdfrwt>
<pdfrwt beam="2">0</pdfrwt>
<totfact> 0.35976232E+12</totfact>
</mgrwt>
</event>
<event>
 4    1  0.1838758E+006  0.2132820E+01  0.7546771E-02  0.2896499E+00
         22   -1    0    0    0    0  0.00000000000E+00  0.00000000000E+00  0.64205385981E+00  0.64205385981E+00  0.00000000000E+00 0.  1.
         22   -1    0    0    0    0 -0.00000000000E+00 -0.00000000000E+00 -0.26844260132E+02  0.26844260132E+02  0.00000000000E+00 0. -1.
          4    1    1    2  501    0 -0.16680121206E+01  0.39211945372E+00 -0.13102119170E+01  0.25031135348E+01  0.12700000000E+01 0.  1.
         -4    1    1    2    0  501  0.16680121206E+01 -0.39211945372E+00 -0.24891994355E+02  0.24983200457E+02  0.12700000000E+01 0. -1.
<mgrwt>
<rscale>  0 0.21328202E+01</rscale>
<asrwt>0</asrwt>
<pdfrwt beam="1">0</pdfrwt>
<pdfrwt beam="2">0</pdfrwt>
<totfact> 0.77473601E+11</totfact>
</mgrwt>
</event>
<event>
 4    1  0.1838758E+006  0.2284611E+01  0.7546771E-02  0.2811845E+00
         22   -1    0    0    0    0  0.00000000000E+00  0.00000000000E+00  0.15076033286E+01  0.15076033286E+01  0.00000000000E+00 0. -1.
         22   -1    0    0    0    0 -0.00000000000E+00 -0.00000000000E+00 -0.51025430777E+01  0.51025430777E+01  0.00000000000E+00 0.  1.
          4    1    1    2  501    0  0.18933520950E+01 -0.14752530548E+00  0.76535146350E-01  0.22858922766E+01  0.12700000000E+01 0. -1.
         -4    1    1    2    0  501 -0.18933520950E+01  0.14752530548E+00 -0.36714748954E+01  0.43242541298E+01  0.12700000000E+01 0.  1.
<mgrwt>
<rscale>  0 0.22846107E+01</rscale>
<asrwt>0</asrwt>
<pdfrwt beam="1">0</pdfrwt>
<pdfrwt beam="2">0</pdfrwt>
<totfact> 0.22181332E+12</totfact>
</mgrwt>
</event>
<event>
 4    1  0.1838758E+006  0.2346724E+01  0.7546771E-02  0.2780221E+00
         22   -1    0    0    0    0  0.00000000000E+00  0.00000000000E+00  0.12546461118E+02  0.12546461118E+02  0.00000000000E+00 0.  1.
         22   -1    0    0    0    0 -0.00000000000E+00 -0.00000000000E+00 -0.72686801079E+00  0.72686801079E+00  0.00000000000E+00 0. -1.
          4    1    1    2  501    0 -0.18957564601E+01  0.54801470360E+00  0.10086810351E+02  0.10356198904E+02  0.12700000000E+01 0.  1.
         -4    1    1    2    0  501  0.18957564601E+01 -0.54801470360E+00  0.17327827564E+01  0.29171302255E+01  0.12700000000E+01 0. -1.
<mgrwt>
<rscale>  0 0.23467238E+01</rscale>
<asrwt>0</asrwt>
<pdfrwt beam="1">0</pdfrwt>
<pdfrwt beam="2">0</pdfrwt>
<totfact> 0.17317275E+12</totfact>
</mgrwt>
</event>
<event>
 4    1  0.1838758E+006  0.2748011E+01  0.7546771E-02  0.2608356E+00
         22   -1    0    0    0    0  0.00000000000E+00  0.00000000000E+00  0.23501251200E+01  0.23501251200E+01  0.00000000000E+00 0.  1.
         22   -1    0    0    0    0 -0.00000000000E+00 -0.00000000000E+00 -0.35231188786E+01  0.35231188786E+01  0.00000000000E+00 0. -1.
          4    1    1    2  501    0  0.96756215081E+00 -0.22366244479E+01 -0.14573915999E+01  0.31105555311E+01  0.12700000000E+01 0. -1.
         -4    1    1    2    0  501 -0.96756215081E+00  0.22366244479E+01  0.28439784128E+00  0.27626884675E+01  0.12700000000E+01 0.  1.
<mgrwt>
<rscale>  0 0.27480112E+01</rscale>
<asrwt>0</asrwt>
<pdfrwt beam="1">0</pdfrwt>
<pdfrwt beam="2">0</pdfrwt>
<totfact> 0.20545387E+12</totfact>
</mgrwt>
</event>
<event>
 4    1  0.1838758E+006  0.3373702E+01  0.7546771E-02  0.2415828E+00
         22   -1    0    0    0    0  0.00000000000E+00  0.00000000000E+00  0.24121669699E+02  0.24121669699E+02  0.00000000000E+00 0. -1.
         22   -1    0    0    0    0 -0.00000000000E+00 -0.00000000000E+00 -0.11001953525E+01  0.11001953525E+01  0.00000000000E+00 0.  1.
          4    1    1    2  501    0 -0.26798757193E+01  0.16084863575E+01  0.21041128906E+02  0.21309879584E+02  0.12700000000E+01 0. -1.
         -4    1    1    2    0  501  0.26798757193E+01 -0.16084863575E+01  0.19803454397E+01  0.39119854670E+01  0.12700000000E+01 0.  1.
<mgrwt>
<rscale>  0 0.33737016E+01</rscale>
<asrwt>0</asrwt>
<pdfrwt beam="1">0</pdfrwt>
<pdfrwt beam="2">0</pdfrwt>
<totfact> 0.48030525E+11</totfact>
</mgrwt>
</event>
<event>
 4    1  0.1838758E+006  0.2637564E+01  0.7546771E-02  0.2650823E+00
         22   -1    0    0    0    0  0.00000000000E+00  0.00000000000E+00  0.79155366723E-01  0.79155366723E-01  0.00000000000E+00 0. -1.
         22   -1    0    0    0    0 -0.00000000000E+00 -0.00000000000E+00 -0.88435877082E+02  0.88435877082E+02  0.00000000000E+00 0.  1.
          4    1    1    2  501    0 -0.16454150713E+01 -0.16237157340E+01 -0.40692330006E+02  0.40777720202E+02  0.12700000000E+01 0.  1.
         -4    1    1    2    0  501  0.16454150713E+01  0.16237157340E+01 -0.47664391709E+02  0.47737312247E+02  0.12700000000E+01 0. -1.
<mgrwt>
<rscale>  0 0.26375639E+01</rscale>
<asrwt>0</asrwt>
<pdfrwt beam="1">0</pdfrwt>
<pdfrwt beam="2">0</pdfrwt>
<totfact> 0.16667683E+12</totfact>
</mgrwt>
</event>
<event>
 4    1  0.1838758E+006  0.2150408E+01  0.7546771E-02  0.2886103E+00
         22   -1    0    0    0    0  0.00000000000E+00  0.00000000000E+00  0.27021636681E+00  0.27021636681E+00  0.00000000000E+00 0. -1.
         22   -1    0    0    0    0 -0.00000000000E+00 -0.00000000000E+00 -0.18135399692E+02  0.18135399692E+02  0.00000000000E+00 0.  1.
          4    1    1    2  501    0  0.16408338248E+01  0.56481900143E+00 -0.67476844923E+01  0.70820549385E+01  0.12700000000E+01 0. -1.
         -4    1    1    2    0  501 -0.16408338248E+01 -0.56481900143E+00 -0.11117498833E+02  0.11323561120E+02  0.12700000000E+01 0.  1.
<mgrwt>
<rscale>  0 0.21504084E+01</rscale>
<asrwt>0</asrwt>
<pdfrwt beam="1">0</pdfrwt>
<pdfrwt beam="2">0</pdfrwt>
<totfact> 0.33573193E+12</totfact>
</mgrwt>
</event>
<event>
 4    1  0.1838758E+006  0.3168301E+01  0.7546771E-02  0.2471530E+00
         22   -1    0    0    0    0  0.00000000000E+00  0.00000000000E+00  0.37865746662E+02  0.37865746662E+02  0.00000000000E+00 0. -1.
         22   -1    0    0    0    0 -0.00000000000E+00 -0.00000000000E+00 -0.28422301404E+00  0.28422301404E+00  0.00000000000E+00 0.  1.
          4    1    1    2  501    0 -0.28718906329E+01 -0.42128095194E+00  0.23738828472E+02  0.23949323804E+02  0.12700000000E+01 0. -1.
         -4    1    1    2    0  501  0.28718906329E+01  0.42128095194E+00  0.13842695177E+02  0.14200645873E+02  0.12700000000E+01 0.  1.
<mgrwt>
<rscale>  0 0.31683014E+01</rscale>
<asrwt>0</asrwt>
<pdfrwt beam="1">0</pdfrwt>
<pdfrwt beam="2">0</pdfrwt>
<totfact> 0.12498525E+12</totfact>
</mgrwt>
</event>
<event>
 4    1  0.1838758E+006  0.2003624E+01  0.7546771E-02  0.2978286E+00
         22   -1    0    0    0    0  0.00000000000E+00  0.00000000000E+00  0.78228004041E+00  0.78228004041E+00  0.00000000000E+00 0. -1.
         22   -1    0    0    0    0 -0.00000000000E+00 -0.00000000000E+00 -0.15446955789E+02  0.15446955789E+02  0.00000000000E+00 0.  1.
          4    1    1    2  501    0  0.14519233492E+01  0.54178095005E+00 -0.70125538258E+00  0.21227970043E+01  0.12700000000E+01 0. -1.
         -4    1    1    2    0  501 -0.14519233492E+01 -0.54178095005E+00 -0.13963420366E+02  0.14106438825E+02  0.12700000000E+01 0.  1.
<mgrwt>
<rscale>  0 0.20036237E+01</rscale>
<asrwt>0</asrwt>
<pdfrwt beam="1">0</pdfrwt>
<pdfrwt beam="2">0</pdfrwt>
<totfact> 0.12341750E+12</totfact>
</mgrwt>
</event>
<event>
 4    1  0.1838758E+006  0.2009549E+01  0.7546771E-02  0.2974311E+00
         22   -1    0    0    0    0  0.00000000000E+00  0.00000000000E+00  0.79428915886E+00  0.79428915886E+00  0.00000000000E+00 0.  1.
         22   -1    0    0    0    0 -0.00000000000E+00 -0.00000000000E+00 -0.72028484760E+01  0.72028484760E+01  0.00000000000E+00 0.  1.
          4    1    1    2  501    0  0.57592534270E+00 -0.14469607112E+01 -0.10356419598E+01  0.22607166052E+01  0.12700000000E+01 0.  1.
         -4    1    1    2    0  501 -0.57592534270E+00  0.14469607112E+01 -0.53729173574E+01  0.57364210297E+01  0.12700000000E+01 0.  1.
<mgrwt>
<rscale>  0 0.20095485E+01</rscale>
<asrwt>0</asrwt>
<pdfrwt beam="1">0</pdfrwt>
<pdfrwt beam="2">0</pdfrwt>
<totfact> 0.30621459E+12</totfact>
</mgrwt>
</event>
<event>
 4    1  0.1838758E+006  0.2181044E+01  0.7546771E-02  0.2868380E+00
         22   -1    0    0    0    0  0.00000000000E+00  0.00000000000E+00  0.80218704565E+00  0.80218704565E+00  0.00000000000E+00 0.  1.
         22   -1    0    0    0    0 -0.00000000000E+00 -0.00000000000E+00 -0.63597928747E+01  0.63597928747E+01  0.00000000000E+00 0. -1.
          4    1    1    2  501    0  0.86016065092E+00 -0.15505407739E+01 -0.37097422705E+01  0.43033871253E+01  0.12700000000E+01 0. -1.
         -4    1    1    2    0  501 -0.86016065092E+00  0.15505407739E+01 -0.18478635585E+01  0.28585927950E+01  0.12700000000E+01 0.  1.
<mgrwt>
<rscale>  0 0.21810440E+01</rscale>
<asrwt>0</asrwt>
<pdfrwt beam="1">0</pdfrwt>
<pdfrwt beam="2">0</pdfrwt>
<totfact> 0.35136300E+12</totfact>
</mgrwt>
</event>
<event>
 4    1  0.1838758E+006  0.2438563E+01  0.7546771E-02  0.2736251E+00
         22   -1    0    0    0    0  0.00000000000E+00  0.00000000000E+00  0.70944435864E+01  0.70944435864E+01  0.00000000000E+00 0. -1.
         22   -1    0    0    0    0 -0.00000000000E+00 -0.00000000000E+00 -0.86418560125E+00  0.86418560125E+00  0.00000000000E+00 0. -1.
          4    1    1    2  501    0  0.34013631671E+00  0.20537762453E+01  0.24251444181E+01  0.34391735967E+01  0.12700000000E+01 0. -1.
         -4    1    1    2    0  501 -0.34013631671E+00 -0.20537762453E+01  0.38051135671E+01  0.45194555909E+01  0.12700000000E+01 0. -1.
<mgrwt>
<rscale>  0 0.24385630E+01</rscale>
<asrwt>0</asrwt>
<pdfrwt beam="1">0</pdfrwt>
<pdfrwt beam="2">0</pdfrwt>
<totfact> 0.28330505E+12</totfact>
</mgrwt>
</event>
<event>
 4    1  0.1838758E+006  0.2230417E+01  0.7546771E-02  0.2840803E+00
         22   -1    0    0    0    0  0.00000000000E+00  0.00000000000E+00  0.13151292214E+03  0.13151292214E+03  0.00000000000E+00 0.  1.
         22   -1    0    0    0    0 -0.00000000000E+00 -0.00000000000E+00 -0.71448542140E-01  0.71448542140E-01  0.00000000000E+00 0.  1.
          4    1    1    2  501    0 -0.18082360712E+01  0.30354792947E+00  0.11085282957E+03  0.11087526587E+03  0.12700000000E+01 0.  1.
         -4    1    1    2    0  501  0.18082360712E+01 -0.30354792947E+00  0.20588644032E+02  0.20709104812E+02  0.12700000000E+01 0.  1.
<mgrwt>
<rscale>  0 0.22304168E+01</rscale>
<asrwt>0</asrwt>
<pdfrwt beam="1">0</pdfrwt>
<pdfrwt beam="2">0</pdfrwt>
<totfact> 0.10617291E+12</totfact>
</mgrwt>
</event>
<event>
 4    1  0.1838758E+006  0.2428654E+01  0.7546771E-02  0.2740845E+00
         22   -1    0    0    0    0  0.00000000000E+00  0.00000000000E+00  0.25104892671E+01  0.25104892671E+01  0.00000000000E+00 0.  1.
         22   -1    0    0    0    0 -0.00000000000E+00 -0.00000000000E+00 -0.53787486186E+01  0.53787486186E+01  0.00000000000E+00 0. -1.
          4    1    1    2  501    0 -0.20672058564E+01 -0.11009123751E+00  0.15261508877E+01  0.28683613205E+01  0.12700000000E+01 0.  1.
         -4    1    1    2    0  501  0.20672058564E+01  0.11009123751E+00 -0.43944102392E+01  0.50208765652E+01  0.12700000000E+01 0. -1.
<mgrwt>
<rscale>  0 0.24286540E+01</rscale>
<asrwt>0</asrwt>
<pdfrwt beam="1">0</pdfrwt>
<pdfrwt beam="2">0</pdfrwt>
<totfact> 0.11551585E+12</totfact>
</mgrwt>
</event>
<event>
 4    1  0.1838758E+006  0.2980230E+01  0.7546771E-02  0.2528465E+00
         22   -1    0    0    0    0  0.00000000000E+00  0.00000000000E+00  0.10047908533E+02  0.10047908533E+02  0.00000000000E+00 0.  1.
         22   -1    0    0    0    0 -0.00000000000E+00 -0.00000000000E+00 -0.10523043049E+01  0.10523043049E+01  0.00000000000E+00 0.  1.
          4    1    1    2  501    0 -0.36066243802E+00  0.26718523585E+01  0.67177999329E+01  0.73491910003E+01  0.12700000000E+01 0.  1.
         -4    1    1    2    0  501  0.36066243802E+00 -0.26718523585E+01  0.22778042953E+01  0.37510218378E+01  0.12700000000E+01 0.  1.
<mgrwt>
<rscale>  0 0.29802303E+01</rscale>
<asrwt>0</asrwt>
<pdfrwt beam="1">0</pdfrwt>
<pdfrwt beam="2">0</pdfrwt>
<totfact> 0.14883987E+12</totfact>
</mgrwt>
</event>
<event>
 4    1  0.1838758E+006  0.2550996E+01  0.7546771E-02  0.2686466E+00
         22   -1    0    0    0    0  0.00000000000E+00  0.00000000000E+00  0.79437422942E+01  0.79437422942E+01  0.00000000000E+00 0.  1.
         22   -1    0    0    0    0 -0.00000000000E+00 -0.00000000000E+00 -0.31825141142E+01  0.31825141142E+01  0.00000000000E+00 0.  1.
          4    1    1    2  501    0 -0.58186031097E+00 -0.21345065991E+01  0.71745680456E+01  0.76145916821E+01  0.12700000000E+01 0.  1.
         -4    1    1    2    0  501  0.58186031097E+00  0.21345065991E+01 -0.24133398657E+01  0.35116647264E+01  0.12700000000E+01 0.  1.
<mgrwt>
<rscale>  0 0.25509959E+01</rscale>
<asrwt>0</asrwt>
<pdfrwt beam="1">0</pdfrwt>
<pdfrwt beam="2">0</pdfrwt>
<totfact> 0.54997495E+11</totfact>
</mgrwt>
</event>
<event>
 4    1  0.1838758E+006  0.2954400E+01  0.7546771E-02  0.2536789E+00
         22   -1    0    0    0    0  0.00000000000E+00  0.00000000000E+00  0.66080910704E+00  0.66080910704E+00  0.00000000000E+00 0. -1.
         22   -1    0    0    0    0 -0.00000000000E+00 -0.00000000000E+00 -0.45424744346E+02  0.45424744346E+02  0.00000000000E+00 0.  1.
          4    1    1    2  501    0  0.24540274395E+01 -0.10456247921E+01 -0.29764989390E+01  0.41938082710E+01  0.12700000000E+01 0. -1.
         -4    1    1    2    0  501 -0.24540274395E+01  0.10456247921E+01 -0.41787436300E+02  0.41891745182E+02  0.12700000000E+01 0.  1.
<mgrwt>
<rscale>  0 0.29544004E+01</rscale>
<asrwt>0</asrwt>
<pdfrwt beam="1">0</pdfrwt>
<pdfrwt beam="2">0</pdfrwt>
<totfact> 0.38110961E+11</totfact>
</mgrwt>
</event>
<event>
 4    1  0.1838758E+006  0.2329424E+01  0.7546771E-02  0.2788868E+00
         22   -1    0    0    0    0  0.00000000000E+00  0.00000000000E+00  0.20574764721E+01  0.20574764721E+01  0.00000000000E+00 0.  1.
         22   -1    0    0    0    0 -0.00000000000E+00 -0.00000000000E+00 -0.26401824639E+01  0.26401824639E+01  0.00000000000E+00 0.  1.
          4    1    1    2  501    0 -0.19431330863E+01 -0.19377291860E+00 -0.36875681815E+00  0.23584307761E+01  0.12700000000E+01 0.  1.
         -4    1    1    2    0  501  0.19431330863E+01  0.19377291860E+00 -0.21394917364E+00  0.23392281598E+01  0.12700000000E+01 0.  1.
<mgrwt>
<rscale>  0 0.23294236E+01</rscale>
<asrwt>0</asrwt>
<pdfrwt beam="1">0</pdfrwt>
<pdfrwt beam="2">0</pdfrwt>
<totfact> 0.33582928E+12</totfact>
</mgrwt>
</event>
<event>
 4    1  0.1838758E+006  0.2720708E+01  0.7546771E-02  0.2618560E+00
         22   -1    0    0    0    0  0.00000000000E+00  0.00000000000E+00  0.20989615204E+02  0.20989615204E+02  0.00000000000E+00 0.  1.
         22   -1    0    0    0    0 -0.00000000000E+00 -0.00000000000E+00 -0.93731623913E+00  0.93731623913E+00  0.00000000000E+00 0. -1.
          4    1    1    2  501    0 -0.21149680317E+01  0.11472851395E+01  0.18684877713E+02  0.18881920138E+02  0.12700000000E+01 0.  1.
         -4    1    1    2    0  501  0.21149680317E+01 -0.11472851395E+01  0.13674212522E+01  0.30450113050E+01  0.12700000000E+01 0. -1.
<mgrwt>
<rscale>  0 0.27207082E+01</rscale>
<asrwt>0</asrwt>
<pdfrwt beam="1">0</pdfrwt>
<pdfrwt beam="2">0</pdfrwt>
<totfact> 0.68669477E+11</totfact>
</mgrwt>
</event>
<event>
 4    1  0.1838758E+006  0.4316795E+01  0.7546771E-02  0.2220541E+00
         22   -1    0    0    0    0  0.00000000000E+00  0.00000000000E+00  0.93843356432E+02  0.93843356432E+02  0.00000000000E+00 0.  1.
         22   -1    0    0    0    0 -0.00000000000E+00 -0.00000000000E+00 -0.93641181152E+00  0.93641181152E+00  0.00000000000E+00 0. -1.
          4    1    1    2  501    0 -0.28523361828E+00  0.41158786926E+01  0.88519652950E+02  0.88624847949E+02  0.12700000000E+01 0.  1.
         -4    1    1    2    0  501  0.28523361828E+00 -0.41158786926E+01  0.43872916708E+01  0.61549202946E+01  0.12700000000E+01 0. -1.
<mgrwt>
<rscale>  0 0.43167946E+01</rscale>
<asrwt>0</asrwt>
<pdfrwt beam="1">0</pdfrwt>
<pdfrwt beam="2">0</pdfrwt>
<totfact> 0.96265154E+10</totfact>
</mgrwt>
</event>
<event>
 4    1  0.1838758E+006  0.2416908E+01  0.7546771E-02  0.2746336E+00
         22   -1    0    0    0    0  0.00000000000E+00  0.00000000000E+00  0.33630975396E+00  0.33630975396E+00  0.00000000000E+00 0. -1.
         22   -1    0    0    0    0 -0.00000000000E+00 -0.00000000000E+00 -0.93838367154E+02  0.93838367154E+02  0.00000000000E+00 0.  1.
          4    1    1    2  501    0  0.18626079390E+01 -0.87134125233E+00 -0.42443672117E+01  0.48842703590E+01  0.12700000000E+01 0. -1.
         -4    1    1    2    0  501 -0.18626079390E+01  0.87134125233E+00 -0.89257690189E+02  0.89290406549E+02  0.12700000000E+01 0.  1.
<mgrwt>
<rscale>  0 0.24169079E+01</rscale>
<asrwt>0</asrwt>
<pdfrwt beam="1">0</pdfrwt>
<pdfrwt beam="2">0</pdfrwt>
<totfact> 0.30664743E+11</totfact>
</mgrwt>
</event>
<event>
 4    1  0.1838758E+006  0.2234848E+01  0.7546771E-02  0.2838385E+00
         22   -1    0    0    0    0  0.00000000000E+00  0.00000000000E+00  0.15056310049E+02  0.15056310049E+02  0.00000000000E+00 0.  1.
         22   -1    0    0    0    0 -0.00000000000E+00 -0.00000000000E+00 -0.40756619486E+00  0.40756619486E+00  0.00000000000E+00 0. -1.
          4    1    1    2  501    0  0.18225465153E+01  0.24489119128E+00  0.10659735630E+02  0.10891488015E+02  0.12700000000E+01 0.  1.
         -4    1    1    2    0  501 -0.18225465153E+01 -0.24489119128E+00  0.39890082240E+01  0.45723882280E+01  0.12700000000E+01 0. -1.
<mgrwt>
<rscale>  0 0.22348484E+01</rscale>
<asrwt>0</asrwt>
<pdfrwt beam="1">0</pdfrwt>
<pdfrwt beam="2">0</pdfrwt>
<totfact> 0.26636359E+12</totfact>
</mgrwt>
</event>
<event>
 4    1  0.1838758E+006  0.2816463E+01  0.7546771E-02  0.2583567E+00
         22   -1    0    0    0    0  0.00000000000E+00  0.00000000000E+00  0.43205242743E+02  0.43205242743E+02  0.00000000000E+00 0.  1.
         22   -1    0    0    0    0 -0.00000000000E+00 -0.00000000000E+00 -0.18921881527E+00  0.18921881527E+00  0.00000000000E+00 0. -1.
          4    1    1    2  501    0  0.24883123272E+01  0.35757942567E+00  0.17768942240E+02  0.17990769011E+02  0.12700000000E+01 0. -1.
         -4    1    1    2    0  501 -0.24883123272E+01 -0.35757942567E+00  0.25247081687E+02  0.25403692547E+02  0.12700000000E+01 0.  1.
<mgrwt>
<rscale>  0 0.28164625E+01</rscale>
<asrwt>0</asrwt>
<pdfrwt beam="1">0</pdfrwt>
<pdfrwt beam="2">0</pdfrwt>
<totfact> 0.16592673E+12</totfact>
</mgrwt>
</event>
<event>
 4    1  0.1838758E+006  0.3716555E+01  0.7546771E-02  0.2334987E+00
         22   -1    0    0    0    0  0.00000000000E+00  0.00000000000E+00  0.92805280773E+01  0.92805280773E+01  0.00000000000E+00 0.  1.
         22   -1    0    0    0    0 -0.00000000000E+00 -0.00000000000E+00 -0.64562865443E+01  0.64562865443E+01  0.00000000000E+00 0. -1.
          4    1    1    2  501    0 -0.27258795201E+01 -0.21839100105E+01  0.83142477552E+01  0.91071124857E+01  0.12700000000E+01 0.  1.
         -4    1    1    2    0  501  0.27258795201E+01  0.21839100105E+01 -0.54900062222E+01  0.66297021360E+01  0.12700000000E+01 0. -1.
<mgrwt>
<rscale>  0 0.37165551E+01</rscale>
<asrwt>0</asrwt>
<pdfrwt beam="1">0</pdfrwt>
<pdfrwt beam="2">0</pdfrwt>
<totfact> 0.19778378E+11</totfact>
</mgrwt>
</event>
<event>
 4    1  0.1838758E+006  0.2643814E+01  0.7546771E-02  0.2648333E+00
         22   -1    0    0    0    0  0.00000000000E+00  0.00000000000E+00  0.64828687732E+00  0.64828687732E+00  0.00000000000E+00 0. -1.
         22   -1    0    0    0    0 -0.00000000000E+00 -0.00000000000E+00 -0.10781901194E+02  0.10781901194E+02  0.00000000000E+00 0. -1.
          4    1    1    2  501    0  0.92050551186E+00 -0.21282671861E+01 -0.50747331288E+01  0.57221209304E+01  0.12700000000E+01 0. -1.
         -4    1    1    2    0  501 -0.92050551186E+00  0.21282671861E+01 -0.50588811879E+01  0.57080671410E+01  0.12700000000E+01 0. -1.
<mgrwt>
<rscale>  0 0.26438138E+01</rscale>
<asrwt>0</asrwt>
<pdfrwt beam="1">0</pdfrwt>
<pdfrwt beam="2">0</pdfrwt>
<totfact> 0.23716020E+12</totfact>
</mgrwt>
</event>
<event>
 4    1  0.1838758E+006  0.2041142E+01  0.7546771E-02  0.2953496E+00
         22   -1    0    0    0    0  0.00000000000E+00  0.00000000000E+00  0.39496399203E+01  0.39496399203E+01  0.00000000000E+00 0.  1.
         22   -1    0    0    0    0 -0.00000000000E+00 -0.00000000000E+00 -0.16938784249E+01  0.16938784249E+01  0.00000000000E+00 0. -1.
          4    1    1    2  501    0  0.49507112867E+00 -0.15192977661E+01  0.28610474593E+01  0.35145204066E+01  0.12700000000E+01 0.  1.
         -4    1    1    2    0  501 -0.49507112867E+00  0.15192977661E+01 -0.60528596386E+00  0.21289979386E+01  0.12700000000E+01 0. -1.
<mgrwt>
<rscale>  0 0.20411421E+01</rscale>
<asrwt>0</asrwt>
<pdfrwt beam="1">0</pdfrwt>
<pdfrwt beam="2">0</pdfrwt>
<totfact> 0.26240638E+12</totfact>
</mgrwt>
</event>
<event>
 4    1  0.1838758E+006  0.2278521E+01  0.7546771E-02  0.2815033E+00
         22   -1    0    0    0    0  0.00000000000E+00  0.00000000000E+00  0.16122973213E+02  0.16122973213E+02  0.00000000000E+00 0. -1.
         22   -1    0    0    0    0 -0.00000000000E+00 -0.00000000000E+00 -0.47739661837E+00  0.47739661837E+00  0.00000000000E+00 0.  1.
          4    1    1    2  501    0 -0.18274623537E+01 -0.48901884910E+00  0.12558264064E+02  0.12763293242E+02  0.12700000000E+01 0. -1.
         -4    1    1    2    0  501  0.18274623537E+01  0.48901884910E+00  0.30873125312E+01  0.38370765896E+01  0.12700000000E+01 0.  1.
<mgrwt>
<rscale>  0 0.22785210E+01</rscale>
<asrwt>0</asrwt>
<pdfrwt beam="1">0</pdfrwt>
<pdfrwt beam="2">0</pdfrwt>
<totfact> 0.20484206E+12</totfact>
</mgrwt>
</event>
<event>
 4    1  0.1838758E+006  0.2291278E+01  0.7546771E-02  0.2808373E+00
         22   -1    0    0    0    0  0.00000000000E+00  0.00000000000E+00  0.26085800402E+01  0.26085800402E+01  0.00000000000E+00 0. -1.
         22   -1    0    0    0    0 -0.00000000000E+00 -0.00000000000E+00 -0.20144011552E+01  0.20144011552E+01  0.00000000000E+00 0.  1.
          4    1    1    2  501    0 -0.17387068528E+01 -0.78355168786E+00  0.36674596217E+00  0.23204433559E+01  0.12700000000E+01 0. -1.
         -4    1    1    2    0  501  0.17387068528E+01  0.78355168786E+00  0.22743292283E+00  0.23025378394E+01  0.12700000000E+01 0.  1.
<mgrwt>
<rscale>  0 0.22912780E+01</rscale>
<asrwt>0</asrwt>
<pdfrwt beam="1">0</pdfrwt>
<pdfrwt beam="2">0</pdfrwt>
<totfact> 0.34901664E+12</totfact>
</mgrwt>
</event>
<event>
 4    1  0.1838758E+006  0.2186639E+01  0.7546771E-02  0.2865195E+00
         22   -1    0    0    0    0  0.00000000000E+00  0.00000000000E+00  0.17343933983E+01  0.17343933983E+01  0.00000000000E+00 0. -1.
         22   -1    0    0    0    0 -0.00000000000E+00 -0.00000000000E+00 -0.33735577330E+01  0.33735577330E+01  0.00000000000E+00 0. -1.
          4    1    1    2  501    0 -0.51277939653E+00  0.17045666684E+01  0.27242884886E+00  0.22035443527E+01  0.12700000000E+01 0. -1.
         -4    1    1    2    0  501  0.51277939653E+00 -0.17045666684E+01 -0.19115931836E+01  0.29044067787E+01  0.12700000000E+01 0. -1.
<mgrwt>
<rscale>  0 0.21866390E+01</rscale>
<asrwt>0</asrwt>
<pdfrwt beam="1">0</pdfrwt>
<pdfrwt beam="2">0</pdfrwt>
<totfact> 0.30727513E+12</totfact>
</mgrwt>
</event>
<event>
 4    1  0.1838758E+006  0.2506138E+01  0.7546771E-02  0.2705830E+00
         22   -1    0    0    0    0  0.00000000000E+00  0.00000000000E+00  0.42984686438E+01  0.42984686438E+01  0.00000000000E+00 0. -1.
         22   -1    0    0    0    0 -0.00000000000E+00 -0.00000000000E+00 -0.42551203454E+01  0.42551203454E+01  0.00000000000E+00 0. -1.
          4    1    1    2  501    0 -0.21121609243E+01 -0.45453486293E+00  0.34872309767E+01  0.42943574137E+01  0.12700000000E+01 0. -1.
         -4    1    1    2    0  501  0.21121609243E+01  0.45453486293E+00 -0.34438826783E+01  0.42592315755E+01  0.12700000000E+01 0. -1.
<mgrwt>
<rscale>  0 0.25061376E+01</rscale>
<asrwt>0</asrwt>
<pdfrwt beam="1">0</pdfrwt>
<pdfrwt beam="2">0</pdfrwt>
<totfact> 0.81192746E+11</totfact>
</mgrwt>
</event>
<event>
 4    1  0.1838758E+006  0.5067959E+01  0.7546771E-02  0.2114978E+00
         22   -1    0    0    0    0  0.00000000000E+00  0.00000000000E+00  0.34331963727E+01  0.34331963727E+01  0.00000000000E+00 0.  1.
         22   -1    0    0    0    0 -0.00000000000E+00 -0.00000000000E+00 -0.74859015909E+01  0.74859015909E+01  0.00000000000E+00 0. -1.
          4    1    1    2  501    0  0.38319221448E+01 -0.30639316257E+01 -0.18885825736E+01  0.54084145984E+01  0.12700000000E+01 0.  1.
         -4    1    1    2    0  501 -0.38319221448E+01  0.30639316257E+01 -0.21641226446E+01  0.55106833652E+01  0.12700000000E+01 0. -1.
<mgrwt>
<rscale>  0 0.50679586E+01</rscale>
<asrwt>0</asrwt>
<pdfrwt beam="1">0</pdfrwt>
<pdfrwt beam="2">0</pdfrwt>
<totfact> 0.54042086E+11</totfact>
</mgrwt>
</event>
<event>
 4    1  0.1838758E+006  0.2490958E+01  0.7546771E-02  0.2712530E+00
         22   -1    0    0    0    0  0.00000000000E+00  0.00000000000E+00  0.25710096234E+00  0.25710096234E+00  0.00000000000E+00 0.  1.
         22   -1    0    0    0    0 -0.00000000000E+00 -0.00000000000E+00 -0.47492567071E+02  0.47492567071E+02  0.00000000000E+00 0. -1.
          4    1    1    2  501    0 -0.86403739728E+00 -0.19609714727E+01 -0.68740569623E+01  0.73114655755E+01  0.12700000000E+01 0.  1.
         -4    1    1    2    0  501  0.86403739728E+00  0.19609714727E+01 -0.40361409147E+02  0.40438202458E+02  0.12700000000E+01 0. -1.
<mgrwt>
<rscale>  0 0.24909576E+01</rscale>
<asrwt>0</asrwt>
<pdfrwt beam="1">0</pdfrwt>
<pdfrwt beam="2">0</pdfrwt>
<totfact> 0.10408986E+12</totfact>
</mgrwt>
</event>
<event>
 4    1  0.1838758E+006  0.2176171E+01  0.7546771E-02  0.2871167E+00
         22   -1    0    0    0    0  0.00000000000E+00  0.00000000000E+00  0.55876115706E+01  0.55876115706E+01  0.00000000000E+00 0. -1.
         22   -1    0    0    0    0 -0.00000000000E+00 -0.00000000000E+00 -0.12885315018E+01  0.12885315018E+01  0.00000000000E+00 0.  1.
          4    1    1    2  501    0  0.16434010336E+01 -0.64965643449E+00  0.41608677580E+01  0.46955873902E+01  0.12700000000E+01 0. -1.
         -4    1    1    2    0  501 -0.16434010336E+01  0.64965643449E+00  0.13821231075E+00  0.21805556821E+01  0.12700000000E+01 0.  1.
<mgrwt>
<rscale>  0 0.21761711E+01</rscale>
<asrwt>0</asrwt>
<pdfrwt beam="1">0</pdfrwt>
<pdfrwt beam="2">0</pdfrwt>
<totfact> 0.23853125E+12</totfact>
</mgrwt>
</event>
<event>
 4    1  0.1838758E+006  0.4333766E+01  0.7546771E-02  0.2217700E+00
         22   -1    0    0    0    0  0.00000000000E+00  0.00000000000E+00  0.11700482403E+02  0.11700482403E+02  0.00000000000E+00 0. -1.
         22   -1    0    0    0    0 -0.00000000000E+00 -0.00000000000E+00 -0.20406402304E+01  0.20406402304E+01  0.00000000000E+00 0.  1.
          4    1    1    2  501    0 -0.41338829777E+01  0.28220844393E+00  0.80037014227E+01  0.91016903124E+01  0.12700000000E+01 0. -1.
         -4    1    1    2    0  501  0.41338829777E+01 -0.28220844393E+00  0.16561407503E+01  0.46394323213E+01  0.12700000000E+01 0.  1.
<mgrwt>
<rscale>  0 0.43337663E+01</rscale>
<asrwt>0</asrwt>
<pdfrwt beam="1">0</pdfrwt>
<pdfrwt beam="2">0</pdfrwt>
<totfact> 0.57752693E+11</totfact>
</mgrwt>
</event>
<event>
 4    1  0.1838758E+006  0.2570513E+01  0.7546771E-02  0.2678236E+00
         22   -1    0    0    0    0  0.00000000000E+00  0.00000000000E+00  0.50219170037E+02  0.50219170037E+02  0.00000000000E+00 0. -1.
         22   -1    0    0    0    0 -0.00000000000E+00 -0.00000000000E+00 -0.50059047889E+00  0.50059047889E+00  0.00000000000E+00 0.  1.
          4    1    1    2  501    0  0.20807142813E+01  0.81563773121E+00  0.46632817029E+02  0.46703609720E+02  0.12700000000E+01 0. -1.
         -4    1    1    2    0  501 -0.20807142813E+01 -0.81563773121E+00  0.30857625295E+01  0.40161507961E+01  0.12700000000E+01 0.  1.
<mgrwt>
<rscale>  0 0.25705130E+01</rscale>
<asrwt>0</asrwt>
<pdfrwt beam="1">0</pdfrwt>
<pdfrwt beam="2">0</pdfrwt>
<totfact> 0.45733399E+11</totfact>
</mgrwt>
</event>
<event>
 4    1  0.1838758E+006  0.2014650E+01  0.7546771E-02  0.2970906E+00
         22   -1    0    0    0    0  0.00000000000E+00  0.00000000000E+00  0.59736420404E+02  0.59736420404E+02  0.00000000000E+00 0. -1.
         22   -1    0    0    0    0 -0.00000000000E+00 -0.00000000000E+00 -0.84638397564E-01  0.84638397564E-01  0.00000000000E+00 0. -1.
          4    1    1    2  501    0  0.17998819191E+00  0.15535510352E+01  0.43109228362E+02  0.43156278645E+02  0.12700000000E+01 0. -1.
         -4    1    1    2    0  501 -0.17998819191E+00 -0.15535510352E+01  0.16542553645E+02  0.16664780157E+02  0.12700000000E+01 0. -1.
<mgrwt>
<rscale>  0 0.20146505E+01</rscale>
<asrwt>0</asrwt>
<pdfrwt beam="1">0</pdfrwt>
<pdfrwt beam="2">0</pdfrwt>
<totfact> 0.26411045E+12</totfact>
</mgrwt>
</event>
<event>
 4    1  0.1838758E+006  0.2058985E+01  0.7546771E-02  0.2942016E+00
         22   -1    0    0    0    0  0.00000000000E+00  0.00000000000E+00  0.20617921757E+02  0.20617921757E+02  0.00000000000E+00 0. -1.
         22   -1    0    0    0    0 -0.00000000000E+00 -0.00000000000E+00 -0.34684595775E+00  0.34684595775E+00  0.00000000000E+00 0.  1.
          4    1    1    2  501    0 -0.97815817110E-01  0.16176992541E+01  0.16824394079E+02  0.16949916075E+02  0.12700000000E+01 0. -1.
         -4    1    1    2    0  501  0.97815817110E-01 -0.16176992541E+01  0.34466817196E+01  0.40148516395E+01  0.12700000000E+01 0.  1.
<mgrwt>
<rscale>  0 0.20589849E+01</rscale>
<asrwt>0</asrwt>
<pdfrwt beam="1">0</pdfrwt>
<pdfrwt beam="2">0</pdfrwt>
<totfact> 0.21627659E+12</totfact>
</mgrwt>
</event>
<event>
 4    1  0.1838758E+006  0.2716449E+01  0.7546771E-02  0.2620169E+00
         22   -1    0    0    0    0  0.00000000000E+00  0.00000000000E+00  0.78956465542E+01  0.78956465542E+01  0.00000000000E+00 0.  1.
         22   -1    0    0    0    0 -0.00000000000E+00 -0.00000000000E+00 -0.97957197030E+00  0.97957197030E+00  0.00000000000E+00 0. -1.
          4    1    1    2  501    0 -0.26080709643E+00  0.23870854690E+01  0.44090978209E+01  0.51787296678E+01  0.12700000000E+01 0.  1.
         -4    1    1    2    0  501  0.26080709643E+00 -0.23870854690E+01  0.25069767630E+01  0.36964888567E+01  0.12700000000E+01 0. -1.
<mgrwt>
<rscale>  0 0.27164494E+01</rscale>
<asrwt>0</asrwt>
<pdfrwt beam="1">0</pdfrwt>
<pdfrwt beam="2">0</pdfrwt>
<totfact> 0.21601833E+12</totfact>
</mgrwt>
</event>
<event>
 4    1  0.1838758E+006  0.3198517E+01  0.7546771E-02  0.2462940E+00
         22   -1    0    0    0    0  0.00000000000E+00  0.00000000000E+00  0.10696470277E+01  0.10696470277E+01  0.00000000000E+00 0.  1.
         22   -1    0    0    0    0 -0.00000000000E+00 -0.00000000000E+00 -0.20917475538E+02  0.20917475538E+02  0.00000000000E+00 0. -1.
          4    1    1    2  501    0  0.14903304346E+00 -0.29317915007E+01 -0.18247373660E+01  0.36824147928E+01  0.12700000000E+01 0.  1.
         -4    1    1    2    0  501 -0.14903304346E+00  0.29317915007E+01 -0.18023091144E+02  0.18304707773E+02  0.12700000000E+01 0. -1.
<mgrwt>
<rscale>  0 0.31985172E+01</rscale>
<asrwt>0</asrwt>
<pdfrwt beam="1">0</pdfrwt>
<pdfrwt beam="2">0</pdfrwt>
<totfact> 0.59311656E+11</totfact>
</mgrwt>
</event>
<event>
 4    1  0.1838758E+006  0.2432171E+01  0.7546771E-02  0.2739210E+00
         22   -1    0    0    0    0  0.00000000000E+00  0.00000000000E+00  0.20822503877E+00  0.20822503877E+00  0.00000000000E+00 0.  1.
         22   -1    0    0    0    0 -0.00000000000E+00 -0.00000000000E+00 -0.49927470103E+02  0.49927470103E+02  0.00000000000E+00 0. -1.
          4    1    1    2  501    0 -0.25720553646E+00 -0.20582523819E+01 -0.84025217953E+01  0.87474470605E+01  0.12700000000E+01 0.  1.
         -4    1    1    2    0  501  0.25720553646E+00  0.20582523819E+01 -0.41316723269E+02  0.41388248081E+02  0.12700000000E+01 0. -1.
<mgrwt>
<rscale>  0 0.24321714E+01</rscale>
<asrwt>0</asrwt>
<pdfrwt beam="1">0</pdfrwt>
<pdfrwt beam="2">0</pdfrwt>
<totfact> 0.12335548E+12</totfact>
</mgrwt>
</event>
<event>
 4    1  0.1838758E+006  0.3319724E+01  0.7546771E-02  0.2429877E+00
         22   -1    0    0    0    0  0.00000000000E+00  0.00000000000E+00  0.21677823889E+02  0.21677823889E+02  0.00000000000E+00 0.  1.
         22   -1    0    0    0    0 -0.00000000000E+00 -0.00000000000E+00 -0.39805403149E+01  0.39805403149E+01  0.00000000000E+00 0. -1.
          4    1    1    2  501    0 -0.21714081520E+01  0.21662528156E+01  0.20830601704E+02  0.21093471311E+02  0.12700000000E+01 0.  1.
         -4    1    1    2    0  501  0.21714081520E+01 -0.21662528156E+01 -0.31333181293E+01  0.45648928928E+01  0.12700000000E+01 0. -1.
<mgrwt>
<rscale>  0 0.33197236E+01</rscale>
<asrwt>0</asrwt>
<pdfrwt beam="1">0</pdfrwt>
<pdfrwt beam="2">0</pdfrwt>
<totfact> 0.12371253E+11</totfact>
</mgrwt>
</event>
<event>
 4    1  0.1838758E+006  0.4170009E+01  0.7546771E-02  0.2245929E+00
         22   -1    0    0    0    0  0.00000000000E+00  0.00000000000E+00  0.10048905631E+02  0.10048905631E+02  0.00000000000E+00 0. -1.
         22   -1    0    0    0    0 -0.00000000000E+00 -0.00000000000E+00 -0.29100344748E+01  0.29100344748E+01  0.00000000000E+00 0.  1.
          4    1    1    2  501    0 -0.39607298566E+01 -0.29781331608E+00  0.76947569141E+01  0.87520430607E+01  0.12700000000E+01 0. -1.
         -4    1    1    2    0  501  0.39607298566E+01  0.29781331608E+00 -0.55588575839E+00  0.42068970447E+01  0.12700000000E+01 0.  1.
<mgrwt>
<rscale>  0 0.41700088E+01</rscale>
<asrwt>0</asrwt>
<pdfrwt beam="1">0</pdfrwt>
<pdfrwt beam="2">0</pdfrwt>
<totfact> 0.45988729E+11</totfact>
</mgrwt>
</event>
<event>
 4    1  0.1838758E+006  0.2097078E+01  0.7546771E-02  0.2918144E+00
         22   -1    0    0    0    0  0.00000000000E+00  0.00000000000E+00  0.13599236650E+02  0.13599236650E+02  0.00000000000E+00 0. -1.
         22   -1    0    0    0    0 -0.00000000000E+00 -0.00000000000E+00 -0.32561016749E+00  0.32561016749E+00  0.00000000000E+00 0. -1.
          4    1    1    2  501    0 -0.19384852980E+00  0.16574860678E+01  0.60607576589E+01  0.64133080947E+01  0.12700000000E+01 0. -1.
         -4    1    1    2    0  501  0.19384852980E+00 -0.16574860678E+01  0.72128688239E+01  0.75115387231E+01  0.12700000000E+01 0. -1.
<mgrwt>
<rscale>  0 0.20970783E+01</rscale>
<asrwt>0</asrwt>
<pdfrwt beam="1">0</pdfrwt>
<pdfrwt beam="2">0</pdfrwt>
<totfact> 0.38846896E+12</totfact>
</mgrwt>
</event>
<event>
 4    1  0.1838758E+006  0.4286514E+01  0.7546771E-02  0.2225658E+00
         22   -1    0    0    0    0  0.00000000000E+00  0.00000000000E+00  0.16009119546E+01  0.16009119546E+01  0.00000000000E+00 0.  1.
         22   -1    0    0    0    0 -0.00000000000E+00 -0.00000000000E+00 -0.15928004856E+02  0.15928004856E+02  0.00000000000E+00 0.  1.
          4    1    1    2  501    0 -0.38249963865E+01 -0.14596936435E+01 -0.25306021157E+01  0.49777655587E+01  0.12700000000E+01 0.  1.
         -4    1    1    2    0  501  0.38249963865E+01  0.14596936435E+01 -0.11796490786E+02  0.12551151252E+02  0.12700000000E+01 0.  1.
<mgrwt>
<rscale>  0 0.42865141E+01</rscale>
<asrwt>0</asrwt>
<pdfrwt beam="1">0</pdfrwt>
<pdfrwt beam="2">0</pdfrwt>
<totfact> 0.52372471E+11</totfact>
</mgrwt>
</event>
<event>
 4    1  0.1838758E+006  0.2387786E+01  0.7546771E-02  0.2760168E+00
         22   -1    0    0    0    0  0.00000000000E+00  0.00000000000E+00  0.20449713959E+02  0.20449713959E+02  0.00000000000E+00 0.  1.
         22   -1    0    0    0    0 -0.00000000000E+00 -0.00000000000E+00 -0.42918710705E+00  0.42918710705E+00  0.00000000000E+00 0. -1.
          4    1    1    2  501    0  0.72091754557E+00 -0.18891534064E+01  0.16189709567E+02  0.16364847038E+02  0.12700000000E+01 0.  1.
         -4    1    1    2    0  501 -0.72091754557E+00  0.18891534064E+01  0.38308172842E+01  0.45140540278E+01  0.12700000000E+01 0. -1.
<mgrwt>
<rscale>  0 0.23877862E+01</rscale>
<asrwt>0</asrwt>
<pdfrwt beam="1">0</pdfrwt>
<pdfrwt beam="2">0</pdfrwt>
<totfact> 0.17195064E+12</totfact>
</mgrwt>
</event>
<event>
 4    1  0.1838758E+006  0.3952848E+01  0.7546771E-02  0.2286399E+00
         22   -1    0    0    0    0  0.00000000000E+00  0.00000000000E+00  0.67576880355E+01  0.67576880355E+01  0.00000000000E+00 0.  1.
         22   -1    0    0    0    0 -0.00000000000E+00 -0.00000000000E+00 -0.25221701066E+01  0.25221701066E+01  0.00000000000E+00 0. -1.
          4    1    1    2  501    0 -0.11191909823E+01  0.35720466610E+01  0.34565762936E+01  0.52509928087E+01  0.12700000000E+01 0.  1.
         -4    1    1    2    0  501  0.11191909823E+01 -0.35720466610E+01  0.77894163531E+00  0.40288653334E+01  0.12700000000E+01 0. -1.
<mgrwt>
<rscale>  0 0.39528478E+01</rscale>
<asrwt>0</asrwt>
<pdfrwt beam="1">0</pdfrwt>
<pdfrwt beam="2">0</pdfrwt>
<totfact> 0.87559642E+11</totfact>
</mgrwt>
</event>
<event>
 4    1  0.1838758E+006  0.2318321E+01  0.7546771E-02  0.2794482E+00
         22   -1    0    0    0    0  0.00000000000E+00  0.00000000000E+00  0.15804501624E+00  0.15804501624E+00  0.00000000000E+00 0.  1.
         22   -1    0    0    0    0 -0.00000000000E+00 -0.00000000000E+00 -0.42591679739E+02  0.42591679739E+02  0.00000000000E+00 0. -1.
          4    1    1    2  501    0  0.19265617226E+01  0.22376913014E+00 -0.11620450091E+02  0.11849450325E+02  0.12700000000E+01 0.  1.
         -4    1    1    2    0  501 -0.19265617226E+01 -0.22376913014E+00 -0.30813184632E+02  0.30900274430E+02  0.12700000000E+01 0. -1.
<mgrwt>
<rscale>  0 0.23183211E+01</rscale>
<asrwt>0</asrwt>
<pdfrwt beam="1">0</pdfrwt>
<pdfrwt beam="2">0</pdfrwt>
<totfact> 0.20656970E+12</totfact>
</mgrwt>
</event>
<event>
 4    1  0.1838758E+006  0.4270036E+01  0.7546771E-02  0.2228468E+00
         22   -1    0    0    0    0  0.00000000000E+00  0.00000000000E+00  0.13775385715E+01  0.13775385715E+01  0.00000000000E+00 0.  1.
         22   -1    0    0    0    0 -0.00000000000E+00 -0.00000000000E+00 -0.14942323886E+02  0.14942323886E+02  0.00000000000E+00 0.  1.
          4    1    1    2  501    0  0.16749103102E+01  0.37168516018E+01 -0.40250038217E+01  0.58680376738E+01  0.12700000000E+01 0.  1.
         -4    1    1    2    0  501 -0.16749103102E+01 -0.37168516018E+01 -0.95397814933E+01  0.10451824784E+02  0.12700000000E+01 0.  1.
<mgrwt>
<rscale>  0 0.42700363E+01</rscale>
<asrwt>0</asrwt>
<pdfrwt beam="1">0</pdfrwt>
<pdfrwt beam="2">0</pdfrwt>
<totfact> 0.67354347E+11</totfact>
</mgrwt>
</event>
<event>
 4    1  0.1838758E+006  0.2480934E+01  0.7546771E-02  0.2716996E+00
         22   -1    0    0    0    0  0.00000000000E+00  0.00000000000E+00  0.11964242464E+02  0.11964242464E+02  0.00000000000E+00 0.  1.
         22   -1    0    0    0    0 -0.00000000000E+00 -0.00000000000E+00 -0.52157110887E+00  0.52157110887E+00  0.00000000000E+00 0. -1.
          4    1    1    2  501    0 -0.27590431267E+00  0.21132934681E+01  0.49919912214E+01  0.55744962845E+01  0.12700000000E+01 0. -1.
         -4    1    1    2    0  501  0.27590431267E+00 -0.21132934681E+01  0.64506801341E+01  0.69113172887E+01  0.12700000000E+01 0.  1.
<mgrwt>
<rscale>  0 0.24809338E+01</rscale>
<asrwt>0</asrwt>
<pdfrwt beam="1">0</pdfrwt>
<pdfrwt beam="2">0</pdfrwt>
<totfact> 0.26727490E+12</totfact>
</mgrwt>
</event>
<event>
 4    1  0.1838758E+006  0.2235162E+01  0.7546771E-02  0.2838214E+00
         22   -1    0    0    0    0  0.00000000000E+00  0.00000000000E+00  0.32750615123E+00  0.32750615123E+00  0.00000000000E+00 0.  1.
         22   -1    0    0    0    0 -0.00000000000E+00 -0.00000000000E+00 -0.19686836232E+02  0.19686836232E+02  0.00000000000E+00 0.  1.
          4    1    1    2  501    0  0.17989064298E+01 -0.38338811762E+00 -0.49313613656E+01  0.54142659438E+01  0.12700000000E+01 0.  1.
         -4    1    1    2    0  501 -0.17989064298E+01  0.38338811762E+00 -0.14427968715E+02  0.14600076439E+02  0.12700000000E+01 0.  1.
<mgrwt>
<rscale>  0 0.22351624E+01</rscale>
<asrwt>0</asrwt>
<pdfrwt beam="1">0</pdfrwt>
<pdfrwt beam="2">0</pdfrwt>
<totfact> 0.24436922E+12</totfact>
</mgrwt>
</event>
<event>
 4    1  0.1838758E+006  0.2317872E+01  0.7546771E-02  0.2794710E+00
         22   -1    0    0    0    0  0.00000000000E+00  0.00000000000E+00  0.29077684555E+00  0.29077684555E+00  0.00000000000E+00 0.  1.
         22   -1    0    0    0    0 -0.00000000000E+00 -0.00000000000E+00 -0.25641099751E+02  0.25641099751E+02  0.00000000000E+00 0. -1.
          4    1    1    2  501    0  0.33443362088E+00  0.19099179882E+01 -0.58213492603E+01  0.62658311323E+01  0.12700000000E+01 0.  1.
         -4    1    1    2    0  501 -0.33443362088E+00 -0.19099179882E+01 -0.19528973645E+02  0.19666045464E+02  0.12700000000E+01 0. -1.
<mgrwt>
<rscale>  0 0.23178724E+01</rscale>
<asrwt>0</asrwt>
<pdfrwt beam="1">0</pdfrwt>
<pdfrwt beam="2">0</pdfrwt>
<totfact> 0.20046751E+12</totfact>
</mgrwt>
</event>
<event>
 4    1  0.1838758E+006  0.2403239E+01  0.7546771E-02  0.2752790E+00
         22   -1    0    0    0    0  0.00000000000E+00  0.00000000000E+00  0.12619831124E+01  0.12619831124E+01  0.00000000000E+00 0.  1.
         22   -1    0    0    0    0 -0.00000000000E+00 -0.00000000000E+00 -0.55861418271E+01  0.55861418271E+01  0.00000000000E+00 0.  1.
          4    1    1    2  501    0 -0.93628863089E+00  0.18127380172E+01 -0.70643908662E+00  0.25049175041E+01  0.12700000000E+01 0. -1.
         -4    1    1    2    0  501  0.93628863089E+00 -0.18127380172E+01 -0.36177196280E+01  0.43432074353E+01  0.12700000000E+01 0. -1.
<mgrwt>
<rscale>  0 0.24032385E+01</rscale>
<asrwt>0</asrwt>
<pdfrwt beam="1">0</pdfrwt>
<pdfrwt beam="2">0</pdfrwt>
<totfact> 0.24438088E+12</totfact>
</mgrwt>
</event>
<event>
 4    1  0.1838758E+006  0.2647229E+01  0.7546771E-02  0.2646977E+00
         22   -1    0    0    0    0  0.00000000000E+00  0.00000000000E+00  0.41159472100E+00  0.41159472100E+00  0.00000000000E+00 0.  1.
         22   -1    0    0    0    0 -0.00000000000E+00 -0.00000000000E+00 -0.17376082750E+02  0.17376082750E+02  0.00000000000E+00 0. -1.
          4    1    1    2  501    0  0.21209555737E+01 -0.94681936441E+00 -0.72198730057E+01  0.76898885345E+01  0.12700000000E+01 0.  1.
         -4    1    1    2    0  501 -0.21209555737E+01  0.94681936441E+00 -0.97446150232E+01  0.10097788936E+02  0.12700000000E+01 0. -1.
<mgrwt>
<rscale>  0 0.26472286E+01</rscale>
<asrwt>0</asrwt>
<pdfrwt beam="1">0</pdfrwt>
<pdfrwt beam="2">0</pdfrwt>
<totfact> 0.22072128E+12</totfact>
</mgrwt>
</event>
<event>
 4    1  0.1838758E+006  0.4483888E+01  0.7546771E-02  0.2193355E+00
         22   -1    0    0    0    0  0.00000000000E+00  0.00000000000E+00  0.47958055719E+00  0.47958055719E+00  0.00000000000E+00 0. -1.
         22   -1    0    0    0    0 -0.00000000000E+00 -0.00000000000E+00 -0.46084830639E+02  0.46084830639E+02  0.00000000000E+00 0.  1.
          4    1    1    2  501    0 -0.29443348708E+01  0.31342059691E+01 -0.15805668607E+02  0.16429376586E+02  0.12700000000E+01 0. -1.
         -4    1    1    2    0  501  0.29443348708E+01 -0.31342059691E+01 -0.29799581474E+02  0.30135034610E+02  0.12700000000E+01 0.  1.
<mgrwt>
<rscale>  0 0.44838884E+01</rscale>
<asrwt>0</asrwt>
<pdfrwt beam="1">0</pdfrwt>
<pdfrwt beam="2">0</pdfrwt>
<totfact> 0.53744628E+11</totfact>
</mgrwt>
</event>
<event>
 4    1  0.1838758E+006  0.3153788E+01  0.7546771E-02  0.2475707E+00
         22   -1    0    0    0    0  0.00000000000E+00  0.00000000000E+00  0.22624779860E+01  0.22624779860E+01  0.00000000000E+00 0.  1.
         22   -1    0    0    0    0 -0.00000000000E+00 -0.00000000000E+00 -0.46969814815E+01  0.46969814815E+01  0.00000000000E+00 0. -1.
          4    1    1    2  501    0 -0.13320538913E+01 -0.25610761123E+01 -0.33673334335E+00  0.31717136956E+01  0.12700000000E+01 0.  1.
         -4    1    1    2    0  501  0.13320538913E+01  0.25610761123E+01 -0.20977701521E+01  0.37877457720E+01  0.12700000000E+01 0. -1.
<mgrwt>
<rscale>  0 0.31537879E+01</rscale>
<asrwt>0</asrwt>
<pdfrwt beam="1">0</pdfrwt>
<pdfrwt beam="2">0</pdfrwt>
<totfact> 0.15305508E+12</totfact>
</mgrwt>
</event>
<event>
 4    1  0.1838758E+006  0.2064535E+01  0.7546771E-02  0.2938485E+00
         22   -1    0    0    0    0  0.00000000000E+00  0.00000000000E+00  0.20087234620E+01  0.20087234620E+01  0.00000000000E+00 0. -1.
         22   -1    0    0    0    0 -0.00000000000E+00 -0.00000000000E+00 -0.28168963996E+01  0.28168963996E+01  0.00000000000E+00 0.  1.
          4    1    1    2  501    0  0.15360301492E+01  0.53852974705E+00  0.79439163455E+00  0.22120942513E+01  0.12700000000E+01 0. -1.
         -4    1    1    2    0  501 -0.15360301492E+01 -0.53852974705E+00 -0.16025645722E+01  0.26135256103E+01  0.12700000000E+01 0.  1.
<mgrwt>
<rscale>  0 0.20645345E+01</rscale>
<asrwt>0</asrwt>
<pdfrwt beam="1">0</pdfrwt>
<pdfrwt beam="2">0</pdfrwt>
<totfact> 0.32015405E+12</totfact>
</mgrwt>
</event>
<event>
 4    1  0.1838758E+006  0.2744690E+01  0.7546771E-02  0.2609587E+00
         22   -1    0    0    0    0  0.00000000000E+00  0.00000000000E+00  0.14421908976E+01  0.14421908976E+01  0.00000000000E+00 0.  1.
         22   -1    0    0    0    0 -0.00000000000E+00 -0.00000000000E+00 -0.65135052508E+01  0.65135052508E+01  0.00000000000E+00 0.  1.
          4    1    1    2  501    0 -0.12378791128E+01 -0.20947747176E+01 -0.76541907274E+00  0.28494196203E+01  0.12700000000E+01 0.  1.
         -4    1    1    2    0  501  0.12378791128E+01  0.20947747176E+01 -0.43058952805E+01  0.51062765282E+01  0.12700000000E+01 0.  1.
<mgrwt>
<rscale>  0 0.27446905E+01</rscale>
<asrwt>0</asrwt>
<pdfrwt beam="1">0</pdfrwt>
<pdfrwt beam="2">0</pdfrwt>
<totfact> 0.17462121E+12</totfact>
</mgrwt>
</event>
<event>
 4    1  0.1838758E+006  0.2287341E+01  0.7546771E-02  0.2810421E+00
         22   -1    0    0    0    0  0.00000000000E+00  0.00000000000E+00  0.10538922050E+01  0.10538922050E+01  0.00000000000E+00 0. -1.
         22   -1    0    0    0    0 -0.00000000000E+00 -0.00000000000E+00 -0.49771444891E+01  0.49771444891E+01  0.00000000000E+00 0.  1.
          4    1    1    2  501    0 -0.96879760090E+00 -0.16372110100E+01 -0.18089554286E+01  0.29162044554E+01  0.12700000000E+01 0. -1.
         -4    1    1    2    0  501  0.96879760090E+00  0.16372110100E+01 -0.21142968554E+01  0.31148322388E+01  0.12700000000E+01 0.  1.
<mgrwt>
<rscale>  0 0.22873410E+01</rscale>
<asrwt>0</asrwt>
<pdfrwt beam="1">0</pdfrwt>
<pdfrwt beam="2">0</pdfrwt>
<totfact> 0.34443345E+12</totfact>
</mgrwt>
</event>
<event>
 4    1  0.1838758E+006  0.2147619E+01  0.7546771E-02  0.2887740E+00
         22   -1    0    0    0    0  0.00000000000E+00  0.00000000000E+00  0.92099130086E+00  0.92099130086E+00  0.00000000000E+00 0. -1.
         22   -1    0    0    0    0 -0.00000000000E+00 -0.00000000000E+00 -0.67758072534E+01  0.67758072534E+01  0.00000000000E+00 0.  1.
          4    1    1    2  501    0 -0.13576954173E+01 -0.10751887811E+01 -0.96167457594E+00  0.23531013049E+01  0.12700000000E+01 0. -1.
         -4    1    1    2    0  501  0.13576954173E+01  0.10751887811E+01 -0.48931413766E+01  0.53436972493E+01  0.12700000000E+01 0.  1.
<mgrwt>
<rscale>  0 0.21476191E+01</rscale>
<asrwt>0</asrwt>
<pdfrwt beam="1">0</pdfrwt>
<pdfrwt beam="2">0</pdfrwt>
<totfact> 0.27834807E+12</totfact>
</mgrwt>
</event>
<event>
 4    1  0.1838758E+006  0.2171151E+01  0.7546771E-02  0.2874050E+00
         22   -1    0    0    0    0  0.00000000000E+00  0.00000000000E+00  0.44921436813E+01  0.44921436813E+01  0.00000000000E+00 0.  1.
         22   -1    0    0    0    0 -0.00000000000E+00 -0.00000000000E+00 -0.10931250034E+01  0.10931250034E+01  0.00000000000E+00 0.  1.
          4    1    1    2  501    0 -0.21447927273E+00 -0.17478549602E+01  0.22582597704E+01  0.31326722635E+01  0.12700000000E+01 0.  1.
         -4    1    1    2    0  501  0.21447927273E+00  0.17478549602E+01  0.11407589075E+01  0.24525964212E+01  0.12700000000E+01 0.  1.
<mgrwt>
<rscale>  0 0.21711514E+01</rscale>
<asrwt>0</asrwt>
<pdfrwt beam="1">0</pdfrwt>
<pdfrwt beam="2">0</pdfrwt>
<totfact> 0.37289185E+12</totfact>
</mgrwt>
</event>
<event>
 4    1  0.1838758E+006  0.2377402E+01  0.7546771E-02  0.2765178E+00
         22   -1    0    0    0    0  0.00000000000E+00  0.00000000000E+00  0.32670258418E+02  0.32670258418E+02  0.00000000000E+00 0. -1.
         22   -1    0    0    0    0 -0.00000000000E+00 -0.00000000000E+00 -0.30300778717E+00  0.30300778717E+00  0.00000000000E+00 0.  1.
          4    1    1    2  501    0  0.20036361370E+01 -0.15678159468E+00  0.26982673795E+02  0.27087205898E+02  0.12700000000E+01 0. -1.
         -4    1    1    2    0  501 -0.20036361370E+01  0.15678159468E+00  0.53845768362E+01  0.58860603074E+01  0.12700000000E+01 0.  1.
<mgrwt>
<rscale>  0 0.23774016E+01</rscale>
<asrwt>0</asrwt>
<pdfrwt beam="1">0</pdfrwt>
<pdfrwt beam="2">0</pdfrwt>
<totfact> 0.14065962E+12</totfact>
</mgrwt>
</event>
<event>
 4    1  0.1838758E+006  0.2584762E+01  0.7546771E-02  0.2672301E+00
         22   -1    0    0    0    0  0.00000000000E+00  0.00000000000E+00  0.21095547299E+02  0.21095547299E+02  0.00000000000E+00 0. -1.
         22   -1    0    0    0    0 -0.00000000000E+00 -0.00000000000E+00 -0.34661238745E+01  0.34661238745E+01  0.00000000000E+00 0.  1.
          4    1    1    2  501    0  0.67254208683E+00 -0.21484369108E+01  0.20521056822E+02  0.20683200118E+02  0.12700000000E+01 0. -1.
         -4    1    1    2    0  501 -0.67254208683E+00  0.21484369108E+01 -0.28916333980E+01  0.38784710553E+01  0.12700000000E+01 0.  1.
<mgrwt>
<rscale>  0 0.25847619E+01</rscale>
<asrwt>0</asrwt>
<pdfrwt beam="1">0</pdfrwt>
<pdfrwt beam="2">0</pdfrwt>
<totfact> 0.15058467E+11</totfact>
</mgrwt>
</event>
<event>
 4    1  0.1838758E+006  0.4172437E+01  0.7546771E-02  0.2245497E+00
         22   -1    0    0    0    0  0.00000000000E+00  0.00000000000E+00  0.13747521759E+01  0.13747521759E+01  0.00000000000E+00 0.  1.
         22   -1    0    0    0    0 -0.00000000000E+00 -0.00000000000E+00 -0.17918067119E+02  0.17918067119E+02  0.00000000000E+00 0. -1.
          4    1    1    2  501    0  0.14209364726E+01  0.37117749218E+01 -0.30478542469E+01  0.51670735470E+01  0.12700000000E+01 0.  1.
         -4    1    1    2    0  501 -0.14209364726E+01 -0.37117749218E+01 -0.13495460697E+02  0.14125745748E+02  0.12700000000E+01 0. -1.
<mgrwt>
<rscale>  0 0.41724374E+01</rscale>
<asrwt>0</asrwt>
<pdfrwt beam="1">0</pdfrwt>
<pdfrwt beam="2">0</pdfrwt>
<totfact> 0.53943525E+11</totfact>
</mgrwt>
</event>
<event>
 4    1  0.1838758E+006  0.2102601E+01  0.7546771E-02  0.2914753E+00
         22   -1    0    0    0    0  0.00000000000E+00  0.00000000000E+00  0.55438894338E+00  0.55438894338E+00  0.00000000000E+00 0. -1.
         22   -1    0    0    0    0 -0.00000000000E+00 -0.00000000000E+00 -0.11459586710E+02  0.11459586710E+02  0.00000000000E+00 0.  1.
          4    1    1    2  501    0  0.37562214801E+00 -0.16330761939E+01 -0.21398836823E+01  0.30000053378E+01  0.12700000000E+01 0. -1.
         -4    1    1    2    0  501 -0.37562214801E+00  0.16330761939E+01 -0.87653140841E+01  0.90139703153E+01  0.12700000000E+01 0.  1.
<mgrwt>
<rscale>  0 0.21026007E+01</rscale>
<asrwt>0</asrwt>
<pdfrwt beam="1">0</pdfrwt>
<pdfrwt beam="2">0</pdfrwt>
<totfact> 0.26288840E+12</totfact>
</mgrwt>
</event>
<event>
 4    1  0.1838758E+006  0.2059004E+01  0.7546771E-02  0.2942004E+00
         22   -1    0    0    0    0  0.00000000000E+00  0.00000000000E+00  0.12031610950E+02  0.12031610950E+02  0.00000000000E+00 0. -1.
         22   -1    0    0    0    0 -0.00000000000E+00 -0.00000000000E+00 -0.63871159132E+00  0.63871159132E+00  0.00000000000E+00 0.  1.
          4    1    1    2  501    0  0.70338344398E+00  0.14600858057E+01  0.99382725616E+01  0.10149323147E+02  0.12700000000E+01 0. -1.
         -4    1    1    2    0  501 -0.70338344398E+00 -0.14600858057E+01  0.14546267975E+01  0.25209993949E+01  0.12700000000E+01 0.  1.
<mgrwt>
<rscale>  0 0.20590043E+01</rscale>
<asrwt>0</asrwt>
<pdfrwt beam="1">0</pdfrwt>
<pdfrwt beam="2">0</pdfrwt>
<totfact> 0.21104342E+12</totfact>
</mgrwt>
</event>
<event>
 4    1  0.1838758E+006  0.2120846E+01  0.7546771E-02  0.2903672E+00
         22   -1    0    0    0    0  0.00000000000E+00  0.00000000000E+00  0.38098247366E+01  0.38098247366E+01  0.00000000000E+00 0.  1.
         22   -1    0    0    0    0 -0.00000000000E+00 -0.00000000000E+00 -0.37730735168E+02  0.37730735168E+02  0.00000000000E+00 0. -1.
          4    1    1    2  501    0  0.16159274800E+01 -0.52332180843E+00  0.34822817864E+01  0.40772875513E+01  0.12700000000E+01 0.  1.
         -4    1    1    2    0  501 -0.16159274800E+01  0.52332180843E+00 -0.37403192218E+02  0.37463272353E+02  0.12700000000E+01 0. -1.
<mgrwt>
<rscale>  0 0.21208459E+01</rscale>
<asrwt>0</asrwt>
<pdfrwt beam="1">0</pdfrwt>
<pdfrwt beam="2">0</pdfrwt>
<totfact> 0.64381144E+10</totfact>
</mgrwt>
</event>
<event>
 4    1  0.1838758E+006  0.2704256E+01  0.7546771E-02  0.2624800E+00
         22   -1    0    0    0    0  0.00000000000E+00  0.00000000000E+00  0.38830176163E+02  0.38830176163E+02  0.00000000000E+00 0.  1.
         22   -1    0    0    0    0 -0.00000000000E+00 -0.00000000000E+00 -0.38978407403E+00  0.38978407403E+00  0.00000000000E+00 0. -1.
          4    1    1    2  501    0  0.16399741443E+01 -0.17351038379E+01  0.33317951933E+02  0.33427517430E+02  0.12700000000E+01 0.  1.
         -4    1    1    2    0  501 -0.16399741443E+01  0.17351038379E+01  0.51224401569E+01  0.57924428079E+01  0.12700000000E+01 0. -1.
<mgrwt>
<rscale>  0 0.27042560E+01</rscale>
<asrwt>0</asrwt>
<pdfrwt beam="1">0</pdfrwt>
<pdfrwt beam="2">0</pdfrwt>
<totfact> 0.84861065E+11</totfact>
</mgrwt>
</event>
<event>
 4    1  0.1838758E+006  0.2050592E+01  0.7546771E-02  0.2947392E+00
         22   -1    0    0    0    0  0.00000000000E+00  0.00000000000E+00  0.29698145366E+01  0.29698145366E+01  0.00000000000E+00 0. -1.
         22   -1    0    0    0    0 -0.00000000000E+00 -0.00000000000E+00 -0.14885749835E+01  0.14885749835E+01  0.00000000000E+00 0. -1.
          4    1    1    2  501    0  0.80426322191E+00 -0.13947002231E+01  0.12332121474E+01  0.23928519057E+01  0.12700000000E+01 0. -1.
         -4    1    1    2    0  501 -0.80426322191E+00  0.13947002231E+01  0.24802740576E+00  0.20655376144E+01  0.12700000000E+01 0. -1.
<mgrwt>
<rscale>  0 0.20505921E+01</rscale>
<asrwt>0</asrwt>
<pdfrwt beam="1">0</pdfrwt>
<pdfrwt beam="2">0</pdfrwt>
<totfact> 0.42535132E+12</totfact>
</mgrwt>
</event>
<event>
 4    1  0.1838758E+006  0.4434969E+01  0.7546771E-02  0.2201136E+00
         22   -1    0    0    0    0  0.00000000000E+00  0.00000000000E+00  0.56866571375E+01  0.56866571375E+01  0.00000000000E+00 0.  1.
         22   -1    0    0    0    0 -0.00000000000E+00 -0.00000000000E+00 -0.34744127965E+01  0.34744127965E+01  0.00000000000E+00 0. -1.
          4    1    1    2  501    0  0.40040047808E+01  0.14226705041E+01  0.14132876907E+01  0.46547102750E+01  0.12700000000E+01 0.  1.
         -4    1    1    2    0  501 -0.40040047808E+01 -0.14226705041E+01  0.79895665032E+00  0.45063596590E+01  0.12700000000E+01 0. -1.
<mgrwt>
<rscale>  0 0.44349685E+01</rscale>
<asrwt>0</asrwt>
<pdfrwt beam="1">0</pdfrwt>
<pdfrwt beam="2">0</pdfrwt>
<totfact> 0.73985570E+11</totfact>
</mgrwt>
</event>
<event>
 4    1  0.1838758E+006  0.2671736E+01  0.7546771E-02  0.2637340E+00
         22   -1    0    0    0    0  0.00000000000E+00  0.00000000000E+00  0.36348136135E+01  0.36348136135E+01  0.00000000000E+00 0. -1.
         22   -1    0    0    0    0 -0.00000000000E+00 -0.00000000000E+00 -0.29332168345E+01  0.29332168345E+01  0.00000000000E+00 0. -1.
          4    1    1    2  501    0  0.15917012255E+01  0.17296709736E+01  0.22387049642E+01  0.34856813372E+01  0.12700000000E+01 0. -1.
         -4    1    1    2    0  501 -0.15917012255E+01 -0.17296709736E+01 -0.15371081852E+01  0.30823491108E+01  0.12700000000E+01 0. -1.
<mgrwt>
<rscale>  0 0.26717362E+01</rscale>
<asrwt>0</asrwt>
<pdfrwt beam="1">0</pdfrwt>
<pdfrwt beam="2">0</pdfrwt>
<totfact> 0.15301002E+12</totfact>
</mgrwt>
</event>
<event>
 4    1  0.1838758E+006  0.3022018E+01  0.7546771E-02  0.2515268E+00
         22   -1    0    0    0    0  0.00000000000E+00  0.00000000000E+00  0.23257502741E+02  0.23257502741E+02  0.00000000000E+00 0.  1.
         22   -1    0    0    0    0 -0.00000000000E+00 -0.00000000000E+00 -0.70546817637E+00  0.70546817637E+00  0.00000000000E+00 0. -1.
          4    1    1    2  501    0  0.16764124784E+01  0.21701004103E+01  0.19254162528E+02  0.19489878636E+02  0.12700000000E+01 0.  1.
         -4    1    1    2    0  501 -0.16764124784E+01 -0.21701004103E+01  0.32978720368E+01  0.44730922816E+01  0.12700000000E+01 0. -1.
<mgrwt>
<rscale>  0 0.30220183E+01</rscale>
<asrwt>0</asrwt>
<pdfrwt beam="1">0</pdfrwt>
<pdfrwt beam="2">0</pdfrwt>
<totfact> 0.83436604E+11</totfact>
</mgrwt>
</event>
<event>
 4    1  0.1838758E+006  0.2150286E+01  0.7546771E-02  0.2886174E+00
         22   -1    0    0    0    0  0.00000000000E+00  0.00000000000E+00  0.33511355360E+02  0.33511355360E+02  0.00000000000E+00 0.  1.
         22   -1    0    0    0    0 -0.00000000000E+00 -0.00000000000E+00 -0.26134283882E+00  0.26134283882E+00  0.00000000000E+00 0. -1.
          4    1    1    2  501    0 -0.17314811680E+01  0.11315160318E+00  0.28226966792E+02  0.28308751025E+02  0.12700000000E+01 0.  1.
         -4    1    1    2    0  501  0.17314811680E+01 -0.11315160318E+00  0.50230457292E+01  0.54639471738E+01  0.12700000000E+01 0. -1.
<mgrwt>
<rscale>  0 0.21502861E+01</rscale>
<asrwt>0</asrwt>
<pdfrwt beam="1">0</pdfrwt>
<pdfrwt beam="2">0</pdfrwt>
<totfact> 0.16068278E+12</totfact>
</mgrwt>
</event>
<event>
 4    1  0.1838758E+006  0.2413963E+01  0.7546771E-02  0.2747720E+00
         22   -1    0    0    0    0  0.00000000000E+00  0.00000000000E+00  0.28127012564E+01  0.28127012564E+01  0.00000000000E+00 0.  1.
         22   -1    0    0    0    0 -0.00000000000E+00 -0.00000000000E+00 -0.60438577534E+01  0.60438577534E+01  0.00000000000E+00 0.  1.
          4    1    1    2  501    0  0.16871366288E+01  0.11695674569E+01  0.19743712282E+01  0.31185509114E+01  0.12700000000E+01 0.  1.
         -4    1    1    2    0  501 -0.16871366288E+01 -0.11695674569E+01 -0.52055277252E+01  0.57380080984E+01  0.12700000000E+01 0.  1.
<mgrwt>
<rscale>  0 0.24139631E+01</rscale>
<asrwt>0</asrwt>
<pdfrwt beam="1">0</pdfrwt>
<pdfrwt beam="2">0</pdfrwt>
<totfact> 0.88096365E+11</totfact>
</mgrwt>
</event>
<event>
 4    1  0.1838758E+006  0.3485763E+01  0.7546771E-02  0.2387884E+00
         22   -1    0    0    0    0  0.00000000000E+00  0.00000000000E+00  0.14029814068E+01  0.14029814068E+01  0.00000000000E+00 0. -1.
         22   -1    0    0    0    0 -0.00000000000E+00 -0.00000000000E+00 -0.14480586146E+02  0.14480586146E+02  0.00000000000E+00 0.  1.
          4    1    1    2  501    0 -0.18283261966E+01  0.26823248246E+01 -0.15039227484E+01  0.37963570405E+01  0.12700000000E+01 0. -1.
         -4    1    1    2    0  501  0.18283261966E+01 -0.26823248246E+01 -0.11573681991E+02  0.12087210512E+02  0.12700000000E+01 0.  1.
<mgrwt>
<rscale>  0 0.34857629E+01</rscale>
<asrwt>0</asrwt>
<pdfrwt beam="1">0</pdfrwt>
<pdfrwt beam="2">0</pdfrwt>
<totfact> 0.68547930E+11</totfact>
</mgrwt>
</event>
<event>
 4    1  0.1838758E+006  0.2118888E+01  0.7546771E-02  0.2904852E+00
         22   -1    0    0    0    0  0.00000000000E+00  0.00000000000E+00  0.83745589056E-01  0.83745589056E-01  0.00000000000E+00 0. -1.
         22   -1    0    0    0    0 -0.00000000000E+00 -0.00000000000E+00 -0.65091861965E+02  0.65091861965E+02  0.00000000000E+00 0.  1.
          4    1    1    2  501    0  0.11150173977E+01 -0.12780933141E+01 -0.18817991726E+02  0.18936908378E+02  0.12700000000E+01 0. -1.
         -4    1    1    2    0  501 -0.11150173977E+01  0.12780933141E+01 -0.46190124651E+02  0.46238699177E+02  0.12700000000E+01 0.  1.
<mgrwt>
<rscale>  0 0.21188880E+01</rscale>
<asrwt>0</asrwt>
<pdfrwt beam="1">0</pdfrwt>
<pdfrwt beam="2">0</pdfrwt>
<totfact> 0.23813278E+12</totfact>
</mgrwt>
</event>
<event>
 4    1  0.1838758E+006  0.2513157E+01  0.7546771E-02  0.2702758E+00
         22   -1    0    0    0    0  0.00000000000E+00  0.00000000000E+00  0.28217624593E+01  0.28217624593E+01  0.00000000000E+00 0. -1.
         22   -1    0    0    0    0 -0.00000000000E+00 -0.00000000000E+00 -0.24414911684E+01  0.24414911684E+01  0.00000000000E+00 0. -1.
          4    1    1    2  501    0  0.20294347375E+01  0.76449588623E+00  0.94931773888E+00  0.26864778956E+01  0.12700000000E+01 0. -1.
         -4    1    1    2    0  501 -0.20294347375E+01 -0.76449588623E+00 -0.56904644795E+00  0.25767757322E+01  0.12700000000E+01 0. -1.
<mgrwt>
<rscale>  0 0.25131572E+01</rscale>
<asrwt>0</asrwt>
<pdfrwt beam="1">0</pdfrwt>
<pdfrwt beam="2">0</pdfrwt>
<totfact> 0.25481248E+12</totfact>
</mgrwt>
</event>
<event>
 4    1  0.1838758E+006  0.2045141E+01  0.7546771E-02  0.2950906E+00
         22   -1    0    0    0    0  0.00000000000E+00  0.00000000000E+00  0.60681309941E+01  0.60681309941E+01  0.00000000000E+00 0.  1.
         22   -1    0    0    0    0 -0.00000000000E+00 -0.00000000000E+00 -0.87358737158E+00  0.87358737158E+00  0.00000000000E+00 0. -1.
          4    1    1    2  501    0 -0.12048525732E+01  0.10573697614E+01  0.41915462906E+01  0.46638675841E+01  0.12700000000E+01 0.  1.
         -4    1    1    2    0  501  0.12048525732E+01 -0.10573697614E+01  0.10029973319E+01  0.22778507816E+01  0.12700000000E+01 0. -1.
<mgrwt>
<rscale>  0 0.20451407E+01</rscale>
<asrwt>0</asrwt>
<pdfrwt beam="1">0</pdfrwt>
<pdfrwt beam="2">0</pdfrwt>
<totfact> 0.33719213E+12</totfact>
</mgrwt>
</event>
<event>
 4    1  0.1838758E+006  0.4034572E+01  0.7546771E-02  0.2270734E+00
         22   -1    0    0    0    0  0.00000000000E+00  0.00000000000E+00  0.77750676885E+01  0.77750676885E+01  0.00000000000E+00 0. -1.
         22   -1    0    0    0    0 -0.00000000000E+00 -0.00000000000E+00 -0.29161787923E+01  0.29161787923E+01  0.00000000000E+00 0.  1.
          4    1    1    2  501    0 -0.26357597511E+01  0.27780648791E+01  0.52685640368E+01  0.66359280397E+01  0.12700000000E+01 0. -1.
         -4    1    1    2    0  501  0.26357597511E+01 -0.27780648791E+01 -0.40967514059E+00  0.40553184411E+01  0.12700000000E+01 0.  1.
<mgrwt>
<rscale>  0 0.40345723E+01</rscale>
<asrwt>0</asrwt>
<pdfrwt beam="1">0</pdfrwt>
<pdfrwt beam="2">0</pdfrwt>
<totfact> 0.62503275E+11</totfact>
</mgrwt>
</event>
<event>
 4    1  0.1838758E+006  0.4882716E+01  0.7546771E-02  0.2137269E+00
         22   -1    0    0    0    0  0.00000000000E+00  0.00000000000E+00  0.24103930864E+01  0.24103930864E+01  0.00000000000E+00 0.  1.
         22   -1    0    0    0    0 -0.00000000000E+00 -0.00000000000E+00 -0.12001179387E+02  0.12001179387E+02  0.00000000000E+00 0. -1.
          4    1    1    2  501    0 -0.40893312998E+01 -0.23463554672E+01 -0.17737637025E+01  0.51949159888E+01  0.12700000000E+01 0.  1.
         -4    1    1    2    0  501  0.40893312998E+01  0.23463554672E+01 -0.78170225983E+01  0.92166564849E+01  0.12700000000E+01 0. -1.
<mgrwt>
<rscale>  0 0.48827159E+01</rscale>
<asrwt>0</asrwt>
<pdfrwt beam="1">0</pdfrwt>
<pdfrwt beam="2">0</pdfrwt>
<totfact> 0.46157711E+11</totfact>
</mgrwt>
</event>
<event>
 4    1  0.1838758E+006  0.2829542E+01  0.7546771E-02  0.2578955E+00
         22   -1    0    0    0    0  0.00000000000E+00  0.00000000000E+00  0.15755944072E+01  0.15755944072E+01  0.00000000000E+00 0. -1.
         22   -1    0    0    0    0 -0.00000000000E+00 -0.00000000000E+00 -0.51970473224E+01  0.51970473224E+01  0.00000000000E+00 0.  1.
          4    1    1    2  501    0 -0.24907748363E+01  0.43525392756E+00 -0.13056903995E+01  0.31162690330E+01  0.12700000000E+01 0. -1.
         -4    1    1    2    0  501  0.24907748363E+01 -0.43525392756E+00 -0.23157625158E+01  0.36563726966E+01  0.12700000000E+01 0.  1.
<mgrwt>
<rscale>  0 0.28295415E+01</rscale>
<asrwt>0</asrwt>
<pdfrwt beam="1">0</pdfrwt>
<pdfrwt beam="2">0</pdfrwt>
<totfact> 0.20630320E+12</totfact>
</mgrwt>
</event>
<event>
 4    1  0.1838758E+006  0.2165431E+01  0.7546771E-02  0.2877352E+00
         22   -1    0    0    0    0  0.00000000000E+00  0.00000000000E+00  0.17236781986E+00  0.17236781986E+00  0.00000000000E+00 0.  1.
         22   -1    0    0    0    0 -0.00000000000E+00 -0.00000000000E+00 -0.29438693906E+02  0.29438693906E+02  0.00000000000E+00 0.  1.
          4    1    1    2  501    0  0.33475360713E+00 -0.17216659278E+01 -0.10553971574E+02  0.10773829845E+02  0.12700000000E+01 0.  1.
         -4    1    1    2    0  501 -0.33475360713E+00  0.17216659278E+01 -0.18712354512E+02  0.18837231881E+02  0.12700000000E+01 0.  1.
<mgrwt>
<rscale>  0 0.21654315E+01</rscale>
<asrwt>0</asrwt>
<pdfrwt beam="1">0</pdfrwt>
<pdfrwt beam="2">0</pdfrwt>
<totfact> 0.30176961E+12</totfact>
</mgrwt>
</event>
<event>
 4    1  0.1838758E+006  0.4224521E+01  0.7546771E-02  0.2236327E+00
         22   -1    0    0    0    0  0.00000000000E+00  0.00000000000E+00  0.40173856744E+01  0.40173856744E+01  0.00000000000E+00 0.  1.
         22   -1    0    0    0    0 -0.00000000000E+00 -0.00000000000E+00 -0.44643028227E+01  0.44643028227E+01  0.00000000000E+00 0. -1.
          4    1    1    2  501    0 -0.36422271910E+01 -0.17227483741E+01 -0.52093298608E+00  0.42565187709E+01  0.12700000000E+01 0. -1.
         -4    1    1    2    0  501  0.36422271910E+01  0.17227483741E+01  0.74015837750E-01  0.42251697262E+01  0.12700000000E+01 0.  1.
<mgrwt>
<rscale>  0 0.42245214E+01</rscale>
<asrwt>0</asrwt>
<pdfrwt beam="1">0</pdfrwt>
<pdfrwt beam="2">0</pdfrwt>
<totfact> 0.83089143E+11</totfact>
</mgrwt>
</event>
<event>
 4    1  0.1838758E+006  0.2989040E+01  0.7546771E-02  0.2525655E+00
         22   -1    0    0    0    0  0.00000000000E+00  0.00000000000E+00  0.43354035640E+00  0.43354035640E+00  0.00000000000E+00 0.  1.
         22   -1    0    0    0    0 -0.00000000000E+00 -0.00000000000E+00 -0.23562103603E+02  0.23562103603E+02  0.00000000000E+00 0. -1.
          4    1    1    2  501    0  0.35839913078E+00  0.26819788846E+01 -0.73159847788E+01  0.79030370085E+01  0.12700000000E+01 0.  1.
         -4    1    1    2    0  501 -0.35839913078E+00 -0.26819788846E+01 -0.15812578468E+02  0.16092606951E+02  0.12700000000E+01 0. -1.
<mgrwt>
<rscale>  0 0.29890401E+01</rscale>
<asrwt>0</asrwt>
<pdfrwt beam="1">0</pdfrwt>
<pdfrwt beam="2">0</pdfrwt>
<totfact> 0.14236355E+12</totfact>
</mgrwt>
</event>
<event>
 4    1  0.1838758E+006  0.2776992E+01  0.7546771E-02  0.2597725E+00
         22   -1    0    0    0    0  0.00000000000E+00  0.00000000000E+00  0.24366309565E+01  0.24366309565E+01  0.00000000000E+00 0.  1.
         22   -1    0    0    0    0 -0.00000000000E+00 -0.00000000000E+00 -0.41985473413E+01  0.41985473413E+01  0.00000000000E+00 0.  1.
          4    1    1    2  501    0 -0.13425731623E+01  0.20727476601E+01  0.76515592400E+00  0.28804772428E+01  0.12700000000E+01 0.  1.
         -4    1    1    2    0  501  0.13425731623E+01 -0.20727476601E+01 -0.25270723088E+01  0.37547010550E+01  0.12700000000E+01 0.  1.
<mgrwt>
<rscale>  0 0.27769922E+01</rscale>
<asrwt>0</asrwt>
<pdfrwt beam="1">0</pdfrwt>
<pdfrwt beam="2">0</pdfrwt>
<totfact> 0.16029852E+12</totfact>
</mgrwt>
</event>
<event>
 4    1  0.1838758E+006  0.2715634E+01  0.7546771E-02  0.2620477E+00
         22   -1    0    0    0    0  0.00000000000E+00  0.00000000000E+00  0.80709794482E+00  0.80709794482E+00  0.00000000000E+00 0. -1.
         22   -1    0    0    0    0 -0.00000000000E+00 -0.00000000000E+00 -0.15521882373E+02  0.15521882373E+02  0.00000000000E+00 0. -1.
          4    1    1    2  501    0  0.53060929814E+00 -0.23409876879E+01 -0.21210956114E+01  0.34458259061E+01  0.12700000000E+01 0. -1.
         -4    1    1    2    0  501 -0.53060929814E+00  0.23409876879E+01 -0.12593688817E+02  0.12883154412E+02  0.12700000000E+01 0. -1.
<mgrwt>
<rscale>  0 0.27156343E+01</rscale>
<asrwt>0</asrwt>
<pdfrwt beam="1">0</pdfrwt>
<pdfrwt beam="2">0</pdfrwt>
<totfact> 0.11841597E+12</totfact>
</mgrwt>
</event>
<event>
 4    1  0.1838758E+006  0.2104805E+01  0.7546771E-02  0.2913404E+00
         22   -1    0    0    0    0  0.00000000000E+00  0.00000000000E+00  0.33540298382E+01  0.33540298382E+01  0.00000000000E+00 0.  1.
         22   -1    0    0    0    0 -0.00000000000E+00 -0.00000000000E+00 -0.39432730305E+01  0.39432730305E+01  0.00000000000E+00 0.  1.
          4    1    1    2  501    0 -0.13941282034E+01 -0.93472527037E+00  0.26808408683E+01  0.34083885546E+01  0.12700000000E+01 0.  1.
         -4    1    1    2    0  501  0.13941282034E+01  0.93472527037E+00 -0.32700840606E+01  0.38889143140E+01  0.12700000000E+01 0.  1.
<mgrwt>
<rscale>  0 0.21048052E+01</rscale>
<asrwt>0</asrwt>
<pdfrwt beam="1">0</pdfrwt>
<pdfrwt beam="2">0</pdfrwt>
<totfact> 0.11885866E+12</totfact>
</mgrwt>
</event>
<event>
 4    1  0.1838758E+006  0.3540671E+01  0.7546771E-02  0.2374757E+00
         22   -1    0    0    0    0  0.00000000000E+00  0.00000000000E+00  0.15007782424E+02  0.15007782424E+02  0.00000000000E+00 0.  1.
         22   -1    0    0    0    0 -0.00000000000E+00 -0.00000000000E+00 -0.11890113055E+01  0.11890113055E+01  0.00000000000E+00 0.  1.
          4    1    1    2  501    0 -0.32967693421E+01 -0.23402189525E+00  0.11326270295E+02  0.11866792033E+02  0.12700000000E+01 0.  1.
         -4    1    1    2    0  501  0.32967693421E+01  0.23402189525E+00  0.24925008235E+01  0.43300016972E+01  0.12700000000E+01 0.  1.
<mgrwt>
<rscale>  0 0.35406715E+01</rscale>
<asrwt>0</asrwt>
<pdfrwt beam="1">0</pdfrwt>
<pdfrwt beam="2">0</pdfrwt>
<totfact> 0.79313996E+11</totfact>
</mgrwt>
</event>
<event>
 4    1  0.1838758E+006  0.2880519E+01  0.7546771E-02  0.2561341E+00
         22   -1    0    0    0    0  0.00000000000E+00  0.00000000000E+00  0.58102172586E+01  0.58102172586E+01  0.00000000000E+00 0. -1.
         22   -1    0    0    0    0 -0.00000000000E+00 -0.00000000000E+00 -0.16382824843E+01  0.16382824843E+01  0.00000000000E+00 0.  1.
          4    1    1    2  501    0 -0.78941092168E+00  0.24619744514E+01  0.34200271884E+01  0.44714621515E+01  0.12700000000E+01 0.  1.
         -4    1    1    2    0  501  0.78941092168E+00 -0.24619744514E+01  0.75190758590E+00  0.29770375914E+01  0.12700000000E+01 0.  1.
<mgrwt>
<rscale>  0 0.28805187E+01</rscale>
<asrwt>0</asrwt>
<pdfrwt beam="1">0</pdfrwt>
<pdfrwt beam="2">0</pdfrwt>
<totfact> 0.17277365E+12</totfact>
</mgrwt>
</event>
<event>
 4    1  0.1838758E+006  0.2288041E+01  0.7546771E-02  0.2810056E+00
         22   -1    0    0    0    0  0.00000000000E+00  0.00000000000E+00  0.10725970499E+02  0.10725970499E+02  0.00000000000E+00 0. -1.
         22   -1    0    0    0    0 -0.00000000000E+00 -0.00000000000E+00 -0.10551549134E+01  0.10551549134E+01  0.00000000000E+00 0.  1.
          4    1    1    2  501    0  0.18784389698E+01  0.30610032911E+00  0.51704689355E+00  0.23457339714E+01  0.12700000000E+01 0.  1.
         -4    1    1    2    0  501 -0.18784389698E+01 -0.30610032911E+00  0.91537686917E+01  0.94353914405E+01  0.12700000000E+01 0. -1.
<mgrwt>
<rscale>  0 0.22880407E+01</rscale>
<asrwt>0</asrwt>
<pdfrwt beam="1">0</pdfrwt>
<pdfrwt beam="2">0</pdfrwt>
<totfact> 0.13707754E+12</totfact>
</mgrwt>
</event>
<event>
 4    1  0.1838758E+006  0.2066048E+01  0.7546771E-02  0.2937525E+00
         22   -1    0    0    0    0  0.00000000000E+00  0.00000000000E+00  0.15569735546E+01  0.15569735546E+01  0.00000000000E+00 0. -1.
         22   -1    0    0    0    0 -0.00000000000E+00 -0.00000000000E+00 -0.28355048309E+01  0.28355048309E+01  0.00000000000E+00 0. -1.
          4    1    1    2  501    0  0.34806255587E+00  0.15920136394E+01 -0.23952956506E+00  0.20798868680E+01  0.12700000000E+01 0. -1.
         -4    1    1    2    0  501 -0.34806255587E+00 -0.15920136394E+01 -0.10390017113E+01  0.23125915175E+01  0.12700000000E+01 0. -1.
<mgrwt>
<rscale>  0 0.20660482E+01</rscale>
<asrwt>0</asrwt>
<pdfrwt beam="1">0</pdfrwt>
<pdfrwt beam="2">0</pdfrwt>
<totfact> 0.42633851E+12</totfact>
</mgrwt>
</event>
<event>
 4    1  0.1838758E+006  0.2273723E+01  0.7546771E-02  0.2817557E+00
         22   -1    0    0    0    0  0.00000000000E+00  0.00000000000E+00  0.16403229398E+01  0.16403229398E+01  0.00000000000E+00 0.  1.
         22   -1    0    0    0    0 -0.00000000000E+00 -0.00000000000E+00 -0.33007369587E+01  0.33007369587E+01  0.00000000000E+00 0.  1.
          4    1    1    2  501    0  0.18763859937E+01 -0.18997729175E+00 -0.30525112509E+00  0.22941216223E+01  0.12700000000E+01 0.  1.
         -4    1    1    2    0  501 -0.18763859937E+01  0.18997729175E+00 -0.13551628938E+01  0.26469382761E+01  0.12700000000E+01 0.  1.
<mgrwt>
<rscale>  0 0.22737229E+01</rscale>
<asrwt>0</asrwt>
<pdfrwt beam="1">0</pdfrwt>
<pdfrwt beam="2">0</pdfrwt>
<totfact> 0.33617579E+12</totfact>
</mgrwt>
</event>
<event>
 4    1  0.1838758E+006  0.2705036E+01  0.7546771E-02  0.2624502E+00
         22   -1    0    0    0    0  0.00000000000E+00  0.00000000000E+00  0.21476012397E+00  0.21476012397E+00  0.00000000000E+00 0.  1.
         22   -1    0    0    0    0 -0.00000000000E+00 -0.00000000000E+00 -0.34781516168E+02  0.34781516168E+02  0.00000000000E+00 0. -1.
          4    1    1    2  501    0  0.17446310679E+01 -0.16311288821E+01 -0.14783469971E+02  0.15028912249E+02  0.12700000000E+01 0.  1.
         -4    1    1    2    0  501 -0.17446310679E+01  0.16311288821E+01 -0.19783286073E+02  0.19967364044E+02  0.12700000000E+01 0. -1.
<mgrwt>
<rscale>  0 0.27050359E+01</rscale>
<asrwt>0</asrwt>
<pdfrwt beam="1">0</pdfrwt>
<pdfrwt beam="2">0</pdfrwt>
<totfact> 0.19078967E+12</totfact>
</mgrwt>
</event>
<event>
 4    1  0.1838758E+006  0.2068092E+01  0.7546771E-02  0.2936231E+00
         22   -1    0    0    0    0  0.00000000000E+00  0.00000000000E+00  0.20551352127E+01  0.20551352127E+01  0.00000000000E+00 0. -1.
         22   -1    0    0    0    0 -0.00000000000E+00 -0.00000000000E+00 -0.22801439539E+01  0.22801439539E+01  0.00000000000E+00 0. -1.
          4    1    1    2  501    0 -0.10688735243E+01 -0.12335375624E+01 -0.75289748065E+00  0.22008771309E+01  0.12700000000E+01 0. -1.
         -4    1    1    2    0  501  0.10688735243E+01  0.12335375624E+01  0.52788873945E+00  0.21344020357E+01  0.12700000000E+01 0. -1.
<mgrwt>
<rscale>  0 0.20680922E+01</rscale>
<asrwt>0</asrwt>
<pdfrwt beam="1">0</pdfrwt>
<pdfrwt beam="2">0</pdfrwt>
<totfact> 0.39874877E+12</totfact>
</mgrwt>
</event>
<event>
 4    1  0.1838758E+006  0.2422218E+01  0.7546771E-02  0.2743848E+00
         22   -1    0    0    0    0  0.00000000000E+00  0.00000000000E+00  0.15274443794E+01  0.15274443794E+01  0.00000000000E+00 0. -1.
         22   -1    0    0    0    0 -0.00000000000E+00 -0.00000000000E+00 -0.64623010229E+01  0.64623010229E+01  0.00000000000E+00 0. -1.
          4    1    1    2  501    0 -0.50780463114E+00 -0.19990928853E+01  0.76797464409E-01  0.24234347027E+01  0.12700000000E+01 0. -1.
         -4    1    1    2    0  501  0.50780463114E+00  0.19990928853E+01 -0.50116541079E+01  0.55663106996E+01  0.12700000000E+01 0. -1.
<mgrwt>
<rscale>  0 0.24222176E+01</rscale>
<asrwt>0</asrwt>
<pdfrwt beam="1">0</pdfrwt>
<pdfrwt beam="2">0</pdfrwt>
<totfact> 0.16500005E+12</totfact>
</mgrwt>
</event>
<event>
 4    1  0.1838758E+006  0.2246722E+01  0.7546771E-02  0.2831951E+00
         22   -1    0    0    0    0  0.00000000000E+00  0.00000000000E+00  0.25251406529E+01  0.25251406529E+01  0.00000000000E+00 0.  1.
         22   -1    0    0    0    0 -0.00000000000E+00 -0.00000000000E+00 -0.27260392003E+01  0.27260392003E+01  0.00000000000E+00 0.  1.
          4    1    1    2  501    0  0.48492132595E+00  0.17887738162E+01  0.12554869257E+01  0.25737148013E+01  0.12700000000E+01 0.  1.
         -4    1    1    2    0  501 -0.48492132595E+00 -0.17887738162E+01 -0.14563854731E+01  0.26774650519E+01  0.12700000000E+01 0.  1.
<mgrwt>
<rscale>  0 0.22467222E+01</rscale>
<asrwt>0</asrwt>
<pdfrwt beam="1">0</pdfrwt>
<pdfrwt beam="2">0</pdfrwt>
<totfact> 0.25507537E+12</totfact>
</mgrwt>
</event>
<event>
 4    1  0.1838758E+006  0.4694876E+01  0.7546771E-02  0.2161359E+00
         22   -1    0    0    0    0  0.00000000000E+00  0.00000000000E+00  0.47938068246E+01  0.47938068246E+01  0.00000000000E+00 0. -1.
         22   -1    0    0    0    0 -0.00000000000E+00 -0.00000000000E+00 -0.46117895931E+01  0.46117895931E+01  0.00000000000E+00 0.  1.
          4    1    1    2  501    0 -0.88368731214E+00  0.44326127045E+01 -0.16627442112E+00  0.46978192639E+01  0.12700000000E+01 0. -1.
         -4    1    1    2    0  501  0.88368731214E+00 -0.44326127045E+01  0.34829165265E+00  0.47077771537E+01  0.12700000000E+01 0.  1.
<mgrwt>
<rscale>  0 0.46948758E+01</rscale>
<asrwt>0</asrwt>
<pdfrwt beam="1">0</pdfrwt>
<pdfrwt beam="2">0</pdfrwt>
<totfact> 0.64915773E+11</totfact>
</mgrwt>
</event>
<event>
 4    1  0.1838758E+006  0.2360140E+01  0.7546771E-02  0.2773597E+00
         22   -1    0    0    0    0  0.00000000000E+00  0.00000000000E+00  0.60005482706E+01  0.60005482706E+01  0.00000000000E+00 0. -1.
         22   -1    0    0    0    0 -0.00000000000E+00 -0.00000000000E+00 -0.98637000524E+00  0.98637000524E+00  0.00000000000E+00 0. -1.
          4    1    1    2  501    0 -0.20690849632E+00  0.19785221715E+01  0.33547877783E+01  0.41018120564E+01  0.12700000000E+01 0. -1.
         -4    1    1    2    0  501  0.20690849632E+00 -0.19785221715E+01  0.16593904871E+01  0.28851062194E+01  0.12700000000E+01 0. -1.
<mgrwt>
<rscale>  0 0.23601401E+01</rscale>
<asrwt>0</asrwt>
<pdfrwt beam="1">0</pdfrwt>
<pdfrwt beam="2">0</pdfrwt>
<totfact> 0.29754703E+12</totfact>
</mgrwt>
</event>
<event>
 4    1  0.1838758E+006  0.3361667E+01  0.7546771E-02  0.2418926E+00
         22   -1    0    0    0    0  0.00000000000E+00  0.00000000000E+00  0.51705356385E+01  0.51705356385E+01  0.00000000000E+00 0.  1.
         22   -1    0    0    0    0 -0.00000000000E+00 -0.00000000000E+00 -0.21856440833E+01  0.21856440833E+01  0.00000000000E+00 0. -1.
          4    1    1    2  501    0  0.15043992316E+01 -0.27248277807E+01  0.14791738070E+01  0.36727045394E+01  0.12700000000E+01 0.  1.
         -4    1    1    2    0  501 -0.15043992316E+01  0.27248277807E+01  0.15057177481E+01  0.36834751824E+01  0.12700000000E+01 0. -1.
<mgrwt>
<rscale>  0 0.33616668E+01</rscale>
<asrwt>0</asrwt>
<pdfrwt beam="1">0</pdfrwt>
<pdfrwt beam="2">0</pdfrwt>
<totfact> 0.14219488E+12</totfact>
</mgrwt>
</event>
<event>
 4    1  0.1838758E+006  0.2094066E+01  0.7546771E-02  0.2920001E+00
         22   -1    0    0    0    0  0.00000000000E+00  0.00000000000E+00  0.43315678490E+02  0.43315678490E+02  0.00000000000E+00 0. -1.
         22   -1    0    0    0    0 -0.00000000000E+00 -0.00000000000E+00 -0.10625980633E+00  0.10625980633E+00  0.00000000000E+00 0. -1.
          4    1    1    2  501    0 -0.94356680979E+00 -0.13718210889E+01  0.26325402354E+02  0.26408557714E+02  0.12700000000E+01 0. -1.
         -4    1    1    2    0  501  0.94356680979E+00  0.13718210889E+01  0.16884016329E+02  0.17013380582E+02  0.12700000000E+01 0. -1.
<mgrwt>
<rscale>  0 0.20940658E+01</rscale>
<asrwt>0</asrwt>
<pdfrwt beam="1">0</pdfrwt>
<pdfrwt beam="2">0</pdfrwt>
<totfact> 0.31396586E+12</totfact>
</mgrwt>
</event>
<event>
 4    1  0.1838758E+006  0.2164056E+01  0.7546771E-02  0.2878148E+00
         22   -1    0    0    0    0  0.00000000000E+00  0.00000000000E+00  0.12350872577E+02  0.12350872577E+02  0.00000000000E+00 0.  1.
         22   -1    0    0    0    0 -0.00000000000E+00 -0.00000000000E+00 -0.40278667329E+00  0.40278667329E+00  0.00000000000E+00 0. -1.
          4    1    1    2  501    0  0.17390553798E+01 -0.21430115839E+00  0.75179930614E+01  0.78232575231E+01  0.12700000000E+01 0.  1.
         -4    1    1    2    0  501 -0.17390553798E+01  0.21430115839E+00  0.44300928425E+01  0.49304017274E+01  0.12700000000E+01 0. -1.
<mgrwt>
<rscale>  0 0.21640561E+01</rscale>
<asrwt>0</asrwt>
<pdfrwt beam="1">0</pdfrwt>
<pdfrwt beam="2">0</pdfrwt>
<totfact> 0.34408965E+12</totfact>
</mgrwt>
</event>
<event>
 4    1  0.1838758E+006  0.2121840E+01  0.7546771E-02  0.2903073E+00
         22   -1    0    0    0    0  0.00000000000E+00  0.00000000000E+00  0.27835738986E+01  0.27835738986E+01  0.00000000000E+00 0. -1.
         22   -1    0    0    0    0 -0.00000000000E+00 -0.00000000000E+00 -0.26386197243E+01  0.26386197243E+01  0.00000000000E+00 0.  1.
          4    1    1    2  501    0  0.33165742304E+00  0.16671253770E+01  0.17590779046E+01  0.27561855423E+01  0.12700000000E+01 0. -1.
         -4    1    1    2    0  501 -0.33165742304E+00 -0.16671253770E+01 -0.16141237303E+01  0.26660080806E+01  0.12700000000E+01 0.  1.
<mgrwt>
<rscale>  0 0.21218397E+01</rscale>
<asrwt>0</asrwt>
<pdfrwt beam="1">0</pdfrwt>
<pdfrwt beam="2">0</pdfrwt>
<totfact> 0.23651526E+12</totfact>
</mgrwt>
</event>
<event>
 4    1  0.1838758E+006  0.2217141E+01  0.7546771E-02  0.2848103E+00
         22   -1    0    0    0    0  0.00000000000E+00  0.00000000000E+00  0.45565729092E+02  0.45565729092E+02  0.00000000000E+00 0.  1.
         22   -1    0    0    0    0 -0.00000000000E+00 -0.00000000000E+00 -0.13044182430E+00  0.13044182430E+00  0.00000000000E+00 0.  1.
          4    1    1    2  501    0  0.12727098770E+01  0.12973146431E+01  0.32219546003E+02  0.32295740592E+02  0.12700000000E+01 0.  1.
         -4    1    1    2    0  501 -0.12727098770E+01 -0.12973146431E+01  0.13215741265E+02  0.13400430325E+02  0.12700000000E+01 0.  1.
<mgrwt>
<rscale>  0 0.22171413E+01</rscale>
<asrwt>0</asrwt>
<pdfrwt beam="1">0</pdfrwt>
<pdfrwt beam="2">0</pdfrwt>
<totfact> 0.23409881E+12</totfact>
</mgrwt>
</event>
<event>
 4    1  0.1838758E+006  0.2204837E+01  0.7546771E-02  0.2854943E+00
         22   -1    0    0    0    0  0.00000000000E+00  0.00000000000E+00  0.13526425812E+01  0.13526425812E+01  0.00000000000E+00 0. -1.
         22   -1    0    0    0    0 -0.00000000000E+00 -0.00000000000E+00 -0.21251432950E+02  0.21251432950E+02  0.00000000000E+00 0. -1.
          4    1    1    2  501    0  0.14300402517E+01 -0.10969909667E+01  0.35274070774E+00  0.22328748978E+01  0.12700000000E+01 0. -1.
         -4    1    1    2    0  501 -0.14300402517E+01  0.10969909667E+01 -0.20251531076E+02  0.20371200633E+02  0.12700000000E+01 0. -1.
<mgrwt>
<rscale>  0 0.22048366E+01</rscale>
<asrwt>0</asrwt>
<pdfrwt beam="1">0</pdfrwt>
<pdfrwt beam="2">0</pdfrwt>
<totfact> 0.44432698E+11</totfact>
</mgrwt>
</event>
<event>
 4    1  0.1838758E+006  0.3452809E+01  0.7546771E-02  0.2395937E+00
         22   -1    0    0    0    0  0.00000000000E+00  0.00000000000E+00  0.21264920474E+01  0.21264920474E+01  0.00000000000E+00 0.  1.
         22   -1    0    0    0    0 -0.00000000000E+00 -0.00000000000E+00 -0.57118355267E+01  0.57118355267E+01  0.00000000000E+00 0. -1.
          4    1    1    2  501    0 -0.32144710552E-01 -0.32106007625E+01 -0.12601085177E+01  0.36755630882E+01  0.12700000000E+01 0.  1.
         -4    1    1    2    0  501  0.32144710552E-01  0.32106007625E+01 -0.23252349615E+01  0.41627644859E+01  0.12700000000E+01 0. -1.
<mgrwt>
<rscale>  0 0.34528091E+01</rscale>
<asrwt>0</asrwt>
<pdfrwt beam="1">0</pdfrwt>
<pdfrwt beam="2">0</pdfrwt>
<totfact> 0.13043017E+12</totfact>
</mgrwt>
</event>
<event>
 4    1  0.1838758E+006  0.1293043E+02  0.7546771E-02  0.1678620E+00
         22   -1    0    0    0    0  0.00000000000E+00  0.00000000000E+00  0.84821186374E+01  0.84821186374E+01  0.00000000000E+00 0.  1.
         22   -1    0    0    0    0 -0.00000000000E+00 -0.00000000000E+00 -0.73582362463E+02  0.73582362463E+02  0.00000000000E+00 0. -1.
          4    1    1    2  501    0  0.35082744002E+01 -0.12380438453E+02  0.25585921004E+01  0.13181143315E+02  0.12700000000E+01 0.  1.
         -4    1    1    2    0  501 -0.35082744002E+01  0.12380438453E+02 -0.67658835926E+02  0.68883337785E+02  0.12700000000E+01 0. -1.
<mgrwt>
<rscale>  0 0.12930435E+02</rscale>
<asrwt>0</asrwt>
<pdfrwt beam="1">0</pdfrwt>
<pdfrwt beam="2">0</pdfrwt>
<totfact> 0.10258480E+10</totfact>
</mgrwt>
</event>
<event>
 4    1  0.1838758E+006  0.2700269E+01  0.7546771E-02  0.2626322E+00
         22   -1    0    0    0    0  0.00000000000E+00  0.00000000000E+00  0.81904509159E+00  0.81904509159E+00  0.00000000000E+00 0.  1.
         22   -1    0    0    0    0 -0.00000000000E+00 -0.00000000000E+00 -0.91329491663E+01  0.91329491663E+01  0.00000000000E+00 0. -1.
          4    1    1    2  501    0  0.23311257634E+01  0.49437236701E+00 -0.33663200376E+01  0.43155025151E+01  0.12700000000E+01 0.  1.
         -4    1    1    2    0  501 -0.23311257634E+01 -0.49437236701E+00 -0.49475840372E+01  0.56364917428E+01  0.12700000000E+01 0. -1.
<mgrwt>
<rscale>  0 0.27002688E+01</rscale>
<asrwt>0</asrwt>
<pdfrwt beam="1">0</pdfrwt>
<pdfrwt beam="2">0</pdfrwt>
<totfact> 0.22231572E+12</totfact>
</mgrwt>
</event>
<event>
 4    1  0.1838758E+006  0.3307806E+01  0.7546771E-02  0.2433033E+00
         22   -1    0    0    0    0  0.00000000000E+00  0.00000000000E+00  0.14917806531E+01  0.14917806531E+01  0.00000000000E+00 0.  1.
         22   -1    0    0    0    0 -0.00000000000E+00 -0.00000000000E+00 -0.90532591112E+01  0.90532591112E+01  0.00000000000E+00 0. -1.
          4    1    1    2  501    0  0.56350727847E+00  0.30018557286E+01 -0.14834605520E+01  0.36252218522E+01  0.12700000000E+01 0.  1.
         -4    1    1    2    0  501 -0.56350727847E+00 -0.30018557286E+01 -0.60780179062E+01  0.69198179121E+01  0.12700000000E+01 0. -1.
<mgrwt>
<rscale>  0 0.33078057E+01</rscale>
<asrwt>0</asrwt>
<pdfrwt beam="1">0</pdfrwt>
<pdfrwt beam="2">0</pdfrwt>
<totfact> 0.11314878E+12</totfact>
</mgrwt>
</event>
<event>
 4    1  0.1838758E+006  0.2504716E+01  0.7546771E-02  0.2706455E+00
         22   -1    0    0    0    0  0.00000000000E+00  0.00000000000E+00  0.80674170171E+01  0.80674170171E+01  0.00000000000E+00 0.  1.
         22   -1    0    0    0    0 -0.00000000000E+00 -0.00000000000E+00 -0.32772206645E+01  0.32772206645E+01  0.00000000000E+00 0. -1.
          4    1    1    2  501    0 -0.83213592869E+00 -0.19920474273E+01  0.73489242746E+01  0.77640383274E+01  0.12700000000E+01 0.  1.
         -4    1    1    2    0  501  0.83213592869E+00  0.19920474273E+01 -0.25587279219E+01  0.35805993542E+01  0.12700000000E+01 0. -1.
<mgrwt>
<rscale>  0 0.25047162E+01</rscale>
<asrwt>0</asrwt>
<pdfrwt beam="1">0</pdfrwt>
<pdfrwt beam="2">0</pdfrwt>
<totfact> 0.52164630E+11</totfact>
</mgrwt>
</event>
<event>
 4    1  0.1838758E+006  0.2013754E+01  0.7546771E-02  0.2971503E+00
         22   -1    0    0    0    0  0.00000000000E+00  0.00000000000E+00  0.22563583778E+00  0.22563583778E+00  0.00000000000E+00 0. -1.
         22   -1    0    0    0    0 -0.00000000000E+00 -0.00000000000E+00 -0.21817056712E+02  0.21817056712E+02  0.00000000000E+00 0. -1.
          4    1    1    2  501    0  0.58839764147E+00  0.14477896557E+01 -0.61690452835E+01  0.64894010803E+01  0.12700000000E+01 0. -1.
         -4    1    1    2    0  501 -0.58839764147E+00 -0.14477896557E+01 -0.15422375591E+02  0.15553291470E+02  0.12700000000E+01 0. -1.
<mgrwt>
<rscale>  0 0.20137544E+01</rscale>
<asrwt>0</asrwt>
<pdfrwt beam="1">0</pdfrwt>
<pdfrwt beam="2">0</pdfrwt>
<totfact> 0.32619668E+12</totfact>
</mgrwt>
</event>
<event>
 4    1  0.1838758E+006  0.2415421E+01  0.7546771E-02  0.2747035E+00
         22   -1    0    0    0    0  0.00000000000E+00  0.00000000000E+00  0.34313794466E+02  0.34313794466E+02  0.00000000000E+00 0.  1.
         22   -1    0    0    0    0 -0.00000000000E+00 -0.00000000000E+00 -0.17105208968E+00  0.17105208968E+00  0.00000000000E+00 0. -1.
          4    1    1    2  501    0 -0.17939674062E+01  0.10015185464E+01  0.18406415758E+02  0.18564223644E+02  0.12700000000E+01 0. -1.
         -4    1    1    2    0  501  0.17939674062E+01 -0.10015185464E+01  0.15736326618E+02  0.15920622912E+02  0.12700000000E+01 0.  1.
<mgrwt>
<rscale>  0 0.24154210E+01</rscale>
<asrwt>0</asrwt>
<pdfrwt beam="1">0</pdfrwt>
<pdfrwt beam="2">0</pdfrwt>
<totfact> 0.25020330E+12</totfact>
</mgrwt>
</event>
<event>
 4    1  0.1838758E+006  0.2085470E+01  0.7546771E-02  0.2925329E+00
         22   -1    0    0    0    0  0.00000000000E+00  0.00000000000E+00  0.65321093351E+00  0.65321093351E+00  0.00000000000E+00 0. -1.
         22   -1    0    0    0    0 -0.00000000000E+00 -0.00000000000E+00 -0.71285431308E+01  0.71285431308E+01  0.00000000000E+00 0.  1.
          4    1    1    2  501    0 -0.13022634447E+01  0.10199976296E+01 -0.22381924833E+01  0.30591977439E+01  0.12700000000E+01 0.  1.
         -4    1    1    2    0  501  0.13022634447E+01 -0.10199976296E+01 -0.42371397139E+01  0.47225563204E+01  0.12700000000E+01 0.  1.
<mgrwt>
<rscale>  0 0.20854700E+01</rscale>
<asrwt>0</asrwt>
<pdfrwt beam="1">0</pdfrwt>
<pdfrwt beam="2">0</pdfrwt>
<totfact> 0.38714496E+12</totfact>
</mgrwt>
</event>
<event>
 4    1  0.1838758E+006  0.3021234E+01  0.7546771E-02  0.2515512E+00
         22   -1    0    0    0    0  0.00000000000E+00  0.00000000000E+00  0.91620336165E+02  0.91620336165E+02  0.00000000000E+00 0. -1.
         22   -1    0    0    0    0 -0.00000000000E+00 -0.00000000000E+00 -0.10235123923E+00  0.10235123923E+00  0.00000000000E+00 0. -1.
          4    1    1    2  501    0  0.90863678943E+00  0.25863748690E+01  0.53241132774E+02  0.53326785716E+02  0.12700000000E+01 0. -1.
         -4    1    1    2    0  501 -0.90863678943E+00 -0.25863748690E+01  0.38276852152E+02  0.38395901688E+02  0.12700000000E+01 0. -1.
<mgrwt>
<rscale>  0 0.30212341E+01</rscale>
<asrwt>0</asrwt>
<pdfrwt beam="1">0</pdfrwt>
<pdfrwt beam="2">0</pdfrwt>
<totfact> 0.11942330E+12</totfact>
</mgrwt>
</event>
<event>
 4    1  0.1838758E+006  0.8330528E+01  0.7546771E-02  0.1857767E+00
         22   -1    0    0    0    0  0.00000000000E+00  0.00000000000E+00  0.55841604778E+01  0.55841604778E+01  0.00000000000E+00 0.  1.
         22   -1    0    0    0    0 -0.00000000000E+00 -0.00000000000E+00 -0.19140300726E+02  0.19140300726E+02  0.00000000000E+00 0. -1.
          4    1    1    2  501    0  0.25961499959E+01 -0.78131173008E+01  0.54294320257E+00  0.83482024459E+01  0.12700000000E+01 0.  1.
         -4    1    1    2    0  501 -0.25961499959E+01  0.78131173008E+01 -0.14099083451E+02  0.16376258758E+02  0.12700000000E+01 0. -1.
<mgrwt>
<rscale>  0 0.83305280E+01</rscale>
<asrwt>0</asrwt>
<pdfrwt beam="1">0</pdfrwt>
<pdfrwt beam="2">0</pdfrwt>
<totfact> 0.96852753E+10</totfact>
</mgrwt>
</event>
<event>
 4    1  0.1838758E+006  0.2179365E+01  0.7546771E-02  0.2869339E+00
         22   -1    0    0    0    0  0.00000000000E+00  0.00000000000E+00  0.37555130568E+01  0.37555130568E+01  0.00000000000E+00 0.  1.
         22   -1    0    0    0    0 -0.00000000000E+00 -0.00000000000E+00 -0.18164829316E+01  0.18164829316E+01  0.00000000000E+00 0.  1.
          4    1    1    2  501    0  0.87770106518E+00  0.15383014740E+01  0.25050008060E+01  0.33203402872E+01  0.12700000000E+01 0.  1.
         -4    1    1    2    0  501 -0.87770106518E+00 -0.15383014740E+01 -0.56597068079E+00  0.22516557011E+01  0.12700000000E+01 0.  1.
<mgrwt>
<rscale>  0 0.21793647E+01</rscale>
<asrwt>0</asrwt>
<pdfrwt beam="1">0</pdfrwt>
<pdfrwt beam="2">0</pdfrwt>
<totfact> 0.25685675E+12</totfact>
</mgrwt>
</event>
<event>
 4    1  0.1838758E+006  0.2056164E+01  0.7546771E-02  0.2943818E+00
         22   -1    0    0    0    0  0.00000000000E+00  0.00000000000E+00  0.15792364535E+01  0.15792364535E+01  0.00000000000E+00 0.  1.
         22   -1    0    0    0    0 -0.00000000000E+00 -0.00000000000E+00 -0.26918825281E+01  0.26918825281E+01  0.00000000000E+00 0. -1.
          4    1    1    2  501    0  0.11299760143E+00 -0.16131156635E+01 -0.39819225602E+00  0.20943656974E+01  0.12700000000E+01 0.  1.
         -4    1    1    2    0  501 -0.11299760143E+00  0.16131156635E+01 -0.71445381856E+00  0.21767532843E+01  0.12700000000E+01 0. -1.
<mgrwt>
<rscale>  0 0.20561641E+01</rscale>
<asrwt>0</asrwt>
<pdfrwt beam="1">0</pdfrwt>
<pdfrwt beam="2">0</pdfrwt>
<totfact> 0.44562713E+12</totfact>
</mgrwt>
</event>
<event>
 4    1  0.1838758E+006  0.4354936E+01  0.7546771E-02  0.2214181E+00
         22   -1    0    0    0    0  0.00000000000E+00  0.00000000000E+00  0.22636402530E+01  0.22636402530E+01  0.00000000000E+00 0. -1.
         22   -1    0    0    0    0 -0.00000000000E+00 -0.00000000000E+00 -0.86410291857E+01  0.86410291857E+01  0.00000000000E+00 0.  1.
          4    1    1    2  501    0 -0.21826195812E+01  0.35480616333E+01 -0.22379815715E+01  0.48963283288E+01  0.12700000000E+01 0. -1.
         -4    1    1    2    0  501  0.21826195812E+01 -0.35480616333E+01 -0.41394073613E+01  0.60083411099E+01  0.12700000000E+01 0.  1.
<mgrwt>
<rscale>  0 0.43549362E+01</rscale>
<asrwt>0</asrwt>
<pdfrwt beam="1">0</pdfrwt>
<pdfrwt beam="2">0</pdfrwt>
<totfact> 0.73926450E+11</totfact>
</mgrwt>
</event>
<event>
 4    1  0.1838758E+006  0.2156499E+01  0.7546771E-02  0.2882541E+00
         22   -1    0    0    0    0  0.00000000000E+00  0.00000000000E+00  0.24045040929E+00  0.24045040929E+00  0.00000000000E+00 0. -1.
         22   -1    0    0    0    0 -0.00000000000E+00 -0.00000000000E+00 -0.34354721011E+02  0.34354721011E+02  0.00000000000E+00 0.  1.
          4    1    1    2  501    0  0.17350263020E+01 -0.16514205344E+00 -0.56220278362E+01  0.60214354732E+01  0.12700000000E+01 0. -1.
         -4    1    1    2    0  501 -0.17350263020E+01  0.16514205344E+00 -0.28492242765E+02  0.28573735947E+02  0.12700000000E+01 0.  1.
<mgrwt>
<rscale>  0 0.21564991E+01</rscale>
<asrwt>0</asrwt>
<pdfrwt beam="1">0</pdfrwt>
<pdfrwt beam="2">0</pdfrwt>
<totfact> 0.17083961E+12</totfact>
</mgrwt>
</event>
<event>
 4    1  0.1838758E+006  0.2442088E+01  0.7546771E-02  0.2734626E+00
         22   -1    0    0    0    0  0.00000000000E+00  0.00000000000E+00  0.94558781391E+00  0.94558781391E+00  0.00000000000E+00 0.  1.
         22   -1    0    0    0    0 -0.00000000000E+00 -0.00000000000E+00 -0.72025911033E+01  0.72025911033E+01  0.00000000000E+00 0. -1.
          4    1    1    2  501    0 -0.20049876272E+01  0.57525458760E+00 -0.45651435560E+01  0.51772897266E+01  0.12700000000E+01 0.  1.
         -4    1    1    2    0  501  0.20049876272E+01 -0.57525458760E+00 -0.16918597334E+01  0.29708891906E+01  0.12700000000E+01 0.  1.
<mgrwt>
<rscale>  0 0.24420879E+01</rscale>
<asrwt>0</asrwt>
<pdfrwt beam="1">0</pdfrwt>
<pdfrwt beam="2">0</pdfrwt>
<totfact> 0.25108663E+12</totfact>
</mgrwt>
</event>
<event>
 4    1  0.1838758E+006  0.2259603E+01  0.7546771E-02  0.2825043E+00
         22   -1    0    0    0    0  0.00000000000E+00  0.00000000000E+00  0.61167746352E+01  0.61167746352E+01  0.00000000000E+00 0.  1.
         22   -1    0    0    0    0 -0.00000000000E+00 -0.00000000000E+00 -0.90725400072E+00  0.90725400072E+00  0.00000000000E+00 0. -1.
          4    1    1    2  501    0 -0.58098955478E+00 -0.17763325241E+01  0.35977775532E+01  0.42485067284E+01  0.12700000000E+01 0.  1.
         -4    1    1    2    0  501  0.58098955478E+00  0.17763325241E+01  0.16117430813E+01  0.27755219075E+01  0.12700000000E+01 0. -1.
<mgrwt>
<rscale>  0 0.22596031E+01</rscale>
<asrwt>0</asrwt>
<pdfrwt beam="1">0</pdfrwt>
<pdfrwt beam="2">0</pdfrwt>
<totfact> 0.31992938E+12</totfact>
</mgrwt>
</event>
<event>
 4    1  0.1838758E+006  0.2544681E+01  0.7546771E-02  0.2689154E+00
         22   -1    0    0    0    0  0.00000000000E+00  0.00000000000E+00  0.14925564378E+01  0.14925564378E+01  0.00000000000E+00 0.  1.
         22   -1    0    0    0    0 -0.00000000000E+00 -0.00000000000E+00 -0.60103597401E+01  0.60103597401E+01  0.00000000000E+00 0.  1.
          4    1    1    2  501    0 -0.21749575813E+01 -0.36340050200E+00 -0.28031701531E+00  0.25600738338E+01  0.12700000000E+01 0.  1.
         -4    1    1    2    0  501  0.21749575813E+01  0.36340050200E+00 -0.42374862870E+01  0.49428423440E+01  0.12700000000E+01 0.  1.
<mgrwt>
<rscale>  0 0.25446808E+01</rscale>
<asrwt>0</asrwt>
<pdfrwt beam="1">0</pdfrwt>
<pdfrwt beam="2">0</pdfrwt>
<totfact> 0.18474021E+12</totfact>
</mgrwt>
</event>
<event>
 4    1  0.1838758E+006  0.2287270E+01  0.7546771E-02  0.2810458E+00
         22   -1    0    0    0    0  0.00000000000E+00  0.00000000000E+00  0.47999443714E+00  0.47999443714E+00  0.00000000000E+00 0. -1.
         22   -1    0    0    0    0 -0.00000000000E+00 -0.00000000000E+00 -0.21329119881E+02  0.21329119881E+02  0.00000000000E+00 0. -1.
          4    1    1    2  501    0  0.17289739489E+01  0.79331749784E+00 -0.27992095819E+01  0.36148551633E+01  0.12700000000E+01 0. -1.
         -4    1    1    2    0  501 -0.17289739489E+01 -0.79331749784E+00 -0.18049915862E+02  0.18194259155E+02  0.12700000000E+01 0. -1.
<mgrwt>
<rscale>  0 0.22872699E+01</rscale>
<asrwt>0</asrwt>
<pdfrwt beam="1">0</pdfrwt>
<pdfrwt beam="2">0</pdfrwt>
<totfact> 0.14379860E+12</totfact>
</mgrwt>
</event>
<event>
 4    1  0.1838758E+006  0.3791623E+01  0.7546771E-02  0.2318988E+00
         22   -1    0    0    0    0  0.00000000000E+00  0.00000000000E+00  0.49193112565E+00  0.49193112565E+00  0.00000000000E+00 0.  1.
         22   -1    0    0    0    0 -0.00000000000E+00 -0.00000000000E+00 -0.33702594712E+02  0.33702594712E+02  0.00000000000E+00 0. -1.
          4    1    1    2  501    0  0.34108053216E+01  0.10629741346E+01 -0.10373080840E+02  0.11044329453E+02  0.12700000000E+01 0.  1.
         -4    1    1    2    0  501 -0.34108053216E+01 -0.10629741346E+01 -0.22837582747E+02  0.23150196385E+02  0.12700000000E+01 0. -1.
<mgrwt>
<rscale>  0 0.37916233E+01</rscale>
<asrwt>0</asrwt>
<pdfrwt beam="1">0</pdfrwt>
<pdfrwt beam="2">0</pdfrwt>
<totfact> 0.78358931E+11</totfact>
</mgrwt>
</event>
<event>
 4    1  0.1838758E+006  0.3018573E+01  0.7546771E-02  0.2516343E+00
         22   -1    0    0    0    0  0.00000000000E+00  0.00000000000E+00  0.39854822087E+00  0.39854822087E+00  0.00000000000E+00 0. -1.
         22   -1    0    0    0    0 -0.00000000000E+00 -0.00000000000E+00 -0.22873744881E+02  0.22873744881E+02  0.00000000000E+00 0.  1.
          4    1    1    2  501    0  0.20249004882E+01 -0.18435456492E+01 -0.10978847705E+02  0.11386258362E+02  0.12700000000E+01 0. -1.
         -4    1    1    2    0  501 -0.20249004882E+01  0.18435456492E+01 -0.11496348955E+02  0.11886034740E+02  0.12700000000E+01 0.  1.
<mgrwt>
<rscale>  0 0.30185729E+01</rscale>
<asrwt>0</asrwt>
<pdfrwt beam="1">0</pdfrwt>
<pdfrwt beam="2">0</pdfrwt>
<totfact> 0.16245747E+12</totfact>
</mgrwt>
</event>
<event>
 4    1  0.1838758E+006  0.2783986E+01  0.7546771E-02  0.2595190E+00
         22   -1    0    0    0    0  0.00000000000E+00  0.00000000000E+00  0.13104239095E+01  0.13104239095E+01  0.00000000000E+00 0. -1.
         22   -1    0    0    0    0 -0.00000000000E+00 -0.00000000000E+00 -0.60482994642E+01  0.60482994642E+01  0.00000000000E+00 0.  1.
          4    1    1    2  501    0 -0.48447748517E+00  0.24296003116E+01 -0.18218065665E+01  0.33270941185E+01  0.12700000000E+01 0.  1.
         -4    1    1    2    0  501  0.48447748517E+00 -0.24296003116E+01 -0.29160689882E+01  0.40316292552E+01  0.12700000000E+01 0.  1.
<mgrwt>
<rscale>  0 0.27839857E+01</rscale>
<asrwt>0</asrwt>
<pdfrwt beam="1">0</pdfrwt>
<pdfrwt beam="2">0</pdfrwt>
<totfact> 0.21293975E+12</totfact>
</mgrwt>
</event>
<event>
 4    1  0.1838758E+006  0.2150898E+01  0.7546771E-02  0.2885815E+00
         22   -1    0    0    0    0  0.00000000000E+00  0.00000000000E+00  0.79657252545E+01  0.79657252545E+01  0.00000000000E+00 0. -1.
         22   -1    0    0    0    0 -0.00000000000E+00 -0.00000000000E+00 -0.79255494499E+00  0.79255494499E+00  0.00000000000E+00 0.  1.
          4    1    1    2  501    0  0.12981888409E+01  0.11524617956E+01  0.58502272633E+01  0.62330988673E+01  0.12700000000E+01 0. -1.
         -4    1    1    2    0  501 -0.12981888409E+01 -0.11524617956E+01  0.13229430462E+01  0.25251813322E+01  0.12700000000E+01 0.  1.
<mgrwt>
<rscale>  0 0.21508981E+01</rscale>
<asrwt>0</asrwt>
<pdfrwt beam="1">0</pdfrwt>
<pdfrwt beam="2">0</pdfrwt>
<totfact> 0.27207738E+12</totfact>
</mgrwt>
</event>
<event>
 4    1  0.1838758E+006  0.2445581E+01  0.7546771E-02  0.2733019E+00
         22   -1    0    0    0    0  0.00000000000E+00  0.00000000000E+00  0.29894445744E+01  0.29894445744E+01  0.00000000000E+00 0. -1.
         22   -1    0    0    0    0 -0.00000000000E+00 -0.00000000000E+00 -0.58209478769E+01  0.58209478769E+01  0.00000000000E+00 0.  1.
          4    1    1    2  501    0  0.10216599155E+01 -0.18232322659E+01  0.21530005799E+01  0.32582627849E+01  0.12700000000E+01 0. -1.
         -4    1    1    2    0  501 -0.10216599155E+01  0.18232322659E+01 -0.49845038825E+01  0.55521296664E+01  0.12700000000E+01 0.  1.
<mgrwt>
<rscale>  0 0.24455807E+01</rscale>
<asrwt>0</asrwt>
<pdfrwt beam="1">0</pdfrwt>
<pdfrwt beam="2">0</pdfrwt>
<totfact> 0.85799995E+11</totfact>
</mgrwt>
</event>
<event>
 4    1  0.1838758E+006  0.2005652E+01  0.7546771E-02  0.2976923E+00
         22   -1    0    0    0    0  0.00000000000E+00  0.00000000000E+00  0.19217386834E+01  0.19217386834E+01  0.00000000000E+00 0.  1.
         22   -1    0    0    0    0 -0.00000000000E+00 -0.00000000000E+00 -0.87587031444E+01  0.87587031444E+01  0.00000000000E+00 0. -1.
          4    1    1    2  501    0 -0.15498641118E+01  0.87533436249E-01  0.12401112490E+01  0.23580748031E+01  0.12700000000E+01 0.  1.
         -4    1    1    2    0  501  0.15498641118E+01 -0.87533436249E-01 -0.80770757100E+01  0.83223670246E+01  0.12700000000E+01 0. -1.
<mgrwt>
<rscale>  0 0.20056522E+01</rscale>
<asrwt>0</asrwt>
<pdfrwt beam="1">0</pdfrwt>
<pdfrwt beam="2">0</pdfrwt>
<totfact> 0.87912227E+11</totfact>
</mgrwt>
</event>
<event>
 4    1  0.1838758E+006  0.3531970E+01  0.7546771E-02  0.2376814E+00
         22   -1    0    0    0    0  0.00000000000E+00  0.00000000000E+00  0.35643043413E+02  0.35643043413E+02  0.00000000000E+00 0. -1.
         22   -1    0    0    0    0 -0.00000000000E+00 -0.00000000000E+00 -0.35458571836E+00  0.35458571836E+00  0.00000000000E+00 0.  1.
          4    1    1    2  501    0 -0.11142416599E+01  0.31016736351E+01  0.15595800953E+02  0.15990741733E+02  0.12700000000E+01 0. -1.
         -4    1    1    2    0  501  0.11142416599E+01 -0.31016736351E+01  0.19692656742E+02  0.20006887398E+02  0.12700000000E+01 0.  1.
<mgrwt>
<rscale>  0 0.35319702E+01</rscale>
<asrwt>0</asrwt>
<pdfrwt beam="1">0</pdfrwt>
<pdfrwt beam="2">0</pdfrwt>
<totfact> 0.10543258E+12</totfact>
</mgrwt>
</event>
<event>
 4    1  0.1838758E+006  0.2700845E+01  0.7546771E-02  0.2626102E+00
         22   -1    0    0    0    0  0.00000000000E+00  0.00000000000E+00  0.43357673131E+00  0.43357673131E+00  0.00000000000E+00 0. -1.
         22   -1    0    0    0    0 -0.00000000000E+00 -0.00000000000E+00 -0.20365174014E+02  0.20365174014E+02  0.00000000000E+00 0.  1.
          4    1    1    2  501    0 -0.12720047876E+01 -0.20158537939E+01 -0.56294195544E+01  0.62437910934E+01  0.12700000000E+01 0. -1.
         -4    1    1    2    0  501  0.12720047876E+01  0.20158537939E+01 -0.14302177728E+02  0.14554959652E+02  0.12700000000E+01 0.  1.
<mgrwt>
<rscale>  0 0.27008448E+01</rscale>
<asrwt>0</asrwt>
<pdfrwt beam="1">0</pdfrwt>
<pdfrwt beam="2">0</pdfrwt>
<totfact> 0.17087578E+12</totfact>
</mgrwt>
</event>
<event>
 4    1  0.1838758E+006  0.2078195E+01  0.7546771E-02  0.2929871E+00
         22   -1    0    0    0    0  0.00000000000E+00  0.00000000000E+00  0.24018074432E+01  0.24018074432E+01  0.00000000000E+00 0.  1.
         22   -1    0    0    0    0 -0.00000000000E+00 -0.00000000000E+00 -0.26490078850E+01  0.26490078850E+01  0.00000000000E+00 0. -1.
          4    1    1    2  501    0 -0.16293660369E+01  0.22618617082E+00  0.13076299301E+01  0.24553594238E+01  0.12700000000E+01 0.  1.
         -4    1    1    2    0  501  0.16293660369E+01 -0.22618617082E+00 -0.15548303719E+01  0.25954559043E+01  0.12700000000E+01 0. -1.
<mgrwt>
<rscale>  0 0.20781949E+01</rscale>
<asrwt>0</asrwt>
<pdfrwt beam="1">0</pdfrwt>
<pdfrwt beam="2">0</pdfrwt>
<totfact> 0.27954008E+12</totfact>
</mgrwt>
</event>
<event>
 4    1  0.1838758E+006  0.2639922E+01  0.7546771E-02  0.2649882E+00
         22   -1    0    0    0    0  0.00000000000E+00  0.00000000000E+00  0.22222274285E+01  0.22222274285E+01  0.00000000000E+00 0. -1.
         22   -1    0    0    0    0 -0.00000000000E+00 -0.00000000000E+00 -0.10159363557E+02  0.10159363557E+02  0.00000000000E+00 0.  1.
          4    1    1    2  501    0 -0.15469837689E+01 -0.17213742047E+01  0.11787599917E+01  0.28911352531E+01  0.12700000000E+01 0. -1.
         -4    1    1    2    0  501  0.15469837689E+01  0.17213742047E+01 -0.91158961206E+01  0.94904557328E+01  0.12700000000E+01 0.  1.
<mgrwt>
<rscale>  0 0.26399220E+01</rscale>
<asrwt>0</asrwt>
<pdfrwt beam="1">0</pdfrwt>
<pdfrwt beam="2">0</pdfrwt>
<totfact> 0.62110874E+11</totfact>
</mgrwt>
</event>
<event>
 4    1  0.1838758E+006  0.2092523E+01  0.7546771E-02  0.2920955E+00
         22   -1    0    0    0    0  0.00000000000E+00  0.00000000000E+00  0.60945734122E+00  0.60945734122E+00  0.00000000000E+00 0. -1.
         22   -1    0    0    0    0 -0.00000000000E+00 -0.00000000000E+00 -0.15933952085E+02  0.15933952085E+02  0.00000000000E+00 0.  1.
          4    1    1    2  501    0  0.15598111018E+01 -0.57683642900E+00 -0.15327691361E+01  0.25938450539E+01  0.12700000000E+01 0. -1.
         -4    1    1    2    0  501 -0.15598111018E+01  0.57683642900E+00 -0.13791725608E+02  0.13949564372E+02  0.12700000000E+01 0.  1.
<mgrwt>
<rscale>  0 0.20925226E+01</rscale>
<asrwt>0</asrwt>
<pdfrwt beam="1">0</pdfrwt>
<pdfrwt beam="2">0</pdfrwt>
<totfact> 0.15769291E+12</totfact>
</mgrwt>
</event>
<event>
 4    1  0.1838758E+006  0.3149362E+01  0.7546771E-02  0.2476988E+00
         22   -1    0    0    0    0  0.00000000000E+00  0.00000000000E+00  0.74665565351E+00  0.74665565351E+00  0.00000000000E+00 0. -1.
         22   -1    0    0    0    0 -0.00000000000E+00 -0.00000000000E+00 -0.33535547203E+02  0.33535547203E+02  0.00000000000E+00 0.  1.
          4    1    1    2  501    0  0.24077260448E+01 -0.15838035359E+01 -0.30740692904E+01  0.44009522094E+01  0.12700000000E+01 0. -1.
         -4    1    1    2    0  501 -0.24077260448E+01  0.15838035359E+01 -0.29714822259E+02  0.29881250647E+02  0.12700000000E+01 0.  1.
<mgrwt>
<rscale>  0 0.31493616E+01</rscale>
<asrwt>0</asrwt>
<pdfrwt beam="1">0</pdfrwt>
<pdfrwt beam="2">0</pdfrwt>
<totfact> 0.49160440E+11</totfact>
</mgrwt>
</event>
<event>
 4    1  0.1838758E+006  0.2448431E+01  0.7546771E-02  0.2731711E+00
         22   -1    0    0    0    0  0.00000000000E+00  0.00000000000E+00  0.18784957555E+01  0.18784957555E+01  0.00000000000E+00 0.  1.
         22   -1    0    0    0    0 -0.00000000000E+00 -0.00000000000E+00 -0.11359014186E+02  0.11359014186E+02  0.00000000000E+00 0. -1.
          4    1    1    2  501    0 -0.12797013792E+01  0.16565863886E+01  0.87224480450E+00  0.25991585334E+01  0.12700000000E+01 0.  1.
         -4    1    1    2    0  501  0.12797013792E+01 -0.16565863886E+01 -0.10352763235E+02  0.10638351408E+02  0.12700000000E+01 0. -1.
<mgrwt>
<rscale>  0 0.24484309E+01</rscale>
<asrwt>0</asrwt>
<pdfrwt beam="1">0</pdfrwt>
<pdfrwt beam="2">0</pdfrwt>
<totfact> 0.65889327E+11</totfact>
</mgrwt>
</event>
<event>
 4    1  0.1838758E+006  0.2474264E+01  0.7546771E-02  0.2719986E+00
         22   -1    0    0    0    0  0.00000000000E+00  0.00000000000E+00  0.11068297712E+02  0.11068297712E+02  0.00000000000E+00 0.  1.
         22   -1    0    0    0    0 -0.00000000000E+00 -0.00000000000E+00 -0.58505358771E+00  0.58505358771E+00  0.00000000000E+00 0. -1.
          4    1    1    2  501    0 -0.20496387688E+01  0.55503634666E+00  0.66031166554E+01  0.70514632520E+01  0.12700000000E+01 0.  1.
         -4    1    1    2    0  501  0.20496387688E+01 -0.55503634666E+00  0.38801274687E+01  0.46018880476E+01  0.12700000000E+01 0. -1.
<mgrwt>
<rscale>  0 0.24742644E+01</rscale>
<asrwt>0</asrwt>
<pdfrwt beam="1">0</pdfrwt>
<pdfrwt beam="2">0</pdfrwt>
<totfact> 0.25804538E+12</totfact>
</mgrwt>
</event>
<event>
 4    1  0.1838758E+006  0.2445638E+01  0.7546771E-02  0.2732993E+00
         22   -1    0    0    0    0  0.00000000000E+00  0.00000000000E+00  0.42717265402E+01  0.42717265402E+01  0.00000000000E+00 0.  1.
         22   -1    0    0    0    0 -0.00000000000E+00 -0.00000000000E+00 -0.30092694895E+01  0.30092694895E+01  0.00000000000E+00 0.  1.
          4    1    1    2  501    0 -0.17754318777E+01 -0.11027638461E+01  0.32933116239E+01  0.41020784859E+01  0.12700000000E+01 0.  1.
         -4    1    1    2    0  501  0.17754318777E+01  0.11027638461E+01 -0.20308545733E+01  0.31789175438E+01  0.12700000000E+01 0.  1.
<mgrwt>
<rscale>  0 0.24456383E+01</rscale>
<asrwt>0</asrwt>
<pdfrwt beam="1">0</pdfrwt>
<pdfrwt beam="2">0</pdfrwt>
<totfact> 0.12281365E+12</totfact>
</mgrwt>
</event>
<event>
 4    1  0.1838758E+006  0.2114727E+01  0.7546771E-02  0.2907368E+00
         22   -1    0    0    0    0  0.00000000000E+00  0.00000000000E+00  0.96273329091E+00  0.96273329091E+00  0.00000000000E+00 0.  1.
         22   -1    0    0    0    0 -0.00000000000E+00 -0.00000000000E+00 -0.11038883907E+02  0.11038883907E+02  0.00000000000E+00 0.  1.
          4    1    1    2  501    0 -0.11809111231E+01  0.12102143100E+01 -0.47115492666E+00  0.21665771903E+01  0.12700000000E+01 0.  1.
         -4    1    1    2    0  501  0.11809111231E+01 -0.12102143100E+01 -0.96049956899E+01  0.98350400080E+01  0.12700000000E+01 0.  1.
<mgrwt>
<rscale>  0 0.21147269E+01</rscale>
<asrwt>0</asrwt>
<pdfrwt beam="1">0</pdfrwt>
<pdfrwt beam="2">0</pdfrwt>
<totfact> 0.14697644E+12</totfact>
</mgrwt>
</event>
<event>
 4    1  0.1838758E+006  0.2023604E+01  0.7546771E-02  0.2964972E+00
         22   -1    0    0    0    0  0.00000000000E+00  0.00000000000E+00  0.29171635574E+01  0.29171635574E+01  0.00000000000E+00 0.  1.
         22   -1    0    0    0    0 -0.00000000000E+00 -0.00000000000E+00 -0.21306376235E+01  0.21306376235E+01  0.00000000000E+00 0. -1.
          4    1    1    2  501    0 -0.14496935133E+01 -0.61681731355E+00  0.18674426351E+01  0.27536007111E+01  0.12700000000E+01 0.  1.
         -4    1    1    2    0  501  0.14496935133E+01  0.61681731355E+00 -0.10809167012E+01  0.22942004698E+01  0.12700000000E+01 0. -1.
<mgrwt>
<rscale>  0 0.20236044E+01</rscale>
<asrwt>0</asrwt>
<pdfrwt beam="1">0</pdfrwt>
<pdfrwt beam="2">0</pdfrwt>
<totfact> 0.28706965E+12</totfact>
</mgrwt>
</event>
<event>
 4    1  0.1838758E+006  0.2010140E+01  0.7546771E-02  0.2973916E+00
         22   -1    0    0    0    0  0.00000000000E+00  0.00000000000E+00  0.10224921775E+02  0.10224921775E+02  0.00000000000E+00 0.  1.
         22   -1    0    0    0    0 -0.00000000000E+00 -0.00000000000E+00 -0.39622695525E+00  0.39622695525E+00  0.00000000000E+00 0.  1.
          4    1    1    2  501    0 -0.15570630003E+01  0.57598558168E-01  0.46410878126E+01  0.50577029237E+01  0.12700000000E+01 0.  1.
         -4    1    1    2    0  501  0.15570630003E+01 -0.57598558168E-01  0.51876070070E+01  0.55634458063E+01  0.12700000000E+01 0.  1.
<mgrwt>
<rscale>  0 0.20101400E+01</rscale>
<asrwt>0</asrwt>
<pdfrwt beam="1">0</pdfrwt>
<pdfrwt beam="2">0</pdfrwt>
<totfact> 0.44101842E+12</totfact>
</mgrwt>
</event>
<event>
 4    1  0.1838758E+006  0.2437813E+01  0.7546771E-02  0.2736598E+00
         22   -1    0    0    0    0  0.00000000000E+00  0.00000000000E+00  0.59353356273E+01  0.59353356273E+01  0.00000000000E+00 0. -1.
         22   -1    0    0    0    0 -0.00000000000E+00 -0.00000000000E+00 -0.16723941244E+01  0.16723941244E+01  0.00000000000E+00 0. -1.
          4    1    1    2  501    0  0.18452720524E+01  0.96177147830E+00 -0.27817904081E+00  0.24536334083E+01  0.12700000000E+01 0. -1.
         -4    1    1    2    0  501 -0.18452720524E+01 -0.96177147830E+00  0.45411205437E+01  0.51540963433E+01  0.12700000000E+01 0. -1.
<mgrwt>
<rscale>  0 0.24378132E+01</rscale>
<asrwt>0</asrwt>
<pdfrwt beam="1">0</pdfrwt>
<pdfrwt beam="2">0</pdfrwt>
<totfact> 0.16449076E+12</totfact>
</mgrwt>
</event>
<event>
 4    1  0.1838758E+006  0.2528662E+01  0.7546771E-02  0.2696027E+00
         22   -1    0    0    0    0  0.00000000000E+00  0.00000000000E+00  0.13743267488E+02  0.13743267488E+02  0.00000000000E+00 0. -1.
         22   -1    0    0    0    0 -0.00000000000E+00 -0.00000000000E+00 -0.47783755196E+00  0.47783755196E+00  0.00000000000E+00 0. -1.
          4    1    1    2  501    0  0.32242832630E-01  0.21863652986E+01  0.54788993992E+01  0.60342747241E+01  0.12700000000E+01 0. -1.
         -4    1    1    2    0  501 -0.32242832630E-01 -0.21863652986E+01  0.77865305364E+01  0.81868303154E+01  0.12700000000E+01 0. -1.
<mgrwt>
<rscale>  0 0.25286623E+01</rscale>
<asrwt>0</asrwt>
<pdfrwt beam="1">0</pdfrwt>
<pdfrwt beam="2">0</pdfrwt>
<totfact> 0.24905900E+12</totfact>
</mgrwt>
</event>
<event>
 4    1  0.1838758E+006  0.2705356E+01  0.7546771E-02  0.2624380E+00
         22   -1    0    0    0    0  0.00000000000E+00  0.00000000000E+00  0.69878907697E+01  0.69878907697E+01  0.00000000000E+00 0.  1.
         22   -1    0    0    0    0 -0.00000000000E+00 -0.00000000000E+00 -0.10659427358E+01  0.10659427358E+01  0.00000000000E+00 0. -1.
          4    1    1    2  501    0  0.15093955986E+01 -0.18514252719E+01  0.34924344492E+01  0.44176972500E+01  0.12700000000E+01 0.  1.
         -4    1    1    2    0  501 -0.15093955986E+01  0.18514252719E+01  0.24295135847E+01  0.36361362556E+01  0.12700000000E+01 0. -1.
<mgrwt>
<rscale>  0 0.27053559E+01</rscale>
<asrwt>0</asrwt>
<pdfrwt beam="1">0</pdfrwt>
<pdfrwt beam="2">0</pdfrwt>
<totfact> 0.22705740E+12</totfact>
</mgrwt>
</event>
<event>
 4    1  0.1838758E+006  0.2654701E+01  0.7546771E-02  0.2644021E+00
         22   -1    0    0    0    0  0.00000000000E+00  0.00000000000E+00  0.17697978611E+00  0.17697978611E+00  0.00000000000E+00 0. -1.
         22   -1    0    0    0    0 -0.00000000000E+00 -0.00000000000E+00 -0.42189598370E+02  0.42189598370E+02  0.00000000000E+00 0.  1.
          4    1    1    2  501    0  0.60052278430E+00 -0.22525343508E+01 -0.15986647541E+02  0.16205565039E+02  0.12700000000E+01 0.  1.
         -4    1    1    2    0  501 -0.60052278430E+00  0.22525343508E+01 -0.26025971042E+02  0.26161013117E+02  0.12700000000E+01 0.  1.
<mgrwt>
<rscale>  0 0.26547012E+01</rscale>
<asrwt>0</asrwt>
<pdfrwt beam="1">0</pdfrwt>
<pdfrwt beam="2">0</pdfrwt>
<totfact> 0.18439249E+12</totfact>
</mgrwt>
</event>
<event>
 4    1  0.1838758E+006  0.2039264E+01  0.7546771E-02  0.2954716E+00
         22   -1    0    0    0    0  0.00000000000E+00  0.00000000000E+00  0.34948072354E+02  0.34948072354E+02  0.00000000000E+00 0. -1.
         22   -1    0    0    0    0 -0.00000000000E+00 -0.00000000000E+00 -0.12389671199E+00  0.12389671199E+00  0.00000000000E+00 0.  1.
          4    1    1    2  501    0  0.87217861104E+00 -0.13360390309E+01  0.20900578686E+02  0.20999828219E+02  0.12700000000E+01 0. -1.
         -4    1    1    2    0  501 -0.87217861104E+00  0.13360390309E+01  0.13923596956E+02  0.14072140847E+02  0.12700000000E+01 0. -1.
<mgrwt>
<rscale>  0 0.20392635E+01</rscale>
<asrwt>0</asrwt>
<pdfrwt beam="1">0</pdfrwt>
<pdfrwt beam="2">0</pdfrwt>
<totfact> 0.34971272E+12</totfact>
</mgrwt>
</event>
<event>
 4    1  0.1838758E+006  0.2071731E+01  0.7546771E-02  0.2933934E+00
         22   -1    0    0    0    0  0.00000000000E+00  0.00000000000E+00  0.42057450172E+01  0.42057450172E+01  0.00000000000E+00 0.  1.
         22   -1    0    0    0    0 -0.00000000000E+00 -0.00000000000E+00 -0.34980878622E+01  0.34980878622E+01  0.00000000000E+00 0.  1.
          4    1    1    2  501    0 -0.11768620748E+01 -0.11376129994E+01  0.35955362365E+01  0.41496925799E+01  0.12700000000E+01 0.  1.
         -4    1    1    2    0  501  0.11768620748E+01  0.11376129994E+01 -0.28878790815E+01  0.35541402995E+01  0.12700000000E+01 0.  1.
<mgrwt>
<rscale>  0 0.20717306E+01</rscale>
<asrwt>0</asrwt>
<pdfrwt beam="1">0</pdfrwt>
<pdfrwt beam="2">0</pdfrwt>
<totfact> 0.10487505E+12</totfact>
</mgrwt>
</event>
<event>
 4    1  0.1838758E+006  0.4956361E+01  0.7546771E-02  0.2128249E+00
         22   -1    0    0    0    0  0.00000000000E+00  0.00000000000E+00  0.12444839738E+01  0.12444839738E+01  0.00000000000E+00 0. -1.
         22   -1    0    0    0    0 -0.00000000000E+00 -0.00000000000E+00 -0.19772110548E+02  0.19772110548E+02  0.00000000000E+00 0.  1.
          4    1    1    2  501    0  0.42755732822E+01  0.21615019830E+01 -0.88371905015E+01  0.10132198857E+02  0.12700000000E+01 0. -1.
         -4    1    1    2    0  501 -0.42755732822E+01 -0.21615019830E+01 -0.96904360730E+01  0.10884395665E+02  0.12700000000E+01 0.  1.
<mgrwt>
<rscale>  0 0.49563613E+01</rscale>
<asrwt>0</asrwt>
<pdfrwt beam="1">0</pdfrwt>
<pdfrwt beam="2">0</pdfrwt>
<totfact> 0.53504191E+11</totfact>
</mgrwt>
</event>
<event>
 4    1  0.1838758E+006  0.3122822E+01  0.7546771E-02  0.2484737E+00
         22   -1    0    0    0    0  0.00000000000E+00  0.00000000000E+00  0.17027630606E+01  0.17027630606E+01  0.00000000000E+00 0.  1.
         22   -1    0    0    0    0 -0.00000000000E+00 -0.00000000000E+00 -0.67564080461E+01  0.67564080461E+01  0.00000000000E+00 0.  1.
          4    1    1    2  501    0  0.28512383630E+01  0.97749241454E-01 -0.87601057121E+00  0.32433639385E+01  0.12700000000E+01 0.  1.
         -4    1    1    2    0  501 -0.28512383630E+01 -0.97749241454E-01 -0.41776344142E+01  0.52158071682E+01  0.12700000000E+01 0.  1.
<mgrwt>
<rscale>  0 0.31228217E+01</rscale>
<asrwt>0</asrwt>
<pdfrwt beam="1">0</pdfrwt>
<pdfrwt beam="2">0</pdfrwt>
<totfact> 0.13805254E+12</totfact>
</mgrwt>
</event>
<event>
 4    1  0.1838758E+006  0.2132681E+01  0.7546771E-02  0.2896581E+00
         22   -1    0    0    0    0  0.00000000000E+00  0.00000000000E+00  0.46886906897E+02  0.46886906897E+02  0.00000000000E+00 0. -1.
         22   -1    0    0    0    0 -0.00000000000E+00 -0.00000000000E+00 -0.11639931379E+00  0.11639931379E+00  0.00000000000E+00 0. -1.
          4    1    1    2  501    0  0.17013900867E+01  0.20174602047E+00  0.32978041231E+02  0.33046929254E+02  0.12700000000E+01 0. -1.
         -4    1    1    2    0  501 -0.17013900867E+01 -0.20174602047E+00  0.13792466352E+02  0.13956376957E+02  0.12700000000E+01 0. -1.
<mgrwt>
<rscale>  0 0.21326813E+01</rscale>
<asrwt>0</asrwt>
<pdfrwt beam="1">0</pdfrwt>
<pdfrwt beam="2">0</pdfrwt>
<totfact> 0.25585447E+12</totfact>
</mgrwt>
</event>
<event>
 4    1  0.1838758E+006  0.3073391E+01  0.7546771E-02  0.2499485E+00
         22   -1    0    0    0    0  0.00000000000E+00  0.00000000000E+00  0.51411633566E+00  0.51411633566E+00  0.00000000000E+00 0. -1.
         22   -1    0    0    0    0 -0.00000000000E+00 -0.00000000000E+00 -0.21800311557E+02  0.21800311557E+02  0.00000000000E+00 0.  1.
          4    1    1    2  501    0 -0.26416323300E+01  0.92445180311E+00 -0.62190800148E+01  0.69370518762E+01  0.12700000000E+01 0. -1.
         -4    1    1    2    0  501  0.26416323300E+01 -0.92445180311E+00 -0.15067115206E+02  0.15377376016E+02  0.12700000000E+01 0.  1.
<mgrwt>
<rscale>  0 0.30733910E+01</rscale>
<asrwt>0</asrwt>
<pdfrwt beam="1">0</pdfrwt>
<pdfrwt beam="2">0</pdfrwt>
<totfact> 0.12948594E+12</totfact>
</mgrwt>
</event>
<event>
 4    1  0.1838758E+006  0.3294418E+01  0.7546771E-02  0.2436603E+00
         22   -1    0    0    0    0  0.00000000000E+00  0.00000000000E+00  0.31583299881E+01  0.31583299881E+01  0.00000000000E+00 0. -1.
         22   -1    0    0    0    0 -0.00000000000E+00 -0.00000000000E+00 -0.34886861875E+01  0.34886861875E+01  0.00000000000E+00 0.  1.
          4    1    1    2  501    0 -0.30364961568E+01  0.14134675873E+00 -0.57217139419E+00  0.33437356236E+01  0.12700000000E+01 0. -1.
         -4    1    1    2    0  501  0.30364961568E+01 -0.14134675873E+00  0.24181519477E+00  0.33032805519E+01  0.12700000000E+01 0.  1.
<mgrwt>
<rscale>  0 0.32944177E+01</rscale>
<asrwt>0</asrwt>
<pdfrwt beam="1">0</pdfrwt>
<pdfrwt beam="2">0</pdfrwt>
<totfact> 0.14726678E+12</totfact>
</mgrwt>
</event>
<event>
 4    1  0.1838758E+006  0.2587662E+01  0.7546771E-02  0.2671100E+00
         22   -1    0    0    0    0  0.00000000000E+00  0.00000000000E+00  0.45893046526E+01  0.45893046526E+01  0.00000000000E+00 0.  1.
         22   -1    0    0    0    0 -0.00000000000E+00 -0.00000000000E+00 -0.15469106753E+01  0.15469106753E+01  0.00000000000E+00 0. -1.
          4    1    1    2  501    0  0.21512990278E+01  0.67454317212E+00  0.22524216642E+01  0.34306558194E+01  0.12700000000E+01 0.  1.
         -4    1    1    2    0  501 -0.21512990278E+01 -0.67454317212E+00  0.78997231313E+00  0.27055595084E+01  0.12700000000E+01 0. -1.
<mgrwt>
<rscale>  0 0.25876623E+01</rscale>
<asrwt>0</asrwt>
<pdfrwt beam="1">0</pdfrwt>
<pdfrwt beam="2">0</pdfrwt>
<totfact> 0.24411528E+12</totfact>
</mgrwt>
</event>
<event>
 4    1  0.1838758E+006  0.4340161E+01  0.7546771E-02  0.2216634E+00
         22   -1    0    0    0    0  0.00000000000E+00  0.00000000000E+00  0.16942444695E+02  0.16942444695E+02  0.00000000000E+00 0.  1.
         22   -1    0    0    0    0 -0.00000000000E+00 -0.00000000000E+00 -0.13124483419E+01  0.13124483419E+01  0.00000000000E+00 0. -1.
          4    1    1    2  501    0 -0.35137811603E+00  0.41352909832E+01  0.11383625401E+02  0.12182935827E+02  0.12700000000E+01 0.  1.
         -4    1    1    2    0  501  0.35137811603E+00 -0.41352909832E+01  0.42463709524E+01  0.60719572101E+01  0.12700000000E+01 0. -1.
<mgrwt>
<rscale>  0 0.43401611E+01</rscale>
<asrwt>0</asrwt>
<pdfrwt beam="1">0</pdfrwt>
<pdfrwt beam="2">0</pdfrwt>
<totfact> 0.60980192E+11</totfact>
</mgrwt>
</event>
<event>
 4    1  0.1838758E+006  0.2128359E+01  0.7546771E-02  0.2899162E+00
         22   -1    0    0    0    0  0.00000000000E+00  0.00000000000E+00  0.41497459672E+01  0.41497459672E+01  0.00000000000E+00 0.  1.
         22   -1    0    0    0    0 -0.00000000000E+00 -0.00000000000E+00 -0.11541531159E+01  0.11541531159E+01  0.00000000000E+00 0. -1.
          4    1    1    2  501    0  0.12328329828E+01  0.11820047267E+01  0.21151251528E+01  0.30006110627E+01  0.12700000000E+01 0.  1.
         -4    1    1    2    0  501 -0.12328329828E+01 -0.11820047267E+01  0.88046769843E+00  0.23032880205E+01  0.12700000000E+01 0. -1.
<mgrwt>
<rscale>  0 0.21283591E+01</rscale>
<asrwt>0</asrwt>
<pdfrwt beam="1">0</pdfrwt>
<pdfrwt beam="2">0</pdfrwt>
<totfact> 0.38475188E+12</totfact>
</mgrwt>
</event>
<event>
 4    1  0.1838758E+006  0.2406042E+01  0.7546771E-02  0.2751460E+00
         22   -1    0    0    0    0  0.00000000000E+00  0.00000000000E+00  0.57704210272E+01  0.57704210272E+01  0.00000000000E+00 0. -1.
         22   -1    0    0    0    0 -0.00000000000E+00 -0.00000000000E+00 -0.15170298451E+01  0.15170298451E+01  0.00000000000E+00 0. -1.
          4    1    1    2  501    0 -0.20149968166E+01 -0.34047866284E+00  0.42472389070E+01  0.48814010513E+01  0.12700000000E+01 0. -1.
         -4    1    1    2    0  501  0.20149968166E+01  0.34047866284E+00  0.61522751791E-02  0.24060498211E+01  0.12700000000E+01 0. -1.
<mgrwt>
<rscale>  0 0.24060420E+01</rscale>
<asrwt>0</asrwt>
<pdfrwt beam="1">0</pdfrwt>
<pdfrwt beam="2">0</pdfrwt>
<totfact> 0.19031719E+12</totfact>
</mgrwt>
</event>
<event>
 4    1  0.1838758E+006  0.2124695E+01  0.7546771E-02  0.2901357E+00
         22   -1    0    0    0    0  0.00000000000E+00  0.00000000000E+00  0.65357861056E+00  0.65357861056E+00  0.00000000000E+00 0. -1.
         22   -1    0    0    0    0 -0.00000000000E+00 -0.00000000000E+00 -0.92056733672E+01  0.92056733672E+01  0.00000000000E+00 0.  1.
          4    1    1    2  501    0 -0.29394718689E+00 -0.16778031768E+01 -0.67393400059E+01  0.70663308842E+01  0.12700000000E+01 0.  1.
         -4    1    1    2    0  501  0.29394718689E+00  0.16778031768E+01 -0.18127547507E+01  0.27929210936E+01  0.12700000000E+01 0. -1.
<mgrwt>
<rscale>  0 0.21246949E+01</rscale>
<asrwt>0</asrwt>
<pdfrwt beam="1">0</pdfrwt>
<pdfrwt beam="2">0</pdfrwt>
<totfact> 0.28452172E+12</totfact>
</mgrwt>
</event>
<event>
 4    1  0.1838758E+006  0.2963535E+01  0.7546771E-02  0.2533830E+00
         22   -1    0    0    0    0  0.00000000000E+00  0.00000000000E+00  0.20826763504E+03  0.20826763504E+03  0.00000000000E+00 0. -1.
         22   -1    0    0    0    0 -0.00000000000E+00 -0.00000000000E+00 -0.42595203904E-01  0.42595203904E-01  0.00000000000E+00 0.  1.
          4    1    1    2  501    0 -0.12733146111E+01 -0.23554848326E+01  0.11452518164E+03  0.11456351849E+03  0.12700000000E+01 0. -1.
         -4    1    1    2    0  501  0.12733146111E+01  0.23554848326E+01  0.93699858193E+02  0.93746711752E+02  0.12700000000E+01 0.  1.
<mgrwt>
<rscale>  0 0.29635349E+01</rscale>
<asrwt>0</asrwt>
<pdfrwt beam="1">0</pdfrwt>
<pdfrwt beam="2">0</pdfrwt>
<totfact> 0.93702707E+11</totfact>
</mgrwt>
</event>
<event>
 4    1  0.1838758E+006  0.5937083E+01  0.7546771E-02  0.2025377E+00
         22   -1    0    0    0    0  0.00000000000E+00  0.00000000000E+00  0.60066425047E+00  0.60066425047E+00  0.00000000000E+00 0.  1.
         22   -1    0    0    0    0 -0.00000000000E+00 -0.00000000000E+00 -0.66215140965E+02  0.66215140965E+02  0.00000000000E+00 0. -1.
          4    1    1    2  501    0  0.55204023493E+01 -0.17779796555E+01 -0.21539897128E+02  0.22343144855E+02  0.12700000000E+01 0.  1.
         -4    1    1    2    0  501 -0.55204023493E+01  0.17779796555E+01 -0.44074579587E+02  0.44472660360E+02  0.12700000000E+01 0. -1.
<mgrwt>
<rscale>  0 0.59370829E+01</rscale>
<asrwt>0</asrwt>
<pdfrwt beam="1">0</pdfrwt>
<pdfrwt beam="2">0</pdfrwt>
<totfact> 0.25735045E+11</totfact>
</mgrwt>
</event>
<event>
 4    1  0.1838758E+006  0.2154263E+01  0.7546771E-02  0.2883846E+00
         22   -1    0    0    0    0  0.00000000000E+00  0.00000000000E+00  0.12010939591E+01  0.12010939591E+01  0.00000000000E+00 0.  1.
         22   -1    0    0    0    0 -0.00000000000E+00 -0.00000000000E+00 -0.50117934808E+02  0.50117934808E+02  0.00000000000E+00 0. -1.
          4    1    1    2  501    0 -0.57776520219E-01 -0.17391412607E+01  0.19214479346E+00  0.21628153117E+01  0.12700000000E+01 0.  1.
         -4    1    1    2    0  501  0.57776520219E-01  0.17391412607E+01 -0.49108985642E+02  0.49156213455E+02  0.12700000000E+01 0. -1.
<mgrwt>
<rscale>  0 0.21542633E+01</rscale>
<asrwt>0</asrwt>
<pdfrwt beam="1">0</pdfrwt>
<pdfrwt beam="2">0</pdfrwt>
<totfact> 0.16948169E+11</totfact>
</mgrwt>
</event>
<event>
 4    1  0.1838758E+006  0.2258380E+01  0.7546771E-02  0.2825696E+00
         22   -1    0    0    0    0  0.00000000000E+00  0.00000000000E+00  0.33585750260E+01  0.33585750260E+01  0.00000000000E+00 0.  1.
         22   -1    0    0    0    0 -0.00000000000E+00 -0.00000000000E+00 -0.15281750714E+01  0.15281750714E+01  0.00000000000E+00 0. -1.
          4    1    1    2  501    0 -0.17187413580E+01 -0.73027913054E+00  0.11087660656E+01  0.25158779089E+01  0.12700000000E+01 0. -1.
         -4    1    1    2    0  501  0.17187413580E+01  0.73027913054E+00  0.72163388897E+00  0.23708721884E+01  0.12700000000E+01 0.  1.
<mgrwt>
<rscale>  0 0.22583798E+01</rscale>
<asrwt>0</asrwt>
<pdfrwt beam="1">0</pdfrwt>
<pdfrwt beam="2">0</pdfrwt>
<totfact> 0.35740191E+12</totfact>
</mgrwt>
</event>
<event>
 4    1  0.1838758E+006  0.2932916E+01  0.7546771E-02  0.2543814E+00
         22   -1    0    0    0    0  0.00000000000E+00  0.00000000000E+00  0.39831143157E+00  0.39831143157E+00  0.00000000000E+00 0. -1.
         22   -1    0    0    0    0 -0.00000000000E+00 -0.00000000000E+00 -0.48948239318E+02  0.48948239318E+02  0.00000000000E+00 0.  1.
          4    1    1    2  501    0  0.19652150666E+01  0.17683400913E+01 -0.58310345302E+01  0.65270943481E+01  0.12700000000E+01 0. -1.
         -4    1    1    2    0  501 -0.19652150666E+01 -0.17683400913E+01 -0.42718893356E+02  0.42819456402E+02  0.12700000000E+01 0.  1.
<mgrwt>
<rscale>  0 0.29329161E+01</rscale>
<asrwt>0</asrwt>
<pdfrwt beam="1">0</pdfrwt>
<pdfrwt beam="2">0</pdfrwt>
<totfact> 0.61209504E+11</totfact>
</mgrwt>
</event>
<event>
 4    1  0.1838758E+006  0.2359929E+01  0.7546771E-02  0.2773700E+00
         22   -1    0    0    0    0  0.00000000000E+00  0.00000000000E+00  0.40031586339E+01  0.40031586339E+01  0.00000000000E+00 0.  1.
         22   -1    0    0    0    0 -0.00000000000E+00 -0.00000000000E+00 -0.75419566231E+01  0.75419566231E+01  0.00000000000E+00 0. -1.
          4    1    1    2  501    0  0.96443158836E+00  0.17396084719E+01  0.34436271359E+01  0.41746657082E+01  0.12700000000E+01 0.  1.
         -4    1    1    2    0  501 -0.96443158836E+00 -0.17396084719E+01 -0.69824251250E+01  0.73704495488E+01  0.12700000000E+01 0. -1.
<mgrwt>
<rscale>  0 0.23599292E+01</rscale>
<asrwt>0</asrwt>
<pdfrwt beam="1">0</pdfrwt>
<pdfrwt beam="2">0</pdfrwt>
<totfact> 0.44718708E+11</totfact>
</mgrwt>
</event>
<event>
 4    1  0.1838758E+006  0.3082182E+01  0.7546771E-02  0.2496831E+00
         22   -1    0    0    0    0  0.00000000000E+00  0.00000000000E+00  0.11252095978E+02  0.11252095978E+02  0.00000000000E+00 0. -1.
         22   -1    0    0    0    0 -0.00000000000E+00 -0.00000000000E+00 -0.46197919758E+01  0.46197919758E+01  0.00000000000E+00 0.  1.
          4    1    1    2  501    0  0.15521405866E+01 -0.23404717015E+01  0.10490388255E+02  0.10933805098E+02  0.12700000000E+01 0. -1.
         -4    1    1    2    0  501 -0.15521405866E+01  0.23404717015E+01 -0.38580842529E+01  0.49380828555E+01  0.12700000000E+01 0.  1.
<mgrwt>
<rscale>  0 0.30821824E+01</rscale>
<asrwt>0</asrwt>
<pdfrwt beam="1">0</pdfrwt>
<pdfrwt beam="2">0</pdfrwt>
<totfact> 0.23300077E+11</totfact>
</mgrwt>
</event>
<event>
 4    1  0.1838758E+006  0.7207762E+01  0.7546771E-02  0.1925761E+00
         22   -1    0    0    0    0  0.00000000000E+00  0.00000000000E+00  0.19249129476E+01  0.19249129476E+01  0.00000000000E+00 0. -1.
         22   -1    0    0    0    0 -0.00000000000E+00 -0.00000000000E+00 -0.27610981685E+02  0.27610981685E+02  0.00000000000E+00 0.  1.
          4    1    1    2  501    0  0.64884266549E+01  0.28704099476E+01 -0.10626864552E+02  0.12840641882E+02  0.12700000000E+01 0. -1.
         -4    1    1    2    0  501 -0.64884266549E+01 -0.28704099476E+01 -0.15059204185E+02  0.16695252751E+02  0.12700000000E+01 0.  1.
<mgrwt>
<rscale>  0 0.72077620E+01</rscale>
<asrwt>0</asrwt>
<pdfrwt beam="1">0</pdfrwt>
<pdfrwt beam="2">0</pdfrwt>
<totfact> 0.21280881E+11</totfact>
</mgrwt>
</event>
<event>
 4    1  0.1838758E+006  0.4784237E+01  0.7546771E-02  0.2149674E+00
         22   -1    0    0    0    0  0.00000000000E+00  0.00000000000E+00  0.14950025425E+02  0.14950025425E+02  0.00000000000E+00 0.  1.
         22   -1    0    0    0    0 -0.00000000000E+00 -0.00000000000E+00 -0.19531561908E+01  0.19531561908E+01  0.00000000000E+00 0. -1.
          4    1    1    2  501    0 -0.21713909679E+00  0.46074800449E+01  0.10427521782E+02  0.11472668925E+02  0.12700000000E+01 0. -1.
         -4    1    1    2    0  501  0.21713909679E+00 -0.46074800449E+01  0.25693474519E+01  0.54305126904E+01  0.12700000000E+01 0. -1.
<mgrwt>
<rscale>  0 0.47842368E+01</rscale>
<asrwt>0</asrwt>
<pdfrwt beam="1">0</pdfrwt>
<pdfrwt beam="2">0</pdfrwt>
<totfact> 0.45009047E+11</totfact>
</mgrwt>
</event>
<event>
 4    1  0.1838758E+006  0.2212438E+01  0.7546771E-02  0.2850709E+00
         22   -1    0    0    0    0  0.00000000000E+00  0.00000000000E+00  0.76855146834E+01  0.76855146834E+01  0.00000000000E+00 0.  1.
         22   -1    0    0    0    0 -0.00000000000E+00 -0.00000000000E+00 -0.65724071008E+00  0.65724071008E+00  0.00000000000E+00 0. -1.
          4    1    1    2  501    0 -0.17665309117E+01  0.40168577893E+00  0.42480253983E+01  0.47896349247E+01  0.12700000000E+01 0.  1.
         -4    1    1    2    0  501  0.17665309117E+01 -0.40168577893E+00  0.27802485750E+01  0.35531204688E+01  0.12700000000E+01 0. -1.
<mgrwt>
<rscale>  0 0.22124382E+01</rscale>
<asrwt>0</asrwt>
<pdfrwt beam="1">0</pdfrwt>
<pdfrwt beam="2">0</pdfrwt>
<totfact> 0.35132276E+12</totfact>
</mgrwt>
</event>
<event>
 4    1  0.1838758E+006  0.2769012E+01  0.7546771E-02  0.2600632E+00
         22   -1    0    0    0    0  0.00000000000E+00  0.00000000000E+00  0.10388204673E+01  0.10388204673E+01  0.00000000000E+00 0. -1.
         22   -1    0    0    0    0 -0.00000000000E+00 -0.00000000000E+00 -0.18378497326E+02  0.18378497326E+02  0.00000000000E+00 0.  1.
          4    1    1    2  501    0  0.24231921350E+01 -0.42739305390E+00 -0.11596082810E+01  0.30020187060E+01  0.12700000000E+01 0. -1.
         -4    1    1    2    0  501 -0.24231921350E+01  0.42739305390E+00 -0.16180068577E+02  0.16415299087E+02  0.12700000000E+01 0.  1.
<mgrwt>
<rscale>  0 0.27690115E+01</rscale>
<asrwt>0</asrwt>
<pdfrwt beam="1">0</pdfrwt>
<pdfrwt beam="2">0</pdfrwt>
<totfact> 0.72055100E+11</totfact>
</mgrwt>
</event>
<event>
 4    1  0.1838758E+006  0.2172917E+01  0.7546771E-02  0.2873035E+00
         22   -1    0    0    0    0  0.00000000000E+00  0.00000000000E+00  0.12916832279E+01  0.12916832279E+01  0.00000000000E+00 0. -1.
         22   -1    0    0    0    0 -0.00000000000E+00 -0.00000000000E+00 -0.42167572578E+01  0.42167572578E+01  0.00000000000E+00 0. -1.
          4    1    1    2  501    0 -0.10640942735E+01 -0.14058354945E+01 -0.45758886849E+00  0.22205759687E+01  0.12700000000E+01 0. -1.
         -4    1    1    2    0  501  0.10640942735E+01  0.14058354945E+01 -0.24674851614E+01  0.32878645169E+01  0.12700000000E+01 0. -1.
<mgrwt>
<rscale>  0 0.21729174E+01</rscale>
<asrwt>0</asrwt>
<pdfrwt beam="1">0</pdfrwt>
<pdfrwt beam="2">0</pdfrwt>
<totfact> 0.33185822E+12</totfact>
</mgrwt>
</event>
<event>
 4    1  0.1838758E+006  0.2477086E+01  0.7546771E-02  0.2718719E+00
         22   -1    0    0    0    0  0.00000000000E+00  0.00000000000E+00  0.44708588667E+00  0.44708588667E+00  0.00000000000E+00 0.  1.
         22   -1    0    0    0    0 -0.00000000000E+00 -0.00000000000E+00 -0.13772438660E+02  0.13772438660E+02  0.00000000000E+00 0. -1.
          4    1    1    2  501    0 -0.18609692640E+01  0.10294898375E+01 -0.62424877283E+01  0.67159964983E+01  0.12700000000E+01 0. -1.
         -4    1    1    2    0  501  0.18609692640E+01 -0.10294898375E+01 -0.70828650454E+01  0.75035280487E+01  0.12700000000E+01 0.  1.
<mgrwt>
<rscale>  0 0.24770862E+01</rscale>
<asrwt>0</asrwt>
<pdfrwt beam="1">0</pdfrwt>
<pdfrwt beam="2">0</pdfrwt>
<totfact> 0.26776683E+12</totfact>
</mgrwt>
</event>
<event>
 4    1  0.1838758E+006  0.2046659E+01  0.7546771E-02  0.2949925E+00
         22   -1    0    0    0    0  0.00000000000E+00  0.00000000000E+00  0.23428043547E+00  0.23428043547E+00  0.00000000000E+00 0.  1.
         22   -1    0    0    0    0 -0.00000000000E+00 -0.00000000000E+00 -0.31809656304E+02  0.31809656304E+02  0.00000000000E+00 0. -1.
          4    1    1    2  501    0 -0.16047276261E+01 -0.27635674122E-01 -0.51850349671E+01  0.55743521682E+01  0.12700000000E+01 0.  1.
         -4    1    1    2    0  501  0.16047276261E+01  0.27635674122E-01 -0.26390340902E+02  0.26469584572E+02  0.12700000000E+01 0. -1.
<mgrwt>
<rscale>  0 0.20466593E+01</rscale>
<asrwt>0</asrwt>
<pdfrwt beam="1">0</pdfrwt>
<pdfrwt beam="2">0</pdfrwt>
<totfact> 0.19410829E+12</totfact>
</mgrwt>
</event>
<event>
 4    1  0.1838758E+006  0.2220487E+01  0.7546771E-02  0.2846255E+00
         22   -1    0    0    0    0  0.00000000000E+00  0.00000000000E+00  0.78201825237E+01  0.78201825237E+01  0.00000000000E+00 0. -1.
         22   -1    0    0    0    0 -0.00000000000E+00 -0.00000000000E+00 -0.68348287379E+00  0.68348287379E+00  0.00000000000E+00 0.  1.
          4    1    1    2  501    0  0.64980925383E+00 -0.17015899516E+01  0.47522470013E+01  0.52454181903E+01  0.12700000000E+01 0.  1.
         -4    1    1    2    0  501 -0.64980925383E+00  0.17015899516E+01  0.23844526486E+01  0.32582472072E+01  0.12700000000E+01 0. -1.
<mgrwt>
<rscale>  0 0.22204865E+01</rscale>
<asrwt>0</asrwt>
<pdfrwt beam="1">0</pdfrwt>
<pdfrwt beam="2">0</pdfrwt>
<totfact> 0.32912875E+12</totfact>
</mgrwt>
</event>
<event>
 4    1  0.1838758E+006  0.3524615E+01  0.7546771E-02  0.2378559E+00
         22   -1    0    0    0    0  0.00000000000E+00  0.00000000000E+00  0.19373716565E+01  0.19373716565E+01  0.00000000000E+00 0.  1.
         22   -1    0    0    0    0 -0.00000000000E+00 -0.00000000000E+00 -0.64134545851E+01  0.64134545851E+01  0.00000000000E+00 0. -1.
          4    1    1    2  501    0 -0.21133221205E+01  0.25187066970E+01 -0.22952351657E+01  0.42060692192E+01  0.12700000000E+01 0. -1.
         -4    1    1    2    0  501  0.21133221205E+01 -0.25187066970E+01 -0.21808477629E+01  0.41447570225E+01  0.12700000000E+01 0.  1.
<mgrwt>
<rscale>  0 0.35246154E+01</rscale>
<asrwt>0</asrwt>
<pdfrwt beam="1">0</pdfrwt>
<pdfrwt beam="2">0</pdfrwt>
<totfact> 0.12656129E+12</totfact>
</mgrwt>
</event>
<event>
 4    1  0.1838758E+006  0.3203966E+01  0.7546771E-02  0.2461406E+00
         22   -1    0    0    0    0  0.00000000000E+00  0.00000000000E+00  0.14570573603E+02  0.14570573603E+02  0.00000000000E+00 0. -1.
         22   -1    0    0    0    0 -0.00000000000E+00 -0.00000000000E+00 -0.30120723023E+01  0.30120723023E+01  0.00000000000E+00 0.  1.
          4    1    1    2  501    0 -0.12300526739E+01  0.26719785664E+01  0.13474034417E+02  0.13849729330E+02  0.12700000000E+01 0. -1.
         -4    1    1    2    0  501  0.12300526739E+01 -0.26719785664E+01 -0.19155331163E+01  0.37329165754E+01  0.12700000000E+01 0.  1.
<mgrwt>
<rscale>  0 0.32039661E+01</rscale>
<asrwt>0</asrwt>
<pdfrwt beam="1">0</pdfrwt>
<pdfrwt beam="2">0</pdfrwt>
<totfact> 0.28076180E+11</totfact>
</mgrwt>
</event>
<event>
 4    1  0.1838758E+006  0.2114196E+01  0.7546771E-02  0.2907689E+00
         22   -1    0    0    0    0  0.00000000000E+00  0.00000000000E+00  0.27716719083E+01  0.27716719083E+01  0.00000000000E+00 0. -1.
         22   -1    0    0    0    0 -0.00000000000E+00 -0.00000000000E+00 -0.23471755905E+01  0.23471755905E+01  0.00000000000E+00 0.  1.
          4    1    1    2  501    0  0.53875928146E+00  0.16020810107E+01  0.16439857879E+01  0.26781550364E+01  0.12700000000E+01 0.  1.
         -4    1    1    2    0  501 -0.53875928146E+00 -0.16020810107E+01 -0.12194894700E+01  0.24406924624E+01  0.12700000000E+01 0.  1.
<mgrwt>
<rscale>  0 0.21141961E+01</rscale>
<asrwt>0</asrwt>
<pdfrwt beam="1">0</pdfrwt>
<pdfrwt beam="2">0</pdfrwt>
<totfact> 0.27236342E+12</totfact>
</mgrwt>
</event>
<event>
 4    1  0.1838758E+006  0.3092752E+01  0.7546771E-02  0.2493658E+00
         22   -1    0    0    0    0  0.00000000000E+00  0.00000000000E+00  0.40142226460E+02  0.40142226460E+02  0.00000000000E+00 0. -1.
         22   -1    0    0    0    0 -0.00000000000E+00 -0.00000000000E+00 -0.24084777012E+00  0.24084777012E+00  0.00000000000E+00 0. -1.
          4    1    1    2  501    0 -0.27639605331E+01 -0.55923082720E+00  0.22035270339E+02  0.22251252906E+02  0.12700000000E+01 0. -1.
         -4    1    1    2    0  501  0.27639605331E+01  0.55923082720E+00  0.17866108350E+02  0.18131821324E+02  0.12700000000E+01 0. -1.
<mgrwt>
<rscale>  0 0.30927523E+01</rscale>
<asrwt>0</asrwt>
<pdfrwt beam="1">0</pdfrwt>
<pdfrwt beam="2">0</pdfrwt>
<totfact> 0.13947689E+12</totfact>
</mgrwt>
</event>
<event>
 4    1  0.1838758E+006  0.2237667E+01  0.7546771E-02  0.2836852E+00
         22   -1    0    0    0    0  0.00000000000E+00  0.00000000000E+00  0.12415084729E+01  0.12415084729E+01  0.00000000000E+00 0.  1.
         22   -1    0    0    0    0 -0.00000000000E+00 -0.00000000000E+00 -0.55091424934E+01  0.55091424934E+01  0.00000000000E+00 0. -1.
          4    1    1    2  501    0 -0.71956750573E+00  0.16960174986E+01 -0.38670748406E+00  0.22708358437E+01  0.12700000000E+01 0.  1.
         -4    1    1    2    0  501  0.71956750573E+00 -0.16960174986E+01 -0.38809265365E+01  0.44798151226E+01  0.12700000000E+01 0. -1.
<mgrwt>
<rscale>  0 0.22376668E+01</rscale>
<asrwt>0</asrwt>
<pdfrwt beam="1">0</pdfrwt>
<pdfrwt beam="2">0</pdfrwt>
<totfact> 0.25314042E+12</totfact>
</mgrwt>
</event>
<event>
 4    1  0.1838758E+006  0.2693037E+01  0.7546771E-02  0.2629095E+00
         22   -1    0    0    0    0  0.00000000000E+00  0.00000000000E+00  0.12191350628E+02  0.12191350628E+02  0.00000000000E+00 0. -1.
         22   -1    0    0    0    0 -0.00000000000E+00 -0.00000000000E+00 -0.73372989198E+00  0.73372989198E+00  0.00000000000E+00 0.  1.
          4    1    1    2  501    0  0.22790076469E+01  0.66758636887E+00  0.29175527313E+01  0.39704611010E+01  0.12700000000E+01 0.  1.
         -4    1    1    2    0  501 -0.22790076469E+01 -0.66758636887E+00  0.85400680047E+01  0.89546194190E+01  0.12700000000E+01 0. -1.
<mgrwt>
<rscale>  0 0.26930368E+01</rscale>
<asrwt>0</asrwt>
<pdfrwt beam="1">0</pdfrwt>
<pdfrwt beam="2">0</pdfrwt>
<totfact> 0.17745137E+12</totfact>
</mgrwt>
</event>
<event>
 4    1  0.1838758E+006  0.2186699E+01  0.7546771E-02  0.2865161E+00
         22   -1    0    0    0    0  0.00000000000E+00  0.00000000000E+00  0.20676980940E+01  0.20676980940E+01  0.00000000000E+00 0.  1.
         22   -1    0    0    0    0 -0.00000000000E+00 -0.00000000000E+00 -0.93474556407E+01  0.93474556407E+01  0.00000000000E+00 0.  1.
          4    1    1    2  501    0  0.17130084868E+00  0.17718370022E+01  0.13115926155E+01  0.25498873568E+01  0.12700000000E+01 0.  1.
         -4    1    1    2    0  501 -0.17130084868E+00 -0.17718370022E+01 -0.85913501622E+01  0.88652663780E+01  0.12700000000E+01 0.  1.
<mgrwt>
<rscale>  0 0.21866985E+01</rscale>
<asrwt>0</asrwt>
<pdfrwt beam="1">0</pdfrwt>
<pdfrwt beam="2">0</pdfrwt>
<totfact> 0.74677295E+11</totfact>
</mgrwt>
</event>
<event>
 4    1  0.1838758E+006  0.2333864E+01  0.7546771E-02  0.2786637E+00
         22   -1    0    0    0    0  0.00000000000E+00  0.00000000000E+00  0.44449263697E+00  0.44449263697E+00  0.00000000000E+00 0.  1.
         22   -1    0    0    0    0 -0.00000000000E+00 -0.00000000000E+00 -0.12557430774E+02  0.12557430774E+02  0.00000000000E+00 0.  1.
          4    1    1    2  501    0 -0.77489134960E+00 -0.17982120735E+01 -0.70666032282E+01  0.74420295921E+01  0.12700000000E+01 0.  1.
         -4    1    1    2    0  501  0.77489134960E+00  0.17982120735E+01 -0.50463349087E+01  0.55598938187E+01  0.12700000000E+01 0.  1.
<mgrwt>
<rscale>  0 0.23338644E+01</rscale>
<asrwt>0</asrwt>
<pdfrwt beam="1">0</pdfrwt>
<pdfrwt beam="2">0</pdfrwt>
<totfact> 0.30177692E+12</totfact>
</mgrwt>
</event>
<event>
 4    1  0.1838758E+006  0.2017334E+01  0.7546771E-02  0.2969123E+00
         22   -1    0    0    0    0  0.00000000000E+00  0.00000000000E+00  0.81831585005E+01  0.81831585005E+01  0.00000000000E+00 0. -1.
         22   -1    0    0    0    0 -0.00000000000E+00 -0.00000000000E+00 -0.14026516583E+01  0.14026516583E+01  0.00000000000E+00 0.  1.
          4    1    1    2  501    0 -0.11745190969E+01 -0.10379018323E+01  0.72408511466E+01  0.75166189640E+01  0.12700000000E+01 0. -1.
         -4    1    1    2    0  501  0.11745190969E+01  0.10379018323E+01 -0.46034430444E+00  0.20691911949E+01  0.12700000000E+01 0.  1.
<mgrwt>
<rscale>  0 0.20173337E+01</rscale>
<asrwt>0</asrwt>
<pdfrwt beam="1">0</pdfrwt>
<pdfrwt beam="2">0</pdfrwt>
<totfact> 0.13715645E+12</totfact>
</mgrwt>
</event>
<event>
 4    1  0.1838758E+006  0.3088985E+01  0.7546771E-02  0.2494786E+00
         22   -1    0    0    0    0  0.00000000000E+00  0.00000000000E+00  0.66187002061E+01  0.66187002061E+01  0.00000000000E+00 0.  1.
         22   -1    0    0    0    0 -0.00000000000E+00 -0.00000000000E+00 -0.14578752856E+01  0.14578752856E+01  0.00000000000E+00 0.  1.
          4    1    1    2  501    0 -0.18068359140E+01  0.21596932687E+01  0.30064715942E+01  0.43105338975E+01  0.12700000000E+01 0.  1.
         -4    1    1    2    0  501  0.18068359140E+01 -0.21596932687E+01  0.21543533263E+01  0.37660415943E+01  0.12700000000E+01 0.  1.
<mgrwt>
<rscale>  0 0.30889854E+01</rscale>
<asrwt>0</asrwt>
<pdfrwt beam="1">0</pdfrwt>
<pdfrwt beam="2">0</pdfrwt>
<totfact> 0.16919728E+12</totfact>
</mgrwt>
</event>
<event>
 4    1  0.1838758E+006  0.2271568E+01  0.7546771E-02  0.2818694E+00
         22   -1    0    0    0    0  0.00000000000E+00  0.00000000000E+00  0.46741322454E+00  0.46741322454E+00  0.00000000000E+00 0.  1.
         22   -1    0    0    0    0 -0.00000000000E+00 -0.00000000000E+00 -0.11654789885E+02  0.11654789885E+02  0.00000000000E+00 0.  1.
          4    1    1    2  501    0  0.14786694882E+01  0.11664717687E+01 -0.69863015161E+01  0.73463207605E+01  0.12700000000E+01 0.  1.
         -4    1    1    2    0  501 -0.14786694882E+01 -0.11664717687E+01 -0.42010751440E+01  0.47758823486E+01  0.12700000000E+01 0.  1.
<mgrwt>
<rscale>  0 0.22715677E+01</rscale>
<asrwt>0</asrwt>
<pdfrwt beam="1">0</pdfrwt>
<pdfrwt beam="2">0</pdfrwt>
<totfact> 0.31229958E+12</totfact>
</mgrwt>
</event>
<event>
 4    1  0.1838758E+006  0.2419327E+01  0.7546771E-02  0.2745201E+00
         22   -1    0    0    0    0  0.00000000000E+00  0.00000000000E+00  0.16779585619E+01  0.16779585619E+01  0.00000000000E+00 0.  1.
         22   -1    0    0    0    0 -0.00000000000E+00 -0.00000000000E+00 -0.18251106698E+02  0.18251106698E+02  0.00000000000E+00 0. -1.
          4    1    1    2  501    0  0.56153821391E-01  0.20584191877E+01  0.67527241046E+00  0.25117992818E+01  0.12700000000E+01 0.  1.
         -4    1    1    2    0  501 -0.56153821391E-01 -0.20584191877E+01 -0.17248420546E+02  0.17417265978E+02  0.12700000000E+01 0. -1.
<mgrwt>
<rscale>  0 0.24193269E+01</rscale>
<asrwt>0</asrwt>
<pdfrwt beam="1">0</pdfrwt>
<pdfrwt beam="2">0</pdfrwt>
<totfact> 0.41915604E+11</totfact>
</mgrwt>
</event>
<event>
 4    1  0.1838758E+006  0.2237428E+01  0.7546771E-02  0.2836982E+00
         22   -1    0    0    0    0  0.00000000000E+00  0.00000000000E+00  0.18823083758E+02  0.18823083758E+02  0.00000000000E+00 0.  1.
         22   -1    0    0    0    0 -0.00000000000E+00 -0.00000000000E+00 -0.26948794649E+00  0.26948794649E+00  0.00000000000E+00 0.  1.
          4    1    1    2  501    0 -0.18805498639E+00 -0.18324354251E+01  0.10369904712E+02  0.10608534678E+02  0.12700000000E+01 0.  1.
         -4    1    1    2    0  501  0.18805498639E+00  0.18324354251E+01  0.81836910992E+01  0.84840370268E+01  0.12700000000E+01 0.  1.
<mgrwt>
<rscale>  0 0.22374280E+01</rscale>
<asrwt>0</asrwt>
<pdfrwt beam="1">0</pdfrwt>
<pdfrwt beam="2">0</pdfrwt>
<totfact> 0.32153967E+12</totfact>
</mgrwt>
</event>
<event>
 4    1  0.1838758E+006  0.2431522E+01  0.7546771E-02  0.2739512E+00
         22   -1    0    0    0    0  0.00000000000E+00  0.00000000000E+00  0.17702543699E+02  0.17702543699E+02  0.00000000000E+00 0. -1.
         22   -1    0    0    0    0 -0.00000000000E+00 -0.00000000000E+00 -0.33479806688E+00  0.33479806688E+00  0.00000000000E+00 0.  1.
          4    1    1    2  501    0 -0.66331784502E+00  0.19645377211E+01  0.82381207814E+01  0.85894663996E+01  0.12700000000E+01 0. -1.
         -4    1    1    2    0  501  0.66331784502E+00 -0.19645377211E+01  0.91296248505E+01  0.94478753660E+01  0.12700000000E+01 0.  1.
<mgrwt>
<rscale>  0 0.24315220E+01</rscale>
<asrwt>0</asrwt>
<pdfrwt beam="1">0</pdfrwt>
<pdfrwt beam="2">0</pdfrwt>
<totfact> 0.27206234E+12</totfact>
</mgrwt>
</event>
<event>
 4    1  0.1838758E+006  0.2490649E+01  0.7546771E-02  0.2712667E+00
         22   -1    0    0    0    0  0.00000000000E+00  0.00000000000E+00  0.24446221246E+02  0.24446221246E+02  0.00000000000E+00 0.  1.
         22   -1    0    0    0    0 -0.00000000000E+00 -0.00000000000E+00 -0.69891299150E+00  0.69891299150E+00  0.00000000000E+00 0. -1.
          4    1    1    2  501    0 -0.20897864156E+01 -0.47246571281E+00  0.21907556879E+02  0.22048682036E+02  0.12700000000E+01 0.  1.
         -4    1    1    2    0  501  0.20897864156E+01  0.47246571281E+00  0.18397513751E+01  0.30964522013E+01  0.12700000000E+01 0. -1.
<mgrwt>
<rscale>  0 0.24906487E+01</rscale>
<asrwt>0</asrwt>
<pdfrwt beam="1">0</pdfrwt>
<pdfrwt beam="2">0</pdfrwt>
<totfact> 0.79197234E+11</totfact>
</mgrwt>
</event>
<event>
 4    1  0.1838758E+006  0.3405810E+01  0.7546771E-02  0.2407657E+00
         22   -1    0    0    0    0  0.00000000000E+00  0.00000000000E+00  0.98949864896E+01  0.98949864896E+01  0.00000000000E+00 0. -1.
         22   -1    0    0    0    0 -0.00000000000E+00 -0.00000000000E+00 -0.11781949298E+01  0.11781949298E+01  0.00000000000E+00 0.  1.
          4    1    1    2  501    0 -0.11515444358E+01 -0.29428881257E+01  0.47511882654E+01  0.58457963564E+01  0.12700000000E+01 0. -1.
         -4    1    1    2    0  501  0.11515444358E+01  0.29428881257E+01  0.39656032945E+01  0.52273850630E+01  0.12700000000E+01 0.  1.
<mgrwt>
<rscale>  0 0.34058105E+01</rscale>
<asrwt>0</asrwt>
<pdfrwt beam="1">0</pdfrwt>
<pdfrwt beam="2">0</pdfrwt>
<totfact> 0.13324022E+12</totfact>
</mgrwt>
</event>
<event>
 4    1  0.1838758E+006  0.2276909E+01  0.7546771E-02  0.2815880E+00
         22   -1    0    0    0    0  0.00000000000E+00  0.00000000000E+00  0.14506883615E+02  0.14506883615E+02  0.00000000000E+00 0.  1.
         22   -1    0    0    0    0 -0.00000000000E+00 -0.00000000000E+00 -0.40654440076E+00  0.40654440076E+00  0.00000000000E+00 0.  1.
          4    1    1    2  501    0 -0.10592605144E+01  0.15650498632E+01  0.96435511005E+01  0.99087028283E+01  0.12700000000E+01 0.  1.
         -4    1    1    2    0  501  0.10592605144E+01 -0.15650498632E+01  0.44567881141E+01  0.50047251878E+01  0.12700000000E+01 0.  1.
<mgrwt>
<rscale>  0 0.22769089E+01</rscale>
<asrwt>0</asrwt>
<pdfrwt beam="1">0</pdfrwt>
<pdfrwt beam="2">0</pdfrwt>
<totfact> 0.27961500E+12</totfact>
</mgrwt>
</event>
<event>
 4    1  0.1838758E+006  0.2208119E+01  0.7546771E-02  0.2853111E+00
         22   -1    0    0    0    0  0.00000000000E+00  0.00000000000E+00  0.40025504578E+02  0.40025504578E+02  0.00000000000E+00 0. -1.
         22   -1    0    0    0    0 -0.00000000000E+00 -0.00000000000E+00 -0.13873828380E+00  0.13873828380E+00  0.00000000000E+00 0.  1.
          4    1    1    2  501    0  0.18062436177E+01  0.19343130871E-01  0.26956757737E+02  0.27047043791E+02  0.12700000000E+01 0. -1.
         -4    1    1    2    0  501 -0.18062436177E+01 -0.19343130871E-01  0.12930008558E+02  0.13117199071E+02  0.12700000000E+01 0.  1.
<mgrwt>
<rscale>  0 0.22081191E+01</rscale>
<asrwt>0</asrwt>
<pdfrwt beam="1">0</pdfrwt>
<pdfrwt beam="2">0</pdfrwt>
<totfact> 0.25885944E+12</totfact>
</mgrwt>
</event>
<event>
 4    1  0.1838758E+006  0.5587800E+01  0.7546771E-02  0.2058754E+00
         22   -1    0    0    0    0  0.00000000000E+00  0.00000000000E+00  0.16332338442E+02  0.16332338442E+02  0.00000000000E+00 0. -1.
         22   -1    0    0    0    0 -0.00000000000E+00 -0.00000000000E+00 -0.26685597786E+01  0.26685597786E+01  0.00000000000E+00 0.  1.
          4    1    1    2  501    0 -0.52159448132E+01  0.15506559878E+01  0.11891255524E+02  0.13138701314E+02  0.12700000000E+01 0. -1.
         -4    1    1    2    0  501  0.52159448132E+01 -0.15506559878E+01  0.17725231391E+01  0.58621969061E+01  0.12700000000E+01 0.  1.
<mgrwt>
<rscale>  0 0.55878005E+01</rscale>
<asrwt>0</asrwt>
<pdfrwt beam="1">0</pdfrwt>
<pdfrwt beam="2">0</pdfrwt>
<totfact> 0.28093933E+11</totfact>
</mgrwt>
</event>
<event>
 4    1  0.1838758E+006  0.2717120E+01  0.7546771E-02  0.2619915E+00
         22   -1    0    0    0    0  0.00000000000E+00  0.00000000000E+00  0.19365398755E+01  0.19365398755E+01  0.00000000000E+00 0.  1.
         22   -1    0    0    0    0 -0.00000000000E+00 -0.00000000000E+00 -0.73867645980E+01  0.73867645980E+01  0.00000000000E+00 0. -1.
          4    1    1    2  501    0  0.14608415260E+01  0.19067734688E+01  0.51765640760E+00  0.27659918984E+01  0.12700000000E+01 0.  1.
         -4    1    1    2    0  501 -0.14608415260E+01 -0.19067734688E+01 -0.59678811301E+01  0.65573125751E+01  0.12700000000E+01 0. -1.
<mgrwt>
<rscale>  0 0.27171204E+01</rscale>
<asrwt>0</asrwt>
<pdfrwt beam="1">0</pdfrwt>
<pdfrwt beam="2">0</pdfrwt>
<totfact> 0.10694274E+12</totfact>
</mgrwt>
</event>
<event>
 4    1  0.1838758E+006  0.2552193E+01  0.7546771E-02  0.2685958E+00
         22   -1    0    0    0    0  0.00000000000E+00  0.00000000000E+00  0.20040231659E+02  0.20040231659E+02  0.00000000000E+00 0.  1.
         22   -1    0    0    0    0 -0.00000000000E+00 -0.00000000000E+00 -0.33731431159E+00  0.33731431159E+00  0.00000000000E+00 0.  1.
          4    1    1    2  501    0  0.22032203081E+01  0.21589145511E+00  0.11795784388E+02  0.12068728938E+02  0.12700000000E+01 0.  1.
         -4    1    1    2    0  501 -0.22032203081E+01 -0.21589145511E+00  0.79071329596E+01  0.83088170330E+01  0.12700000000E+01 0.  1.
<mgrwt>
<rscale>  0 0.25521929E+01</rscale>
<asrwt>0</asrwt>
<pdfrwt beam="1">0</pdfrwt>
<pdfrwt beam="2">0</pdfrwt>
<totfact> 0.23122957E+12</totfact>
</mgrwt>
</event>
<event>
 4    1  0.1838758E+006  0.2621800E+01  0.7546771E-02  0.2657152E+00
         22   -1    0    0    0    0  0.00000000000E+00  0.00000000000E+00  0.28209477618E+02  0.28209477618E+02  0.00000000000E+00 0.  1.
         22   -1    0    0    0    0 -0.00000000000E+00 -0.00000000000E+00 -0.24407880812E+00  0.24407880812E+00  0.00000000000E+00 0.  1.
          4    1    1    2  501    0  0.40541049779E+00 -0.22575606225E+01  0.14564073774E+02  0.14798178352E+02  0.12700000000E+01 0.  1.
         -4    1    1    2    0  501 -0.40541049779E+00  0.22575606225E+01  0.13401325035E+02  0.13655378074E+02  0.12700000000E+01 0.  1.
<mgrwt>
<rscale>  0 0.26218005E+01</rscale>
<asrwt>0</asrwt>
<pdfrwt beam="1">0</pdfrwt>
<pdfrwt beam="2">0</pdfrwt>
<totfact> 0.21610733E+12</totfact>
</mgrwt>
</event>
<event>
 4    1  0.1838758E+006  0.2181577E+01  0.7546771E-02  0.2868076E+00
         22   -1    0    0    0    0  0.00000000000E+00  0.00000000000E+00  0.61616093942E+01  0.61616093942E+01  0.00000000000E+00 0.  1.
         22   -1    0    0    0    0 -0.00000000000E+00 -0.00000000000E+00 -0.11231388589E+01  0.11231388589E+01  0.00000000000E+00 0. -1.
          4    1    1    2  501    0  0.78989024009E+00  0.15882232108E+01  0.45546574185E+01  0.50501667060E+01  0.12700000000E+01 0.  1.
         -4    1    1    2    0  501 -0.78989024009E+00 -0.15882232108E+01  0.48381311677E+00  0.22345815471E+01  0.12700000000E+01 0. -1.
<mgrwt>
<rscale>  0 0.21815773E+01</rscale>
<asrwt>0</asrwt>
<pdfrwt beam="1">0</pdfrwt>
<pdfrwt beam="2">0</pdfrwt>
<totfact> 0.24853407E+12</totfact>
</mgrwt>
</event>
<event>
 4    1  0.1838758E+006  0.2169069E+01  0.7546771E-02  0.2875250E+00
         22   -1    0    0    0    0  0.00000000000E+00  0.00000000000E+00  0.10068369824E+01  0.10068369824E+01  0.00000000000E+00 0.  1.
         22   -1    0    0    0    0 -0.00000000000E+00 -0.00000000000E+00 -0.90123796393E+01  0.90123796393E+01  0.00000000000E+00 0. -1.
          4    1    1    2  501    0 -0.15910170089E+01  0.74874995846E+00 -0.52659170973E+00  0.22320753687E+01  0.12700000000E+01 0.  1.
         -4    1    1    2    0  501  0.15910170089E+01 -0.74874995846E+00 -0.74789509472E+01  0.77871412529E+01  0.12700000000E+01 0. -1.
<mgrwt>
<rscale>  0 0.21690693E+01</rscale>
<asrwt>0</asrwt>
<pdfrwt beam="1">0</pdfrwt>
<pdfrwt beam="2">0</pdfrwt>
<totfact> 0.17852595E+12</totfact>
</mgrwt>
</event>
<event>
 4    1  0.1838758E+006  0.3591147E+01  0.7546771E-02  0.2362999E+00
         22   -1    0    0    0    0  0.00000000000E+00  0.00000000000E+00  0.37054616283E+01  0.37054616283E+01  0.00000000000E+00 0.  1.
         22   -1    0    0    0    0 -0.00000000000E+00 -0.00000000000E+00 -0.39762709822E+01  0.39762709822E+01  0.00000000000E+00 0. -1.
          4    1    1    2  501    0  0.20111255248E+01 -0.26905039783E+01  0.12210129003E+01  0.37930475922E+01  0.12700000000E+01 0.  1.
         -4    1    1    2    0  501 -0.20111255248E+01  0.26905039783E+01 -0.14918222542E+01  0.38886850184E+01  0.12700000000E+01 0. -1.
<mgrwt>
<rscale>  0 0.35911471E+01</rscale>
<asrwt>0</asrwt>
<pdfrwt beam="1">0</pdfrwt>
<pdfrwt beam="2">0</pdfrwt>
<totfact> 0.10472633E+12</totfact>
</mgrwt>
</event>
<event>
 4    1  0.1838758E+006  0.2179864E+01  0.7546771E-02  0.2869054E+00
         22   -1    0    0    0    0  0.00000000000E+00  0.00000000000E+00  0.16493287135E+01  0.16493287135E+01  0.00000000000E+00 0. -1.
         22   -1    0    0    0    0 -0.00000000000E+00 -0.00000000000E+00 -0.46790739718E+01  0.46790739718E+01  0.00000000000E+00 0.  1.
          4    1    1    2  501    0  0.10841577151E+01  0.14012519438E+01  0.44659624080E+00  0.22251411559E+01  0.12700000000E+01 0. -1.
         -4    1    1    2    0  501 -0.10841577151E+01 -0.14012519438E+01 -0.34763414990E+01  0.41032615295E+01  0.12700000000E+01 0.  1.
<mgrwt>
<rscale>  0 0.21798635E+01</rscale>
<asrwt>0</asrwt>
<pdfrwt beam="1">0</pdfrwt>
<pdfrwt beam="2">0</pdfrwt>
<totfact> 0.22159400E+12</totfact>
</mgrwt>
</event>
<event>
 4    1  0.1838758E+006  0.2648618E+01  0.7546771E-02  0.2646427E+00
         22   -1    0    0    0    0  0.00000000000E+00  0.00000000000E+00  0.65869314749E+00  0.65869314749E+00  0.00000000000E+00 0. -1.
         22   -1    0    0    0    0 -0.00000000000E+00 -0.00000000000E+00 -0.13636016468E+02  0.13636016468E+02  0.00000000000E+00 0.  1.
          4    1    1    2  501    0  0.16023564219E+01  0.16836653208E+01 -0.31441137966E+01  0.41110371661E+01  0.12700000000E+01 0. -1.
         -4    1    1    2    0  501 -0.16023564219E+01 -0.16836653208E+01 -0.98332095238E+01  0.10183672449E+02  0.12700000000E+01 0.  1.
<mgrwt>
<rscale>  0 0.26486176E+01</rscale>
<asrwt>0</asrwt>
<pdfrwt beam="1">0</pdfrwt>
<pdfrwt beam="2">0</pdfrwt>
<totfact> 0.17489694E+12</totfact>
</mgrwt>
</event>
<event>
 4    1  0.1838758E+006  0.2929034E+01  0.7546771E-02  0.2545093E+00
         22   -1    0    0    0    0  0.00000000000E+00  0.00000000000E+00  0.10827897069E+02  0.10827897069E+02  0.00000000000E+00 0.  1.
         22   -1    0    0    0    0 -0.00000000000E+00 -0.00000000000E+00 -0.80962087272E+00  0.80962087272E+00  0.00000000000E+00 0. -1.
          4    1    1    2  501    0  0.10867724291E+01 -0.24052579851E+01  0.41587253715E+01  0.50866724883E+01  0.12700000000E+01 0. -1.
         -4    1    1    2    0  501 -0.10867724291E+01  0.24052579851E+01  0.58595508251E+01  0.65508454537E+01  0.12700000000E+01 0.  1.
<mgrwt>
<rscale>  0 0.29290340E+01</rscale>
<asrwt>0</asrwt>
<pdfrwt beam="1">0</pdfrwt>
<pdfrwt beam="2">0</pdfrwt>
<totfact> 0.18330920E+12</totfact>
</mgrwt>
</event>
<event>
 4    1  0.1838758E+006  0.3945359E+01  0.7546771E-02  0.2287863E+00
         22   -1    0    0    0    0  0.00000000000E+00  0.00000000000E+00  0.70905535226E+01  0.70905535226E+01  0.00000000000E+00 0.  1.
         22   -1    0    0    0    0 -0.00000000000E+00 -0.00000000000E+00 -0.37117454917E+01  0.37117454917E+01  0.00000000000E+00 0.  1.
          4    1    1    2  501    0 -0.36494809353E+01  0.79639376979E+00  0.51417258419E+01  0.64809874839E+01  0.12700000000E+01 0.  1.
         -4    1    1    2    0  501  0.36494809353E+01 -0.79639376979E+00 -0.17629178110E+01  0.43213115303E+01  0.12700000000E+01 0.  1.
<mgrwt>
<rscale>  0 0.39453586E+01</rscale>
<asrwt>0</asrwt>
<pdfrwt beam="1">0</pdfrwt>
<pdfrwt beam="2">0</pdfrwt>
<totfact> 0.52626515E+11</totfact>
</mgrwt>
</event>
<event>
 4    1  0.1838758E+006  0.3030584E+01  0.7546771E-02  0.2512603E+00
         22   -1    0    0    0    0  0.00000000000E+00  0.00000000000E+00  0.37567332627E+01  0.37567332627E+01  0.00000000000E+00 0.  1.
         22   -1    0    0    0    0 -0.00000000000E+00 -0.00000000000E+00 -0.25880119756E+01  0.25880119756E+01  0.00000000000E+00 0. -1.
          4    1    1    2  501    0  0.13015011698E+01  0.24243836397E+01  0.13306355761E+01  0.33098387217E+01  0.12700000000E+01 0.  1.
         -4    1    1    2    0  501 -0.13015011698E+01 -0.24243836397E+01 -0.16191428902E+00  0.30349065166E+01  0.12700000000E+01 0. -1.
<mgrwt>
<rscale>  0 0.30305843E+01</rscale>
<asrwt>0</asrwt>
<pdfrwt beam="1">0</pdfrwt>
<pdfrwt beam="2">0</pdfrwt>
<totfact> 0.17033107E+12</totfact>
</mgrwt>
</event>
<event>
 4    1  0.1838758E+006  0.2613575E+01  0.7546771E-02  0.2660482E+00
         22   -1    0    0    0    0  0.00000000000E+00  0.00000000000E+00  0.21081960993E+01  0.21081960993E+01  0.00000000000E+00 0.  1.
         22   -1    0    0    0    0 -0.00000000000E+00 -0.00000000000E+00 -0.64142936998E+01  0.64142936998E+01  0.00000000000E+00 0. -1.
          4    1    1    2  501    0 -0.20396577942E+01  0.10284317413E+01  0.84458429752E+00  0.27466522167E+01  0.12700000000E+01 0.  1.
         -4    1    1    2    0  501  0.20396577942E+01 -0.10284317413E+01 -0.51506818981E+01  0.57758375824E+01  0.12700000000E+01 0. -1.
<mgrwt>
<rscale>  0 0.26135753E+01</rscale>
<asrwt>0</asrwt>
<pdfrwt beam="1">0</pdfrwt>
<pdfrwt beam="2">0</pdfrwt>
<totfact> 0.11474634E+12</totfact>
</mgrwt>
</event>
<event>
 4    1  0.1838758E+006  0.3638510E+01  0.7546771E-02  0.2352223E+00
         22   -1    0    0    0    0  0.00000000000E+00  0.00000000000E+00  0.31840522962E+01  0.31840522962E+01  0.00000000000E+00 0.  1.
         22   -1    0    0    0    0 -0.00000000000E+00 -0.00000000000E+00 -0.52857352011E+01  0.52857352011E+01  0.00000000000E+00 0.  1.
          4    1    1    2  501    0  0.13727383791E+01  0.31211290026E+01  0.90541410175E+00  0.37494708432E+01  0.12700000000E+01 0.  1.
         -4    1    1    2    0  501 -0.13727383791E+01 -0.31211290026E+01 -0.30070970067E+01  0.47203166542E+01  0.12700000000E+01 0.  1.
<mgrwt>
<rscale>  0 0.36385103E+01</rscale>
<asrwt>0</asrwt>
<pdfrwt beam="1">0</pdfrwt>
<pdfrwt beam="2">0</pdfrwt>
<totfact> 0.89377780E+11</totfact>
</mgrwt>
</event>
<event>
 4    1  0.1838758E+006  0.3116840E+01  0.7546771E-02  0.2486499E+00
         22   -1    0    0    0    0  0.00000000000E+00  0.00000000000E+00  0.84431864932E+01  0.84431864932E+01  0.00000000000E+00 0. -1.
         22   -1    0    0    0    0 -0.00000000000E+00 -0.00000000000E+00 -0.36032202862E+01  0.36032202862E+01  0.00000000000E+00 0. -1.
          4    1    1    2  501    0 -0.15192840252E+01  0.24069834999E+01  0.73893111367E+01  0.80197638739E+01  0.12700000000E+01 0. -1.
         -4    1    1    2    0  501  0.15192840252E+01 -0.24069834999E+01 -0.25493449297E+01  0.40266429055E+01  0.12700000000E+01 0. -1.
<mgrwt>
<rscale>  0 0.31168403E+01</rscale>
<asrwt>0</asrwt>
<pdfrwt beam="1">0</pdfrwt>
<pdfrwt beam="2">0</pdfrwt>
<totfact> 0.44190942E+11</totfact>
</mgrwt>
</event>
<event>
 4    1  0.1838758E+006  0.2074294E+01  0.7546771E-02  0.2932320E+00
         22   -1    0    0    0    0  0.00000000000E+00  0.00000000000E+00  0.13277158595E+01  0.13277158595E+01  0.00000000000E+00 0. -1.
         22   -1    0    0    0    0 -0.00000000000E+00 -0.00000000000E+00 -0.36699412587E+01  0.36699412587E+01  0.00000000000E+00 0.  1.
          4    1    1    2  501    0  0.13904406524E+01 -0.86975259786E+00 -0.20257278493E+01  0.28993564991E+01  0.12700000000E+01 0.  1.
         -4    1    1    2    0  501 -0.13904406524E+01  0.86975259786E+00 -0.31649754991E+00  0.20983006192E+01  0.12700000000E+01 0. -1.
<mgrwt>
<rscale>  0 0.20742938E+01</rscale>
<asrwt>0</asrwt>
<pdfrwt beam="1">0</pdfrwt>
<pdfrwt beam="2">0</pdfrwt>
<totfact> 0.37859841E+12</totfact>
</mgrwt>
</event>
<event>
 4    1  0.1838758E+006  0.2019324E+01  0.7546771E-02  0.2967803E+00
         22   -1    0    0    0    0  0.00000000000E+00  0.00000000000E+00  0.13811929476E+02  0.13811929476E+02  0.00000000000E+00 0. -1.
         22   -1    0    0    0    0 -0.00000000000E+00 -0.00000000000E+00 -0.32532257564E+01  0.32532257564E+01  0.00000000000E+00 0.  1.
          4    1    1    2  501    0 -0.40204100700E+00 -0.15176068263E+01  0.13415560394E+02  0.13566684493E+02  0.12700000000E+01 0. -1.
         -4    1    1    2    0  501  0.40204100700E+00  0.15176068263E+01 -0.28568566748E+01  0.34984707389E+01  0.12700000000E+01 0.  1.
<mgrwt>
<rscale>  0 0.20193235E+01</rscale>
<asrwt>0</asrwt>
<pdfrwt beam="1">0</pdfrwt>
<pdfrwt beam="2">0</pdfrwt>
<totfact> 0.27395181E+11</totfact>
</mgrwt>
</event>
<event>
 4    1  0.1838758E+006  0.3186718E+01  0.7546771E-02  0.2466277E+00
         22   -1    0    0    0    0  0.00000000000E+00  0.00000000000E+00  0.38926483075E+01  0.38926483075E+01  0.00000000000E+00 0.  1.
         22   -1    0    0    0    0 -0.00000000000E+00 -0.00000000000E+00 -0.26436309261E+01  0.26436309261E+01  0.00000000000E+00 0.  1.
          4    1    1    2  501    0  0.94944019373E+00  0.27642065391E+01  0.99959303126E+00  0.33398144710E+01  0.12700000000E+01 0.  1.
         -4    1    1    2    0  501 -0.94944019373E+00 -0.27642065391E+01  0.24942435010E+00  0.31964647627E+01  0.12700000000E+01 0.  1.
<mgrwt>
<rscale>  0 0.31867184E+01</rscale>
<asrwt>0</asrwt>
<pdfrwt beam="1">0</pdfrwt>
<pdfrwt beam="2">0</pdfrwt>
<totfact> 0.15936791E+12</totfact>
</mgrwt>
</event>
<event>
 4    1  0.1838758E+006  0.2034123E+01  0.7546771E-02  0.2958066E+00
         22   -1    0    0    0    0  0.00000000000E+00  0.00000000000E+00  0.43093992818E+00  0.43093992818E+00  0.00000000000E+00 0. -1.
         22   -1    0    0    0    0 -0.00000000000E+00 -0.00000000000E+00 -0.12253909883E+02  0.12253909883E+02  0.00000000000E+00 0. -1.
          4    1    1    2  501    0  0.89612681776E+00  0.13121399706E+01 -0.29606753714E+01  0.35921098578E+01  0.12700000000E+01 0. -1.
         -4    1    1    2    0  501 -0.89612681776E+00 -0.13121399706E+01 -0.88622945835E+01  0.90927399534E+01  0.12700000000E+01 0. -1.
<mgrwt>
<rscale>  0 0.20341226E+01</rscale>
<asrwt>0</asrwt>
<pdfrwt beam="1">0</pdfrwt>
<pdfrwt beam="2">0</pdfrwt>
<totfact> 0.32194823E+12</totfact>
</mgrwt>
</event>
<event>
 4    1  0.1838758E+006  0.2623638E+01  0.7546771E-02  0.2656410E+00
         22   -1    0    0    0    0  0.00000000000E+00  0.00000000000E+00  0.39786735151E+01  0.39786735151E+01  0.00000000000E+00 0. -1.
         22   -1    0    0    0    0 -0.00000000000E+00 -0.00000000000E+00 -0.20519322365E+01  0.20519322365E+01  0.00000000000E+00 0.  1.
          4    1    1    2  501    0  0.21156331487E+01 -0.89144342330E+00  0.21575483570E+01  0.33968352786E+01  0.12700000000E+01 0. -1.
         -4    1    1    2    0  501 -0.21156331487E+01  0.89144342330E+00 -0.23080707846E+00  0.26337704730E+01  0.12700000000E+01 0.  1.
<mgrwt>
<rscale>  0 0.26236377E+01</rscale>
<asrwt>0</asrwt>
<pdfrwt beam="1">0</pdfrwt>
<pdfrwt beam="2">0</pdfrwt>
<totfact> 0.20845855E+12</totfact>
</mgrwt>
</event>
<event>
 4    1  0.1838758E+006  0.2231265E+01  0.7546771E-02  0.2840340E+00
         22   -1    0    0    0    0  0.00000000000E+00  0.00000000000E+00  0.61577181351E-01  0.61577181351E-01  0.00000000000E+00 0.  1.
         22   -1    0    0    0    0 -0.00000000000E+00 -0.00000000000E+00 -0.15305779681E+03  0.15305779681E+03  0.00000000000E+00 0. -1.
          4    1    1    2  501    0  0.41109235461E+00  0.17879171707E+01 -0.23912971466E+02  0.24016843029E+02  0.12700000000E+01 0.  1.
         -4    1    1    2    0  501 -0.41109235461E+00 -0.17879171707E+01 -0.12908324817E+03  0.12910253097E+03  0.12700000000E+01 0. -1.
<mgrwt>
<rscale>  0 0.22312653E+01</rscale>
<asrwt>0</asrwt>
<pdfrwt beam="1">0</pdfrwt>
<pdfrwt beam="2">0</pdfrwt>
<totfact> 0.10002781E+12</totfact>
</mgrwt>
</event>
<event>
 4    1  0.1838758E+006  0.2086747E+01  0.7546771E-02  0.2924535E+00
         22   -1    0    0    0    0  0.00000000000E+00  0.00000000000E+00  0.65638824186E+00  0.65638824186E+00  0.00000000000E+00 0. -1.
         22   -1    0    0    0    0 -0.00000000000E+00 -0.00000000000E+00 -0.67002256512E+01  0.67002256512E+01  0.00000000000E+00 0.  1.
          4    1    1    2  501    0  0.10024507245E+01 -0.13178416786E+01 -0.26563712862E+01  0.33779909051E+01  0.12700000000E+01 0. -1.
         -4    1    1    2    0  501 -0.10024507245E+01  0.13178416786E+01 -0.33874661232E+01  0.39786229880E+01  0.12700000000E+01 0.  1.
<mgrwt>
<rscale>  0 0.20867473E+01</rscale>
<asrwt>0</asrwt>
<pdfrwt beam="1">0</pdfrwt>
<pdfrwt beam="2">0</pdfrwt>
<totfact> 0.41463044E+12</totfact>
</mgrwt>
</event>
<event>
 4    1  0.1838758E+006  0.3736618E+01  0.7546771E-02  0.2330657E+00
         22   -1    0    0    0    0  0.00000000000E+00  0.00000000000E+00  0.23930901743E+00  0.23930901743E+00  0.00000000000E+00 0. -1.
         22   -1    0    0    0    0 -0.00000000000E+00 -0.00000000000E+00 -0.90762470806E+02  0.90762470806E+02  0.00000000000E+00 0.  1.
          4    1    1    2  501    0 -0.70239623191E-01 -0.35134711434E+01 -0.18068331767E+02  0.18450661937E+02  0.12700000000E+01 0. -1.
         -4    1    1    2    0  501  0.70239623191E-01  0.35134711434E+01 -0.72454830022E+02  0.72551117886E+02  0.12700000000E+01 0.  1.
<mgrwt>
<rscale>  0 0.37366179E+01</rscale>
<asrwt>0</asrwt>
<pdfrwt beam="1">0</pdfrwt>
<pdfrwt beam="2">0</pdfrwt>
<totfact> 0.47036458E+11</totfact>
</mgrwt>
</event>
<event>
 4    1  0.1838758E+006  0.2139891E+01  0.7546771E-02  0.2892299E+00
         22   -1    0    0    0    0  0.00000000000E+00  0.00000000000E+00  0.43186780955E+02  0.43186780955E+02  0.00000000000E+00 0.  1.
         22   -1    0    0    0    0 -0.00000000000E+00 -0.00000000000E+00 -0.12015996575E+00  0.12015996575E+00  0.00000000000E+00 0. -1.
          4    1    1    2  501    0 -0.14566469409E+01 -0.91891982345E+00  0.14108180046E+02  0.14269543727E+02  0.12700000000E+01 0. -1.
         -4    1    1    2    0  501  0.14566469409E+01  0.91891982345E+00  0.28958440943E+02  0.29037397194E+02  0.12700000000E+01 0.  1.
<mgrwt>
<rscale>  0 0.21398911E+01</rscale>
<asrwt>0</asrwt>
<pdfrwt beam="1">0</pdfrwt>
<pdfrwt beam="2">0</pdfrwt>
<totfact> 0.27504205E+12</totfact>
</mgrwt>
</event>
<event>
 4    1  0.1838758E+006  0.2595555E+01  0.7546771E-02  0.2667845E+00
         22   -1    0    0    0    0  0.00000000000E+00  0.00000000000E+00  0.27987797227E+01  0.27987797227E+01  0.00000000000E+00 0. -1.
         22   -1    0    0    0    0 -0.00000000000E+00 -0.00000000000E+00 -0.39588080742E+01  0.39588080742E+01  0.00000000000E+00 0. -1.
          4    1    1    2  501    0 -0.60843877091E+00  0.21803230831E+01  0.15353556095E+01  0.30156630004E+01  0.12700000000E+01 0. -1.
         -4    1    1    2    0  501  0.60843877091E+00 -0.21803230831E+01 -0.26953839611E+01  0.37419247964E+01  0.12700000000E+01 0. -1.
<mgrwt>
<rscale>  0 0.25955551E+01</rscale>
<asrwt>0</asrwt>
<pdfrwt beam="1">0</pdfrwt>
<pdfrwt beam="2">0</pdfrwt>
<totfact> 0.14619033E+12</totfact>
</mgrwt>
</event>
<event>
 4    1  0.1838758E+006  0.2787608E+01  0.7546771E-02  0.2593881E+00
         22   -1    0    0    0    0  0.00000000000E+00  0.00000000000E+00  0.77406088441E+02  0.77406088441E+02  0.00000000000E+00 0.  1.
         22   -1    0    0    0    0 -0.00000000000E+00 -0.00000000000E+00 -0.10055213165E+00  0.10055213165E+00  0.00000000000E+00 0. -1.
          4    1    1    2  501    0  0.71459281218E+00 -0.23763870513E+01  0.37094222803E+02  0.37198818848E+02  0.12700000000E+01 0. -1.
         -4    1    1    2    0  501 -0.71459281218E+00  0.23763870513E+01  0.40211313506E+02  0.40307821724E+02  0.12700000000E+01 0.  1.
<mgrwt>
<rscale>  0 0.27876080E+01</rscale>
<asrwt>0</asrwt>
<pdfrwt beam="1">0</pdfrwt>
<pdfrwt beam="2">0</pdfrwt>
<totfact> 0.15373639E+12</totfact>
</mgrwt>
</event>
<event>
 4    1  0.1838758E+006  0.2196612E+01  0.7546771E-02  0.2859557E+00
         22   -1    0    0    0    0  0.00000000000E+00  0.00000000000E+00  0.47749866173E+02  0.47749866173E+02  0.00000000000E+00 0. -1.
         22   -1    0    0    0    0 -0.00000000000E+00 -0.00000000000E+00 -0.12074230308E+00  0.12074230308E+00  0.00000000000E+00 0. -1.
          4    1    1    2  501    0  0.63346677387E+00 -0.16765806837E+01  0.33480907960E+02  0.33552888114E+02  0.12700000000E+01 0. -1.
         -4    1    1    2    0  501 -0.63346677387E+00  0.16765806837E+01  0.14148215909E+02  0.14317720362E+02  0.12700000000E+01 0. -1.
<mgrwt>
<rscale>  0 0.21966117E+01</rscale>
<asrwt>0</asrwt>
<pdfrwt beam="1">0</pdfrwt>
<pdfrwt beam="2">0</pdfrwt>
<totfact> 0.23985851E+12</totfact>
</mgrwt>
</event>
<event>
 4    1  0.1838758E+006  0.2028856E+01  0.7546771E-02  0.2961515E+00
         22   -1    0    0    0    0  0.00000000000E+00  0.00000000000E+00  0.16852873987E+01  0.16852873987E+01  0.00000000000E+00 0. -1.
         22   -1    0    0    0    0 -0.00000000000E+00 -0.00000000000E+00 -0.24718348763E+01  0.24718348763E+01  0.00000000000E+00 0.  1.
          4    1    1    2  501    0 -0.10374982969E+01 -0.11945526124E+01 -0.16671010052E+00  0.20356942102E+01  0.12700000000E+01 0.  1.
         -4    1    1    2    0  501  0.10374982969E+01  0.11945526124E+01 -0.61983737708E+00  0.21214280647E+01  0.12700000000E+01 0.  1.
<mgrwt>
<rscale>  0 0.20288565E+01</rscale>
<asrwt>0</asrwt>
<pdfrwt beam="1">0</pdfrwt>
<pdfrwt beam="2">0</pdfrwt>
<totfact> 0.45661101E+12</totfact>
</mgrwt>
</event>
<event>
 4    1  0.1838758E+006  0.2022942E+01  0.7546771E-02  0.2965409E+00
         22   -1    0    0    0    0  0.00000000000E+00  0.00000000000E+00  0.65311424574E+00  0.65311424574E+00  0.00000000000E+00 0.  1.
         22   -1    0    0    0    0 -0.00000000000E+00 -0.00000000000E+00 -0.10362778947E+02  0.10362778947E+02  0.00000000000E+00 0.  1.
          4    1    1    2  501    0 -0.65167005329E+00 -0.14334293455E+01 -0.13915919947E+01  0.24553659251E+01  0.12700000000E+01 0.  1.
         -4    1    1    2    0  501  0.65167005329E+00  0.14334293455E+01 -0.83180727061E+01  0.85605272671E+01  0.12700000000E+01 0.  1.
<mgrwt>
<rscale>  0 0.20229418E+01</rscale>
<asrwt>0</asrwt>
<pdfrwt beam="1">0</pdfrwt>
<pdfrwt beam="2">0</pdfrwt>
<totfact> 0.24673944E+12</totfact>
</mgrwt>
</event>
<event>
 4    1  0.1838758E+006  0.3025028E+01  0.7546771E-02  0.2514330E+00
         22   -1    0    0    0    0  0.00000000000E+00  0.00000000000E+00  0.86820454274E+01  0.86820454274E+01  0.00000000000E+00 0.  1.
         22   -1    0    0    0    0 -0.00000000000E+00 -0.00000000000E+00 -0.21752704591E+01  0.21752704591E+01  0.00000000000E+00 0.  1.
          4    1    1    2  501    0  0.19944930773E+01  0.18867679896E+01  0.71509475514E+01  0.77644605070E+01  0.12700000000E+01 0.  1.
         -4    1    1    2    0  501 -0.19944930773E+01 -0.18867679896E+01 -0.64417258313E+00  0.30928553795E+01  0.12700000000E+01 0.  1.
<mgrwt>
<rscale>  0 0.30250283E+01</rscale>
<asrwt>0</asrwt>
<pdfrwt beam="1">0</pdfrwt>
<pdfrwt beam="2">0</pdfrwt>
<totfact> 0.76980624E+11</totfact>
</mgrwt>
</event>
<event>
 4    1  0.1838758E+006  0.4686594E+01  0.7546771E-02  0.2162570E+00
         22   -1    0    0    0    0  0.00000000000E+00  0.00000000000E+00  0.31818286410E+00  0.31818286410E+00  0.00000000000E+00 0. -1.
         22   -1    0    0    0    0 -0.00000000000E+00 -0.00000000000E+00 -0.99821187866E+02  0.99821187866E+02  0.00000000000E+00 0.  1.
          4    1    1    2  501    0  0.43793333559E+01 -0.10829126948E+01 -0.21943053051E+02  0.22437953065E+02  0.12700000000E+01 0. -1.
         -4    1    1    2    0  501 -0.43793333559E+01  0.10829126948E+01 -0.77559951951E+02  0.77701417665E+02  0.12700000000E+01 0.  1.
<mgrwt>
<rscale>  0 0.46865937E+01</rscale>
<asrwt>0</asrwt>
<pdfrwt beam="1">0</pdfrwt>
<pdfrwt beam="2">0</pdfrwt>
<totfact> 0.29924474E+11</totfact>
</mgrwt>
</event>
<event>
 4    1  0.1838758E+006  0.3222753E+01  0.7546771E-02  0.2456153E+00
         22   -1    0    0    0    0  0.00000000000E+00  0.00000000000E+00  0.12955392796E+02  0.12955392796E+02  0.00000000000E+00 0.  1.
         22   -1    0    0    0    0 -0.00000000000E+00 -0.00000000000E+00 -0.35396409935E+01  0.35396409935E+01  0.00000000000E+00 0.  1.
          4    1    1    2  501    0  0.62182378650E+00  0.28959581249E+01  0.11961530522E+02  0.12388072922E+02  0.12700000000E+01 0.  1.
         -4    1    1    2    0  501 -0.62182378650E+00 -0.28959581249E+01 -0.25457787195E+01  0.41069608680E+01  0.12700000000E+01 0.  1.
<mgrwt>
<rscale>  0 0.32227532E+01</rscale>
<asrwt>0</asrwt>
<pdfrwt beam="1">0</pdfrwt>
<pdfrwt beam="2">0</pdfrwt>
<totfact> 0.26843827E+11</totfact>
</mgrwt>
</event>
<event>
 4    1  0.1838758E+006  0.2137146E+01  0.7546771E-02  0.2893926E+00
         22   -1    0    0    0    0  0.00000000000E+00  0.00000000000E+00  0.21205741856E+01  0.21205741856E+01  0.00000000000E+00 0.  1.
         22   -1    0    0    0    0 -0.00000000000E+00 -0.00000000000E+00 -0.60332964873E+01  0.60332964873E+01  0.00000000000E+00 0. -1.
          4    1    1    2  501    0  0.94946416387E+00  0.14328337982E+01  0.13128387186E+01  0.25081747133E+01  0.12700000000E+01 0.  1.
         -4    1    1    2    0  501 -0.94946416387E+00 -0.14328337982E+01 -0.52255610202E+01  0.56456959596E+01  0.12700000000E+01 0. -1.
<mgrwt>
<rscale>  0 0.21371464E+01</rscale>
<asrwt>0</asrwt>
<pdfrwt beam="1">0</pdfrwt>
<pdfrwt beam="2">0</pdfrwt>
<totfact> 0.12259069E+12</totfact>
</mgrwt>
</event>
<event>
 4    1  0.1838758E+006  0.2147337E+01  0.7546771E-02  0.2887906E+00
         22   -1    0    0    0    0  0.00000000000E+00  0.00000000000E+00  0.11321480808E+01  0.11321480808E+01  0.00000000000E+00 0. -1.
         22   -1    0    0    0    0 -0.00000000000E+00 -0.00000000000E+00 -0.17136380767E+02  0.17136380767E+02  0.00000000000E+00 0.  1.
          4    1    1    2  501    0  0.11392468367E+01 -0.13039446046E+01 -0.26862300644E-01  0.21475047078E+01  0.12700000000E+01 0. -1.
         -4    1    1    2    0  501 -0.11392468367E+01  0.13039446046E+01 -0.15977370386E+02  0.16121024140E+02  0.12700000000E+01 0.  1.
<mgrwt>
<rscale>  0 0.21473367E+01</rscale>
<asrwt>0</asrwt>
<pdfrwt beam="1">0</pdfrwt>
<pdfrwt beam="2">0</pdfrwt>
<totfact> 0.71217346E+11</totfact>
</mgrwt>
</event>
<event>
 4    1  0.1838758E+006  0.2198472E+01  0.7546771E-02  0.2858510E+00
         22   -1    0    0    0    0  0.00000000000E+00  0.00000000000E+00  0.25073059601E+02  0.25073059601E+02  0.00000000000E+00 0.  1.
         22   -1    0    0    0    0 -0.00000000000E+00 -0.00000000000E+00 -0.35161452011E+00  0.35161452011E+00  0.00000000000E+00 0. -1.
          4    1    1    2  501    0  0.66064063586E+00 -0.16685126216E+01  0.20905111738E+02  0.21020394316E+02  0.12700000000E+01 0.  1.
         -4    1    1    2    0  501 -0.66064063586E+00  0.16685126216E+01  0.38163333427E+01  0.44042798050E+01  0.12700000000E+01 0. -1.
<mgrwt>
<rscale>  0 0.21984723E+01</rscale>
<asrwt>0</asrwt>
<pdfrwt beam="1">0</pdfrwt>
<pdfrwt beam="2">0</pdfrwt>
<totfact> 0.16662010E+12</totfact>
</mgrwt>
</event>
<event>
 4    1  0.1838758E+006  0.2639283E+01  0.7546771E-02  0.2650137E+00
         22   -1    0    0    0    0  0.00000000000E+00  0.00000000000E+00  0.71822902886E+01  0.71822902886E+01  0.00000000000E+00 0. -1.
         22   -1    0    0    0    0 -0.00000000000E+00 -0.00000000000E+00 -0.21087946325E+01  0.21087946325E+01  0.00000000000E+00 0. -1.
          4    1    1    2  501    0  0.20004317709E+01  0.11624063191E+01  0.59507885634E+01  0.65098156846E+01  0.12700000000E+01 0. -1.
         -4    1    1    2    0  501 -0.20004317709E+01 -0.11624063191E+01 -0.87729290725E+00  0.27812692365E+01  0.12700000000E+01 0. -1.
<mgrwt>
<rscale>  0 0.26392832E+01</rscale>
<asrwt>0</asrwt>
<pdfrwt beam="1">0</pdfrwt>
<pdfrwt beam="2">0</pdfrwt>
<totfact> 0.10020897E+12</totfact>
</mgrwt>
</event>
<event>
 4    1  0.1838758E+006  0.2004968E+01  0.7546771E-02  0.2977382E+00
         22   -1    0    0    0    0  0.00000000000E+00  0.00000000000E+00  0.23678460903E+02  0.23678460903E+02  0.00000000000E+00 0.  1.
         22   -1    0    0    0    0 -0.00000000000E+00 -0.00000000000E+00 -0.23665438113E+00  0.23665438113E+00  0.00000000000E+00 0.  1.
          4    1    1    2  501    0  0.13798146131E+01 -0.70930223415E+00  0.18077823774E+02  0.18188667088E+02  0.12700000000E+01 0.  1.
         -4    1    1    2    0  501 -0.13798146131E+01  0.70930223415E+00  0.53639827476E+01  0.57264481961E+01  0.12700000000E+01 0.  1.
<mgrwt>
<rscale>  0 0.20049683E+01</rscale>
<asrwt>0</asrwt>
<pdfrwt beam="1">0</pdfrwt>
<pdfrwt beam="2">0</pdfrwt>
<totfact> 0.27906914E+12</totfact>
</mgrwt>
</event>
<event>
 4    1  0.1838758E+006  0.2120778E+01  0.7546771E-02  0.2903713E+00
         22   -1    0    0    0    0  0.00000000000E+00  0.00000000000E+00  0.27996528399E+01  0.27996528399E+01  0.00000000000E+00 0. -1.
         22   -1    0    0    0    0 -0.00000000000E+00 -0.00000000000E+00 -0.16117806065E+01  0.16117806065E+01  0.00000000000E+00 0.  1.
          4    1    1    2  501    0 -0.16585148772E+01 -0.36623290086E+00  0.71994954260E+00  0.22396485169E+01  0.12700000000E+01 0. -1.
         -4    1    1    2    0  501  0.16585148772E+01  0.36623290086E+00  0.46792269084E+00  0.21717849295E+01  0.12700000000E+01 0.  1.
<mgrwt>
<rscale>  0 0.21207777E+01</rscale>
<asrwt>0</asrwt>
<pdfrwt beam="1">0</pdfrwt>
<pdfrwt beam="2">0</pdfrwt>
<totfact> 0.41581530E+12</totfact>
</mgrwt>
</event>
<event>
 4    1  0.1838758E+006  0.2559700E+01  0.7546771E-02  0.2682781E+00
         22   -1    0    0    0    0  0.00000000000E+00  0.00000000000E+00  0.17971373505E+01  0.17971373505E+01  0.00000000000E+00 0.  1.
         22   -1    0    0    0    0 -0.00000000000E+00 -0.00000000000E+00 -0.55872078524E+01  0.55872078524E+01  0.00000000000E+00 0.  1.
          4    1    1    2  501    0  0.22202935600E+01 -0.97258699152E-01  0.28136754665E+00  0.25751175591E+01  0.12700000000E+01 0.  1.
         -4    1    1    2    0  501 -0.22202935600E+01  0.97258699152E-01 -0.40714380485E+01  0.48092276438E+01  0.12700000000E+01 0.  1.
<mgrwt>
<rscale>  0 0.25596997E+01</rscale>
<asrwt>0</asrwt>
<pdfrwt beam="1">0</pdfrwt>
<pdfrwt beam="2">0</pdfrwt>
<totfact> 0.16266783E+12</totfact>
</mgrwt>
</event>
<event>
 4    1  0.1838758E+006  0.2295106E+01  0.7546771E-02  0.2806388E+00
         22   -1    0    0    0    0  0.00000000000E+00  0.00000000000E+00  0.13388292743E+01  0.13388292743E+01  0.00000000000E+00 0.  1.
         22   -1    0    0    0    0 -0.00000000000E+00 -0.00000000000E+00 -0.40096926954E+01  0.40096926954E+01  0.00000000000E+00 0.  1.
          4    1    1    2  501    0  0.18183990427E+01  0.58994465584E+00 -0.96900945795E+00  0.24912826225E+01  0.12700000000E+01 0.  1.
         -4    1    1    2    0  501 -0.18183990427E+01 -0.58994465584E+00 -0.17018539631E+01  0.28572393472E+01  0.12700000000E+01 0.  1.
<mgrwt>
<rscale>  0 0.22951056E+01</rscale>
<asrwt>0</asrwt>
<pdfrwt beam="1">0</pdfrwt>
<pdfrwt beam="2">0</pdfrwt>
<totfact> 0.33794398E+12</totfact>
</mgrwt>
</event>
<event>
 4    1  0.1838758E+006  0.2123844E+01  0.7546771E-02  0.2901869E+00
         22   -1    0    0    0    0  0.00000000000E+00  0.00000000000E+00  0.11591804692E+02  0.11591804692E+02  0.00000000000E+00 0.  1.
         22   -1    0    0    0    0 -0.00000000000E+00 -0.00000000000E+00 -0.40384095514E+00  0.40384095514E+00  0.00000000000E+00 0.  1.
          4    1    1    2  501    0 -0.15545000805E+01  0.69378796055E+00  0.44492139449E+01  0.49301335643E+01  0.12700000000E+01 0.  1.
         -4    1    1    2    0  501  0.15545000805E+01 -0.69378796055E+00  0.67387497924E+01  0.70655120833E+01  0.12700000000E+01 0.  1.
<mgrwt>
<rscale>  0 0.21238437E+01</rscale>
<asrwt>0</asrwt>
<pdfrwt beam="1">0</pdfrwt>
<pdfrwt beam="2">0</pdfrwt>
<totfact> 0.37065853E+12</totfact>
</mgrwt>
</event>
<event>
 4    1  0.1838758E+006  0.5045866E+01  0.7546771E-02  0.2117568E+00
         22   -1    0    0    0    0  0.00000000000E+00  0.00000000000E+00  0.68119358917E+01  0.68119358917E+01  0.00000000000E+00 0. -1.
         22   -1    0    0    0    0 -0.00000000000E+00 -0.00000000000E+00 -0.40726382968E+01  0.40726382968E+01  0.00000000000E+00 0.  1.
          4    1    1    2  501    0  0.35248694579E+01 -0.33798168054E+01 -0.19114517495E+00  0.50494854007E+01  0.12700000000E+01 0.  1.
         -4    1    1    2    0  501 -0.35248694579E+01  0.33798168054E+01  0.29304427699E+01  0.58350887878E+01  0.12700000000E+01 0. -1.
<mgrwt>
<rscale>  0 0.50458663E+01</rscale>
<asrwt>0</asrwt>
<pdfrwt beam="1">0</pdfrwt>
<pdfrwt beam="2">0</pdfrwt>
<totfact> 0.49503978E+11</totfact>
</mgrwt>
</event>
<event>
 4    1  0.1838758E+006  0.2350689E+01  0.7546771E-02  0.2778255E+00
         22   -1    0    0    0    0  0.00000000000E+00  0.00000000000E+00  0.13380075366E+03  0.13380075366E+03  0.00000000000E+00 0. -1.
         22   -1    0    0    0    0 -0.00000000000E+00 -0.00000000000E+00 -0.81420289075E-01  0.81420289075E-01  0.00000000000E+00 0. -1.
          4    1    1    2  501    0 -0.63363957994E+00 -0.18738567756E+01  0.11385101252E+03  0.11387527735E+03  0.12700000000E+01 0. -1.
         -4    1    1    2    0  501  0.63363957994E+00  0.18738567756E+01  0.19868320850E+02  0.20006896604E+02  0.12700000000E+01 0. -1.
<mgrwt>
<rscale>  0 0.23506889E+01</rscale>
<asrwt>0</asrwt>
<pdfrwt beam="1">0</pdfrwt>
<pdfrwt beam="2">0</pdfrwt>
<totfact> 0.89631000E+11</totfact>
</mgrwt>
</event>
<event>
 4    1  0.1838758E+006  0.3311984E+01  0.7546771E-02  0.2431924E+00
         22   -1    0    0    0    0  0.00000000000E+00  0.00000000000E+00  0.11312282569E+02  0.11312282569E+02  0.00000000000E+00 0.  1.
         22   -1    0    0    0    0 -0.00000000000E+00 -0.00000000000E+00 -0.11489796146E+01  0.11489796146E+01  0.00000000000E+00 0. -1.
          4    1    1    2  501    0  0.28605030561E+01  0.10834477737E+01  0.75429919556E+01  0.82380801437E+01  0.12700000000E+01 0.  1.
         -4    1    1    2    0  501 -0.28605030561E+01 -0.10834477737E+01  0.26203109993E+01  0.42231820402E+01  0.12700000000E+01 0. -1.
<mgrwt>
<rscale>  0 0.33119838E+01</rscale>
<asrwt>0</asrwt>
<pdfrwt beam="1">0</pdfrwt>
<pdfrwt beam="2">0</pdfrwt>
<totfact> 0.11656767E+12</totfact>
</mgrwt>
</event>
<event>
 4    1  0.1838758E+006  0.2004159E+01  0.7546771E-02  0.2977927E+00
         22   -1    0    0    0    0  0.00000000000E+00  0.00000000000E+00  0.33017675468E+02  0.33017675468E+02  0.00000000000E+00 0.  1.
         22   -1    0    0    0    0 -0.00000000000E+00 -0.00000000000E+00 -0.13482756907E+00  0.13482756907E+00  0.00000000000E+00 0.  1.
          4    1    1    2  501    0 -0.10083591607E+01  0.11776940089E+01  0.11259523156E+02  0.11436499161E+02  0.12700000000E+01 0.  1.
         -4    1    1    2    0  501  0.10083591607E+01 -0.11776940089E+01  0.21623324744E+02  0.21716003876E+02  0.12700000000E+01 0.  1.
<mgrwt>
<rscale>  0 0.20041585E+01</rscale>
<asrwt>0</asrwt>
<pdfrwt beam="1">0</pdfrwt>
<pdfrwt beam="2">0</pdfrwt>
<totfact> 0.34247859E+12</totfact>
</mgrwt>
</event>
<event>
 4    1  0.1838758E+006  0.3553649E+01  0.7546771E-02  0.2371706E+00
         22   -1    0    0    0    0  0.00000000000E+00  0.00000000000E+00  0.98268448038E+00  0.98268448038E+00  0.00000000000E+00 0. -1.
         22   -1    0    0    0    0 -0.00000000000E+00 -0.00000000000E+00 -0.19049271534E+02  0.19049271534E+02  0.00000000000E+00 0.  1.
          4    1    1    2  501    0  0.24541286560E+01 -0.22344517583E+01 -0.33199350211E+01  0.48631667321E+01  0.12700000000E+01 0. -1.
         -4    1    1    2    0  501 -0.24541286560E+01  0.22344517583E+01 -0.14746652032E+02  0.15168789282E+02  0.12700000000E+01 0.  1.
<mgrwt>
<rscale>  0 0.35536491E+01</rscale>
<asrwt>0</asrwt>
<pdfrwt beam="1">0</pdfrwt>
<pdfrwt beam="2">0</pdfrwt>
<totfact> 0.73430364E+11</totfact>
</mgrwt>
</event>
<event>
 4    1  0.1838758E+006  0.3507623E+01  0.7546771E-02  0.2382615E+00
         22   -1    0    0    0    0  0.00000000000E+00  0.00000000000E+00  0.49983055282E+01  0.49983055282E+01  0.00000000000E+00 0. -1.
         22   -1    0    0    0    0 -0.00000000000E+00 -0.00000000000E+00 -0.26630818401E+01  0.26630818401E+01  0.00000000000E+00 0.  1.
          4    1    1    2  501    0  0.27823274361E+01  0.17173161164E+01  0.22214917908E+01  0.41519208063E+01  0.12700000000E+01 0.  1.
         -4    1    1    2    0  501 -0.27823274361E+01 -0.17173161164E+01  0.11373189729E+00  0.35094665620E+01  0.12700000000E+01 0. -1.
<mgrwt>
<rscale>  0 0.35076232E+01</rscale>
<asrwt>0</asrwt>
<pdfrwt beam="1">0</pdfrwt>
<pdfrwt beam="2">0</pdfrwt>
<totfact> 0.11764814E+12</totfact>
</mgrwt>
</event>
<event>
 4    1  0.1838758E+006  0.2410145E+01  0.7546771E-02  0.2749520E+00
         22   -1    0    0    0    0  0.00000000000E+00  0.00000000000E+00  0.98027352629E+01  0.98027352629E+01  0.00000000000E+00 0.  1.
         22   -1    0    0    0    0 -0.00000000000E+00 -0.00000000000E+00 -0.13356449651E+01  0.13356449651E+01  0.00000000000E+00 0. -1.
          4    1    1    2  501    0 -0.20483759074E+01 -0.73175726376E-02  0.83875129311E+01  0.87269221707E+01  0.12700000000E+01 0.  1.
         -4    1    1    2    0  501  0.20483759074E+01  0.73175726376E-02  0.79577366729E-01  0.24114580573E+01  0.12700000000E+01 0. -1.
<mgrwt>
<rscale>  0 0.24101447E+01</rscale>
<asrwt>0</asrwt>
<pdfrwt beam="1">0</pdfrwt>
<pdfrwt beam="2">0</pdfrwt>
<totfact> 0.11670210E+12</totfact>
</mgrwt>
</event>
<event>
 4    1  0.1838758E+006  0.2299754E+01  0.7546771E-02  0.2803986E+00
         22   -1    0    0    0    0  0.00000000000E+00  0.00000000000E+00  0.25711663383E+02  0.25711663383E+02  0.00000000000E+00 0. -1.
         22   -1    0    0    0    0 -0.00000000000E+00 -0.00000000000E+00 -0.55140994446E+00  0.55140994446E+00  0.00000000000E+00 0. -1.
          4    1    1    2  501    0  0.94923002645E+00  0.16658118829E+01  0.22977765700E+02  0.23092565544E+02  0.12700000000E+01 0. -1.
         -4    1    1    2    0  501 -0.94923002645E+00 -0.16658118829E+01  0.21824877390E+01  0.31705077832E+01  0.12700000000E+01 0. -1.
<mgrwt>
<rscale>  0 0.22997537E+01</rscale>
<asrwt>0</asrwt>
<pdfrwt beam="1">0</pdfrwt>
<pdfrwt beam="2">0</pdfrwt>
<totfact> 0.97204306E+11</totfact>
</mgrwt>
</event>
<event>
 4    1  0.1838758E+006  0.5047190E+01  0.7546771E-02  0.2117413E+00
         22   -1    0    0    0    0  0.00000000000E+00  0.00000000000E+00  0.35680702914E+01  0.35680702914E+01  0.00000000000E+00 0.  1.
         22   -1    0    0    0    0 -0.00000000000E+00 -0.00000000000E+00 -0.17362184655E+02  0.17362184655E+02  0.00000000000E+00 0.  1.
          4    1    1    2  501    0 -0.43874700412E+01 -0.21474023695E+01  0.11331261340E+01  0.51728237100E+01  0.12700000000E+01 0.  1.
         -4    1    1    2    0  501  0.43874700412E+01  0.21474023695E+01 -0.14927240498E+02  0.15757431237E+02  0.12700000000E+01 0.  1.
<mgrwt>
<rscale>  0 0.50471903E+01</rscale>
<asrwt>0</asrwt>
<pdfrwt beam="1">0</pdfrwt>
<pdfrwt beam="2">0</pdfrwt>
<totfact> 0.18547475E+11</totfact>
</mgrwt>
</event>
<event>
 4    1  0.1838758E+006  0.4551034E+01  0.7546771E-02  0.2182904E+00
         22   -1    0    0    0    0  0.00000000000E+00  0.00000000000E+00  0.33381121175E+01  0.33381121175E+01  0.00000000000E+00 0. -1.
         22   -1    0    0    0    0 -0.00000000000E+00 -0.00000000000E+00 -0.63141085373E+01  0.63141085373E+01  0.00000000000E+00 0.  1.
          4    1    1    2  501    0  0.43351291748E+01 -0.55287219134E+00 -0.85265350149E+00  0.46302192837E+01  0.12700000000E+01 0.  1.
         -4    1    1    2    0  501 -0.43351291748E+01  0.55287219134E+00 -0.21233429183E+01  0.50220013710E+01  0.12700000000E+01 0. -1.
<mgrwt>
<rscale>  0 0.45510342E+01</rscale>
<asrwt>0</asrwt>
<pdfrwt beam="1">0</pdfrwt>
<pdfrwt beam="2">0</pdfrwt>
<totfact> 0.68455347E+11</totfact>
</mgrwt>
</event>
<event>
 4    1  0.1838758E+006  0.2477475E+01  0.7546771E-02  0.2718545E+00
         22   -1    0    0    0    0  0.00000000000E+00  0.00000000000E+00  0.19567315701E+01  0.19567315701E+01  0.00000000000E+00 0. -1.
         22   -1    0    0    0    0 -0.00000000000E+00 -0.00000000000E+00 -0.31764810252E+01  0.31764810252E+01  0.00000000000E+00 0. -1.
          4    1    1    2  501    0 -0.13479653774E+01 -0.16455920020E+01 -0.32302470222E+00  0.24984452473E+01  0.12700000000E+01 0. -1.
         -4    1    1    2    0  501  0.13479653774E+01  0.16455920020E+01 -0.89672475283E+00  0.26347673480E+01  0.12700000000E+01 0. -1.
<mgrwt>
<rscale>  0 0.24774753E+01</rscale>
<asrwt>0</asrwt>
<pdfrwt beam="1">0</pdfrwt>
<pdfrwt beam="2">0</pdfrwt>
<totfact> 0.28682836E+12</totfact>
</mgrwt>
</event>
<event>
 4    1  0.1838758E+006  0.2140043E+01  0.7546771E-02  0.2892209E+00
         22   -1    0    0    0    0  0.00000000000E+00  0.00000000000E+00  0.28587293427E+01  0.28587293427E+01  0.00000000000E+00 0.  1.
         22   -1    0    0    0    0 -0.00000000000E+00 -0.00000000000E+00 -0.16187023878E+01  0.16187023878E+01  0.00000000000E+00 0.  1.
          4    1    1    2  501    0 -0.13656047494E+01 -0.10497660112E+01  0.84718126501E+00  0.23016300975E+01  0.12700000000E+01 0.  1.
         -4    1    1    2    0  501  0.13656047494E+01  0.10497660112E+01  0.39284568991E+00  0.21758016329E+01  0.12700000000E+01 0.  1.
<mgrwt>
<rscale>  0 0.21400432E+01</rscale>
<asrwt>0</asrwt>
<pdfrwt beam="1">0</pdfrwt>
<pdfrwt beam="2">0</pdfrwt>
<totfact> 0.40381145E+12</totfact>
</mgrwt>
</event>
<event>
 4    1  0.1838758E+006  0.2070568E+01  0.7546771E-02  0.2934667E+00
         22   -1    0    0    0    0  0.00000000000E+00  0.00000000000E+00  0.13106190658E+00  0.13106190658E+00  0.00000000000E+00 0. -1.
         22   -1    0    0    0    0 -0.00000000000E+00 -0.00000000000E+00 -0.32963335693E+02  0.32963335693E+02  0.00000000000E+00 0.  1.
          4    1    1    2  501    0 -0.26025202761E+00 -0.16145038779E+01 -0.14970295768E+02  0.15112809444E+02  0.12700000000E+01 0. -1.
         -4    1    1    2    0  501  0.26025202761E+00  0.16145038779E+01 -0.17861978018E+02  0.17981588156E+02  0.12700000000E+01 0.  1.
<mgrwt>
<rscale>  0 0.20705685E+01</rscale>
<asrwt>0</asrwt>
<pdfrwt beam="1">0</pdfrwt>
<pdfrwt beam="2">0</pdfrwt>
<totfact> 0.35417791E+12</totfact>
</mgrwt>
</event>
<event>
 4    1  0.1838758E+006  0.2007264E+01  0.7546771E-02  0.2975841E+00
         22   -1    0    0    0    0  0.00000000000E+00  0.00000000000E+00  0.19882625905E+01  0.19882625905E+01  0.00000000000E+00 0. -1.
         22   -1    0    0    0    0 -0.00000000000E+00 -0.00000000000E+00 -0.26774079120E+01  0.26774079120E+01  0.00000000000E+00 0. -1.
          4    1    1    2  501    0  0.10825928832E+01 -0.11154383343E+01  0.80570859070E+00  0.21629323525E+01  0.12700000000E+01 0. -1.
         -4    1    1    2    0  501 -0.10825928832E+01  0.11154383343E+01 -0.14948539122E+01  0.25027381499E+01  0.12700000000E+01 0. -1.
<mgrwt>
<rscale>  0 0.20072643E+01</rscale>
<asrwt>0</asrwt>
<pdfrwt beam="1">0</pdfrwt>
<pdfrwt beam="2">0</pdfrwt>
<totfact> 0.34372314E+12</totfact>
</mgrwt>
</event>
<event>
 4    1  0.1838758E+006  0.2410667E+01  0.7546771E-02  0.2749274E+00
         22   -1    0    0    0    0  0.00000000000E+00  0.00000000000E+00  0.17786705395E+00  0.17786705395E+00  0.00000000000E+00 0. -1.
         22   -1    0    0    0    0 -0.00000000000E+00 -0.00000000000E+00 -0.34926352090E+02  0.34926352090E+02  0.00000000000E+00 0. -1.
          4    1    1    2  501    0 -0.15636405372E+01  0.13241757411E+01 -0.12915200971E+02  0.13138254422E+02  0.12700000000E+01 0. -1.
         -4    1    1    2    0  501  0.15636405372E+01 -0.13241757411E+01 -0.21833284065E+02  0.21965964723E+02  0.12700000000E+01 0. -1.
<mgrwt>
<rscale>  0 0.24106665E+01</rscale>
<asrwt>0</asrwt>
<pdfrwt beam="1">0</pdfrwt>
<pdfrwt beam="2">0</pdfrwt>
<totfact> 0.23416169E+12</totfact>
</mgrwt>
</event>
<event>
 4    1  0.1838758E+006  0.2204831E+01  0.7546771E-02  0.2854946E+00
         22   -1    0    0    0    0  0.00000000000E+00  0.00000000000E+00  0.13827531252E+02  0.13827531252E+02  0.00000000000E+00 0. -1.
         22   -1    0    0    0    0 -0.00000000000E+00 -0.00000000000E+00 -0.52897954231E+00  0.52897954231E+00  0.00000000000E+00 0.  1.
          4    1    1    2  501    0  0.14849655598E+00 -0.17961988749E+01  0.10806405606E+02  0.11029038206E+02  0.12700000000E+01 0.  1.
         -4    1    1    2    0  501 -0.14849655598E+00  0.17961988749E+01  0.24921461042E+01  0.33274725889E+01  0.12700000000E+01 0. -1.
<mgrwt>
<rscale>  0 0.22048314E+01</rscale>
<asrwt>0</asrwt>
<pdfrwt beam="1">0</pdfrwt>
<pdfrwt beam="2">0</pdfrwt>
<totfact> 0.22037313E+12</totfact>
</mgrwt>
</event>
<event>
 4    1  0.1838758E+006  0.2524373E+01  0.7546771E-02  0.2697881E+00
         22   -1    0    0    0    0  0.00000000000E+00  0.00000000000E+00  0.11619710636E+01  0.11619710636E+01  0.00000000000E+00 0.  1.
         22   -1    0    0    0    0 -0.00000000000E+00 -0.00000000000E+00 -0.78444756532E+01  0.78444756532E+01  0.00000000000E+00 0.  1.
          4    1    1    2  501    0 -0.21594269016E+01  0.31053872174E+00 -0.87109446994E+00  0.26704427379E+01  0.12700000000E+01 0.  1.
         -4    1    1    2    0  501  0.21594269016E+01 -0.31053872174E+00 -0.58114101197E+01  0.63360039788E+01  0.12700000000E+01 0.  1.
<mgrwt>
<rscale>  0 0.25243730E+01</rscale>
<asrwt>0</asrwt>
<pdfrwt beam="1">0</pdfrwt>
<pdfrwt beam="2">0</pdfrwt>
<totfact> 0.17909848E+12</totfact>
</mgrwt>
</event>
<event>
 4    1  0.1838758E+006  0.2253494E+01  0.7546771E-02  0.2828309E+00
         22   -1    0    0    0    0  0.00000000000E+00  0.00000000000E+00  0.23635339656E+00  0.23635339656E+00  0.00000000000E+00 0.  1.
         22   -1    0    0    0    0 -0.00000000000E+00 -0.00000000000E+00 -0.22196120135E+02  0.22196120135E+02  0.00000000000E+00 0. -1.
          4    1    1    2  501    0  0.57109030020E+00  0.17717766305E+01 -0.89733680216E+01  0.92520035782E+01  0.12700000000E+01 0.  1.
         -4    1    1    2    0  501 -0.57109030020E+00 -0.17717766305E+01 -0.12986398717E+02  0.13180469954E+02  0.12700000000E+01 0. -1.
<mgrwt>
<rscale>  0 0.22534943E+01</rscale>
<asrwt>0</asrwt>
<pdfrwt beam="1">0</pdfrwt>
<pdfrwt beam="2">0</pdfrwt>
<totfact> 0.30311984E+12</totfact>
</mgrwt>
</event>
<event>
 4    1  0.1838758E+006  0.2058498E+01  0.7546771E-02  0.2942327E+00
         22   -1    0    0    0    0  0.00000000000E+00  0.00000000000E+00  0.87927395852E-01  0.87927395852E-01  0.00000000000E+00 0. -1.
         22   -1    0    0    0    0 -0.00000000000E+00 -0.00000000000E+00 -0.64058466147E+02  0.64058466147E+02  0.00000000000E+00 0.  1.
          4    1    1    2  501    0  0.38166994887E+00 -0.15744334682E+01 -0.16023109656E+02  0.16154796679E+02  0.12700000000E+01 0. -1.
         -4    1    1    2    0  501 -0.38166994887E+00  0.15744334682E+01 -0.47947429095E+02  0.47991596864E+02  0.12700000000E+01 0.  1.
<mgrwt>
<rscale>  0 0.20584977E+01</rscale>
<asrwt>0</asrwt>
<pdfrwt beam="1">0</pdfrwt>
<pdfrwt beam="2">0</pdfrwt>
<totfact> 0.23055813E+12</totfact>
</mgrwt>
</event>
<event>
 4    1  0.1838758E+006  0.3560730E+01  0.7546771E-02  0.2370050E+00
         22   -1    0    0    0    0  0.00000000000E+00  0.00000000000E+00  0.45192338646E+02  0.45192338646E+02  0.00000000000E+00 0.  1.
         22   -1    0    0    0    0 -0.00000000000E+00 -0.00000000000E+00 -0.62930970816E+00  0.62930970816E+00  0.00000000000E+00 0. -1.
          4    1    1    2  501    0  0.32969467310E+01  0.44276095617E+00  0.39337251315E+02  0.39498077624E+02  0.12700000000E+01 0.  1.
         -4    1    1    2    0  501 -0.32969467310E+01 -0.44276095617E+00  0.52257776236E+01  0.63235707304E+01  0.12700000000E+01 0. -1.
<mgrwt>
<rscale>  0 0.35607296E+01</rscale>
<asrwt>0</asrwt>
<pdfrwt beam="1">0</pdfrwt>
<pdfrwt beam="2">0</pdfrwt>
<totfact> 0.40552405E+11</totfact>
</mgrwt>
</event>
<event>
 4    1  0.1838758E+006  0.3514693E+01  0.7546771E-02  0.2380923E+00
         22   -1    0    0    0    0  0.00000000000E+00  0.00000000000E+00  0.69443266151E+02  0.69443266151E+02  0.00000000000E+00 0.  1.
         22   -1    0    0    0    0 -0.00000000000E+00 -0.00000000000E+00 -0.39940675053E+00  0.39940675053E+00  0.00000000000E+00 0. -1.
          4    1    1    2  501    0  0.30963056215E+01 -0.10738058191E+01  0.60528866166E+02  0.60630823075E+02  0.12700000000E+01 0.  1.
         -4    1    1    2    0  501 -0.30963056215E+01  0.10738058191E+01  0.85149932342E+01  0.92118498261E+01  0.12700000000E+01 0. -1.
<mgrwt>
<rscale>  0 0.35146931E+01</rscale>
<asrwt>0</asrwt>
<pdfrwt beam="1">0</pdfrwt>
<pdfrwt beam="2">0</pdfrwt>
<totfact> 0.38249052E+11</totfact>
</mgrwt>
</event>
<event>
 4    1  0.1838758E+006  0.2173001E+01  0.7546771E-02  0.2872986E+00
         22   -1    0    0    0    0  0.00000000000E+00  0.00000000000E+00  0.75384505175E+00  0.75384505175E+00  0.00000000000E+00 0. -1.
         22   -1    0    0    0    0 -0.00000000000E+00 -0.00000000000E+00 -0.11398700855E+03  0.11398700855E+03  0.00000000000E+00 0. -1.
          4    1    1    2  501    0 -0.51359812339E+00 -0.16867869611E+01 -0.84473228498E+00  0.23314171479E+01  0.12700000000E+01 0. -1.
         -4    1    1    2    0  501  0.51359812339E+00  0.16867869611E+01 -0.11238843121E+03  0.11240943645E+03  0.12700000000E+01 0. -1.
<mgrwt>
<rscale>  0 0.21730010E+01</rscale>
<asrwt>0</asrwt>
<pdfrwt beam="1">0</pdfrwt>
<pdfrwt beam="2">0</pdfrwt>
<totfact> 0.93599532E+10</totfact>
</mgrwt>
</event>
<event>
 4    1  0.1838758E+006  0.2671318E+01  0.7546771E-02  0.2637503E+00
         22   -1    0    0    0    0  0.00000000000E+00  0.00000000000E+00  0.25346300432E+01  0.25346300432E+01  0.00000000000E+00 0. -1.
         22   -1    0    0    0    0 -0.00000000000E+00 -0.00000000000E+00 -0.32864186438E+01  0.32864186438E+01  0.00000000000E+00 0.  1.
          4    1    1    2  501    0 -0.23024680402E+01  0.47083031150E+00  0.72599823104E+00  0.27682148923E+01  0.12700000000E+01 0.  1.
         -4    1    1    2    0  501  0.23024680402E+01 -0.47083031150E+00 -0.14777868317E+01  0.30528337947E+01  0.12700000000E+01 0. -1.
<mgrwt>
<rscale>  0 0.26713181E+01</rscale>
<asrwt>0</asrwt>
<pdfrwt beam="1">0</pdfrwt>
<pdfrwt beam="2">0</pdfrwt>
<totfact> 0.20414952E+12</totfact>
</mgrwt>
</event>
<event>
 4    1  0.1838758E+006  0.4203864E+01  0.7546771E-02  0.2239940E+00
         22   -1    0    0    0    0  0.00000000000E+00  0.00000000000E+00  0.30997895808E+02  0.30997895808E+02  0.00000000000E+00 0.  1.
         22   -1    0    0    0    0 -0.00000000000E+00 -0.00000000000E+00 -0.57028599970E+00  0.57028599970E+00  0.00000000000E+00 0. -1.
          4    1    1    2  501    0  0.33271969959E+01  0.22336821848E+01  0.15484258503E+02  0.16044772897E+02  0.12700000000E+01 0. -1.
         -4    1    1    2    0  501 -0.33271969959E+01 -0.22336821848E+01  0.14943351306E+02  0.15523408910E+02  0.12700000000E+01 0.  1.
<mgrwt>
<rscale>  0 0.42038644E+01</rscale>
<asrwt>0</asrwt>
<pdfrwt beam="1">0</pdfrwt>
<pdfrwt beam="2">0</pdfrwt>
<totfact> 0.73799078E+11</totfact>
</mgrwt>
</event>
<event>
 4    1  0.1838758E+006  0.2460981E+01  0.7546771E-02  0.2725986E+00
         22   -1    0    0    0    0  0.00000000000E+00  0.00000000000E+00  0.52200191310E+01  0.52200191310E+01  0.00000000000E+00 0.  1.
         22   -1    0    0    0    0 -0.00000000000E+00 -0.00000000000E+00 -0.12032585492E+01  0.12032585492E+01  0.00000000000E+00 0. -1.
          4    1    1    2  501    0  0.55604846489E+00 -0.20333067818E+01  0.14010539387E+01  0.28318507205E+01  0.12700000000E+01 0.  1.
         -4    1    1    2    0  501 -0.55604846489E+00  0.20333067818E+01  0.26157066431E+01  0.35914269597E+01  0.12700000000E+01 0. -1.
<mgrwt>
<rscale>  0 0.24609808E+01</rscale>
<asrwt>0</asrwt>
<pdfrwt beam="1">0</pdfrwt>
<pdfrwt beam="2">0</pdfrwt>
<totfact> 0.27972194E+12</totfact>
</mgrwt>
</event>
<event>
 4    1  0.1838758E+006  0.2644417E+01  0.7546771E-02  0.2648093E+00
         22   -1    0    0    0    0  0.00000000000E+00  0.00000000000E+00  0.58807307028E+01  0.58807307028E+01  0.00000000000E+00 0.  1.
         22   -1    0    0    0    0 -0.00000000000E+00 -0.00000000000E+00 -0.57333919059E+01  0.57333919059E+01  0.00000000000E+00 0. -1.
          4    1    1    2  501    0  0.17878790713E+01  0.14776777559E+01  0.52435719363E+01  0.58726475950E+01  0.12700000000E+01 0.  1.
         -4    1    1    2    0  501 -0.17878790713E+01 -0.14776777559E+01 -0.50962331394E+01  0.57414750138E+01  0.12700000000E+01 0. -1.
<mgrwt>
<rscale>  0 0.26444174E+01</rscale>
<asrwt>0</asrwt>
<pdfrwt beam="1">0</pdfrwt>
<pdfrwt beam="2">0</pdfrwt>
<totfact> 0.39359113E+11</totfact>
</mgrwt>
</event>
<event>
 4    1  0.1838758E+006  0.2806768E+01  0.7546771E-02  0.2587011E+00
         22   -1    0    0    0    0  0.00000000000E+00  0.00000000000E+00  0.26958719375E+00  0.26958719375E+00  0.00000000000E+00 0. -1.
         22   -1    0    0    0    0 -0.00000000000E+00 -0.00000000000E+00 -0.37361629169E+02  0.37361629169E+02  0.00000000000E+00 0.  1.
          4    1    1    2  501    0 -0.18713015541E+01  0.16623102126E+01 -0.97638687596E+01  0.10159285305E+02  0.12700000000E+01 0.  1.
         -4    1    1    2    0  501  0.18713015541E+01 -0.16623102126E+01 -0.27328173215E+02  0.27471931058E+02  0.12700000000E+01 0.  1.
<mgrwt>
<rscale>  0 0.28067677E+01</rscale>
<asrwt>0</asrwt>
<pdfrwt beam="1">0</pdfrwt>
<pdfrwt beam="2">0</pdfrwt>
<totfact> 0.13492561E+12</totfact>
</mgrwt>
</event>
<event>
 4    1  0.1838758E+006  0.3273592E+01  0.7546771E-02  0.2442206E+00
         22   -1    0    0    0    0  0.00000000000E+00  0.00000000000E+00  0.17038827865E+02  0.17038827865E+02  0.00000000000E+00 0.  1.
         22   -1    0    0    0    0 -0.00000000000E+00 -0.00000000000E+00 -0.63185042020E+00  0.63185042020E+00  0.00000000000E+00 0.  1.
          4    1    1    2  501    0 -0.29122435108E+01  0.78888505664E+00  0.88031242524E+01  0.93920923389E+01  0.12700000000E+01 0.  1.
         -4    1    1    2    0  501  0.29122435108E+01 -0.78888505664E+00  0.76038531926E+01  0.82785859465E+01  0.12700000000E+01 0.  1.
<mgrwt>
<rscale>  0 0.32735916E+01</rscale>
<asrwt>0</asrwt>
<pdfrwt beam="1">0</pdfrwt>
<pdfrwt beam="2">0</pdfrwt>
<totfact> 0.13935454E+12</totfact>
</mgrwt>
</event>
<event>
 4    1  0.1838758E+006  0.3593600E+01  0.7546771E-02  0.2362434E+00
         22   -1    0    0    0    0  0.00000000000E+00  0.00000000000E+00  0.80924858602E-01  0.80924858602E-01  0.00000000000E+00 0. -1.
         22   -1    0    0    0    0 -0.00000000000E+00 -0.00000000000E+00 -0.16112767805E+03  0.16112767805E+03  0.00000000000E+00 0.  1.
          4    1    1    2  501    0 -0.16164246976E+01 -0.29475813140E+01 -0.72622851043E+02  0.72711707847E+02  0.12700000000E+01 0. -1.
         -4    1    1    2    0  501  0.16164246976E+01  0.29475813140E+01 -0.88423902152E+02  0.88496895065E+02  0.12700000000E+01 0.  1.
<mgrwt>
<rscale>  0 0.35936005E+01</rscale>
<asrwt>0</asrwt>
<pdfrwt beam="1">0</pdfrwt>
<pdfrwt beam="2">0</pdfrwt>
<totfact> 0.68530341E+11</totfact>
</mgrwt>
</event>
<event>
 4    1  0.1838758E+006  0.9004416E+01  0.7546771E-02  0.1823243E+00
         22   -1    0    0    0    0  0.00000000000E+00  0.00000000000E+00  0.82135285836E+01  0.82135285836E+01  0.00000000000E+00 0. -1.
         22   -1    0    0    0    0 -0.00000000000E+00 -0.00000000000E+00 -0.15583340412E+02  0.15583340412E+02  0.00000000000E+00 0. -1.
          4    1    1    2  501    0 -0.26624048647E+01  0.85075380212E+01  0.35186871706E+01  0.96675054823E+01  0.12700000000E+01 0. -1.
         -4    1    1    2    0  501  0.26624048647E+01 -0.85075380212E+01 -0.10888498999E+02  0.14129363514E+02  0.12700000000E+01 0. -1.
<mgrwt>
<rscale>  0 0.90044157E+01</rscale>
<asrwt>0</asrwt>
<pdfrwt beam="1">0</pdfrwt>
<pdfrwt beam="2">0</pdfrwt>
<totfact> 0.78784827E+10</totfact>
</mgrwt>
</event>
<event>
 4    1  0.1838758E+006  0.6190568E+01  0.7546771E-02  0.2003008E+00
         22   -1    0    0    0    0  0.00000000000E+00  0.00000000000E+00  0.20058801062E+01  0.20058801062E+01  0.00000000000E+00 0.  1.
         22   -1    0    0    0    0 -0.00000000000E+00 -0.00000000000E+00 -0.30668604849E+02  0.30668604849E+02  0.00000000000E+00 0. -1.
          4    1    1    2  501    0  0.43358185385E+01 -0.42321285999E+01 -0.42997459135E+01  0.75373038817E+01  0.12700000000E+01 0.  1.
         -4    1    1    2    0  501 -0.43358185385E+01  0.42321285999E+01 -0.24362978830E+02  0.25137181074E+02  0.12700000000E+01 0. -1.
<mgrwt>
<rscale>  0 0.61905682E+01</rscale>
<asrwt>0</asrwt>
<pdfrwt beam="1">0</pdfrwt>
<pdfrwt beam="2">0</pdfrwt>
<totfact> 0.17752541E+11</totfact>
</mgrwt>
</event>
<event>
 4    1  0.1838758E+006  0.2038814E+01  0.7546771E-02  0.2955008E+00
         22   -1    0    0    0    0  0.00000000000E+00  0.00000000000E+00  0.16349428419E+01  0.16349428419E+01  0.00000000000E+00 0.  1.
         22   -1    0    0    0    0 -0.00000000000E+00 -0.00000000000E+00 -0.86020820109E+01  0.86020820109E+01  0.00000000000E+00 0. -1.
          4    1    1    2  501    0 -0.12221824689E+01 -0.10247598769E+01  0.81243806860E+00  0.21947251326E+01  0.12700000000E+01 0.  1.
         -4    1    1    2    0  501  0.12221824689E+01  0.10247598769E+01 -0.77795772376E+01  0.80422997201E+01  0.12700000000E+01 0. -1.
<mgrwt>
<rscale>  0 0.20388141E+01</rscale>
<asrwt>0</asrwt>
<pdfrwt beam="1">0</pdfrwt>
<pdfrwt beam="2">0</pdfrwt>
<totfact> 0.10827659E+12</totfact>
</mgrwt>
</event>
<event>
 4    1  0.1838758E+006  0.2889133E+01  0.7546771E-02  0.2558420E+00
         22   -1    0    0    0    0  0.00000000000E+00  0.00000000000E+00  0.60067876210E+01  0.60067876210E+01  0.00000000000E+00 0.  1.
         22   -1    0    0    0    0 -0.00000000000E+00 -0.00000000000E+00 -0.13594960683E+02  0.13594960683E+02  0.00000000000E+00 0. -1.
          4    1    1    2  501    0 -0.14723857646E+01 -0.21368828030E+01  0.54923902703E+01  0.62059196606E+01  0.12700000000E+01 0.  1.
         -4    1    1    2    0  501  0.14723857646E+01  0.21368828030E+01 -0.13080563332E+02  0.13395828643E+02  0.12700000000E+01 0. -1.
<mgrwt>
<rscale>  0 0.28891327E+01</rscale>
<asrwt>0</asrwt>
<pdfrwt beam="1">0</pdfrwt>
<pdfrwt beam="2">0</pdfrwt>
<totfact> 0.13547666E+11</totfact>
</mgrwt>
</event>
<event>
 4    1  0.1838758E+006  0.3580061E+01  0.7546771E-02  0.2365557E+00
         22   -1    0    0    0    0  0.00000000000E+00  0.00000000000E+00  0.47675154055E+02  0.47675154055E+02  0.00000000000E+00 0. -1.
         22   -1    0    0    0    0 -0.00000000000E+00 -0.00000000000E+00 -0.33154011211E+00  0.33154011211E+00  0.00000000000E+00 0.  1.
          4    1    1    2  501    0 -0.26777251121E+01 -0.20084138655E+01  0.34110565411E+02  0.34297922834E+02  0.12700000000E+01 0. -1.
         -4    1    1    2    0  501  0.26777251121E+01  0.20084138655E+01  0.13233048532E+02  0.13708771334E+02  0.12700000000E+01 0.  1.
<mgrwt>
<rscale>  0 0.35800612E+01</rscale>
<asrwt>0</asrwt>
<pdfrwt beam="1">0</pdfrwt>
<pdfrwt beam="2">0</pdfrwt>
<totfact> 0.77885493E+11</totfact>
</mgrwt>
</event>
<event>
 4    1  0.1838758E+006  0.3624666E+01  0.7546771E-02  0.2355348E+00
         22   -1    0    0    0    0  0.00000000000E+00  0.00000000000E+00  0.46950028633E+00  0.46950028633E+00  0.00000000000E+00 0.  1.
         22   -1    0    0    0    0 -0.00000000000E+00 -0.00000000000E+00 -0.28546496438E+02  0.28546496438E+02  0.00000000000E+00 0.  1.
          4    1    1    2  501    0  0.22799318097E+01 -0.25153959589E+01 -0.12000848955E+02  0.12536290581E+02  0.12700000000E+01 0.  1.
         -4    1    1    2    0  501 -0.22799318097E+01  0.25153959589E+01 -0.16076147197E+02  0.16479706144E+02  0.12700000000E+01 0.  1.
<mgrwt>
<rscale>  0 0.36246663E+01</rscale>
<asrwt>0</asrwt>
<pdfrwt beam="1">0</pdfrwt>
<pdfrwt beam="2">0</pdfrwt>
<totfact> 0.10210486E+12</totfact>
</mgrwt>
</event>
<event>
 4    1  0.1838758E+006  0.3960656E+01  0.7546771E-02  0.2284879E+00
         22   -1    0    0    0    0  0.00000000000E+00  0.00000000000E+00  0.48370920198E+01  0.48370920198E+01  0.00000000000E+00 0.  1.
         22   -1    0    0    0    0 -0.00000000000E+00 -0.00000000000E+00 -0.35210202894E+01  0.35210202894E+01  0.00000000000E+00 0. -1.
          4    1    1    2  501    0 -0.31530975767E+01  0.20327012057E+01  0.18322966876E+01  0.43639557366E+01  0.12700000000E+01 0.  1.
         -4    1    1    2    0  501  0.31530975767E+01 -0.20327012057E+01 -0.51622495713E+00  0.39941565726E+01  0.12700000000E+01 0. -1.
<mgrwt>
<rscale>  0 0.39606563E+01</rscale>
<asrwt>0</asrwt>
<pdfrwt beam="1">0</pdfrwt>
<pdfrwt beam="2">0</pdfrwt>
<totfact> 0.88242734E+11</totfact>
</mgrwt>
</event>
<event>
 4    1  0.1838758E+006  0.2042426E+01  0.7546771E-02  0.2952663E+00
         22   -1    0    0    0    0  0.00000000000E+00  0.00000000000E+00  0.37856160265E-01  0.37856160265E-01  0.00000000000E+00 0. -1.
         22   -1    0    0    0    0 -0.00000000000E+00 -0.00000000000E+00 -0.23869760978E+03  0.23869760978E+03  0.00000000000E+00 0.  1.
          4    1    1    2  501    0  0.83122541017E-01  0.15974026837E+01 -0.31746570728E+02  0.31812202968E+02  0.12700000000E+01 0. -1.
         -4    1    1    2    0  501 -0.83122541017E-01 -0.15974026837E+01 -0.20691318289E+03  0.20692326297E+03  0.12700000000E+01 0.  1.
<mgrwt>
<rscale>  0 0.20424262E+01</rscale>
<asrwt>0</asrwt>
<pdfrwt beam="1">0</pdfrwt>
<pdfrwt beam="2">0</pdfrwt>
<totfact> 0.85805394E+11</totfact>
</mgrwt>
</event>
<event>
 4    1  0.1838758E+006  0.4536110E+01  0.7546771E-02  0.2185205E+00
         22   -1    0    0    0    0  0.00000000000E+00  0.00000000000E+00  0.12542734026E+02  0.12542734026E+02  0.00000000000E+00 0.  1.
         22   -1    0    0    0    0 -0.00000000000E+00 -0.00000000000E+00 -0.18518597357E+01  0.18518597357E+01  0.00000000000E+00 0. -1.
          4    1    1    2  501    0 -0.90403612279E+00  0.42598254576E+01  0.77769775575E+01  0.90032035504E+01  0.12700000000E+01 0.  1.
         -4    1    1    2    0  501  0.90403612279E+00 -0.42598254576E+01  0.29138967326E+01  0.53913902112E+01  0.12700000000E+01 0. -1.
<mgrwt>
<rscale>  0 0.45361100E+01</rscale>
<asrwt>0</asrwt>
<pdfrwt beam="1">0</pdfrwt>
<pdfrwt beam="2">0</pdfrwt>
<totfact> 0.59362972E+11</totfact>
</mgrwt>
</event>
<event>
 4    1  0.1838758E+006  0.2844462E+01  0.7546771E-02  0.2573740E+00
         22   -1    0    0    0    0  0.00000000000E+00  0.00000000000E+00  0.26909808917E+01  0.26909808917E+01  0.00000000000E+00 0.  1.
         22   -1    0    0    0    0 -0.00000000000E+00 -0.00000000000E+00 -0.64352445117E+01  0.64352445117E+01  0.00000000000E+00 0.  1.
          4    1    1    2  501    0 -0.13388687866E+01  0.21646008971E+01  0.14585542252E+01  0.31966149439E+01  0.12700000000E+01 0.  1.
         -4    1    1    2    0  501  0.13388687866E+01 -0.21646008971E+01 -0.52028178452E+01  0.59296104595E+01  0.12700000000E+01 0.  1.
<mgrwt>
<rscale>  0 0.28444625E+01</rscale>
<asrwt>0</asrwt>
<pdfrwt beam="1">0</pdfrwt>
<pdfrwt beam="2">0</pdfrwt>
<totfact> 0.86077554E+11</totfact>
</mgrwt>
</event>
<event>
 4    1  0.1838758E+006  0.4490418E+01  0.7546771E-02  0.2192327E+00
         22   -1    0    0    0    0  0.00000000000E+00  0.00000000000E+00  0.78445586180E+00  0.78445586180E+00  0.00000000000E+00 0. -1.
         22   -1    0    0    0    0 -0.00000000000E+00 -0.00000000000E+00 -0.30187119595E+02  0.30187119595E+02  0.00000000000E+00 0.  1.
          4    1    1    2  501    0  0.13541096111E+01 -0.40886847924E+01 -0.87337263005E+01  0.98204801951E+01  0.12700000000E+01 0. -1.
         -4    1    1    2    0  501 -0.13541096111E+01  0.40886847924E+01 -0.20668937432E+02  0.21151095261E+02  0.12700000000E+01 0.  1.
<mgrwt>
<rscale>  0 0.44904183E+01</rscale>
<asrwt>0</asrwt>
<pdfrwt beam="1">0</pdfrwt>
<pdfrwt beam="2">0</pdfrwt>
<totfact> 0.53169488E+11</totfact>
</mgrwt>
</event>
<event>
 4    1  0.1838758E+006  0.2054220E+01  0.7546771E-02  0.2945063E+00
         22   -1    0    0    0    0  0.00000000000E+00  0.00000000000E+00  0.19401014033E+02  0.19401014033E+02  0.00000000000E+00 0. -1.
         22   -1    0    0    0    0 -0.00000000000E+00 -0.00000000000E+00 -0.51335570366E+00  0.51335570366E+00  0.00000000000E+00 0. -1.
          4    1    1    2  501    0  0.11214944528E+01 -0.11615379193E+01  0.17002815844E+02  0.17126458092E+02  0.12700000000E+01 0. -1.
         -4    1    1    2    0  501 -0.11214944528E+01  0.11615379193E+01  0.18848424857E+01  0.27879116452E+01  0.12700000000E+01 0. -1.
<mgrwt>
<rscale>  0 0.20542201E+01</rscale>
<asrwt>0</asrwt>
<pdfrwt beam="1">0</pdfrwt>
<pdfrwt beam="2">0</pdfrwt>
<totfact> 0.15001447E+12</totfact>
</mgrwt>
</event>
<event>
 4    1  0.1838758E+006  0.2180358E+01  0.7546771E-02  0.2868772E+00
         22   -1    0    0    0    0  0.00000000000E+00  0.00000000000E+00  0.36914369736E+01  0.36914369736E+01  0.00000000000E+00 0.  1.
         22   -1    0    0    0    0 -0.00000000000E+00 -0.00000000000E+00 -0.27271101177E+01  0.27271101177E+01  0.00000000000E+00 0. -1.
          4    1    1    2  501    0 -0.23232358520E+00 -0.17570106197E+01  0.28136201346E+01  0.35595531781E+01  0.12700000000E+01 0.  1.
         -4    1    1    2    0  501  0.23232358520E+00  0.17570106197E+01 -0.18492932787E+01  0.28589939133E+01  0.12700000000E+01 0. -1.
<mgrwt>
<rscale>  0 0.21803579E+01</rscale>
<asrwt>0</asrwt>
<pdfrwt beam="1">0</pdfrwt>
<pdfrwt beam="2">0</pdfrwt>
<totfact> 0.16357829E+12</totfact>
</mgrwt>
</event>
<event>
 4    1  0.1838758E+006  0.2195058E+01  0.7546771E-02  0.2860432E+00
         22   -1    0    0    0    0  0.00000000000E+00  0.00000000000E+00  0.47551464578E+00  0.47551464578E+00  0.00000000000E+00 0. -1.
         22   -1    0    0    0    0 -0.00000000000E+00 -0.00000000000E+00 -0.10154947158E+02  0.10154947158E+02  0.00000000000E+00 0.  1.
          4    1    1    2  501    0 -0.16164346226E+01 -0.76975299743E+00 -0.50881071440E+01  0.55414000825E+01  0.12700000000E+01 0.  1.
         -4    1    1    2    0  501  0.16164346226E+01  0.76975299743E+00 -0.45913253687E+01  0.50890617217E+01  0.12700000000E+01 0. -1.
<mgrwt>
<rscale>  0 0.21950582E+01</rscale>
<asrwt>0</asrwt>
<pdfrwt beam="1">0</pdfrwt>
<pdfrwt beam="2">0</pdfrwt>
<totfact> 0.36209172E+12</totfact>
</mgrwt>
</event>
<event>
 4    1  0.1838758E+006  0.3398810E+01  0.7546771E-02  0.2409427E+00
         22   -1    0    0    0    0  0.00000000000E+00  0.00000000000E+00  0.13544349088E+02  0.13544349088E+02  0.00000000000E+00 0. -1.
         22   -1    0    0    0    0 -0.00000000000E+00 -0.00000000000E+00 -0.12656612822E+01  0.12656612822E+01  0.00000000000E+00 0.  1.
          4    1    1    2  501    0  0.31466712920E+01 -0.19356918659E+00  0.10368158675E+02  0.10911032195E+02  0.12700000000E+01 0. -1.
         -4    1    1    2    0  501 -0.31466712920E+01  0.19356918659E+00  0.19105291305E+01  0.38989781749E+01  0.12700000000E+01 0.  1.
<mgrwt>
<rscale>  0 0.33988100E+01</rscale>
<asrwt>0</asrwt>
<pdfrwt beam="1">0</pdfrwt>
<pdfrwt beam="2">0</pdfrwt>
<totfact> 0.83746514E+11</totfact>
</mgrwt>
</event>
<event>
 4    1  0.1838758E+006  0.2712512E+01  0.7546771E-02  0.2621660E+00
         22   -1    0    0    0    0  0.00000000000E+00  0.00000000000E+00  0.21524235352E+02  0.21524235352E+02  0.00000000000E+00 0. -1.
         22   -1    0    0    0    0 -0.00000000000E+00 -0.00000000000E+00 -0.44565886184E+00  0.44565886184E+00  0.00000000000E+00 0.  1.
          4    1    1    2  501    0 -0.14406015044E+01  0.19155907719E+01  0.15841375484E+02  0.16071928880E+02  0.12700000000E+01 0. -1.
         -4    1    1    2    0  501  0.14406015044E+01 -0.19155907719E+01  0.52372010063E+01  0.58979653340E+01  0.12700000000E+01 0.  1.
<mgrwt>
<rscale>  0 0.27125119E+01</rscale>
<asrwt>0</asrwt>
<pdfrwt beam="1">0</pdfrwt>
<pdfrwt beam="2">0</pdfrwt>
<totfact> 0.15459023E+12</totfact>
</mgrwt>
</event>
<event>
 4    1  0.1838758E+006  0.2347827E+01  0.7546771E-02  0.2779673E+00
         22   -1    0    0    0    0  0.00000000000E+00  0.00000000000E+00  0.64226751824E+00  0.64226751824E+00  0.00000000000E+00 0.  1.
         22   -1    0    0    0    0 -0.00000000000E+00 -0.00000000000E+00 -0.93264203193E+01  0.93264203193E+01  0.00000000000E+00 0. -1.
          4    1    1    2  501    0 -0.99810496398E+00 -0.17038720089E+01 -0.57497404171E+01  0.62106205974E+01  0.12700000000E+01 0. -1.
         -4    1    1    2    0  501  0.99810496398E+00  0.17038720089E+01 -0.29344123840E+01  0.37580672401E+01  0.12700000000E+01 0.  1.
<mgrwt>
<rscale>  0 0.23478274E+01</rscale>
<asrwt>0</asrwt>
<pdfrwt beam="1">0</pdfrwt>
<pdfrwt beam="2">0</pdfrwt>
<totfact> 0.28569016E+12</totfact>
</mgrwt>
</event>
<event>
 4    1  0.1838758E+006  0.2521331E+01  0.7546771E-02  0.2699200E+00
         22   -1    0    0    0    0  0.00000000000E+00  0.00000000000E+00  0.25962083834E+02  0.25962083834E+02  0.00000000000E+00 0. -1.
         22   -1    0    0    0    0 -0.00000000000E+00 -0.00000000000E+00 -0.24509101168E+00  0.24509101168E+00  0.00000000000E+00 0.  1.
          4    1    1    2  501    0  0.18124673388E+01 -0.12079624873E+01  0.13259602111E+02  0.13497190796E+02  0.12700000000E+01 0.  1.
         -4    1    1    2    0  501 -0.18124673388E+01  0.12079624873E+01  0.12457390711E+02  0.12709984050E+02  0.12700000000E+01 0. -1.
<mgrwt>
<rscale>  0 0.25213312E+01</rscale>
<asrwt>0</asrwt>
<pdfrwt beam="1">0</pdfrwt>
<pdfrwt beam="2">0</pdfrwt>
<totfact> 0.23896523E+12</totfact>
</mgrwt>
</event>
<event>
 4    1  0.1838758E+006  0.2043783E+01  0.7546771E-02  0.2951785E+00
         22   -1    0    0    0    0  0.00000000000E+00  0.00000000000E+00  0.37660522558E+01  0.37660522558E+01  0.00000000000E+00 0. -1.
         22   -1    0    0    0    0 -0.00000000000E+00 -0.00000000000E+00 -0.11516830863E+01  0.11516830863E+01  0.00000000000E+00 0.  1.
          4    1    1    2  501    0  0.11086594528E+01 -0.11554314190E+01  0.17798197747E+01  0.27101302509E+01  0.12700000000E+01 0. -1.
         -4    1    1    2    0  501 -0.11086594528E+01  0.11554314190E+01  0.83454939474E+00  0.22076050912E+01  0.12700000000E+01 0. -1.
<mgrwt>
<rscale>  0 0.20437827E+01</rscale>
<asrwt>0</asrwt>
<pdfrwt beam="1">0</pdfrwt>
<pdfrwt beam="2">0</pdfrwt>
<totfact> 0.43231744E+12</totfact>
</mgrwt>
</event>
<event>
 4    1  0.1838758E+006  0.2228626E+01  0.7546771E-02  0.2841783E+00
         22   -1    0    0    0    0  0.00000000000E+00  0.00000000000E+00  0.24563114062E+00  0.24563114062E+00  0.00000000000E+00 0. -1.
         22   -1    0    0    0    0 -0.00000000000E+00 -0.00000000000E+00 -0.20283056379E+02  0.20283056379E+02  0.00000000000E+00 0.  1.
          4    1    1    2  501    0 -0.17185627330E+01 -0.63278288494E+00 -0.10588976554E+02  0.10820960979E+02  0.12700000000E+01 0. -1.
         -4    1    1    2    0  501  0.17185627330E+01  0.63278288494E+00 -0.94484486841E+01  0.97077265404E+01  0.12700000000E+01 0.  1.
<mgrwt>
<rscale>  0 0.22286256E+01</rscale>
<asrwt>0</asrwt>
<pdfrwt beam="1">0</pdfrwt>
<pdfrwt beam="2">0</pdfrwt>
<totfact> 0.32499074E+12</totfact>
</mgrwt>
</event>
<event>
 4    1  0.1838758E+006  0.2284496E+01  0.7546771E-02  0.2811905E+00
         22   -1    0    0    0    0  0.00000000000E+00  0.00000000000E+00  0.14266074412E+01  0.14266074412E+01  0.00000000000E+00 0. -1.
         22   -1    0    0    0    0 -0.00000000000E+00 -0.00000000000E+00 -0.72810777099E+01  0.72810777099E+01  0.00000000000E+00 0. -1.
          4    1    1    2  501    0 -0.16674942947E+01  0.90856275483E+00  0.14388766291E+00  0.22890231895E+01  0.12700000000E+01 0. -1.
         -4    1    1    2    0  501  0.16674942947E+01 -0.90856275483E+00 -0.59983579316E+01  0.64186619616E+01  0.12700000000E+01 0. -1.
<mgrwt>
<rscale>  0 0.22844963E+01</rscale>
<asrwt>0</asrwt>
<pdfrwt beam="1">0</pdfrwt>
<pdfrwt beam="2">0</pdfrwt>
<totfact> 0.15476176E+12</totfact>
</mgrwt>
</event>
<event>
 4    1  0.1838758E+006  0.2150078E+01  0.7546771E-02  0.2886296E+00
         22   -1    0    0    0    0  0.00000000000E+00  0.00000000000E+00  0.39410636180E+00  0.39410636180E+00  0.00000000000E+00 0. -1.
         22   -1    0    0    0    0 -0.00000000000E+00 -0.00000000000E+00 -0.11783785438E+02  0.11783785438E+02  0.00000000000E+00 0.  1.
          4    1    1    2  501    0 -0.86931481865E+00 -0.15014079758E+01 -0.61065335597E+01  0.64739930707E+01  0.12700000000E+01 0.  1.
         -4    1    1    2    0  501  0.86931481865E+00  0.15014079758E+01 -0.52831455170E+01  0.57038987296E+01  0.12700000000E+01 0. -1.
<mgrwt>
<rscale>  0 0.21500777E+01</rscale>
<asrwt>0</asrwt>
<pdfrwt beam="1">0</pdfrwt>
<pdfrwt beam="2">0</pdfrwt>
<totfact> 0.37343507E+12</totfact>
</mgrwt>
</event>
<event>
 4    1  0.1838758E+006  0.2535754E+01  0.7546771E-02  0.2692974E+00
         22   -1    0    0    0    0  0.00000000000E+00  0.00000000000E+00  0.20728187518E+00  0.20728187518E+00  0.00000000000E+00 0.  1.
         22   -1    0    0    0    0 -0.00000000000E+00 -0.00000000000E+00 -0.32367408918E+02  0.32367408918E+02  0.00000000000E+00 0.  1.
          4    1    1    2  501    0  0.97614194028E+00  0.19657814034E+01 -0.12757930128E+02  0.13007491332E+02  0.12700000000E+01 0.  1.
         -4    1    1    2    0  501 -0.97614194028E+00 -0.19657814034E+01 -0.19402196915E+02  0.19567199461E+02  0.12700000000E+01 0.  1.
<mgrwt>
<rscale>  0 0.25357542E+01</rscale>
<asrwt>0</asrwt>
<pdfrwt beam="1">0</pdfrwt>
<pdfrwt beam="2">0</pdfrwt>
<totfact> 0.21767890E+12</totfact>
</mgrwt>
</event>
<event>
 4    1  0.1838758E+006  0.2253249E+01  0.7546771E-02  0.2828441E+00
         22   -1    0    0    0    0  0.00000000000E+00  0.00000000000E+00  0.15375205678E+01  0.15375205678E+01  0.00000000000E+00 0. -1.
         22   -1    0    0    0    0 -0.00000000000E+00 -0.00000000000E+00 -0.34286235119E+01  0.34286235119E+01  0.00000000000E+00 0.  1.
          4    1    1    2  501    0  0.13626616746E+01  0.12678261847E+01 -0.46865740884E+00  0.23014712340E+01  0.12700000000E+01 0. -1.
         -4    1    1    2    0  501 -0.13626616746E+01 -0.12678261847E+01 -0.14224455352E+01  0.26646728457E+01  0.12700000000E+01 0.  1.
<mgrwt>
<rscale>  0 0.22532488E+01</rscale>
<asrwt>0</asrwt>
<pdfrwt beam="1">0</pdfrwt>
<pdfrwt beam="2">0</pdfrwt>
<totfact> 0.34642088E+12</totfact>
</mgrwt>
</event>
<event>
 4    1  0.1838758E+006  0.4266381E+01  0.7546771E-02  0.2229094E+00
         22   -1    0    0    0    0  0.00000000000E+00  0.00000000000E+00  0.75851644011E+00  0.75851644011E+00  0.00000000000E+00 0.  1.
         22   -1    0    0    0    0 -0.00000000000E+00 -0.00000000000E+00 -0.24323580191E+02  0.24323580191E+02  0.00000000000E+00 0. -1.
          4    1    1    2  501    0 -0.12177219472E+01 -0.38866776163E+01 -0.13236017937E+02  0.13906623618E+02  0.12700000000E+01 0. -1.
         -4    1    1    2    0  501  0.12177219472E+01  0.38866776163E+01 -0.10329045814E+02  0.11175473013E+02  0.12700000000E+01 0.  1.
<mgrwt>
<rscale>  0 0.42663813E+01</rscale>
<asrwt>0</asrwt>
<pdfrwt beam="1">0</pdfrwt>
<pdfrwt beam="2">0</pdfrwt>
<totfact> 0.72628358E+11</totfact>
</mgrwt>
</event>
<event>
 4    1  0.1838758E+006  0.8361691E+01  0.7546771E-02  0.1856079E+00
         22   -1    0    0    0    0  0.00000000000E+00  0.00000000000E+00  0.89402960689E+02  0.89402960689E+02  0.00000000000E+00 0. -1.
         22   -1    0    0    0    0 -0.00000000000E+00 -0.00000000000E+00 -0.15834555014E+01  0.15834555014E+01  0.00000000000E+00 0.  1.
          4    1    1    2  501    0 -0.72412930179E+01  0.39835466902E+01  0.76274254884E+02  0.76731218073E+02  0.12700000000E+01 0. -1.
         -4    1    1    2    0  501  0.72412930179E+01 -0.39835466902E+01  0.11545250303E+02  0.14255198118E+02  0.12700000000E+01 0.  1.
<mgrwt>
<rscale>  0 0.83616905E+01</rscale>
<asrwt>0</asrwt>
<pdfrwt beam="1">0</pdfrwt>
<pdfrwt beam="2">0</pdfrwt>
<totfact> 0.56408222E+10</totfact>
</mgrwt>
</event>
<event>
 4    1  0.1838758E+006  0.2252563E+01  0.7546771E-02  0.2828809E+00
         22   -1    0    0    0    0  0.00000000000E+00  0.00000000000E+00  0.54290238451E+01  0.54290238451E+01  0.00000000000E+00 0.  1.
         22   -1    0    0    0    0 -0.00000000000E+00 -0.00000000000E+00 -0.21961373539E+01  0.21961373539E+01  0.00000000000E+00 0. -1.
          4    1    1    2  501    0  0.36345171018E+00 -0.18245667359E+01  0.45060381052E+01  0.50376999043E+01  0.12700000000E+01 0.  1.
         -4    1    1    2    0  501 -0.36345171018E+00  0.18245667359E+01 -0.12731516140E+01  0.25874612948E+01  0.12700000000E+01 0. -1.
<mgrwt>
<rscale>  0 0.22525632E+01</rscale>
<asrwt>0</asrwt>
<pdfrwt beam="1">0</pdfrwt>
<pdfrwt beam="2">0</pdfrwt>
<totfact> 0.13345066E+12</totfact>
</mgrwt>
</event>
<event>
 4    1  0.1838758E+006  0.2078595E+01  0.7546771E-02  0.2929621E+00
         22   -1    0    0    0    0  0.00000000000E+00  0.00000000000E+00  0.16928455881E+01  0.16928455881E+01  0.00000000000E+00 0.  1.
         22   -1    0    0    0    0 -0.00000000000E+00 -0.00000000000E+00 -0.14094894861E+02  0.14094894861E+02  0.00000000000E+00 0. -1.
          4    1    1    2  501    0  0.11384089097E+01 -0.11881419048E+01  0.94248821157E+00  0.22822883386E+01  0.12700000000E+01 0.  1.
         -4    1    1    2    0  501 -0.11384089097E+01  0.11881419048E+01 -0.13344537485E+02  0.13505452111E+02  0.12700000000E+01 0. -1.
<mgrwt>
<rscale>  0 0.20785947E+01</rscale>
<asrwt>0</asrwt>
<pdfrwt beam="1">0</pdfrwt>
<pdfrwt beam="2">0</pdfrwt>
<totfact> 0.57074575E+11</totfact>
</mgrwt>
</event>
<event>
 4    1  0.1838758E+006  0.4229485E+01  0.7546771E-02  0.2235463E+00
         22   -1    0    0    0    0  0.00000000000E+00  0.00000000000E+00  0.13182345624E+01  0.13182345624E+01  0.00000000000E+00 0. -1.
         22   -1    0    0    0    0 -0.00000000000E+00 -0.00000000000E+00 -0.13576241080E+02  0.13576241080E+02  0.00000000000E+00 0.  1.
          4    1    1    2  501    0 -0.33221260350E+01  0.22889136099E+01 -0.62876662688E+01  0.75778159132E+01  0.12700000000E+01 0.  1.
         -4    1    1    2    0  501  0.33221260350E+01 -0.22889136099E+01 -0.59703402487E+01  0.73166597291E+01  0.12700000000E+01 0. -1.
<mgrwt>
<rscale>  0 0.42294854E+01</rscale>
<asrwt>0</asrwt>
<pdfrwt beam="1">0</pdfrwt>
<pdfrwt beam="2">0</pdfrwt>
<totfact> 0.79696171E+11</totfact>
</mgrwt>
</event>
<event>
 4    1  0.1838758E+006  0.2764521E+01  0.7546771E-02  0.2602275E+00
         22   -1    0    0    0    0  0.00000000000E+00  0.00000000000E+00  0.17275973422E+01  0.17275973422E+01  0.00000000000E+00 0.  1.
         22   -1    0    0    0    0 -0.00000000000E+00 -0.00000000000E+00 -0.47237723705E+01  0.47237723705E+01  0.00000000000E+00 0. -1.
          4    1    1    2  501    0  0.16214548918E+00 -0.24501806292E+01 -0.68524758730E+00  0.28481819694E+01  0.12700000000E+01 0.  1.
         -4    1    1    2    0  501 -0.16214548918E+00  0.24501806292E+01 -0.23109274410E+01  0.36031877432E+01  0.12700000000E+01 0. -1.
<mgrwt>
<rscale>  0 0.27645210E+01</rscale>
<asrwt>0</asrwt>
<pdfrwt beam="1">0</pdfrwt>
<pdfrwt beam="2">0</pdfrwt>
<totfact> 0.20772058E+12</totfact>
</mgrwt>
</event>
<event>
 4    1  0.1838758E+006  0.2645267E+01  0.7546771E-02  0.2647756E+00
         22   -1    0    0    0    0  0.00000000000E+00  0.00000000000E+00  0.74285461028E+01  0.74285461028E+01  0.00000000000E+00 0. -1.
         22   -1    0    0    0    0 -0.00000000000E+00 -0.00000000000E+00 -0.10080738872E+01  0.10080738872E+01  0.00000000000E+00 0.  1.
          4    1    1    2  501    0 -0.14381646198E+01 -0.18210487216E+01  0.42904749899E+01  0.50403979564E+01  0.12700000000E+01 0.  1.
         -4    1    1    2    0  501  0.14381646198E+01  0.18210487216E+01  0.21299972258E+01  0.33962220336E+01  0.12700000000E+01 0. -1.
<mgrwt>
<rscale>  0 0.26452667E+01</rscale>
<asrwt>0</asrwt>
<pdfrwt beam="1">0</pdfrwt>
<pdfrwt beam="2">0</pdfrwt>
<totfact> 0.22492531E+12</totfact>
</mgrwt>
</event>
<event>
 4    1  0.1838758E+006  0.2660551E+01  0.7546771E-02  0.2641718E+00
         22   -1    0    0    0    0  0.00000000000E+00  0.00000000000E+00  0.11810578513E+01  0.11810578513E+01  0.00000000000E+00 0. -1.
         22   -1    0    0    0    0 -0.00000000000E+00 -0.00000000000E+00 -0.11710814465E+02  0.11710814465E+02  0.00000000000E+00 0.  1.
          4    1    1    2  501    0  0.16348738891E+01 -0.16711737220E+01 -0.76093554416E+00  0.27672291457E+01  0.12700000000E+01 0. -1.
         -4    1    1    2    0  501 -0.16348738891E+01  0.16711737220E+01 -0.97688210691E+01  0.10124643170E+02  0.12700000000E+01 0.  1.
<mgrwt>
<rscale>  0 0.26605515E+01</rscale>
<asrwt>0</asrwt>
<pdfrwt beam="1">0</pdfrwt>
<pdfrwt beam="2">0</pdfrwt>
<totfact> 0.10828595E+12</totfact>
</mgrwt>
</event>
<event>
 4    1  0.1838758E+006  0.2012752E+01  0.7546771E-02  0.2972171E+00
         22   -1    0    0    0    0  0.00000000000E+00  0.00000000000E+00  0.48245557286E+02  0.48245557286E+02  0.00000000000E+00 0. -1.
         22   -1    0    0    0    0 -0.00000000000E+00 -0.00000000000E+00 -0.10564786973E+00  0.10564786973E+00  0.00000000000E+00 0. -1.
          4    1    1    2  501    0 -0.13989829651E+01  0.69362609543E+00  0.13118871105E+02  0.13272375431E+02  0.12700000000E+01 0. -1.
         -4    1    1    2    0  501  0.13989829651E+01 -0.69362609543E+00  0.35021038311E+02  0.35078829725E+02  0.12700000000E+01 0. -1.
<mgrwt>
<rscale>  0 0.20127520E+01</rscale>
<asrwt>0</asrwt>
<pdfrwt beam="1">0</pdfrwt>
<pdfrwt beam="2">0</pdfrwt>
<totfact> 0.27435642E+12</totfact>
</mgrwt>
</event>
<event>
 4    1  0.1838758E+006  0.2173528E+01  0.7546771E-02  0.2872684E+00
         22   -1    0    0    0    0  0.00000000000E+00  0.00000000000E+00  0.14921472207E+01  0.14921472207E+01  0.00000000000E+00 0. -1.
         22   -1    0    0    0    0 -0.00000000000E+00 -0.00000000000E+00 -0.64510182601E+01  0.64510182601E+01  0.00000000000E+00 0. -1.
          4    1    1    2  501    0  0.17536999594E+01  0.18936835107E+00  0.35466057240E+00  0.22022733803E+01  0.12700000000E+01 0. -1.
         -4    1    1    2    0  501 -0.17536999594E+01 -0.18936835107E+00 -0.53135316118E+01  0.57408921005E+01  0.12700000000E+01 0. -1.
<mgrwt>
<rscale>  0 0.21735280E+01</rscale>
<asrwt>0</asrwt>
<pdfrwt beam="1">0</pdfrwt>
<pdfrwt beam="2">0</pdfrwt>
<totfact> 0.16984680E+12</totfact>
</mgrwt>
</event>
<event>
 4    1  0.1838758E+006  0.2146274E+01  0.7546771E-02  0.2888531E+00
         22   -1    0    0    0    0  0.00000000000E+00  0.00000000000E+00  0.11775480521E+01  0.11775480521E+01  0.00000000000E+00 0. -1.
         22   -1    0    0    0    0 -0.00000000000E+00 -0.00000000000E+00 -0.40916445804E+01  0.40916445804E+01  0.00000000000E+00 0.  1.
          4    1    1    2  501    0 -0.41236125407E+00 -0.16803426670E+01 -0.90490871927E+00  0.23292387324E+01  0.12700000000E+01 0. -1.
         -4    1    1    2    0  501  0.41236125407E+00  0.16803426670E+01 -0.20091878091E+01  0.29399539001E+01  0.12700000000E+01 0.  1.
<mgrwt>
<rscale>  0 0.21462743E+01</rscale>
<asrwt>0</asrwt>
<pdfrwt beam="1">0</pdfrwt>
<pdfrwt beam="2">0</pdfrwt>
<totfact> 0.38230882E+12</totfact>
</mgrwt>
</event>
<event>
 4    1  0.1838758E+006  0.2366742E+01  0.7546771E-02  0.2770363E+00
         22   -1    0    0    0    0  0.00000000000E+00  0.00000000000E+00  0.87933443590E+00  0.87933443590E+00  0.00000000000E+00 0.  1.
         22   -1    0    0    0    0 -0.00000000000E+00 -0.00000000000E+00 -0.75744001733E+01  0.75744001733E+01  0.00000000000E+00 0. -1.
          4    1    1    2  501    0  0.16592539084E+01 -0.11115061509E+01 -0.16621152667E+01  0.28920747943E+01  0.12700000000E+01 0.  1.
         -4    1    1    2    0  501 -0.16592539084E+01  0.11115061509E+01 -0.50329504707E+01  0.55616598149E+01  0.12700000000E+01 0. -1.
<mgrwt>
<rscale>  0 0.23667424E+01</rscale>
<asrwt>0</asrwt>
<pdfrwt beam="1">0</pdfrwt>
<pdfrwt beam="2">0</pdfrwt>
<totfact> 0.25680040E+12</totfact>
</mgrwt>
</event>
<event>
 4    1  0.1838758E+006  0.2219058E+01  0.7546771E-02  0.2847043E+00
         22   -1    0    0    0    0  0.00000000000E+00  0.00000000000E+00  0.10796047799E+02  0.10796047799E+02  0.00000000000E+00 0. -1.
         22   -1    0    0    0    0 -0.00000000000E+00 -0.00000000000E+00 -0.27782178797E+01  0.27782178797E+01  0.00000000000E+00 0. -1.
          4    1    1    2  501    0 -0.17041698212E+01  0.63806364726E+00  0.10213947945E+02  0.10452222377E+02  0.12700000000E+01 0. -1.
         -4    1    1    2    0  501  0.17041698212E+01 -0.63806364726E+00 -0.21961180254E+01  0.31220433019E+01  0.12700000000E+01 0. -1.
<mgrwt>
<rscale>  0 0.22190584E+01</rscale>
<asrwt>0</asrwt>
<pdfrwt beam="1">0</pdfrwt>
<pdfrwt beam="2">0</pdfrwt>
<totfact> 0.44497559E+11</totfact>
</mgrwt>
</event>
<event>
 4    1  0.1838758E+006  0.2020255E+01  0.7546771E-02  0.2967186E+00
         22   -1    0    0    0    0  0.00000000000E+00  0.00000000000E+00  0.10563929871E+02  0.10563929871E+02  0.00000000000E+00 0. -1.
         22   -1    0    0    0    0 -0.00000000000E+00 -0.00000000000E+00 -0.52573314938E+00  0.52573314938E+00  0.00000000000E+00 0. -1.
          4    1    1    2  501    0 -0.72944345055E+00  0.13915615387E+01  0.78740740182E+01  0.81291126765E+01  0.12700000000E+01 0. -1.
         -4    1    1    2    0  501  0.72944345055E+00 -0.13915615387E+01  0.21641227038E+01  0.29605503442E+01  0.12700000000E+01 0. -1.
<mgrwt>
<rscale>  0 0.20202552E+01</rscale>
<asrwt>0</asrwt>
<pdfrwt beam="1">0</pdfrwt>
<pdfrwt beam="2">0</pdfrwt>
<totfact> 0.30815454E+12</totfact>
</mgrwt>
</event>
<event>
 4    1  0.1838758E+006  0.2211128E+01  0.7546771E-02  0.2851436E+00
         22   -1    0    0    0    0  0.00000000000E+00  0.00000000000E+00  0.55005280968E+01  0.55005280968E+01  0.00000000000E+00 0. -1.
         22   -1    0    0    0    0 -0.00000000000E+00 -0.00000000000E+00 -0.30088302059E+01  0.30088302059E+01  0.00000000000E+00 0.  1.
          4    1    1    2  501    0  0.12892718822E-01  0.18099782888E+01  0.48172196771E+01  0.53004427217E+01  0.12700000000E+01 0. -1.
         -4    1    1    2    0  501 -0.12892718822E-01 -0.18099782888E+01 -0.23255217862E+01  0.32089155810E+01  0.12700000000E+01 0.  1.
<mgrwt>
<rscale>  0 0.22111281E+01</rscale>
<asrwt>0</asrwt>
<pdfrwt beam="1">0</pdfrwt>
<pdfrwt beam="2">0</pdfrwt>
<totfact> 0.91077767E+11</totfact>
</mgrwt>
</event>
<event>
 4    1  0.1838758E+006  0.3672073E+01  0.7546771E-02  0.2344733E+00
         22   -1    0    0    0    0  0.00000000000E+00  0.00000000000E+00  0.46600229510E+01  0.46600229510E+01  0.00000000000E+00 0.  1.
         22   -1    0    0    0    0 -0.00000000000E+00 -0.00000000000E+00 -0.47417802774E+01  0.47417802774E+01  0.00000000000E+00 0. -1.
          4    1    1    2  501    0  0.34265448513E+01  0.36056555290E+00  0.28939704160E+01  0.46753804021E+01  0.12700000000E+01 0.  1.
         -4    1    1    2    0  501 -0.34265448513E+01 -0.36056555290E+00 -0.29757277423E+01  0.47264228262E+01  0.12700000000E+01 0. -1.
<mgrwt>
<rscale>  0 0.36720726E+01</rscale>
<asrwt>0</asrwt>
<pdfrwt beam="1">0</pdfrwt>
<pdfrwt beam="2">0</pdfrwt>
<totfact> 0.64955280E+11</totfact>
</mgrwt>
</event>
<event>
 4    1  0.1838758E+006  0.2846435E+01  0.7546771E-02  0.2573054E+00
         22   -1    0    0    0    0  0.00000000000E+00  0.00000000000E+00  0.40230436610E+01  0.40230436610E+01  0.00000000000E+00 0.  1.
         22   -1    0    0    0    0 -0.00000000000E+00 -0.00000000000E+00 -0.22541408427E+01  0.22541408427E+01  0.00000000000E+00 0.  1.
          4    1    1    2  501    0 -0.51262154427E+00 -0.24952983011E+01 -0.14008127039E+00  0.28498802117E+01  0.12700000000E+01 0.  1.
         -4    1    1    2    0  501  0.51262154427E+00  0.24952983011E+01  0.19089840886E+01  0.34273042919E+01  0.12700000000E+01 0.  1.
<mgrwt>
<rscale>  0 0.28464354E+01</rscale>
<asrwt>0</asrwt>
<pdfrwt beam="1">0</pdfrwt>
<pdfrwt beam="2">0</pdfrwt>
<totfact> 0.18451703E+12</totfact>
</mgrwt>
</event>
<event>
 4    1  0.1838758E+006  0.2205888E+01  0.7546771E-02  0.2854356E+00
         22   -1    0    0    0    0  0.00000000000E+00  0.00000000000E+00  0.60016606936E+00  0.60016606936E+00  0.00000000000E+00 0.  1.
         22   -1    0    0    0    0 -0.00000000000E+00 -0.00000000000E+00 -0.81078202540E+01  0.81078202540E+01  0.00000000000E+00 0.  1.
          4    1    1    2  501    0 -0.14756179870E+01 -0.10371091036E+01 -0.37346014964E+01  0.43374176733E+01  0.12700000000E+01 0.  1.
         -4    1    1    2    0  501  0.14756179870E+01  0.10371091036E+01 -0.37730526883E+01  0.43705686500E+01  0.12700000000E+01 0.  1.
<mgrwt>
<rscale>  0 0.22058884E+01</rscale>
<asrwt>0</asrwt>
<pdfrwt beam="1">0</pdfrwt>
<pdfrwt beam="2">0</pdfrwt>
<totfact> 0.36518647E+12</totfact>
</mgrwt>
</event>
<event>
 4    1  0.1838758E+006  0.2343167E+01  0.7546771E-02  0.2781989E+00
         22   -1    0    0    0    0  0.00000000000E+00  0.00000000000E+00  0.58201253431E+00  0.58201253431E+00  0.00000000000E+00 0.  1.
         22   -1    0    0    0    0 -0.00000000000E+00 -0.00000000000E+00 -0.13400311358E+02  0.13400311358E+02  0.00000000000E+00 0. -1.
          4    1    1    2  501    0 -0.12846008530E+01  0.14924244132E+01 -0.26054051908E+01  0.35040785078E+01  0.12700000000E+01 0.  1.
         -4    1    1    2    0  501  0.12846008530E+01 -0.14924244132E+01 -0.10212893633E+02  0.10478245385E+02  0.12700000000E+01 0. -1.
<mgrwt>
<rscale>  0 0.23431667E+01</rscale>
<asrwt>0</asrwt>
<pdfrwt beam="1">0</pdfrwt>
<pdfrwt beam="2">0</pdfrwt>
<totfact> 0.20556242E+12</totfact>
</mgrwt>
</event>
<event>
 4    1  0.1838758E+006  0.2112882E+01  0.7546771E-02  0.2908486E+00
         22   -1    0    0    0    0  0.00000000000E+00  0.00000000000E+00  0.29989883450E+02  0.29989883450E+02  0.00000000000E+00 0.  1.
         22   -1    0    0    0    0 -0.00000000000E+00 -0.00000000000E+00 -0.21019472111E+00  0.21019472111E+00  0.00000000000E+00 0.  1.
          4    1    1    2  501    0  0.14282579155E+01 -0.90080401950E+00  0.67329774547E+01  0.70567169392E+01  0.12700000000E+01 0.  1.
         -4    1    1    2    0  501 -0.14282579155E+01  0.90080401950E+00  0.23046711274E+02  0.23143361232E+02  0.12700000000E+01 0.  1.
<mgrwt>
<rscale>  0 0.21128816E+01</rscale>
<asrwt>0</asrwt>
<pdfrwt beam="1">0</pdfrwt>
<pdfrwt beam="2">0</pdfrwt>
<totfact> 0.23623345E+12</totfact>
</mgrwt>
</event>
<event>
 4    1  0.1838758E+006  0.4318001E+01  0.7546771E-02  0.2220339E+00
         22   -1    0    0    0    0  0.00000000000E+00  0.00000000000E+00  0.72290326873E+00  0.72290326873E+00  0.00000000000E+00 0. -1.
         22   -1    0    0    0    0 -0.00000000000E+00 -0.00000000000E+00 -0.36170314470E+02  0.36170314470E+02  0.00000000000E+00 0.  1.
          4    1    1    2  501    0  0.74439999165E+00 -0.40593224746E+01 -0.78426454294E+01  0.89527770905E+01  0.12700000000E+01 0. -1.
         -4    1    1    2    0  501 -0.74439999165E+00  0.40593224746E+01 -0.27604765771E+02  0.27940440648E+02  0.12700000000E+01 0.  1.
<mgrwt>
<rscale>  0 0.43180007E+01</rscale>
<asrwt>0</asrwt>
<pdfrwt beam="1">0</pdfrwt>
<pdfrwt beam="2">0</pdfrwt>
<totfact> 0.46272627E+11</totfact>
</mgrwt>
</event>
<event>
 4    1  0.1838758E+006  0.2855005E+01  0.7546771E-02  0.2570085E+00
         22   -1    0    0    0    0  0.00000000000E+00  0.00000000000E+00  0.55431835977E+00  0.55431835977E+00  0.00000000000E+00 0. -1.
         22   -1    0    0    0    0 -0.00000000000E+00 -0.00000000000E+00 -0.14744136630E+02  0.14744136630E+02  0.00000000000E+00 0.  1.
          4    1    1    2  501    0 -0.25172939141E+01 -0.44876025271E+00 -0.66990294267E+01  0.72820360940E+01  0.12700000000E+01 0. -1.
         -4    1    1    2    0  501  0.25172939141E+01  0.44876025271E+00 -0.74907888438E+01  0.80164188960E+01  0.12700000000E+01 0.  1.
<mgrwt>
<rscale>  0 0.28550052E+01</rscale>
<asrwt>0</asrwt>
<pdfrwt beam="1">0</pdfrwt>
<pdfrwt beam="2">0</pdfrwt>
<totfact> 0.19318772E+12</totfact>
</mgrwt>
</event>
<event>
 4    1  0.1838758E+006  0.2414392E+01  0.7546771E-02  0.2747519E+00
         22   -1    0    0    0    0  0.00000000000E+00  0.00000000000E+00  0.71738696659E-01  0.71738696659E-01  0.00000000000E+00 0. -1.
         22   -1    0    0    0    0 -0.00000000000E+00 -0.00000000000E+00 -0.83605364199E+02  0.83605364199E+02  0.00000000000E+00 0. -1.
          4    1    1    2  501    0  0.32165833946E+00  0.20280343675E+01 -0.48778481661E+02  0.48838197762E+02  0.12700000000E+01 0. -1.
         -4    1    1    2    0  501 -0.32165833946E+00 -0.20280343675E+01 -0.34755143841E+02  0.34838905133E+02  0.12700000000E+01 0. -1.
<mgrwt>
<rscale>  0 0.24143917E+01</rscale>
<asrwt>0</asrwt>
<pdfrwt beam="1">0</pdfrwt>
<pdfrwt beam="2">0</pdfrwt>
<totfact> 0.20081927E+12</totfact>
</mgrwt>
</event>
<event>
 4    1  0.1838758E+006  0.2340773E+01  0.7546771E-02  0.2783181E+00
         22   -1    0    0    0    0  0.00000000000E+00  0.00000000000E+00  0.19523214455E+01  0.19523214455E+01  0.00000000000E+00 0. -1.
         22   -1    0    0    0    0 -0.00000000000E+00 -0.00000000000E+00 -0.65007081792E+01  0.65007081792E+01  0.00000000000E+00 0.  1.
          4    1    1    2  501    0 -0.15255966984E+01 -0.12405140925E+01  0.91192443094E+00  0.25121358776E+01  0.12700000000E+01 0. -1.
         -4    1    1    2    0  501  0.15255966984E+01  0.12405140925E+01 -0.54603111646E+01  0.59408937471E+01  0.12700000000E+01 0.  1.
<mgrwt>
<rscale>  0 0.23407735E+01</rscale>
<asrwt>0</asrwt>
<pdfrwt beam="1">0</pdfrwt>
<pdfrwt beam="2">0</pdfrwt>
<totfact> 0.12342929E+12</totfact>
</mgrwt>
</event>
<event>
 4    1  0.1838758E+006  0.2208413E+01  0.7546771E-02  0.2852948E+00
         22   -1    0    0    0    0  0.00000000000E+00  0.00000000000E+00  0.13524366150E+02  0.13524366150E+02  0.00000000000E+00 0.  1.
         22   -1    0    0    0    0 -0.00000000000E+00 -0.00000000000E+00 -0.88539085737E+00  0.88539085737E+00  0.00000000000E+00 0. -1.
          4    1    1    2  501    0 -0.15916227352E+01 -0.85494127078E+00  0.11866333836E+02  0.12070085593E+02  0.12700000000E+01 0.  1.
         -4    1    1    2    0  501  0.15916227352E+01  0.85494127078E+00  0.77264145652E+00  0.23396714146E+01  0.12700000000E+01 0. -1.
<mgrwt>
<rscale>  0 0.22084129E+01</rscale>
<asrwt>0</asrwt>
<pdfrwt beam="1">0</pdfrwt>
<pdfrwt beam="2">0</pdfrwt>
<totfact> 0.12621728E+12</totfact>
</mgrwt>
</event>
<event>
 4    1  0.1838758E+006  0.3096593E+01  0.7546771E-02  0.2492510E+00
         22   -1    0    0    0    0  0.00000000000E+00  0.00000000000E+00  0.22034857794E+02  0.22034857794E+02  0.00000000000E+00 0.  1.
         22   -1    0    0    0    0 -0.00000000000E+00 -0.00000000000E+00 -0.73629909367E+01  0.73629909367E+01  0.00000000000E+00 0. -1.
          4    1    1    2  501    0 -0.42377667252E+00  0.27922038481E+01  0.21593873264E+02  0.21814771407E+02  0.12700000000E+01 0.  1.
         -4    1    1    2    0  501  0.42377667252E+00 -0.27922038481E+01 -0.69220064069E+01  0.75830773236E+01  0.12700000000E+01 0. -1.
<mgrwt>
<rscale>  0 0.30965931E+01</rscale>
<asrwt>0</asrwt>
<pdfrwt beam="1">0</pdfrwt>
<pdfrwt beam="2">0</pdfrwt>
<totfact> 0.58409173E+10</totfact>
</mgrwt>
</event>
<event>
 4    1  0.1838758E+006  0.3059406E+01  0.7546771E-02  0.2503734E+00
         22   -1    0    0    0    0  0.00000000000E+00  0.00000000000E+00  0.74542338020E+00  0.74542338020E+00  0.00000000000E+00 0. -1.
         22   -1    0    0    0    0 -0.00000000000E+00 -0.00000000000E+00 -0.12563364565E+02  0.12563364565E+02  0.00000000000E+00 0.  1.
          4    1    1    2  501    0  0.27796556035E+01  0.14345570872E+00 -0.57542790883E+01  0.65170309682E+01  0.12700000000E+01 0.  1.
         -4    1    1    2    0  501 -0.27796556035E+01 -0.14345570872E+00 -0.60636620969E+01  0.67917569774E+01  0.12700000000E+01 0.  1.
<mgrwt>
<rscale>  0 0.30594060E+01</rscale>
<asrwt>0</asrwt>
<pdfrwt beam="1">0</pdfrwt>
<pdfrwt beam="2">0</pdfrwt>
<totfact> 0.16801409E+12</totfact>
</mgrwt>
</event>
<event>
 4    1  0.1838758E+006  0.3855652E+01  0.7546771E-02  0.2305766E+00
         22   -1    0    0    0    0  0.00000000000E+00  0.00000000000E+00  0.19099141079E+02  0.19099141079E+02  0.00000000000E+00 0. -1.
         22   -1    0    0    0    0 -0.00000000000E+00 -0.00000000000E+00 -0.97381013964E+00  0.97381013964E+00  0.00000000000E+00 0. -1.
          4    1    1    2  501    0  0.35767480250E+01  0.67824927855E+00  0.13559011134E+02  0.14096553886E+02  0.12700000000E+01 0. -1.
         -4    1    1    2    0  501 -0.35767480250E+01 -0.67824927855E+00  0.45663198058E+01  0.59763973334E+01  0.12700000000E+01 0. -1.
<mgrwt>
<rscale>  0 0.38556515E+01</rscale>
<asrwt>0</asrwt>
<pdfrwt beam="1">0</pdfrwt>
<pdfrwt beam="2">0</pdfrwt>
<totfact> 0.73953873E+11</totfact>
</mgrwt>
</event>
<event>
 4    1  0.1838758E+006  0.3234088E+01  0.7546771E-02  0.2453010E+00
         22   -1    0    0    0    0  0.00000000000E+00  0.00000000000E+00  0.15122009399E+01  0.15122009399E+01  0.00000000000E+00 0. -1.
         22   -1    0    0    0    0 -0.00000000000E+00 -0.00000000000E+00 -0.81399863326E+01  0.81399863326E+01  0.00000000000E+00 0.  1.
          4    1    1    2  501    0  0.29719130116E+01 -0.11898629706E+00 -0.14429454950E+01  0.35413862242E+01  0.12700000000E+01 0. -1.
         -4    1    1    2    0  501 -0.29719130116E+01  0.11898629706E+00 -0.51848398976E+01  0.61108010483E+01  0.12700000000E+01 0. -1.
<mgrwt>
<rscale>  0 0.32340879E+01</rscale>
<asrwt>0</asrwt>
<pdfrwt beam="1">0</pdfrwt>
<pdfrwt beam="2">0</pdfrwt>
<totfact> 0.12661141E+12</totfact>
</mgrwt>
</event>
<event>
 4    1  0.1838758E+006  0.2188319E+01  0.7546771E-02  0.2864242E+00
         22   -1    0    0    0    0  0.00000000000E+00  0.00000000000E+00  0.55710896626E+01  0.55710896626E+01  0.00000000000E+00 0.  1.
         22   -1    0    0    0    0 -0.00000000000E+00 -0.00000000000E+00 -0.10167640722E+01  0.10167640722E+01  0.00000000000E+00 0. -1.
          4    1    1    2  501    0  0.10841512359E+01  0.14143751824E+01  0.35723187262E+01  0.41892961390E+01  0.12700000000E+01 0.  1.
         -4    1    1    2    0  501 -0.10841512359E+01 -0.14143751824E+01  0.98200686416E+00  0.23985575957E+01  0.12700000000E+01 0. -1.
<mgrwt>
<rscale>  0 0.21883192E+01</rscale>
<asrwt>0</asrwt>
<pdfrwt beam="1">0</pdfrwt>
<pdfrwt beam="2">0</pdfrwt>
<totfact> 0.31393523E+12</totfact>
</mgrwt>
</event>
<event>
 4    1  0.1838758E+006  0.2331915E+01  0.7546771E-02  0.2787615E+00
         22   -1    0    0    0    0  0.00000000000E+00  0.00000000000E+00  0.10874001495E+01  0.10874001495E+01  0.00000000000E+00 0. -1.
         22   -1    0    0    0    0 -0.00000000000E+00 -0.00000000000E+00 -0.63106766497E+01  0.63106766497E+01  0.00000000000E+00 0.  1.
          4    1    1    2  501    0  0.10533786346E+01  0.16478234907E+01 -0.92635673255E+00  0.25091762792E+01  0.12700000000E+01 0. -1.
         -4    1    1    2    0  501 -0.10533786346E+01 -0.16478234907E+01 -0.42969197676E+01  0.48889005199E+01  0.12700000000E+01 0.  1.
<mgrwt>
<rscale>  0 0.23319153E+01</rscale>
<asrwt>0</asrwt>
<pdfrwt beam="1">0</pdfrwt>
<pdfrwt beam="2">0</pdfrwt>
<totfact> 0.25066320E+12</totfact>
</mgrwt>
</event>
<event>
 4    1  0.1838758E+006  0.2519195E+01  0.7546771E-02  0.2700128E+00
         22   -1    0    0    0    0  0.00000000000E+00  0.00000000000E+00  0.71465728875E+02  0.71465728875E+02  0.00000000000E+00 0. -1.
         22   -1    0    0    0    0 -0.00000000000E+00 -0.00000000000E+00 -0.10745455634E+00  0.10745455634E+00  0.00000000000E+00 0.  1.
          4    1    1    2  501    0  0.26973814663E+00  0.21588617067E+01  0.50588878723E+02  0.50651564566E+02  0.12700000000E+01 0. -1.
         -4    1    1    2    0  501 -0.26973814663E+00 -0.21588617067E+01  0.20769395595E+02  0.20921618865E+02  0.12700000000E+01 0.  1.
<mgrwt>
<rscale>  0 0.25191948E+01</rscale>
<asrwt>0</asrwt>
<pdfrwt beam="1">0</pdfrwt>
<pdfrwt beam="2">0</pdfrwt>
<totfact> 0.15927875E+12</totfact>
</mgrwt>
</event>
<event>
 4    1  0.1838758E+006  0.2609046E+01  0.7546771E-02  0.2662323E+00
         22   -1    0    0    0    0  0.00000000000E+00  0.00000000000E+00  0.82591320598E+01  0.82591320598E+01  0.00000000000E+00 0.  1.
         22   -1    0    0    0    0 -0.00000000000E+00 -0.00000000000E+00 -0.84093970547E+00  0.84093970547E+00  0.00000000000E+00 0. -1.
          4    1    1    2  501    0 -0.35766131758E+00  0.22508444521E+01  0.30670126438E+01  0.40266225205E+01  0.12700000000E+01 0. -1.
         -4    1    1    2    0  501  0.35766131758E+00 -0.22508444521E+01  0.43511797106E+01  0.50734492448E+01  0.12700000000E+01 0.  1.
<mgrwt>
<rscale>  0 0.26090463E+01</rscale>
<asrwt>0</asrwt>
<pdfrwt beam="1">0</pdfrwt>
<pdfrwt beam="2">0</pdfrwt>
<totfact> 0.24352801E+12</totfact>
</mgrwt>
</event>
<event>
 4    1  0.1838758E+006  0.2184185E+01  0.7546771E-02  0.2866590E+00
         22   -1    0    0    0    0  0.00000000000E+00  0.00000000000E+00  0.36432230896E+00  0.36432230896E+00  0.00000000000E+00 0.  1.
         22   -1    0    0    0    0 -0.00000000000E+00 -0.00000000000E+00 -0.16265616802E+02  0.16265616802E+02  0.00000000000E+00 0.  1.
          4    1    1    2  501    0  0.15853541267E+01 -0.80275675065E+00 -0.42793245317E+01  0.48045066922E+01  0.12700000000E+01 0.  1.
         -4    1    1    2    0  501 -0.15853541267E+01  0.80275675065E+00 -0.11621969961E+02  0.11825432419E+02  0.12700000000E+01 0.  1.
<mgrwt>
<rscale>  0 0.21841855E+01</rscale>
<asrwt>0</asrwt>
<pdfrwt beam="1">0</pdfrwt>
<pdfrwt beam="2">0</pdfrwt>
<totfact> 0.27473069E+12</totfact>
</mgrwt>
</event>
<event>
 4    1  0.1838758E+006  0.2479399E+01  0.7546771E-02  0.2717683E+00
         22   -1    0    0    0    0  0.00000000000E+00  0.00000000000E+00  0.10929704062E+02  0.10929704062E+02  0.00000000000E+00 0.  1.
         22   -1    0    0    0    0 -0.00000000000E+00 -0.00000000000E+00 -0.56269893468E+00  0.56269893468E+00  0.00000000000E+00 0. -1.
          4    1    1    2  501    0  0.20960095153E+01 -0.37584786271E+00  0.50627629627E+01  0.56372853680E+01  0.12700000000E+01 0. -1.
         -4    1    1    2    0  501 -0.20960095153E+01  0.37584786271E+00  0.53042421647E+01  0.58551176287E+01  0.12700000000E+01 0.  1.
<mgrwt>
<rscale>  0 0.24793986E+01</rscale>
<asrwt>0</asrwt>
<pdfrwt beam="1">0</pdfrwt>
<pdfrwt beam="2">0</pdfrwt>
<totfact> 0.27383714E+12</totfact>
</mgrwt>
</event>
<event>
 4    1  0.1838758E+006  0.2649705E+01  0.7546771E-02  0.2645996E+00
         22   -1    0    0    0    0  0.00000000000E+00  0.00000000000E+00  0.96413418874E+00  0.96413418874E+00  0.00000000000E+00 0.  1.
         22   -1    0    0    0    0 -0.00000000000E+00 -0.00000000000E+00 -0.11316318065E+02  0.11316318065E+02  0.00000000000E+00 0. -1.
          4    1    1    2  501    0  0.17282771068E+01 -0.15559874404E+01 -0.15099394665E+01  0.30497304577E+01  0.12700000000E+01 0.  1.
         -4    1    1    2    0  501 -0.17282771068E+01  0.15559874404E+01 -0.88422444100E+01  0.92307217962E+01  0.12700000000E+01 0. -1.
<mgrwt>
<rscale>  0 0.26497054E+01</rscale>
<asrwt>0</asrwt>
<pdfrwt beam="1">0</pdfrwt>
<pdfrwt beam="2">0</pdfrwt>
<totfact> 0.14238056E+12</totfact>
</mgrwt>
</event>
<event>
 4    1  0.1838758E+006  0.2363106E+01  0.7546771E-02  0.2772142E+00
         22   -1    0    0    0    0  0.00000000000E+00  0.00000000000E+00  0.43779467039E+01  0.43779467039E+01  0.00000000000E+00 0. -1.
         22   -1    0    0    0    0 -0.00000000000E+00 -0.00000000000E+00 -0.35464817430E+01  0.35464817430E+01  0.00000000000E+00 0. -1.
          4    1    1    2  501    0 -0.19753482188E+01  0.26337806986E+00  0.35863334979E+01  0.42948872571E+01  0.12700000000E+01 0. -1.
         -4    1    1    2    0  501  0.19753482188E+01 -0.26337806986E+00 -0.27548685369E+01  0.36295411899E+01  0.12700000000E+01 0. -1.
<mgrwt>
<rscale>  0 0.23631057E+01</rscale>
<asrwt>0</asrwt>
<pdfrwt beam="1">0</pdfrwt>
<pdfrwt beam="2">0</pdfrwt>
<totfact> 0.98435955E+11</totfact>
</mgrwt>
</event>
<event>
 4    1  0.1838758E+006  0.5628465E+01  0.7546771E-02  0.2054702E+00
         22   -1    0    0    0    0  0.00000000000E+00  0.00000000000E+00  0.54958415286E+02  0.54958415286E+02  0.00000000000E+00 0. -1.
         22   -1    0    0    0    0 -0.00000000000E+00 -0.00000000000E+00 -0.69622738665E+00  0.69622738665E+00  0.00000000000E+00 0. -1.
          4    1    1    2  501    0 -0.40585385234E+01 -0.36871380860E+01  0.38674166026E+02  0.39081590807E+02  0.12700000000E+01 0. -1.
         -4    1    1    2    0  501  0.40585385234E+01  0.36871380860E+01  0.15588021873E+02  0.16573051865E+02  0.12700000000E+01 0. -1.
<mgrwt>
<rscale>  0 0.56284654E+01</rscale>
<asrwt>0</asrwt>
<pdfrwt beam="1">0</pdfrwt>
<pdfrwt beam="2">0</pdfrwt>
<totfact> 0.27938290E+11</totfact>
</mgrwt>
</event>
<event>
 4    1  0.1838758E+006  0.3632782E+01  0.7546771E-02  0.2353513E+00
         22   -1    0    0    0    0  0.00000000000E+00  0.00000000000E+00  0.86455884442E+01  0.86455884442E+01  0.00000000000E+00 0.  1.
         22   -1    0    0    0    0 -0.00000000000E+00 -0.00000000000E+00 -0.16068332399E+01  0.16068332399E+01  0.00000000000E+00 0. -1.
          4    1    1    2  501    0  0.29547076323E+01 -0.16893523754E+01  0.46658883781E+01  0.59133427938E+01  0.12700000000E+01 0.  1.
         -4    1    1    2    0  501 -0.29547076323E+01  0.16893523754E+01  0.23728668262E+01  0.43390788902E+01  0.12700000000E+01 0. -1.
<mgrwt>
<rscale>  0 0.36327825E+01</rscale>
<asrwt>0</asrwt>
<pdfrwt beam="1">0</pdfrwt>
<pdfrwt beam="2">0</pdfrwt>
<totfact> 0.10980592E+12</totfact>
</mgrwt>
</event>
<event>
 4    1  0.1838758E+006  0.2712673E+01  0.7546771E-02  0.2621599E+00
         22   -1    0    0    0    0  0.00000000000E+00  0.00000000000E+00  0.53674235893E+01  0.53674235893E+01  0.00000000000E+00 0. -1.
         22   -1    0    0    0    0 -0.00000000000E+00 -0.00000000000E+00 -0.35988340795E+01  0.35988340795E+01  0.00000000000E+00 0.  1.
          4    1    1    2  501    0 -0.23790021488E+01  0.29333425869E+00  0.44116101924E+01  0.51788899101E+01  0.12700000000E+01 0. -1.
         -4    1    1    2    0  501  0.23790021488E+01 -0.29333425869E+00 -0.26430206825E+01  0.37873677587E+01  0.12700000000E+01 0.  1.
<mgrwt>
<rscale>  0 0.27126733E+01</rscale>
<asrwt>0</asrwt>
<pdfrwt beam="1">0</pdfrwt>
<pdfrwt beam="2">0</pdfrwt>
<totfact> 0.76034461E+11</totfact>
</mgrwt>
</event>
<event>
 4    1  0.1838758E+006  0.3462500E+01  0.7546771E-02  0.2393555E+00
         22   -1    0    0    0    0  0.00000000000E+00  0.00000000000E+00  0.41819923492E+02  0.41819923492E+02  0.00000000000E+00 0. -1.
         22   -1    0    0    0    0 -0.00000000000E+00 -0.00000000000E+00 -0.47146088160E+00  0.47146088160E+00  0.00000000000E+00 0.  1.
          4    1    1    2  501    0  0.18785640815E+01  0.26166781376E+01  0.33912414398E+02  0.34088718923E+02  0.12700000000E+01 0. -1.
         -4    1    1    2    0  501 -0.18785640815E+01 -0.26166781376E+01  0.74360482128E+01  0.82026654514E+01  0.12700000000E+01 0.  1.
<mgrwt>
<rscale>  0 0.34625002E+01</rscale>
<asrwt>0</asrwt>
<pdfrwt beam="1">0</pdfrwt>
<pdfrwt beam="2">0</pdfrwt>
<totfact> 0.62200607E+11</totfact>
</mgrwt>
</event>
<event>
 4    1  0.1838758E+006  0.2498893E+01  0.7546771E-02  0.2709019E+00
         22   -1    0    0    0    0  0.00000000000E+00  0.00000000000E+00  0.22619444301E+00  0.22619444301E+00  0.00000000000E+00 0.  1.
         22   -1    0    0    0    0 -0.00000000000E+00 -0.00000000000E+00 -0.29906025764E+02  0.29906025764E+02  0.00000000000E+00 0. -1.
          4    1    1    2  501    0 -0.21477463417E+01  0.13692928076E+00 -0.10662289083E+02  0.10951204156E+02  0.12700000000E+01 0. -1.
         -4    1    1    2    0  501  0.21477463417E+01 -0.13692928076E+00 -0.19017542238E+02  0.19181016051E+02  0.12700000000E+01 0.  1.
<mgrwt>
<rscale>  0 0.24988925E+01</rscale>
<asrwt>0</asrwt>
<pdfrwt beam="1">0</pdfrwt>
<pdfrwt beam="2">0</pdfrwt>
<totfact> 0.21844492E+12</totfact>
</mgrwt>
</event>
<event>
 4    1  0.1838758E+006  0.3156530E+01  0.7546771E-02  0.2474915E+00
         22   -1    0    0    0    0  0.00000000000E+00  0.00000000000E+00  0.13980761384E+02  0.13980761384E+02  0.00000000000E+00 0.  1.
         22   -1    0    0    0    0 -0.00000000000E+00 -0.00000000000E+00 -0.21854924329E+01  0.21854924329E+01  0.00000000000E+00 0. -1.
          4    1    1    2  501    0  0.86385438870E+00 -0.27576328814E+01  0.12533228208E+02  0.12924608034E+02  0.12700000000E+01 0.  1.
         -4    1    1    2    0  501 -0.86385438870E+00  0.27576328814E+01 -0.73795925758E+00  0.32416457825E+01  0.12700000000E+01 0. -1.
<mgrwt>
<rscale>  0 0.31565303E+01</rscale>
<asrwt>0</asrwt>
<pdfrwt beam="1">0</pdfrwt>
<pdfrwt beam="2">0</pdfrwt>
<totfact> 0.42906933E+11</totfact>
</mgrwt>
</event>
<event>
 4    1  0.1838758E+006  0.2817874E+01  0.7546771E-02  0.2583067E+00
         22   -1    0    0    0    0  0.00000000000E+00  0.00000000000E+00  0.42322237397E+02  0.42322237397E+02  0.00000000000E+00 0. -1.
         22   -1    0    0    0    0 -0.00000000000E+00 -0.00000000000E+00 -0.18943228063E+00  0.18943228063E+00  0.00000000000E+00 0.  1.
          4    1    1    2  501    0 -0.10476508269E+00  0.25132721320E+01  0.23146608072E+02  0.23317501534E+02  0.12700000000E+01 0. -1.
         -4    1    1    2    0  501  0.10476508269E+00 -0.25132721320E+01  0.18986197044E+02  0.19194168144E+02  0.12700000000E+01 0. -1.
<mgrwt>
<rscale>  0 0.28178738E+01</rscale>
<asrwt>0</asrwt>
<pdfrwt beam="1">0</pdfrwt>
<pdfrwt beam="2">0</pdfrwt>
<totfact> 0.17024058E+12</totfact>
</mgrwt>
</event>
<event>
 4    1  0.1838758E+006  0.2302031E+01  0.7546771E-02  0.2802812E+00
         22   -1    0    0    0    0  0.00000000000E+00  0.00000000000E+00  0.42702510402E+01  0.42702510402E+01  0.00000000000E+00 0.  1.
         22   -1    0    0    0    0 -0.00000000000E+00 -0.00000000000E+00 -0.16606052504E+01  0.16606052504E+01  0.00000000000E+00 0. -1.
          4    1    1    2  501    0  0.13890744696E+01  0.13254884208E+01  0.27954835605E+01  0.36213361861E+01  0.12700000000E+01 0.  1.
         -4    1    1    2    0  501 -0.13890744696E+01 -0.13254884208E+01 -0.18583777081E+00  0.23095201045E+01  0.12700000000E+01 0. -1.
<mgrwt>
<rscale>  0 0.23020312E+01</rscale>
<asrwt>0</asrwt>
<pdfrwt beam="1">0</pdfrwt>
<pdfrwt beam="2">0</pdfrwt>
<totfact> 0.24491819E+12</totfact>
</mgrwt>
</event>
<event>
 4    1  0.1838758E+006  0.2101069E+01  0.7546771E-02  0.2915692E+00
         22   -1    0    0    0    0  0.00000000000E+00  0.00000000000E+00  0.32464495259E+00  0.32464495259E+00  0.00000000000E+00 0. -1.
         22   -1    0    0    0    0 -0.00000000000E+00 -0.00000000000E+00 -0.16909223597E+02  0.16909223597E+02  0.00000000000E+00 0.  1.
          4    1    1    2  501    0 -0.15978842157E+01  0.49835471667E+00 -0.12105505241E+02  0.12286486419E+02  0.12700000000E+01 0.  1.
         -4    1    1    2    0  501  0.15978842157E+01 -0.49835471667E+00 -0.44790734036E+01  0.49473821305E+01  0.12700000000E+01 0. -1.
<mgrwt>
<rscale>  0 0.21010691E+01</rscale>
<asrwt>0</asrwt>
<pdfrwt beam="1">0</pdfrwt>
<pdfrwt beam="2">0</pdfrwt>
<totfact> 0.29806877E+12</totfact>
</mgrwt>
</event>
<event>
 4    1  0.1838758E+006  0.2083219E+01  0.7546771E-02  0.2926731E+00
         22   -1    0    0    0    0  0.00000000000E+00  0.00000000000E+00  0.18391161520E+01  0.18391161520E+01  0.00000000000E+00 0.  1.
         22   -1    0    0    0    0 -0.00000000000E+00 -0.00000000000E+00 -0.37046551623E+01  0.37046551623E+01  0.00000000000E+00 0. -1.
          4    1    1    2  501    0 -0.11490037682E+01 -0.11860398047E+01  0.73736716130E+00  0.22098666042E+01  0.12700000000E+01 0.  1.
         -4    1    1    2    0  501  0.11490037682E+01  0.11860398047E+01 -0.26029061716E+01  0.33339047101E+01  0.12700000000E+01 0. -1.
<mgrwt>
<rscale>  0 0.20832187E+01</rscale>
<asrwt>0</asrwt>
<pdfrwt beam="1">0</pdfrwt>
<pdfrwt beam="2">0</pdfrwt>
<totfact> 0.25729003E+12</totfact>
</mgrwt>
</event>
<event>
 4    1  0.1838758E+006  0.2139339E+01  0.7546771E-02  0.2892626E+00
         22   -1    0    0    0    0  0.00000000000E+00  0.00000000000E+00  0.31279431423E+00  0.31279431423E+00  0.00000000000E+00 0. -1.
         22   -1    0    0    0    0 -0.00000000000E+00 -0.00000000000E+00 -0.37928984718E+02  0.37928984718E+02  0.00000000000E+00 0.  1.
          4    1    1    2  501    0  0.40096755237E+00  0.16742445178E+01 -0.38225193973E+01  0.43804593624E+01  0.12700000000E+01 0. -1.
         -4    1    1    2    0  501 -0.40096755237E+00 -0.16742445178E+01 -0.33793671007E+02  0.33861319670E+02  0.12700000000E+01 0.  1.
<mgrwt>
<rscale>  0 0.21393386E+01</rscale>
<asrwt>0</asrwt>
<pdfrwt beam="1">0</pdfrwt>
<pdfrwt beam="2">0</pdfrwt>
<totfact> 0.11200597E+12</totfact>
</mgrwt>
</event>
<event>
 4    1  0.1838758E+006  0.2324562E+01  0.7546771E-02  0.2791320E+00
         22   -1    0    0    0    0  0.00000000000E+00  0.00000000000E+00  0.50802255144E+02  0.50802255144E+02  0.00000000000E+00 0. -1.
         22   -1    0    0    0    0 -0.00000000000E+00 -0.00000000000E+00 -0.10650068743E+00  0.10650068743E+00  0.00000000000E+00 0.  1.
          4    1    1    2  501    0 -0.16709350502E+01  0.99933222392E+00  0.26255983136E+02  0.26358684324E+02  0.12700000000E+01 0. -1.
         -4    1    1    2    0  501  0.16709350502E+01 -0.99933222392E+00  0.24439771321E+02  0.24550071508E+02  0.12700000000E+01 0.  1.
<mgrwt>
<rscale>  0 0.23245621E+01</rscale>
<asrwt>0</asrwt>
<pdfrwt beam="1">0</pdfrwt>
<pdfrwt beam="2">0</pdfrwt>
<totfact> 0.25405807E+12</totfact>
</mgrwt>
</event>
<event>
 4    1  0.1838758E+006  0.2983023E+01  0.7546771E-02  0.2527572E+00
         22   -1    0    0    0    0  0.00000000000E+00  0.00000000000E+00  0.19943671074E+01  0.19943671074E+01  0.00000000000E+00 0.  1.
         22   -1    0    0    0    0 -0.00000000000E+00 -0.00000000000E+00 -0.62722784795E+01  0.62722784795E+01  0.00000000000E+00 0. -1.
          4    1    1    2  501    0 -0.21392421059E+01  0.16459549875E+01  0.81723895381E-01  0.29841419879E+01  0.12700000000E+01 0.  1.
         -4    1    1    2    0  501  0.21392421059E+01 -0.16459549875E+01 -0.43596352674E+01  0.52825035990E+01  0.12700000000E+01 0. -1.
<mgrwt>
<rscale>  0 0.29830227E+01</rscale>
<asrwt>0</asrwt>
<pdfrwt beam="1">0</pdfrwt>
<pdfrwt beam="2">0</pdfrwt>
<totfact> 0.12567694E+12</totfact>
</mgrwt>
</event>
<event>
 4    1  0.1838758E+006  0.2287979E+01  0.7546771E-02  0.2810088E+00
         22   -1    0    0    0    0  0.00000000000E+00  0.00000000000E+00  0.16143119974E+02  0.16143119974E+02  0.00000000000E+00 0.  1.
         22   -1    0    0    0    0 -0.00000000000E+00 -0.00000000000E+00 -0.72946173982E+00  0.72946173982E+00  0.00000000000E+00 0.  1.
          4    1    1    2  501    0 -0.11866445660E+01 -0.14878921369E+01  0.13994309346E+02  0.14180110803E+02  0.12700000000E+01 0.  1.
         -4    1    1    2    0  501  0.11866445660E+01  0.14878921369E+01  0.14193488891E+01  0.26924709109E+01  0.12700000000E+01 0.  1.
<mgrwt>
<rscale>  0 0.22879791E+01</rscale>
<asrwt>0</asrwt>
<pdfrwt beam="1">0</pdfrwt>
<pdfrwt beam="2">0</pdfrwt>
<totfact> 0.12656202E+12</totfact>
</mgrwt>
</event>
<event>
 4    1  0.1838758E+006  0.3202754E+01  0.7546771E-02  0.2461747E+00
         22   -1    0    0    0    0  0.00000000000E+00  0.00000000000E+00  0.17346362492E+01  0.17346362492E+01  0.00000000000E+00 0. -1.
         22   -1    0    0    0    0 -0.00000000000E+00 -0.00000000000E+00 -0.59160838781E+01  0.59160838781E+01  0.00000000000E+00 0.  1.
          4    1    1    2  501    0  0.28501882884E+01 -0.72191205773E+00 -0.21719179441E+01  0.38697361479E+01  0.12700000000E+01 0. -1.
         -4    1    1    2    0  501 -0.28501882884E+01  0.72191205773E+00 -0.20095296848E+01  0.37809839794E+01  0.12700000000E+01 0.  1.
<mgrwt>
<rscale>  0 0.32027535E+01</rscale>
<asrwt>0</asrwt>
<pdfrwt beam="1">0</pdfrwt>
<pdfrwt beam="2">0</pdfrwt>
<totfact> 0.15831661E+12</totfact>
</mgrwt>
</event>
<event>
 4    1  0.1838758E+006  0.3499377E+01  0.7546771E-02  0.2384596E+00
         22   -1    0    0    0    0  0.00000000000E+00  0.00000000000E+00  0.10370025276E+02  0.10370025276E+02  0.00000000000E+00 0.  1.
         22   -1    0    0    0    0 -0.00000000000E+00 -0.00000000000E+00 -0.15503543717E+01  0.15503543717E+01  0.00000000000E+00 0. -1.
          4    1    1    2  501    0 -0.31707315957E+01 -0.76105007301E+00  0.73195040565E+01  0.81130004128E+01  0.12700000000E+01 0. -1.
         -4    1    1    2    0  501  0.31707315957E+01  0.76105007301E+00  0.15001668475E+01  0.38073792346E+01  0.12700000000E+01 0.  1.
<mgrwt>
<rscale>  0 0.34993765E+01</rscale>
<asrwt>0</asrwt>
<pdfrwt beam="1">0</pdfrwt>
<pdfrwt beam="2">0</pdfrwt>
<totfact> 0.91847827E+11</totfact>
</mgrwt>
</event>
<event>
 4    1  0.1838758E+006  0.2118870E+01  0.7546771E-02  0.2904863E+00
         22   -1    0    0    0    0  0.00000000000E+00  0.00000000000E+00  0.35234634795E+00  0.35234634795E+00  0.00000000000E+00 0.  1.
         22   -1    0    0    0    0 -0.00000000000E+00 -0.00000000000E+00 -0.38391060860E+02  0.38391060860E+02  0.00000000000E+00 0. -1.
          4    1    1    2  501    0  0.80944413655E+00 -0.14904726959E+01 -0.31854456324E+01  0.38257904470E+01  0.12700000000E+01 0.  1.
         -4    1    1    2    0  501 -0.80944413655E+00  0.14904726959E+01 -0.34853268879E+02  0.34917616761E+02  0.12700000000E+01 0. -1.
<mgrwt>
<rscale>  0 0.21188697E+01</rscale>
<asrwt>0</asrwt>
<pdfrwt beam="1">0</pdfrwt>
<pdfrwt beam="2">0</pdfrwt>
<totfact> 0.96466442E+11</totfact>
</mgrwt>
</event>
<event>
 4    1  0.1838758E+006  0.2160391E+01  0.7546771E-02  0.2880275E+00
         22   -1    0    0    0    0  0.00000000000E+00  0.00000000000E+00  0.67208545556E+00  0.67208545556E+00  0.00000000000E+00 0.  1.
         22   -1    0    0    0    0 -0.00000000000E+00 -0.00000000000E+00 -0.91440642451E+01  0.91440642451E+01  0.00000000000E+00 0. -1.
          4    1    1    2  501    0  0.59071440119E+00 -0.16448240513E+01 -0.18287958403E+01  0.28305094752E+01  0.12700000000E+01 0.  1.
         -4    1    1    2    0  501 -0.59071440119E+00  0.16448240513E+01 -0.66431829492E+01  0.69856402255E+01  0.12700000000E+01 0. -1.
<mgrwt>
<rscale>  0 0.21603911E+01</rscale>
<asrwt>0</asrwt>
<pdfrwt beam="1">0</pdfrwt>
<pdfrwt beam="2">0</pdfrwt>
<totfact> 0.27789869E+12</totfact>
</mgrwt>
</event>
<event>
 4    1  0.1838758E+006  0.2483212E+01  0.7546771E-02  0.2715978E+00
         22   -1    0    0    0    0  0.00000000000E+00  0.00000000000E+00  0.82245452399E+01  0.82245452399E+01  0.00000000000E+00 0. -1.
         22   -1    0    0    0    0 -0.00000000000E+00 -0.00000000000E+00 -0.14665262340E+01  0.14665262340E+01  0.00000000000E+00 0. -1.
          4    1    1    2  501    0 -0.19219646766E+01  0.92708940730E+00  0.67665854656E+01  0.72078444663E+01  0.12700000000E+01 0. -1.
         -4    1    1    2    0  501  0.19219646766E+01 -0.92708940730E+00 -0.85664596414E-02  0.24832270077E+01  0.12700000000E+01 0. -1.
<mgrwt>
<rscale>  0 0.24832122E+01</rscale>
<asrwt>0</asrwt>
<pdfrwt beam="1">0</pdfrwt>
<pdfrwt beam="2">0</pdfrwt>
<totfact> 0.12953548E+12</totfact>
</mgrwt>
</event>
<event>
 4    1  0.1838758E+006  0.2255399E+01  0.7546771E-02  0.2827289E+00
         22   -1    0    0    0    0  0.00000000000E+00  0.00000000000E+00  0.61793717670E+00  0.61793717670E+00  0.00000000000E+00 0. -1.
         22   -1    0    0    0    0 -0.00000000000E+00 -0.00000000000E+00 -0.22021338628E+02  0.22021338628E+02  0.00000000000E+00 0.  1.
          4    1    1    2  501    0 -0.98124112708E+00  0.15846420559E+01 -0.17442739192E+01  0.28511955563E+01  0.12700000000E+01 0. -1.
         -4    1    1    2    0  501  0.98124112708E+00 -0.15846420559E+01 -0.19659127532E+02  0.19788080248E+02  0.12700000000E+01 0.  1.
<mgrwt>
<rscale>  0 0.22553990E+01</rscale>
<asrwt>0</asrwt>
<pdfrwt beam="1">0</pdfrwt>
<pdfrwt beam="2">0</pdfrwt>
<totfact> 0.10383397E+12</totfact>
</mgrwt>
</event>
<event>
 4    1  0.1838758E+006  0.3076249E+01  0.7546771E-02  0.2498620E+00
         22   -1    0    0    0    0  0.00000000000E+00  0.00000000000E+00  0.63887515147E+01  0.63887515147E+01  0.00000000000E+00 0.  1.
         22   -1    0    0    0    0 -0.00000000000E+00 -0.00000000000E+00 -0.89922685212E+01  0.89922685212E+01  0.00000000000E+00 0. -1.
          4    1    1    2  501    0  0.50724455721E+00  0.27555597922E+01  0.57268615478E+01  0.65007884135E+01  0.12700000000E+01 0.  1.
         -4    1    1    2    0  501 -0.50724455721E+00 -0.27555597922E+01 -0.83303785544E+01  0.88802316224E+01  0.12700000000E+01 0. -1.
<mgrwt>
<rscale>  0 0.30762488E+01</rscale>
<asrwt>0</asrwt>
<pdfrwt beam="1">0</pdfrwt>
<pdfrwt beam="2">0</pdfrwt>
<totfact> 0.20805353E+11</totfact>
</mgrwt>
</event>
<event>
 4    1  0.1838758E+006  0.2034324E+01  0.7546771E-02  0.2957935E+00
         22   -1    0    0    0    0  0.00000000000E+00  0.00000000000E+00  0.14174419180E+02  0.14174419180E+02  0.00000000000E+00 0.  1.
         22   -1    0    0    0    0 -0.00000000000E+00 -0.00000000000E+00 -0.29474014276E+00  0.29474014276E+00  0.00000000000E+00 0.  1.
          4    1    1    2  501    0 -0.53290443076E+00  0.14971927114E+01  0.76414914813E+01  0.79076459965E+01  0.12700000000E+01 0.  1.
         -4    1    1    2    0  501  0.53290443076E+00 -0.14971927114E+01  0.62381875558E+01  0.65615133261E+01  0.12700000000E+01 0.  1.
<mgrwt>
<rscale>  0 0.20343238E+01</rscale>
<asrwt>0</asrwt>
<pdfrwt beam="1">0</pdfrwt>
<pdfrwt beam="2">0</pdfrwt>
<totfact> 0.41286109E+12</totfact>
</mgrwt>
</event>
<event>
 4    1  0.1838758E+006  0.6421094E+01  0.7546771E-02  0.1983862E+00
         22   -1    0    0    0    0  0.00000000000E+00  0.00000000000E+00  0.42233177903E+01  0.42233177903E+01  0.00000000000E+00 0. -1.
         22   -1    0    0    0    0 -0.00000000000E+00 -0.00000000000E+00 -0.15193226363E+02  0.15193226363E+02  0.00000000000E+00 0.  1.
          4    1    1    2  501    0 -0.41937686076E+01 -0.46935974979E+01  0.31925327719E+00  0.64290259963E+01  0.12700000000E+01 0. -1.
         -4    1    1    2    0  501  0.41937686076E+01  0.46935974979E+01 -0.11289161850E+02  0.12987518157E+02  0.12700000000E+01 0.  1.
<mgrwt>
<rscale>  0 0.64210943E+01</rscale>
<asrwt>0</asrwt>
<pdfrwt beam="1">0</pdfrwt>
<pdfrwt beam="2">0</pdfrwt>
<totfact> 0.17937433E+11</totfact>
</mgrwt>
</event>
<event>
 4    1  0.1838758E+006  0.4252289E+01  0.7546771E-02  0.2231516E+00
         22   -1    0    0    0    0  0.00000000000E+00  0.00000000000E+00  0.17752800701E+02  0.17752800701E+02  0.00000000000E+00 0.  1.
         22   -1    0    0    0    0 -0.00000000000E+00 -0.00000000000E+00 -0.10492646838E+01  0.10492646838E+01  0.00000000000E+00 0. -1.
          4    1    1    2  501    0  0.30079625274E+01  0.27241916850E+01  0.99604428723E+01  0.10830160715E+02  0.12700000000E+01 0. -1.
         -4    1    1    2    0  501 -0.30079625274E+01 -0.27241916850E+01  0.67430931453E+01  0.79719046701E+01  0.12700000000E+01 0.  1.
<mgrwt>
<rscale>  0 0.42522887E+01</rscale>
<asrwt>0</asrwt>
<pdfrwt beam="1">0</pdfrwt>
<pdfrwt beam="2">0</pdfrwt>
<totfact> 0.74365879E+11</totfact>
</mgrwt>
</event>
<event>
 4    1  0.1838758E+006  0.2016440E+01  0.7546771E-02  0.2969716E+00
         22   -1    0    0    0    0  0.00000000000E+00  0.00000000000E+00  0.41969968822E+01  0.41969968822E+01  0.00000000000E+00 0.  1.
         22   -1    0    0    0    0 -0.00000000000E+00 -0.00000000000E+00 -0.10718179266E+01  0.10718179266E+01  0.00000000000E+00 0. -1.
          4    1    1    2  501    0 -0.15362527523E+01  0.30505438529E+00  0.23793388661E+01  0.31188594288E+01  0.12700000000E+01 0.  1.
         -4    1    1    2    0  501  0.15362527523E+01 -0.30505438529E+00  0.74584008951E+00  0.21499553800E+01  0.12700000000E+01 0. -1.
<mgrwt>
<rscale>  0 0.20164401E+01</rscale>
<asrwt>0</asrwt>
<pdfrwt beam="1">0</pdfrwt>
<pdfrwt beam="2">0</pdfrwt>
<totfact> 0.41318891E+12</totfact>
</mgrwt>
</event>
<event>
 4    1  0.1838758E+006  0.4871553E+01  0.7546771E-02  0.2138655E+00
         22   -1    0    0    0    0  0.00000000000E+00  0.00000000000E+00  0.27140788972E+01  0.27140788972E+01  0.00000000000E+00 0.  1.
         22   -1    0    0    0    0 -0.00000000000E+00 -0.00000000000E+00 -0.90347001186E+01  0.90347001186E+01  0.00000000000E+00 0. -1.
          4    1    1    2  501    0 -0.41157672908E+01 -0.22758708697E+01 -0.21066646856E+01  0.53075478995E+01  0.12700000000E+01 0. -1.
         -4    1    1    2    0  501  0.41157672908E+01  0.22758708697E+01 -0.42139565358E+01  0.64412311163E+01  0.12700000000E+01 0. -1.
<mgrwt>
<rscale>  0 0.48715530E+01</rscale>
<asrwt>0</asrwt>
<pdfrwt beam="1">0</pdfrwt>
<pdfrwt beam="2">0</pdfrwt>
<totfact> 0.56730371E+11</totfact>
</mgrwt>
</event>
<event>
 4    1  0.1838758E+006  0.2948546E+01  0.7546771E-02  0.2538694E+00
         22   -1    0    0    0    0  0.00000000000E+00  0.00000000000E+00  0.17327565211E+01  0.17327565211E+01  0.00000000000E+00 0. -1.
         22   -1    0    0    0    0 -0.00000000000E+00 -0.00000000000E+00 -0.50477359160E+01  0.50477359160E+01  0.00000000000E+00 0.  1.
          4    1    1    2  501    0 -0.25646978297E+01 -0.70946885322E+00 -0.13946389455E+01  0.32617386161E+01  0.12700000000E+01 0. -1.
         -4    1    1    2    0  501  0.25646978297E+01  0.70946885322E+00 -0.19203404494E+01  0.35187538210E+01  0.12700000000E+01 0.  1.
<mgrwt>
<rscale>  0 0.29485456E+01</rscale>
<asrwt>0</asrwt>
<pdfrwt beam="1">0</pdfrwt>
<pdfrwt beam="2">0</pdfrwt>
<totfact> 0.19138244E+12</totfact>
</mgrwt>
</event>
<event>
 4    1  0.1838758E+006  0.2057793E+01  0.7546771E-02  0.2942777E+00
         22   -1    0    0    0    0  0.00000000000E+00  0.00000000000E+00  0.27386616984E+02  0.27386616984E+02  0.00000000000E+00 0. -1.
         22   -1    0    0    0    0 -0.00000000000E+00 -0.00000000000E+00 -0.16750020855E+00  0.16750020855E+00  0.00000000000E+00 0.  1.
          4    1    1    2  501    0 -0.55026324121E+00  0.15227684208E+01  0.17430000411E+02  0.17551052038E+02  0.12700000000E+01 0. -1.
         -4    1    1    2    0  501  0.55026324121E+00 -0.15227684208E+01  0.97891163641E+01  0.10003065155E+02  0.12700000000E+01 0. -1.
<mgrwt>
<rscale>  0 0.20577933E+01</rscale>
<asrwt>0</asrwt>
<pdfrwt beam="1">0</pdfrwt>
<pdfrwt beam="2">0</pdfrwt>
<totfact> 0.34148932E+12</totfact>
</mgrwt>
</event>
<event>
 4    1  0.1838758E+006  0.4908849E+01  0.7546771E-02  0.2134044E+00
         22   -1    0    0    0    0  0.00000000000E+00  0.00000000000E+00  0.27255417295E+01  0.27255417295E+01  0.00000000000E+00 0. -1.
         22   -1    0    0    0    0 -0.00000000000E+00 -0.00000000000E+00 -0.96574434430E+01  0.96574434430E+01  0.00000000000E+00 0.  1.
          4    1    1    2  501    0 -0.24595785562E+01  0.40539332867E+01 -0.52660618415E+01  0.71991811400E+01  0.12700000000E+01 0.  1.
         -4    1    1    2    0  501  0.24595785562E+01 -0.40539332867E+01 -0.16658398720E+01  0.51838040324E+01  0.12700000000E+01 0. -1.
<mgrwt>
<rscale>  0 0.49088493E+01</rscale>
<asrwt>0</asrwt>
<pdfrwt beam="1">0</pdfrwt>
<pdfrwt beam="2">0</pdfrwt>
<totfact> 0.52085320E+11</totfact>
</mgrwt>
</event>
<event>
 4    1  0.1838758E+006  0.2431755E+01  0.7546771E-02  0.2739404E+00
         22   -1    0    0    0    0  0.00000000000E+00  0.00000000000E+00  0.16324796979E+01  0.16324796979E+01  0.00000000000E+00 0. -1.
         22   -1    0    0    0    0 -0.00000000000E+00 -0.00000000000E+00 -0.63412478601E+01  0.63412478601E+01  0.00000000000E+00 0.  1.
          4    1    1    2  501    0 -0.13516284183E+01 -0.15727780177E+01  0.25621172380E+00  0.24452146167E+01  0.12700000000E+01 0. -1.
         -4    1    1    2    0  501  0.13516284183E+01  0.15727780177E+01 -0.49649798860E+01  0.55285129413E+01  0.12700000000E+01 0.  1.
<mgrwt>
<rscale>  0 0.24317545E+01</rscale>
<asrwt>0</asrwt>
<pdfrwt beam="1">0</pdfrwt>
<pdfrwt beam="2">0</pdfrwt>
<totfact> 0.15631949E+12</totfact>
</mgrwt>
</event>
<event>
 4    1  0.1838758E+006  0.3162207E+01  0.7546771E-02  0.2473280E+00
         22   -1    0    0    0    0  0.00000000000E+00  0.00000000000E+00  0.37302896303E+01  0.37302896303E+01  0.00000000000E+00 0.  1.
         22   -1    0    0    0    0 -0.00000000000E+00 -0.00000000000E+00 -0.56501447990E+01  0.56501447990E+01  0.00000000000E+00 0. -1.
          4    1    1    2  501    0 -0.64767765272E+00  0.28226168108E+01 -0.43601350016E+01  0.53861237671E+01  0.12700000000E+01 0. -1.
         -4    1    1    2    0  501  0.64767765272E+00 -0.28226168108E+01  0.24402798330E+01  0.39943106621E+01  0.12700000000E+01 0.  1.
<mgrwt>
<rscale>  0 0.31622068E+01</rscale>
<asrwt>0</asrwt>
<pdfrwt beam="1">0</pdfrwt>
<pdfrwt beam="2">0</pdfrwt>
<totfact> 0.68588781E+11</totfact>
</mgrwt>
</event>
<event>
 4    1  0.1838758E+006  0.2951609E+01  0.7546771E-02  0.2537696E+00
         22   -1    0    0    0    0  0.00000000000E+00  0.00000000000E+00  0.16874217294E+02  0.16874217294E+02  0.00000000000E+00 0. -1.
         22   -1    0    0    0    0 -0.00000000000E+00 -0.00000000000E+00 -0.68480413049E+00  0.68480413049E+00  0.00000000000E+00 0. -1.
          4    1    1    2  501    0 -0.20315586556E+00 -0.26566569066E+01  0.12449871791E+02  0.12794971897E+02  0.12700000000E+01 0. -1.
         -4    1    1    2    0  501  0.20315586556E+00  0.26566569066E+01  0.37395413720E+01  0.47640495273E+01  0.12700000000E+01 0. -1.
<mgrwt>
<rscale>  0 0.29516094E+01</rscale>
<asrwt>0</asrwt>
<pdfrwt beam="1">0</pdfrwt>
<pdfrwt beam="2">0</pdfrwt>
<totfact> 0.12873602E+12</totfact>
</mgrwt>
</event>
<event>
 4    1  0.1838758E+006  0.2102635E+01  0.7546771E-02  0.2914732E+00
         22   -1    0    0    0    0  0.00000000000E+00  0.00000000000E+00  0.23424313796E+01  0.23424313796E+01  0.00000000000E+00 0. -1.
         22   -1    0    0    0    0 -0.00000000000E+00 -0.00000000000E+00 -0.19598036117E+01  0.19598036117E+01  0.00000000000E+00 0.  1.
          4    1    1    2  501    0  0.14437289702E+01  0.85077598397E+00  0.60481698762E+00  0.21878932110E+01  0.12700000000E+01 0. -1.
         -4    1    1    2    0  501 -0.14437289702E+01 -0.85077598397E+00 -0.22218921972E+00  0.21143417803E+01  0.12700000000E+01 0.  1.
<mgrwt>
<rscale>  0 0.21026348E+01</rscale>
<asrwt>0</asrwt>
<pdfrwt beam="1">0</pdfrwt>
<pdfrwt beam="2">0</pdfrwt>
<totfact> 0.40831068E+12</totfact>
</mgrwt>
</event>
<event>
 4    1  0.1838758E+006  0.4829515E+01  0.7546771E-02  0.2143920E+00
         22   -1    0    0    0    0  0.00000000000E+00  0.00000000000E+00  0.27450309479E+01  0.27450309479E+01  0.00000000000E+00 0. -1.
         22   -1    0    0    0    0 -0.00000000000E+00 -0.00000000000E+00 -0.17970673163E+02  0.17970673163E+02  0.00000000000E+00 0.  1.
          4    1    1    2  501    0  0.20656781173E+01  0.41766355747E+01 -0.92275006367E-01  0.48303959967E+01  0.12700000000E+01 0. -1.
         -4    1    1    2    0  501 -0.20656781173E+01 -0.41766355747E+01 -0.15133367209E+02  0.15885308114E+02  0.12700000000E+01 0.  1.
<mgrwt>
<rscale>  0 0.48295146E+01</rscale>
<asrwt>0</asrwt>
<pdfrwt beam="1">0</pdfrwt>
<pdfrwt beam="2">0</pdfrwt>
<totfact> 0.24150206E+11</totfact>
</mgrwt>
</event>
<event>
 4    1  0.1838758E+006  0.4126874E+01  0.7546771E-02  0.2253679E+00
         22   -1    0    0    0    0  0.00000000000E+00  0.00000000000E+00  0.33364270614E+01  0.33364270614E+01  0.00000000000E+00 0.  1.
         22   -1    0    0    0    0 -0.00000000000E+00 -0.00000000000E+00 -0.20702120046E+02  0.20702120046E+02  0.00000000000E+00 0. -1.
          4    1    1    2  501    0  0.17481331208E+01  0.35159944541E+01  0.17499022466E+01  0.44825488600E+01  0.12700000000E+01 0.  1.
         -4    1    1    2    0  501 -0.17481331208E+01 -0.35159944541E+01 -0.19115595232E+02  0.19555998248E+02  0.12700000000E+01 0. -1.
<mgrwt>
<rscale>  0 0.41268737E+01</rscale>
<asrwt>0</asrwt>
<pdfrwt beam="1">0</pdfrwt>
<pdfrwt beam="2">0</pdfrwt>
<totfact> 0.16121974E+11</totfact>
</mgrwt>
</event>
<event>
 4    1  0.1838758E+006  0.2430902E+01  0.7546771E-02  0.2739800E+00
         22   -1    0    0    0    0  0.00000000000E+00  0.00000000000E+00  0.66431415506E+01  0.66431415506E+01  0.00000000000E+00 0.  1.
         22   -1    0    0    0    0 -0.00000000000E+00 -0.00000000000E+00 -0.11636554090E+01  0.11636554090E+01  0.00000000000E+00 0. -1.
          4    1    1    2  501    0  0.15773407048E+01 -0.13447604829E+01  0.84520186021E+00  0.25736453990E+01  0.12700000000E+01 0. -1.
         -4    1    1    2    0  501 -0.15773407048E+01  0.13447604829E+01  0.46342842814E+01  0.52331515606E+01  0.12700000000E+01 0.  1.
<mgrwt>
<rscale>  0 0.24309020E+01</rscale>
<asrwt>0</asrwt>
<pdfrwt beam="1">0</pdfrwt>
<pdfrwt beam="2">0</pdfrwt>
<totfact> 0.21817531E+12</totfact>
</mgrwt>
</event>
<event>
 4    1  0.1838758E+006  0.2123472E+01  0.7546771E-02  0.2902092E+00
         22   -1    0    0    0    0  0.00000000000E+00  0.00000000000E+00  0.27752697275E+01  0.27752697275E+01  0.00000000000E+00 0.  1.
         22   -1    0    0    0    0 -0.00000000000E+00 -0.00000000000E+00 -0.18637590784E+01  0.18637590784E+01  0.00000000000E+00 0.  1.
          4    1    1    2  501    0  0.16079610581E+01  0.55740160659E+00  0.12863788082E+01  0.24827214410E+01  0.12700000000E+01 0.  1.
         -4    1    1    2    0  501 -0.16079610581E+01 -0.55740160659E+00 -0.37486815912E+00  0.21563073649E+01  0.12700000000E+01 0.  1.
<mgrwt>
<rscale>  0 0.21234725E+01</rscale>
<asrwt>0</asrwt>
<pdfrwt beam="1">0</pdfrwt>
<pdfrwt beam="2">0</pdfrwt>
<totfact> 0.35524885E+12</totfact>
</mgrwt>
</event>
<event>
 4    1  0.1838758E+006  0.2308280E+01  0.7546771E-02  0.2799604E+00
         22   -1    0    0    0    0  0.00000000000E+00  0.00000000000E+00  0.43821210558E+01  0.43821210558E+01  0.00000000000E+00 0. -1.
         22   -1    0    0    0    0 -0.00000000000E+00 -0.00000000000E+00 -0.21075845050E+01  0.21075845050E+01  0.00000000000E+00 0.  1.
          4    1    1    2  501    0  0.19267446697E+01 -0.53962014459E-01  0.32478961503E+01  0.39845936210E+01  0.12700000000E+01 0. -1.
         -4    1    1    2    0  501 -0.19267446697E+01  0.53962014459E-01 -0.97335959952E+00  0.25051119398E+01  0.12700000000E+01 0.  1.
<mgrwt>
<rscale>  0 0.23082801E+01</rscale>
<asrwt>0</asrwt>
<pdfrwt beam="1">0</pdfrwt>
<pdfrwt beam="2">0</pdfrwt>
<totfact> 0.18035463E+12</totfact>
</mgrwt>
</event>
<event>
 4    1  0.1838758E+006  0.2213283E+01  0.7546771E-02  0.2850240E+00
         22   -1    0    0    0    0  0.00000000000E+00  0.00000000000E+00  0.84200014107E+01  0.84200014107E+01  0.00000000000E+00 0. -1.
         22   -1    0    0    0    0 -0.00000000000E+00 -0.00000000000E+00 -0.11970426640E+01  0.11970426640E+01  0.00000000000E+00 0. -1.
          4    1    1    2  501    0 -0.41396665763E+00 -0.17647526899E+01  0.70588321984E+01  0.73976842630E+01  0.12700000000E+01 0. -1.
         -4    1    1    2    0  501  0.41396665763E+00  0.17647526899E+01  0.16412654827E+00  0.22193598117E+01  0.12700000000E+01 0. -1.
<mgrwt>
<rscale>  0 0.22132827E+01</rscale>
<asrwt>0</asrwt>
<pdfrwt beam="1">0</pdfrwt>
<pdfrwt beam="2">0</pdfrwt>
<totfact> 0.15897235E+12</totfact>
</mgrwt>
</event>
<event>
 4    1  0.1838758E+006  0.5961095E+01  0.7546771E-02  0.2023195E+00
         22   -1    0    0    0    0  0.00000000000E+00  0.00000000000E+00  0.14942866332E+02  0.14942866332E+02  0.00000000000E+00 0.  1.
         22   -1    0    0    0    0 -0.00000000000E+00 -0.00000000000E+00 -0.35952309910E+01  0.35952309910E+01  0.00000000000E+00 0. -1.
          4    1    1    2  501    0 -0.57673208125E+01  0.81225605336E+00  0.11067087358E+02  0.12570404601E+02  0.12700000000E+01 0.  1.
         -4    1    1    2    0  501  0.57673208125E+01 -0.81225605336E+00  0.28054798299E+00  0.59676927217E+01  0.12700000000E+01 0. -1.
<mgrwt>
<rscale>  0 0.59610946E+01</rscale>
<asrwt>0</asrwt>
<pdfrwt beam="1">0</pdfrwt>
<pdfrwt beam="2">0</pdfrwt>
<totfact> 0.22124427E+11</totfact>
</mgrwt>
</event>
<event>
 4    1  0.1838758E+006  0.3350444E+01  0.7546771E-02  0.2421833E+00
         22   -1    0    0    0    0  0.00000000000E+00  0.00000000000E+00  0.86355355797E+01  0.86355355797E+01  0.00000000000E+00 0.  1.
         22   -1    0    0    0    0 -0.00000000000E+00 -0.00000000000E+00 -0.13462709008E+01  0.13462709008E+01  0.00000000000E+00 0. -1.
          4    1    1    2  501    0  0.29232547430E+01  0.10330333195E+01  0.45707323598E+01  0.56671924651E+01  0.12700000000E+01 0.  1.
         -4    1    1    2    0  501 -0.29232547430E+01 -0.10330333195E+01  0.27185323191E+01  0.43146140153E+01  0.12700000000E+01 0. -1.
<mgrwt>
<rscale>  0 0.33504442E+01</rscale>
<asrwt>0</asrwt>
<pdfrwt beam="1">0</pdfrwt>
<pdfrwt beam="2">0</pdfrwt>
<totfact> 0.13477598E+12</totfact>
</mgrwt>
</event>
<event>
 4    1  0.1838758E+006  0.2487709E+01  0.7546771E-02  0.2713974E+00
         22   -1    0    0    0    0  0.00000000000E+00  0.00000000000E+00  0.32193839043E+00  0.32193839043E+00  0.00000000000E+00 0.  1.
         22   -1    0    0    0    0 -0.00000000000E+00 -0.00000000000E+00 -0.22428927583E+02  0.22428927583E+02  0.00000000000E+00 0.  1.
          4    1    1    2  501    0 -0.10088964455E+01  0.18862460802E+01 -0.67529363586E+01  0.71965857027E+01  0.12700000000E+01 0.  1.
         -4    1    1    2    0  501  0.10088964455E+01 -0.18862460802E+01 -0.15354052834E+02  0.15554280270E+02  0.12700000000E+01 0.  1.
<mgrwt>
<rscale>  0 0.24877090E+01</rscale>
<asrwt>0</asrwt>
<pdfrwt beam="1">0</pdfrwt>
<pdfrwt beam="2">0</pdfrwt>
<totfact> 0.21165381E+12</totfact>
</mgrwt>
</event>
<event>
 4    1  0.1838758E+006  0.4122601E+01  0.7546771E-02  0.2254454E+00
         22   -1    0    0    0    0  0.00000000000E+00  0.00000000000E+00  0.85733972757E+00  0.85733972757E+00  0.00000000000E+00 0.  1.
         22   -1    0    0    0    0 -0.00000000000E+00 -0.00000000000E+00 -0.11658396107E+03  0.11658396107E+03  0.00000000000E+00 0. -1.
          4    1    1    2  501    0 -0.11840978371E+01 -0.37390971797E+01 -0.43675370248E+01  0.60059316571E+01  0.12700000000E+01 0.  1.
         -4    1    1    2    0  501  0.11840978371E+01  0.37390971797E+01 -0.11135908431E+03  0.11143536914E+03  0.12700000000E+01 0. -1.
<mgrwt>
<rscale>  0 0.41226006E+01</rscale>
<asrwt>0</asrwt>
<pdfrwt beam="1">0</pdfrwt>
<pdfrwt beam="2">0</pdfrwt>
<totfact> 0.78298171E+10</totfact>
</mgrwt>
</event>
<event>
 4    1  0.1838758E+006  0.3364959E+01  0.7546771E-02  0.2418077E+00
         22   -1    0    0    0    0  0.00000000000E+00  0.00000000000E+00  0.10068800552E+01  0.10068800552E+01  0.00000000000E+00 0. -1.
         22   -1    0    0    0    0 -0.00000000000E+00 -0.00000000000E+00 -0.17394604290E+02  0.17394604290E+02  0.00000000000E+00 0. -1.
          4    1    1    2  501    0  0.19497240598E+01 -0.24307663430E+01 -0.27234665240E+01  0.43289974395E+01  0.12700000000E+01 0. -1.
         -4    1    1    2    0  501 -0.19497240598E+01  0.24307663430E+01 -0.13664257710E+02  0.14072486905E+02  0.12700000000E+01 0. -1.
<mgrwt>
<rscale>  0 0.33649590E+01</rscale>
<asrwt>0</asrwt>
<pdfrwt beam="1">0</pdfrwt>
<pdfrwt beam="2">0</pdfrwt>
<totfact> 0.79947086E+11</totfact>
</mgrwt>
</event>
<event>
 4    1  0.1838758E+006  0.2043753E+01  0.7546771E-02  0.2951804E+00
         22   -1    0    0    0    0  0.00000000000E+00  0.00000000000E+00  0.35006969972E+00  0.35006969972E+00  0.00000000000E+00 0. -1.
         22   -1    0    0    0    0 -0.00000000000E+00 -0.00000000000E+00 -0.11933846801E+02  0.11933846801E+02  0.00000000000E+00 0.  1.
          4    1    1    2  501    0  0.11903073411E+01  0.10710714263E+01 -0.57094517008E+01  0.60642200068E+01  0.12700000000E+01 0. -1.
         -4    1    1    2    0  501 -0.11903073411E+01 -0.10710714263E+01 -0.58743254006E+01  0.62196964941E+01  0.12700000000E+01 0. -1.
<mgrwt>
<rscale>  0 0.20437528E+01</rscale>
<asrwt>0</asrwt>
<pdfrwt beam="1">0</pdfrwt>
<pdfrwt beam="2">0</pdfrwt>
<totfact> 0.42011408E+12</totfact>
</mgrwt>
</event>
<event>
 4    1  0.1838758E+006  0.3237234E+01  0.7546771E-02  0.2452141E+00
         22   -1    0    0    0    0  0.00000000000E+00  0.00000000000E+00  0.10201369357E+02  0.10201369357E+02  0.00000000000E+00 0. -1.
         22   -1    0    0    0    0 -0.00000000000E+00 -0.00000000000E+00 -0.11793739996E+01  0.11793739996E+01  0.00000000000E+00 0.  1.
          4    1    1    2  501    0 -0.26095449135E+01  0.14342451691E+01  0.65544661453E+01  0.73103153359E+01  0.12700000000E+01 0. -1.
         -4    1    1    2    0  501  0.26095449135E+01 -0.14342451691E+01  0.24675292123E+01  0.40704280210E+01  0.12700000000E+01 0.  1.
<mgrwt>
<rscale>  0 0.32372340E+01</rscale>
<asrwt>0</asrwt>
<pdfrwt beam="1">0</pdfrwt>
<pdfrwt beam="2">0</pdfrwt>
<totfact> 0.12826205E+12</totfact>
</mgrwt>
</event>
<event>
 4    1  0.1838758E+006  0.2350011E+01  0.7546771E-02  0.2778591E+00
         22   -1    0    0    0    0  0.00000000000E+00  0.00000000000E+00  0.26011198178E+02  0.26011198178E+02  0.00000000000E+00 0.  1.
         22   -1    0    0    0    0 -0.00000000000E+00 -0.00000000000E+00 -0.12256662604E+01  0.12256662604E+01  0.00000000000E+00 0. -1.
          4    1    1    2  501    0  0.70833078026E+00  0.18460544387E+01  0.24775631374E+02  0.24886833055E+02  0.12700000000E+01 0.  1.
         -4    1    1    2    0  501 -0.70833078026E+00 -0.18460544387E+01  0.99005433961E-02  0.23500313840E+01  0.12700000000E+01 0. -1.
<mgrwt>
<rscale>  0 0.23500105E+01</rscale>
<asrwt>0</asrwt>
<pdfrwt beam="1">0</pdfrwt>
<pdfrwt beam="2">0</pdfrwt>
<totfact> 0.38589846E+11</totfact>
</mgrwt>
</event>
<event>
 4    1  0.1838758E+006  0.3373693E+01  0.7546771E-02  0.2415831E+00
         22   -1    0    0    0    0  0.00000000000E+00  0.00000000000E+00  0.26109400883E+02  0.26109400883E+02  0.00000000000E+00 0. -1.
         22   -1    0    0    0    0 -0.00000000000E+00 -0.00000000000E+00 -0.44940671254E+00  0.44940671254E+00  0.00000000000E+00 0.  1.
          4    1    1    2  501    0  0.29158615465E+01  0.11254583557E+01  0.10530189275E+02  0.11057426971E+02  0.12700000000E+01 0.  1.
         -4    1    1    2    0  501 -0.29158615465E+01 -0.11254583557E+01  0.15129804896E+02  0.15501380624E+02  0.12700000000E+01 0. -1.
<mgrwt>
<rscale>  0 0.33736931E+01</rscale>
<asrwt>0</asrwt>
<pdfrwt beam="1">0</pdfrwt>
<pdfrwt beam="2">0</pdfrwt>
<totfact> 0.12011415E+12</totfact>
</mgrwt>
</event>
<event>
 4    1  0.1838758E+006  0.4298568E+01  0.7546771E-02  0.2223614E+00
         22   -1    0    0    0    0  0.00000000000E+00  0.00000000000E+00  0.22626277058E+01  0.22626277058E+01  0.00000000000E+00 0.  1.
         22   -1    0    0    0    0 -0.00000000000E+00 -0.00000000000E+00 -0.91061403841E+01  0.91061403841E+01  0.00000000000E+00 0. -1.
          4    1    1    2  501    0  0.44084565327E+00 -0.40829451091E+01 -0.15957446046E+01  0.45852029941E+01  0.12700000000E+01 0.  1.
         -4    1    1    2    0  501 -0.44084565327E+00  0.40829451091E+01 -0.52477680737E+01  0.67835650958E+01  0.12700000000E+01 0. -1.
<mgrwt>
<rscale>  0 0.42985679E+01</rscale>
<asrwt>0</asrwt>
<pdfrwt beam="1">0</pdfrwt>
<pdfrwt beam="2">0</pdfrwt>
<totfact> 0.69434122E+11</totfact>
</mgrwt>
</event>
<event>
 4    1  0.1838758E+006  0.2526873E+01  0.7546771E-02  0.2696800E+00
         22   -1    0    0    0    0  0.00000000000E+00  0.00000000000E+00  0.25666946939E+02  0.25666946939E+02  0.00000000000E+00 0. -1.
         22   -1    0    0    0    0 -0.00000000000E+00 -0.00000000000E+00 -0.37921548354E+00  0.37921548354E+00  0.00000000000E+00 0.  1.
          4    1    1    2  501    0 -0.20096309094E+01  0.85648598446E+00  0.20282057251E+02  0.20438858358E+02  0.12700000000E+01 0. -1.
         -4    1    1    2    0  501  0.20096309094E+01 -0.85648598446E+00  0.50056742039E+01  0.56073040643E+01  0.12700000000E+01 0.  1.
<mgrwt>
<rscale>  0 0.25268725E+01</rscale>
<asrwt>0</asrwt>
<pdfrwt beam="1">0</pdfrwt>
<pdfrwt beam="2">0</pdfrwt>
<totfact> 0.14859987E+12</totfact>
</mgrwt>
</event>
<event>
 4    1  0.1838758E+006  0.5722943E+01  0.7546771E-02  0.2045463E+00
         22   -1    0    0    0    0  0.00000000000E+00  0.00000000000E+00  0.57166443969E+02  0.57166443969E+02  0.00000000000E+00 0. -1.
         22   -1    0    0    0    0 -0.00000000000E+00 -0.00000000000E+00 -0.59264433376E+00  0.59264433376E+00  0.00000000000E+00 0.  1.
          4    1    1    2  501    0  0.14367192722E+01 -0.53921255667E+01  0.33554832960E+02  0.34039372723E+02  0.12700000000E+01 0. -1.
         -4    1    1    2    0  501 -0.14367192722E+01  0.53921255667E+01  0.23018966675E+02  0.23719715580E+02  0.12700000000E+01 0.  1.
<mgrwt>
<rscale>  0 0.57229433E+01</rscale>
<asrwt>0</asrwt>
<pdfrwt beam="1">0</pdfrwt>
<pdfrwt beam="2">0</pdfrwt>
<totfact> 0.31822481E+11</totfact>
</mgrwt>
</event>
<event>
 4    1  0.1838758E+006  0.2255208E+01  0.7546771E-02  0.2827391E+00
         22   -1    0    0    0    0  0.00000000000E+00  0.00000000000E+00  0.34585787635E+01  0.34585787635E+01  0.00000000000E+00 0. -1.
         22   -1    0    0    0    0 -0.00000000000E+00 -0.00000000000E+00 -0.40229607971E+01  0.40229607971E+01  0.00000000000E+00 0. -1.
          4    1    1    2  501    0 -0.54612113669E+00 -0.17818004302E+01  0.26974548081E+01  0.35159953798E+01  0.12700000000E+01 0. -1.
         -4    1    1    2    0  501  0.54612113669E+00  0.17818004302E+01 -0.32618368416E+01  0.39655441809E+01  0.12700000000E+01 0. -1.
<mgrwt>
<rscale>  0 0.22552075E+01</rscale>
<asrwt>0</asrwt>
<pdfrwt beam="1">0</pdfrwt>
<pdfrwt beam="2">0</pdfrwt>
<totfact> 0.11199545E+12</totfact>
</mgrwt>
</event>
<event>
 4    1  0.1838758E+006  0.2998142E+01  0.7546771E-02  0.2522768E+00
         22   -1    0    0    0    0  0.00000000000E+00  0.00000000000E+00  0.20074083597E+01  0.20074083597E+01  0.00000000000E+00 0. -1.
         22   -1    0    0    0    0 -0.00000000000E+00 -0.00000000000E+00 -0.49110721815E+01  0.49110721815E+01  0.00000000000E+00 0.  1.
          4    1    1    2  501    0 -0.22244612594E+01  0.15581160218E+01 -0.24792635338E+01  0.38904499871E+01  0.12700000000E+01 0. -1.
         -4    1    1    2    0  501  0.22244612594E+01 -0.15581160218E+01 -0.42440028806E+00  0.30280305541E+01  0.12700000000E+01 0.  1.
<mgrwt>
<rscale>  0 0.29981417E+01</rscale>
<asrwt>0</asrwt>
<pdfrwt beam="1">0</pdfrwt>
<pdfrwt beam="2">0</pdfrwt>
<totfact> 0.16678787E+12</totfact>
</mgrwt>
</event>
<event>
 4    1  0.1838758E+006  0.3340977E+01  0.7546771E-02  0.2424298E+00
         22   -1    0    0    0    0  0.00000000000E+00  0.00000000000E+00  0.11428462019E+01  0.11428462019E+01  0.00000000000E+00 0. -1.
         22   -1    0    0    0    0 -0.00000000000E+00 -0.00000000000E+00 -0.63382692682E+02  0.63382692682E+02  0.00000000000E+00 0.  1.
          4    1    1    2  501    0  0.25153144289E+01  0.17951095081E+01 -0.14468550939E+01  0.36408123386E+01  0.12700000000E+01 0. -1.
         -4    1    1    2    0  501 -0.25153144289E+01 -0.17951095081E+01 -0.60792991386E+02  0.60884726545E+02  0.12700000000E+01 0.  1.
<mgrwt>
<rscale>  0 0.33409766E+01</rscale>
<asrwt>0</asrwt>
<pdfrwt beam="1">0</pdfrwt>
<pdfrwt beam="2">0</pdfrwt>
<totfact> 0.13124938E+11</totfact>
</mgrwt>
</event>
<event>
 4    1  0.1838758E+006  0.2350195E+01  0.7546771E-02  0.2778500E+00
         22   -1    0    0    0    0  0.00000000000E+00  0.00000000000E+00  0.16338222352E+02  0.16338222352E+02  0.00000000000E+00 0.  1.
         22   -1    0    0    0    0 -0.00000000000E+00 -0.00000000000E+00 -0.47061852924E+00  0.47061852924E+00  0.00000000000E+00 0. -1.
          4    1    1    2  501    0  0.17087463257E+01 -0.99534015650E+00  0.12394115651E+02  0.12614972010E+02  0.12700000000E+01 0.  1.
         -4    1    1    2    0  501 -0.17087463257E+01  0.99534015650E+00  0.34734881714E+01  0.41938688713E+01  0.12700000000E+01 0. -1.
<mgrwt>
<rscale>  0 0.23501949E+01</rscale>
<asrwt>0</asrwt>
<pdfrwt beam="1">0</pdfrwt>
<pdfrwt beam="2">0</pdfrwt>
<totfact> 0.20479475E+12</totfact>
</mgrwt>
</event>
<event>
 4    1  0.1838758E+006  0.2231118E+01  0.7546771E-02  0.2840420E+00
         22   -1    0    0    0    0  0.00000000000E+00  0.00000000000E+00  0.82310424159E+01  0.82310424159E+01  0.00000000000E+00 0.  1.
         22   -1    0    0    0    0 -0.00000000000E+00 -0.00000000000E+00 -0.61389105433E+00  0.61389105433E+00  0.00000000000E+00 0.  1.
          4    1    1    2  501    0 -0.12710827457E+01  0.13226241050E+01  0.43476469954E+01  0.48867085310E+01  0.12700000000E+01 0.  1.
         -4    1    1    2    0  501  0.12710827457E+01 -0.13226241050E+01  0.32695043661E+01  0.39582249393E+01  0.12700000000E+01 0.  1.
<mgrwt>
<rscale>  0 0.22311176E+01</rscale>
<asrwt>0</asrwt>
<pdfrwt beam="1">0</pdfrwt>
<pdfrwt beam="2">0</pdfrwt>
<totfact> 0.34955808E+12</totfact>
</mgrwt>
</event>
<event>
 4    1  0.1838758E+006  0.2874825E+01  0.7546771E-02  0.2563280E+00
         22   -1    0    0    0    0  0.00000000000E+00  0.00000000000E+00  0.12457497919E+02  0.12457497919E+02  0.00000000000E+00 0.  1.
         22   -1    0    0    0    0 -0.00000000000E+00 -0.00000000000E+00 -0.96871398780E+00  0.96871398780E+00  0.00000000000E+00 0. -1.
          4    1    1    2  501    0 -0.20486273899E+01  0.15667935615E+01  0.95130024018E+01  0.99378987188E+01  0.12700000000E+01 0.  1.
         -4    1    1    2    0  501  0.20486273899E+01 -0.15667935615E+01  0.19757815297E+01  0.34883131883E+01  0.12700000000E+01 0. -1.
<mgrwt>
<rscale>  0 0.28748246E+01</rscale>
<asrwt>0</asrwt>
<pdfrwt beam="1">0</pdfrwt>
<pdfrwt beam="2">0</pdfrwt>
<totfact> 0.12596487E+12</totfact>
</mgrwt>
</event>
<event>
 4    1  0.1838758E+006  0.3757919E+01  0.7546771E-02  0.2326103E+00
         22   -1    0    0    0    0  0.00000000000E+00  0.00000000000E+00  0.72803617476E+00  0.72803617476E+00  0.00000000000E+00 0.  1.
         22   -1    0    0    0    0 -0.00000000000E+00 -0.00000000000E+00 -0.46306468411E+02  0.46306468411E+02  0.00000000000E+00 0. -1.
          4    1    1    2  501    0  0.34910067822E+01 -0.56738519996E+00 -0.48618831676E+01  0.61449053901E+01  0.12700000000E+01 0.  1.
         -4    1    1    2    0  501 -0.34910067822E+01  0.56738519996E+00 -0.40716549068E+02  0.40889599195E+02  0.12700000000E+01 0. -1.
<mgrwt>
<rscale>  0 0.37579189E+01</rscale>
<asrwt>0</asrwt>
<pdfrwt beam="1">0</pdfrwt>
<pdfrwt beam="2">0</pdfrwt>
<totfact> 0.33293397E+11</totfact>
</mgrwt>
</event>
<event>
 4    1  0.1838758E+006  0.2452452E+01  0.7546771E-02  0.2729871E+00
         22   -1    0    0    0    0  0.00000000000E+00  0.00000000000E+00  0.93973316570E+01  0.93973316570E+01  0.00000000000E+00 0. -1.
         22   -1    0    0    0    0 -0.00000000000E+00 -0.00000000000E+00 -0.64531489804E+00  0.64531489804E+00  0.00000000000E+00 0.  1.
          4    1    1    2  501    0  0.30908595622E+00 -0.20751111438E+01  0.48306673006E+01  0.54175517493E+01  0.12700000000E+01 0.  1.
         -4    1    1    2    0  501 -0.30908595622E+00  0.20751111438E+01  0.39213494583E+01  0.46250948057E+01  0.12700000000E+01 0.  1.
<mgrwt>
<rscale>  0 0.24524519E+01</rscale>
<asrwt>0</asrwt>
<pdfrwt beam="1">0</pdfrwt>
<pdfrwt beam="2">0</pdfrwt>
<totfact> 0.28157627E+12</totfact>
</mgrwt>
</event>
<event>
 4    1  0.1838758E+006  0.6381333E+01  0.7546771E-02  0.1987088E+00
         22   -1    0    0    0    0  0.00000000000E+00  0.00000000000E+00  0.94167909544E+00  0.94167909544E+00  0.00000000000E+00 0.  1.
         22   -1    0    0    0    0 -0.00000000000E+00 -0.00000000000E+00 -0.99381241138E+02  0.99381241138E+02  0.00000000000E+00 0. -1.
          4    1    1    2  501    0  0.62462264489E+01 -0.30522497528E+00 -0.11519393911E+02  0.13168820874E+02  0.12700000000E+01 0.  1.
         -4    1    1    2    0  501 -0.62462264489E+01  0.30522497528E+00 -0.86920168132E+02  0.87154099359E+02  0.12700000000E+01 0. -1.
<mgrwt>
<rscale>  0 0.63813327E+01</rscale>
<asrwt>0</asrwt>
<pdfrwt beam="1">0</pdfrwt>
<pdfrwt beam="2">0</pdfrwt>
<totfact> 0.88262061E+10</totfact>
</mgrwt>
</event>
<event>
 4    1  0.1838758E+006  0.3156468E+01  0.7546771E-02  0.2474933E+00
         22   -1    0    0    0    0  0.00000000000E+00  0.00000000000E+00  0.84475426866E+01  0.84475426866E+01  0.00000000000E+00 0. -1.
         22   -1    0    0    0    0 -0.00000000000E+00 -0.00000000000E+00 -0.11811026963E+01  0.11811026963E+01  0.00000000000E+00 0.  1.
          4    1    1    2  501    0 -0.28882268435E+01  0.92385204934E-01  0.34520703046E+01  0.46776146393E+01  0.12700000000E+01 0.  1.
         -4    1    1    2    0  501  0.28882268435E+01 -0.92385204934E-01  0.38143696856E+01  0.49510307436E+01  0.12700000000E+01 0. -1.
<mgrwt>
<rscale>  0 0.31564679E+01</rscale>
<asrwt>0</asrwt>
<pdfrwt beam="1">0</pdfrwt>
<pdfrwt beam="2">0</pdfrwt>
<totfact> 0.16080917E+12</totfact>
</mgrwt>
</event>
<event>
 4    1  0.1838758E+006  0.2985692E+01  0.7546771E-02  0.2526721E+00
         22   -1    0    0    0    0  0.00000000000E+00  0.00000000000E+00  0.34691335693E+00  0.34691335693E+00  0.00000000000E+00 0. -1.
         22   -1    0    0    0    0 -0.00000000000E+00 -0.00000000000E+00 -0.25889452751E+02  0.25889452751E+02  0.00000000000E+00 0.  1.
          4    1    1    2  501    0  0.21862168609E+01  0.15880532697E+01 -0.13904628675E+02  0.14221570094E+02  0.12700000000E+01 0.  1.
         -4    1    1    2    0  501 -0.21862168609E+01 -0.15880532697E+01 -0.11637910719E+02  0.12014796014E+02  0.12700000000E+01 0. -1.
<mgrwt>
<rscale>  0 0.29856921E+01</rscale>
<asrwt>0</asrwt>
<pdfrwt beam="1">0</pdfrwt>
<pdfrwt beam="2">0</pdfrwt>
<totfact> 0.16246294E+12</totfact>
</mgrwt>
</event>
<event>
 4    1  0.1838758E+006  0.3284551E+01  0.7546771E-02  0.2439249E+00
         22   -1    0    0    0    0  0.00000000000E+00  0.00000000000E+00  0.37579017522E+02  0.37579017522E+02  0.00000000000E+00 0. -1.
         22   -1    0    0    0    0 -0.00000000000E+00 -0.00000000000E+00 -0.49352902755E+00  0.49352902755E+00  0.00000000000E+00 0. -1.
          4    1    1    2  501    0 -0.28836612731E+01  0.92729408251E+00  0.30854767221E+02  0.31029098229E+02  0.12700000000E+01 0. -1.
         -4    1    1    2    0  501  0.28836612731E+01 -0.92729408251E+00  0.62307212730E+01  0.70434483199E+01  0.12700000000E+01 0. -1.
<mgrwt>
<rscale>  0 0.32845512E+01</rscale>
<asrwt>0</asrwt>
<pdfrwt beam="1">0</pdfrwt>
<pdfrwt beam="2">0</pdfrwt>
<totfact> 0.67858423E+11</totfact>
</mgrwt>
</event>
<event>
 4    1  0.1838758E+006  0.2409239E+01  0.7546771E-02  0.2749948E+00
         22   -1    0    0    0    0  0.00000000000E+00  0.00000000000E+00  0.10353026170E+01  0.10353026170E+01  0.00000000000E+00 0.  1.
         22   -1    0    0    0    0 -0.00000000000E+00 -0.00000000000E+00 -0.13613765221E+02  0.13613765221E+02  0.00000000000E+00 0. -1.
          4    1    1    2  501    0  0.20457586007E+01  0.80026224205E-01 -0.67186486695E+00  0.25011666974E+01  0.12700000000E+01 0.  1.
         -4    1    1    2    0  501 -0.20457586007E+01 -0.80026224205E-01 -0.11906597737E+02  0.12147901140E+02  0.12700000000E+01 0. -1.
<mgrwt>
<rscale>  0 0.24092390E+01</rscale>
<asrwt>0</asrwt>
<pdfrwt beam="1">0</pdfrwt>
<pdfrwt beam="2">0</pdfrwt>
<totfact> 0.10473919E+12</totfact>
</mgrwt>
</event>
