<event>
 4    1  0.3102735E+006  0.2062807E+01  0.7546771E-02  0.2939582E+00
         22   -1    0    0    0    0  0.00000000000E+00  0.00000000000E+00  0.36652477139E+01  0.36652477139E+01  0.00000000000E+00 0.  1.
         22   -1    0    0    0    0 -0.00000000000E+00 -0.00000000000E+00 -0.15035369268E+01  0.15035369268E+01  0.00000000000E+00 0.  1.
          4    1    1    2  501    0  0.10123168994E+01  0.12718047935E+01 -0.15277812876E+00  0.20684569355E+01  0.12700000000E+01 0.  1.
         -4    1    1    2    0  501 -0.10123168994E+01 -0.12718047935E+01  0.23144889159E+01  0.31003277052E+01  0.12700000000E+01 0.  1.
<mgrwt>
<rscale>  0 0.20628071E+01</rscale>
<asrwt>0</asrwt>
<pdfrwt beam="1">0</pdfrwt>
<pdfrwt beam="2">0</pdfrwt>
<totfact> 0.32866818E+12</totfact>
</mgrwt>
</event>
<event>
 4    1  0.3102735E+006  0.3207218E+01  0.7546771E-02  0.2460493E+00
         22   -1    0    0    0    0  0.00000000000E+00  0.00000000000E+00  0.13685606673E+01  0.13685606673E+01  0.00000000000E+00 0.  1.
         22   -1    0    0    0    0 -0.00000000000E+00 -0.00000000000E+00 -0.15861449393E+02  0.15861449393E+02  0.00000000000E+00 0. -1.
          4    1    1    2  501    0 -0.10693768771E+01  0.27440450680E+01 -0.13495381352E+02  0.13871249694E+02  0.12700000000E+01 0. -1.
         -4    1    1    2    0  501  0.10693768771E+01 -0.27440450680E+01 -0.99750737438E+00  0.33587603669E+01  0.12700000000E+01 0.  1.
<mgrwt>
<rscale>  0 0.32072185E+01</rscale>
<asrwt>0</asrwt>
<pdfrwt beam="1">0</pdfrwt>
<pdfrwt beam="2">0</pdfrwt>
<totfact> 0.63050140E+11</totfact>
</mgrwt>
</event>
<event>
 4    1  0.3102735E+006  0.2315362E+01  0.7546771E-02  0.2795987E+00
         22   -1    0    0    0    0  0.00000000000E+00  0.00000000000E+00  0.43460395100E+01  0.43460395100E+01  0.00000000000E+00 0.  1.
         22   -1    0    0    0    0 -0.00000000000E+00 -0.00000000000E+00 -0.12809434127E+01  0.12809434127E+01  0.00000000000E+00 0.  1.
          4    1    1    2  501    0 -0.12610045864E+01 -0.14689685288E+01  0.99116587748E+00  0.25185930402E+01  0.12700000000E+01 0.  1.
         -4    1    1    2    0  501  0.12610045864E+01  0.14689685288E+01  0.20739302198E+01  0.31083898826E+01  0.12700000000E+01 0.  1.
<mgrwt>
<rscale>  0 0.23153620E+01</rscale>
<asrwt>0</asrwt>
<pdfrwt beam="1">0</pdfrwt>
<pdfrwt beam="2">0</pdfrwt>
<totfact> 0.32334185E+12</totfact>
</mgrwt>
</event>
<event>
 4    1  0.3102735E+006  0.5201098E+01  0.7546771E-02  0.2099738E+00
         22   -1    0    0    0    0  0.00000000000E+00  0.00000000000E+00  0.13898578282E+02  0.13898578282E+02  0.00000000000E+00 0. -1.
         22   -1    0    0    0    0 -0.00000000000E+00 -0.00000000000E+00 -0.29294317645E+01  0.29294317645E+01  0.00000000000E+00 0.  1.
          4    1    1    2  501    0  0.25804717468E+01 -0.43335529117E+01  0.61032992867E+00  0.52367850726E+01  0.12700000000E+01 0.  1.
         -4    1    1    2    0  501 -0.25804717468E+01  0.43335529117E+01  0.10358816588E+02  0.11591224974E+02  0.12700000000E+01 0. -1.
<mgrwt>
<rscale>  0 0.52010975E+01</rscale>
<asrwt>0</asrwt>
<pdfrwt beam="1">0</pdfrwt>
<pdfrwt beam="2">0</pdfrwt>
<totfact> 0.30734751E+11</totfact>
</mgrwt>
</event>
<event>
 4    1  0.3102735E+006  0.2524438E+01  0.7546771E-02  0.2697853E+00
         22   -1    0    0    0    0  0.00000000000E+00  0.00000000000E+00  0.89280252569E+00  0.89280252569E+00  0.00000000000E+00 0.  1.
         22   -1    0    0    0    0 -0.00000000000E+00 -0.00000000000E+00 -0.12572291681E+02  0.12572291681E+02  0.00000000000E+00 0. -1.
          4    1    1    2  501    0  0.14288441646E+01 -0.16487245879E+01 -0.10266089578E+02  0.10571914852E+02  0.12700000000E+01 0. -1.
         -4    1    1    2    0  501 -0.14288441646E+01  0.16487245879E+01 -0.14133995773E+01  0.28931793547E+01  0.12700000000E+01 0.  1.
<mgrwt>
<rscale>  0 0.25244382E+01</rscale>
<asrwt>0</asrwt>
<pdfrwt beam="1">0</pdfrwt>
<pdfrwt beam="2">0</pdfrwt>
<totfact> 0.13670877E+12</totfact>
</mgrwt>
</event>
<event>
 4    1  0.3102735E+006  0.3216632E+01  0.7546771E-02  0.2457859E+00
         22   -1    0    0    0    0  0.00000000000E+00  0.00000000000E+00  0.65517362358E+01  0.65517362358E+01  0.00000000000E+00 0. -1.
         22   -1    0    0    0    0 -0.00000000000E+00 -0.00000000000E+00 -0.15974787364E+01  0.15974787364E+01  0.00000000000E+00 0.  1.
          4    1    1    2  501    0  0.10956246496E+01  0.27447093615E+01  0.29125807094E+01  0.43393374195E+01  0.12700000000E+01 0. -1.
         -4    1    1    2    0  501 -0.10956246496E+01 -0.27447093615E+01  0.20416767900E+01  0.38098775527E+01  0.12700000000E+01 0.  1.
<mgrwt>
<rscale>  0 0.32166322E+01</rscale>
<asrwt>0</asrwt>
<pdfrwt beam="1">0</pdfrwt>
<pdfrwt beam="2">0</pdfrwt>
<totfact> 0.15415367E+12</totfact>
</mgrwt>
</event>
<event>
 4    1  0.3102735E+006  0.8719169E+01  0.7546771E-02  0.1837368E+00
         22   -1    0    0    0    0  0.00000000000E+00  0.00000000000E+00  0.84977152979E+01  0.84977152979E+01  0.00000000000E+00 0. -1.
         22   -1    0    0    0    0 -0.00000000000E+00 -0.00000000000E+00 -0.90884208047E+01  0.90884208047E+01  0.00000000000E+00 0.  1.
          4    1    1    2  501    0  0.66564289887E+00  0.86004610846E+01  0.80385804497E+00  0.87561463609E+01  0.12700000000E+01 0. -1.
         -4    1    1    2    0  501 -0.66564289887E+00 -0.86004610846E+01 -0.13945635518E+01  0.88299897416E+01  0.12700000000E+01 0.  1.
<mgrwt>
<rscale>  0 0.87191692E+01</rscale>
<asrwt>0</asrwt>
<pdfrwt beam="1">0</pdfrwt>
<pdfrwt beam="2">0</pdfrwt>
<totfact> 0.14593744E+11</totfact>
</mgrwt>
</event>
<event>
 4    1  0.3102735E+006  0.2098198E+01  0.7546771E-02  0.2917455E+00
         22   -1    0    0    0    0  0.00000000000E+00  0.00000000000E+00  0.33566611080E+02  0.33566611080E+02  0.00000000000E+00 0.  1.
         22   -1    0    0    0    0 -0.00000000000E+00 -0.00000000000E+00 -0.33923752472E+00  0.33923752472E+00  0.00000000000E+00 0.  1.
          4    1    1    2  501    0 -0.16650306459E+01 -0.13118278445E+00  0.33363716329E+01  0.39412956813E+01  0.12700000000E+01 0.  1.
         -4    1    1    2    0  501  0.16650306459E+01  0.13118278445E+00  0.29891001923E+02  0.29964552924E+02  0.12700000000E+01 0.  1.
<mgrwt>
<rscale>  0 0.20981983E+01</rscale>
<asrwt>0</asrwt>
<pdfrwt beam="1">0</pdfrwt>
<pdfrwt beam="2">0</pdfrwt>
<totfact> 0.11968137E+12</totfact>
</mgrwt>
</event>
<event>
 4    1  0.3102735E+006  0.2140231E+01  0.7546771E-02  0.2892098E+00
         22   -1    0    0    0    0  0.00000000000E+00  0.00000000000E+00  0.70311942238E+00  0.70311942238E+00  0.00000000000E+00 0.  1.
         22   -1    0    0    0    0 -0.00000000000E+00 -0.00000000000E+00 -0.20992597627E+02  0.20992597627E+02  0.00000000000E+00 0.  1.
          4    1    1    2  501    0 -0.12043134422E+01 -0.12317940603E+01 -0.19153482107E+02  0.19272687002E+02  0.12700000000E+01 0.  1.
         -4    1    1    2    0  501  0.12043134422E+01  0.12317940603E+01 -0.11359960976E+01  0.24230300468E+01  0.12700000000E+01 0.  1.
<mgrwt>
<rscale>  0 0.21402307E+01</rscale>
<asrwt>0</asrwt>
<pdfrwt beam="1">0</pdfrwt>
<pdfrwt beam="2">0</pdfrwt>
<totfact> 0.95220018E+11</totfact>
</mgrwt>
</event>
<event>
 4    1  0.3102735E+006  0.2084029E+01  0.7546771E-02  0.2926226E+00
         22   -1    0    0    0    0  0.00000000000E+00  0.00000000000E+00  0.16700391802E+01  0.16700391802E+01  0.00000000000E+00 0. -1.
         22   -1    0    0    0    0 -0.00000000000E+00 -0.00000000000E+00 -0.27291845114E+01  0.27291845114E+01  0.00000000000E+00 0. -1.
          4    1    1    2  501    0 -0.16476097674E+01 -0.12513163073E+00 -0.10069382807E+01  0.23145411147E+01  0.12700000000E+01 0. -1.
         -4    1    1    2    0  501  0.16476097674E+01  0.12513163073E+00 -0.52207050580E-01  0.20846825769E+01  0.12700000000E+01 0. -1.
<mgrwt>
<rscale>  0 0.20840288E+01</rscale>
<asrwt>0</asrwt>
<pdfrwt beam="1">0</pdfrwt>
<pdfrwt beam="2">0</pdfrwt>
<totfact> 0.41117709E+12</totfact>
</mgrwt>
</event>
<event>
 4    1  0.3102735E+006  0.2799415E+01  0.7546771E-02  0.2589637E+00
         22   -1    0    0    0    0  0.00000000000E+00  0.00000000000E+00  0.39048963719E+02  0.39048963719E+02  0.00000000000E+00 0.  1.
         22   -1    0    0    0    0 -0.00000000000E+00 -0.00000000000E+00 -0.24667466572E+00  0.24667466572E+00  0.00000000000E+00 0. -1.
          4    1    1    2  501    0 -0.16181722105E+01 -0.18987744270E+01  0.10917940466E+02  0.11271120159E+02  0.12700000000E+01 0. -1.
         -4    1    1    2    0  501  0.16181722105E+01  0.18987744270E+01  0.27884348587E+02  0.28024518225E+02  0.12700000000E+01 0.  1.
<mgrwt>
<rscale>  0 0.27994152E+01</rscale>
<asrwt>0</asrwt>
<pdfrwt beam="1">0</pdfrwt>
<pdfrwt beam="2">0</pdfrwt>
<totfact> 0.14074782E+12</totfact>
</mgrwt>
</event>
<event>
 4    1  0.3102735E+006  0.6333574E+01  0.7546771E-02  0.1991004E+00
         22   -1    0    0    0    0  0.00000000000E+00  0.00000000000E+00  0.13451541436E+02  0.13451541436E+02  0.00000000000E+00 0.  1.
         22   -1    0    0    0    0 -0.00000000000E+00 -0.00000000000E+00 -0.29915008541E+01  0.29915008541E+01  0.00000000000E+00 0. -1.
          4    1    1    2  501    0 -0.52547665960E+01  0.32998007816E+01  0.47697118993E+01  0.79287015822E+01  0.12700000000E+01 0. -1.
         -4    1    1    2    0  501  0.52547665960E+01 -0.32998007816E+01  0.56903286824E+01  0.85143407079E+01  0.12700000000E+01 0.  1.
<mgrwt>
<rscale>  0 0.63335738E+01</rscale>
<asrwt>0</asrwt>
<pdfrwt beam="1">0</pdfrwt>
<pdfrwt beam="2">0</pdfrwt>
<totfact> 0.31217641E+11</totfact>
</mgrwt>
</event>
<event>
 4    1  0.3102735E+006  0.2345822E+01  0.7546771E-02  0.2780668E+00
         22   -1    0    0    0    0  0.00000000000E+00  0.00000000000E+00  0.15955997361E+02  0.15955997361E+02  0.00000000000E+00 0. -1.
         22   -1    0    0    0    0 -0.00000000000E+00 -0.00000000000E+00 -0.34499835162E+00  0.34499835162E+00  0.00000000000E+00 0.  1.
          4    1    1    2  501    0 -0.37597123890E+00  0.19361374963E+01  0.76536786058E+01  0.80051033084E+01  0.12700000000E+01 0. -1.
         -4    1    1    2    0  501  0.37597123890E+00 -0.19361374963E+01  0.79573204033E+01  0.82958924040E+01  0.12700000000E+01 0.  1.
<mgrwt>
<rscale>  0 0.23458224E+01</rscale>
<asrwt>0</asrwt>
<pdfrwt beam="1">0</pdfrwt>
<pdfrwt beam="2">0</pdfrwt>
<totfact> 0.29910314E+12</totfact>
</mgrwt>
</event>
<event>
 4    1  0.3102735E+006  0.3426325E+01  0.7546771E-02  0.2402507E+00
         22   -1    0    0    0    0  0.00000000000E+00  0.00000000000E+00  0.10854705987E+02  0.10854705987E+02  0.00000000000E+00 0. -1.
         22   -1    0    0    0    0 -0.00000000000E+00 -0.00000000000E+00 -0.16059853774E+01  0.16059853774E+01  0.00000000000E+00 0.  1.
          4    1    1    2  501    0  0.29122659832E+01 -0.12827743720E+01  0.10639903893E+01  0.35877261315E+01  0.12700000000E+01 0.  1.
         -4    1    1    2    0  501 -0.29122659832E+01  0.12827743720E+01  0.81847302200E+01  0.88729652327E+01  0.12700000000E+01 0. -1.
<mgrwt>
<rscale>  0 0.34263250E+01</rscale>
<asrwt>0</asrwt>
<pdfrwt beam="1">0</pdfrwt>
<pdfrwt beam="2">0</pdfrwt>
<totfact> 0.83437101E+11</totfact>
</mgrwt>
</event>
<event>
 4    1  0.3102735E+006  0.7267039E+01  0.7546771E-02  0.1921777E+00
         22   -1    0    0    0    0  0.00000000000E+00  0.00000000000E+00  0.70592623425E+02  0.70592623425E+02  0.00000000000E+00 0. -1.
         22   -1    0    0    0    0 -0.00000000000E+00 -0.00000000000E+00 -0.18752267702E+01  0.18752267702E+01  0.00000000000E+00 0.  1.
          4    1    1    2  501    0 -0.36154088557E+01 -0.61746070692E+01  0.62671162263E+01  0.95961762930E+01  0.12700000000E+01 0.  1.
         -4    1    1    2    0  501  0.36154088557E+01  0.61746070692E+01  0.62450280429E+02  0.62871673902E+02  0.12700000000E+01 0. -1.
<mgrwt>
<rscale>  0 0.72670389E+01</rscale>
<asrwt>0</asrwt>
<pdfrwt beam="1">0</pdfrwt>
<pdfrwt beam="2">0</pdfrwt>
<totfact> 0.64197852E+10</totfact>
</mgrwt>
</event>
<event>
 4    1  0.3102735E+006  0.2146258E+01  0.7546771E-02  0.2888541E+00
         22   -1    0    0    0    0  0.00000000000E+00  0.00000000000E+00  0.16889503231E+00  0.16889503231E+00  0.00000000000E+00 0.  1.
         22   -1    0    0    0    0 -0.00000000000E+00 -0.00000000000E+00 -0.27277147851E+02  0.27277147851E+02  0.00000000000E+00 0.  1.
          4    1    1    2  501    0 -0.15998719424E+01 -0.65873546409E+00 -0.13704357612E+02  0.13871403685E+02  0.12700000000E+01 0.  1.
         -4    1    1    2    0  501  0.15998719424E+01  0.65873546409E+00 -0.13403895207E+02  0.13574639198E+02  0.12700000000E+01 0.  1.
<mgrwt>
<rscale>  0 0.21462578E+01</rscale>
<asrwt>0</asrwt>
<pdfrwt beam="1">0</pdfrwt>
<pdfrwt beam="2">0</pdfrwt>
<totfact> 0.34008269E+12</totfact>
</mgrwt>
</event>
<event>
 4    1  0.3102735E+006  0.2114422E+01  0.7546771E-02  0.2907552E+00
         22   -1    0    0    0    0  0.00000000000E+00  0.00000000000E+00  0.20098181190E+02  0.20098181190E+02  0.00000000000E+00 0.  1.
         22   -1    0    0    0    0 -0.00000000000E+00 -0.00000000000E+00 -0.32600712415E+00  0.32600712415E+00  0.00000000000E+00 0. -1.
          4    1    1    2  501    0 -0.13093038045E+01 -0.10693948606E+01  0.41303973903E+01  0.46401470259E+01  0.12700000000E+01 0. -1.
         -4    1    1    2    0  501  0.13093038045E+01  0.10693948606E+01  0.15641776675E+02  0.15784041288E+02  0.12700000000E+01 0.  1.
<mgrwt>
<rscale>  0 0.21144223E+01</rscale>
<asrwt>0</asrwt>
<pdfrwt beam="1">0</pdfrwt>
<pdfrwt beam="2">0</pdfrwt>
<totfact> 0.23937244E+12</totfact>
</mgrwt>
</event>
<event>
 4    1  0.3102735E+006  0.2063367E+01  0.7546771E-02  0.2939226E+00
         22   -1    0    0    0    0  0.00000000000E+00  0.00000000000E+00  0.26249930159E+00  0.26249930159E+00  0.00000000000E+00 0.  1.
         22   -1    0    0    0    0 -0.00000000000E+00 -0.00000000000E+00 -0.18743675701E+02  0.18743675701E+02  0.00000000000E+00 0. -1.
          4    1    1    2  501    0 -0.42225111568E+00  0.15704422557E+01 -0.12728273519E+02  0.12894434135E+02  0.12700000000E+01 0. -1.
         -4    1    1    2    0  501  0.42225111568E+00 -0.15704422557E+01 -0.57529028803E+01  0.61117408676E+01  0.12700000000E+01 0.  1.
<mgrwt>
<rscale>  0 0.20633674E+01</rscale>
<asrwt>0</asrwt>
<pdfrwt beam="1">0</pdfrwt>
<pdfrwt beam="2">0</pdfrwt>
<totfact> 0.33286784E+12</totfact>
</mgrwt>
</event>
<event>
 4    1  0.3102735E+006  0.2173630E+01  0.7546771E-02  0.2872625E+00
         22   -1    0    0    0    0  0.00000000000E+00  0.00000000000E+00  0.40043468342E+00  0.40043468342E+00  0.00000000000E+00 0. -1.
         22   -1    0    0    0    0 -0.00000000000E+00 -0.00000000000E+00 -0.11960831356E+02  0.11960831356E+02  0.00000000000E+00 0.  1.
          4    1    1    2  501    0 -0.86110170336E+00 -0.15395683076E+01 -0.50609288415E+01  0.55079640028E+01  0.12700000000E+01 0.  1.
         -4    1    1    2    0  501  0.86110170336E+00  0.15395683076E+01 -0.64994678306E+01  0.68533020361E+01  0.12700000000E+01 0. -1.
<mgrwt>
<rscale>  0 0.21736298E+01</rscale>
<asrwt>0</asrwt>
<pdfrwt beam="1">0</pdfrwt>
<pdfrwt beam="2">0</pdfrwt>
<totfact> 0.36019461E+12</totfact>
</mgrwt>
</event>
<event>
 4    1  0.3102735E+006  0.3667526E+01  0.7546771E-02  0.2345741E+00
         22   -1    0    0    0    0  0.00000000000E+00  0.00000000000E+00  0.28660441362E+02  0.28660441362E+02  0.00000000000E+00 0.  1.
         22   -1    0    0    0    0 -0.00000000000E+00 -0.00000000000E+00 -0.52195779006E+00  0.52195779006E+00  0.00000000000E+00 0. -1.
          4    1    1    2  501    0  0.98420784541E+00  0.32968437284E+01  0.94353352261E+01  0.10123057566E+02  0.12700000000E+01 0. -1.
         -4    1    1    2    0  501 -0.98420784541E+00 -0.32968437284E+01  0.18703148346E+02  0.19059341586E+02  0.12700000000E+01 0. -1.
<mgrwt>
<rscale>  0 0.36675255E+01</rscale>
<asrwt>0</asrwt>
<pdfrwt beam="1">0</pdfrwt>
<pdfrwt beam="2">0</pdfrwt>
<totfact> 0.90138639E+11</totfact>
</mgrwt>
</event>
<event>
 4    1  0.3102735E+006  0.2062222E+01  0.7546771E-02  0.2939954E+00
         22   -1    0    0    0    0  0.00000000000E+00  0.00000000000E+00  0.18532771122E+01  0.18532771122E+01  0.00000000000E+00 0. -1.
         22   -1    0    0    0    0 -0.00000000000E+00 -0.00000000000E+00 -0.28637937874E+01  0.28637937874E+01  0.00000000000E+00 0.  1.
          4    1    1    2  501    0 -0.13744009327E+01  0.86653312850E+00 -0.15566261786E+01  0.25837652073E+01  0.12700000000E+01 0.  1.
         -4    1    1    2    0  501  0.13744009327E+01 -0.86653312850E+00  0.54610950341E+00  0.21333056922E+01  0.12700000000E+01 0. -1.
<mgrwt>
<rscale>  0 0.20622215E+01</rscale>
<asrwt>0</asrwt>
<pdfrwt beam="1">0</pdfrwt>
<pdfrwt beam="2">0</pdfrwt>
<totfact> 0.34470648E+12</totfact>
</mgrwt>
</event>
<event>
 4    1  0.3102735E+006  0.3616114E+01  0.7546771E-02  0.2357288E+00
         22   -1    0    0    0    0  0.00000000000E+00  0.00000000000E+00  0.19674655102E+02  0.19674655102E+02  0.00000000000E+00 0. -1.
         22   -1    0    0    0    0 -0.00000000000E+00 -0.00000000000E+00 -0.91940244029E+00  0.91940244029E+00  0.00000000000E+00 0.  1.
          4    1    1    2  501    0 -0.33671951814E+01 -0.35408773078E+00  0.39571308760E+01  0.53605192174E+01  0.12700000000E+01 0.  1.
         -4    1    1    2    0  501  0.33671951814E+01  0.35408773078E+00  0.14798121785E+02  0.15233538325E+02  0.12700000000E+01 0. -1.
<mgrwt>
<rscale>  0 0.36161141E+01</rscale>
<asrwt>0</asrwt>
<pdfrwt beam="1">0</pdfrwt>
<pdfrwt beam="2">0</pdfrwt>
<totfact> 0.76101424E+11</totfact>
</mgrwt>
</event>
<event>
 4    1  0.3102735E+006  0.2599838E+01  0.7546771E-02  0.2666086E+00
         22   -1    0    0    0    0  0.00000000000E+00  0.00000000000E+00  0.15437367249E+02  0.15437367249E+02  0.00000000000E+00 0. -1.
         22   -1    0    0    0    0 -0.00000000000E+00 -0.00000000000E+00 -0.43798030948E+00  0.43798030948E+00  0.00000000000E+00 0.  1.
          4    1    1    2  501    0 -0.22427640359E+01  0.34098327290E+00  0.76396765189E+01  0.80699329258E+01  0.12700000000E+01 0. -1.
         -4    1    1    2    0  501  0.22427640359E+01 -0.34098327290E+00  0.73597104209E+01  0.78054146330E+01  0.12700000000E+01 0.  1.
<mgrwt>
<rscale>  0 0.25998385E+01</rscale>
<asrwt>0</asrwt>
<pdfrwt beam="1">0</pdfrwt>
<pdfrwt beam="2">0</pdfrwt>
<totfact> 0.23818569E+12</totfact>
</mgrwt>
</event>
<event>
 4    1  0.3102735E+006  0.3137136E+01  0.7546771E-02  0.2480543E+00
         22   -1    0    0    0    0  0.00000000000E+00  0.00000000000E+00  0.65587787486E+01  0.65587787486E+01  0.00000000000E+00 0.  1.
         22   -1    0    0    0    0 -0.00000000000E+00 -0.00000000000E+00 -0.32268700985E+01  0.32268700985E+01  0.00000000000E+00 0. -1.
          4    1    1    2  501    0 -0.28186947684E+01 -0.53261895395E+00 -0.19128048509E+01  0.36742952447E+01  0.12700000000E+01 0.  1.
         -4    1    1    2    0  501  0.28186947684E+01  0.53261895395E+00  0.52447135009E+01  0.61113536024E+01  0.12700000000E+01 0. -1.
<mgrwt>
<rscale>  0 0.31371361E+01</rscale>
<asrwt>0</asrwt>
<pdfrwt beam="1">0</pdfrwt>
<pdfrwt beam="2">0</pdfrwt>
<totfact> 0.68067691E+11</totfact>
</mgrwt>
</event>
<event>
 4    1  0.3102735E+006  0.2694291E+01  0.7546771E-02  0.2628613E+00
         22   -1    0    0    0    0  0.00000000000E+00  0.00000000000E+00  0.46461836163E+01  0.46461836163E+01  0.00000000000E+00 0.  1.
         22   -1    0    0    0    0 -0.00000000000E+00 -0.00000000000E+00 -0.30355641719E+01  0.30355641719E+01  0.00000000000E+00 0. -1.
          4    1    1    2  501    0  0.40161977238E+00 -0.23420091405E+01 -0.18703794445E+01  0.32798665403E+01  0.12700000000E+01 0. -1.
         -4    1    1    2    0  501 -0.40161977238E+00  0.23420091405E+01  0.34809988889E+01  0.44018812479E+01  0.12700000000E+01 0.  1.
<mgrwt>
<rscale>  0 0.26942912E+01</rscale>
<asrwt>0</asrwt>
<pdfrwt beam="1">0</pdfrwt>
<pdfrwt beam="2">0</pdfrwt>
<totfact> 0.11009591E+12</totfact>
</mgrwt>
</event>
<event>
 4    1  0.3102735E+006  0.2251208E+01  0.7546771E-02  0.2829536E+00
         22   -1    0    0    0    0  0.00000000000E+00  0.00000000000E+00  0.32079777852E+01  0.32079777852E+01  0.00000000000E+00 0. -1.
         22   -1    0    0    0    0 -0.00000000000E+00 -0.00000000000E+00 -0.34600451939E+01  0.34600451939E+01  0.00000000000E+00 0.  1.
          4    1    1    2  501    0  0.23923279092E+00 -0.18433133522E+01 -0.25837650989E+01  0.34269196852E+01  0.12700000000E+01 0.  1.
         -4    1    1    2    0  501 -0.23923279092E+00  0.18433133522E+01  0.23316976902E+01  0.32411032938E+01  0.12700000000E+01 0. -1.
<mgrwt>
<rscale>  0 0.22512078E+01</rscale>
<asrwt>0</asrwt>
<pdfrwt beam="1">0</pdfrwt>
<pdfrwt beam="2">0</pdfrwt>
<totfact> 0.14600030E+12</totfact>
</mgrwt>
</event>
<event>
 4    1  0.3102735E+006  0.2346961E+01  0.7546771E-02  0.2780103E+00
         22   -1    0    0    0    0  0.00000000000E+00  0.00000000000E+00  0.24169298582E+00  0.24169298582E+00  0.00000000000E+00 0.  1.
         22   -1    0    0    0    0 -0.00000000000E+00 -0.00000000000E+00 -0.36739715779E+02  0.36739715779E+02  0.00000000000E+00 0. -1.
          4    1    1    2  501    0 -0.15193472910E+01  0.12597263755E+01 -0.29642728490E+02  0.29735493590E+02  0.12700000000E+01 0. -1.
         -4    1    1    2    0  501  0.15193472910E+01 -0.12597263755E+01 -0.68552943032E+01  0.72459151744E+01  0.12700000000E+01 0.  1.
<mgrwt>
<rscale>  0 0.23469612E+01</rscale>
<asrwt>0</asrwt>
<pdfrwt beam="1">0</pdfrwt>
<pdfrwt beam="2">0</pdfrwt>
<totfact> 0.15579968E+12</totfact>
</mgrwt>
</event>
<event>
 4    1  0.3102735E+006  0.2466597E+01  0.7546771E-02  0.2723442E+00
         22   -1    0    0    0    0  0.00000000000E+00  0.00000000000E+00  0.44095300734E+01  0.44095300734E+01  0.00000000000E+00 0.  1.
         22   -1    0    0    0    0 -0.00000000000E+00 -0.00000000000E+00 -0.19798518226E+01  0.19798518226E+01  0.00000000000E+00 0. -1.
          4    1    1    2  501    0 -0.21144218399E+01  0.20563646459E-01 -0.54397762499E+00  0.25258690064E+01  0.12700000000E+01 0. -1.
         -4    1    1    2    0  501  0.21144218399E+01 -0.20563646459E-01  0.29736558758E+01  0.38635128896E+01  0.12700000000E+01 0.  1.
<mgrwt>
<rscale>  0 0.24665974E+01</rscale>
<asrwt>0</asrwt>
<pdfrwt beam="1">0</pdfrwt>
<pdfrwt beam="2">0</pdfrwt>
<totfact> 0.19247852E+12</totfact>
</mgrwt>
</event>
<event>
 4    1  0.3102735E+006  0.2413066E+01  0.7546771E-02  0.2748143E+00
         22   -1    0    0    0    0  0.00000000000E+00  0.00000000000E+00  0.11435815069E+02  0.11435815069E+02  0.00000000000E+00 0. -1.
         22   -1    0    0    0    0 -0.00000000000E+00 -0.00000000000E+00 -0.22491641134E+01  0.22491641134E+01  0.00000000000E+00 0.  1.
          4    1    1    2  501    0 -0.79854317213E+00 -0.18900569929E+01 -0.14250077798E+01  0.28024157091E+01  0.12700000000E+01 0.  1.
         -4    1    1    2    0  501  0.79854317213E+00  0.18900569929E+01  0.10611658736E+02  0.10882563474E+02  0.12700000000E+01 0. -1.
<mgrwt>
<rscale>  0 0.24130658E+01</rscale>
<asrwt>0</asrwt>
<pdfrwt beam="1">0</pdfrwt>
<pdfrwt beam="2">0</pdfrwt>
<totfact> 0.53048437E+11</totfact>
</mgrwt>
</event>
<event>
 4    1  0.3102735E+006  0.2497946E+01  0.7546771E-02  0.2709437E+00
         22   -1    0    0    0    0  0.00000000000E+00  0.00000000000E+00  0.34549124193E+01  0.34549124193E+01  0.00000000000E+00 0. -1.
         22   -1    0    0    0    0 -0.00000000000E+00 -0.00000000000E+00 -0.11750939825E+02  0.11750939825E+02  0.00000000000E+00 0.  1.
          4    1    1    2  501    0 -0.21136615435E+01 -0.39908276732E+00 -0.11142318205E+02  0.11418887300E+02  0.12700000000E+01 0.  1.
         -4    1    1    2    0  501  0.21136615435E+01  0.39908276732E+00  0.28462907996E+01  0.37869649446E+01  0.12700000000E+01 0. -1.
<mgrwt>
<rscale>  0 0.24979456E+01</rscale>
<asrwt>0</asrwt>
<pdfrwt beam="1">0</pdfrwt>
<pdfrwt beam="2">0</pdfrwt>
<totfact> 0.31110070E+11</totfact>
</mgrwt>
</event>
<event>
 4    1  0.3102735E+006  0.2535085E+01  0.7546771E-02  0.2693261E+00
         22   -1    0    0    0    0  0.00000000000E+00  0.00000000000E+00  0.17886828805E+01  0.17886828805E+01  0.00000000000E+00 0.  1.
         22   -1    0    0    0    0 -0.00000000000E+00 -0.00000000000E+00 -0.93615213174E+01  0.93615213174E+01  0.00000000000E+00 0. -1.
          4    1    1    2  501    0  0.91633349577E+00 -0.19935118797E+01 -0.81627844935E+01  0.85473801470E+01  0.12700000000E+01 0. -1.
         -4    1    1    2    0  501 -0.91633349577E+00  0.19935118797E+01  0.58994605662E+00  0.26028240509E+01  0.12700000000E+01 0.  1.
<mgrwt>
<rscale>  0 0.25350851E+01</rscale>
<asrwt>0</asrwt>
<pdfrwt beam="1">0</pdfrwt>
<pdfrwt beam="2">0</pdfrwt>
<totfact> 0.88150849E+11</totfact>
</mgrwt>
</event>
<event>
 4    1  0.3102735E+006  0.2180099E+01  0.7546771E-02  0.2868920E+00
         22   -1    0    0    0    0  0.00000000000E+00  0.00000000000E+00  0.10650126779E+00  0.10650126779E+00  0.00000000000E+00 0. -1.
         22   -1    0    0    0    0 -0.00000000000E+00 -0.00000000000E+00 -0.63071860522E+02  0.63071860522E+02  0.00000000000E+00 0.  1.
          4    1    1    2  501    0  0.26871965665E+00  0.17514915736E+01 -0.48565443231E+02  0.48614350856E+02  0.12700000000E+01 0.  1.
         -4    1    1    2    0  501 -0.26871965665E+00 -0.17514915736E+01 -0.14399916023E+02  0.14564010933E+02  0.12700000000E+01 0. -1.
<mgrwt>
<rscale>  0 0.21800993E+01</rscale>
<asrwt>0</asrwt>
<pdfrwt beam="1">0</pdfrwt>
<pdfrwt beam="2">0</pdfrwt>
<totfact> 0.19044181E+12</totfact>
</mgrwt>
</event>
<event>
 4    1  0.3102735E+006  0.3358189E+01  0.7546771E-02  0.2419825E+00
         22   -1    0    0    0    0  0.00000000000E+00  0.00000000000E+00  0.57222545165E+00  0.57222545165E+00  0.00000000000E+00 0.  1.
         22   -1    0    0    0    0 -0.00000000000E+00 -0.00000000000E+00 -0.27339263418E+02  0.27339263418E+02  0.00000000000E+00 0. -1.
          4    1    1    2  501    0 -0.31071806577E+01 -0.99812386051E-01 -0.20756737109E+02  0.21026639522E+02  0.12700000000E+01 0. -1.
         -4    1    1    2    0  501  0.31071806577E+01  0.99812386051E-01 -0.60103008574E+01  0.68848493483E+01  0.12700000000E+01 0.  1.
<mgrwt>
<rscale>  0 0.33581891E+01</rscale>
<asrwt>0</asrwt>
<pdfrwt beam="1">0</pdfrwt>
<pdfrwt beam="2">0</pdfrwt>
<totfact> 0.86252770E+11</totfact>
</mgrwt>
</event>
<event>
 4    1  0.3102735E+006  0.3557377E+01  0.7546771E-02  0.2370834E+00
         22   -1    0    0    0    0  0.00000000000E+00  0.00000000000E+00  0.15241307872E+01  0.15241307872E+01  0.00000000000E+00 0.  1.
         22   -1    0    0    0    0 -0.00000000000E+00 -0.00000000000E+00 -0.98147269886E+01  0.98147269886E+01  0.00000000000E+00 0. -1.
          4    1    1    2  501    0  0.33069387675E+01  0.32586021095E+00 -0.63702990253E+01  0.72962756637E+01  0.12700000000E+01 0. -1.
         -4    1    1    2    0  501 -0.33069387675E+01 -0.32586021095E+00 -0.19202971762E+01  0.40425821122E+01  0.12700000000E+01 0.  1.
<mgrwt>
<rscale>  0 0.35573767E+01</rscale>
<asrwt>0</asrwt>
<pdfrwt beam="1">0</pdfrwt>
<pdfrwt beam="2">0</pdfrwt>
<totfact> 0.10012663E+12</totfact>
</mgrwt>
</event>
<event>
 4    1  0.3102735E+006  0.2385806E+01  0.7546771E-02  0.2761120E+00
         22   -1    0    0    0    0  0.00000000000E+00  0.00000000000E+00  0.23656688471E+00  0.23656688471E+00  0.00000000000E+00 0. -1.
         22   -1    0    0    0    0 -0.00000000000E+00 -0.00000000000E+00 -0.24480805279E+02  0.24480805279E+02  0.00000000000E+00 0. -1.
          4    1    1    2  501    0 -0.87811838040E+00 -0.18188128813E+01 -0.13740213585E+02  0.13945807311E+02  0.12700000000E+01 0. -1.
         -4    1    1    2    0  501  0.87811838040E+00  0.18188128813E+01 -0.10504024809E+02  0.10771564853E+02  0.12700000000E+01 0. -1.
<mgrwt>
<rscale>  0 0.23858064E+01</rscale>
<asrwt>0</asrwt>
<pdfrwt beam="1">0</pdfrwt>
<pdfrwt beam="2">0</pdfrwt>
<totfact> 0.26774064E+12</totfact>
</mgrwt>
</event>
<event>
 4    1  0.3102735E+006  0.2437046E+01  0.7546771E-02  0.2736952E+00
         22   -1    0    0    0    0  0.00000000000E+00  0.00000000000E+00  0.50548432103E+00  0.50548432103E+00  0.00000000000E+00 0.  1.
         22   -1    0    0    0    0 -0.00000000000E+00 -0.00000000000E+00 -0.21508367292E+02  0.21508367292E+02  0.00000000000E+00 0. -1.
          4    1    1    2  501    0 -0.20007609901E+01  0.56855072955E+00 -0.17915597824E+02  0.18080592907E+02  0.12700000000E+01 0. -1.
         -4    1    1    2    0  501  0.20007609901E+01 -0.56855072955E+00 -0.30872851472E+01  0.39332587064E+01  0.12700000000E+01 0.  1.
<mgrwt>
<rscale>  0 0.24370463E+01</rscale>
<asrwt>0</asrwt>
<pdfrwt beam="1">0</pdfrwt>
<pdfrwt beam="2">0</pdfrwt>
<totfact> 0.13422885E+12</totfact>
</mgrwt>
</event>
<event>
 4    1  0.3102735E+006  0.2558019E+01  0.7546771E-02  0.2683491E+00
         22   -1    0    0    0    0  0.00000000000E+00  0.00000000000E+00  0.36210554489E+00  0.36210554489E+00  0.00000000000E+00 0. -1.
         22   -1    0    0    0    0 -0.00000000000E+00 -0.00000000000E+00 -0.18682965623E+02  0.18682965623E+02  0.00000000000E+00 0. -1.
          4    1    1    2  501    0  0.22188098722E+01  0.86266789720E-01 -0.10884441865E+02  0.11180989846E+02  0.12700000000E+01 0. -1.
         -4    1    1    2    0  501 -0.22188098722E+01 -0.86266789720E-01 -0.74364182132E+01  0.78640813226E+01  0.12700000000E+01 0. -1.
<mgrwt>
<rscale>  0 0.25580186E+01</rscale>
<asrwt>0</asrwt>
<pdfrwt beam="1">0</pdfrwt>
<pdfrwt beam="2">0</pdfrwt>
<totfact> 0.23300057E+12</totfact>
</mgrwt>
</event>
<event>
 4    1  0.3102735E+006  0.2241771E+01  0.7546771E-02  0.2834626E+00
         22   -1    0    0    0    0  0.00000000000E+00  0.00000000000E+00  0.24826348465E+01  0.24826348465E+01  0.00000000000E+00 0.  1.
         22   -1    0    0    0    0 -0.00000000000E+00 -0.00000000000E+00 -0.72267285746E+01  0.72267285746E+01  0.00000000000E+00 0. -1.
          4    1    1    2  501    0 -0.11766566807E+01 -0.14241201142E+01 -0.64910672299E+01  0.68672769587E+01  0.12700000000E+01 0. -1.
         -4    1    1    2    0  501  0.11766566807E+01  0.14241201142E+01  0.17469735018E+01  0.28420864624E+01  0.12700000000E+01 0.  1.
<mgrwt>
<rscale>  0 0.22417714E+01</rscale>
<asrwt>0</asrwt>
<pdfrwt beam="1">0</pdfrwt>
<pdfrwt beam="2">0</pdfrwt>
<totfact> 0.82300006E+11</totfact>
</mgrwt>
</event>
<event>
 4    1  0.3102735E+006  0.2483937E+01  0.7546771E-02  0.2715654E+00
         22   -1    0    0    0    0  0.00000000000E+00  0.00000000000E+00  0.55221952925E+02  0.55221952925E+02  0.00000000000E+00 0. -1.
         22   -1    0    0    0    0 -0.00000000000E+00 -0.00000000000E+00 -0.67368739325E+00  0.67368739325E+00  0.00000000000E+00 0.  1.
          4    1    1    2  501    0  0.21272864601E+01  0.17803330962E+00  0.17488559177E+01  0.30378348480E+01  0.12700000000E+01 0.  1.
         -4    1    1    2    0  501 -0.21272864601E+01 -0.17803330962E+00  0.52799409614E+02  0.52857805470E+02  0.12700000000E+01 0. -1.
<mgrwt>
<rscale>  0 0.24839371E+01</rscale>
<asrwt>0</asrwt>
<pdfrwt beam="1">0</pdfrwt>
<pdfrwt beam="2">0</pdfrwt>
<totfact> 0.28816353E+11</totfact>
</mgrwt>
</event>
<event>
 4    1  0.3102735E+006  0.2018159E+01  0.7546771E-02  0.2968575E+00
         22   -1    0    0    0    0  0.00000000000E+00  0.00000000000E+00  0.44532024693E+00  0.44532024693E+00  0.00000000000E+00 0. -1.
         22   -1    0    0    0    0 -0.00000000000E+00 -0.00000000000E+00 -0.95188229328E+01  0.95188229328E+01  0.00000000000E+00 0.  1.
          4    1    1    2  501    0 -0.15575555814E+01 -0.18462450512E+00 -0.55225370117E+01  0.58797432463E+01  0.12700000000E+01 0.  1.
         -4    1    1    2    0  501  0.15575555814E+01  0.18462450512E+00 -0.35509656741E+01  0.40843999334E+01  0.12700000000E+01 0. -1.
<mgrwt>
<rscale>  0 0.20181590E+01</rscale>
<asrwt>0</asrwt>
<pdfrwt beam="1">0</pdfrwt>
<pdfrwt beam="2">0</pdfrwt>
<totfact> 0.42162863E+12</totfact>
</mgrwt>
</event>
<event>
 4    1  0.3102735E+006  0.2006689E+01  0.7546771E-02  0.2976227E+00
         22   -1    0    0    0    0  0.00000000000E+00  0.00000000000E+00  0.24930436933E+01  0.24930436933E+01  0.00000000000E+00 0.  1.
         22   -1    0    0    0    0 -0.00000000000E+00 -0.00000000000E+00 -0.48290741335E+01  0.48290741335E+01  0.00000000000E+00 0.  1.
          4    1    1    2  501    0 -0.15399146395E+01  0.20630832315E+00 -0.41546920754E+01  0.46139209424E+01  0.12700000000E+01 0.  1.
         -4    1    1    2    0  501  0.15399146395E+01 -0.20630832315E+00  0.18186616352E+01  0.27081968843E+01  0.12700000000E+01 0.  1.
<mgrwt>
<rscale>  0 0.20066889E+01</rscale>
<asrwt>0</asrwt>
<pdfrwt beam="1">0</pdfrwt>
<pdfrwt beam="2">0</pdfrwt>
<totfact> 0.13230836E+12</totfact>
</mgrwt>
</event>
<event>
 4    1  0.3102735E+006  0.3934354E+01  0.7546771E-02  0.2290021E+00
         22   -1    0    0    0    0  0.00000000000E+00  0.00000000000E+00  0.25895271814E+01  0.25895271814E+01  0.00000000000E+00 0. -1.
         22   -1    0    0    0    0 -0.00000000000E+00 -0.00000000000E+00 -0.11024991752E+02  0.11024991752E+02  0.00000000000E+00 0.  1.
          4    1    1    2  501    0  0.10183458748E+01  0.35817890410E+01 -0.88236582304E+01  0.96610602742E+01  0.12700000000E+01 0.  1.
         -4    1    1    2    0  501 -0.10183458748E+01 -0.35817890410E+01  0.38819365953E+00  0.39534586595E+01  0.12700000000E+01 0. -1.
<mgrwt>
<rscale>  0 0.39343540E+01</rscale>
<asrwt>0</asrwt>
<pdfrwt beam="1">0</pdfrwt>
<pdfrwt beam="2">0</pdfrwt>
<totfact> 0.47085169E+11</totfact>
</mgrwt>
</event>
<event>
 4    1  0.3102735E+006  0.2421482E+01  0.7546771E-02  0.2744192E+00
         22   -1    0    0    0    0  0.00000000000E+00  0.00000000000E+00  0.22113943257E+01  0.22113943257E+01  0.00000000000E+00 0.  1.
         22   -1    0    0    0    0 -0.00000000000E+00 -0.00000000000E+00 -0.51642109071E+01  0.51642109071E+01  0.00000000000E+00 0. -1.
          4    1    1    2  501    0  0.27248824399E+00 -0.20436298164E+01 -0.40487850457E+01  0.47176512181E+01  0.12700000000E+01 0. -1.
         -4    1    1    2    0  501 -0.27248824399E+00  0.20436298164E+01  0.10959684643E+01  0.26579540147E+01  0.12700000000E+01 0.  1.
<mgrwt>
<rscale>  0 0.24214815E+01</rscale>
<asrwt>0</asrwt>
<pdfrwt beam="1">0</pdfrwt>
<pdfrwt beam="2">0</pdfrwt>
<totfact> 0.14047525E+12</totfact>
</mgrwt>
</event>
<event>
 4    1  0.3102735E+006  0.3367658E+01  0.7546771E-02  0.2417382E+00
         22   -1    0    0    0    0  0.00000000000E+00  0.00000000000E+00  0.77738167596E+02  0.77738167596E+02  0.00000000000E+00 0. -1.
         22   -1    0    0    0    0 -0.00000000000E+00 -0.00000000000E+00 -0.14868237105E+00  0.14868237105E+00  0.00000000000E+00 0.  1.
          4    1    1    2  501    0  0.30138738901E+01  0.80298347239E+00  0.44132931868E+02  0.44261233529E+02  0.12700000000E+01 0. -1.
         -4    1    1    2    0  501 -0.30138738901E+01 -0.80298347239E+00  0.33456553357E+02  0.33625616437E+02  0.12700000000E+01 0.  1.
<mgrwt>
<rscale>  0 0.33676577E+01</rscale>
<asrwt>0</asrwt>
<pdfrwt beam="1">0</pdfrwt>
<pdfrwt beam="2">0</pdfrwt>
<totfact> 0.99035389E+11</totfact>
</mgrwt>
</event>
<event>
 4    1  0.3102735E+006  0.2532371E+01  0.7546771E-02  0.2694429E+00
         22   -1    0    0    0    0  0.00000000000E+00  0.00000000000E+00  0.23650044554E+01  0.23650044554E+01  0.00000000000E+00 0.  1.
         22   -1    0    0    0    0 -0.00000000000E+00 -0.00000000000E+00 -0.27751486437E+01  0.27751486437E+01  0.00000000000E+00 0. -1.
          4    1    1    2  501    0 -0.13134986319E+00 -0.21869499782E+01 -0.59404407823E+00  0.26011134848E+01  0.12700000000E+01 0.  1.
         -4    1    1    2    0  501  0.13134986319E+00  0.21869499782E+01  0.18389988991E+00  0.25390396144E+01  0.12700000000E+01 0. -1.
<mgrwt>
<rscale>  0 0.25323710E+01</rscale>
<asrwt>0</asrwt>
<pdfrwt beam="1">0</pdfrwt>
<pdfrwt beam="2">0</pdfrwt>
<totfact> 0.26960170E+12</totfact>
</mgrwt>
</event>
<event>
 4    1  0.3102735E+006  0.2555939E+01  0.7546771E-02  0.2684370E+00
         22   -1    0    0    0    0  0.00000000000E+00  0.00000000000E+00  0.24251165822E+00  0.24251165822E+00  0.00000000000E+00 0.  1.
         22   -1    0    0    0    0 -0.00000000000E+00 -0.00000000000E+00 -0.27564538742E+02  0.27564538742E+02  0.00000000000E+00 0. -1.
          4    1    1    2  501    0  0.15505427051E+00 -0.22126643892E+01 -0.15756848581E+02  0.15962803724E+02  0.12700000000E+01 0. -1.
         -4    1    1    2    0  501 -0.15505427051E+00  0.22126643892E+01 -0.11565178502E+02  0.11844246675E+02  0.12700000000E+01 0.  1.
<mgrwt>
<rscale>  0 0.25559393E+01</rscale>
<asrwt>0</asrwt>
<pdfrwt beam="1">0</pdfrwt>
<pdfrwt beam="2">0</pdfrwt>
<totfact> 0.22415165E+12</totfact>
</mgrwt>
</event>
<event>
 4    1  0.3102735E+006  0.2508465E+01  0.7546771E-02  0.2704810E+00
         22   -1    0    0    0    0  0.00000000000E+00  0.00000000000E+00  0.41702636150E+01  0.41702636150E+01  0.00000000000E+00 0. -1.
         22   -1    0    0    0    0 -0.00000000000E+00 -0.00000000000E+00 -0.16326768821E+01  0.16326768821E+01  0.00000000000E+00 0. -1.
          4    1    1    2  501    0  0.16550237619E+00  0.21568745151E+01  0.46981521241E+00  0.25520824917E+01  0.12700000000E+01 0. -1.
         -4    1    1    2    0  501 -0.16550237619E+00 -0.21568745151E+01  0.20677715204E+01  0.32508580054E+01  0.12700000000E+01 0. -1.
<mgrwt>
<rscale>  0 0.25084654E+01</rscale>
<asrwt>0</asrwt>
<pdfrwt beam="1">0</pdfrwt>
<pdfrwt beam="2">0</pdfrwt>
<totfact> 0.25683134E+12</totfact>
</mgrwt>
</event>
<event>
 4    1  0.3102735E+006  0.2611545E+01  0.7546771E-02  0.2661307E+00
         22   -1    0    0    0    0  0.00000000000E+00  0.00000000000E+00  0.41144647536E+01  0.41144647536E+01  0.00000000000E+00 0. -1.
         22   -1    0    0    0    0 -0.00000000000E+00 -0.00000000000E+00 -0.21729791740E+01  0.21729791740E+01  0.00000000000E+00 0.  1.
          4    1    1    2  501    0  0.77906011287E+00 -0.21448381673E+01 -0.56026304633E+00  0.26709661369E+01  0.12700000000E+01 0.  1.
         -4    1    1    2    0  501 -0.77906011287E+00  0.21448381673E+01  0.25017486259E+01  0.36164777907E+01  0.12700000000E+01 0. -1.
<mgrwt>
<rscale>  0 0.26115446E+01</rscale>
<asrwt>0</asrwt>
<pdfrwt beam="1">0</pdfrwt>
<pdfrwt beam="2">0</pdfrwt>
<totfact> 0.18750694E+12</totfact>
</mgrwt>
</event>
<event>
 4    1  0.3102735E+006  0.4505941E+01  0.7546771E-02  0.2189894E+00
         22   -1    0    0    0    0  0.00000000000E+00  0.00000000000E+00  0.61762619183E+01  0.61762619183E+01  0.00000000000E+00 0.  1.
         22   -1    0    0    0    0 -0.00000000000E+00 -0.00000000000E+00 -0.32906154065E+01  0.32906154065E+01  0.00000000000E+00 0. -1.
          4    1    1    2  501    0  0.76268452650E+00 -0.42554570146E+01  0.12935930445E+01  0.46879510508E+01  0.12700000000E+01 0.  1.
         -4    1    1    2    0  501 -0.76268452650E+00  0.42554570146E+01  0.15920534674E+01  0.47789262740E+01  0.12700000000E+01 0. -1.
<mgrwt>
<rscale>  0 0.45059408E+01</rscale>
<asrwt>0</asrwt>
<pdfrwt beam="1">0</pdfrwt>
<pdfrwt beam="2">0</pdfrwt>
<totfact> 0.71469577E+11</totfact>
</mgrwt>
</event>
<event>
 4    1  0.3102735E+006  0.4361541E+01  0.7546771E-02  0.2213089E+00
         22   -1    0    0    0    0  0.00000000000E+00  0.00000000000E+00  0.10110520916E+02  0.10110520916E+02  0.00000000000E+00 0. -1.
         22   -1    0    0    0    0 -0.00000000000E+00 -0.00000000000E+00 -0.19436217213E+01  0.19436217213E+01  0.00000000000E+00 0.  1.
          4    1    1    2  501    0  0.32629397798E+01 -0.26006471419E+01  0.30060201347E+01  0.52970934119E+01  0.12700000000E+01 0. -1.
         -4    1    1    2    0  501 -0.32629397798E+01  0.26006471419E+01  0.51608790599E+01  0.67570492254E+01  0.12700000000E+01 0.  1.
<mgrwt>
<rscale>  0 0.43615412E+01</rscale>
<asrwt>0</asrwt>
<pdfrwt beam="1">0</pdfrwt>
<pdfrwt beam="2">0</pdfrwt>
<totfact> 0.72963434E+11</totfact>
</mgrwt>
</event>
<event>
 4    1  0.3102735E+006  0.2194043E+01  0.7546771E-02  0.2861004E+00
         22   -1    0    0    0    0  0.00000000000E+00  0.00000000000E+00  0.14904693173E+02  0.14904693173E+02  0.00000000000E+00 0. -1.
         22   -1    0    0    0    0 -0.00000000000E+00 -0.00000000000E+00 -0.47952907087E+00  0.47952907087E+00  0.00000000000E+00 0. -1.
          4    1    1    2  501    0  0.33231206033E+00  0.17579797178E+01  0.28174487021E+01  0.35709720221E+01  0.12700000000E+01 0. -1.
         -4    1    1    2    0  501 -0.33231206033E+00 -0.17579797178E+01  0.11607715400E+02  0.11813250221E+02  0.12700000000E+01 0. -1.
<mgrwt>
<rscale>  0 0.21940428E+01</rscale>
<asrwt>0</asrwt>
<pdfrwt beam="1">0</pdfrwt>
<pdfrwt beam="2">0</pdfrwt>
<totfact> 0.22453249E+12</totfact>
</mgrwt>
</event>
<event>
 4    1  0.3102735E+006  0.4078662E+01  0.7546771E-02  0.2262506E+00
         22   -1    0    0    0    0  0.00000000000E+00  0.00000000000E+00  0.15606342633E+02  0.15606342633E+02  0.00000000000E+00 0. -1.
         22   -1    0    0    0    0 -0.00000000000E+00 -0.00000000000E+00 -0.12462793994E+01  0.12462793994E+01  0.00000000000E+00 0.  1.
          4    1    1    2  501    0  0.25344619965E+01 -0.29324193946E+01  0.39747163939E+01  0.56950725658E+01  0.12700000000E+01 0. -1.
         -4    1    1    2    0  501 -0.25344619965E+01  0.29324193946E+01  0.10385346839E+02  0.11157549466E+02  0.12700000000E+01 0.  1.
<mgrwt>
<rscale>  0 0.40786617E+01</rscale>
<asrwt>0</asrwt>
<pdfrwt beam="1">0</pdfrwt>
<pdfrwt beam="2">0</pdfrwt>
<totfact> 0.71617335E+11</totfact>
</mgrwt>
</event>
<event>
 4    1  0.3102735E+006  0.2219834E+01  0.7546771E-02  0.2846615E+00
         22   -1    0    0    0    0  0.00000000000E+00  0.00000000000E+00  0.50916812164E+01  0.50916812164E+01  0.00000000000E+00 0. -1.
         22   -1    0    0    0    0 -0.00000000000E+00 -0.00000000000E+00 -0.11049389925E+01  0.11049389925E+01  0.00000000000E+00 0. -1.
          4    1    1    2  501    0  0.13827411756E+01  0.11843948768E+01  0.90178920181E+00  0.23960150557E+01  0.12700000000E+01 0. -1.
         -4    1    1    2    0  501 -0.13827411756E+01 -0.11843948768E+01  0.30849530221E+01  0.38006051533E+01  0.12700000000E+01 0. -1.
<mgrwt>
<rscale>  0 0.22198343E+01</rscale>
<asrwt>0</asrwt>
<pdfrwt beam="1">0</pdfrwt>
<pdfrwt beam="2">0</pdfrwt>
<totfact> 0.31762078E+12</totfact>
</mgrwt>
</event>
<event>
 4    1  0.3102735E+006  0.2181975E+01  0.7546771E-02  0.2867849E+00
         22   -1    0    0    0    0  0.00000000000E+00  0.00000000000E+00  0.24874404611E+00  0.24874404611E+00  0.00000000000E+00 0. -1.
         22   -1    0    0    0    0 -0.00000000000E+00 -0.00000000000E+00 -0.31329414949E+02  0.31329414949E+02  0.00000000000E+00 0.  1.
          4    1    1    2  501    0 -0.14908391929E+01  0.96203677685E+00 -0.25388791366E+02  0.25482381037E+02  0.12700000000E+01 0.  1.
         -4    1    1    2    0  501  0.14908391929E+01 -0.96203677685E+00 -0.56918795369E+01  0.60957779587E+01  0.12700000000E+01 0.  1.
<mgrwt>
<rscale>  0 0.21819753E+01</rscale>
<asrwt>0</asrwt>
<pdfrwt beam="1">0</pdfrwt>
<pdfrwt beam="2">0</pdfrwt>
<totfact> 0.18510517E+12</totfact>
</mgrwt>
</event>
<event>
 4    1  0.3102735E+006  0.2246637E+01  0.7546771E-02  0.2831997E+00
         22   -1    0    0    0    0  0.00000000000E+00  0.00000000000E+00  0.88476710678E+01  0.88476710678E+01  0.00000000000E+00 0.  1.
         22   -1    0    0    0    0 -0.00000000000E+00 -0.00000000000E+00 -0.60636123076E+00  0.60636123076E+00  0.00000000000E+00 0.  1.
          4    1    1    2  501    0 -0.13004851193E+01  0.13203086978E+01  0.29706907625E+01  0.37245644322E+01  0.12700000000E+01 0.  1.
         -4    1    1    2    0  501  0.13004851193E+01 -0.13203086978E+01  0.52706190745E+01  0.57294678664E+01  0.12700000000E+01 0.  1.
<mgrwt>
<rscale>  0 0.22466367E+01</rscale>
<asrwt>0</asrwt>
<pdfrwt beam="1">0</pdfrwt>
<pdfrwt beam="2">0</pdfrwt>
<totfact> 0.32494840E+12</totfact>
</mgrwt>
</event>
<event>
 4    1  0.3102735E+006  0.2056197E+01  0.7546771E-02  0.2943797E+00
         22   -1    0    0    0    0  0.00000000000E+00  0.00000000000E+00  0.16362683735E+00  0.16362683735E+00  0.00000000000E+00 0. -1.
         22   -1    0    0    0    0 -0.00000000000E+00 -0.00000000000E+00 -0.30608223065E+02  0.30608223065E+02  0.00000000000E+00 0. -1.
          4    1    1    2  501    0 -0.12642003560E+01  0.10083858514E+01 -0.21295685068E+02  0.21394722411E+02  0.12700000000E+01 0. -1.
         -4    1    1    2    0  501  0.12642003560E+01 -0.10083858514E+01 -0.91489111599E+01  0.93771274907E+01  0.12700000000E+01 0. -1.
<mgrwt>
<rscale>  0 0.20561966E+01</rscale>
<asrwt>0</asrwt>
<pdfrwt beam="1">0</pdfrwt>
<pdfrwt beam="2">0</pdfrwt>
<totfact> 0.30426965E+12</totfact>
</mgrwt>
</event>
<event>
 4    1  0.3102735E+006  0.2578002E+01  0.7546771E-02  0.2675109E+00
         22   -1    0    0    0    0  0.00000000000E+00  0.00000000000E+00  0.55087592990E+01  0.55087592990E+01  0.00000000000E+00 0.  1.
         22   -1    0    0    0    0 -0.00000000000E+00 -0.00000000000E+00 -0.23030638328E+01  0.23030638328E+01  0.00000000000E+00 0.  1.
          4    1    1    2  501    0 -0.19488606033E+00  0.22349969983E+01 -0.10923739943E+01  0.27998880518E+01  0.12700000000E+01 0.  1.
         -4    1    1    2    0  501  0.19488606033E+00 -0.22349969983E+01  0.42980694605E+01  0.50119350800E+01  0.12700000000E+01 0.  1.
<mgrwt>
<rscale>  0 0.25780016E+01</rscale>
<asrwt>0</asrwt>
<pdfrwt beam="1">0</pdfrwt>
<pdfrwt beam="2">0</pdfrwt>
<totfact> 0.12412553E+12</totfact>
</mgrwt>
</event>
<event>
 4    1  0.3102735E+006  0.7026088E+01  0.7546771E-02  0.1938290E+00
         22   -1    0    0    0    0  0.00000000000E+00  0.00000000000E+00  0.99114382870E+02  0.99114382870E+02  0.00000000000E+00 0.  1.
         22   -1    0    0    0    0 -0.00000000000E+00 -0.00000000000E+00 -0.52195330438E+00  0.52195330438E+00  0.00000000000E+00 0. -1.
          4    1    1    2  501    0  0.54081274532E+01 -0.43017628952E+01  0.38639616484E+02  0.39273220757E+02  0.12700000000E+01 0. -1.
         -4    1    1    2    0  501 -0.54081274532E+01  0.43017628952E+01  0.59952813082E+02  0.60363115418E+02  0.12700000000E+01 0.  1.
<mgrwt>
<rscale>  0 0.70260876E+01</rscale>
<asrwt>0</asrwt>
<pdfrwt beam="1">0</pdfrwt>
<pdfrwt beam="2">0</pdfrwt>
<totfact> 0.17311725E+11</totfact>
</mgrwt>
</event>
<event>
 4    1  0.3102735E+006  0.2010173E+01  0.7546771E-02  0.2973894E+00
         22   -1    0    0    0    0  0.00000000000E+00  0.00000000000E+00  0.81100062078E-01  0.81100062078E-01  0.00000000000E+00 0.  1.
         22   -1    0    0    0    0 -0.00000000000E+00 -0.00000000000E+00 -0.52625791545E+02  0.52625791545E+02  0.00000000000E+00 0. -1.
          4    1    1    2  501    0 -0.19917481505E+00  0.15453878083E+01 -0.20192476174E+02  0.20292286419E+02  0.12700000000E+01 0.  1.
         -4    1    1    2    0  501  0.19917481505E+00 -0.15453878083E+01 -0.32352215309E+02  0.32414605188E+02  0.12700000000E+01 0. -1.
<mgrwt>
<rscale>  0 0.20101727E+01</rscale>
<asrwt>0</asrwt>
<pdfrwt beam="1">0</pdfrwt>
<pdfrwt beam="2">0</pdfrwt>
<totfact> 0.32774120E+12</totfact>
</mgrwt>
</event>
<event>
 4    1  0.3102735E+006  0.2706418E+01  0.7546771E-02  0.2623976E+00
         22   -1    0    0    0    0  0.00000000000E+00  0.00000000000E+00  0.14742434496E+02  0.14742434496E+02  0.00000000000E+00 0.  1.
         22   -1    0    0    0    0 -0.00000000000E+00 -0.00000000000E+00 -0.67795303165E+00  0.67795303165E+00  0.00000000000E+00 0.  1.
          4    1    1    2  501    0  0.17833422330E+01 -0.15910661254E+01  0.30471825745E+01  0.40755395443E+01  0.12700000000E+01 0.  1.
         -4    1    1    2    0  501 -0.17833422330E+01  0.15910661254E+01  0.11017298890E+02  0.11344847984E+02  0.12700000000E+01 0.  1.
<mgrwt>
<rscale>  0 0.27064185E+01</rscale>
<asrwt>0</asrwt>
<pdfrwt beam="1">0</pdfrwt>
<pdfrwt beam="2">0</pdfrwt>
<totfact> 0.15381235E+12</totfact>
</mgrwt>
</event>
<event>
 4    1  0.3102735E+006  0.2218727E+01  0.7546771E-02  0.2847226E+00
         22   -1    0    0    0    0  0.00000000000E+00  0.00000000000E+00  0.34910353981E+00  0.34910353981E+00  0.00000000000E+00 0. -1.
         22   -1    0    0    0    0 -0.00000000000E+00 -0.00000000000E+00 -0.20756208519E+02  0.20756208519E+02  0.00000000000E+00 0.  1.
          4    1    1    2  501    0  0.67940833656E+00  0.16876776154E+01 -0.16178920255E+02  0.16330346354E+02  0.12700000000E+01 0.  1.
         -4    1    1    2    0  501 -0.67940833656E+00 -0.16876776154E+01 -0.42281847243E+01  0.47749657050E+01  0.12700000000E+01 0. -1.
<mgrwt>
<rscale>  0 0.22187274E+01</rscale>
<asrwt>0</asrwt>
<pdfrwt beam="1">0</pdfrwt>
<pdfrwt beam="2">0</pdfrwt>
<totfact> 0.21293019E+12</totfact>
</mgrwt>
</event>
<event>
 4    1  0.3102735E+006  0.2822363E+01  0.7546771E-02  0.2581481E+00
         22   -1    0    0    0    0  0.00000000000E+00  0.00000000000E+00  0.11048298854E+02  0.11048298854E+02  0.00000000000E+00 0. -1.
         22   -1    0    0    0    0 -0.00000000000E+00 -0.00000000000E+00 -0.11992209807E+01  0.11992209807E+01  0.00000000000E+00 0. -1.
          4    1    1    2  501    0 -0.24711168762E+01 -0.49640383343E+00  0.10574293430E+01  0.30139496009E+01  0.12700000000E+01 0. -1.
         -4    1    1    2    0  501  0.24711168762E+01  0.49640383343E+00  0.87916485302E+01  0.92335702336E+01  0.12700000000E+01 0. -1.
<mgrwt>
<rscale>  0 0.28223634E+01</rscale>
<asrwt>0</asrwt>
<pdfrwt beam="1">0</pdfrwt>
<pdfrwt beam="2">0</pdfrwt>
<totfact> 0.11422388E+12</totfact>
</mgrwt>
</event>
<event>
 4    1  0.3102735E+006  0.2198548E+01  0.7546771E-02  0.2858468E+00
         22   -1    0    0    0    0  0.00000000000E+00  0.00000000000E+00  0.33403691459E+01  0.33403691459E+01  0.00000000000E+00 0.  1.
         22   -1    0    0    0    0 -0.00000000000E+00 -0.00000000000E+00 -0.15115786539E+01  0.15115786539E+01  0.00000000000E+00 0.  1.
          4    1    1    2  501    0 -0.36179219460E-01 -0.17942697400E+01  0.41307426123E+00  0.22370165804E+01  0.12700000000E+01 0.  1.
         -4    1    1    2    0  501  0.36179219460E-01  0.17942697400E+01  0.14157162307E+01  0.26149312193E+01  0.12700000000E+01 0.  1.
<mgrwt>
<rscale>  0 0.21985479E+01</rscale>
<asrwt>0</asrwt>
<pdfrwt beam="1">0</pdfrwt>
<pdfrwt beam="2">0</pdfrwt>
<totfact> 0.36422982E+12</totfact>
</mgrwt>
</event>
<event>
 4    1  0.3102735E+006  0.2188071E+01  0.7546771E-02  0.2864383E+00
         22   -1    0    0    0    0  0.00000000000E+00  0.00000000000E+00  0.29442289960E+02  0.29442289960E+02  0.00000000000E+00 0. -1.
         22   -1    0    0    0    0 -0.00000000000E+00 -0.00000000000E+00 -0.16269417526E+00  0.16269417526E+00  0.00000000000E+00 0.  1.
          4    1    1    2  501    0  0.99128856794E+00 -0.14805748369E+01  0.14973487038E+02  0.15132513636E+02  0.12700000000E+01 0.  1.
         -4    1    1    2    0  501 -0.99128856794E+00  0.14805748369E+01  0.14306108747E+02  0.14472470499E+02  0.12700000000E+01 0. -1.
<mgrwt>
<rscale>  0 0.21880710E+01</rscale>
<asrwt>0</asrwt>
<pdfrwt beam="1">0</pdfrwt>
<pdfrwt beam="2">0</pdfrwt>
<totfact> 0.32176253E+12</totfact>
</mgrwt>
</event>
<event>
 4    1  0.3102735E+006  0.7514935E+01  0.7546771E-02  0.1905636E+00
         22   -1    0    0    0    0  0.00000000000E+00  0.00000000000E+00  0.33290315582E+02  0.33290315582E+02  0.00000000000E+00 0. -1.
         22   -1    0    0    0    0 -0.00000000000E+00 -0.00000000000E+00 -0.22866049304E+01  0.22866049304E+01  0.00000000000E+00 0.  1.
          4    1    1    2  501    0  0.36348506994E+01 -0.64536202384E+01  0.24539140578E+02  0.25664054124E+02  0.12700000000E+01 0. -1.
         -4    1    1    2    0  501 -0.36348506994E+01  0.64536202384E+01  0.64645700736E+01  0.99128663880E+01  0.12700000000E+01 0.  1.
<mgrwt>
<rscale>  0 0.75149354E+01</rscale>
<asrwt>0</asrwt>
<pdfrwt beam="1">0</pdfrwt>
<pdfrwt beam="2">0</pdfrwt>
<totfact> 0.13732466E+11</totfact>
</mgrwt>
</event>
<event>
 4    1  0.3102735E+006  0.2022023E+01  0.7546771E-02  0.2966017E+00
         22   -1    0    0    0    0  0.00000000000E+00  0.00000000000E+00  0.18331965970E+00  0.18331965970E+00  0.00000000000E+00 0. -1.
         22   -1    0    0    0    0 -0.00000000000E+00 -0.00000000000E+00 -0.23862394769E+02  0.23862394769E+02  0.00000000000E+00 0.  1.
          4    1    1    2  501    0 -0.11938971879E+01 -0.10248339183E+01 -0.14913023495E+02  0.15049479885E+02  0.12700000000E+01 0. -1.
         -4    1    1    2    0  501  0.11938971879E+01  0.10248339183E+01 -0.87660516139E+01  0.89962345430E+01  0.12700000000E+01 0.  1.
<mgrwt>
<rscale>  0 0.20220225E+01</rscale>
<asrwt>0</asrwt>
<pdfrwt beam="1">0</pdfrwt>
<pdfrwt beam="2">0</pdfrwt>
<totfact> 0.36751101E+12</totfact>
</mgrwt>
</event>
<event>
 4    1  0.3102735E+006  0.2229672E+01  0.7546771E-02  0.2841211E+00
         22   -1    0    0    0    0  0.00000000000E+00  0.00000000000E+00  0.80074357398E+00  0.80074357398E+00  0.00000000000E+00 0. -1.
         22   -1    0    0    0    0 -0.00000000000E+00 -0.00000000000E+00 -0.93173755022E+01  0.93173755022E+01  0.00000000000E+00 0. -1.
          4    1    1    2  501    0 -0.13894887397E+01  0.11949301903E+01 -0.71806028985E+01  0.75188094206E+01  0.12700000000E+01 0. -1.
         -4    1    1    2    0  501  0.13894887397E+01 -0.11949301903E+01 -0.13360290297E+01  0.25993096556E+01  0.12700000000E+01 0. -1.
<mgrwt>
<rscale>  0 0.22296720E+01</rscale>
<asrwt>0</asrwt>
<pdfrwt beam="1">0</pdfrwt>
<pdfrwt beam="2">0</pdfrwt>
<totfact> 0.22265579E+12</totfact>
</mgrwt>
</event>
<event>
 4    1  0.3102735E+006  0.3393041E+01  0.7546771E-02  0.2410890E+00
         22   -1    0    0    0    0  0.00000000000E+00  0.00000000000E+00  0.10367536488E+02  0.10367536488E+02  0.00000000000E+00 0.  1.
         22   -1    0    0    0    0 -0.00000000000E+00 -0.00000000000E+00 -0.11245366127E+01  0.11245366127E+01  0.00000000000E+00 0. -1.
          4    1    1    2  501    0 -0.28961498426E+01 -0.12296936602E+01  0.39786096650E+01  0.52289640729E+01  0.12700000000E+01 0. -1.
         -4    1    1    2    0  501  0.28961498426E+01  0.12296936602E+01  0.52643902100E+01  0.62631090276E+01  0.12700000000E+01 0.  1.
<mgrwt>
<rscale>  0 0.33930415E+01</rscale>
<asrwt>0</asrwt>
<pdfrwt beam="1">0</pdfrwt>
<pdfrwt beam="2">0</pdfrwt>
<totfact> 0.13282089E+12</totfact>
</mgrwt>
</event>
<event>
 4    1  0.3102735E+006  0.2468749E+01  0.7546771E-02  0.2722470E+00
         22   -1    0    0    0    0  0.00000000000E+00  0.00000000000E+00  0.38667804006E+01  0.38667804006E+01  0.00000000000E+00 0. -1.
         22   -1    0    0    0    0 -0.00000000000E+00 -0.00000000000E+00 -0.15815121205E+01  0.15815121205E+01  0.00000000000E+00 0. -1.
          4    1    1    2  501    0  0.14053491337E+01  0.15832923738E+01  0.13008919775E+01  0.27905269871E+01  0.12700000000E+01 0. -1.
         -4    1    1    2    0  501 -0.14053491337E+01 -0.15832923738E+01  0.98437630258E+00  0.26577655340E+01  0.12700000000E+01 0. -1.
<mgrwt>
<rscale>  0 0.24687489E+01</rscale>
<asrwt>0</asrwt>
<pdfrwt beam="1">0</pdfrwt>
<pdfrwt beam="2">0</pdfrwt>
<totfact> 0.29120366E+12</totfact>
</mgrwt>
</event>
<event>
 4    1  0.3102735E+006  0.2604175E+01  0.7546771E-02  0.2664311E+00
         22   -1    0    0    0    0  0.00000000000E+00  0.00000000000E+00  0.10244354609E+02  0.10244354609E+02  0.00000000000E+00 0. -1.
         22   -1    0    0    0    0 -0.00000000000E+00 -0.00000000000E+00 -0.83349442741E+00  0.83349442741E+00  0.00000000000E+00 0.  1.
          4    1    1    2  501    0 -0.16177420061E+01 -0.15974161584E+01  0.21929452518E+01  0.34045170669E+01  0.12700000000E+01 0.  1.
         -4    1    1    2    0  501  0.16177420061E+01  0.15974161584E+01  0.72179149299E+01  0.76733319697E+01  0.12700000000E+01 0. -1.
<mgrwt>
<rscale>  0 0.26041750E+01</rscale>
<asrwt>0</asrwt>
<pdfrwt beam="1">0</pdfrwt>
<pdfrwt beam="2">0</pdfrwt>
<totfact> 0.18967254E+12</totfact>
</mgrwt>
</event>
<event>
 4    1  0.3102735E+006  0.2068757E+01  0.7546771E-02  0.2935810E+00
         22   -1    0    0    0    0  0.00000000000E+00  0.00000000000E+00  0.29367157684E+01  0.29367157684E+01  0.00000000000E+00 0.  1.
         22   -1    0    0    0    0 -0.00000000000E+00 -0.00000000000E+00 -0.22578897716E+01  0.22578897716E+01  0.00000000000E+00 0.  1.
          4    1    1    2  501    0 -0.71592763998E+00  0.14677549417E+01 -0.12071540115E+01  0.23951988982E+01  0.12700000000E+01 0.  1.
         -4    1    1    2    0  501  0.71592763998E+00 -0.14677549417E+01  0.18859800083E+01  0.27994066418E+01  0.12700000000E+01 0.  1.
<mgrwt>
<rscale>  0 0.20687573E+01</rscale>
<asrwt>0</asrwt>
<pdfrwt beam="1">0</pdfrwt>
<pdfrwt beam="2">0</pdfrwt>
<totfact> 0.26631046E+12</totfact>
</mgrwt>
</event>
<event>
 4    1  0.3102735E+006  0.2364017E+01  0.7546771E-02  0.2771696E+00
         22   -1    0    0    0    0  0.00000000000E+00  0.00000000000E+00  0.41715956141E+01  0.41715956141E+01  0.00000000000E+00 0. -1.
         22   -1    0    0    0    0 -0.00000000000E+00 -0.00000000000E+00 -0.14100085889E+01  0.14100085889E+01  0.00000000000E+00 0. -1.
          4    1    1    2  501    0 -0.34810838351E-02  0.19939066990E+01  0.75748332826E+00  0.24824095220E+01  0.12700000000E+01 0. -1.
         -4    1    1    2    0  501  0.34810838351E-02 -0.19939066990E+01  0.20041036970E+01  0.30991946810E+01  0.12700000000E+01 0. -1.
<mgrwt>
<rscale>  0 0.23640169E+01</rscale>
<asrwt>0</asrwt>
<pdfrwt beam="1">0</pdfrwt>
<pdfrwt beam="2">0</pdfrwt>
<totfact> 0.30392472E+12</totfact>
</mgrwt>
</event>
<event>
 4    1  0.3102735E+006  0.2081338E+01  0.7546771E-02  0.2927905E+00
         22   -1    0    0    0    0  0.00000000000E+00  0.00000000000E+00  0.12258504170E+03  0.12258504170E+03  0.00000000000E+00 0. -1.
         22   -1    0    0    0    0 -0.00000000000E+00 -0.00000000000E+00 -0.44317814351E-01  0.44317814351E-01  0.00000000000E+00 0. -1.
          4    1    1    2  501    0 -0.85371464467E+00  0.14107581911E+01  0.33671085307E+02  0.33735351682E+02  0.12700000000E+01 0. -1.
         -4    1    1    2    0  501  0.85371464467E+00 -0.14107581911E+01  0.88869638583E+02  0.88894007837E+02  0.12700000000E+01 0. -1.
<mgrwt>
<rscale>  0 0.20813379E+01</rscale>
<asrwt>0</asrwt>
<pdfrwt beam="1">0</pdfrwt>
<pdfrwt beam="2">0</pdfrwt>
<totfact> 0.19888437E+12</totfact>
</mgrwt>
</event>
<event>
 4    1  0.3102735E+006  0.4734060E+01  0.7546771E-02  0.2156152E+00
         22   -1    0    0    0    0  0.00000000000E+00  0.00000000000E+00  0.21724015410E+02  0.21724015410E+02  0.00000000000E+00 0. -1.
         22   -1    0    0    0    0 -0.00000000000E+00 -0.00000000000E+00 -0.10593905574E+01  0.10593905574E+01  0.00000000000E+00 0.  1.
          4    1    1    2  501    0  0.45241192017E+01 -0.57512734194E+00  0.84885291334E+01  0.97193854157E+01  0.12700000000E+01 0.  1.
         -4    1    1    2    0  501 -0.45241192017E+01  0.57512734194E+00  0.12176095719E+02  0.13064020552E+02  0.12700000000E+01 0. -1.
<mgrwt>
<rscale>  0 0.47340602E+01</rscale>
<asrwt>0</asrwt>
<pdfrwt beam="1">0</pdfrwt>
<pdfrwt beam="2">0</pdfrwt>
<totfact> 0.57196898E+11</totfact>
</mgrwt>
</event>
<event>
 4    1  0.3102735E+006  0.2429794E+01  0.7546771E-02  0.2740315E+00
         22   -1    0    0    0    0  0.00000000000E+00  0.00000000000E+00  0.31721988791E+01  0.31721988791E+01  0.00000000000E+00 0.  1.
         22   -1    0    0    0    0 -0.00000000000E+00 -0.00000000000E+00 -0.19258446517E+01  0.19258446517E+01  0.00000000000E+00 0.  1.
          4    1    1    2  501    0 -0.59877268704E+00  0.19830460317E+01  0.15594042204E+00  0.24347931555E+01  0.12700000000E+01 0.  1.
         -4    1    1    2    0  501  0.59877268704E+00 -0.19830460317E+01  0.10904138054E+01  0.26632503753E+01  0.12700000000E+01 0.  1.
<mgrwt>
<rscale>  0 0.24297943E+01</rscale>
<asrwt>0</asrwt>
<pdfrwt beam="1">0</pdfrwt>
<pdfrwt beam="2">0</pdfrwt>
<totfact> 0.29261630E+12</totfact>
</mgrwt>
</event>
<event>
 4    1  0.3102735E+006  0.8690375E+01  0.7546771E-02  0.1838832E+00
         22   -1    0    0    0    0  0.00000000000E+00  0.00000000000E+00  0.90342505402E+01  0.90342505402E+01  0.00000000000E+00 0. -1.
         22   -1    0    0    0    0 -0.00000000000E+00 -0.00000000000E+00 -0.97378617152E+01  0.97378617152E+01  0.00000000000E+00 0.  1.
          4    1    1    2  501    0  0.72914008211E+01 -0.45546883109E+01 -0.38829794189E+01  0.95184106190E+01  0.12700000000E+01 0.  1.
         -4    1    1    2    0  501 -0.72914008211E+01  0.45546883109E+01  0.31793682439E+01  0.92537016364E+01  0.12700000000E+01 0. -1.
<mgrwt>
<rscale>  0 0.86903746E+01</rscale>
<asrwt>0</asrwt>
<pdfrwt beam="1">0</pdfrwt>
<pdfrwt beam="2">0</pdfrwt>
<totfact> 0.12471095E+11</totfact>
</mgrwt>
</event>
<event>
 4    1  0.3102735E+006  0.4462329E+01  0.7546771E-02  0.2196767E+00
         22   -1    0    0    0    0  0.00000000000E+00  0.00000000000E+00  0.13429188947E+02  0.13429188947E+02  0.00000000000E+00 0. -1.
         22   -1    0    0    0    0 -0.00000000000E+00 -0.00000000000E+00 -0.14833562826E+01  0.14833562826E+01  0.00000000000E+00 0.  1.
          4    1    1    2  501    0 -0.26599448188E+01  0.33502504127E+01  0.58245468378E+01  0.73374198552E+01  0.12700000000E+01 0.  1.
         -4    1    1    2    0  501  0.26599448188E+01 -0.33502504127E+01  0.61212858271E+01  0.75751253748E+01  0.12700000000E+01 0. -1.
<mgrwt>
<rscale>  0 0.44623295E+01</rscale>
<asrwt>0</asrwt>
<pdfrwt beam="1">0</pdfrwt>
<pdfrwt beam="2">0</pdfrwt>
<totfact> 0.70524483E+11</totfact>
</mgrwt>
</event>
<event>
 4    1  0.3102735E+006  0.3154701E+01  0.7546771E-02  0.2475443E+00
         22   -1    0    0    0    0  0.00000000000E+00  0.00000000000E+00  0.39213367237E+01  0.39213367237E+01  0.00000000000E+00 0.  1.
         22   -1    0    0    0    0 -0.00000000000E+00 -0.00000000000E+00 -0.37717937341E+01  0.37717937341E+01  0.00000000000E+00 0. -1.
          4    1    1    2  501    0 -0.27623074687E+01 -0.84196118464E+00 -0.21252650909E+01  0.38037997968E+01  0.12700000000E+01 0. -1.
         -4    1    1    2    0  501  0.27623074687E+01  0.84196118464E+00  0.22748080804E+01  0.38893306610E+01  0.12700000000E+01 0.  1.
<mgrwt>
<rscale>  0 0.31547014E+01</rscale>
<asrwt>0</asrwt>
<pdfrwt beam="1">0</pdfrwt>
<pdfrwt beam="2">0</pdfrwt>
<totfact> 0.10425819E+12</totfact>
</mgrwt>
</event>
<event>
 4    1  0.3102735E+006  0.2559590E+01  0.7546771E-02  0.2682828E+00
         22   -1    0    0    0    0  0.00000000000E+00  0.00000000000E+00  0.25891877908E+02  0.25891877908E+02  0.00000000000E+00 0. -1.
         22   -1    0    0    0    0 -0.00000000000E+00 -0.00000000000E+00 -0.25325550687E+00  0.25325550687E+00  0.00000000000E+00 0.  1.
          4    1    1    2  501    0  0.19104106263E+01 -0.11353123747E+01  0.12431942355E+02  0.12692702378E+02  0.12700000000E+01 0. -1.
         -4    1    1    2    0  501 -0.19104106263E+01  0.11353123747E+01  0.13206680046E+02  0.13452431036E+02  0.12700000000E+01 0. -1.
<mgrwt>
<rscale>  0 0.25595904E+01</rscale>
<asrwt>0</asrwt>
<pdfrwt beam="1">0</pdfrwt>
<pdfrwt beam="2">0</pdfrwt>
<totfact> 0.23115508E+12</totfact>
</mgrwt>
</event>
<event>
 4    1  0.3102735E+006  0.2008128E+01  0.7546771E-02  0.2975262E+00
         22   -1    0    0    0    0  0.00000000000E+00  0.00000000000E+00  0.38455513108E+00  0.38455513108E+00  0.00000000000E+00 0.  1.
         22   -1    0    0    0    0 -0.00000000000E+00 -0.00000000000E+00 -0.14630967855E+02  0.14630967855E+02  0.00000000000E+00 0.  1.
          4    1    1    2  501    0  0.55340237598E+00 -0.14537625292E+01 -0.11119120876E+02  0.11299001228E+02  0.12700000000E+01 0.  1.
         -4    1    1    2    0  501 -0.55340237598E+00  0.14537625292E+01 -0.31272918479E+01  0.37165217587E+01  0.12700000000E+01 0.  1.
<mgrwt>
<rscale>  0 0.20081284E+01</rscale>
<asrwt>0</asrwt>
<pdfrwt beam="1">0</pdfrwt>
<pdfrwt beam="2">0</pdfrwt>
<totfact> 0.29455146E+12</totfact>
</mgrwt>
</event>
<event>
 4    1  0.3102735E+006  0.2257269E+01  0.7546771E-02  0.2826289E+00
         22   -1    0    0    0    0  0.00000000000E+00  0.00000000000E+00  0.36358791813E+02  0.36358791813E+02  0.00000000000E+00 0. -1.
         22   -1    0    0    0    0 -0.00000000000E+00 -0.00000000000E+00 -0.29278431082E+00  0.29278431082E+00  0.00000000000E+00 0. -1.
          4    1    1    2  501    0  0.18575174420E+01  0.17886752769E+00  0.48008274428E+01  0.53050173209E+01  0.12700000000E+01 0. -1.
         -4    1    1    2    0  501 -0.18575174420E+01 -0.17886752769E+00  0.31265180060E+02  0.31346558803E+02  0.12700000000E+01 0. -1.
<mgrwt>
<rscale>  0 0.22572693E+01</rscale>
<asrwt>0</asrwt>
<pdfrwt beam="1">0</pdfrwt>
<pdfrwt beam="2">0</pdfrwt>
<totfact> 0.12739811E+12</totfact>
</mgrwt>
</event>
<event>
 4    1  0.3102735E+006  0.2495317E+01  0.7546771E-02  0.2710598E+00
         22   -1    0    0    0    0  0.00000000000E+00  0.00000000000E+00  0.11784393859E+01  0.11784393859E+01  0.00000000000E+00 0. -1.
         22   -1    0    0    0    0 -0.00000000000E+00 -0.00000000000E+00 -0.56056672502E+01  0.56056672502E+01  0.00000000000E+00 0. -1.
          4    1    1    2  501    0  0.26211218854E+00  0.21319020358E+01 -0.30264518851E+01  0.39225017658E+01  0.12700000000E+01 0. -1.
         -4    1    1    2    0  501 -0.26211218854E+00 -0.21319020358E+01 -0.14007759792E+01  0.28616048703E+01  0.12700000000E+01 0. -1.
<mgrwt>
<rscale>  0 0.24953174E+01</rscale>
<asrwt>0</asrwt>
<pdfrwt beam="1">0</pdfrwt>
<pdfrwt beam="2">0</pdfrwt>
<totfact> 0.26324631E+12</totfact>
</mgrwt>
</event>
<event>
 4    1  0.3102735E+006  0.4560324E+01  0.7546771E-02  0.2181478E+00
         22   -1    0    0    0    0  0.00000000000E+00  0.00000000000E+00  0.20598608776E+02  0.20598608776E+02  0.00000000000E+00 0. -1.
         22   -1    0    0    0    0 -0.00000000000E+00 -0.00000000000E+00 -0.11648104669E+01  0.11648104669E+01  0.00000000000E+00 0.  1.
          4    1    1    2  501    0  0.10516034137E+01 -0.42517977531E+01  0.57448325367E+01  0.73348247932E+01  0.12700000000E+01 0.  1.
         -4    1    1    2    0  501 -0.10516034137E+01  0.42517977531E+01  0.13688965772E+02  0.14428594449E+02  0.12700000000E+01 0. -1.
<mgrwt>
<rscale>  0 0.45603239E+01</rscale>
<asrwt>0</asrwt>
<pdfrwt beam="1">0</pdfrwt>
<pdfrwt beam="2">0</pdfrwt>
<totfact> 0.54843365E+11</totfact>
</mgrwt>
</event>
<event>
 4    1  0.3102735E+006  0.2173420E+01  0.7546771E-02  0.2872746E+00
         22   -1    0    0    0    0  0.00000000000E+00  0.00000000000E+00  0.10176685398E+01  0.10176685398E+01  0.00000000000E+00 0.  1.
         22   -1    0    0    0    0 -0.00000000000E+00 -0.00000000000E+00 -0.18585012794E+02  0.18585012794E+02  0.00000000000E+00 0. -1.
          4    1    1    2  501    0 -0.50457178111E+00 -0.16900480809E+01 -0.17273255487E+02  0.17409454624E+02  0.12700000000E+01 0. -1.
         -4    1    1    2    0  501  0.50457178111E+00  0.16900480809E+01 -0.29408876774E+00  0.21932267100E+01  0.12700000000E+01 0.  1.
<mgrwt>
<rscale>  0 0.21734202E+01</rscale>
<asrwt>0</asrwt>
<pdfrwt beam="1">0</pdfrwt>
<pdfrwt beam="2">0</pdfrwt>
<totfact> 0.72746833E+11</totfact>
</mgrwt>
</event>
<event>
 4    1  0.3102735E+006  0.2152074E+01  0.7546771E-02  0.2885126E+00
         22   -1    0    0    0    0  0.00000000000E+00  0.00000000000E+00  0.29335196609E+02  0.29335196609E+02  0.00000000000E+00 0. -1.
         22   -1    0    0    0    0 -0.00000000000E+00 -0.00000000000E+00 -0.19535141533E+00  0.19535141533E+00  0.00000000000E+00 0. -1.
          4    1    1    2  501    0 -0.10139510858E+01  0.14108246560E+01  0.21036683440E+02  0.21146476614E+02  0.12700000000E+01 0. -1.
         -4    1    1    2    0  501  0.10139510858E+01 -0.14108246560E+01  0.81031617541E+01  0.83840714111E+01  0.12700000000E+01 0. -1.
<mgrwt>
<rscale>  0 0.21520741E+01</rscale>
<asrwt>0</asrwt>
<pdfrwt beam="1">0</pdfrwt>
<pdfrwt beam="2">0</pdfrwt>
<totfact> 0.26365792E+12</totfact>
</mgrwt>
</event>
<event>
 4    1  0.3102735E+006  0.2756564E+01  0.7546771E-02  0.2605197E+00
         22   -1    0    0    0    0  0.00000000000E+00  0.00000000000E+00  0.34892933087E+01  0.34892933087E+01  0.00000000000E+00 0. -1.
         22   -1    0    0    0    0 -0.00000000000E+00 -0.00000000000E+00 -0.48979039035E+01  0.48979039035E+01  0.00000000000E+00 0.  1.
          4    1    1    2  501    0  0.18227959030E+01  0.16319183745E+01 -0.38295373206E+01  0.47184741787E+01  0.12700000000E+01 0.  1.
         -4    1    1    2    0  501 -0.18227959030E+01 -0.16319183745E+01  0.24209267258E+01  0.36687230335E+01  0.12700000000E+01 0. -1.
<mgrwt>
<rscale>  0 0.27565635E+01</rscale>
<asrwt>0</asrwt>
<pdfrwt beam="1">0</pdfrwt>
<pdfrwt beam="2">0</pdfrwt>
<totfact> 0.87874600E+11</totfact>
</mgrwt>
</event>
<event>
 4    1  0.3102735E+006  0.2322153E+01  0.7546771E-02  0.2792539E+00
         22   -1    0    0    0    0  0.00000000000E+00  0.00000000000E+00  0.59678839830E+00  0.59678839830E+00  0.00000000000E+00 0.  1.
         22   -1    0    0    0    0 -0.00000000000E+00 -0.00000000000E+00 -0.94572152542E+01  0.94572152542E+01  0.00000000000E+00 0.  1.
          4    1    1    2  501    0 -0.26020725437E+00  0.19265998734E+01 -0.54915161309E+01  0.59623103159E+01  0.12700000000E+01 0.  1.
         -4    1    1    2    0  501  0.26020725437E+00 -0.19265998734E+01 -0.33689107250E+01  0.40916933366E+01  0.12700000000E+01 0.  1.
<mgrwt>
<rscale>  0 0.23221531E+01</rscale>
<asrwt>0</asrwt>
<pdfrwt beam="1">0</pdfrwt>
<pdfrwt beam="2">0</pdfrwt>
<totfact> 0.30529628E+12</totfact>
</mgrwt>
</event>
<event>
 4    1  0.3102735E+006  0.2347280E+01  0.7546771E-02  0.2779945E+00
         22   -1    0    0    0    0  0.00000000000E+00  0.00000000000E+00  0.30060930922E+00  0.30060930922E+00  0.00000000000E+00 0.  1.
         22   -1    0    0    0    0 -0.00000000000E+00 -0.00000000000E+00 -0.21253286424E+02  0.21253286424E+02  0.00000000000E+00 0. -1.
          4    1    1    2  501    0 -0.76745710208E+00 -0.18187444126E+01 -0.64784669192E+01  0.68905917935E+01  0.12700000000E+01 0.  1.
         -4    1    1    2    0  501  0.76745710208E+00  0.18187444126E+01 -0.14474210196E+02  0.14663303940E+02  0.12700000000E+01 0. -1.
<mgrwt>
<rscale>  0 0.23472796E+01</rscale>
<asrwt>0</asrwt>
<pdfrwt beam="1">0</pdfrwt>
<pdfrwt beam="2">0</pdfrwt>
<totfact> 0.24451188E+12</totfact>
</mgrwt>
</event>
<event>
 4    1  0.3102735E+006  0.5112709E+01  0.7546771E-02  0.2109786E+00
         22   -1    0    0    0    0  0.00000000000E+00  0.00000000000E+00  0.65013860242E+00  0.65013860242E+00  0.00000000000E+00 0.  1.
         22   -1    0    0    0    0 -0.00000000000E+00 -0.00000000000E+00 -0.49195119720E+02  0.49195119720E+02  0.00000000000E+00 0. -1.
          4    1    1    2  501    0  0.16269251905E+00 -0.49497903496E+01 -0.34925676567E+02  0.35297913211E+02  0.12700000000E+01 0. -1.
         -4    1    1    2    0  501 -0.16269251905E+00  0.49497903496E+01 -0.13619304550E+02  0.14547345112E+02  0.12700000000E+01 0.  1.
<mgrwt>
<rscale>  0 0.51127090E+01</rscale>
<asrwt>0</asrwt>
<pdfrwt beam="1">0</pdfrwt>
<pdfrwt beam="2">0</pdfrwt>
<totfact> 0.34961608E+11</totfact>
</mgrwt>
</event>
<event>
 4    1  0.3102735E+006  0.2439565E+01  0.7546771E-02  0.2735788E+00
         22   -1    0    0    0    0  0.00000000000E+00  0.00000000000E+00  0.80952962142E+00  0.80952962142E+00  0.00000000000E+00 0.  1.
         22   -1    0    0    0    0 -0.00000000000E+00 -0.00000000000E+00 -0.83975884012E+01  0.83975884012E+01  0.00000000000E+00 0. -1.
          4    1    1    2  501    0  0.12271432213E+01 -0.16830623469E+01 -0.54186187193E+01  0.59424665060E+01  0.12700000000E+01 0. -1.
         -4    1    1    2    0  501 -0.12271432213E+01  0.16830623469E+01 -0.21694400604E+01  0.32646515166E+01  0.12700000000E+01 0.  1.
<mgrwt>
<rscale>  0 0.24395654E+01</rscale>
<asrwt>0</asrwt>
<pdfrwt beam="1">0</pdfrwt>
<pdfrwt beam="2">0</pdfrwt>
<totfact> 0.24927211E+12</totfact>
</mgrwt>
</event>
<event>
 4    1  0.3102735E+006  0.2082528E+01  0.7546771E-02  0.2927162E+00
         22   -1    0    0    0    0  0.00000000000E+00  0.00000000000E+00  0.31142166864E+01  0.31142166864E+01  0.00000000000E+00 0. -1.
         22   -1    0    0    0    0 -0.00000000000E+00 -0.00000000000E+00 -0.15721402310E+01  0.15721402310E+01  0.00000000000E+00 0. -1.
          4    1    1    2  501    0 -0.16447630031E+01  0.13703035568E+00 -0.20761895547E-01  0.20826314391E+01  0.12700000000E+01 0. -1.
         -4    1    1    2    0  501  0.16447630031E+01 -0.13703035568E+00  0.15628383510E+01  0.26037254782E+01  0.12700000000E+01 0. -1.
<mgrwt>
<rscale>  0 0.20825279E+01</rscale>
<asrwt>0</asrwt>
<pdfrwt beam="1">0</pdfrwt>
<pdfrwt beam="2">0</pdfrwt>
<totfact> 0.37787838E+12</totfact>
</mgrwt>
</event>
<event>
 4    1  0.3102735E+006  0.2108289E+01  0.7546771E-02  0.2911278E+00
         22   -1    0    0    0    0  0.00000000000E+00  0.00000000000E+00  0.10059521769E+01  0.10059521769E+01  0.00000000000E+00 0.  1.
         22   -1    0    0    0    0 -0.00000000000E+00 -0.00000000000E+00 -0.11742348589E+02  0.11742348589E+02  0.00000000000E+00 0. -1.
          4    1    1    2  501    0  0.16332591748E+01  0.40552280452E+00 -0.10402184242E+02  0.10613685566E+02  0.12700000000E+01 0. -1.
         -4    1    1    2    0  501 -0.16332591748E+01 -0.40552280452E+00 -0.33421216935E+00  0.21346151998E+01  0.12700000000E+01 0.  1.
<mgrwt>
<rscale>  0 0.21082894E+01</rscale>
<asrwt>0</asrwt>
<pdfrwt beam="1">0</pdfrwt>
<pdfrwt beam="2">0</pdfrwt>
<totfact> 0.12966617E+12</totfact>
</mgrwt>
</event>
<event>
 4    1  0.3102735E+006  0.2120165E+01  0.7546771E-02  0.2904082E+00
         22   -1    0    0    0    0  0.00000000000E+00  0.00000000000E+00  0.95388401849E+00  0.95388401849E+00  0.00000000000E+00 0.  1.
         22   -1    0    0    0    0 -0.00000000000E+00 -0.00000000000E+00 -0.55276125192E+01  0.55276125192E+01  0.00000000000E+00 0.  1.
          4    1    1    2  501    0 -0.98523782499E+00  0.13825716343E+01 -0.35314011453E+01  0.41189673396E+01  0.12700000000E+01 0.  1.
         -4    1    1    2    0  501  0.98523782499E+00 -0.13825716343E+01 -0.10423273554E+01  0.23625291980E+01  0.12700000000E+01 0.  1.
<mgrwt>
<rscale>  0 0.21201646E+01</rscale>
<asrwt>0</asrwt>
<pdfrwt beam="1">0</pdfrwt>
<pdfrwt beam="2">0</pdfrwt>
<totfact> 0.34082072E+12</totfact>
</mgrwt>
</event>
<event>
 4    1  0.3102735E+006  0.2312555E+01  0.7546771E-02  0.2797418E+00
         22   -1    0    0    0    0  0.00000000000E+00  0.00000000000E+00  0.12837654550E+01  0.12837654550E+01  0.00000000000E+00 0.  1.
         22   -1    0    0    0    0 -0.00000000000E+00 -0.00000000000E+00 -0.41700728699E+01  0.41700728699E+01  0.00000000000E+00 0. -1.
          4    1    1    2  501    0 -0.15766070643E+01  0.11177295384E+01 -0.15304506276E+01  0.27731188723E+01  0.12700000000E+01 0.  1.
         -4    1    1    2    0  501  0.15766070643E+01 -0.11177295384E+01 -0.13558567873E+01  0.26807194527E+01  0.12700000000E+01 0. -1.
<mgrwt>
<rscale>  0 0.23125547E+01</rscale>
<asrwt>0</asrwt>
<pdfrwt beam="1">0</pdfrwt>
<pdfrwt beam="2">0</pdfrwt>
<totfact> 0.33862837E+12</totfact>
</mgrwt>
</event>
<event>
 4    1  0.3102735E+006  0.2254118E+01  0.7546771E-02  0.2827975E+00
         22   -1    0    0    0    0  0.00000000000E+00  0.00000000000E+00  0.32087415510E+00  0.32087415510E+00  0.00000000000E+00 0.  1.
         22   -1    0    0    0    0 -0.00000000000E+00 -0.00000000000E+00 -0.20306573205E+02  0.20306573205E+02  0.00000000000E+00 0.  1.
          4    1    1    2  501    0  0.16996206167E+01 -0.76120883625E+00 -0.14832637114E+02  0.15002938808E+02  0.12700000000E+01 0.  1.
         -4    1    1    2    0  501 -0.16996206167E+01  0.76120883625E+00 -0.51530619364E+01  0.56245085522E+01  0.12700000000E+01 0.  1.
<mgrwt>
<rscale>  0 0.22541183E+01</rscale>
<asrwt>0</asrwt>
<pdfrwt beam="1">0</pdfrwt>
<pdfrwt beam="2">0</pdfrwt>
<totfact> 0.24056646E+12</totfact>
</mgrwt>
</event>
<event>
 4    1  0.3102735E+006  0.2587495E+01  0.7546771E-02  0.2671169E+00
         22   -1    0    0    0    0  0.00000000000E+00  0.00000000000E+00  0.42432159004E+01  0.42432159004E+01  0.00000000000E+00 0. -1.
         22   -1    0    0    0    0 -0.00000000000E+00 -0.00000000000E+00 -0.16619308098E+01  0.16619308098E+01  0.00000000000E+00 0.  1.
          4    1    1    2  501    0  0.21363964801E+01  0.71974992249E+00  0.62650211941E+00  0.26622612150E+01  0.12700000000E+01 0.  1.
         -4    1    1    2    0  501 -0.21363964801E+01 -0.71974992249E+00  0.19547829712E+01  0.32428854953E+01  0.12700000000E+01 0. -1.
<mgrwt>
<rscale>  0 0.25874949E+01</rscale>
<asrwt>0</asrwt>
<pdfrwt beam="1">0</pdfrwt>
<pdfrwt beam="2">0</pdfrwt>
<totfact> 0.24653837E+12</totfact>
</mgrwt>
</event>
<event>
 4    1  0.3102735E+006  0.2145237E+01  0.7546771E-02  0.2889142E+00
         22   -1    0    0    0    0  0.00000000000E+00  0.00000000000E+00  0.67287033668E+01  0.67287033668E+01  0.00000000000E+00 0.  1.
         22   -1    0    0    0    0 -0.00000000000E+00 -0.00000000000E+00 -0.21898759125E+01  0.21898759125E+01  0.00000000000E+00 0. -1.
          4    1    1    2  501    0 -0.48559336669E+00 -0.16593194563E+01 -0.14285181247E+01  0.25773447594E+01  0.12700000000E+01 0. -1.
         -4    1    1    2    0  501  0.48559336669E+00  0.16593194563E+01  0.59673455791E+01  0.63412345199E+01  0.12700000000E+01 0.  1.
<mgrwt>
<rscale>  0 0.21452370E+01</rscale>
<asrwt>0</asrwt>
<pdfrwt beam="1">0</pdfrwt>
<pdfrwt beam="2">0</pdfrwt>
<totfact> 0.10369683E+12</totfact>
</mgrwt>
</event>
<event>
 4    1  0.3102735E+006  0.2124011E+01  0.7546771E-02  0.2901768E+00
         22   -1    0    0    0    0  0.00000000000E+00  0.00000000000E+00  0.19138660470E+02  0.19138660470E+02  0.00000000000E+00 0.  1.
         22   -1    0    0    0    0 -0.00000000000E+00 -0.00000000000E+00 -0.24859463028E+00  0.24859463028E+00  0.00000000000E+00 0.  1.
          4    1    1    2  501    0  0.84219374839E+00 -0.14796060129E+01  0.11650779671E+02  0.11842807573E+02  0.12700000000E+01 0.  1.
         -4    1    1    2    0  501 -0.84219374839E+00  0.14796060129E+01  0.72392861688E+01  0.75444475276E+01  0.12700000000E+01 0.  1.
<mgrwt>
<rscale>  0 0.21240114E+01</rscale>
<asrwt>0</asrwt>
<pdfrwt beam="1">0</pdfrwt>
<pdfrwt beam="2">0</pdfrwt>
<totfact> 0.34471763E+12</totfact>
</mgrwt>
</event>
<event>
 4    1  0.3102735E+006  0.3687754E+01  0.7546771E-02  0.2341274E+00
         22   -1    0    0    0    0  0.00000000000E+00  0.00000000000E+00  0.67234480106E+02  0.67234480106E+02  0.00000000000E+00 0.  1.
         22   -1    0    0    0    0 -0.00000000000E+00 -0.00000000000E+00 -0.22335813956E+00  0.22335813956E+00  0.00000000000E+00 0. -1.
          4    1    1    2  501    0  0.27727477452E+01  0.20732826952E+01  0.23141768944E+02  0.23433757723E+02  0.12700000000E+01 0. -1.
         -4    1    1    2    0  501 -0.27727477452E+01 -0.20732826952E+01  0.43869353023E+02  0.44024080522E+02  0.12700000000E+01 0.  1.
<mgrwt>
<rscale>  0 0.36877542E+01</rscale>
<asrwt>0</asrwt>
<pdfrwt beam="1">0</pdfrwt>
<pdfrwt beam="2">0</pdfrwt>
<totfact> 0.76672173E+11</totfact>
</mgrwt>
</event>
<event>
 4    1  0.3102735E+006  0.4588619E+01  0.7546771E-02  0.2177166E+00
         22   -1    0    0    0    0  0.00000000000E+00  0.00000000000E+00  0.36715030691E+01  0.36715030691E+01  0.00000000000E+00 0. -1.
         22   -1    0    0    0    0 -0.00000000000E+00 -0.00000000000E+00 -0.67135347380E+01  0.67135347380E+01  0.00000000000E+00 0.  1.
          4    1    1    2  501    0  0.20011114078E+00 -0.44048249607E+01 -0.35035899513E+01  0.57732633709E+01  0.12700000000E+01 0.  1.
         -4    1    1    2    0  501 -0.20011114078E+00  0.44048249607E+01  0.46155828236E+00  0.46117744363E+01  0.12700000000E+01 0.  1.
<mgrwt>
<rscale>  0 0.45886193E+01</rscale>
<asrwt>0</asrwt>
<pdfrwt beam="1">0</pdfrwt>
<pdfrwt beam="2">0</pdfrwt>
<totfact> 0.56902889E+11</totfact>
</mgrwt>
</event>
<event>
 4    1  0.3102735E+006  0.2105617E+01  0.7546771E-02  0.2912908E+00
         22   -1    0    0    0    0  0.00000000000E+00  0.00000000000E+00  0.23704421349E+00  0.23704421349E+00  0.00000000000E+00 0. -1.
         22   -1    0    0    0    0 -0.00000000000E+00 -0.00000000000E+00 -0.18721553655E+02  0.18721553655E+02  0.00000000000E+00 0.  1.
          4    1    1    2  501    0  0.83950613565E+00  0.14546314457E+01 -0.95343162139E+01  0.97640569878E+01  0.12700000000E+01 0. -1.
         -4    1    1    2    0  501 -0.83950613565E+00 -0.14546314457E+01 -0.89501932278E+01  0.91945408809E+01  0.12700000000E+01 0.  1.
<mgrwt>
<rscale>  0 0.21056171E+01</rscale>
<asrwt>0</asrwt>
<pdfrwt beam="1">0</pdfrwt>
<pdfrwt beam="2">0</pdfrwt>
<totfact> 0.37365210E+12</totfact>
</mgrwt>
</event>
<event>
 4    1  0.3102735E+006  0.2229940E+01  0.7546771E-02  0.2841064E+00
         22   -1    0    0    0    0  0.00000000000E+00  0.00000000000E+00  0.35610345326E+01  0.35610345326E+01  0.00000000000E+00 0. -1.
         22   -1    0    0    0    0 -0.00000000000E+00 -0.00000000000E+00 -0.14917120879E+01  0.14917120879E+01  0.00000000000E+00 0.  1.
          4    1    1    2  501    0 -0.70428080427E+00  0.16922535264E+01  0.39606562044E+00  0.22648402647E+01  0.12700000000E+01 0.  1.
         -4    1    1    2    0  501  0.70428080427E+00 -0.16922535264E+01  0.16732568242E+01  0.27879063558E+01  0.12700000000E+01 0. -1.
<mgrwt>
<rscale>  0 0.22299402E+01</rscale>
<asrwt>0</asrwt>
<pdfrwt beam="1">0</pdfrwt>
<pdfrwt beam="2">0</pdfrwt>
<totfact> 0.34310154E+12</totfact>
</mgrwt>
</event>
<event>
 4    1  0.3102735E+006  0.2159703E+01  0.7546771E-02  0.2880675E+00
         22   -1    0    0    0    0  0.00000000000E+00  0.00000000000E+00  0.22058558322E+02  0.22058558322E+02  0.00000000000E+00 0. -1.
         22   -1    0    0    0    0 -0.00000000000E+00 -0.00000000000E+00 -0.63398604765E+00  0.63398604765E+00  0.00000000000E+00 0. -1.
          4    1    1    2  501    0 -0.72189585719E-01  0.17453378170E+01  0.14494398955E+01  0.26009981627E+01  0.12700000000E+01 0. -1.
         -4    1    1    2    0  501  0.72189585719E-01 -0.17453378170E+01  0.19975132379E+02  0.20091546207E+02  0.12700000000E+01 0. -1.
<mgrwt>
<rscale>  0 0.21597026E+01</rscale>
<asrwt>0</asrwt>
<pdfrwt beam="1">0</pdfrwt>
<pdfrwt beam="2">0</pdfrwt>
<totfact> 0.10064528E+12</totfact>
</mgrwt>
</event>
<event>
 4    1  0.3102735E+006  0.2012002E+01  0.7546771E-02  0.2972672E+00
         22   -1    0    0    0    0  0.00000000000E+00  0.00000000000E+00  0.12280506038E+01  0.12280506038E+01  0.00000000000E+00 0.  1.
         22   -1    0    0    0    0 -0.00000000000E+00 -0.00000000000E+00 -0.61007154348E+01  0.61007154348E+01  0.00000000000E+00 0.  1.
          4    1    1    2  501    0  0.63417150480E+00  0.14258601216E+01 -0.49207444297E+01  0.53161900198E+01  0.12700000000E+01 0.  1.
         -4    1    1    2    0  501 -0.63417150480E+00 -0.14258601216E+01  0.48079598628E-01  0.20125760189E+01  0.12700000000E+01 0.  1.
<mgrwt>
<rscale>  0 0.20120016E+01</rscale>
<asrwt>0</asrwt>
<pdfrwt beam="1">0</pdfrwt>
<pdfrwt beam="2">0</pdfrwt>
<totfact> 0.22703099E+12</totfact>
</mgrwt>
</event>
<event>
 4    1  0.3102735E+006  0.2034914E+01  0.7546771E-02  0.2957549E+00
         22   -1    0    0    0    0  0.00000000000E+00  0.00000000000E+00  0.19707334465E+01  0.19707334465E+01  0.00000000000E+00 0. -1.
         22   -1    0    0    0    0 -0.00000000000E+00 -0.00000000000E+00 -0.23051947046E+01  0.23051947046E+01  0.00000000000E+00 0.  1.
          4    1    1    2  501    0  0.81955895512E+00  0.13624605026E+01 -0.80325248512E+00  0.21877134312E+01  0.12700000000E+01 0. -1.
         -4    1    1    2    0  501 -0.81955895512E+00 -0.13624605026E+01  0.46879122708E+00  0.20882147200E+01  0.12700000000E+01 0. -1.
<mgrwt>
<rscale>  0 0.20349141E+01</rscale>
<asrwt>0</asrwt>
<pdfrwt beam="1">0</pdfrwt>
<pdfrwt beam="2">0</pdfrwt>
<totfact> 0.41330326E+12</totfact>
</mgrwt>
</event>
<event>
 4    1  0.3102735E+006  0.2517817E+01  0.7546771E-02  0.2700727E+00
         22   -1    0    0    0    0  0.00000000000E+00  0.00000000000E+00  0.12886109993E+02  0.12886109993E+02  0.00000000000E+00 0. -1.
         22   -1    0    0    0    0 -0.00000000000E+00 -0.00000000000E+00 -0.49239618919E+00  0.49239618919E+00  0.00000000000E+00 0. -1.
          4    1    1    2  501    0  0.19345203257E+01 -0.99203577179E+00  0.63967780007E+01  0.68744579898E+01  0.12700000000E+01 0. -1.
         -4    1    1    2    0  501 -0.19345203257E+01  0.99203577179E+00  0.59969358034E+01  0.65040481927E+01  0.12700000000E+01 0. -1.
<mgrwt>
<rscale>  0 0.25178173E+01</rscale>
<asrwt>0</asrwt>
<pdfrwt beam="1">0</pdfrwt>
<pdfrwt beam="2">0</pdfrwt>
<totfact> 0.26051595E+12</totfact>
</mgrwt>
</event>
<event>
 4    1  0.3102735E+006  0.2666459E+01  0.7546771E-02  0.2639401E+00
         22   -1    0    0    0    0  0.00000000000E+00  0.00000000000E+00  0.18510614917E+01  0.18510614917E+01  0.00000000000E+00 0.  1.
         22   -1    0    0    0    0 -0.00000000000E+00 -0.00000000000E+00 -0.41269321319E+01  0.41269321319E+01  0.00000000000E+00 0. -1.
          4    1    1    2  501    0 -0.15880051126E+00  0.23392062419E+01 -0.19246404502E+01  0.32885018332E+01  0.12700000000E+01 0. -1.
         -4    1    1    2    0  501  0.15880051126E+00 -0.23392062419E+01 -0.35123019003E+00  0.26894917905E+01  0.12700000000E+01 0.  1.
<mgrwt>
<rscale>  0 0.26664590E+01</rscale>
<asrwt>0</asrwt>
<pdfrwt beam="1">0</pdfrwt>
<pdfrwt beam="2">0</pdfrwt>
<totfact> 0.22494450E+12</totfact>
</mgrwt>
</event>
<event>
 4    1  0.3102735E+006  0.3036681E+01  0.7546771E-02  0.2510714E+00
         22   -1    0    0    0    0  0.00000000000E+00  0.00000000000E+00  0.25568541299E+02  0.25568541299E+02  0.00000000000E+00 0. -1.
         22   -1    0    0    0    0 -0.00000000000E+00 -0.00000000000E+00 -0.19850276112E+01  0.19850276112E+01  0.00000000000E+00 0.  1.
          4    1    1    2  501    0  0.25995294211E+01 -0.92248359684E+00 -0.67080655063E+00  0.31098891661E+01  0.12700000000E+01 0.  1.
         -4    1    1    2    0  501 -0.25995294211E+01  0.92248359684E+00  0.24254320238E+02  0.24443679744E+02  0.12700000000E+01 0. -1.
<mgrwt>
<rscale>  0 0.30366806E+01</rscale>
<asrwt>0</asrwt>
<pdfrwt beam="1">0</pdfrwt>
<pdfrwt beam="2">0</pdfrwt>
<totfact> 0.22634713E+11</totfact>
</mgrwt>
</event>
<event>
 4    1  0.3102735E+006  0.2195585E+01  0.7546771E-02  0.2860135E+00
         22   -1    0    0    0    0  0.00000000000E+00  0.00000000000E+00  0.11970298090E+01  0.11970298090E+01  0.00000000000E+00 0. -1.
         22   -1    0    0    0    0 -0.00000000000E+00 -0.00000000000E+00 -0.47133976919E+01  0.47133976919E+01  0.00000000000E+00 0. -1.
          4    1    1    2  501    0  0.16563490463E+01 -0.68132190889E+00 -0.28858211882E+01  0.36260937159E+01  0.12700000000E+01 0. -1.
         -4    1    1    2    0  501 -0.16563490463E+01  0.68132190889E+00 -0.63054669469E+00  0.22843337849E+01  0.12700000000E+01 0. -1.
<mgrwt>
<rscale>  0 0.21955846E+01</rscale>
<asrwt>0</asrwt>
<pdfrwt beam="1">0</pdfrwt>
<pdfrwt beam="2">0</pdfrwt>
<totfact> 0.31752502E+12</totfact>
</mgrwt>
</event>
<event>
 4    1  0.3102735E+006  0.2040759E+01  0.7546771E-02  0.2953745E+00
         22   -1    0    0    0    0  0.00000000000E+00  0.00000000000E+00  0.21885262356E+01  0.21885262356E+01  0.00000000000E+00 0.  1.
         22   -1    0    0    0    0 -0.00000000000E+00 -0.00000000000E+00 -0.62951820716E+01  0.62951820716E+01  0.00000000000E+00 0.  1.
          4    1    1    2  501    0 -0.15358288080E+01  0.43934746709E+00 -0.55965087103E+01  0.59569796095E+01  0.12700000000E+01 0.  1.
         -4    1    1    2    0  501  0.15358288080E+01 -0.43934746709E+00  0.14898528742E+01  0.25267286976E+01  0.12700000000E+01 0.  1.
<mgrwt>
<rscale>  0 0.20407588E+01</rscale>
<asrwt>0</asrwt>
<pdfrwt beam="1">0</pdfrwt>
<pdfrwt beam="2">0</pdfrwt>
<totfact> 0.11235143E+12</totfact>
</mgrwt>
</event>
<event>
 4    1  0.3102735E+006  0.2122349E+01  0.7546771E-02  0.2902767E+00
         22   -1    0    0    0    0  0.00000000000E+00  0.00000000000E+00  0.93469391835E+00  0.93469391835E+00  0.00000000000E+00 0. -1.
         22   -1    0    0    0    0 -0.00000000000E+00 -0.00000000000E+00 -0.62578996981E+01  0.62578996981E+01  0.00000000000E+00 0.  1.
          4    1    1    2  501    0  0.16824740405E+01 -0.24646809155E+00 -0.43860278929E+01  0.48725358998E+01  0.12700000000E+01 0.  1.
         -4    1    1    2    0  501 -0.16824740405E+01  0.24646809155E+00 -0.93717788689E+00  0.23200577167E+01  0.12700000000E+01 0. -1.
<mgrwt>
<rscale>  0 0.21223490E+01</rscale>
<asrwt>0</asrwt>
<pdfrwt beam="1">0</pdfrwt>
<pdfrwt beam="2">0</pdfrwt>
<totfact> 0.30094147E+12</totfact>
</mgrwt>
</event>
<event>
 4    1  0.3102735E+006  0.2931548E+01  0.7546771E-02  0.2544264E+00
         22   -1    0    0    0    0  0.00000000000E+00  0.00000000000E+00  0.18975700597E+01  0.18975700597E+01  0.00000000000E+00 0.  1.
         22   -1    0    0    0    0 -0.00000000000E+00 -0.00000000000E+00 -0.60455822836E+01  0.60455822836E+01  0.00000000000E+00 0. -1.
          4    1    1    2  501    0 -0.24202510060E+01  0.10599344965E+01 -0.40632396652E+01  0.50103784933E+01  0.12700000000E+01 0. -1.
         -4    1    1    2    0  501  0.24202510060E+01 -0.10599344965E+01 -0.84772558749E-01  0.29327738501E+01  0.12700000000E+01 0.  1.
<mgrwt>
<rscale>  0 0.29315484E+01</rscale>
<asrwt>0</asrwt>
<pdfrwt beam="1">0</pdfrwt>
<pdfrwt beam="2">0</pdfrwt>
<totfact> 0.13908997E+12</totfact>
</mgrwt>
</event>
<event>
 4    1  0.3102735E+006  0.2302877E+01  0.7546771E-02  0.2802377E+00
         22   -1    0    0    0    0  0.00000000000E+00  0.00000000000E+00  0.26076105934E+00  0.26076105934E+00  0.00000000000E+00 0. -1.
         22   -1    0    0    0    0 -0.00000000000E+00 -0.00000000000E+00 -0.31431208395E+02  0.31431208395E+02  0.00000000000E+00 0.  1.
          4    1    1    2  501    0 -0.59856679051E+00 -0.18253928307E+01 -0.24999264555E+02  0.25105108434E+02  0.12700000000E+01 0.  1.
         -4    1    1    2    0  501  0.59856679051E+00  0.18253928307E+01 -0.61711827798E+01  0.65868610195E+01  0.12700000000E+01 0. -1.
<mgrwt>
<rscale>  0 0.23028767E+01</rscale>
<asrwt>0</asrwt>
<pdfrwt beam="1">0</pdfrwt>
<pdfrwt beam="2">0</pdfrwt>
<totfact> 0.17486527E+12</totfact>
</mgrwt>
</event>
<event>
 4    1  0.3102735E+006  0.3734653E+01  0.7546771E-02  0.2331079E+00
         22   -1    0    0    0    0  0.00000000000E+00  0.00000000000E+00  0.89506550801E+00  0.89506550801E+00  0.00000000000E+00 0. -1.
         22   -1    0    0    0    0 -0.00000000000E+00 -0.00000000000E+00 -0.22056254979E+02  0.22056254979E+02  0.00000000000E+00 0.  1.
          4    1    1    2  501    0 -0.32588422285E+01 -0.13094578916E+01 -0.16797577192E+02  0.17207737567E+02  0.12700000000E+01 0.  1.
         -4    1    1    2    0  501  0.32588422285E+01  0.13094578916E+01 -0.43636122784E+01  0.57435829198E+01  0.12700000000E+01 0. -1.
<mgrwt>
<rscale>  0 0.37346529E+01</rscale>
<asrwt>0</asrwt>
<pdfrwt beam="1">0</pdfrwt>
<pdfrwt beam="2">0</pdfrwt>
<totfact> 0.68025096E+11</totfact>
</mgrwt>
</event>
<event>
 4    1  0.3102735E+006  0.2162741E+01  0.7546771E-02  0.2878910E+00
         22   -1    0    0    0    0  0.00000000000E+00  0.00000000000E+00  0.21022049459E+02  0.21022049459E+02  0.00000000000E+00 0.  1.
         22   -1    0    0    0    0 -0.00000000000E+00 -0.00000000000E+00 -0.93278989761E+00  0.93278989761E+00  0.00000000000E+00 0.  1.
          4    1    1    2  501    0  0.77756851874E+00 -0.15684188443E+01  0.46551177656E+00  0.22122729683E+01  0.12700000000E+01 0.  1.
         -4    1    1    2    0  501 -0.77756851874E+00  0.15684188443E+01  0.19623747785E+02  0.19742566388E+02  0.12700000000E+01 0.  1.
<mgrwt>
<rscale>  0 0.21627414E+01</rscale>
<asrwt>0</asrwt>
<pdfrwt beam="1">0</pdfrwt>
<pdfrwt beam="2">0</pdfrwt>
<totfact> 0.68911731E+11</totfact>
</mgrwt>
</event>
<event>
 4    1  0.3102735E+006  0.2591513E+01  0.7546771E-02  0.2669510E+00
         22   -1    0    0    0    0  0.00000000000E+00  0.00000000000E+00  0.49483264338E+02  0.49483264338E+02  0.00000000000E+00 0. -1.
         22   -1    0    0    0    0 -0.00000000000E+00 -0.00000000000E+00 -0.23783979200E+00  0.23783979200E+00  0.00000000000E+00 0.  1.
          4    1    1    2  501    0  0.16588425459E+01  0.15333889040E+01  0.83327379720E+01  0.87264232211E+01  0.12700000000E+01 0.  1.
         -4    1    1    2    0  501 -0.16588425459E+01 -0.15333889040E+01  0.40912686574E+02  0.40994680909E+02  0.12700000000E+01 0. -1.
<mgrwt>
<rscale>  0 0.25915131E+01</rscale>
<asrwt>0</asrwt>
<pdfrwt beam="1">0</pdfrwt>
<pdfrwt beam="2">0</pdfrwt>
<totfact> 0.10759050E+12</totfact>
</mgrwt>
</event>
<event>
 4    1  0.3102735E+006  0.2256441E+01  0.7546771E-02  0.2826731E+00
         22   -1    0    0    0    0  0.00000000000E+00  0.00000000000E+00  0.42488242438E+01  0.42488242438E+01  0.00000000000E+00 0. -1.
         22   -1    0    0    0    0 -0.00000000000E+00 -0.00000000000E+00 -0.13857839181E+01  0.13857839181E+01  0.00000000000E+00 0. -1.
          4    1    1    2  501    0 -0.11941357627E+01  0.14327134708E+01  0.24676729659E+01  0.33437909587E+01  0.12700000000E+01 0. -1.
         -4    1    1    2    0  501  0.11941357627E+01 -0.14327134708E+01  0.39536735978E+00  0.22908172032E+01  0.12700000000E+01 0. -1.
<mgrwt>
<rscale>  0 0.22564415E+01</rscale>
<asrwt>0</asrwt>
<pdfrwt beam="1">0</pdfrwt>
<pdfrwt beam="2">0</pdfrwt>
<totfact> 0.30340312E+12</totfact>
</mgrwt>
</event>
<event>
 4    1  0.3102735E+006  0.2708331E+01  0.7546771E-02  0.2623248E+00
         22   -1    0    0    0    0  0.00000000000E+00  0.00000000000E+00  0.61639761886E+00  0.61639761886E+00  0.00000000000E+00 0.  1.
         22   -1    0    0    0    0 -0.00000000000E+00 -0.00000000000E+00 -0.12063238003E+02  0.12063238003E+02  0.00000000000E+00 0.  1.
          4    1    1    2  501    0 -0.54533315398E+00 -0.23291127544E+01 -0.49856484927E+01  0.56737769928E+01  0.12700000000E+01 0.  1.
         -4    1    1    2    0  501  0.54533315398E+00  0.23291127544E+01 -0.64611918909E+01  0.70058586285E+01  0.12700000000E+01 0.  1.
<mgrwt>
<rscale>  0 0.27083306E+01</rscale>
<asrwt>0</asrwt>
<pdfrwt beam="1">0</pdfrwt>
<pdfrwt beam="2">0</pdfrwt>
<totfact> 0.21903917E+12</totfact>
</mgrwt>
</event>
<event>
 4    1  0.3102735E+006  0.2225604E+01  0.7546771E-02  0.2843440E+00
         22   -1    0    0    0    0  0.00000000000E+00  0.00000000000E+00  0.24134215742E+00  0.24134215742E+00  0.00000000000E+00 0. -1.
         22   -1    0    0    0    0 -0.00000000000E+00 -0.00000000000E+00 -0.21430527733E+02  0.21430527733E+02  0.00000000000E+00 0.  1.
          4    1    1    2  501    0 -0.11798505651E+01  0.13958381983E+01 -0.12823209328E+02  0.13014914871E+02  0.12700000000E+01 0. -1.
         -4    1    1    2    0  501  0.11798505651E+01 -0.13958381983E+01 -0.83659762477E+01  0.86569550194E+01  0.12700000000E+01 0.  1.
<mgrwt>
<rscale>  0 0.22256037E+01</rscale>
<asrwt>0</asrwt>
<pdfrwt beam="1">0</pdfrwt>
<pdfrwt beam="2">0</pdfrwt>
<totfact> 0.30942969E+12</totfact>
</mgrwt>
</event>
<event>
 4    1  0.3102735E+006  0.2512380E+01  0.7546771E-02  0.2703097E+00
         22   -1    0    0    0    0  0.00000000000E+00  0.00000000000E+00  0.44685620399E+01  0.44685620399E+01  0.00000000000E+00 0.  1.
         22   -1    0    0    0    0 -0.00000000000E+00 -0.00000000000E+00 -0.65044760556E+01  0.65044760556E+01  0.00000000000E+00 0.  1.
          4    1    1    2  501    0 -0.19835887254E+01 -0.87437263056E+00 -0.58723163812E+01  0.63871865019E+01  0.12700000000E+01 0.  1.
         -4    1    1    2    0  501  0.19835887254E+01  0.87437263056E+00  0.38364023655E+01  0.45858515936E+01  0.12700000000E+01 0.  1.
<mgrwt>
<rscale>  0 0.25123797E+01</rscale>
<asrwt>0</asrwt>
<pdfrwt beam="1">0</pdfrwt>
<pdfrwt beam="2">0</pdfrwt>
<totfact> 0.46890570E+11</totfact>
</mgrwt>
</event>
<event>
 4    1  0.3102735E+006  0.2524090E+01  0.7546771E-02  0.2698004E+00
         22   -1    0    0    0    0  0.00000000000E+00  0.00000000000E+00  0.78738979282E+01  0.78738979282E+01  0.00000000000E+00 0.  1.
         22   -1    0    0    0    0 -0.00000000000E+00 -0.00000000000E+00 -0.14840886350E+01  0.14840886350E+01  0.00000000000E+00 0. -1.
          4    1    1    2  501    0 -0.34316469309E+00 -0.21541513682E+01  0.39463115519E-01  0.25243984355E+01  0.12700000000E+01 0. -1.
         -4    1    1    2    0  501  0.34316469309E+00  0.21541513682E+01  0.63503461776E+01  0.68335881277E+01  0.12700000000E+01 0.  1.
<mgrwt>
<rscale>  0 0.25240900E+01</rscale>
<asrwt>0</asrwt>
<pdfrwt beam="1">0</pdfrwt>
<pdfrwt beam="2">0</pdfrwt>
<totfact> 0.13464224E+12</totfact>
</mgrwt>
</event>
<event>
 4    1  0.3102735E+006  0.4225847E+01  0.7546771E-02  0.2236096E+00
         22   -1    0    0    0    0  0.00000000000E+00  0.00000000000E+00  0.19230216706E+02  0.19230216706E+02  0.00000000000E+00 0. -1.
         22   -1    0    0    0    0 -0.00000000000E+00 -0.00000000000E+00 -0.10115463260E+01  0.10115463260E+01  0.00000000000E+00 0.  1.
          4    1    1    2  501    0 -0.38446450363E+01  0.12097896760E+01  0.62117157912E+01  0.75128689317E+01  0.12700000000E+01 0.  1.
         -4    1    1    2    0  501  0.38446450363E+01 -0.12097896760E+01  0.12006954589E+02  0.12728894100E+02  0.12700000000E+01 0. -1.
<mgrwt>
<rscale>  0 0.42258474E+01</rscale>
<asrwt>0</asrwt>
<pdfrwt beam="1">0</pdfrwt>
<pdfrwt beam="2">0</pdfrwt>
<totfact> 0.70212111E+11</totfact>
</mgrwt>
</event>
<event>
 4    1  0.3102735E+006  0.2452351E+01  0.7546771E-02  0.2729917E+00
         22   -1    0    0    0    0  0.00000000000E+00  0.00000000000E+00  0.13746455830E+00  0.13746455830E+00  0.00000000000E+00 0.  1.
         22   -1    0    0    0    0 -0.00000000000E+00 -0.00000000000E+00 -0.46370047440E+02  0.46370047440E+02  0.00000000000E+00 0.  1.
          4    1    1    2  501    0  0.79799558905E-01 -0.20963672403E+01 -0.17588399125E+02  0.17758541814E+02  0.12700000000E+01 0.  1.
         -4    1    1    2    0  501 -0.79799558905E-01  0.20963672403E+01 -0.28644183756E+02  0.28748970184E+02  0.12700000000E+01 0.  1.
<mgrwt>
<rscale>  0 0.24523506E+01</rscale>
<asrwt>0</asrwt>
<pdfrwt beam="1">0</pdfrwt>
<pdfrwt beam="2">0</pdfrwt>
<totfact> 0.21585731E+12</totfact>
</mgrwt>
</event>
<event>
 4    1  0.3102735E+006  0.2653386E+01  0.7546771E-02  0.2644540E+00
         22   -1    0    0    0    0  0.00000000000E+00  0.00000000000E+00  0.14340116155E+00  0.14340116155E+00  0.00000000000E+00 0. -1.
         22   -1    0    0    0    0 -0.00000000000E+00 -0.00000000000E+00 -0.86101569744E+02  0.86101569744E+02  0.00000000000E+00 0.  1.
          4    1    1    2  501    0 -0.17172757375E+01 -0.15743324203E+01 -0.71249380629E+02  0.71298770667E+02  0.12700000000E+01 0. -1.
         -4    1    1    2    0  501  0.17172757375E+01  0.15743324203E+01 -0.14708787954E+02  0.14946200239E+02  0.12700000000E+01 0. -1.
<mgrwt>
<rscale>  0 0.26533862E+01</rscale>
<asrwt>0</asrwt>
<pdfrwt beam="1">0</pdfrwt>
<pdfrwt beam="2">0</pdfrwt>
<totfact> 0.89558271E+11</totfact>
</mgrwt>
</event>
<event>
 4    1  0.3102735E+006  0.4803894E+01  0.7546771E-02  0.2147165E+00
         22   -1    0    0    0    0  0.00000000000E+00  0.00000000000E+00  0.14571284572E+02  0.14571284572E+02  0.00000000000E+00 0.  1.
         22   -1    0    0    0    0 -0.00000000000E+00 -0.00000000000E+00 -0.46302417432E+01  0.46302417432E+01  0.00000000000E+00 0. -1.
          4    1    1    2  501    0  0.13172224414E+00 -0.46311069480E+01 -0.28170723401E+01  0.55689585097E+01  0.12700000000E+01 0. -1.
         -4    1    1    2    0  501 -0.13172224414E+00  0.46311069480E+01  0.12758115169E+02  0.13632567806E+02  0.12700000000E+01 0.  1.
<mgrwt>
<rscale>  0 0.48038945E+01</rscale>
<asrwt>0</asrwt>
<pdfrwt beam="1">0</pdfrwt>
<pdfrwt beam="2">0</pdfrwt>
<totfact> 0.16941515E+11</totfact>
</mgrwt>
</event>
<event>
 4    1  0.3102735E+006  0.4199478E+01  0.7546771E-02  0.2240712E+00
         22   -1    0    0    0    0  0.00000000000E+00  0.00000000000E+00  0.14065986120E+02  0.14065986120E+02  0.00000000000E+00 0.  1.
         22   -1    0    0    0    0 -0.00000000000E+00 -0.00000000000E+00 -0.26560072449E+01  0.26560072449E+01  0.00000000000E+00 0. -1.
          4    1    1    2  501    0  0.13691397248E+01  0.37614053262E+01 -0.37010519586E+00  0.42157551483E+01  0.12700000000E+01 0. -1.
         -4    1    1    2    0  501 -0.13691397248E+01 -0.37614053262E+01  0.11780084071E+02  0.12506238217E+02  0.12700000000E+01 0.  1.
<mgrwt>
<rscale>  0 0.41994778E+01</rscale>
<asrwt>0</asrwt>
<pdfrwt beam="1">0</pdfrwt>
<pdfrwt beam="2">0</pdfrwt>
<totfact> 0.33952712E+11</totfact>
</mgrwt>
</event>
<event>
 4    1  0.3102735E+006  0.3090637E+01  0.7546771E-02  0.2494291E+00
         22   -1    0    0    0    0  0.00000000000E+00  0.00000000000E+00  0.40369267996E+00  0.40369267996E+00  0.00000000000E+00 0.  1.
         22   -1    0    0    0    0 -0.00000000000E+00 -0.00000000000E+00 -0.25323006612E+02  0.25323006612E+02  0.00000000000E+00 0.  1.
          4    1    1    2  501    0  0.23237633805E+01 -0.15935053738E+01 -0.15754446200E+02  0.16054737952E+02  0.12700000000E+01 0.  1.
         -4    1    1    2    0  501 -0.23237633805E+01  0.15935053738E+01 -0.91648677324E+01  0.96719613408E+01  0.12700000000E+01 0.  1.
<mgrwt>
<rscale>  0 0.30906368E+01</rscale>
<asrwt>0</asrwt>
<pdfrwt beam="1">0</pdfrwt>
<pdfrwt beam="2">0</pdfrwt>
<totfact> 0.14088306E+12</totfact>
</mgrwt>
</event>
<event>
 4    1  0.3102735E+006  0.2063205E+01  0.7546771E-02  0.2939329E+00
         22   -1    0    0    0    0  0.00000000000E+00  0.00000000000E+00  0.72325229810E+02  0.72325229810E+02  0.00000000000E+00 0.  1.
         22   -1    0    0    0    0 -0.00000000000E+00 -0.00000000000E+00 -0.66114951957E-01  0.66114951957E-01  0.00000000000E+00 0.  1.
          4    1    1    2  501    0  0.16001709213E+01 -0.28873477777E+00  0.24136586030E+02  0.24224607323E+02  0.12700000000E+01 0. -1.
         -4    1    1    2    0  501 -0.16001709213E+01  0.28873477777E+00  0.48122528828E+02  0.48166737439E+02  0.12700000000E+01 0. -1.
<mgrwt>
<rscale>  0 0.20632050E+01</rscale>
<asrwt>0</asrwt>
<pdfrwt beam="1">0</pdfrwt>
<pdfrwt beam="2">0</pdfrwt>
<totfact> 0.26800477E+12</totfact>
</mgrwt>
</event>
<event>
 4    1  0.3102735E+006  0.3775971E+01  0.7546771E-02  0.2322279E+00
         22   -1    0    0    0    0  0.00000000000E+00  0.00000000000E+00  0.36605406077E+01  0.36605406077E+01  0.00000000000E+00 0.  1.
         22   -1    0    0    0    0 -0.00000000000E+00 -0.00000000000E+00 -0.84217982124E+01  0.84217982124E+01  0.00000000000E+00 0. -1.
          4    1    1    2  501    0  0.14045822129E+01  0.32668343373E+01 -0.68096950207E+01  0.77865206643E+01  0.12700000000E+01 0. -1.
         -4    1    1    2    0  501 -0.14045822129E+01 -0.32668343373E+01  0.20484374161E+01  0.42958181558E+01  0.12700000000E+01 0.  1.
<mgrwt>
<rscale>  0 0.37759711E+01</rscale>
<asrwt>0</asrwt>
<pdfrwt beam="1">0</pdfrwt>
<pdfrwt beam="2">0</pdfrwt>
<totfact> 0.43512672E+11</totfact>
</mgrwt>
</event>
<event>
 4    1  0.3102735E+006  0.2251416E+01  0.7546771E-02  0.2829424E+00
         22   -1    0    0    0    0  0.00000000000E+00  0.00000000000E+00  0.17960310308E+00  0.17960310308E+00  0.00000000000E+00 0.  1.
         22   -1    0    0    0    0 -0.00000000000E+00 -0.00000000000E+00 -0.29029657351E+02  0.29029657351E+02  0.00000000000E+00 0.  1.
          4    1    1    2  501    0  0.14530961567E+01  0.11595204219E+01 -0.16860075304E+02  0.17009732958E+02  0.12700000000E+01 0.  1.
         -4    1    1    2    0  501 -0.14530961567E+01 -0.11595204219E+01 -0.11989978944E+02  0.12199527496E+02  0.12700000000E+01 0.  1.
<mgrwt>
<rscale>  0 0.22514165E+01</rscale>
<asrwt>0</asrwt>
<pdfrwt beam="1">0</pdfrwt>
<pdfrwt beam="2">0</pdfrwt>
<totfact> 0.29344409E+12</totfact>
</mgrwt>
</event>
<event>
 4    1  0.3102735E+006  0.2729487E+01  0.7546771E-02  0.2615259E+00
         22   -1    0    0    0    0  0.00000000000E+00  0.00000000000E+00  0.49781349619E+01  0.49781349619E+01  0.00000000000E+00 0. -1.
         22   -1    0    0    0    0 -0.00000000000E+00 -0.00000000000E+00 -0.19667575134E+01  0.19667575134E+01  0.00000000000E+00 0. -1.
          4    1    1    2  501    0 -0.91330386556E+00  0.22367551103E+01 -0.19215790404E+00  0.27362423201E+01  0.12700000000E+01 0. -1.
         -4    1    1    2    0  501  0.91330386556E+00 -0.22367551103E+01  0.32035353525E+01  0.42086501552E+01  0.12700000000E+01 0. -1.
<mgrwt>
<rscale>  0 0.27294867E+01</rscale>
<asrwt>0</asrwt>
<pdfrwt beam="1">0</pdfrwt>
<pdfrwt beam="2">0</pdfrwt>
<totfact> 0.16806280E+12</totfact>
</mgrwt>
</event>
<event>
 4    1  0.3102735E+006  0.2427913E+01  0.7546771E-02  0.2741190E+00
         22   -1    0    0    0    0  0.00000000000E+00  0.00000000000E+00  0.12298784613E+01  0.12298784613E+01  0.00000000000E+00 0.  1.
         22   -1    0    0    0    0 -0.00000000000E+00 -0.00000000000E+00 -0.10487479634E+02  0.10487479634E+02  0.00000000000E+00 0. -1.
          4    1    1    2  501    0 -0.14036749132E+01  0.15203806568E+01 -0.89459056372E+01  0.92695193119E+01  0.12700000000E+01 0. -1.
         -4    1    1    2    0  501  0.14036749132E+01 -0.15203806568E+01 -0.31169553565E+00  0.24478387836E+01  0.12700000000E+01 0.  1.
<mgrwt>
<rscale>  0 0.24279128E+01</rscale>
<asrwt>0</asrwt>
<pdfrwt beam="1">0</pdfrwt>
<pdfrwt beam="2">0</pdfrwt>
<totfact> 0.11820992E+12</totfact>
</mgrwt>
</event>
<event>
 4    1  0.3102735E+006  0.2832083E+01  0.7546771E-02  0.2578063E+00
         22   -1    0    0    0    0  0.00000000000E+00  0.00000000000E+00  0.29287107343E+01  0.29287107343E+01  0.00000000000E+00 0.  1.
         22   -1    0    0    0    0 -0.00000000000E+00 -0.00000000000E+00 -0.30366690206E+01  0.30366690206E+01  0.00000000000E+00 0. -1.
          4    1    1    2  501    0  0.19017719796E+01  0.16706455792E+01 -0.98838687287E+00  0.29996002941E+01  0.12700000000E+01 0. -1.
         -4    1    1    2    0  501 -0.19017719796E+01 -0.16706455792E+01  0.88042858659E+00  0.29657794608E+01  0.12700000000E+01 0.  1.
<mgrwt>
<rscale>  0 0.28320829E+01</rscale>
<asrwt>0</asrwt>
<pdfrwt beam="1">0</pdfrwt>
<pdfrwt beam="2">0</pdfrwt>
<totfact> 0.18921270E+12</totfact>
</mgrwt>
</event>
<event>
 4    1  0.3102735E+006  0.3691028E+01  0.7546771E-02  0.2340556E+00
         22   -1    0    0    0    0  0.00000000000E+00  0.00000000000E+00  0.53814747605E+01  0.53814747605E+01  0.00000000000E+00 0.  1.
         22   -1    0    0    0    0 -0.00000000000E+00 -0.00000000000E+00 -0.30670733028E+01  0.30670733028E+01  0.00000000000E+00 0. -1.
          4    1    1    2  501    0  0.12349537021E+01 -0.32381592875E+01  0.29222754012E+01  0.47077998829E+01  0.12700000000E+01 0.  1.
         -4    1    1    2    0  501 -0.12349537021E+01  0.32381592875E+01 -0.60787394348E+00  0.37407481803E+01  0.12700000000E+01 0. -1.
<mgrwt>
<rscale>  0 0.36910278E+01</rscale>
<asrwt>0</asrwt>
<pdfrwt beam="1">0</pdfrwt>
<pdfrwt beam="2">0</pdfrwt>
<totfact> 0.91409453E+11</totfact>
</mgrwt>
</event>
<event>
 4    1  0.3102735E+006  0.2787513E+01  0.7546771E-02  0.2593915E+00
         22   -1    0    0    0    0  0.00000000000E+00  0.00000000000E+00  0.83224117969E+01  0.83224117969E+01  0.00000000000E+00 0.  1.
         22   -1    0    0    0    0 -0.00000000000E+00 -0.00000000000E+00 -0.24194630580E+01  0.24194630580E+01  0.00000000000E+00 0.  1.
          4    1    1    2  501    0  0.24812964062E+01  0.22345102987E-01 -0.12574631671E+01  0.30580132072E+01  0.12700000000E+01 0.  1.
         -4    1    1    2    0  501 -0.24812964062E+01 -0.22345102987E-01  0.71604119060E+01  0.76838616478E+01  0.12700000000E+01 0.  1.
<mgrwt>
<rscale>  0 0.27875134E+01</rscale>
<asrwt>0</asrwt>
<pdfrwt beam="1">0</pdfrwt>
<pdfrwt beam="2">0</pdfrwt>
<totfact> 0.71590630E+11</totfact>
</mgrwt>
</event>
<event>
 4    1  0.3102735E+006  0.2007874E+01  0.7546771E-02  0.2975433E+00
         22   -1    0    0    0    0  0.00000000000E+00  0.00000000000E+00  0.11522158926E+01  0.11522158926E+01  0.00000000000E+00 0.  1.
         22   -1    0    0    0    0 -0.00000000000E+00 -0.00000000000E+00 -0.36549056481E+01  0.36549056481E+01  0.00000000000E+00 0. -1.
          4    1    1    2  501    0 -0.10256673943E+01  0.11690436567E+01 -0.17478279333E+01  0.26620404128E+01  0.12700000000E+01 0. -1.
         -4    1    1    2    0  501  0.10256673943E+01 -0.11690436567E+01 -0.75486182219E+00  0.21450811280E+01  0.12700000000E+01 0.  1.
<mgrwt>
<rscale>  0 0.20078737E+01</rscale>
<asrwt>0</asrwt>
<pdfrwt beam="1">0</pdfrwt>
<pdfrwt beam="2">0</pdfrwt>
<totfact> 0.44755547E+12</totfact>
</mgrwt>
</event>
<event>
 4    1  0.3102735E+006  0.2631309E+01  0.7546771E-02  0.2653326E+00
         22   -1    0    0    0    0  0.00000000000E+00  0.00000000000E+00  0.17389665106E+00  0.17389665106E+00  0.00000000000E+00 0.  1.
         22   -1    0    0    0    0 -0.00000000000E+00 -0.00000000000E+00 -0.56441084360E+02  0.56441084360E+02  0.00000000000E+00 0. -1.
          4    1    1    2  501    0 -0.22913291223E+01  0.24637048552E+00 -0.43497149785E+02  0.43576666084E+02  0.12700000000E+01 0. -1.
         -4    1    1    2    0  501  0.22913291223E+01 -0.24637048552E+00 -0.12770037924E+02  0.13038314927E+02  0.12700000000E+01 0.  1.
<mgrwt>
<rscale>  0 0.26313091E+01</rscale>
<asrwt>0</asrwt>
<pdfrwt beam="1">0</pdfrwt>
<pdfrwt beam="2">0</pdfrwt>
<totfact> 0.12818258E+12</totfact>
</mgrwt>
</event>
<event>
 4    1  0.3102735E+006  0.2500652E+01  0.7546771E-02  0.2708243E+00
         22   -1    0    0    0    0  0.00000000000E+00  0.00000000000E+00  0.66072896097E+01  0.66072896097E+01  0.00000000000E+00 0. -1.
         22   -1    0    0    0    0 -0.00000000000E+00 -0.00000000000E+00 -0.98368278917E+00  0.98368278917E+00  0.00000000000E+00 0. -1.
          4    1    1    2  501    0  0.19761713453E+01 -0.85738400685E+00  0.20730715495E+01  0.32482127656E+01  0.12700000000E+01 0. -1.
         -4    1    1    2    0  501 -0.19761713453E+01  0.85738400685E+00  0.35505352710E+01  0.43427596333E+01  0.12700000000E+01 0. -1.
<mgrwt>
<rscale>  0 0.25006520E+01</rscale>
<asrwt>0</asrwt>
<pdfrwt beam="1">0</pdfrwt>
<pdfrwt beam="2">0</pdfrwt>
<totfact> 0.26609901E+12</totfact>
</mgrwt>
</event>
<event>
 4    1  0.3102735E+006  0.2133665E+01  0.7546771E-02  0.2895996E+00
         22   -1    0    0    0    0  0.00000000000E+00  0.00000000000E+00  0.64932062908E+02  0.64932062908E+02  0.00000000000E+00 0. -1.
         22   -1    0    0    0    0 -0.00000000000E+00 -0.00000000000E+00 -0.75962184621E-01  0.75962184621E-01  0.00000000000E+00 0. -1.
          4    1    1    2  501    0  0.55428411056E+00  0.16224653553E+01  0.23407801531E+02  0.23504844123E+02  0.12700000000E+01 0. -1.
         -4    1    1    2    0  501 -0.55428411056E+00 -0.16224653553E+01  0.41448299192E+02  0.41503180970E+02  0.12700000000E+01 0. -1.
<mgrwt>
<rscale>  0 0.21336646E+01</rscale>
<asrwt>0</asrwt>
<pdfrwt beam="1">0</pdfrwt>
<pdfrwt beam="2">0</pdfrwt>
<totfact> 0.26610504E+12</totfact>
</mgrwt>
</event>
<event>
 4    1  0.3102735E+006  0.3886330E+01  0.7546771E-02  0.2299564E+00
         22   -1    0    0    0    0  0.00000000000E+00  0.00000000000E+00  0.41782112820E+01  0.41782112820E+01  0.00000000000E+00 0. -1.
         22   -1    0    0    0    0 -0.00000000000E+00 -0.00000000000E+00 -0.86426893394E+01  0.86426893394E+01  0.00000000000E+00 0.  1.
          4    1    1    2  501    0  0.61171785067E+00  0.36216660160E+01 -0.71216352589E+01  0.81130297806E+01  0.12700000000E+01 0.  1.
         -4    1    1    2    0  501 -0.61171785067E+00 -0.36216660160E+01  0.26571572016E+01  0.47078708408E+01  0.12700000000E+01 0. -1.
<mgrwt>
<rscale>  0 0.38863303E+01</rscale>
<asrwt>0</asrwt>
<pdfrwt beam="1">0</pdfrwt>
<pdfrwt beam="2">0</pdfrwt>
<totfact> 0.36100987E+11</totfact>
</mgrwt>
</event>
<event>
 4    1  0.3102735E+006  0.2301494E+01  0.7546771E-02  0.2803089E+00
         22   -1    0    0    0    0  0.00000000000E+00  0.00000000000E+00  0.33954343740E+01  0.33954343740E+01  0.00000000000E+00 0. -1.
         22   -1    0    0    0    0 -0.00000000000E+00 -0.00000000000E+00 -0.24149058000E+01  0.24149058000E+01  0.00000000000E+00 0.  1.
          4    1    1    2  501    0  0.99363699162E-02 -0.19193426369E+01 -0.12382811611E+01  0.26134680261E+01  0.12700000000E+01 0.  1.
         -4    1    1    2    0  501 -0.99363699162E-02  0.19193426369E+01  0.22188097351E+01  0.31968721479E+01  0.12700000000E+01 0. -1.
<mgrwt>
<rscale>  0 0.23014941E+01</rscale>
<asrwt>0</asrwt>
<pdfrwt beam="1">0</pdfrwt>
<pdfrwt beam="2">0</pdfrwt>
<totfact> 0.20786066E+12</totfact>
</mgrwt>
</event>
<event>
 4    1  0.3102735E+006  0.2161417E+01  0.7546771E-02  0.2879679E+00
         22   -1    0    0    0    0  0.00000000000E+00  0.00000000000E+00  0.90289658846E+00  0.90289658846E+00  0.00000000000E+00 0. -1.
         22   -1    0    0    0    0 -0.00000000000E+00 -0.00000000000E+00 -0.51892544599E+01  0.51892544599E+01  0.00000000000E+00 0. -1.
          4    1    1    2  501    0  0.18537234313E+00 -0.17390972542E+01 -0.23075193030E+01  0.31617032592E+01  0.12700000000E+01 0. -1.
         -4    1    1    2    0  501 -0.18537234313E+00  0.17390972542E+01 -0.19788385685E+01  0.29304477892E+01  0.12700000000E+01 0. -1.
<mgrwt>
<rscale>  0 0.21614167E+01</rscale>
<asrwt>0</asrwt>
<pdfrwt beam="1">0</pdfrwt>
<pdfrwt beam="2">0</pdfrwt>
<totfact> 0.39109690E+12</totfact>
</mgrwt>
</event>
<event>
 4    1  0.3102735E+006  0.7076101E+01  0.7546771E-02  0.1934792E+00
         22   -1    0    0    0    0  0.00000000000E+00  0.00000000000E+00  0.98592571819E+01  0.98592571819E+01  0.00000000000E+00 0.  1.
         22   -1    0    0    0    0 -0.00000000000E+00 -0.00000000000E+00 -0.54704037877E+01  0.54704037877E+01  0.00000000000E+00 0. -1.
          4    1    1    2  501    0 -0.17275121574E+01 -0.67434422720E+01  0.42457203166E+01  0.82521120289E+01  0.12700000000E+01 0. -1.
         -4    1    1    2    0  501  0.17275121574E+01  0.67434422720E+01  0.14313307762E+00  0.70775489407E+01  0.12700000000E+01 0.  1.
<mgrwt>
<rscale>  0 0.70761015E+01</rscale>
<asrwt>0</asrwt>
<pdfrwt beam="1">0</pdfrwt>
<pdfrwt beam="2">0</pdfrwt>
<totfact> 0.22390887E+11</totfact>
</mgrwt>
</event>
<event>
 4    1  0.3102735E+006  0.2203112E+01  0.7546771E-02  0.2855908E+00
         22   -1    0    0    0    0  0.00000000000E+00  0.00000000000E+00  0.26959082198E+01  0.26959082198E+01  0.00000000000E+00 0.  1.
         22   -1    0    0    0    0 -0.00000000000E+00 -0.00000000000E+00 -0.18773020315E+01  0.18773020315E+01  0.00000000000E+00 0. -1.
          4    1    1    2  501    0  0.15974428183E+01  0.83004642538E+00 -0.53510525246E-01  0.22037613306E+01  0.12700000000E+01 0.  1.
         -4    1    1    2    0  501 -0.15974428183E+01 -0.83004642538E+00  0.87211671359E+00  0.23694489207E+01  0.12700000000E+01 0.  1.
<mgrwt>
<rscale>  0 0.22031116E+01</rscale>
<asrwt>0</asrwt>
<pdfrwt beam="1">0</pdfrwt>
<pdfrwt beam="2">0</pdfrwt>
<totfact> 0.36441225E+12</totfact>
</mgrwt>
</event>
<event>
 4    1  0.3102735E+006  0.3175712E+01  0.7546771E-02  0.2469409E+00
         22   -1    0    0    0    0  0.00000000000E+00  0.00000000000E+00  0.28226347612E+01  0.28226347612E+01  0.00000000000E+00 0. -1.
         22   -1    0    0    0    0 -0.00000000000E+00 -0.00000000000E+00 -0.40604449122E+01  0.40604449122E+01  0.00000000000E+00 0.  1.
          4    1    1    2  501    0 -0.26641190866E+01 -0.11724832727E+01  0.57356837748E+00  0.32270928428E+01  0.12700000000E+01 0. -1.
         -4    1    1    2    0  501  0.26641190866E+01  0.11724832727E+01 -0.18113785285E+01  0.36559868306E+01  0.12700000000E+01 0.  1.
<mgrwt>
<rscale>  0 0.31757121E+01</rscale>
<asrwt>0</asrwt>
<pdfrwt beam="1">0</pdfrwt>
<pdfrwt beam="2">0</pdfrwt>
<totfact> 0.14049833E+12</totfact>
</mgrwt>
</event>
<event>
 4    1  0.3102735E+006  0.3497668E+01  0.7546771E-02  0.2385008E+00
         22   -1    0    0    0    0  0.00000000000E+00  0.00000000000E+00  0.20411476323E+01  0.20411476323E+01  0.00000000000E+00 0.  1.
         22   -1    0    0    0    0 -0.00000000000E+00 -0.00000000000E+00 -0.61974625903E+01  0.61974625903E+01  0.00000000000E+00 0.  1.
          4    1    1    2  501    0  0.28115898498E+01  0.16479510538E+01 -0.13309176481E+01  0.37423284123E+01  0.12700000000E+01 0.  1.
         -4    1    1    2    0  501 -0.28115898498E+01 -0.16479510538E+01 -0.28253973099E+01  0.44962818104E+01  0.12700000000E+01 0.  1.
<mgrwt>
<rscale>  0 0.34976678E+01</rscale>
<asrwt>0</asrwt>
<pdfrwt beam="1">0</pdfrwt>
<pdfrwt beam="2">0</pdfrwt>
<totfact> 0.12411153E+12</totfact>
</mgrwt>
</event>
<event>
 4    1  0.3102735E+006  0.5046329E+01  0.7546771E-02  0.2117514E+00
         22   -1    0    0    0    0  0.00000000000E+00  0.00000000000E+00  0.81331326741E+02  0.81331326741E+02  0.00000000000E+00 0.  1.
         22   -1    0    0    0    0 -0.00000000000E+00 -0.00000000000E+00 -0.34237021957E+01  0.34237021957E+01  0.00000000000E+00 0. -1.
          4    1    1    2  501    0 -0.48346019042E+01  0.69221586207E+00 -0.14394763089E+01  0.52476214055E+01  0.12700000000E+01 0. -1.
         -4    1    1    2    0  501  0.48346019042E+01 -0.69221586207E+00  0.79347100854E+02  0.79507407531E+02  0.12700000000E+01 0.  1.
<mgrwt>
<rscale>  0 0.50463292E+01</rscale>
<asrwt>0</asrwt>
<pdfrwt beam="1">0</pdfrwt>
<pdfrwt beam="2">0</pdfrwt>
<totfact> 0.26254933E+10</totfact>
</mgrwt>
</event>
<event>
 4    1  0.3102735E+006  0.3830490E+01  0.7546771E-02  0.2310917E+00
         22   -1    0    0    0    0  0.00000000000E+00  0.00000000000E+00  0.17974979130E+02  0.17974979130E+02  0.00000000000E+00 0.  1.
         22   -1    0    0    0    0 -0.00000000000E+00 -0.00000000000E+00 -0.22556298833E+01  0.22556298833E+01  0.00000000000E+00 0. -1.
          4    1    1    2  501    0  0.16023073085E+01 -0.32391924627E+01 -0.22063289508E+00  0.38368392455E+01  0.12700000000E+01 0. -1.
         -4    1    1    2    0  501 -0.16023073085E+01  0.32391924627E+01  0.15939982141E+02  0.16393769768E+02  0.12700000000E+01 0.  1.
<mgrwt>
<rscale>  0 0.38304904E+01</rscale>
<asrwt>0</asrwt>
<pdfrwt beam="1">0</pdfrwt>
<pdfrwt beam="2">0</pdfrwt>
<totfact> 0.30337337E+11</totfact>
</mgrwt>
</event>
<event>
 4    1  0.3102735E+006  0.2754212E+01  0.7546771E-02  0.2606064E+00
         22   -1    0    0    0    0  0.00000000000E+00  0.00000000000E+00  0.15790082242E+01  0.15790082242E+01  0.00000000000E+00 0.  1.
         22   -1    0    0    0    0 -0.00000000000E+00 -0.00000000000E+00 -0.49555073530E+01  0.49555073530E+01  0.00000000000E+00 0. -1.
          4    1    1    2  501    0  0.33961462527E+00 -0.24202160937E+01 -0.22593855221E+01  0.35623737832E+01  0.12700000000E+01 0. -1.
         -4    1    1    2    0  501 -0.33961462527E+00  0.24202160937E+01 -0.11171136067E+01  0.29721417941E+01  0.12700000000E+01 0.  1.
<mgrwt>
<rscale>  0 0.27542121E+01</rscale>
<asrwt>0</asrwt>
<pdfrwt beam="1">0</pdfrwt>
<pdfrwt beam="2">0</pdfrwt>
<totfact> 0.21772296E+12</totfact>
</mgrwt>
</event>
<event>
 4    1  0.3102735E+006  0.2474990E+01  0.7546771E-02  0.2719660E+00
         22   -1    0    0    0    0  0.00000000000E+00  0.00000000000E+00  0.55974841856E+01  0.55974841856E+01  0.00000000000E+00 0. -1.
         22   -1    0    0    0    0 -0.00000000000E+00 -0.00000000000E+00 -0.15996281978E+01  0.15996281978E+01  0.00000000000E+00 0.  1.
          4    1    1    2  501    0 -0.84935299377E+00 -0.19471192041E+01 -0.23562947898E-01  0.24751017990E+01  0.12700000000E+01 0.  1.
         -4    1    1    2    0  501  0.84935299377E+00  0.19471192041E+01  0.40214189356E+01  0.47220105844E+01  0.12700000000E+01 0. -1.
<mgrwt>
<rscale>  0 0.24749896E+01</rscale>
<asrwt>0</asrwt>
<pdfrwt beam="1">0</pdfrwt>
<pdfrwt beam="2">0</pdfrwt>
<totfact> 0.18564048E+12</totfact>
</mgrwt>
</event>
<event>
 4    1  0.3102735E+006  0.2743658E+01  0.7546771E-02  0.2609970E+00
         22   -1    0    0    0    0  0.00000000000E+00  0.00000000000E+00  0.10928447343E+01  0.10928447343E+01  0.00000000000E+00 0.  1.
         22   -1    0    0    0    0 -0.00000000000E+00 -0.00000000000E+00 -0.10501742292E+02  0.10501742292E+02  0.00000000000E+00 0. -1.
          4    1    1    2  501    0 -0.16414253300E+01 -0.17945701885E+01 -0.81051246571E+01  0.85569097800E+01  0.12700000000E+01 0. -1.
         -4    1    1    2    0  501  0.16414253300E+01  0.17945701885E+01 -0.13037729002E+01  0.30376772460E+01  0.12700000000E+01 0.  1.
<mgrwt>
<rscale>  0 0.27436580E+01</rscale>
<asrwt>0</asrwt>
<pdfrwt beam="1">0</pdfrwt>
<pdfrwt beam="2">0</pdfrwt>
<totfact> 0.13511085E+12</totfact>
</mgrwt>
</event>
<event>
 4    1  0.3102735E+006  0.2200939E+01  0.7546771E-02  0.2857125E+00
         22   -1    0    0    0    0  0.00000000000E+00  0.00000000000E+00  0.78100121276E+00  0.78100121276E+00  0.00000000000E+00 0.  1.
         22   -1    0    0    0    0 -0.00000000000E+00 -0.00000000000E+00 -0.68295945225E+01  0.68295945225E+01  0.00000000000E+00 0. -1.
          4    1    1    2  501    0  0.14479357704E+01 -0.10652303884E+01 -0.41774029367E+01  0.47217400470E+01  0.12700000000E+01 0. -1.
         -4    1    1    2    0  501 -0.14479357704E+01  0.10652303884E+01 -0.18711903730E+01  0.28888556883E+01  0.12700000000E+01 0.  1.
<mgrwt>
<rscale>  0 0.22009393E+01</rscale>
<asrwt>0</asrwt>
<pdfrwt beam="1">0</pdfrwt>
<pdfrwt beam="2">0</pdfrwt>
<totfact> 0.33267991E+12</totfact>
</mgrwt>
</event>
<event>
 4    1  0.3102735E+006  0.3449314E+01  0.7546771E-02  0.2396799E+00
         22   -1    0    0    0    0  0.00000000000E+00  0.00000000000E+00  0.57275849597E+02  0.57275849597E+02  0.00000000000E+00 0.  1.
         22   -1    0    0    0    0 -0.00000000000E+00 -0.00000000000E+00 -0.31698421213E+00  0.31698421213E+00  0.00000000000E+00 0.  1.
          4    1    1    2  501    0  0.25968235750E+01 -0.18818542714E+01  0.11573321144E+02  0.12076403872E+02  0.12700000000E+01 0.  1.
         -4    1    1    2    0  501 -0.25968235750E+01  0.18818542714E+01  0.45385544241E+02  0.45516429937E+02  0.12700000000E+01 0.  1.
<mgrwt>
<rscale>  0 0.34493142E+01</rscale>
<asrwt>0</asrwt>
<pdfrwt beam="1">0</pdfrwt>
<pdfrwt beam="2">0</pdfrwt>
<totfact> 0.64251778E+11</totfact>
</mgrwt>
</event>
<event>
 4    1  0.3102735E+006  0.2477615E+01  0.7546771E-02  0.2718482E+00
         22   -1    0    0    0    0  0.00000000000E+00  0.00000000000E+00  0.84600797445E+01  0.84600797445E+01  0.00000000000E+00 0.  1.
         22   -1    0    0    0    0 -0.00000000000E+00 -0.00000000000E+00 -0.12014259976E+01  0.12014259976E+01  0.00000000000E+00 0. -1.
          4    1    1    2  501    0  0.12989430553E+01  0.16847622451E+01  0.58918770358E+00  0.25467074888E+01  0.12700000000E+01 0. -1.
         -4    1    1    2    0  501 -0.12989430553E+01 -0.16847622451E+01  0.66694660432E+01  0.71147982533E+01  0.12700000000E+01 0.  1.
<mgrwt>
<rscale>  0 0.24776152E+01</rscale>
<asrwt>0</asrwt>
<pdfrwt beam="1">0</pdfrwt>
<pdfrwt beam="2">0</pdfrwt>
<totfact> 0.15741145E+12</totfact>
</mgrwt>
</event>
<event>
 4    1  0.3102735E+006  0.2050779E+01  0.7546771E-02  0.2947271E+00
         22   -1    0    0    0    0  0.00000000000E+00  0.00000000000E+00  0.20576014320E+00  0.20576014320E+00  0.00000000000E+00 0.  1.
         22   -1    0    0    0    0 -0.00000000000E+00 -0.00000000000E+00 -0.21005427440E+02  0.21005427440E+02  0.00000000000E+00 0. -1.
          4    1    1    2  501    0 -0.76368938159E+00  0.14175945861E+01 -0.12140177283E+02  0.12312172852E+02  0.12700000000E+01 0. -1.
         -4    1    1    2    0  501  0.76368938159E+00 -0.14175945861E+01 -0.86594900147E+01  0.88990147318E+01  0.12700000000E+01 0.  1.
<mgrwt>
<rscale>  0 0.20507793E+01</rscale>
<asrwt>0</asrwt>
<pdfrwt beam="1">0</pdfrwt>
<pdfrwt beam="2">0</pdfrwt>
<totfact> 0.37914166E+12</totfact>
</mgrwt>
</event>
<event>
 4    1  0.3102735E+006  0.2529007E+01  0.7546771E-02  0.2695878E+00
         22   -1    0    0    0    0  0.00000000000E+00  0.00000000000E+00  0.29103811124E+01  0.29103811124E+01  0.00000000000E+00 0.  1.
         22   -1    0    0    0    0 -0.00000000000E+00 -0.00000000000E+00 -0.30118079584E+01  0.30118079584E+01  0.00000000000E+00 0. -1.
          4    1    1    2  501    0  0.15215325406E+01  0.15709599912E+01  0.14888734352E+01  0.29347266776E+01  0.12700000000E+01 0.  1.
         -4    1    1    2    0  501 -0.15215325406E+01 -0.15709599912E+01 -0.15903002812E+01  0.29874623932E+01  0.12700000000E+01 0. -1.
<mgrwt>
<rscale>  0 0.25290070E+01</rscale>
<asrwt>0</asrwt>
<pdfrwt beam="1">0</pdfrwt>
<pdfrwt beam="2">0</pdfrwt>
<totfact> 0.19244144E+12</totfact>
</mgrwt>
</event>
<event>
 4    1  0.3102735E+006  0.2267592E+01  0.7546771E-02  0.2820796E+00
         22   -1    0    0    0    0  0.00000000000E+00  0.00000000000E+00  0.81105148244E+01  0.81105148244E+01  0.00000000000E+00 0. -1.
         22   -1    0    0    0    0 -0.00000000000E+00 -0.00000000000E+00 -0.69519108650E+00  0.69519108650E+00  0.00000000000E+00 0.  1.
          4    1    1    2  501    0 -0.93693537599E-01 -0.18762453332E+01  0.24012920446E+01  0.33027531716E+01  0.12700000000E+01 0.  1.
         -4    1    1    2    0  501  0.93693537599E-01  0.18762453332E+01  0.50140316934E+01  0.55029527393E+01  0.12700000000E+01 0. -1.
<mgrwt>
<rscale>  0 0.22675923E+01</rscale>
<asrwt>0</asrwt>
<pdfrwt beam="1">0</pdfrwt>
<pdfrwt beam="2">0</pdfrwt>
<totfact> 0.30901582E+12</totfact>
</mgrwt>
</event>
<event>
 4    1  0.3102735E+006  0.2699310E+01  0.7546771E-02  0.2626689E+00
         22   -1    0    0    0    0  0.00000000000E+00  0.00000000000E+00  0.30151171779E+02  0.30151171779E+02  0.00000000000E+00 0.  1.
         22   -1    0    0    0    0 -0.00000000000E+00 -0.00000000000E+00 -0.32827405792E+00  0.32827405792E+00  0.00000000000E+00 0. -1.
          4    1    1    2  501    0 -0.22538060164E+01  0.77054019231E+00  0.70833222711E+01  0.75802195314E+01  0.12700000000E+01 0.  1.
         -4    1    1    2    0  501  0.22538060164E+01 -0.77054019231E+00  0.22739575450E+02  0.22899226305E+02  0.12700000000E+01 0. -1.
<mgrwt>
<rscale>  0 0.26993099E+01</rscale>
<asrwt>0</asrwt>
<pdfrwt beam="1">0</pdfrwt>
<pdfrwt beam="2">0</pdfrwt>
<totfact> 0.14245810E+12</totfact>
</mgrwt>
</event>
<event>
 4    1  0.3102735E+006  0.2129729E+01  0.7546771E-02  0.2898343E+00
         22   -1    0    0    0    0  0.00000000000E+00  0.00000000000E+00  0.40454258667E+01  0.40454258667E+01  0.00000000000E+00 0. -1.
         22   -1    0    0    0    0 -0.00000000000E+00 -0.00000000000E+00 -0.17117898140E+01  0.17117898140E+01  0.00000000000E+00 0.  1.
          4    1    1    2  501    0  0.16431187397E+01 -0.47223760170E+00 -0.52400752144E+00  0.21932467777E+01  0.12700000000E+01 0.  1.
         -4    1    1    2    0  501 -0.16431187397E+01  0.47223760170E+00  0.28576435741E+01  0.35639689031E+01  0.12700000000E+01 0. -1.
<mgrwt>
<rscale>  0 0.21297295E+01</rscale>
<asrwt>0</asrwt>
<pdfrwt beam="1">0</pdfrwt>
<pdfrwt beam="2">0</pdfrwt>
<totfact> 0.25204040E+12</totfact>
</mgrwt>
</event>
<event>
 4    1  0.3102735E+006  0.3173046E+01  0.7546771E-02  0.2470171E+00
         22   -1    0    0    0    0  0.00000000000E+00  0.00000000000E+00  0.31971587287E+01  0.31971587287E+01  0.00000000000E+00 0. -1.
         22   -1    0    0    0    0 -0.00000000000E+00 -0.00000000000E+00 -0.32159551650E+01  0.32159551650E+01  0.00000000000E+00 0.  1.
          4    1    1    2  501    0 -0.15381368401E+01 -0.24676827641E+01 -0.47167281180E+00  0.32079118448E+01  0.12700000000E+01 0.  1.
         -4    1    1    2    0  501  0.15381368401E+01  0.24676827641E+01  0.45287637551E+00  0.32052020489E+01  0.12700000000E+01 0. -1.
<mgrwt>
<rscale>  0 0.31730464E+01</rscale>
<asrwt>0</asrwt>
<pdfrwt beam="1">0</pdfrwt>
<pdfrwt beam="2">0</pdfrwt>
<totfact> 0.15970056E+12</totfact>
</mgrwt>
</event>
<event>
 4    1  0.3102735E+006  0.4993872E+01  0.7546771E-02  0.2123736E+00
         22   -1    0    0    0    0  0.00000000000E+00  0.00000000000E+00  0.29099487791E+01  0.29099487791E+01  0.00000000000E+00 0.  1.
         22   -1    0    0    0    0 -0.00000000000E+00 -0.00000000000E+00 -0.10357610574E+02  0.10357610574E+02  0.00000000000E+00 0. -1.
          4    1    1    2  501    0  0.33765363586E+01  0.34532386629E+01 -0.64796270466E+01  0.81807286782E+01  0.12700000000E+01 0. -1.
         -4    1    1    2    0  501 -0.33765363586E+01 -0.34532386629E+01 -0.96803474858E+00  0.50868306752E+01  0.12700000000E+01 0.  1.
<mgrwt>
<rscale>  0 0.49938717E+01</rscale>
<asrwt>0</asrwt>
<pdfrwt beam="1">0</pdfrwt>
<pdfrwt beam="2">0</pdfrwt>
<totfact> 0.44334592E+11</totfact>
</mgrwt>
</event>
<event>
 4    1  0.3102735E+006  0.2024540E+01  0.7546771E-02  0.2964355E+00
         22   -1    0    0    0    0  0.00000000000E+00  0.00000000000E+00  0.49831442704E+01  0.49831442704E+01  0.00000000000E+00 0.  1.
         22   -1    0    0    0    0 -0.00000000000E+00 -0.00000000000E+00 -0.18735832587E+01  0.18735832587E+01  0.00000000000E+00 0. -1.
          4    1    1    2  501    0 -0.47675061944E+00  0.15028548632E+01 -0.10130340806E+01  0.22638467133E+01  0.12700000000E+01 0. -1.
         -4    1    1    2    0  501  0.47675061944E+00 -0.15028548632E+01  0.41225950923E+01  0.45928808158E+01  0.12700000000E+01 0.  1.
<mgrwt>
<rscale>  0 0.20245404E+01</rscale>
<asrwt>0</asrwt>
<pdfrwt beam="1">0</pdfrwt>
<pdfrwt beam="2">0</pdfrwt>
<totfact> 0.17753557E+12</totfact>
</mgrwt>
</event>
<event>
 4    1  0.3102735E+006  0.2110734E+01  0.7546771E-02  0.2909791E+00
         22   -1    0    0    0    0  0.00000000000E+00  0.00000000000E+00  0.24858485678E+01  0.24858485678E+01  0.00000000000E+00 0. -1.
         22   -1    0    0    0    0 -0.00000000000E+00 -0.00000000000E+00 -0.17958666038E+01  0.17958666038E+01  0.00000000000E+00 0.  1.
          4    1    1    2  501    0  0.15618716550E+01  0.63470719963E+00  0.24856707875E+00  0.21253192439E+01  0.12700000000E+01 0. -1.
         -4    1    1    2    0  501 -0.15618716550E+01 -0.63470719963E+00  0.44141488524E+00  0.21563959277E+01  0.12700000000E+01 0.  1.
<mgrwt>
<rscale>  0 0.21107336E+01</rscale>
<asrwt>0</asrwt>
<pdfrwt beam="1">0</pdfrwt>
<pdfrwt beam="2">0</pdfrwt>
<totfact> 0.42155000E+12</totfact>
</mgrwt>
</event>
<event>
 4    1  0.3102735E+006  0.2206235E+01  0.7546771E-02  0.2854162E+00
         22   -1    0    0    0    0  0.00000000000E+00  0.00000000000E+00  0.55148168779E+00  0.55148168779E+00  0.00000000000E+00 0. -1.
         22   -1    0    0    0    0 -0.00000000000E+00 -0.00000000000E+00 -0.88639024059E+01  0.88639024059E+01  0.00000000000E+00 0. -1.
          4    1    1    2  501    0 -0.14696967364E+01  0.10462150218E+01 -0.38490826543E+01  0.44365427585E+01  0.12700000000E+01 0. -1.
         -4    1    1    2    0  501  0.14696967364E+01 -0.10462150218E+01 -0.44633380638E+01  0.49788413351E+01  0.12700000000E+01 0. -1.
<mgrwt>
<rscale>  0 0.22062353E+01</rscale>
<asrwt>0</asrwt>
<pdfrwt beam="1">0</pdfrwt>
<pdfrwt beam="2">0</pdfrwt>
<totfact> 0.36097628E+12</totfact>
</mgrwt>
</event>
<event>
 4    1  0.3102735E+006  0.2108979E+01  0.7546771E-02  0.2910858E+00
         22   -1    0    0    0    0  0.00000000000E+00  0.00000000000E+00  0.24509548870E+02  0.24509548870E+02  0.00000000000E+00 0.  1.
         22   -1    0    0    0    0 -0.00000000000E+00 -0.00000000000E+00 -0.18514670632E+00  0.18514670632E+00  0.00000000000E+00 0.  1.
          4    1    1    2  501    0 -0.58237975267E-01 -0.16827063066E+01  0.10422645626E+02  0.10633876717E+02  0.12700000000E+01 0.  1.
         -4    1    1    2    0  501  0.58237975267E-01  0.16827063066E+01  0.13901756538E+02  0.14060818860E+02  0.12700000000E+01 0.  1.
<mgrwt>
<rscale>  0 0.21089789E+01</rscale>
<asrwt>0</asrwt>
<pdfrwt beam="1">0</pdfrwt>
<pdfrwt beam="2">0</pdfrwt>
<totfact> 0.35144019E+12</totfact>
</mgrwt>
</event>
<event>
 4    1  0.3102735E+006  0.3164999E+01  0.7546771E-02  0.2472477E+00
         22   -1    0    0    0    0  0.00000000000E+00  0.00000000000E+00  0.24614990105E+00  0.24614990105E+00  0.00000000000E+00 0.  1.
         22   -1    0    0    0    0 -0.00000000000E+00 -0.00000000000E+00 -0.63303629818E+02  0.63303629818E+02  0.00000000000E+00 0. -1.
          4    1    1    2  501    0 -0.99543550900E+00  0.27227608164E+01 -0.50517696048E+02  0.50616744585E+02  0.12700000000E+01 0. -1.
         -4    1    1    2    0  501  0.99543550900E+00 -0.27227608164E+01 -0.12539783868E+02  0.12933035134E+02  0.12700000000E+01 0.  1.
<mgrwt>
<rscale>  0 0.31649989E+01</rscale>
<asrwt>0</asrwt>
<pdfrwt beam="1">0</pdfrwt>
<pdfrwt beam="2">0</pdfrwt>
<totfact> 0.74600555E+11</totfact>
</mgrwt>
</event>
<event>
 4    1  0.3102735E+006  0.2687387E+01  0.7546771E-02  0.2631270E+00
         22   -1    0    0    0    0  0.00000000000E+00  0.00000000000E+00  0.31180169606E+00  0.31180169606E+00  0.00000000000E+00 0.  1.
         22   -1    0    0    0    0 -0.00000000000E+00 -0.00000000000E+00 -0.23588851729E+02  0.23588851729E+02  0.00000000000E+00 0. -1.
          4    1    1    2  501    0  0.13725741041E+01 -0.19300742928E+01 -0.10031550721E+02  0.10385280753E+02  0.12700000000E+01 0. -1.
         -4    1    1    2    0  501 -0.13725741041E+01  0.19300742928E+01 -0.13245499312E+02  0.13515372673E+02  0.12700000000E+01 0.  1.
<mgrwt>
<rscale>  0 0.26873865E+01</rscale>
<asrwt>0</asrwt>
<pdfrwt beam="1">0</pdfrwt>
<pdfrwt beam="2">0</pdfrwt>
<totfact> 0.20593117E+12</totfact>
</mgrwt>
</event>
<event>
 4    1  0.3102735E+006  0.2429687E+01  0.7546771E-02  0.2740364E+00
         22   -1    0    0    0    0  0.00000000000E+00  0.00000000000E+00  0.67786058389E+02  0.67786058389E+02  0.00000000000E+00 0.  1.
         22   -1    0    0    0    0 -0.00000000000E+00 -0.00000000000E+00 -0.95611661346E-01  0.95611661346E-01  0.00000000000E+00 0. -1.
          4    1    1    2  501    0 -0.10333566079E+01 -0.17951747696E+01  0.23711468789E+02  0.23835627335E+02  0.12700000000E+01 0. -1.
         -4    1    1    2    0  501  0.10333566079E+01  0.17951747696E+01  0.43978977939E+02  0.44046042716E+02  0.12700000000E+01 0.  1.
<mgrwt>
<rscale>  0 0.24296869E+01</rscale>
<asrwt>0</asrwt>
<pdfrwt beam="1">0</pdfrwt>
<pdfrwt beam="2">0</pdfrwt>
<totfact> 0.19473043E+12</totfact>
</mgrwt>
</event>
<event>
 4    1  0.3102735E+006  0.2259622E+01  0.7546771E-02  0.2825033E+00
         22   -1    0    0    0    0  0.00000000000E+00  0.00000000000E+00  0.54724832726E+01  0.54724832726E+01  0.00000000000E+00 0.  1.
         22   -1    0    0    0    0 -0.00000000000E+00 -0.00000000000E+00 -0.95774410696E+00  0.95774410696E+00  0.00000000000E+00 0. -1.
          4    1    1    2  501    0 -0.17489872923E+01  0.65881300636E+00  0.17407100414E+01  0.28523608773E+01  0.12700000000E+01 0. -1.
         -4    1    1    2    0  501  0.17489872923E+01 -0.65881300636E+00  0.27740291242E+01  0.35778665023E+01  0.12700000000E+01 0.  1.
<mgrwt>
<rscale>  0 0.22596219E+01</rscale>
<asrwt>0</asrwt>
<pdfrwt beam="1">0</pdfrwt>
<pdfrwt beam="2">0</pdfrwt>
<totfact> 0.34332524E+12</totfact>
</mgrwt>
</event>
<event>
 4    1  0.3102735E+006  0.7513946E+01  0.7546771E-02  0.1905699E+00
         22   -1    0    0    0    0  0.00000000000E+00  0.00000000000E+00  0.91715811019E+01  0.91715811019E+01  0.00000000000E+00 0. -1.
         22   -1    0    0    0    0 -0.00000000000E+00 -0.00000000000E+00 -0.68939882226E+01  0.68939882226E+01  0.00000000000E+00 0.  1.
          4    1    1    2  501    0 -0.69632518406E+01 -0.25218273003E+01 -0.14895541432E+01  0.76601671439E+01  0.12700000000E+01 0. -1.
         -4    1    1    2    0  501  0.69632518406E+01  0.25218273003E+01  0.37671470225E+01  0.84054021805E+01  0.12700000000E+01 0.  1.
<mgrwt>
<rscale>  0 0.75139463E+01</rscale>
<asrwt>0</asrwt>
<pdfrwt beam="1">0</pdfrwt>
<pdfrwt beam="2">0</pdfrwt>
<totfact> 0.18550697E+11</totfact>
</mgrwt>
</event>
<event>
 4    1  0.3102735E+006  0.3728986E+01  0.7546771E-02  0.2332300E+00
         22   -1    0    0    0    0  0.00000000000E+00  0.00000000000E+00  0.13350683247E+03  0.13350683247E+03  0.00000000000E+00 0.  1.
         22   -1    0    0    0    0 -0.00000000000E+00 -0.00000000000E+00 -0.10981300960E+00  0.10981300960E+00  0.00000000000E+00 0. -1.
          4    1    1    2  501    0  0.53616349792E+00  0.34648178218E+01  0.81863974343E+02  0.81948859840E+02  0.12700000000E+01 0. -1.
         -4    1    1    2    0  501 -0.53616349792E+00 -0.34648178218E+01  0.51533045119E+02  0.51667785641E+02  0.12700000000E+01 0. -1.
<mgrwt>
<rscale>  0 0.37289856E+01</rscale>
<asrwt>0</asrwt>
<pdfrwt beam="1">0</pdfrwt>
<pdfrwt beam="2">0</pdfrwt>
<totfact> 0.64586625E+11</totfact>
</mgrwt>
</event>
<event>
 4    1  0.3102735E+006  0.2326265E+01  0.7546771E-02  0.2790460E+00
         22   -1    0    0    0    0  0.00000000000E+00  0.00000000000E+00  0.58276077845E+00  0.58276077845E+00  0.00000000000E+00 0.  1.
         22   -1    0    0    0    0 -0.00000000000E+00 -0.00000000000E+00 -0.92865392747E+01  0.92865392747E+01  0.00000000000E+00 0. -1.
          4    1    1    2  501    0  0.13661070784E+01 -0.13900933327E+01 -0.43900022876E+01  0.49682620813E+01  0.12700000000E+01 0.  1.
         -4    1    1    2    0  501 -0.13661070784E+01  0.13900933327E+01 -0.43137762086E+01  0.49010379718E+01  0.12700000000E+01 0. -1.
<mgrwt>
<rscale>  0 0.23262648E+01</rscale>
<asrwt>0</asrwt>
<pdfrwt beam="1">0</pdfrwt>
<pdfrwt beam="2">0</pdfrwt>
<totfact> 0.32060548E+12</totfact>
</mgrwt>
</event>
<event>
 4    1  0.3102735E+006  0.2334010E+01  0.7546771E-02  0.2786564E+00
         22   -1    0    0    0    0  0.00000000000E+00  0.00000000000E+00  0.64148871186E+00  0.64148871186E+00  0.00000000000E+00 0. -1.
         22   -1    0    0    0    0 -0.00000000000E+00 -0.00000000000E+00 -0.86579627309E+01  0.86579627309E+01  0.00000000000E+00 0.  1.
          4    1    1    2  501    0 -0.19482775291E+01  0.19727231719E+00 -0.46517575858E+01  0.52044644619E+01  0.12700000000E+01 0. -1.
         -4    1    1    2    0  501  0.19482775291E+01 -0.19727231719E+00 -0.33647164332E+01  0.40949869809E+01  0.12700000000E+01 0.  1.
<mgrwt>
<rscale>  0 0.23340098E+01</rscale>
<asrwt>0</asrwt>
<pdfrwt beam="1">0</pdfrwt>
<pdfrwt beam="2">0</pdfrwt>
<totfact> 0.31293414E+12</totfact>
</mgrwt>
</event>
<event>
 4    1  0.3102735E+006  0.4000084E+01  0.7546771E-02  0.2277278E+00
         22   -1    0    0    0    0  0.00000000000E+00  0.00000000000E+00  0.10954518826E+01  0.10954518826E+01  0.00000000000E+00 0.  1.
         22   -1    0    0    0    0 -0.00000000000E+00 -0.00000000000E+00 -0.16825814485E+02  0.16825814485E+02  0.00000000000E+00 0. -1.
          4    1    1    2  501    0 -0.29892817042E+01 -0.23349444057E+01 -0.11119531700E+02  0.11817133988E+02  0.12700000000E+01 0. -1.
         -4    1    1    2    0  501  0.29892817042E+01  0.23349444057E+01 -0.46108309024E+01  0.61041323786E+01  0.12700000000E+01 0. -1.
<mgrwt>
<rscale>  0 0.40000838E+01</rscale>
<asrwt>0</asrwt>
<pdfrwt beam="1">0</pdfrwt>
<pdfrwt beam="2">0</pdfrwt>
<totfact> 0.75652991E+11</totfact>
</mgrwt>
</event>
<event>
 4    1  0.3102735E+006  0.2030584E+01  0.7546771E-02  0.2960381E+00
         22   -1    0    0    0    0  0.00000000000E+00  0.00000000000E+00  0.15663760210E+01  0.15663760210E+01  0.00000000000E+00 0.  1.
         22   -1    0    0    0    0 -0.00000000000E+00 -0.00000000000E+00 -0.26540008154E+01  0.26540008154E+01  0.00000000000E+00 0. -1.
          4    1    1    2  501    0  0.10797525383E+01 -0.11595288546E+01 -0.35328305587E+00  0.20610874863E+01  0.12700000000E+01 0. -1.
         -4    1    1    2    0  501 -0.10797525383E+01  0.11595288546E+01 -0.73434173857E+00  0.21592893501E+01  0.12700000000E+01 0. -1.
<mgrwt>
<rscale>  0 0.20305843E+01</rscale>
<asrwt>0</asrwt>
<pdfrwt beam="1">0</pdfrwt>
<pdfrwt beam="2">0</pdfrwt>
<totfact> 0.45732873E+12</totfact>
</mgrwt>
</event>
<event>
 4    1  0.3102735E+006  0.2339646E+01  0.7546771E-02  0.2783744E+00
         22   -1    0    0    0    0  0.00000000000E+00  0.00000000000E+00  0.71803942378E-01  0.71803942378E-01  0.00000000000E+00 0. -1.
         22   -1    0    0    0    0 -0.00000000000E+00 -0.00000000000E+00 -0.81353944837E+02  0.81353944837E+02  0.00000000000E+00 0. -1.
          4    1    1    2  501    0  0.19252565917E+01  0.39297571762E+00 -0.50854011173E+02  0.50907802891E+02  0.12700000000E+01 0. -1.
         -4    1    1    2    0  501 -0.19252565917E+01 -0.39297571762E+00 -0.30428129722E+02  0.30517945888E+02  0.12700000000E+01 0. -1.
<mgrwt>
<rscale>  0 0.23396459E+01</rscale>
<asrwt>0</asrwt>
<pdfrwt beam="1">0</pdfrwt>
<pdfrwt beam="2">0</pdfrwt>
<totfact> 0.20830947E+12</totfact>
</mgrwt>
</event>
<event>
 4    1  0.3102735E+006  0.2204410E+01  0.7546771E-02  0.2855182E+00
         22   -1    0    0    0    0  0.00000000000E+00  0.00000000000E+00  0.66143045528E-01  0.66143045528E-01  0.00000000000E+00 0.  1.
         22   -1    0    0    0    0 -0.00000000000E+00 -0.00000000000E+00 -0.74464690099E+02  0.74464690099E+02  0.00000000000E+00 0.  1.
          4    1    1    2  501    0  0.32233676297E+00 -0.17727442454E+01 -0.32888793891E+02  0.32962587683E+02  0.12700000000E+01 0.  1.
         -4    1    1    2    0  501 -0.32233676297E+00  0.17727442454E+01 -0.41509753162E+02  0.41568245461E+02  0.12700000000E+01 0.  1.
<mgrwt>
<rscale>  0 0.22044099E+01</rscale>
<asrwt>0</asrwt>
<pdfrwt beam="1">0</pdfrwt>
<pdfrwt beam="2">0</pdfrwt>
<totfact> 0.25745548E+12</totfact>
</mgrwt>
</event>
<event>
 4    1  0.3102735E+006  0.2051166E+01  0.7546771E-02  0.2947023E+00
         22   -1    0    0    0    0  0.00000000000E+00  0.00000000000E+00  0.60061142967E+01  0.60061142967E+01  0.00000000000E+00 0. -1.
         22   -1    0    0    0    0 -0.00000000000E+00 -0.00000000000E+00 -0.83386271673E+00  0.83386271673E+00  0.00000000000E+00 0.  1.
          4    1    1    2  501    0 -0.10801765562E+01 -0.11948217693E+01  0.12184117868E+01  0.23857509793E+01  0.12700000000E+01 0.  1.
         -4    1    1    2    0  501  0.10801765562E+01  0.11948217693E+01  0.39538397931E+01  0.44542260341E+01  0.12700000000E+01 0. -1.
<mgrwt>
<rscale>  0 0.20511656E+01</rscale>
<asrwt>0</asrwt>
<pdfrwt beam="1">0</pdfrwt>
<pdfrwt beam="2">0</pdfrwt>
<totfact> 0.35992176E+12</totfact>
</mgrwt>
</event>
<event>
 4    1  0.3102735E+006  0.5343940E+01  0.7546771E-02  0.2084057E+00
         22   -1    0    0    0    0  0.00000000000E+00  0.00000000000E+00  0.40007906629E+01  0.40007906629E+01  0.00000000000E+00 0.  1.
         22   -1    0    0    0    0 -0.00000000000E+00 -0.00000000000E+00 -0.86724199438E+01  0.86724199438E+01  0.00000000000E+00 0. -1.
          4    1    1    2  501    0 -0.41759288596E+01 -0.30832471600E+01 -0.50011804054E+01  0.73191188225E+01  0.12700000000E+01 0. -1.
         -4    1    1    2    0  501  0.41759288596E+01  0.30832471600E+01  0.32955112449E+00  0.53540917842E+01  0.12700000000E+01 0.  1.
<mgrwt>
<rscale>  0 0.53439400E+01</rscale>
<asrwt>0</asrwt>
<pdfrwt beam="1">0</pdfrwt>
<pdfrwt beam="2">0</pdfrwt>
<totfact> 0.37836514E+11</totfact>
</mgrwt>
</event>
<event>
 4    1  0.3102735E+006  0.2826175E+01  0.7546771E-02  0.2580138E+00
         22   -1    0    0    0    0  0.00000000000E+00  0.00000000000E+00  0.30389933930E+01  0.30389933930E+01  0.00000000000E+00 0. -1.
         22   -1    0    0    0    0 -0.00000000000E+00 -0.00000000000E+00 -0.27761201285E+01  0.27761201285E+01  0.00000000000E+00 0. -1.
          4    1    1    2  501    0  0.20224733342E+01  0.15112797441E+01  0.80245525988E+00  0.29378902799E+01  0.12700000000E+01 0. -1.
         -4    1    1    2    0  501 -0.20224733342E+01 -0.15112797441E+01 -0.53958199539E+00  0.28772232417E+01  0.12700000000E+01 0. -1.
<mgrwt>
<rscale>  0 0.28261750E+01</rscale>
<asrwt>0</asrwt>
<pdfrwt beam="1">0</pdfrwt>
<pdfrwt beam="2">0</pdfrwt>
<totfact> 0.20122200E+12</totfact>
</mgrwt>
</event>
<event>
 4    1  0.3102735E+006  0.2022243E+01  0.7546771E-02  0.2965871E+00
         22   -1    0    0    0    0  0.00000000000E+00  0.00000000000E+00  0.15552343888E+01  0.15552343888E+01  0.00000000000E+00 0. -1.
         22   -1    0    0    0    0 -0.00000000000E+00 -0.00000000000E+00 -0.59113742940E+01  0.59113742940E+01  0.00000000000E+00 0.  1.
          4    1    1    2  501    0 -0.80671563600E-01  0.15716416880E+01 -0.49597753269E+01  0.53561961120E+01  0.12700000000E+01 0.  1.
         -4    1    1    2    0  501  0.80671563600E-01 -0.15716416880E+01  0.60363542168E+00  0.21104125708E+01  0.12700000000E+01 0. -1.
<mgrwt>
<rscale>  0 0.20222427E+01</rscale>
<asrwt>0</asrwt>
<pdfrwt beam="1">0</pdfrwt>
<pdfrwt beam="2">0</pdfrwt>
<totfact> 0.17969737E+12</totfact>
</mgrwt>
</event>
<event>
 4    1  0.3102735E+006  0.3455431E+01  0.7546771E-02  0.2395291E+00
         22   -1    0    0    0    0  0.00000000000E+00  0.00000000000E+00  0.21044612772E+01  0.21044612772E+01  0.00000000000E+00 0.  1.
         22   -1    0    0    0    0 -0.00000000000E+00 -0.00000000000E+00 -0.74416875542E+01  0.74416875542E+01  0.00000000000E+00 0. -1.
          4    1    1    2  501    0 -0.18693533988E+01  0.26139289233E+01 -0.49951315396E+01  0.60738246306E+01  0.12700000000E+01 0. -1.
         -4    1    1    2    0  501  0.18693533988E+01 -0.26139289233E+01 -0.34209473737E+00  0.34723242007E+01  0.12700000000E+01 0.  1.
<mgrwt>
<rscale>  0 0.34554315E+01</rscale>
<asrwt>0</asrwt>
<pdfrwt beam="1">0</pdfrwt>
<pdfrwt beam="2">0</pdfrwt>
<totfact> 0.96270402E+11</totfact>
</mgrwt>
</event>
<event>
 4    1  0.3102735E+006  0.6142474E+01  0.7546771E-02  0.2007142E+00
         22   -1    0    0    0    0  0.00000000000E+00  0.00000000000E+00  0.20781466077E+02  0.20781466077E+02  0.00000000000E+00 0.  1.
         22   -1    0    0    0    0 -0.00000000000E+00 -0.00000000000E+00 -0.64187932810E+01  0.64187932810E+01  0.00000000000E+00 0. -1.
          4    1    1    2  501    0 -0.39596671274E+01 -0.45208541052E+01 -0.43358892684E+01  0.75186382642E+01  0.12700000000E+01 0. -1.
         -4    1    1    2    0  501  0.39596671274E+01  0.45208541052E+01  0.18698562064E+02  0.19681621094E+02  0.12700000000E+01 0.  1.
<mgrwt>
<rscale>  0 0.61424739E+01</rscale>
<asrwt>0</asrwt>
<pdfrwt beam="1">0</pdfrwt>
<pdfrwt beam="2">0</pdfrwt>
<totfact> 0.74055552E+10</totfact>
</mgrwt>
</event>
<event>
 4    1  0.3102735E+006  0.2405425E+01  0.7546771E-02  0.2751753E+00
         22   -1    0    0    0    0  0.00000000000E+00  0.00000000000E+00  0.43039344552E+00  0.43039344552E+00  0.00000000000E+00 0.  1.
         22   -1    0    0    0    0 -0.00000000000E+00 -0.00000000000E+00 -0.13463302135E+02  0.13463302135E+02  0.00000000000E+00 0. -1.
          4    1    1    2  501    0  0.20297850731E+01  0.23052683441E+00 -0.67816879815E+01  0.71956488201E+01  0.12700000000E+01 0.  1.
         -4    1    1    2    0  501 -0.20297850731E+01 -0.23052683441E+00 -0.62512207079E+01  0.66980467603E+01  0.12700000000E+01 0.  1.
<mgrwt>
<rscale>  0 0.24054251E+01</rscale>
<asrwt>0</asrwt>
<pdfrwt beam="1">0</pdfrwt>
<pdfrwt beam="2">0</pdfrwt>
<totfact> 0.28738399E+12</totfact>
</mgrwt>
</event>
<event>
 4    1  0.3102735E+006  0.2094160E+01  0.7546771E-02  0.2919943E+00
         22   -1    0    0    0    0  0.00000000000E+00  0.00000000000E+00  0.89928554321E+01  0.89928554321E+01  0.00000000000E+00 0.  1.
         22   -1    0    0    0    0 -0.00000000000E+00 -0.00000000000E+00 -0.30046555991E+01  0.30046555991E+01  0.00000000000E+00 0.  1.
          4    1    1    2  501    0 -0.16497012657E+01  0.22603954792E+00 -0.24963070801E+01  0.32583826021E+01  0.12700000000E+01 0.  1.
         -4    1    1    2    0  501  0.16497012657E+01 -0.22603954792E+00  0.84845069131E+01  0.87391284292E+01  0.12700000000E+01 0.  1.
<mgrwt>
<rscale>  0 0.20941605E+01</rscale>
<asrwt>0</asrwt>
<pdfrwt beam="1">0</pdfrwt>
<pdfrwt beam="2">0</pdfrwt>
<totfact> 0.50659623E+11</totfact>
</mgrwt>
</event>
<event>
 4    1  0.3102735E+006  0.2095659E+01  0.7546771E-02  0.2919019E+00
         22   -1    0    0    0    0  0.00000000000E+00  0.00000000000E+00  0.86525640013E+01  0.86525640013E+01  0.00000000000E+00 0. -1.
         22   -1    0    0    0    0 -0.00000000000E+00 -0.00000000000E+00 -0.80538436527E+00  0.80538436527E+00  0.00000000000E+00 0. -1.
          4    1    1    2  501    0  0.12586189234E+01 -0.10930526157E+01  0.10479277101E+01  0.23430616938E+01  0.12700000000E+01 0. -1.
         -4    1    1    2    0  501 -0.12586189234E+01  0.10930526157E+01  0.67992519259E+01  0.71148866728E+01  0.12700000000E+01 0. -1.
<mgrwt>
<rscale>  0 0.20956588E+01</rscale>
<asrwt>0</asrwt>
<pdfrwt beam="1">0</pdfrwt>
<pdfrwt beam="2">0</pdfrwt>
<totfact> 0.24184856E+12</totfact>
</mgrwt>
</event>
<event>
 4    1  0.3102735E+006  0.2127822E+01  0.7546771E-02  0.2899483E+00
         22   -1    0    0    0    0  0.00000000000E+00  0.00000000000E+00  0.37413795637E+01  0.37413795637E+01  0.00000000000E+00 0.  1.
         22   -1    0    0    0    0 -0.00000000000E+00 -0.00000000000E+00 -0.16427627731E+01  0.16427627731E+01  0.00000000000E+00 0. -1.
          4    1    1    2  501    0  0.13317335038E+01  0.10682750226E+01 -0.33218695500E+00  0.21535955567E+01  0.12700000000E+01 0. -1.
         -4    1    1    2    0  501 -0.13317335038E+01 -0.10682750226E+01  0.24308037456E+01  0.32305467801E+01  0.12700000000E+01 0.  1.
<mgrwt>
<rscale>  0 0.21278218E+01</rscale>
<asrwt>0</asrwt>
<pdfrwt beam="1">0</pdfrwt>
<pdfrwt beam="2">0</pdfrwt>
<totfact> 0.28972435E+12</totfact>
</mgrwt>
</event>
<event>
 4    1  0.3102735E+006  0.2674916E+01  0.7546771E-02  0.2636101E+00
         22   -1    0    0    0    0  0.00000000000E+00  0.00000000000E+00  0.38345535053E+01  0.38345535053E+01  0.00000000000E+00 0. -1.
         22   -1    0    0    0    0 -0.00000000000E+00 -0.00000000000E+00 -0.64167645367E+01  0.64167645367E+01  0.00000000000E+00 0.  1.
          4    1    1    2  501    0 -0.21207457579E+01  0.10221133555E+01 -0.56076385534E+01  0.62129532774E+01  0.12700000000E+01 0.  1.
         -4    1    1    2    0  501  0.21207457579E+01 -0.10221133555E+01  0.30254275220E+01  0.40383647646E+01  0.12700000000E+01 0. -1.
<mgrwt>
<rscale>  0 0.26749165E+01</rscale>
<asrwt>0</asrwt>
<pdfrwt beam="1">0</pdfrwt>
<pdfrwt beam="2">0</pdfrwt>
<totfact> 0.57068364E+11</totfact>
</mgrwt>
</event>
<event>
 4    1  0.3102735E+006  0.3826610E+01  0.7546771E-02  0.2311716E+00
         22   -1    0    0    0    0  0.00000000000E+00  0.00000000000E+00  0.13052415838E+01  0.13052415838E+01  0.00000000000E+00 0. -1.
         22   -1    0    0    0    0 -0.00000000000E+00 -0.00000000000E+00 -0.11416483335E+02  0.11416483335E+02  0.00000000000E+00 0.  1.
          4    1    1    2  501    0 -0.27869866420E+01 -0.22940677398E+01 -0.58931302178E+01  0.70265158579E+01  0.12700000000E+01 0.  1.
         -4    1    1    2    0  501  0.27869866420E+01  0.22940677398E+01 -0.42181115330E+01  0.56952090604E+01  0.12700000000E+01 0. -1.
<mgrwt>
<rscale>  0 0.38266096E+01</rscale>
<asrwt>0</asrwt>
<pdfrwt beam="1">0</pdfrwt>
<pdfrwt beam="2">0</pdfrwt>
<totfact> 0.99600401E+11</totfact>
</mgrwt>
</event>
<event>
 4    1  0.3102735E+006  0.2789641E+01  0.7546771E-02  0.2593148E+00
         22   -1    0    0    0    0  0.00000000000E+00  0.00000000000E+00  0.91980947899E+01  0.91980947899E+01  0.00000000000E+00 0. -1.
         22   -1    0    0    0    0 -0.00000000000E+00 -0.00000000000E+00 -0.88551617935E+00  0.88551617935E+00  0.00000000000E+00 0.  1.
          4    1    1    2  501    0  0.15408165494E+01  0.19480971111E+01  0.52206051547E+01  0.59191904999E+01  0.12700000000E+01 0. -1.
         -4    1    1    2    0  501 -0.15408165494E+01 -0.19480971111E+01  0.30919734559E+01  0.41644204693E+01  0.12700000000E+01 0.  1.
<mgrwt>
<rscale>  0 0.27896412E+01</rscale>
<asrwt>0</asrwt>
<pdfrwt beam="1">0</pdfrwt>
<pdfrwt beam="2">0</pdfrwt>
<totfact> 0.20167560E+12</totfact>
</mgrwt>
</event>
<event>
 4    1  0.3102735E+006  0.2283433E+01  0.7546771E-02  0.2812460E+00
         22   -1    0    0    0    0  0.00000000000E+00  0.00000000000E+00  0.38423330194E+01  0.38423330194E+01  0.00000000000E+00 0. -1.
         22   -1    0    0    0    0 -0.00000000000E+00 -0.00000000000E+00 -0.21392461386E+01  0.21392461386E+01  0.00000000000E+00 0.  1.
          4    1    1    2  501    0  0.14775436336E+01  0.11908106473E+01 -0.95698691034E+00  0.24758612912E+01  0.12700000000E+01 0.  1.
         -4    1    1    2    0  501 -0.14775436336E+01 -0.11908106473E+01  0.26600737912E+01  0.35057178667E+01  0.12700000000E+01 0. -1.
<mgrwt>
<rscale>  0 0.22834328E+01</rscale>
<asrwt>0</asrwt>
<pdfrwt beam="1">0</pdfrwt>
<pdfrwt beam="2">0</pdfrwt>
<totfact> 0.20694095E+12</totfact>
</mgrwt>
</event>
<event>
 4    1  0.3102735E+006  0.3229381E+01  0.7546771E-02  0.2454313E+00
         22   -1    0    0    0    0  0.00000000000E+00  0.00000000000E+00  0.11042135355E+02  0.11042135355E+02  0.00000000000E+00 0.  1.
         22   -1    0    0    0    0 -0.00000000000E+00 -0.00000000000E+00 -0.10846111540E+01  0.10846111540E+01  0.00000000000E+00 0. -1.
          4    1    1    2  501    0  0.23147923934E+01  0.18594993823E+01  0.27992009004E+01  0.42736901453E+01  0.12700000000E+01 0.  1.
         -4    1    1    2    0  501 -0.23147923934E+01 -0.18594993823E+01  0.71583233010E+01  0.78530563642E+01  0.12700000000E+01 0. -1.
<mgrwt>
<rscale>  0 0.32293810E+01</rscale>
<asrwt>0</asrwt>
<pdfrwt beam="1">0</pdfrwt>
<pdfrwt beam="2">0</pdfrwt>
<totfact> 0.12823038E+12</totfact>
</mgrwt>
</event>
<event>
 4    1  0.3102735E+006  0.2377775E+01  0.7546771E-02  0.2764997E+00
         22   -1    0    0    0    0  0.00000000000E+00  0.00000000000E+00  0.11005581819E+02  0.11005581819E+02  0.00000000000E+00 0. -1.
         22   -1    0    0    0    0 -0.00000000000E+00 -0.00000000000E+00 -0.53827096241E+00  0.53827096241E+00  0.00000000000E+00 0. -1.
          4    1    1    2  501    0 -0.79610160561E+00  0.18458428336E+01  0.64662879998E+01  0.68896076833E+01  0.12700000000E+01 0. -1.
         -4    1    1    2    0  501  0.79610160561E+00 -0.18458428336E+01  0.40010228565E+01  0.46542450979E+01  0.12700000000E+01 0. -1.
<mgrwt>
<rscale>  0 0.23777749E+01</rscale>
<asrwt>0</asrwt>
<pdfrwt beam="1">0</pdfrwt>
<pdfrwt beam="2">0</pdfrwt>
<totfact> 0.28551872E+12</totfact>
</mgrwt>
</event>
<event>
 4    1  0.3102735E+006  0.3545104E+01  0.7546771E-02  0.2373713E+00
         22   -1    0    0    0    0  0.00000000000E+00  0.00000000000E+00  0.95932862041E+00  0.95932862041E+00  0.00000000000E+00 0.  1.
         22   -1    0    0    0    0 -0.00000000000E+00 -0.00000000000E+00 -0.13868344118E+02  0.13868344118E+02  0.00000000000E+00 0. -1.
          4    1    1    2  501    0 -0.86736204103E+00 -0.31941424294E+01 -0.47101153913E+01  0.58951632521E+01  0.12700000000E+01 0.  1.
         -4    1    1    2    0  501  0.86736204103E+00  0.31941424294E+01 -0.81989001063E+01  0.89325094863E+01  0.12700000000E+01 0. -1.
<mgrwt>
<rscale>  0 0.35451041E+01</rscale>
<asrwt>0</asrwt>
<pdfrwt beam="1">0</pdfrwt>
<pdfrwt beam="2">0</pdfrwt>
<totfact> 0.11170098E+12</totfact>
</mgrwt>
</event>
<event>
 4    1  0.3102735E+006  0.3888306E+01  0.7546771E-02  0.2299167E+00
         22   -1    0    0    0    0  0.00000000000E+00  0.00000000000E+00  0.59371685506E+01  0.59371685506E+01  0.00000000000E+00 0. -1.
         22   -1    0    0    0    0 -0.00000000000E+00 -0.00000000000E+00 -0.78571009732E+01  0.78571009732E+01  0.00000000000E+00 0. -1.
          4    1    1    2  501    0  0.15169071761E+01 -0.33473898227E+01 -0.66303164869E+01  0.76863530183E+01  0.12700000000E+01 0. -1.
         -4    1    1    2    0  501 -0.15169071761E+01  0.33473898227E+01  0.47103840642E+01  0.61079165055E+01  0.12700000000E+01 0. -1.
<mgrwt>
<rscale>  0 0.38883063E+01</rscale>
<asrwt>0</asrwt>
<pdfrwt beam="1">0</pdfrwt>
<pdfrwt beam="2">0</pdfrwt>
<totfact> 0.26707734E+11</totfact>
</mgrwt>
</event>
<event>
 4    1  0.3102735E+006  0.2090226E+01  0.7546771E-02  0.2922376E+00
         22   -1    0    0    0    0  0.00000000000E+00  0.00000000000E+00  0.12657900646E+01  0.12657900646E+01  0.00000000000E+00 0. -1.
         22   -1    0    0    0    0 -0.00000000000E+00 -0.00000000000E+00 -0.46781729161E+01  0.46781729161E+01  0.00000000000E+00 0.  1.
          4    1    1    2  501    0 -0.12873912008E+01 -0.10482224978E+01 -0.32279588520E+01  0.38456163172E+01  0.12700000000E+01 0.  1.
         -4    1    1    2    0  501  0.12873912008E+01  0.10482224978E+01 -0.18442399949E+00  0.20983466635E+01  0.12700000000E+01 0. -1.
<mgrwt>
<rscale>  0 0.20902264E+01</rscale>
<asrwt>0</asrwt>
<pdfrwt beam="1">0</pdfrwt>
<pdfrwt beam="2">0</pdfrwt>
<totfact> 0.30047778E+12</totfact>
</mgrwt>
</event>
<event>
 4    1  0.3102735E+006  0.2333838E+01  0.7546771E-02  0.2786650E+00
         22   -1    0    0    0    0  0.00000000000E+00  0.00000000000E+00  0.24437678205E+01  0.24437678205E+01  0.00000000000E+00 0.  1.
         22   -1    0    0    0    0 -0.00000000000E+00 -0.00000000000E+00 -0.22304495658E+01  0.22304495658E+01  0.00000000000E+00 0. -1.
          4    1    1    2  501    0  0.19354033744E+01 -0.29683968653E+00  0.44137175450E-01  0.23342553655E+01  0.12700000000E+01 0.  1.
         -4    1    1    2    0  501 -0.19354033744E+01  0.29683968653E+00  0.16918107933E+00  0.23399620208E+01  0.12700000000E+01 0. -1.
<mgrwt>
<rscale>  0 0.23338380E+01</rscale>
<asrwt>0</asrwt>
<pdfrwt beam="1">0</pdfrwt>
<pdfrwt beam="2">0</pdfrwt>
<totfact> 0.33461707E+12</totfact>
</mgrwt>
</event>
<event>
 4    1  0.3102735E+006  0.2944768E+01  0.7546771E-02  0.2539927E+00
         22   -1    0    0    0    0  0.00000000000E+00  0.00000000000E+00  0.94259792326E+01  0.94259792326E+01  0.00000000000E+00 0. -1.
         22   -1    0    0    0    0 -0.00000000000E+00 -0.00000000000E+00 -0.14692088108E+01  0.14692088108E+01  0.00000000000E+00 0.  1.
          4    1    1    2  501    0  0.62525439138E+00 -0.25822113554E+01  0.64763636462E+00  0.30151436779E+01  0.12700000000E+01 0. -1.
         -4    1    1    2    0  501 -0.62525439138E+00  0.25822113554E+01  0.73091340571E+01  0.78800443655E+01  0.12700000000E+01 0. -1.
<mgrwt>
<rscale>  0 0.29447680E+01</rscale>
<asrwt>0</asrwt>
<pdfrwt beam="1">0</pdfrwt>
<pdfrwt beam="2">0</pdfrwt>
<totfact> 0.10967518E+12</totfact>
</mgrwt>
</event>
<event>
 4    1  0.3102735E+006  0.2479618E+01  0.7546771E-02  0.2717585E+00
         22   -1    0    0    0    0  0.00000000000E+00  0.00000000000E+00  0.23527937185E+01  0.23527937185E+01  0.00000000000E+00 0. -1.
         22   -1    0    0    0    0 -0.00000000000E+00 -0.00000000000E+00 -0.16725829917E+02  0.16725829917E+02  0.00000000000E+00 0.  1.
          4    1    1    2  501    0 -0.21263799320E+01  0.11880632558E+00 -0.15948976456E+02  0.16140581047E+02  0.12700000000E+01 0.  1.
         -4    1    1    2    0  501  0.21263799320E+01 -0.11880632558E+00  0.15759402570E+01  0.29380425885E+01  0.12700000000E+01 0. -1.
<mgrwt>
<rscale>  0 0.24796182E+01</rscale>
<asrwt>0</asrwt>
<pdfrwt beam="1">0</pdfrwt>
<pdfrwt beam="2">0</pdfrwt>
<totfact> 0.31582072E+11</totfact>
</mgrwt>
</event>
<event>
 4    1  0.3102735E+006  0.2327911E+01  0.7546771E-02  0.2789630E+00
         22   -1    0    0    0    0  0.00000000000E+00  0.00000000000E+00  0.57627475488E+01  0.57627475488E+01  0.00000000000E+00 0.  1.
         22   -1    0    0    0    0 -0.00000000000E+00 -0.00000000000E+00 -0.28884395076E+01  0.28884395076E+01  0.00000000000E+00 0.  1.
          4    1    1    2  501    0  0.24521577786E+00  0.19354943710E+01 -0.21151918350E+01  0.31453466799E+01  0.12700000000E+01 0.  1.
         -4    1    1    2    0  501 -0.24521577786E+00 -0.19354943710E+01  0.49894998762E+01  0.55058403766E+01  0.12700000000E+01 0.  1.
<mgrwt>
<rscale>  0 0.23279109E+01</rscale>
<asrwt>0</asrwt>
<pdfrwt beam="1">0</pdfrwt>
<pdfrwt beam="2">0</pdfrwt>
<totfact> 0.90385713E+11</totfact>
</mgrwt>
</event>
<event>
 4    1  0.3102735E+006  0.2710070E+01  0.7546771E-02  0.2622587E+00
         22   -1    0    0    0    0  0.00000000000E+00  0.00000000000E+00  0.35711887817E+02  0.35711887817E+02  0.00000000000E+00 0.  1.
         22   -1    0    0    0    0 -0.00000000000E+00 -0.00000000000E+00 -0.38204308441E+01  0.38204308441E+01  0.00000000000E+00 0. -1.
          4    1    1    2  501    0  0.23880230344E+01  0.17006868206E+00 -0.32810514440E+01  0.42555582416E+01  0.12700000000E+01 0. -1.
         -4    1    1    2    0  501 -0.23880230344E+01 -0.17006868206E+00  0.35172508417E+02  0.35276760420E+02  0.12700000000E+01 0.  1.
<mgrwt>
<rscale>  0 0.27100696E+01</rscale>
<asrwt>0</asrwt>
<pdfrwt beam="1">0</pdfrwt>
<pdfrwt beam="2">0</pdfrwt>
<totfact> 0.68897096E+10</totfact>
</mgrwt>
</event>
<event>
 4    1  0.3102735E+006  0.2628463E+01  0.7546771E-02  0.2654468E+00
         22   -1    0    0    0    0  0.00000000000E+00  0.00000000000E+00  0.53381516813E+00  0.53381516813E+00  0.00000000000E+00 0.  1.
         22   -1    0    0    0    0 -0.00000000000E+00 -0.00000000000E+00 -0.20348797221E+02  0.20348797221E+02  0.00000000000E+00 0. -1.
          4    1    1    2  501    0 -0.68335248572E+00  0.21974861607E+01 -0.36082127569E+01  0.44640805711E+01  0.12700000000E+01 0.  1.
         -4    1    1    2    0  501  0.68335248572E+00 -0.21974861607E+01 -0.16206769296E+02  0.16418531818E+02  0.12700000000E+01 0. -1.
<mgrwt>
<rscale>  0 0.26284627E+01</rscale>
<asrwt>0</asrwt>
<pdfrwt beam="1">0</pdfrwt>
<pdfrwt beam="2">0</pdfrwt>
<totfact> 0.13526127E+12</totfact>
</mgrwt>
</event>
<event>
 4    1  0.3102735E+006  0.3658567E+01  0.7546771E-02  0.2347733E+00
         22   -1    0    0    0    0  0.00000000000E+00  0.00000000000E+00  0.36790005402E+00  0.36790005402E+00  0.00000000000E+00 0. -1.
         22   -1    0    0    0    0 -0.00000000000E+00 -0.00000000000E+00 -0.41454503588E+02  0.41454503588E+02  0.00000000000E+00 0.  1.
          4    1    1    2  501    0 -0.25976165152E+01 -0.22415618592E+01 -0.27857797231E+02  0.28097010120E+02  0.12700000000E+01 0.  1.
         -4    1    1    2    0  501  0.25976165152E+01  0.22415618592E+01 -0.13228806303E+02  0.13725393522E+02  0.12700000000E+01 0. -1.
<mgrwt>
<rscale>  0 0.36585668E+01</rscale>
<asrwt>0</asrwt>
<pdfrwt beam="1">0</pdfrwt>
<pdfrwt beam="2">0</pdfrwt>
<totfact> 0.83190180E+11</totfact>
</mgrwt>
</event>
<event>
 4    1  0.3102735E+006  0.3713086E+01  0.7546771E-02  0.2335740E+00
         22   -1    0    0    0    0  0.00000000000E+00  0.00000000000E+00  0.90139460822E+01  0.90139460822E+01  0.00000000000E+00 0. -1.
         22   -1    0    0    0    0 -0.00000000000E+00 -0.00000000000E+00 -0.15752051212E+01  0.15752051212E+01  0.00000000000E+00 0.  1.
          4    1    1    2  501    0 -0.61278674285E+00 -0.34349093839E+01  0.28176947524E+01  0.46611601330E+01  0.12700000000E+01 0.  1.
         -4    1    1    2    0  501  0.61278674285E+00  0.34349093839E+01  0.46210462087E+01  0.59279910704E+01  0.12700000000E+01 0. -1.
<mgrwt>
<rscale>  0 0.37130863E+01</rscale>
<asrwt>0</asrwt>
<pdfrwt beam="1">0</pdfrwt>
<pdfrwt beam="2">0</pdfrwt>
<totfact> 0.10683847E+12</totfact>
</mgrwt>
</event>
<event>
 4    1  0.3102735E+006  0.5537470E+01  0.7546771E-02  0.2063833E+00
         22   -1    0    0    0    0  0.00000000000E+00  0.00000000000E+00  0.43863190255E+02  0.43863190255E+02  0.00000000000E+00 0. -1.
         22   -1    0    0    0    0 -0.00000000000E+00 -0.00000000000E+00 -0.99810474688E+00  0.99810474688E+00  0.00000000000E+00 0.  1.
          4    1    1    2  501    0  0.34666250632E+01  0.41271283887E+01  0.91549761588E+01  0.10699400289E+02  0.12700000000E+01 0.  1.
         -4    1    1    2    0  501 -0.34666250632E+01 -0.41271283887E+01  0.33710109349E+02  0.34161894713E+02  0.12700000000E+01 0. -1.
<mgrwt>
<rscale>  0 0.55374704E+01</rscale>
<asrwt>0</asrwt>
<pdfrwt beam="1">0</pdfrwt>
<pdfrwt beam="2">0</pdfrwt>
<totfact> 0.24952972E+11</totfact>
</mgrwt>
</event>
<event>
 4    1  0.3102735E+006  0.2421555E+01  0.7546771E-02  0.2744158E+00
         22   -1    0    0    0    0  0.00000000000E+00  0.00000000000E+00  0.63617998550E+00  0.63617998550E+00  0.00000000000E+00 0.  1.
         22   -1    0    0    0    0 -0.00000000000E+00 -0.00000000000E+00 -0.10307130125E+02  0.10307130125E+02  0.00000000000E+00 0.  1.
          4    1    1    2  501    0 -0.12509180665E+01 -0.16389723388E+01 -0.66146105303E+01  0.70439334753E+01  0.12700000000E+01 0.  1.
         -4    1    1    2    0  501  0.12509180665E+01  0.16389723388E+01 -0.30563396092E+01  0.38993766352E+01  0.12700000000E+01 0.  1.
<mgrwt>
<rscale>  0 0.24215545E+01</rscale>
<asrwt>0</asrwt>
<pdfrwt beam="1">0</pdfrwt>
<pdfrwt beam="2">0</pdfrwt>
<totfact> 0.25588450E+12</totfact>
</mgrwt>
</event>
<event>
 4    1  0.3102735E+006  0.2348000E+01  0.7546771E-02  0.2779587E+00
         22   -1    0    0    0    0  0.00000000000E+00  0.00000000000E+00  0.23452345395E+01  0.23452345395E+01  0.00000000000E+00 0. -1.
         22   -1    0    0    0    0 -0.00000000000E+00 -0.00000000000E+00 -0.24929581561E+01  0.24929581561E+01  0.00000000000E+00 0. -1.
          4    1    1    2  501    0 -0.14871450778E+01 -0.12994634039E+01 -0.65159627777E+00  0.24367362044E+01  0.12700000000E+01 0. -1.
         -4    1    1    2    0  501  0.14871450778E+01  0.12994634039E+01  0.50387266123E+00  0.24014564912E+01  0.12700000000E+01 0. -1.
<mgrwt>
<rscale>  0 0.23480003E+01</rscale>
<asrwt>0</asrwt>
<pdfrwt beam="1">0</pdfrwt>
<pdfrwt beam="2">0</pdfrwt>
<totfact> 0.30845007E+12</totfact>
</mgrwt>
</event>
<event>
 4    1  0.3102735E+006  0.6490379E+01  0.7546771E-02  0.1978314E+00
         22   -1    0    0    0    0  0.00000000000E+00  0.00000000000E+00  0.93471624918E+01  0.93471624918E+01  0.00000000000E+00 0. -1.
         22   -1    0    0    0    0 -0.00000000000E+00 -0.00000000000E+00 -0.48584397760E+01  0.48584397760E+01  0.00000000000E+00 0. -1.
          4    1    1    2  501    0 -0.40441160725E+01  0.49150023364E+01  0.41554509573E+01  0.77066721374E+01  0.12700000000E+01 0. -1.
         -4    1    1    2    0  501  0.40441160725E+01 -0.49150023364E+01  0.33327175860E+00  0.64989301304E+01  0.12700000000E+01 0. -1.
<mgrwt>
<rscale>  0 0.64903792E+01</rscale>
<asrwt>0</asrwt>
<pdfrwt beam="1">0</pdfrwt>
<pdfrwt beam="2">0</pdfrwt>
<totfact> 0.27487547E+11</totfact>
</mgrwt>
</event>
<event>
 4    1  0.3102735E+006  0.2127062E+01  0.7546771E-02  0.2899938E+00
         22   -1    0    0    0    0  0.00000000000E+00  0.00000000000E+00  0.97214409840E+01  0.97214409840E+01  0.00000000000E+00 0. -1.
         22   -1    0    0    0    0 -0.00000000000E+00 -0.00000000000E+00 -0.50892386183E+00  0.50892386183E+00  0.00000000000E+00 0. -1.
          4    1    1    2  501    0 -0.45775003178E-01  0.17056950524E+01  0.31104299396E+01  0.37681779910E+01  0.12700000000E+01 0. -1.
         -4    1    1    2    0  501  0.45775003178E-01 -0.17056950524E+01  0.61020871826E+01  0.64621868548E+01  0.12700000000E+01 0. -1.
<mgrwt>
<rscale>  0 0.21270616E+01</rscale>
<asrwt>0</asrwt>
<pdfrwt beam="1">0</pdfrwt>
<pdfrwt beam="2">0</pdfrwt>
<totfact> 0.35355512E+12</totfact>
</mgrwt>
</event>
<event>
 4    1  0.3102735E+006  0.2700027E+01  0.7546771E-02  0.2626415E+00
         22   -1    0    0    0    0  0.00000000000E+00  0.00000000000E+00  0.15437076326E+01  0.15437076326E+01  0.00000000000E+00 0. -1.
         22   -1    0    0    0    0 -0.00000000000E+00 -0.00000000000E+00 -0.84545845047E+01  0.84545845047E+01  0.00000000000E+00 0. -1.
          4    1    1    2  501    0  0.12430927558E+01  0.20327235554E+01 -0.67768751212E+01  0.72949421561E+01  0.12700000000E+01 0. -1.
         -4    1    1    2    0  501 -0.12430927558E+01 -0.20327235554E+01 -0.13400175093E+00  0.27033499813E+01  0.12700000000E+01 0. -1.
<mgrwt>
<rscale>  0 0.27000268E+01</rscale>
<asrwt>0</asrwt>
<pdfrwt beam="1">0</pdfrwt>
<pdfrwt beam="2">0</pdfrwt>
<totfact> 0.11812692E+12</totfact>
</mgrwt>
</event>
<event>
 4    1  0.3102735E+006  0.2399797E+01  0.7546771E-02  0.2754425E+00
         22   -1    0    0    0    0  0.00000000000E+00  0.00000000000E+00  0.21467821480E+01  0.21467821480E+01  0.00000000000E+00 0.  1.
         22   -1    0    0    0    0 -0.00000000000E+00 -0.00000000000E+00 -0.43209525995E+01  0.43209525995E+01  0.00000000000E+00 0.  1.
          4    1    1    2  501    0  0.15763051051E+01  0.12889488223E+01 -0.30783631415E+01  0.39032481963E+01  0.12700000000E+01 0.  1.
         -4    1    1    2    0  501 -0.15763051051E+01 -0.12889488223E+01  0.90419268995E+00  0.25644865513E+01  0.12700000000E+01 0.  1.
<mgrwt>
<rscale>  0 0.23997973E+01</rscale>
<asrwt>0</asrwt>
<pdfrwt beam="1">0</pdfrwt>
<pdfrwt beam="2">0</pdfrwt>
<totfact> 0.17949693E+12</totfact>
</mgrwt>
</event>
<event>
 4    1  0.3102735E+006  0.2437811E+01  0.7546771E-02  0.2736599E+00
         22   -1    0    0    0    0  0.00000000000E+00  0.00000000000E+00  0.28516393581E+01  0.28516393581E+01  0.00000000000E+00 0. -1.
         22   -1    0    0    0    0 -0.00000000000E+00 -0.00000000000E+00 -0.97197424352E+01  0.97197424352E+01  0.00000000000E+00 0.  1.
          4    1    1    2  501    0 -0.16069001526E+01 -0.13220787582E+01 -0.90052706734E+01  0.93294062107E+01  0.12700000000E+01 0.  1.
         -4    1    1    2    0  501  0.16069001526E+01  0.13220787582E+01  0.21371675964E+01  0.32419755826E+01  0.12700000000E+01 0. -1.
<mgrwt>
<rscale>  0 0.24378106E+01</rscale>
<asrwt>0</asrwt>
<pdfrwt beam="1">0</pdfrwt>
<pdfrwt beam="2">0</pdfrwt>
<totfact> 0.49024840E+11</totfact>
</mgrwt>
</event>
<event>
 4    1  0.3102735E+006  0.2160341E+01  0.7546771E-02  0.2880304E+00
         22   -1    0    0    0    0  0.00000000000E+00  0.00000000000E+00  0.38123869577E+01  0.38123869577E+01  0.00000000000E+00 0. -1.
         22   -1    0    0    0    0 -0.00000000000E+00 -0.00000000000E+00 -0.29314711405E+01  0.29314711405E+01  0.00000000000E+00 0.  1.
          4    1    1    2  501    0 -0.10848970131E+01  0.13700989720E+01 -0.21328311911E+01  0.30357934073E+01  0.12700000000E+01 0.  1.
         -4    1    1    2    0  501  0.10848970131E+01 -0.13700989720E+01  0.30137470083E+01  0.37080646910E+01  0.12700000000E+01 0. -1.
<mgrwt>
<rscale>  0 0.21603409E+01</rscale>
<asrwt>0</asrwt>
<pdfrwt beam="1">0</pdfrwt>
<pdfrwt beam="2">0</pdfrwt>
<totfact> 0.14476573E+12</totfact>
</mgrwt>
</event>
<event>
 4    1  0.3102735E+006  0.2145584E+01  0.7546771E-02  0.2888938E+00
         22   -1    0    0    0    0  0.00000000000E+00  0.00000000000E+00  0.16166849272E+01  0.16166849272E+01  0.00000000000E+00 0. -1.
         22   -1    0    0    0    0 -0.00000000000E+00 -0.00000000000E+00 -0.54714012612E+01  0.54714012612E+01  0.00000000000E+00 0. -1.
          4    1    1    2  501    0 -0.50934128258E+00  0.16526344407E+01 -0.43816290354E+01  0.48787500592E+01  0.12700000000E+01 0. -1.
         -4    1    1    2    0  501  0.50934128258E+00 -0.16526344407E+01  0.52691270132E+00  0.22093361292E+01  0.12700000000E+01 0. -1.
<mgrwt>
<rscale>  0 0.21455836E+01</rscale>
<asrwt>0</asrwt>
<pdfrwt beam="1">0</pdfrwt>
<pdfrwt beam="2">0</pdfrwt>
<totfact> 0.18840527E+12</totfact>
</mgrwt>
</event>
<event>
 4    1  0.3102735E+006  0.2779464E+01  0.7546771E-02  0.2596828E+00
         22   -1    0    0    0    0  0.00000000000E+00  0.00000000000E+00  0.15956812984E+01  0.15956812984E+01  0.00000000000E+00 0.  1.
         22   -1    0    0    0    0 -0.00000000000E+00 -0.00000000000E+00 -0.64698170420E+01  0.64698170420E+01  0.00000000000E+00 0. -1.
          4    1    1    2  501    0  0.42078697642E+00 -0.24362796614E+01 -0.44602296263E+01  0.52553847230E+01  0.12700000000E+01 0.  1.
         -4    1    1    2    0  501 -0.42078697642E+00  0.24362796614E+01 -0.41390611735E+00  0.28101136173E+01  0.12700000000E+01 0. -1.
<mgrwt>
<rscale>  0 0.27794640E+01</rscale>
<asrwt>0</asrwt>
<pdfrwt beam="1">0</pdfrwt>
<pdfrwt beam="2">0</pdfrwt>
<totfact> 0.15668750E+12</totfact>
</mgrwt>
</event>
<event>
 4    1  0.3102735E+006  0.5502605E+01  0.7546771E-02  0.2067394E+00
         22   -1    0    0    0    0  0.00000000000E+00  0.00000000000E+00  0.48714709747E+00  0.48714709747E+00  0.00000000000E+00 0. -1.
         22   -1    0    0    0    0 -0.00000000000E+00 -0.00000000000E+00 -0.94901308233E+02  0.94901308233E+02  0.00000000000E+00 0.  1.
          4    1    1    2  501    0 -0.31553282988E+01 -0.43254673094E+01 -0.75223356087E+02  0.75424345971E+02  0.12700000000E+01 0.  1.
         -4    1    1    2    0  501  0.31553282988E+01  0.43254673094E+01 -0.19190805049E+02  0.19964109360E+02  0.12700000000E+01 0. -1.
<mgrwt>
<rscale>  0 0.55026052E+01</rscale>
<asrwt>0</asrwt>
<pdfrwt beam="1">0</pdfrwt>
<pdfrwt beam="2">0</pdfrwt>
<totfact> 0.19890853E+11</totfact>
</mgrwt>
</event>
<event>
 4    1  0.3102735E+006  0.2668004E+01  0.7546771E-02  0.2638797E+00
         22   -1    0    0    0    0  0.00000000000E+00  0.00000000000E+00  0.64594464840E+01  0.64594464840E+01  0.00000000000E+00 0. -1.
         22   -1    0    0    0    0 -0.00000000000E+00 -0.00000000000E+00 -0.14829426945E+01  0.14829426945E+01  0.00000000000E+00 0.  1.
          4    1    1    2  501    0  0.21878269310E+01  0.84779578814E+00  0.47547980622E+00  0.27100415910E+01  0.12700000000E+01 0.  1.
         -4    1    1    2    0  501 -0.21878269310E+01 -0.84779578814E+00  0.45010239833E+01  0.52323475876E+01  0.12700000000E+01 0. -1.
<mgrwt>
<rscale>  0 0.26680038E+01</rscale>
<asrwt>0</asrwt>
<pdfrwt beam="1">0</pdfrwt>
<pdfrwt beam="2">0</pdfrwt>
<totfact> 0.17080357E+12</totfact>
</mgrwt>
</event>
<event>
 4    1  0.3102735E+006  0.2755813E+01  0.7546771E-02  0.2605474E+00
         22   -1    0    0    0    0  0.00000000000E+00  0.00000000000E+00  0.11582321196E+01  0.11582321196E+01  0.00000000000E+00 0. -1.
         22   -1    0    0    0    0 -0.00000000000E+00 -0.00000000000E+00 -0.16949357717E+02  0.16949357717E+02  0.00000000000E+00 0.  1.
          4    1    1    2  501    0 -0.21403521134E+01  0.11834256664E+01 -0.14984996024E+02  0.15236292505E+02  0.12700000000E+01 0.  1.
         -4    1    1    2    0  501  0.21403521134E+01 -0.11834256664E+01 -0.80612957410E+00  0.28712973318E+01  0.12700000000E+01 0. -1.
<mgrwt>
<rscale>  0 0.27558127E+01</rscale>
<asrwt>0</asrwt>
<pdfrwt beam="1">0</pdfrwt>
<pdfrwt beam="2">0</pdfrwt>
<totfact> 0.70338309E+11</totfact>
</mgrwt>
</event>
<event>
 4    1  0.3102735E+006  0.2047951E+01  0.7546771E-02  0.2949092E+00
         22   -1    0    0    0    0  0.00000000000E+00  0.00000000000E+00  0.39444303912E+01  0.39444303912E+01  0.00000000000E+00 0. -1.
         22   -1    0    0    0    0 -0.00000000000E+00 -0.00000000000E+00 -0.14459902401E+01  0.14459902401E+01  0.00000000000E+00 0.  1.
          4    1    1    2  501    0 -0.10244124482E+01  0.12376525351E+01  0.26357678827E+01  0.33378701283E+01  0.12700000000E+01 0. -1.
         -4    1    1    2    0  501  0.10244124482E+01 -0.12376525351E+01 -0.13732773158E+00  0.20525505031E+01  0.12700000000E+01 0.  1.
<mgrwt>
<rscale>  0 0.20479513E+01</rscale>
<asrwt>0</asrwt>
<pdfrwt beam="1">0</pdfrwt>
<pdfrwt beam="2">0</pdfrwt>
<totfact> 0.31534418E+12</totfact>
</mgrwt>
</event>
<event>
 4    1  0.3102735E+006  0.3179371E+01  0.7546771E-02  0.2468366E+00
         22   -1    0    0    0    0  0.00000000000E+00  0.00000000000E+00  0.10154469489E+01  0.10154469489E+01  0.00000000000E+00 0. -1.
         22   -1    0    0    0    0 -0.00000000000E+00 -0.00000000000E+00 -0.99995507112E+01  0.99995507112E+01  0.00000000000E+00 0.  1.
          4    1    1    2  501    0 -0.18736619211E+01  0.22326867475E+01 -0.48611869944E+01  0.58085745326E+01  0.12700000000E+01 0. -1.
         -4    1    1    2    0  501  0.18736619211E+01 -0.22326867475E+01 -0.41229167679E+01  0.52064231275E+01  0.12700000000E+01 0.  1.
<mgrwt>
<rscale>  0 0.31793709E+01</rscale>
<asrwt>0</asrwt>
<pdfrwt beam="1">0</pdfrwt>
<pdfrwt beam="2">0</pdfrwt>
<totfact> 0.15593749E+12</totfact>
</mgrwt>
</event>
<event>
 4    1  0.3102735E+006  0.3572595E+01  0.7546771E-02  0.2367287E+00
         22   -1    0    0    0    0  0.00000000000E+00  0.00000000000E+00  0.83023798736E+01  0.83023798736E+01  0.00000000000E+00 0. -1.
         22   -1    0    0    0    0 -0.00000000000E+00 -0.00000000000E+00 -0.25890086393E+01  0.25890086393E+01  0.00000000000E+00 0.  1.
          4    1    1    2  501    0 -0.14123809255E+01  0.30258407191E+01 -0.61411499682E+00  0.36249922987E+01  0.12700000000E+01 0.  1.
         -4    1    1    2    0  501  0.14123809255E+01 -0.30258407191E+01  0.63274862311E+01  0.72663962142E+01  0.12700000000E+01 0. -1.
<mgrwt>
<rscale>  0 0.35725946E+01</rscale>
<asrwt>0</asrwt>
<pdfrwt beam="1">0</pdfrwt>
<pdfrwt beam="2">0</pdfrwt>
<totfact> 0.66359803E+11</totfact>
</mgrwt>
</event>
<event>
 4    1  0.3102735E+006  0.2020646E+01  0.7546771E-02  0.2966927E+00
         22   -1    0    0    0    0  0.00000000000E+00  0.00000000000E+00  0.14898123546E+00  0.14898123546E+00  0.00000000000E+00 0.  1.
         22   -1    0    0    0    0 -0.00000000000E+00 -0.00000000000E+00 -0.38909223773E+02  0.38909223773E+02  0.00000000000E+00 0.  1.
          4    1    1    2  501    0 -0.14858079750E+01 -0.51233228025E+00 -0.29998592355E+02  0.30066568694E+02  0.12700000000E+01 0.  1.
         -4    1    1    2    0  501  0.14858079750E+01  0.51233228025E+00 -0.87616501822E+01  0.89916363148E+01  0.12700000000E+01 0.  1.
<mgrwt>
<rscale>  0 0.20206459E+01</rscale>
<asrwt>0</asrwt>
<pdfrwt beam="1">0</pdfrwt>
<pdfrwt beam="2">0</pdfrwt>
<totfact> 0.24807651E+12</totfact>
</mgrwt>
</event>
<event>
 4    1  0.3102735E+006  0.2182501E+01  0.7546771E-02  0.2867550E+00
         22   -1    0    0    0    0  0.00000000000E+00  0.00000000000E+00  0.48876165153E+02  0.48876165153E+02  0.00000000000E+00 0.  1.
         22   -1    0    0    0    0 -0.00000000000E+00 -0.00000000000E+00 -0.10400852923E+00  0.10400852923E+00  0.00000000000E+00 0. -1.
          4    1    1    2  501    0 -0.80422365751E+00  0.15822874258E+01  0.18239441928E+02  0.18369555004E+02  0.12700000000E+01 0. -1.
         -4    1    1    2    0  501  0.80422365751E+00 -0.15822874258E+01  0.30532714696E+02  0.30610618679E+02  0.12700000000E+01 0.  1.
<mgrwt>
<rscale>  0 0.21825007E+01</rscale>
<asrwt>0</asrwt>
<pdfrwt beam="1">0</pdfrwt>
<pdfrwt beam="2">0</pdfrwt>
<totfact> 0.27443691E+12</totfact>
</mgrwt>
</event>
<event>
 4    1  0.3102735E+006  0.3167479E+01  0.7546771E-02  0.2471765E+00
         22   -1    0    0    0    0  0.00000000000E+00  0.00000000000E+00  0.38218277822E+01  0.38218277822E+01  0.00000000000E+00 0.  1.
         22   -1    0    0    0    0 -0.00000000000E+00 -0.00000000000E+00 -0.28456857499E+01  0.28456857499E+01  0.00000000000E+00 0. -1.
          4    1    1    2  501    0 -0.40669085812E+00 -0.28730867926E+01 -0.43996757512E+00  0.31978894038E+01  0.12700000000E+01 0. -1.
         -4    1    1    2    0  501  0.40669085812E+00  0.28730867926E+01  0.14161096074E+01  0.34696241283E+01  0.12700000000E+01 0.  1.
<mgrwt>
<rscale>  0 0.31674793E+01</rscale>
<asrwt>0</asrwt>
<pdfrwt beam="1">0</pdfrwt>
<pdfrwt beam="2">0</pdfrwt>
<totfact> 0.14944768E+12</totfact>
</mgrwt>
</event>
<event>
 4    1  0.3102735E+006  0.2181719E+01  0.7546771E-02  0.2867995E+00
         22   -1    0    0    0    0  0.00000000000E+00  0.00000000000E+00  0.18385634492E+00  0.18385634492E+00  0.00000000000E+00 0.  1.
         22   -1    0    0    0    0 -0.00000000000E+00 -0.00000000000E+00 -0.27544755952E+02  0.27544755952E+02  0.00000000000E+00 0.  1.
          4    1    1    2  501    0  0.15934606229E+01 -0.77966863665E+00 -0.17079410515E+02  0.17218192806E+02  0.12700000000E+01 0.  1.
         -4    1    1    2    0  501 -0.15934606229E+01  0.77966863665E+00 -0.10281489092E+02  0.10510419491E+02  0.12700000000E+01 0.  1.
<mgrwt>
<rscale>  0 0.21817195E+01</rscale>
<asrwt>0</asrwt>
<pdfrwt beam="1">0</pdfrwt>
<pdfrwt beam="2">0</pdfrwt>
<totfact> 0.30559982E+12</totfact>
</mgrwt>
</event>
<event>
 4    1  0.3102735E+006  0.2402743E+01  0.7546771E-02  0.2753025E+00
         22   -1    0    0    0    0  0.00000000000E+00  0.00000000000E+00  0.32473630758E+01  0.32473630758E+01  0.00000000000E+00 0. -1.
         22   -1    0    0    0    0 -0.00000000000E+00 -0.00000000000E+00 -0.28502971251E+01  0.28502971251E+01  0.00000000000E+00 0.  1.
          4    1    1    2  501    0  0.99463649923E+00  0.17807220529E+01 -0.16716562738E+01  0.29270475727E+01  0.12700000000E+01 0.  1.
         -4    1    1    2    0  501 -0.99463649923E+00 -0.17807220529E+01  0.20687222245E+01  0.31706126281E+01  0.12700000000E+01 0. -1.
<mgrwt>
<rscale>  0 0.24027428E+01</rscale>
<asrwt>0</asrwt>
<pdfrwt beam="1">0</pdfrwt>
<pdfrwt beam="2">0</pdfrwt>
<totfact> 0.18056103E+12</totfact>
</mgrwt>
</event>
<event>
 4    1  0.3102735E+006  0.2455662E+01  0.7546771E-02  0.2728406E+00
         22   -1    0    0    0    0  0.00000000000E+00  0.00000000000E+00  0.31988102854E+01  0.31988102854E+01  0.00000000000E+00 0. -1.
         22   -1    0    0    0    0 -0.00000000000E+00 -0.00000000000E+00 -0.71735558379E+01  0.71735558379E+01  0.00000000000E+00 0. -1.
          4    1    1    2  501    0  0.88911544229E+00  0.19044285442E+01 -0.64402683665E+01  0.68925562009E+01  0.12700000000E+01 0. -1.
         -4    1    1    2    0  501 -0.88911544229E+00 -0.19044285442E+01  0.24655228140E+01  0.34798099224E+01  0.12700000000E+01 0. -1.
<mgrwt>
<rscale>  0 0.24556617E+01</rscale>
<asrwt>0</asrwt>
<pdfrwt beam="1">0</pdfrwt>
<pdfrwt beam="2">0</pdfrwt>
<totfact> 0.61780746E+11</totfact>
</mgrwt>
</event>
<event>
 4    1  0.3102735E+006  0.2068161E+01  0.7546771E-02  0.2936188E+00
         22   -1    0    0    0    0  0.00000000000E+00  0.00000000000E+00  0.17495999338E+00  0.17495999338E+00  0.00000000000E+00 0.  1.
         22   -1    0    0    0    0 -0.00000000000E+00 -0.00000000000E+00 -0.25840817710E+02  0.25840817710E+02  0.00000000000E+00 0. -1.
          4    1    1    2  501    0  0.55895716973E+00  0.15336089543E+01 -0.15853706498E+02  0.15988036129E+02  0.12700000000E+01 0.  1.
         -4    1    1    2    0  501 -0.55895716973E+00 -0.15336089543E+01 -0.98121512183E+01  0.10027741574E+02  0.12700000000E+01 0. -1.
<mgrwt>
<rscale>  0 0.20681609E+01</rscale>
<asrwt>0</asrwt>
<pdfrwt beam="1">0</pdfrwt>
<pdfrwt beam="2">0</pdfrwt>
<totfact> 0.35014095E+12</totfact>
</mgrwt>
</event>
<event>
 4    1  0.3102735E+006  0.2424958E+01  0.7546771E-02  0.2742567E+00
         22   -1    0    0    0    0  0.00000000000E+00  0.00000000000E+00  0.51845654480E+00  0.51845654480E+00  0.00000000000E+00 0. -1.
         22   -1    0    0    0    0 -0.00000000000E+00 -0.00000000000E+00 -0.13623495058E+02  0.13623495058E+02  0.00000000000E+00 0. -1.
          4    1    1    2  501    0 -0.46321081014E+00  0.20131961993E+01 -0.94460526426E+01  0.97523501639E+01  0.12700000000E+01 0. -1.
         -4    1    1    2    0  501  0.46321081014E+00 -0.20131961993E+01 -0.36589858706E+01  0.43896014390E+01  0.12700000000E+01 0. -1.
<mgrwt>
<rscale>  0 0.24249584E+01</rscale>
<asrwt>0</asrwt>
<pdfrwt beam="1">0</pdfrwt>
<pdfrwt beam="2">0</pdfrwt>
<totfact> 0.22958811E+12</totfact>
</mgrwt>
</event>
<event>
 4    1  0.3102735E+006  0.2467691E+01  0.7546771E-02  0.2722948E+00
         22   -1    0    0    0    0  0.00000000000E+00  0.00000000000E+00  0.71072063166E+01  0.71072063166E+01  0.00000000000E+00 0. -1.
         22   -1    0    0    0    0 -0.00000000000E+00 -0.00000000000E+00 -0.88608042937E+00  0.88608042937E+00  0.00000000000E+00 0. -1.
          4    1    1    2  501    0 -0.13144347843E+01  0.16579688000E+01  0.23841214984E+01  0.34312584664E+01  0.12700000000E+01 0. -1.
         -4    1    1    2    0  501  0.13144347843E+01 -0.16579688000E+01  0.38370043888E+01  0.45620282795E+01  0.12700000000E+01 0. -1.
<mgrwt>
<rscale>  0 0.24676911E+01</rscale>
<asrwt>0</asrwt>
<pdfrwt beam="1">0</pdfrwt>
<pdfrwt beam="2">0</pdfrwt>
<totfact> 0.27475231E+12</totfact>
</mgrwt>
</event>
<event>
 4    1  0.3102735E+006  0.2186385E+01  0.7546771E-02  0.2865339E+00
         22   -1    0    0    0    0  0.00000000000E+00  0.00000000000E+00  0.32124350543E+01  0.32124350543E+01  0.00000000000E+00 0. -1.
         22   -1    0    0    0    0 -0.00000000000E+00 -0.00000000000E+00 -0.15081025412E+01  0.15081025412E+01  0.00000000000E+00 0.  1.
          4    1    1    2  501    0 -0.29525356571E+00 -0.17550512793E+01  0.58003534194E+00  0.22620169449E+01  0.12700000000E+01 0. -1.
         -4    1    1    2    0  501  0.29525356571E+00  0.17550512793E+01  0.11242971712E+01  0.24585206507E+01  0.12700000000E+01 0. -1.
<mgrwt>
<rscale>  0 0.21863851E+01</rscale>
<asrwt>0</asrwt>
<pdfrwt beam="1">0</pdfrwt>
<pdfrwt beam="2">0</pdfrwt>
<totfact> 0.38227917E+12</totfact>
</mgrwt>
</event>
<event>
 4    1  0.3102735E+006  0.4205119E+01  0.7546771E-02  0.2239720E+00
         22   -1    0    0    0    0  0.00000000000E+00  0.00000000000E+00  0.45236257723E+02  0.45236257723E+02  0.00000000000E+00 0. -1.
         22   -1    0    0    0    0 -0.00000000000E+00 -0.00000000000E+00 -0.79302155498E+00  0.79302155498E+00  0.00000000000E+00 0.  1.
          4    1    1    2  501    0 -0.35290100061E+01  0.19016346747E+01  0.58331524173E+01  0.71908756895E+01  0.12700000000E+01 0.  1.
         -4    1    1    2    0  501  0.35290100061E+01 -0.19016346747E+01  0.38610083750E+02  0.38838403588E+02  0.12700000000E+01 0. -1.
<mgrwt>
<rscale>  0 0.42051190E+01</rscale>
<asrwt>0</asrwt>
<pdfrwt beam="1">0</pdfrwt>
<pdfrwt beam="2">0</pdfrwt>
<totfact> 0.31150029E+11</totfact>
</mgrwt>
</event>
<event>
 4    1  0.3102735E+006  0.3637892E+01  0.7546771E-02  0.2352362E+00
         22   -1    0    0    0    0  0.00000000000E+00  0.00000000000E+00  0.22181287624E+01  0.22181287624E+01  0.00000000000E+00 0.  1.
         22   -1    0    0    0    0 -0.00000000000E+00 -0.00000000000E+00 -0.84788844845E+01  0.84788844845E+01  0.00000000000E+00 0. -1.
          4    1    1    2  501    0  0.28237072276E+01 -0.19099828466E+01 -0.60418614442E+01  0.70525418604E+01  0.12700000000E+01 0. -1.
         -4    1    1    2    0  501 -0.28237072276E+01  0.19099828466E+01 -0.21889427792E+00  0.36444713864E+01  0.12700000000E+01 0.  1.
<mgrwt>
<rscale>  0 0.36378918E+01</rscale>
<asrwt>0</asrwt>
<pdfrwt beam="1">0</pdfrwt>
<pdfrwt beam="2">0</pdfrwt>
<totfact> 0.77435586E+11</totfact>
</mgrwt>
</event>
<event>
 4    1  0.3102735E+006  0.3061100E+01  0.7546771E-02  0.2503218E+00
         22   -1    0    0    0    0  0.00000000000E+00  0.00000000000E+00  0.62988480785E+00  0.62988480785E+00  0.00000000000E+00 0.  1.
         22   -1    0    0    0    0 -0.00000000000E+00 -0.00000000000E+00 -0.21688880732E+02  0.21688880732E+02  0.00000000000E+00 0. -1.
          4    1    1    2  501    0  0.12367745134E+01  0.24955606617E+01 -0.16783795027E+02  0.17060659709E+02  0.12700000000E+01 0. -1.
         -4    1    1    2    0  501 -0.12367745134E+01 -0.24955606617E+01 -0.42752008975E+01  0.52581058308E+01  0.12700000000E+01 0.  1.
<mgrwt>
<rscale>  0 0.30611002E+01</rscale>
<asrwt>0</asrwt>
<pdfrwt beam="1">0</pdfrwt>
<pdfrwt beam="2">0</pdfrwt>
<totfact> 0.10356574E+12</totfact>
</mgrwt>
</event>
<event>
 4    1  0.3102735E+006  0.3663817E+01  0.7546771E-02  0.2346565E+00
         22   -1    0    0    0    0  0.00000000000E+00  0.00000000000E+00  0.28190066342E+01  0.28190066342E+01  0.00000000000E+00 0.  1.
         22   -1    0    0    0    0 -0.00000000000E+00 -0.00000000000E+00 -0.47760770500E+01  0.47760770500E+01  0.00000000000E+00 0. -1.
          4    1    1    2  501    0  0.32646357275E+01 -0.10736879600E+01 -0.77092381149E+00  0.37440453779E+01  0.12700000000E+01 0.  1.
         -4    1    1    2    0  501 -0.32646357275E+01  0.10736879600E+01 -0.11861466043E+01  0.38510383062E+01  0.12700000000E+01 0. -1.
<mgrwt>
<rscale>  0 0.36638166E+01</rscale>
<asrwt>0</asrwt>
<pdfrwt beam="1">0</pdfrwt>
<pdfrwt beam="2">0</pdfrwt>
<totfact> 0.11618508E+12</totfact>
</mgrwt>
</event>
<event>
 4    1  0.3102735E+006  0.3218443E+01  0.7546771E-02  0.2457353E+00
         22   -1    0    0    0    0  0.00000000000E+00  0.00000000000E+00  0.94284746868E+01  0.94284746868E+01  0.00000000000E+00 0.  1.
         22   -1    0    0    0    0 -0.00000000000E+00 -0.00000000000E+00 -0.11401442383E+01  0.11401442383E+01  0.00000000000E+00 0. -1.
          4    1    1    2  501    0  0.28533324457E+01 -0.77715535786E+00  0.51525418604E+01  0.60751184449E+01  0.12700000000E+01 0.  1.
         -4    1    1    2    0  501 -0.28533324457E+01  0.77715535786E+00  0.31357885881E+01  0.44935004802E+01  0.12700000000E+01 0. -1.
<mgrwt>
<rscale>  0 0.32184432E+01</rscale>
<asrwt>0</asrwt>
<pdfrwt beam="1">0</pdfrwt>
<pdfrwt beam="2">0</pdfrwt>
<totfact> 0.14666421E+12</totfact>
</mgrwt>
</event>
<event>
 4    1  0.3102735E+006  0.2186738E+01  0.7546771E-02  0.2865139E+00
         22   -1    0    0    0    0  0.00000000000E+00  0.00000000000E+00  0.15526141498E+01  0.15526141498E+01  0.00000000000E+00 0. -1.
         22   -1    0    0    0    0 -0.00000000000E+00 -0.00000000000E+00 -0.10973829751E+02  0.10973829751E+02  0.00000000000E+00 0. -1.
          4    1    1    2  501    0 -0.10677718759E+01  0.14243542951E+01 -0.10022712662E+02  0.10258488731E+02  0.12700000000E+01 0. -1.
         -4    1    1    2    0  501  0.10677718759E+01 -0.14243542951E+01  0.60149706104E+00  0.22679551696E+01  0.12700000000E+01 0. -1.
<mgrwt>
<rscale>  0 0.21867377E+01</rscale>
<asrwt>0</asrwt>
<pdfrwt beam="1">0</pdfrwt>
<pdfrwt beam="2">0</pdfrwt>
<totfact> 0.85600203E+11</totfact>
</mgrwt>
</event>
<event>
 4    1  0.3102735E+006  0.2626628E+01  0.7546771E-02  0.2655206E+00
         22   -1    0    0    0    0  0.00000000000E+00  0.00000000000E+00  0.10831089755E+02  0.10831089755E+02  0.00000000000E+00 0.  1.
         22   -1    0    0    0    0 -0.00000000000E+00 -0.00000000000E+00 -0.63839744745E+00  0.63839744745E+00  0.00000000000E+00 0. -1.
          4    1    1    2  501    0 -0.18934723091E+01  0.13042383902E+01  0.48260143941E+01  0.54945054460E+01  0.12700000000E+01 0.  1.
         -4    1    1    2    0  501  0.18934723091E+01 -0.13042383902E+01  0.53666779134E+01  0.59749817564E+01  0.12700000000E+01 0. -1.
<mgrwt>
<rscale>  0 0.26266281E+01</rscale>
<asrwt>0</asrwt>
<pdfrwt beam="1">0</pdfrwt>
<pdfrwt beam="2">0</pdfrwt>
<totfact> 0.23999862E+12</totfact>
</mgrwt>
</event>
<event>
 4    1  0.3102735E+006  0.2046595E+01  0.7546771E-02  0.2949967E+00
         22   -1    0    0    0    0  0.00000000000E+00  0.00000000000E+00  0.39961001333E+02  0.39961001333E+02  0.00000000000E+00 0. -1.
         22   -1    0    0    0    0 -0.00000000000E+00 -0.00000000000E+00 -0.28925165364E+00  0.28925165364E+00  0.00000000000E+00 0. -1.
          4    1    1    2  501    0  0.22485240497E+00  0.15890544213E+01  0.37656065984E+01  0.42858307960E+01  0.12700000000E+01 0. -1.
         -4    1    1    2    0  501 -0.22485240497E+00 -0.15890544213E+01  0.35906143081E+02  0.35964422190E+02  0.12700000000E+01 0. -1.
<mgrwt>
<rscale>  0 0.20465954E+01</rscale>
<asrwt>0</asrwt>
<pdfrwt beam="1">0</pdfrwt>
<pdfrwt beam="2">0</pdfrwt>
<totfact> 0.11427964E+12</totfact>
</mgrwt>
</event>
<event>
 4    1  0.3102735E+006  0.3058184E+01  0.7546771E-02  0.2504107E+00
         22   -1    0    0    0    0  0.00000000000E+00  0.00000000000E+00  0.88270656114E+01  0.88270656114E+01  0.00000000000E+00 0. -1.
         22   -1    0    0    0    0 -0.00000000000E+00 -0.00000000000E+00 -0.11354108155E+01  0.11354108155E+01  0.00000000000E+00 0. -1.
          4    1    1    2  501    0 -0.23336626577E+01  0.15144652802E+01  0.51336155031E+01  0.59754911613E+01  0.12700000000E+01 0. -1.
         -4    1    1    2    0  501  0.23336626577E+01 -0.15144652802E+01  0.25580392928E+01  0.39869852657E+01  0.12700000000E+01 0. -1.
<mgrwt>
<rscale>  0 0.30581835E+01</rscale>
<asrwt>0</asrwt>
<pdfrwt beam="1">0</pdfrwt>
<pdfrwt beam="2">0</pdfrwt>
<totfact> 0.15956536E+12</totfact>
</mgrwt>
</event>
<event>
 4    1  0.3102735E+006  0.2019304E+01  0.7546771E-02  0.2967815E+00
         22   -1    0    0    0    0  0.00000000000E+00  0.00000000000E+00  0.58466438006E+01  0.58466438006E+01  0.00000000000E+00 0.  1.
         22   -1    0    0    0    0 -0.00000000000E+00 -0.00000000000E+00 -0.79339823970E+00  0.79339823970E+00  0.00000000000E+00 0. -1.
          4    1    1    2  501    0 -0.54207265946E+00  0.14733796462E+01  0.13719144257E+01  0.24412577785E+01  0.12700000000E+01 0.  1.
         -4    1    1    2    0  501  0.54207265946E+00 -0.14733796462E+01  0.36813311352E+01  0.41987842618E+01  0.12700000000E+01 0. -1.
<mgrwt>
<rscale>  0 0.20193044E+01</rscale>
<asrwt>0</asrwt>
<pdfrwt beam="1">0</pdfrwt>
<pdfrwt beam="2">0</pdfrwt>
<totfact> 0.39327198E+12</totfact>
</mgrwt>
</event>
<event>
 4    1  0.3102735E+006  0.2335388E+01  0.7546771E-02  0.2785873E+00
         22   -1    0    0    0    0  0.00000000000E+00  0.00000000000E+00  0.16979056139E+00  0.16979056139E+00  0.00000000000E+00 0.  1.
         22   -1    0    0    0    0 -0.00000000000E+00 -0.00000000000E+00 -0.33571882693E+02  0.33571882693E+02  0.00000000000E+00 0. -1.
          4    1    1    2  501    0  0.10105192940E+01 -0.16792816698E+01 -0.20206903468E+02  0.20341410569E+02  0.12700000000E+01 0. -1.
         -4    1    1    2    0  501 -0.10105192940E+01  0.16792816698E+01 -0.13195188664E+02  0.13400262685E+02  0.12700000000E+01 0.  1.
<mgrwt>
<rscale>  0 0.23353878E+01</rscale>
<asrwt>0</asrwt>
<pdfrwt beam="1">0</pdfrwt>
<pdfrwt beam="2">0</pdfrwt>
<totfact> 0.25945167E+12</totfact>
</mgrwt>
</event>
<event>
 4    1  0.3102735E+006  0.3304002E+01  0.7546771E-02  0.2434045E+00
         22   -1    0    0    0    0  0.00000000000E+00  0.00000000000E+00  0.48621635976E+00  0.48621635976E+00  0.00000000000E+00 0. -1.
         22   -1    0    0    0    0 -0.00000000000E+00 -0.00000000000E+00 -0.22875703315E+02  0.22875703315E+02  0.00000000000E+00 0.  1.
          4    1    1    2  501    0 -0.18668557275E+01  0.24121315712E+01 -0.12784857751E+02  0.13204886093E+02  0.12700000000E+01 0.  1.
         -4    1    1    2    0  501  0.18668557275E+01 -0.24121315712E+01 -0.96046292050E+01  0.10157033582E+02  0.12700000000E+01 0. -1.
<mgrwt>
<rscale>  0 0.33040020E+01</rscale>
<asrwt>0</asrwt>
<pdfrwt beam="1">0</pdfrwt>
<pdfrwt beam="2">0</pdfrwt>
<totfact> 0.12982746E+12</totfact>
</mgrwt>
</event>
<event>
 4    1  0.3102735E+006  0.5453052E+01  0.7546771E-02  0.2072516E+00
         22   -1    0    0    0    0  0.00000000000E+00  0.00000000000E+00  0.38894346504E+01  0.38894346504E+01  0.00000000000E+00 0.  1.
         22   -1    0    0    0    0 -0.00000000000E+00 -0.00000000000E+00 -0.88706858212E+01  0.88706858212E+01  0.00000000000E+00 0. -1.
          4    1    1    2  501    0  0.35564821643E+01 -0.39337396914E+01 -0.48619345114E+01  0.73057635150E+01  0.12700000000E+01 0. -1.
         -4    1    1    2    0  501 -0.35564821643E+01  0.39337396914E+01 -0.11931665943E+00  0.54543569566E+01  0.12700000000E+01 0.  1.
<mgrwt>
<rscale>  0 0.54530517E+01</rscale>
<asrwt>0</asrwt>
<pdfrwt beam="1">0</pdfrwt>
<pdfrwt beam="2">0</pdfrwt>
<totfact> 0.38062768E+11</totfact>
</mgrwt>
</event>
<event>
 4    1  0.3102735E+006  0.2473865E+01  0.7546771E-02  0.2720165E+00
         22   -1    0    0    0    0  0.00000000000E+00  0.00000000000E+00  0.14026828310E+00  0.14026828310E+00  0.00000000000E+00 0.  1.
         22   -1    0    0    0    0 -0.00000000000E+00 -0.00000000000E+00 -0.43663369564E+02  0.43663369564E+02  0.00000000000E+00 0. -1.
          4    1    1    2  501    0  0.20251338990E+01  0.63713551843E+00 -0.22360276172E+02  0.22496709969E+02  0.12700000000E+01 0.  1.
         -4    1    1    2    0  501 -0.20251338990E+01 -0.63713551843E+00 -0.21162825109E+02  0.21306927877E+02  0.12700000000E+01 0.  1.
<mgrwt>
<rscale>  0 0.24738652E+01</rscale>
<asrwt>0</asrwt>
<pdfrwt beam="1">0</pdfrwt>
<pdfrwt beam="2">0</pdfrwt>
<totfact> 0.22835360E+12</totfact>
</mgrwt>
</event>
<event>
 4    1  0.3102735E+006  0.2060139E+01  0.7546771E-02  0.2941280E+00
         22   -1    0    0    0    0  0.00000000000E+00  0.00000000000E+00  0.17278029766E+01  0.17278029766E+01  0.00000000000E+00 0. -1.
         22   -1    0    0    0    0 -0.00000000000E+00 -0.00000000000E+00 -0.72714879214E+01  0.72714879214E+01  0.00000000000E+00 0.  1.
          4    1    1    2  501    0 -0.15013230070E+01  0.61424827367E+00 -0.64334252259E+01  0.67552299628E+01  0.12700000000E+01 0.  1.
         -4    1    1    2    0  501  0.15013230070E+01 -0.61424827367E+00  0.88974028108E+00  0.22440609352E+01  0.12700000000E+01 0. -1.
<mgrwt>
<rscale>  0 0.20601388E+01</rscale>
<asrwt>0</asrwt>
<pdfrwt beam="1">0</pdfrwt>
<pdfrwt beam="2">0</pdfrwt>
<totfact> 0.12431328E+12</totfact>
</mgrwt>
</event>
<event>
 4    1  0.3102735E+006  0.2200875E+01  0.7546771E-02  0.2857161E+00
         22   -1    0    0    0    0  0.00000000000E+00  0.00000000000E+00  0.15667147928E+01  0.15667147928E+01  0.00000000000E+00 0.  1.
         22   -1    0    0    0    0 -0.00000000000E+00 -0.00000000000E+00 -0.31254304152E+01  0.31254304152E+01  0.00000000000E+00 0. -1.
          4    1    1    2  501    0  0.13734220660E+01 -0.11595967259E+01 -0.10229876226E+01  0.24270056477E+01  0.12700000000E+01 0. -1.
         -4    1    1    2    0  501 -0.13734220660E+01  0.11595967259E+01 -0.53572799976E+00  0.22651395603E+01  0.12700000000E+01 0.  1.
<mgrwt>
<rscale>  0 0.22008754E+01</rscale>
<asrwt>0</asrwt>
<pdfrwt beam="1">0</pdfrwt>
<pdfrwt beam="2">0</pdfrwt>
<totfact> 0.37780530E+12</totfact>
</mgrwt>
</event>
<event>
 4    1  0.3102735E+006  0.2534626E+01  0.7546771E-02  0.2693459E+00
         22   -1    0    0    0    0  0.00000000000E+00  0.00000000000E+00  0.73868542099E+00  0.73868542099E+00  0.00000000000E+00 0.  1.
         22   -1    0    0    0    0 -0.00000000000E+00 -0.00000000000E+00 -0.11397334255E+02  0.11397334255E+02  0.00000000000E+00 0. -1.
          4    1    1    2  501    0  0.87629496857E+00  0.20108543562E+01 -0.82829501561E+01  0.86620777763E+01  0.12700000000E+01 0. -1.
         -4    1    1    2    0  501 -0.87629496857E+00 -0.20108543562E+01 -0.23756986776E+01  0.34739418994E+01  0.12700000000E+01 0.  1.
<mgrwt>
<rscale>  0 0.25346258E+01</rscale>
<asrwt>0</asrwt>
<pdfrwt beam="1">0</pdfrwt>
<pdfrwt beam="2">0</pdfrwt>
<totfact> 0.19115819E+12</totfact>
</mgrwt>
</event>
<event>
 4    1  0.3102735E+006  0.2207217E+01  0.7546771E-02  0.2853614E+00
         22   -1    0    0    0    0  0.00000000000E+00  0.00000000000E+00  0.48413560622E+01  0.48413560622E+01  0.00000000000E+00 0. -1.
         22   -1    0    0    0    0 -0.00000000000E+00 -0.00000000000E+00 -0.14769357100E+01  0.14769357100E+01  0.00000000000E+00 0.  1.
          4    1    1    2  501    0  0.43298046878E+00  0.17525508378E+01 -0.10113781559E+00  0.22095328428E+01  0.12700000000E+01 0.  1.
         -4    1    1    2    0  501 -0.43298046878E+00 -0.17525508378E+01  0.34655581678E+01  0.41087589294E+01  0.12700000000E+01 0. -1.
<mgrwt>
<rscale>  0 0.22072169E+01</rscale>
<asrwt>0</asrwt>
<pdfrwt beam="1">0</pdfrwt>
<pdfrwt beam="2">0</pdfrwt>
<totfact> 0.24169331E+12</totfact>
</mgrwt>
</event>
<event>
 4    1  0.3102735E+006  0.2294408E+01  0.7546771E-02  0.2806749E+00
         22   -1    0    0    0    0  0.00000000000E+00  0.00000000000E+00  0.43353903753E+00  0.43353903753E+00  0.00000000000E+00 0.  1.
         22   -1    0    0    0    0 -0.00000000000E+00 -0.00000000000E+00 -0.12142694663E+02  0.12142694663E+02  0.00000000000E+00 0. -1.
          4    1    1    2  501    0  0.14370766316E+01 -0.12594515245E+01 -0.58409379902E+01  0.62754174358E+01  0.12700000000E+01 0. -1.
         -4    1    1    2    0  501 -0.14370766316E+01  0.12594515245E+01 -0.58682176348E+01  0.63008162643E+01  0.12700000000E+01 0.  1.
<mgrwt>
<rscale>  0 0.22944079E+01</rscale>
<asrwt>0</asrwt>
<pdfrwt beam="1">0</pdfrwt>
<pdfrwt beam="2">0</pdfrwt>
<totfact> 0.32337190E+12</totfact>
</mgrwt>
</event>
<event>
 4    1  0.3102735E+006  0.2032882E+01  0.7546771E-02  0.2958877E+00
         22   -1    0    0    0    0  0.00000000000E+00  0.00000000000E+00  0.19562503986E+01  0.19562503986E+01  0.00000000000E+00 0. -1.
         22   -1    0    0    0    0 -0.00000000000E+00 -0.00000000000E+00 -0.21310320869E+01  0.21310320869E+01  0.00000000000E+00 0.  1.
          4    1    1    2  501    0 -0.12936713831E+01 -0.91984957833E+00  0.10310806770E+00  0.20354950670E+01  0.12700000000E+01 0. -1.
         -4    1    1    2    0  501  0.12936713831E+01  0.91984957833E+00 -0.27788975592E+00  0.20517874185E+01  0.12700000000E+01 0.  1.
<mgrwt>
<rscale>  0 0.20328819E+01</rscale>
<asrwt>0</asrwt>
<pdfrwt beam="1">0</pdfrwt>
<pdfrwt beam="2">0</pdfrwt>
<totfact> 0.45661808E+12</totfact>
</mgrwt>
</event>
<event>
 4    1  0.3102735E+006  0.2620553E+01  0.7546771E-02  0.2657655E+00
         22   -1    0    0    0    0  0.00000000000E+00  0.00000000000E+00  0.91287232745E+00  0.91287232745E+00  0.00000000000E+00 0.  1.
         22   -1    0    0    0    0 -0.00000000000E+00 -0.00000000000E+00 -0.75391627834E+01  0.75391627834E+01  0.00000000000E+00 0. -1.
          4    1    1    2  501    0  0.16205662757E+01  0.16211606243E+01 -0.35104129824E+01  0.43806730226E+01  0.12700000000E+01 0.  1.
         -4    1    1    2    0  501 -0.16205662757E+01 -0.16211606243E+01 -0.31158774736E+01  0.40713620883E+01  0.12700000000E+01 0. -1.
<mgrwt>
<rscale>  0 0.26205528E+01</rscale>
<asrwt>0</asrwt>
<pdfrwt beam="1">0</pdfrwt>
<pdfrwt beam="2">0</pdfrwt>
<totfact> 0.24746003E+12</totfact>
</mgrwt>
</event>
<event>
 4    1  0.3102735E+006  0.4679003E+01  0.7546771E-02  0.2163682E+00
         22   -1    0    0    0    0  0.00000000000E+00  0.00000000000E+00  0.10816891438E+02  0.10816891438E+02  0.00000000000E+00 0. -1.
         22   -1    0    0    0    0 -0.00000000000E+00 -0.00000000000E+00 -0.58351653495E+01  0.58351653495E+01  0.00000000000E+00 0.  1.
          4    1    1    2  501    0  0.35953854131E+01 -0.27117103926E+01 -0.42380029390E+01  0.63129817387E+01  0.12700000000E+01 0.  1.
         -4    1    1    2    0  501 -0.35953854131E+01  0.27117103926E+01  0.92197290277E+01  0.10339075049E+02  0.12700000000E+01 0. -1.
<mgrwt>
<rscale>  0 0.46790030E+01</rscale>
<asrwt>0</asrwt>
<pdfrwt beam="1">0</pdfrwt>
<pdfrwt beam="2">0</pdfrwt>
<totfact> 0.18533340E+11</totfact>
</mgrwt>
</event>
<event>
 4    1  0.3102735E+006  0.2029209E+01  0.7546771E-02  0.2961284E+00
         22   -1    0    0    0    0  0.00000000000E+00  0.00000000000E+00  0.17288593328E+02  0.17288593328E+02  0.00000000000E+00 0. -1.
         22   -1    0    0    0    0 -0.00000000000E+00 -0.00000000000E+00 -0.61511571177E+00  0.61511571177E+00  0.00000000000E+00 0. -1.
          4    1    1    2  501    0  0.12325321743E+01  0.99279989789E+00  0.13290967200E+01  0.24257339691E+01  0.12700000000E+01 0. -1.
         -4    1    1    2    0  501 -0.12325321743E+01 -0.99279989789E+00  0.15344380896E+02  0.15477975071E+02  0.12700000000E+01 0. -1.
<mgrwt>
<rscale>  0 0.20292085E+01</rscale>
<asrwt>0</asrwt>
<pdfrwt beam="1">0</pdfrwt>
<pdfrwt beam="2">0</pdfrwt>
<totfact> 0.14107570E+12</totfact>
</mgrwt>
</event>
<event>
 4    1  0.3102735E+006  0.4593171E+01  0.7546771E-02  0.2176476E+00
         22   -1    0    0    0    0  0.00000000000E+00  0.00000000000E+00  0.24853541852E+01  0.24853541852E+01  0.00000000000E+00 0. -1.
         22   -1    0    0    0    0 -0.00000000000E+00 -0.00000000000E+00 -0.90665446345E+01  0.90665446345E+01  0.00000000000E+00 0.  1.
          4    1    1    2  501    0 -0.18874317057E+01 -0.39902277419E+01 -0.18323189813E+01  0.49451601314E+01  0.12700000000E+01 0. -1.
         -4    1    1    2    0  501  0.18874317057E+01  0.39902277419E+01 -0.47488714680E+01  0.66067386883E+01  0.12700000000E+01 0. -1.
<mgrwt>
<rscale>  0 0.45931706E+01</rscale>
<asrwt>0</asrwt>
<pdfrwt beam="1">0</pdfrwt>
<pdfrwt beam="2">0</pdfrwt>
<totfact> 0.62587050E+11</totfact>
</mgrwt>
</event>
<event>
 4    1  0.3102735E+006  0.3300660E+01  0.7546771E-02  0.2434935E+00
         22   -1    0    0    0    0  0.00000000000E+00  0.00000000000E+00  0.68227683428E+00  0.68227683428E+00  0.00000000000E+00 0.  1.
         22   -1    0    0    0    0 -0.00000000000E+00 -0.00000000000E+00 -0.37469477742E+02  0.37469477742E+02  0.00000000000E+00 0. -1.
          4    1    1    2  501    0 -0.30081530117E+01 -0.48215033679E+00 -0.32844119658E+02  0.33009552399E+02  0.12700000000E+01 0. -1.
         -4    1    1    2    0  501  0.30081530117E+01  0.48215033679E+00 -0.39430812504E+01  0.51422021777E+01  0.12700000000E+01 0.  1.
<mgrwt>
<rscale>  0 0.33006596E+01</rscale>
<asrwt>0</asrwt>
<pdfrwt beam="1">0</pdfrwt>
<pdfrwt beam="2">0</pdfrwt>
<totfact> 0.47212532E+11</totfact>
</mgrwt>
</event>
<event>
 4    1  0.3102735E+006  0.2846808E+01  0.7546771E-02  0.2572925E+00
         22   -1    0    0    0    0  0.00000000000E+00  0.00000000000E+00  0.69285931738E+01  0.69285931738E+01  0.00000000000E+00 0. -1.
         22   -1    0    0    0    0 -0.00000000000E+00 -0.00000000000E+00 -0.22723796652E+01  0.22723796652E+01  0.00000000000E+00 0.  1.
          4    1    1    2  501    0 -0.23554671284E+01  0.97117899598E+00 -0.87661061251E+00  0.29787178788E+01  0.12700000000E+01 0.  1.
         -4    1    1    2    0  501  0.23554671284E+01 -0.97117899598E+00  0.55328241211E+01  0.62222549603E+01  0.12700000000E+01 0. -1.
<mgrwt>
<rscale>  0 0.28468077E+01</rscale>
<asrwt>0</asrwt>
<pdfrwt beam="1">0</pdfrwt>
<pdfrwt beam="2">0</pdfrwt>
<totfact> 0.95932790E+11</totfact>
</mgrwt>
</event>
<event>
 4    1  0.3102735E+006  0.2313657E+01  0.7546771E-02  0.2796856E+00
         22   -1    0    0    0    0  0.00000000000E+00  0.00000000000E+00  0.10660427749E+00  0.10660427749E+00  0.00000000000E+00 0. -1.
         22   -1    0    0    0    0 -0.00000000000E+00 -0.00000000000E+00 -0.51136744956E+02  0.51136744956E+02  0.00000000000E+00 0.  1.
          4    1    1    2  501    0  0.19316132735E+01  0.94768561884E-01 -0.22073015963E+02  0.22193941620E+02  0.12700000000E+01 0.  1.
         -4    1    1    2    0  501 -0.19316132735E+01 -0.94768561884E-01 -0.28957124715E+02  0.29049407613E+02  0.12700000000E+01 0. -1.
<mgrwt>
<rscale>  0 0.23136575E+01</rscale>
<asrwt>0</asrwt>
<pdfrwt beam="1">0</pdfrwt>
<pdfrwt beam="2">0</pdfrwt>
<totfact> 0.25159291E+12</totfact>
</mgrwt>
</event>
<event>
 4    1  0.3102735E+006  0.2035878E+01  0.7546771E-02  0.2956920E+00
         22   -1    0    0    0    0  0.00000000000E+00  0.00000000000E+00  0.41342820922E+02  0.41342820922E+02  0.00000000000E+00 0.  1.
         22   -1    0    0    0    0 -0.00000000000E+00 -0.00000000000E+00 -0.10680407638E+00  0.10680407638E+00  0.00000000000E+00 0. -1.
          4    1    1    2  501    0 -0.50474514628E+00 -0.15090172194E+01  0.15485781214E+02  0.15619033915E+02  0.12700000000E+01 0.  1.
         -4    1    1    2    0  501  0.50474514628E+00  0.15090172194E+01  0.25750235632E+02  0.25830591084E+02  0.12700000000E+01 0.  1.
<mgrwt>
<rscale>  0 0.20358783E+01</rscale>
<asrwt>0</asrwt>
<pdfrwt beam="1">0</pdfrwt>
<pdfrwt beam="2">0</pdfrwt>
<totfact> 0.33173560E+12</totfact>
</mgrwt>
</event>
<event>
 4    1  0.3102735E+006  0.2227791E+01  0.7546771E-02  0.2842241E+00
         22   -1    0    0    0    0  0.00000000000E+00  0.00000000000E+00  0.34623096185E+00  0.34623096185E+00  0.00000000000E+00 0.  1.
         22   -1    0    0    0    0 -0.00000000000E+00 -0.00000000000E+00 -0.41225193571E+02  0.41225193571E+02  0.00000000000E+00 0.  1.
          4    1    1    2  501    0 -0.13132487031E+01 -0.12749625072E+01 -0.37226921246E+02  0.37293521114E+02  0.12700000000E+01 0.  1.
         -4    1    1    2    0  501  0.13132487031E+01  0.12749625072E+01 -0.36520413631E+01  0.42779034198E+01  0.12700000000E+01 0.  1.
<mgrwt>
<rscale>  0 0.22277907E+01</rscale>
<asrwt>0</asrwt>
<pdfrwt beam="1">0</pdfrwt>
<pdfrwt beam="2">0</pdfrwt>
<totfact> 0.89701848E+11</totfact>
</mgrwt>
</event>
<event>
 4    1  0.3102735E+006  0.3911673E+01  0.7546771E-02  0.2294503E+00
         22   -1    0    0    0    0  0.00000000000E+00  0.00000000000E+00  0.16756034868E+02  0.16756034868E+02  0.00000000000E+00 0. -1.
         22   -1    0    0    0    0 -0.00000000000E+00 -0.00000000000E+00 -0.16834050886E+01  0.16834050886E+01  0.00000000000E+00 0.  1.
          4    1    1    2  501    0  0.33746255135E+01  0.15166381197E+01  0.12999184690E+01  0.41220112286E+01  0.12700000000E+01 0.  1.
         -4    1    1    2    0  501 -0.33746255135E+01 -0.15166381197E+01  0.13772711310E+02  0.14317428728E+02  0.12700000000E+01 0. -1.
<mgrwt>
<rscale>  0 0.39116734E+01</rscale>
<asrwt>0</asrwt>
<pdfrwt beam="1">0</pdfrwt>
<pdfrwt beam="2">0</pdfrwt>
<totfact> 0.46426079E+11</totfact>
</mgrwt>
</event>
<event>
 4    1  0.3102735E+006  0.2264350E+01  0.7546771E-02  0.2822516E+00
         22   -1    0    0    0    0  0.00000000000E+00  0.00000000000E+00  0.37386813761E+01  0.37386813761E+01  0.00000000000E+00 0.  1.
         22   -1    0    0    0    0 -0.00000000000E+00 -0.00000000000E+00 -0.14255975967E+01  0.14255975967E+01  0.00000000000E+00 0. -1.
          4    1    1    2  501    0 -0.14496743716E+01 -0.11886236551E+01  0.16599416410E+01  0.28076125496E+01  0.12700000000E+01 0.  1.
         -4    1    1    2    0  501  0.14496743716E+01  0.11886236551E+01  0.65314213836E+00  0.23566664232E+01  0.12700000000E+01 0. -1.
<mgrwt>
<rscale>  0 0.22643502E+01</rscale>
<asrwt>0</asrwt>
<pdfrwt beam="1">0</pdfrwt>
<pdfrwt beam="2">0</pdfrwt>
<totfact> 0.34138698E+12</totfact>
</mgrwt>
</event>
<event>
 4    1  0.3102735E+006  0.2603777E+01  0.7546771E-02  0.2664474E+00
         22   -1    0    0    0    0  0.00000000000E+00  0.00000000000E+00  0.21409989737E+00  0.21409989737E+00  0.00000000000E+00 0.  1.
         22   -1    0    0    0    0 -0.00000000000E+00 -0.00000000000E+00 -0.54527568576E+02  0.54527568576E+02  0.00000000000E+00 0. -1.
          4    1    1    2  501    0 -0.22680132590E+01  0.15123295365E+00 -0.44879618195E+02  0.44955086307E+02  0.12700000000E+01 0.  1.
         -4    1    1    2    0  501  0.22680132590E+01 -0.15123295365E+00 -0.94338504829E+01  0.97865821656E+01  0.12700000000E+01 0. -1.
<mgrwt>
<rscale>  0 0.26037772E+01</rscale>
<asrwt>0</asrwt>
<pdfrwt beam="1">0</pdfrwt>
<pdfrwt beam="2">0</pdfrwt>
<totfact> 0.10642077E+12</totfact>
</mgrwt>
</event>
<event>
 4    1  0.3102735E+006  0.2886609E+01  0.7546771E-02  0.2559274E+00
         22   -1    0    0    0    0  0.00000000000E+00  0.00000000000E+00  0.12172872589E+01  0.12172872589E+01  0.00000000000E+00 0.  1.
         22   -1    0    0    0    0 -0.00000000000E+00 -0.00000000000E+00 -0.72886074051E+01  0.72886074051E+01  0.00000000000E+00 0. -1.
          4    1    1    2  501    0 -0.20096010549E+01  0.16374107608E+01 -0.40847073994E+01  0.50017341931E+01  0.12700000000E+01 0. -1.
         -4    1    1    2    0  501  0.20096010549E+01 -0.16374107608E+01 -0.19866127468E+01  0.35041604709E+01  0.12700000000E+01 0.  1.
<mgrwt>
<rscale>  0 0.28866088E+01</rscale>
<asrwt>0</asrwt>
<pdfrwt beam="1">0</pdfrwt>
<pdfrwt beam="2">0</pdfrwt>
<totfact> 0.18545488E+12</totfact>
</mgrwt>
</event>
<event>
 4    1  0.3102735E+006  0.2833079E+01  0.7546771E-02  0.2577714E+00
         22   -1    0    0    0    0  0.00000000000E+00  0.00000000000E+00  0.22009495345E+01  0.22009495345E+01  0.00000000000E+00 0.  1.
         22   -1    0    0    0    0 -0.00000000000E+00 -0.00000000000E+00 -0.45199742079E+01  0.45199742079E+01  0.00000000000E+00 0.  1.
          4    1    1    2  501    0  0.12798291562E+01 -0.21852863388E+01 -0.26365477282E+01  0.38701063260E+01  0.12700000000E+01 0.  1.
         -4    1    1    2    0  501 -0.12798291562E+01  0.21852863388E+01  0.31752305483E+00  0.28508174164E+01  0.12700000000E+01 0.  1.
<mgrwt>
<rscale>  0 0.28330794E+01</rscale>
<asrwt>0</asrwt>
<pdfrwt beam="1">0</pdfrwt>
<pdfrwt beam="2">0</pdfrwt>
<totfact> 0.16536542E+12</totfact>
</mgrwt>
</event>
<event>
 4    1  0.3102735E+006  0.2044464E+01  0.7546771E-02  0.2951344E+00
         22   -1    0    0    0    0  0.00000000000E+00  0.00000000000E+00  0.31782303171E+00  0.31782303171E+00  0.00000000000E+00 0.  1.
         22   -1    0    0    0    0 -0.00000000000E+00 -0.00000000000E+00 -0.14250579844E+02  0.14250579844E+02  0.00000000000E+00 0.  1.
          4    1    1    2  501    0 -0.60681190586E+00  0.14828058500E+01 -0.89893513552E+01  0.92189083771E+01  0.12700000000E+01 0.  1.
         -4    1    1    2    0  501  0.60681190586E+00 -0.14828058500E+01 -0.49434054573E+01  0.53494944988E+01  0.12700000000E+01 0.  1.
<mgrwt>
<rscale>  0 0.20444642E+01</rscale>
<asrwt>0</asrwt>
<pdfrwt beam="1">0</pdfrwt>
<pdfrwt beam="2">0</pdfrwt>
<totfact> 0.37689658E+12</totfact>
</mgrwt>
</event>
<event>
 4    1  0.3102735E+006  0.2859722E+01  0.7546771E-02  0.2568458E+00
         22   -1    0    0    0    0  0.00000000000E+00  0.00000000000E+00  0.63888831709E+00  0.63888831709E+00  0.00000000000E+00 0. -1.
         22   -1    0    0    0    0 -0.00000000000E+00 -0.00000000000E+00 -0.14733802533E+02  0.14733802533E+02  0.00000000000E+00 0.  1.
          4    1    1    2  501    0 -0.23943204008E+01 -0.91232799888E+00 -0.98318209296E+01  0.10239273185E+02  0.12700000000E+01 0. -1.
         -4    1    1    2    0  501  0.23943204008E+01  0.91232799888E+00 -0.42630932859E+01  0.51334176650E+01  0.12700000000E+01 0.  1.
<mgrwt>
<rscale>  0 0.28597225E+01</rscale>
<asrwt>0</asrwt>
<pdfrwt beam="1">0</pdfrwt>
<pdfrwt beam="2">0</pdfrwt>
<totfact> 0.16463984E+12</totfact>
</mgrwt>
</event>
<event>
 4    1  0.3102735E+006  0.2009516E+01  0.7546771E-02  0.2974333E+00
         22   -1    0    0    0    0  0.00000000000E+00  0.00000000000E+00  0.15420154556E+01  0.15420154556E+01  0.00000000000E+00 0. -1.
         22   -1    0    0    0    0 -0.00000000000E+00 -0.00000000000E+00 -0.38441612788E+01  0.38441612788E+01  0.00000000000E+00 0.  1.
          4    1    1    2  501    0  0.10940335176E+01 -0.11083069254E+01 -0.26715877799E+01  0.33429829261E+01  0.12700000000E+01 0.  1.
         -4    1    1    2    0  501 -0.10940335176E+01  0.11083069254E+01  0.36944195674E+00  0.20431938082E+01  0.12700000000E+01 0. -1.
<mgrwt>
<rscale>  0 0.20095158E+01</rscale>
<asrwt>0</asrwt>
<pdfrwt beam="1">0</pdfrwt>
<pdfrwt beam="2">0</pdfrwt>
<totfact> 0.30185754E+12</totfact>
</mgrwt>
</event>
<event>
 4    1  0.3102735E+006  0.2318979E+01  0.7546771E-02  0.2794148E+00
         22   -1    0    0    0    0  0.00000000000E+00  0.00000000000E+00  0.37236778023E+01  0.37236778023E+01  0.00000000000E+00 0. -1.
         22   -1    0    0    0    0 -0.00000000000E+00 -0.00000000000E+00 -0.19967272427E+01  0.19967272427E+01  0.00000000000E+00 0.  1.
          4    1    1    2  501    0 -0.96973092702E+00 -0.16805904680E+01 -0.64112790125E+00  0.24059732704E+01  0.12700000000E+01 0.  1.
         -4    1    1    2    0  501  0.96973092702E+00  0.16805904680E+01  0.23680784608E+01  0.33144317746E+01  0.12700000000E+01 0. -1.
<mgrwt>
<rscale>  0 0.23189787E+01</rscale>
<asrwt>0</asrwt>
<pdfrwt beam="1">0</pdfrwt>
<pdfrwt beam="2">0</pdfrwt>
<totfact> 0.23256101E+12</totfact>
</mgrwt>
</event>
<event>
 4    1  0.3102735E+006  0.2454118E+01  0.7546771E-02  0.2729110E+00
         22   -1    0    0    0    0  0.00000000000E+00  0.00000000000E+00  0.22893641598E+01  0.22893641598E+01  0.00000000000E+00 0. -1.
         22   -1    0    0    0    0 -0.00000000000E+00 -0.00000000000E+00 -0.52001442254E+01  0.52001442254E+01  0.00000000000E+00 0.  1.
          4    1    1    2  501    0 -0.20990863772E+01 -0.60262421546E-01 -0.40876745150E+01  0.47677854523E+01  0.12700000000E+01 0.  1.
         -4    1    1    2    0  501  0.20990863772E+01  0.60262421546E-01  0.11768944494E+01  0.27217229329E+01  0.12700000000E+01 0. -1.
<mgrwt>
<rscale>  0 0.24541180E+01</rscale>
<asrwt>0</asrwt>
<pdfrwt beam="1">0</pdfrwt>
<pdfrwt beam="2">0</pdfrwt>
<totfact> 0.13383480E+12</totfact>
</mgrwt>
</event>
<event>
 4    1  0.3102735E+006  0.2003037E+01  0.7546771E-02  0.2978681E+00
         22   -1    0    0    0    0  0.00000000000E+00  0.00000000000E+00  0.10613373252E+01  0.10613373252E+01  0.00000000000E+00 0. -1.
         22   -1    0    0    0    0 -0.00000000000E+00 -0.00000000000E+00 -0.37831169588E+01  0.37831169588E+01  0.00000000000E+00 0. -1.
          4    1    1    2  501    0 -0.78417180673E+00  0.13357885473E+01 -0.12946051222E+01  0.23849861400E+01  0.12700000000E+01 0. -1.
         -4    1    1    2    0  501  0.78417180673E+00 -0.13357885473E+01 -0.14271745114E+01  0.24594681440E+01  0.12700000000E+01 0. -1.
<mgrwt>
<rscale>  0 0.20030368E+01</rscale>
<asrwt>0</asrwt>
<pdfrwt beam="1">0</pdfrwt>
<pdfrwt beam="2">0</pdfrwt>
<totfact> 0.47214869E+12</totfact>
</mgrwt>
</event>
<event>
 4    1  0.3102735E+006  0.3291571E+01  0.7546771E-02  0.2437365E+00
         22   -1    0    0    0    0  0.00000000000E+00  0.00000000000E+00  0.43017711637E+01  0.43017711637E+01  0.00000000000E+00 0. -1.
         22   -1    0    0    0    0 -0.00000000000E+00 -0.00000000000E+00 -0.88426062929E+01  0.88426062929E+01  0.00000000000E+00 0.  1.
          4    1    1    2  501    0  0.16832730185E+01 -0.25274748988E+01 -0.78283857421E+01  0.84922353209E+01  0.12700000000E+01 0.  1.
         -4    1    1    2    0  501 -0.16832730185E+01  0.25274748988E+01  0.32875506128E+01  0.46521421357E+01  0.12700000000E+01 0. -1.
<mgrwt>
<rscale>  0 0.32915707E+01</rscale>
<asrwt>0</asrwt>
<pdfrwt beam="1">0</pdfrwt>
<pdfrwt beam="2">0</pdfrwt>
<totfact> 0.33933790E+11</totfact>
</mgrwt>
</event>
<event>
 4    1  0.3102735E+006  0.2607115E+01  0.7546771E-02  0.2663111E+00
         22   -1    0    0    0    0  0.00000000000E+00  0.00000000000E+00  0.61770061746E+01  0.61770061746E+01  0.00000000000E+00 0. -1.
         22   -1    0    0    0    0 -0.00000000000E+00 -0.00000000000E+00 -0.33463628760E+01  0.33463628760E+01  0.00000000000E+00 0.  1.
          4    1    1    2  501    0 -0.20526239530E+01 -0.98533357000E+00 -0.24856916197E+01  0.36021813065E+01  0.12700000000E+01 0.  1.
         -4    1    1    2    0  501  0.20526239530E+01  0.98533357000E+00  0.53163349183E+01  0.59211877441E+01  0.12700000000E+01 0. -1.
<mgrwt>
<rscale>  0 0.26071148E+01</rscale>
<asrwt>0</asrwt>
<pdfrwt beam="1">0</pdfrwt>
<pdfrwt beam="2">0</pdfrwt>
<totfact> 0.70065593E+11</totfact>
</mgrwt>
</event>
<event>
 4    1  0.3102735E+006  0.2067247E+01  0.7546771E-02  0.2936766E+00
         22   -1    0    0    0    0  0.00000000000E+00  0.00000000000E+00  0.34301362271E+00  0.34301362271E+00  0.00000000000E+00 0. -1.
         22   -1    0    0    0    0 -0.00000000000E+00 -0.00000000000E+00 -0.19638596581E+02  0.19638596581E+02  0.00000000000E+00 0. -1.
          4    1    1    2  501    0 -0.49234105588E+00  0.15550595721E+01 -0.15688721616E+02  0.15824332401E+02  0.12700000000E+01 0. -1.
         -4    1    1    2    0  501  0.49234105588E+00 -0.15550595721E+01 -0.36068613426E+01  0.41572778032E+01  0.12700000000E+01 0. -1.
<mgrwt>
<rscale>  0 0.20672470E+01</rscale>
<asrwt>0</asrwt>
<pdfrwt beam="1">0</pdfrwt>
<pdfrwt beam="2">0</pdfrwt>
<totfact> 0.23269847E+12</totfact>
</mgrwt>
</event>
<event>
 4    1  0.3102735E+006  0.2304692E+01  0.7546771E-02  0.2801444E+00
         22   -1    0    0    0    0  0.00000000000E+00  0.00000000000E+00  0.22117286041E+01  0.22117286041E+01  0.00000000000E+00 0.  1.
         22   -1    0    0    0    0 -0.00000000000E+00 -0.00000000000E+00 -0.24075924316E+01  0.24075924316E+01  0.00000000000E+00 0. -1.
          4    1    1    2  501    0  0.81101625135E-01  0.19214914349E+01  0.17646008377E-01  0.23047598985E+01  0.12700000000E+01 0.  1.
         -4    1    1    2    0  501 -0.81101625135E-01 -0.19214914349E+01 -0.21350983583E+00  0.23145611372E+01  0.12700000000E+01 0. -1.
<mgrwt>
<rscale>  0 0.23046923E+01</rscale>
<asrwt>0</asrwt>
<pdfrwt beam="1">0</pdfrwt>
<pdfrwt beam="2">0</pdfrwt>
<totfact> 0.34381260E+12</totfact>
</mgrwt>
</event>
<event>
 4    1  0.3102735E+006  0.2558987E+01  0.7546771E-02  0.2683082E+00
         22   -1    0    0    0    0  0.00000000000E+00  0.00000000000E+00  0.91186316737E+01  0.91186316737E+01  0.00000000000E+00 0.  1.
         22   -1    0    0    0    0 -0.00000000000E+00 -0.00000000000E+00 -0.79095206118E+00  0.79095206118E+00  0.00000000000E+00 0.  1.
          4    1    1    2  501    0  0.19193016731E+01  0.11188367942E+01  0.26604731804E+01  0.36914133104E+01  0.12700000000E+01 0.  1.
         -4    1    1    2    0  501 -0.19193016731E+01 -0.11188367942E+01  0.56672064320E+01  0.62181704244E+01  0.12700000000E+01 0.  1.
<mgrwt>
<rscale>  0 0.25589870E+01</rscale>
<asrwt>0</asrwt>
<pdfrwt beam="1">0</pdfrwt>
<pdfrwt beam="2">0</pdfrwt>
<totfact> 0.23175773E+12</totfact>
</mgrwt>
</event>
<event>
 4    1  0.3102735E+006  0.3084661E+01  0.7546771E-02  0.2496085E+00
         22   -1    0    0    0    0  0.00000000000E+00  0.00000000000E+00  0.31957974353E+01  0.31957974353E+01  0.00000000000E+00 0. -1.
         22   -1    0    0    0    0 -0.00000000000E+00 -0.00000000000E+00 -0.62930242920E+01  0.62930242920E+01  0.00000000000E+00 0.  1.
          4    1    1    2  501    0  0.20519579928E+01  0.19213808624E+01 -0.49923972753E+01  0.58684892926E+01  0.12700000000E+01 0.  1.
         -4    1    1    2    0  501 -0.20519579928E+01 -0.19213808624E+01  0.18951704186E+01  0.36203324347E+01  0.12700000000E+01 0. -1.
<mgrwt>
<rscale>  0 0.30846614E+01</rscale>
<asrwt>0</asrwt>
<pdfrwt beam="1">0</pdfrwt>
<pdfrwt beam="2">0</pdfrwt>
<totfact> 0.72324689E+11</totfact>
</mgrwt>
</event>
<event>
 4    1  0.3102735E+006  0.3401472E+01  0.7546771E-02  0.2408753E+00
         22   -1    0    0    0    0  0.00000000000E+00  0.00000000000E+00  0.50970677706E+01  0.50970677706E+01  0.00000000000E+00 0.  1.
         22   -1    0    0    0    0 -0.00000000000E+00 -0.00000000000E+00 -0.23682096642E+01  0.23682096642E+01  0.00000000000E+00 0. -1.
          4    1    1    2  501    0  0.26936524715E+01 -0.16435784510E+01  0.60405702483E+00  0.34546922658E+01  0.12700000000E+01 0. -1.
         -4    1    1    2    0  501 -0.26936524715E+01  0.16435784510E+01  0.21248010816E+01  0.40105851691E+01  0.12700000000E+01 0.  1.
<mgrwt>
<rscale>  0 0.34014723E+01</rscale>
<asrwt>0</asrwt>
<pdfrwt beam="1">0</pdfrwt>
<pdfrwt beam="2">0</pdfrwt>
<totfact> 0.13176748E+12</totfact>
</mgrwt>
</event>
<event>
 4    1  0.3102735E+006  0.2156270E+01  0.7546771E-02  0.2882674E+00
         22   -1    0    0    0    0  0.00000000000E+00  0.00000000000E+00  0.94786381077E+00  0.94786381077E+00  0.00000000000E+00 0.  1.
         22   -1    0    0    0    0 -0.00000000000E+00 -0.00000000000E+00 -0.49270847688E+01  0.49270847688E+01  0.00000000000E+00 0. -1.
          4    1    1    2  501    0  0.15490808454E+01 -0.79809038680E+00 -0.17940189046E+01  0.28049961785E+01  0.12700000000E+01 0.  1.
         -4    1    1    2    0  501 -0.15490808454E+01  0.79809038680E+00 -0.21852020534E+01  0.30699524011E+01  0.12700000000E+01 0. -1.
<mgrwt>
<rscale>  0 0.21562699E+01</rscale>
<asrwt>0</asrwt>
<pdfrwt beam="1">0</pdfrwt>
<pdfrwt beam="2">0</pdfrwt>
<totfact> 0.39344007E+12</totfact>
</mgrwt>
</event>
<event>
 4    1  0.3102735E+006  0.4722255E+01  0.7546771E-02  0.2157692E+00
         22   -1    0    0    0    0  0.00000000000E+00  0.00000000000E+00  0.29510281056E+01  0.29510281056E+01  0.00000000000E+00 0. -1.
         22   -1    0    0    0    0 -0.00000000000E+00 -0.00000000000E+00 -0.78379569059E+01  0.78379569059E+01  0.00000000000E+00 0.  1.
          4    1    1    2  501    0  0.42962563749E+01  0.14929758058E+01 -0.14213740342E+01  0.49315311761E+01  0.12700000000E+01 0. -1.
         -4    1    1    2    0  501 -0.42962563749E+01 -0.14929758058E+01 -0.34655547661E+01  0.58574538353E+01  0.12700000000E+01 0.  1.
<mgrwt>
<rscale>  0 0.47222554E+01</rscale>
<asrwt>0</asrwt>
<pdfrwt beam="1">0</pdfrwt>
<pdfrwt beam="2">0</pdfrwt>
<totfact> 0.61049130E+11</totfact>
</mgrwt>
</event>
<event>
 4    1  0.3102735E+006  0.5242096E+01  0.7546771E-02  0.2095169E+00
         22   -1    0    0    0    0  0.00000000000E+00  0.00000000000E+00  0.77452334407E+01  0.77452334407E+01  0.00000000000E+00 0. -1.
         22   -1    0    0    0    0 -0.00000000000E+00 -0.00000000000E+00 -0.66550581071E+01  0.66550581071E+01  0.00000000000E+00 0.  1.
          4    1    1    2  501    0 -0.49677852238E+01 -0.10898534540E+01 -0.43746814516E+01  0.68276942216E+01  0.12700000000E+01 0.  1.
         -4    1    1    2    0  501  0.49677852238E+01  0.10898534540E+01  0.54648567851E+01  0.75725973261E+01  0.12700000000E+01 0. -1.
<mgrwt>
<rscale>  0 0.52420960E+01</rscale>
<asrwt>0</asrwt>
<pdfrwt beam="1">0</pdfrwt>
<pdfrwt beam="2">0</pdfrwt>
<totfact> 0.23714739E+11</totfact>
</mgrwt>
</event>
<event>
 4    1  0.3102735E+006  0.5754120E+01  0.7546771E-02  0.2042466E+00
         22   -1    0    0    0    0  0.00000000000E+00  0.00000000000E+00  0.16514808317E+01  0.16514808317E+01  0.00000000000E+00 0.  1.
         22   -1    0    0    0    0 -0.00000000000E+00 -0.00000000000E+00 -0.29867003292E+02  0.29867003292E+02  0.00000000000E+00 0. -1.
          4    1    1    2  501    0 -0.55397418062E+01 -0.89902972840E+00 -0.23143418143E+02  0.23848012434E+02  0.12700000000E+01 0. -1.
         -4    1    1    2    0  501  0.55397418062E+01  0.89902972840E+00 -0.50721043175E+01  0.76704716895E+01  0.12700000000E+01 0.  1.
<mgrwt>
<rscale>  0 0.57541197E+01</rscale>
<asrwt>0</asrwt>
<pdfrwt beam="1">0</pdfrwt>
<pdfrwt beam="2">0</pdfrwt>
<totfact> 0.22985744E+11</totfact>
</mgrwt>
</event>
<event>
 4    1  0.3102735E+006  0.4187844E+01  0.7546771E-02  0.2242764E+00
         22   -1    0    0    0    0  0.00000000000E+00  0.00000000000E+00  0.70461106516E+01  0.70461106516E+01  0.00000000000E+00 0. -1.
         22   -1    0    0    0    0 -0.00000000000E+00 -0.00000000000E+00 -0.53415749475E+01  0.53415749475E+01  0.00000000000E+00 0.  1.
          4    1    1    2  501    0  0.39033218907E+01 -0.83018915976E+00 -0.36740095723E+01  0.55710306192E+01  0.12700000000E+01 0.  1.
         -4    1    1    2    0  501 -0.39033218907E+01  0.83018915976E+00  0.53785452764E+01  0.68166549798E+01  0.12700000000E+01 0. -1.
<mgrwt>
<rscale>  0 0.41878438E+01</rscale>
<asrwt>0</asrwt>
<pdfrwt beam="1">0</pdfrwt>
<pdfrwt beam="2">0</pdfrwt>
<totfact> 0.34505614E+11</totfact>
</mgrwt>
</event>
<event>
 4    1  0.3102735E+006  0.2279731E+01  0.7546771E-02  0.2814399E+00
         22   -1    0    0    0    0  0.00000000000E+00  0.00000000000E+00  0.16204787213E+02  0.16204787213E+02  0.00000000000E+00 0.  1.
         22   -1    0    0    0    0 -0.00000000000E+00 -0.00000000000E+00 -0.41445199801E+00  0.41445199801E+00  0.00000000000E+00 0. -1.
          4    1    1    2  501    0  0.15175697280E+01  0.11319257707E+01  0.39433980540E+01  0.45549491811E+01  0.12700000000E+01 0. -1.
         -4    1    1    2    0  501 -0.15175697280E+01 -0.11319257707E+01  0.11846937161E+02  0.12064290030E+02  0.12700000000E+01 0.  1.
<mgrwt>
<rscale>  0 0.22797311E+01</rscale>
<asrwt>0</asrwt>
<pdfrwt beam="1">0</pdfrwt>
<pdfrwt beam="2">0</pdfrwt>
<totfact> 0.23874181E+12</totfact>
</mgrwt>
</event>
<event>
 4    1  0.3102735E+006  0.2302397E+01  0.7546771E-02  0.2802624E+00
         22   -1    0    0    0    0  0.00000000000E+00  0.00000000000E+00  0.18258947606E+02  0.18258947606E+02  0.00000000000E+00 0. -1.
         22   -1    0    0    0    0 -0.00000000000E+00 -0.00000000000E+00 -0.29400259920E+00  0.29400259920E+00  0.00000000000E+00 0. -1.
          4    1    1    2  501    0 -0.13550812032E+01  0.13608399200E+01  0.79449796900E+01  0.82718639151E+01  0.12700000000E+01 0. -1.
         -4    1    1    2    0  501  0.13550812032E+01 -0.13608399200E+01  0.10019965317E+02  0.10281086290E+02  0.12700000000E+01 0. -1.
<mgrwt>
<rscale>  0 0.23023967E+01</rscale>
<asrwt>0</asrwt>
<pdfrwt beam="1">0</pdfrwt>
<pdfrwt beam="2">0</pdfrwt>
<totfact> 0.30289881E+12</totfact>
</mgrwt>
</event>
<event>
 4    1  0.3102735E+006  0.2080810E+01  0.7546771E-02  0.2928235E+00
         22   -1    0    0    0    0  0.00000000000E+00  0.00000000000E+00  0.83469279296E+01  0.83469279296E+01  0.00000000000E+00 0. -1.
         22   -1    0    0    0    0 -0.00000000000E+00 -0.00000000000E+00 -0.55821933328E+00  0.55821933328E+00  0.00000000000E+00 0.  1.
          4    1    1    2  501    0  0.59700611791E+00  0.15363769039E+01  0.27100333529E+01  0.34167310502E+01  0.12700000000E+01 0.  1.
         -4    1    1    2    0  501 -0.59700611791E+00 -0.15363769039E+01  0.50786752434E+01  0.54884162127E+01  0.12700000000E+01 0. -1.
<mgrwt>
<rscale>  0 0.20808100E+01</rscale>
<asrwt>0</asrwt>
<pdfrwt beam="1">0</pdfrwt>
<pdfrwt beam="2">0</pdfrwt>
<totfact> 0.38276627E+12</totfact>
</mgrwt>
</event>
<event>
 4    1  0.3102735E+006  0.2183846E+01  0.7546771E-02  0.2866783E+00
         22   -1    0    0    0    0  0.00000000000E+00  0.00000000000E+00  0.31037886209E+00  0.31037886209E+00  0.00000000000E+00 0.  1.
         22   -1    0    0    0    0 -0.00000000000E+00 -0.00000000000E+00 -0.23748690641E+02  0.23748690641E+02  0.00000000000E+00 0. -1.
          4    1    1    2  501    0  0.17742352880E+01  0.91491705994E-01 -0.18866242775E+02  0.18992216775E+02  0.12700000000E+01 0. -1.
         -4    1    1    2    0  501 -0.17742352880E+01 -0.91491705994E-01 -0.45720690033E+01  0.50668527273E+01  0.12700000000E+01 0.  1.
<mgrwt>
<rscale>  0 0.21838456E+01</rscale>
<asrwt>0</asrwt>
<pdfrwt beam="1">0</pdfrwt>
<pdfrwt beam="2">0</pdfrwt>
<totfact> 0.20522736E+12</totfact>
</mgrwt>
</event>
<event>
 4    1  0.3102735E+006  0.2295372E+01  0.7546771E-02  0.2806250E+00
         22   -1    0    0    0    0  0.00000000000E+00  0.00000000000E+00  0.11558240342E+01  0.11558240342E+01  0.00000000000E+00 0. -1.
         22   -1    0    0    0    0 -0.00000000000E+00 -0.00000000000E+00 -0.73125660123E+01  0.73125660123E+01  0.00000000000E+00 0.  1.
          4    1    1    2  501    0  0.17950606596E+01 -0.65847625948E+00 -0.56769102139E+01  0.61234012879E+01  0.12700000000E+01 0.  1.
         -4    1    1    2    0  501 -0.17950606596E+01  0.65847625948E+00 -0.47983176421E+00  0.23449887586E+01  0.12700000000E+01 0. -1.
<mgrwt>
<rscale>  0 0.22953722E+01</rscale>
<asrwt>0</asrwt>
<pdfrwt beam="1">0</pdfrwt>
<pdfrwt beam="2">0</pdfrwt>
<totfact> 0.19601445E+12</totfact>
</mgrwt>
</event>
<event>
 4    1  0.3102735E+006  0.2232512E+01  0.7546771E-02  0.2839659E+00
         22   -1    0    0    0    0  0.00000000000E+00  0.00000000000E+00  0.16793799165E+01  0.16793799165E+01  0.00000000000E+00 0. -1.
         22   -1    0    0    0    0 -0.00000000000E+00 -0.00000000000E+00 -0.32921011970E+01  0.32921011970E+01  0.00000000000E+00 0. -1.
          4    1    1    2  501    0 -0.17792255561E+01  0.45339653643E+00 -0.26217607847E-01  0.22326664242E+01  0.12700000000E+01 0. -1.
         -4    1    1    2    0  501  0.17792255561E+01 -0.45339653643E+00 -0.15865036726E+01  0.27388146893E+01  0.12700000000E+01 0. -1.
<mgrwt>
<rscale>  0 0.22325125E+01</rscale>
<asrwt>0</asrwt>
<pdfrwt beam="1">0</pdfrwt>
<pdfrwt beam="2">0</pdfrwt>
<totfact> 0.32818055E+12</totfact>
</mgrwt>
</event>
<event>
 4    1  0.3102735E+006  0.2240057E+01  0.7546771E-02  0.2835555E+00
         22   -1    0    0    0    0  0.00000000000E+00  0.00000000000E+00  0.30753467815E+00  0.30753467815E+00  0.00000000000E+00 0.  1.
         22   -1    0    0    0    0 -0.00000000000E+00 -0.00000000000E+00 -0.16860980958E+02  0.16860980958E+02  0.00000000000E+00 0. -1.
          4    1    1    2  501    0  0.12979942127E+01  0.13115509182E+01 -0.67339651949E+01  0.70967698309E+01  0.12700000000E+01 0. -1.
         -4    1    1    2    0  501 -0.12979942127E+01 -0.13115509182E+01 -0.98194810855E+01  0.10071745806E+02  0.12700000000E+01 0.  1.
<mgrwt>
<rscale>  0 0.22400569E+01</rscale>
<asrwt>0</asrwt>
<pdfrwt beam="1">0</pdfrwt>
<pdfrwt beam="2">0</pdfrwt>
<totfact> 0.31787007E+12</totfact>
</mgrwt>
</event>
<event>
 4    1  0.3102735E+006  0.2632623E+01  0.7546771E-02  0.2652799E+00
         22   -1    0    0    0    0  0.00000000000E+00  0.00000000000E+00  0.94910743342E+01  0.94910743342E+01  0.00000000000E+00 0.  1.
         22   -1    0    0    0    0 -0.00000000000E+00 -0.00000000000E+00 -0.76976915151E+00  0.76976915151E+00  0.00000000000E+00 0. -1.
          4    1    1    2  501    0 -0.35382018096E+00  0.22787312425E+01  0.31979604436E+01  0.41421800776E+01  0.12700000000E+01 0. -1.
         -4    1    1    2    0  501  0.35382018096E+00 -0.22787312425E+01  0.55233447390E+01  0.61186634081E+01  0.12700000000E+01 0.  1.
<mgrwt>
<rscale>  0 0.26326232E+01</rscale>
<asrwt>0</asrwt>
<pdfrwt beam="1">0</pdfrwt>
<pdfrwt beam="2">0</pdfrwt>
<totfact> 0.22774310E+12</totfact>
</mgrwt>
</event>
<event>
 4    1  0.3102735E+006  0.2600046E+01  0.7546771E-02  0.2666001E+00
         22   -1    0    0    0    0  0.00000000000E+00  0.00000000000E+00  0.30601204997E+01  0.30601204997E+01  0.00000000000E+00 0.  1.
         22   -1    0    0    0    0 -0.00000000000E+00 -0.00000000000E+00 -0.68003341708E+01  0.68003341708E+01  0.00000000000E+00 0. -1.
          4    1    1    2  501    0 -0.19092640620E+01  0.12255819456E+01 -0.59211284376E+01  0.64668386665E+01  0.12700000000E+01 0. -1.
         -4    1    1    2    0  501  0.19092640620E+01 -0.12255819456E+01  0.21809147665E+01  0.33936160040E+01  0.12700000000E+01 0.  1.
<mgrwt>
<rscale>  0 0.26000462E+01</rscale>
<asrwt>0</asrwt>
<pdfrwt beam="1">0</pdfrwt>
<pdfrwt beam="2">0</pdfrwt>
<totfact> 0.69362140E+11</totfact>
</mgrwt>
</event>
<event>
 4    1  0.3102735E+006  0.2579032E+01  0.7546771E-02  0.2674681E+00
         22   -1    0    0    0    0  0.00000000000E+00  0.00000000000E+00  0.24921634082E+01  0.24921634082E+01  0.00000000000E+00 0.  1.
         22   -1    0    0    0    0 -0.00000000000E+00 -0.00000000000E+00 -0.26727244986E+01  0.26727244986E+01  0.00000000000E+00 0. -1.
          4    1    1    2  501    0 -0.19879054948E+01  0.10424670896E+01 -0.18760414298E+00  0.25858463225E+01  0.12700000000E+01 0. -1.
         -4    1    1    2    0  501  0.19879054948E+01 -0.10424670896E+01  0.70430525550E-02  0.25790415843E+01  0.12700000000E+01 0.  1.
<mgrwt>
<rscale>  0 0.25790320E+01</rscale>
<asrwt>0</asrwt>
<pdfrwt beam="1">0</pdfrwt>
<pdfrwt beam="2">0</pdfrwt>
<totfact> 0.26504550E+12</totfact>
</mgrwt>
</event>
<event>
 4    1  0.3102735E+006  0.2301712E+01  0.7546771E-02  0.2802977E+00
         22   -1    0    0    0    0  0.00000000000E+00  0.00000000000E+00  0.32600940005E+01  0.32600940005E+01  0.00000000000E+00 0.  1.
         22   -1    0    0    0    0 -0.00000000000E+00 -0.00000000000E+00 -0.18007569275E+01  0.18007569275E+01  0.00000000000E+00 0. -1.
          4    1    1    2  501    0 -0.91849670566E+00  0.16856282531E+01 -0.60712554639E-01  0.23025127188E+01  0.12700000000E+01 0. -1.
         -4    1    1    2    0  501  0.91849670566E+00 -0.16856282531E+01  0.15200496277E+01  0.27583382092E+01  0.12700000000E+01 0.  1.
<mgrwt>
<rscale>  0 0.23017121E+01</rscale>
<asrwt>0</asrwt>
<pdfrwt beam="1">0</pdfrwt>
<pdfrwt beam="2">0</pdfrwt>
<totfact> 0.30627377E+12</totfact>
</mgrwt>
</event>
<event>
 4    1  0.3102735E+006  0.2292344E+01  0.7546771E-02  0.2807819E+00
         22   -1    0    0    0    0  0.00000000000E+00  0.00000000000E+00  0.36589956288E+00  0.36589956288E+00  0.00000000000E+00 0. -1.
         22   -1    0    0    0    0 -0.00000000000E+00 -0.00000000000E+00 -0.14361491725E+02  0.14361491725E+02  0.00000000000E+00 0. -1.
          4    1    1    2  501    0 -0.18152941164E+01  0.58876882605E+00 -0.69827000400E+01  0.73493497201E+01  0.12700000000E+01 0. -1.
         -4    1    1    2    0  501  0.18152941164E+01 -0.58876882605E+00 -0.70128921219E+01  0.73780415676E+01  0.12700000000E+01 0. -1.
<mgrwt>
<rscale>  0 0.22923441E+01</rscale>
<asrwt>0</asrwt>
<pdfrwt beam="1">0</pdfrwt>
<pdfrwt beam="2">0</pdfrwt>
<totfact> 0.31871510E+12</totfact>
</mgrwt>
</event>
<event>
 4    1  0.3102735E+006  0.3399532E+01  0.7546771E-02  0.2409244E+00
         22   -1    0    0    0    0  0.00000000000E+00  0.00000000000E+00  0.97130558975E+00  0.97130558975E+00  0.00000000000E+00 0.  1.
         22   -1    0    0    0    0 -0.00000000000E+00 -0.00000000000E+00 -0.12111413112E+02  0.12111413112E+02  0.00000000000E+00 0. -1.
          4    1    1    2  501    0 -0.11891148887E+01  0.29206030707E+01 -0.64379100779E+01  0.72803504508E+01  0.12700000000E+01 0.  1.
         -4    1    1    2    0  501  0.11891148887E+01 -0.29206030707E+01 -0.47021974446E+01  0.58023682512E+01  0.12700000000E+01 0. -1.
<mgrwt>
<rscale>  0 0.33995318E+01</rscale>
<asrwt>0</asrwt>
<pdfrwt beam="1">0</pdfrwt>
<pdfrwt beam="2">0</pdfrwt>
<totfact> 0.12997569E+12</totfact>
</mgrwt>
</event>
<event>
 4    1  0.3102735E+006  0.2003365E+01  0.7546771E-02  0.2978461E+00
         22   -1    0    0    0    0  0.00000000000E+00  0.00000000000E+00  0.13995044357E+00  0.13995044357E+00  0.00000000000E+00 0. -1.
         22   -1    0    0    0    0 -0.00000000000E+00 -0.00000000000E+00 -0.36116777205E+02  0.36116777205E+02  0.00000000000E+00 0.  1.
          4    1    1    2  501    0  0.10158119011E+01 -0.11699132790E+01 -0.26215777403E+02  0.26292212835E+02  0.12700000000E+01 0.  1.
         -4    1    1    2    0  501 -0.10158119011E+01  0.11699132790E+01 -0.97610493581E+01  0.99645148136E+01  0.12700000000E+01 0.  1.
<mgrwt>
<rscale>  0 0.20033649E+01</rscale>
<asrwt>0</asrwt>
<pdfrwt beam="1">0</pdfrwt>
<pdfrwt beam="2">0</pdfrwt>
<totfact> 0.29279238E+12</totfact>
</mgrwt>
</event>
<event>
 4    1  0.3102735E+006  0.2515643E+01  0.7546771E-02  0.2701674E+00
         22   -1    0    0    0    0  0.00000000000E+00  0.00000000000E+00  0.13170652167E+00  0.13170652167E+00  0.00000000000E+00 0. -1.
         22   -1    0    0    0    0 -0.00000000000E+00 -0.00000000000E+00 -0.55614821865E+02  0.55614821865E+02  0.00000000000E+00 0.  1.
          4    1    1    2  501    0  0.76964011136E+00  0.20305694081E+01 -0.17461378084E+02  0.17641660427E+02  0.12700000000E+01 0. -1.
         -4    1    1    2    0  501 -0.76964011136E+00 -0.20305694081E+01 -0.38021737260E+02  0.38104867960E+02  0.12700000000E+01 0.  1.
<mgrwt>
<rscale>  0 0.25156427E+01</rscale>
<asrwt>0</asrwt>
<pdfrwt beam="1">0</pdfrwt>
<pdfrwt beam="2">0</pdfrwt>
<totfact> 0.17805076E+12</totfact>
</mgrwt>
</event>
<event>
 4    1  0.3102735E+006  0.2911813E+01  0.7546771E-02  0.2550804E+00
         22   -1    0    0    0    0  0.00000000000E+00  0.00000000000E+00  0.49350870399E+00  0.49350870399E+00  0.00000000000E+00 0. -1.
         22   -1    0    0    0    0 -0.00000000000E+00 -0.00000000000E+00 -0.20578443661E+02  0.20578443661E+02  0.00000000000E+00 0. -1.
          4    1    1    2  501    0 -0.24359916125E+01 -0.96524560285E+00 -0.14323868788E+02  0.14616835200E+02  0.12700000000E+01 0. -1.
         -4    1    1    2    0  501  0.24359916125E+01  0.96524560285E+00 -0.57610661695E+01  0.64551171654E+01  0.12700000000E+01 0. -1.
<mgrwt>
<rscale>  0 0.29118129E+01</rscale>
<asrwt>0</asrwt>
<pdfrwt beam="1">0</pdfrwt>
<pdfrwt beam="2">0</pdfrwt>
<totfact> 0.14575112E+12</totfact>
</mgrwt>
</event>
<event>
 4    1  0.3102735E+006  0.4021364E+01  0.7546771E-02  0.2273229E+00
         22   -1    0    0    0    0  0.00000000000E+00  0.00000000000E+00  0.10237647687E+03  0.10237647687E+03  0.00000000000E+00 0.  1.
         22   -1    0    0    0    0 -0.00000000000E+00 -0.00000000000E+00 -0.40402206635E+00  0.40402206635E+00  0.00000000000E+00 0. -1.
          4    1    1    2  501    0 -0.18387331766E+01  0.33432812361E+01  0.10881027833E+02  0.11600350677E+02  0.12700000000E+01 0. -1.
         -4    1    1    2    0  501  0.18387331766E+01 -0.33432812361E+01  0.91091426974E+02  0.91180148263E+02  0.12700000000E+01 0.  1.
<mgrwt>
<rscale>  0 0.40213641E+01</rscale>
<asrwt>0</asrwt>
<pdfrwt beam="1">0</pdfrwt>
<pdfrwt beam="2">0</pdfrwt>
<totfact> 0.22078584E+11</totfact>
</mgrwt>
</event>
<event>
 4    1  0.3102735E+006  0.3245427E+01  0.7546771E-02  0.2449885E+00
         22   -1    0    0    0    0  0.00000000000E+00  0.00000000000E+00  0.24341230754E+01  0.24341230754E+01  0.00000000000E+00 0.  1.
         22   -1    0    0    0    0 -0.00000000000E+00 -0.00000000000E+00 -0.69625073447E+01  0.69625073447E+01  0.00000000000E+00 0. -1.
          4    1    1    2  501    0  0.17265746896E+01 -0.24369722584E+01 -0.51547376242E+01  0.60913146300E+01  0.12700000000E+01 0. -1.
         -4    1    1    2    0  501 -0.17265746896E+01  0.24369722584E+01  0.62635335490E+00  0.33053157901E+01  0.12700000000E+01 0.  1.
<mgrwt>
<rscale>  0 0.32454266E+01</rscale>
<asrwt>0</asrwt>
<pdfrwt beam="1">0</pdfrwt>
<pdfrwt beam="2">0</pdfrwt>
<totfact> 0.88053750E+11</totfact>
</mgrwt>
</event>
<event>
 4    1  0.3102735E+006  0.2997936E+01  0.7546771E-02  0.2522833E+00
         22   -1    0    0    0    0  0.00000000000E+00  0.00000000000E+00  0.15651745213E+03  0.15651745213E+03  0.00000000000E+00 0. -1.
         22   -1    0    0    0    0 -0.00000000000E+00 -0.00000000000E+00 -0.61975283934E-01  0.61975283934E-01  0.00000000000E+00 0. -1.
          4    1    1    2  501    0  0.18563443164E+01  0.19820969000E+01  0.57008280588E+02  0.57087053506E+02  0.12700000000E+01 0. -1.
         -4    1    1    2    0  501 -0.18563443164E+01 -0.19820969000E+01  0.99447196262E+02  0.99492373912E+02  0.12700000000E+01 0. -1.
<mgrwt>
<rscale>  0 0.29979363E+01</rscale>
<asrwt>0</asrwt>
<pdfrwt beam="1">0</pdfrwt>
<pdfrwt beam="2">0</pdfrwt>
<totfact> 0.96073618E+11</totfact>
</mgrwt>
</event>
<event>
 4    1  0.3102735E+006  0.2288990E+01  0.7546771E-02  0.2809562E+00
         22   -1    0    0    0    0  0.00000000000E+00  0.00000000000E+00  0.13084316131E+02  0.13084316131E+02  0.00000000000E+00 0.  1.
         22   -1    0    0    0    0 -0.00000000000E+00 -0.00000000000E+00 -0.40346485094E+00  0.40346485094E+00  0.00000000000E+00 0.  1.
          4    1    1    2  501    0  0.14193288343E+01 -0.12696783171E+01  0.57564515671E+01  0.61948536716E+01  0.12700000000E+01 0.  1.
         -4    1    1    2    0  501 -0.14193288343E+01  0.12696783171E+01  0.69243997133E+01  0.72929273107E+01  0.12700000000E+01 0.  1.
<mgrwt>
<rscale>  0 0.22889905E+01</rscale>
<asrwt>0</asrwt>
<pdfrwt beam="1">0</pdfrwt>
<pdfrwt beam="2">0</pdfrwt>
<totfact> 0.32006693E+12</totfact>
</mgrwt>
</event>
<event>
 4    1  0.3102735E+006  0.2789100E+01  0.7546771E-02  0.2593343E+00
         22   -1    0    0    0    0  0.00000000000E+00  0.00000000000E+00  0.40110047617E+01  0.40110047617E+01  0.00000000000E+00 0.  1.
         22   -1    0    0    0    0 -0.00000000000E+00 -0.00000000000E+00 -0.23455041761E+01  0.23455041761E+01  0.00000000000E+00 0. -1.
          4    1    1    2  501    0  0.23586197385E+01 -0.77658969422E+00 -0.48967503757E+00  0.28317592176E+01  0.12700000000E+01 0.  1.
         -4    1    1    2    0  501 -0.23586197385E+01  0.77658969422E+00  0.21551756232E+01  0.35247497203E+01  0.12700000000E+01 0. -1.
<mgrwt>
<rscale>  0 0.27891000E+01</rscale>
<asrwt>0</asrwt>
<pdfrwt beam="1">0</pdfrwt>
<pdfrwt beam="2">0</pdfrwt>
<totfact> 0.17682124E+12</totfact>
</mgrwt>
</event>
<event>
 4    1  0.3102735E+006  0.2578284E+01  0.7546771E-02  0.2674992E+00
         22   -1    0    0    0    0  0.00000000000E+00  0.00000000000E+00  0.26377126166E+02  0.26377126166E+02  0.00000000000E+00 0.  1.
         22   -1    0    0    0    0 -0.00000000000E+00 -0.00000000000E+00 -0.20480122544E+01  0.20480122544E+01  0.00000000000E+00 0.  1.
          4    1    1    2  501    0  0.15865754071E+01  0.15866409122E+01 -0.11448469124E+01  0.28210326761E+01  0.12700000000E+01 0.  1.
         -4    1    1    2    0  501 -0.15865754071E+01 -0.15866409122E+01  0.25473960824E+02  0.25604105744E+02  0.12700000000E+01 0.  1.
<mgrwt>
<rscale>  0 0.25782845E+01</rscale>
<asrwt>0</asrwt>
<pdfrwt beam="1">0</pdfrwt>
<pdfrwt beam="2">0</pdfrwt>
<totfact> 0.20987980E+11</totfact>
</mgrwt>
</event>
<event>
 4    1  0.3102735E+006  0.3130601E+01  0.7546771E-02  0.2482453E+00
         22   -1    0    0    0    0  0.00000000000E+00  0.00000000000E+00  0.77659395763E+00  0.77659395763E+00  0.00000000000E+00 0.  1.
         22   -1    0    0    0    0 -0.00000000000E+00 -0.00000000000E+00 -0.12808263908E+02  0.12808263908E+02  0.00000000000E+00 0. -1.
          4    1    1    2  501    0 -0.58991484111E+00  0.27999574017E+01 -0.51924625415E+01  0.60631945554E+01  0.12700000000E+01 0. -1.
         -4    1    1    2    0  501  0.58991484111E+00 -0.27999574017E+01 -0.68392074088E+01  0.75216633102E+01  0.12700000000E+01 0.  1.
<mgrwt>
<rscale>  0 0.31306007E+01</rscale>
<asrwt>0</asrwt>
<pdfrwt beam="1">0</pdfrwt>
<pdfrwt beam="2">0</pdfrwt>
<totfact> 0.15663114E+12</totfact>
</mgrwt>
</event>
<event>
 4    1  0.3102735E+006  0.7645714E+01  0.7546771E-02  0.1897443E+00
         22   -1    0    0    0    0  0.00000000000E+00  0.00000000000E+00  0.68354900354E+02  0.68354900354E+02  0.00000000000E+00 0. -1.
         22   -1    0    0    0    0 -0.00000000000E+00 -0.00000000000E+00 -0.85799695967E+00  0.85799695967E+00  0.00000000000E+00 0.  1.
          4    1    1    2  501    0  0.75138999160E+01  0.62076579612E+00  0.31771715374E+02  0.32678721516E+02  0.12700000000E+01 0.  1.
         -4    1    1    2    0  501 -0.75138999160E+01 -0.62076579612E+00  0.35725188020E+02  0.36534175798E+02  0.12700000000E+01 0. -1.
<mgrwt>
<rscale>  0 0.76457140E+01</rscale>
<asrwt>0</asrwt>
<pdfrwt beam="1">0</pdfrwt>
<pdfrwt beam="2">0</pdfrwt>
<totfact> 0.16443704E+11</totfact>
</mgrwt>
</event>
<event>
 4    1  0.3102735E+006  0.2023649E+01  0.7546771E-02  0.2964943E+00
         22   -1    0    0    0    0  0.00000000000E+00  0.00000000000E+00  0.30508626769E+01  0.30508626769E+01  0.00000000000E+00 0.  1.
         22   -1    0    0    0    0 -0.00000000000E+00 -0.00000000000E+00 -0.27849130554E+01  0.27849130554E+01  0.00000000000E+00 0.  1.
          4    1    1    2  501    0 -0.12491962879E+01  0.96008495358E+00 -0.19671186309E+01  0.28221818141E+01  0.12700000000E+01 0.  1.
         -4    1    1    2    0  501  0.12491962879E+01 -0.96008495358E+00  0.22330682524E+01  0.30135939182E+01  0.12700000000E+01 0.  1.
<mgrwt>
<rscale>  0 0.20236488E+01</rscale>
<asrwt>0</asrwt>
<pdfrwt beam="1">0</pdfrwt>
<pdfrwt beam="2">0</pdfrwt>
<totfact> 0.19954934E+12</totfact>
</mgrwt>
</event>
<event>
 4    1  0.3102735E+006  0.2242938E+01  0.7546771E-02  0.2833994E+00
         22   -1    0    0    0    0  0.00000000000E+00  0.00000000000E+00  0.71238143536E+02  0.71238143536E+02  0.00000000000E+00 0. -1.
         22   -1    0    0    0    0 -0.00000000000E+00 -0.00000000000E+00 -0.26350627231E+00  0.26350627231E+00  0.00000000000E+00 0. -1.
          4    1    1    2  501    0  0.15379399219E+01  0.10259679072E+01  0.48999351137E+01  0.53888898179E+01  0.12700000000E+01 0. -1.
         -4    1    1    2    0  501 -0.15379399219E+01 -0.10259679072E+01  0.66074702150E+02  0.66112759990E+02  0.12700000000E+01 0. -1.
<mgrwt>
<rscale>  0 0.22429377E+01</rscale>
<asrwt>0</asrwt>
<pdfrwt beam="1">0</pdfrwt>
<pdfrwt beam="2">0</pdfrwt>
<totfact> 0.58922242E+11</totfact>
</mgrwt>
</event>
<event>
 4    1  0.3102735E+006  0.2160924E+01  0.7546771E-02  0.2879965E+00
         22   -1    0    0    0    0  0.00000000000E+00  0.00000000000E+00  0.26473459708E+00  0.26473459708E+00  0.00000000000E+00 0.  1.
         22   -1    0    0    0    0 -0.00000000000E+00 -0.00000000000E+00 -0.72171215421E+02  0.72171215421E+02  0.00000000000E+00 0. -1.
          4    1    1    2  501    0 -0.17129859257E+01 -0.34981953787E+00 -0.67435769579E+02  0.67470383230E+02  0.12700000000E+01 0. -1.
         -4    1    1    2    0  501  0.17129859257E+01  0.34981953787E+00 -0.44707112443E+01  0.49655667875E+01  0.12700000000E+01 0.  1.
<mgrwt>
<rscale>  0 0.21609245E+01</rscale>
<asrwt>0</asrwt>
<pdfrwt beam="1">0</pdfrwt>
<pdfrwt beam="2">0</pdfrwt>
<totfact> 0.57586656E+11</totfact>
</mgrwt>
</event>
<event>
 4    1  0.3102735E+006  0.2349698E+01  0.7546771E-02  0.2778746E+00
         22   -1    0    0    0    0  0.00000000000E+00  0.00000000000E+00  0.63599807090E+00  0.63599807090E+00  0.00000000000E+00 0. -1.
         22   -1    0    0    0    0 -0.00000000000E+00 -0.00000000000E+00 -0.15631248447E+02  0.15631248447E+02  0.00000000000E+00 0.  1.
          4    1    1    2  501    0 -0.19311008921E+01 -0.42312165036E+00 -0.12921232067E+02  0.13133138266E+02  0.12700000000E+01 0.  1.
         -4    1    1    2    0  501  0.19311008921E+01  0.42312165036E+00 -0.20740183085E+01  0.31341082512E+01  0.12700000000E+01 0. -1.
<mgrwt>
<rscale>  0 0.23496984E+01</rscale>
<asrwt>0</asrwt>
<pdfrwt beam="1">0</pdfrwt>
<pdfrwt beam="2">0</pdfrwt>
<totfact> 0.15386323E+12</totfact>
</mgrwt>
</event>
<event>
 4    1  0.3102735E+006  0.2188865E+01  0.7546771E-02  0.2863932E+00
         22   -1    0    0    0    0  0.00000000000E+00  0.00000000000E+00  0.44880750337E+00  0.44880750337E+00  0.00000000000E+00 0. -1.
         22   -1    0    0    0    0 -0.00000000000E+00 -0.00000000000E+00 -0.11218614089E+02  0.11218614089E+02  0.00000000000E+00 0.  1.
          4    1    1    2  501    0 -0.17272899688E+01 -0.44124818962E+00 -0.66687768972E+01  0.70188115736E+01  0.12700000000E+01 0. -1.
         -4    1    1    2    0  501  0.17272899688E+01  0.44124818962E+00 -0.41010296887E+01  0.46486100190E+01  0.12700000000E+01 0.  1.
<mgrwt>
<rscale>  0 0.21888651E+01</rscale>
<asrwt>0</asrwt>
<pdfrwt beam="1">0</pdfrwt>
<pdfrwt beam="2">0</pdfrwt>
<totfact> 0.34246833E+12</totfact>
</mgrwt>
</event>
<event>
 4    1  0.3102735E+006  0.5146003E+01  0.7546771E-02  0.2105969E+00
         22   -1    0    0    0    0  0.00000000000E+00  0.00000000000E+00  0.22647014381E+00  0.22647014381E+00  0.00000000000E+00 0.  1.
         22   -1    0    0    0    0 -0.00000000000E+00 -0.00000000000E+00 -0.11703165097E+03  0.11703165097E+03  0.00000000000E+00 0.  1.
          4    1    1    2  501    0  0.19822763063E+00 -0.49828856292E+01 -0.56681821979E+02  0.56914939043E+02  0.12700000000E+01 0.  1.
         -4    1    1    2    0  501 -0.19822763063E+00  0.49828856292E+01 -0.60123358851E+02  0.60343182074E+02  0.12700000000E+01 0.  1.
<mgrwt>
<rscale>  0 0.51460027E+01</rscale>
<asrwt>0</asrwt>
<pdfrwt beam="1">0</pdfrwt>
<pdfrwt beam="2">0</pdfrwt>
<totfact> 0.34930145E+11</totfact>
</mgrwt>
</event>
<event>
 4    1  0.3102735E+006  0.2245844E+01  0.7546771E-02  0.2832424E+00
         22   -1    0    0    0    0  0.00000000000E+00  0.00000000000E+00  0.64527854585E+01  0.64527854585E+01  0.00000000000E+00 0. -1.
         22   -1    0    0    0    0 -0.00000000000E+00 -0.00000000000E+00 -0.83438651562E+00  0.83438651562E+00  0.00000000000E+00 0.  1.
          4    1    1    2  501    0 -0.15606180339E+01 -0.99769044921E+00  0.18931810439E+01  0.29373371181E+01  0.12700000000E+01 0. -1.
         -4    1    1    2    0  501  0.15606180339E+01  0.99769044921E+00  0.37252178990E+01  0.43498348561E+01  0.12700000000E+01 0. -1.
<mgrwt>
<rscale>  0 0.22458439E+01</rscale>
<asrwt>0</asrwt>
<pdfrwt beam="1">0</pdfrwt>
<pdfrwt beam="2">0</pdfrwt>
<totfact> 0.33021059E+12</totfact>
</mgrwt>
</event>
<event>
 4    1  0.3102735E+006  0.2677146E+01  0.7546771E-02  0.2635235E+00
         22   -1    0    0    0    0  0.00000000000E+00  0.00000000000E+00  0.17011539354E+01  0.17011539354E+01  0.00000000000E+00 0. -1.
         22   -1    0    0    0    0 -0.00000000000E+00 -0.00000000000E+00 -0.42131124311E+01  0.42131124311E+01  0.00000000000E+00 0. -1.
          4    1    1    2  501    0 -0.26355063652E+00  0.23419541742E+01 -0.12486107342E+01  0.29540035643E+01  0.12700000000E+01 0. -1.
         -4    1    1    2    0  501  0.26355063652E+00 -0.23419541742E+01 -0.12633477615E+01  0.29602628023E+01  0.12700000000E+01 0. -1.
<mgrwt>
<rscale>  0 0.26771455E+01</rscale>
<asrwt>0</asrwt>
<pdfrwt beam="1">0</pdfrwt>
<pdfrwt beam="2">0</pdfrwt>
<totfact> 0.24201774E+12</totfact>
</mgrwt>
</event>
<event>
 4    1  0.3102735E+006  0.2933447E+01  0.7546771E-02  0.2543639E+00
         22   -1    0    0    0    0  0.00000000000E+00  0.00000000000E+00  0.18437485219E+02  0.18437485219E+02  0.00000000000E+00 0. -1.
         22   -1    0    0    0    0 -0.00000000000E+00 -0.00000000000E+00 -0.49990051988E+00  0.49990051988E+00  0.00000000000E+00 0.  1.
          4    1    1    2  501    0 -0.26326484149E+01  0.24773735969E+00  0.65292910484E+01  0.71579852662E+01  0.12700000000E+01 0.  1.
         -4    1    1    2    0  501  0.26326484149E+01 -0.24773735969E+00  0.11408293651E+02  0.11779400473E+02  0.12700000000E+01 0. -1.
<mgrwt>
<rscale>  0 0.29334470E+01</rscale>
<asrwt>0</asrwt>
<pdfrwt beam="1">0</pdfrwt>
<pdfrwt beam="2">0</pdfrwt>
<totfact> 0.16471021E+12</totfact>
</mgrwt>
</event>
<event>
 4    1  0.3102735E+006  0.2059252E+01  0.7546771E-02  0.2941845E+00
         22   -1    0    0    0    0  0.00000000000E+00  0.00000000000E+00  0.82625269513E+01  0.82625269513E+01  0.00000000000E+00 0. -1.
         22   -1    0    0    0    0 -0.00000000000E+00 -0.00000000000E+00 -0.71879098773E+00  0.71879098773E+00  0.00000000000E+00 0. -1.
          4    1    1    2  501    0 -0.15570391577E+01  0.45083194916E+00  0.13703474056E+01  0.24735343937E+01  0.12700000000E+01 0. -1.
         -4    1    1    2    0  501  0.15570391577E+01 -0.45083194916E+00  0.61733885580E+01  0.65077835453E+01  0.12700000000E+01 0. -1.
<mgrwt>
<rscale>  0 0.20592524E+01</rscale>
<asrwt>0</asrwt>
<pdfrwt beam="1">0</pdfrwt>
<pdfrwt beam="2">0</pdfrwt>
<totfact> 0.29093959E+12</totfact>
</mgrwt>
</event>
<event>
 4    1  0.3102735E+006  0.2294562E+01  0.7546771E-02  0.2806669E+00
         22   -1    0    0    0    0  0.00000000000E+00  0.00000000000E+00  0.68317728795E+00  0.68317728795E+00  0.00000000000E+00 0. -1.
         22   -1    0    0    0    0 -0.00000000000E+00 -0.00000000000E+00 -0.11189718887E+02  0.11189718887E+02  0.00000000000E+00 0. -1.
          4    1    1    2  501    0  0.12984485678E-01  0.19110069645E+01 -0.85653246628E+01  0.88673447432E+01  0.12700000000E+01 0. -1.
         -4    1    1    2    0  501 -0.12984485678E-01 -0.19110069645E+01 -0.19412169362E+01  0.30055514317E+01  0.12700000000E+01 0. -1.
<mgrwt>
<rscale>  0 0.22945623E+01</rscale>
<asrwt>0</asrwt>
<pdfrwt beam="1">0</pdfrwt>
<pdfrwt beam="2">0</pdfrwt>
<totfact> 0.21360579E+12</totfact>
</mgrwt>
</event>
<event>
 4    1  0.3102735E+006  0.2296511E+01  0.7546771E-02  0.2805660E+00
         22   -1    0    0    0    0  0.00000000000E+00  0.00000000000E+00  0.17959730171E+01  0.17959730171E+01  0.00000000000E+00 0. -1.
         22   -1    0    0    0    0 -0.00000000000E+00 -0.00000000000E+00 -0.32503287368E+01  0.32503287368E+01  0.00000000000E+00 0.  1.
          4    1    1    2  501    0 -0.13515080408E+01  0.13544334655E+01 -0.15111336109E+01  0.27490887194E+01  0.12700000000E+01 0.  1.
         -4    1    1    2    0  501  0.13515080408E+01 -0.13544334655E+01  0.56777891201E-01  0.22972130345E+01  0.12700000000E+01 0. -1.
<mgrwt>
<rscale>  0 0.22965113E+01</rscale>
<asrwt>0</asrwt>
<pdfrwt beam="1">0</pdfrwt>
<pdfrwt beam="2">0</pdfrwt>
<totfact> 0.30829657E+12</totfact>
</mgrwt>
</event>
<event>
 4    1  0.3102735E+006  0.2536691E+01  0.7546771E-02  0.2692572E+00
         22   -1    0    0    0    0  0.00000000000E+00  0.00000000000E+00  0.92035969301E+00  0.92035969301E+00  0.00000000000E+00 0.  1.
         22   -1    0    0    0    0 -0.00000000000E+00 -0.00000000000E+00 -0.72282359769E+01  0.72282359769E+01  0.00000000000E+00 0. -1.
          4    1    1    2  501    0  0.15149599542E+01 -0.15895907909E+01 -0.24167788768E+01  0.35036584715E+01  0.12700000000E+01 0.  1.
         -4    1    1    2    0  501 -0.15149599542E+01  0.15895907909E+01 -0.38910974071E+01  0.46449371984E+01  0.12700000000E+01 0. -1.
<mgrwt>
<rscale>  0 0.25366913E+01</rscale>
<asrwt>0</asrwt>
<pdfrwt beam="1">0</pdfrwt>
<pdfrwt beam="2">0</pdfrwt>
<totfact> 0.25785409E+12</totfact>
</mgrwt>
</event>
<event>
 4    1  0.3102735E+006  0.2397663E+01  0.7546771E-02  0.2755442E+00
         22   -1    0    0    0    0  0.00000000000E+00  0.00000000000E+00  0.59450804505E-01  0.59450804505E-01  0.00000000000E+00 0.  1.
         22   -1    0    0    0    0 -0.00000000000E+00 -0.00000000000E+00 -0.10119345309E+03  0.10119345309E+03  0.00000000000E+00 0. -1.
          4    1    1    2  501    0 -0.19524455121E+01  0.56907179274E+00 -0.39896666651E+02  0.39968647663E+02  0.12700000000E+01 0.  1.
         -4    1    1    2    0  501  0.19524455121E+01 -0.56907179274E+00 -0.61237335630E+02  0.61284256227E+02  0.12700000000E+01 0. -1.
<mgrwt>
<rscale>  0 0.23976626E+01</rscale>
<asrwt>0</asrwt>
<pdfrwt beam="1">0</pdfrwt>
<pdfrwt beam="2">0</pdfrwt>
<totfact> 0.18927531E+12</totfact>
</mgrwt>
</event>
<event>
 4    1  0.3102735E+006  0.2571216E+01  0.7546771E-02  0.2677942E+00
         22   -1    0    0    0    0  0.00000000000E+00  0.00000000000E+00  0.28414488778E+01  0.28414488778E+01  0.00000000000E+00 0.  1.
         22   -1    0    0    0    0 -0.00000000000E+00 -0.00000000000E+00 -0.23402240085E+01  0.23402240085E+01  0.00000000000E+00 0. -1.
          4    1    1    2  501    0  0.44655236940E+00 -0.21906257717E+01  0.44769112201E+00  0.26098999274E+01  0.12700000000E+01 0. -1.
         -4    1    1    2    0  501 -0.44655236940E+00  0.21906257717E+01  0.53533747310E-01  0.25717729589E+01  0.12700000000E+01 0.  1.
<mgrwt>
<rscale>  0 0.25712157E+01</rscale>
<asrwt>0</asrwt>
<pdfrwt beam="1">0</pdfrwt>
<pdfrwt beam="2">0</pdfrwt>
<totfact> 0.26550838E+12</totfact>
</mgrwt>
</event>
<event>
 4    1  0.3102735E+006  0.5950595E+01  0.7546771E-02  0.2024147E+00
         22   -1    0    0    0    0  0.00000000000E+00  0.00000000000E+00  0.17478660609E+01  0.17478660609E+01  0.00000000000E+00 0. -1.
         22   -1    0    0    0    0 -0.00000000000E+00 -0.00000000000E+00 -0.22086478907E+02  0.22086478907E+02  0.00000000000E+00 0.  1.
          4    1    1    2  501    0  0.58074356236E+01  0.26526909758E+00 -0.13597507100E+02  0.14842566340E+02  0.12700000000E+01 0.  1.
         -4    1    1    2    0  501 -0.58074356236E+01 -0.26526909758E+00 -0.67411057456E+01  0.89917786277E+01  0.12700000000E+01 0. -1.
<mgrwt>
<rscale>  0 0.59505946E+01</rscale>
<asrwt>0</asrwt>
<pdfrwt beam="1">0</pdfrwt>
<pdfrwt beam="2">0</pdfrwt>
<totfact> 0.31522680E+11</totfact>
</mgrwt>
</event>
<event>
 4    1  0.3102735E+006  0.6202883E+01  0.7546771E-02  0.2001957E+00
         22   -1    0    0    0    0  0.00000000000E+00  0.00000000000E+00  0.87310652183E+00  0.87310652183E+00  0.00000000000E+00 0. -1.
         22   -1    0    0    0    0 -0.00000000000E+00 -0.00000000000E+00 -0.45002453537E+02  0.45002453537E+02  0.00000000000E+00 0.  1.
          4    1    1    2  501    0 -0.54517551268E+01 -0.26723064962E+01 -0.25370595244E+02  0.26117864749E+02  0.12700000000E+01 0. -1.
         -4    1    1    2    0  501  0.54517551268E+01  0.26723064962E+01 -0.18758751771E+02  0.19757695310E+02  0.12700000000E+01 0.  1.
<mgrwt>
<rscale>  0 0.62028829E+01</rscale>
<asrwt>0</asrwt>
<pdfrwt beam="1">0</pdfrwt>
<pdfrwt beam="2">0</pdfrwt>
<totfact> 0.28108744E+11</totfact>
</mgrwt>
</event>
<event>
 4    1  0.3102735E+006  0.2674856E+01  0.7546771E-02  0.2636125E+00
         22   -1    0    0    0    0  0.00000000000E+00  0.00000000000E+00  0.47983069172E+00  0.47983069172E+00  0.00000000000E+00 0.  1.
         22   -1    0    0    0    0 -0.00000000000E+00 -0.00000000000E+00 -0.11155427319E+03  0.11155427319E+03  0.00000000000E+00 0. -1.
          4    1    1    2  501    0  0.23435221693E+01 -0.22329279675E+00 -0.10767619621E+03  0.10770941503E+03  0.12700000000E+01 0. -1.
         -4    1    1    2    0  501 -0.23435221693E+01  0.22329279675E+00 -0.33982462893E+01  0.43246888528E+01  0.12700000000E+01 0.  1.
<mgrwt>
<rscale>  0 0.26748562E+01</rscale>
<asrwt>0</asrwt>
<pdfrwt beam="1">0</pdfrwt>
<pdfrwt beam="2">0</pdfrwt>
<totfact> 0.16101786E+11</totfact>
</mgrwt>
</event>
<event>
 4    1  0.3102735E+006  0.3576091E+01  0.7546771E-02  0.2366476E+00
         22   -1    0    0    0    0  0.00000000000E+00  0.00000000000E+00  0.53785552221E+01  0.53785552221E+01  0.00000000000E+00 0.  1.
         22   -1    0    0    0    0 -0.00000000000E+00 -0.00000000000E+00 -0.24481580896E+01  0.24481580896E+01  0.00000000000E+00 0. -1.
          4    1    1    2  501    0 -0.26454505039E+01  0.20437998165E+01  0.21292312903E+01  0.41619769276E+01  0.12700000000E+01 0.  1.
         -4    1    1    2    0  501  0.26454505039E+01 -0.20437998165E+01  0.80116584219E+00  0.36647363841E+01  0.12700000000E+01 0. -1.
<mgrwt>
<rscale>  0 0.35760909E+01</rscale>
<asrwt>0</asrwt>
<pdfrwt beam="1">0</pdfrwt>
<pdfrwt beam="2">0</pdfrwt>
<totfact> 0.11895239E+12</totfact>
</mgrwt>
</event>
<event>
 4    1  0.3102735E+006  0.2066368E+01  0.7546771E-02  0.2937322E+00
         22   -1    0    0    0    0  0.00000000000E+00  0.00000000000E+00  0.44568835292E+01  0.44568835292E+01  0.00000000000E+00 0. -1.
         22   -1    0    0    0    0 -0.00000000000E+00 -0.00000000000E+00 -0.12016546040E+01  0.12016546040E+01  0.00000000000E+00 0. -1.
          4    1    1    2  501    0 -0.16037058994E+01  0.29172598418E+00  0.35371460056E+00  0.20964233066E+01  0.12700000000E+01 0. -1.
         -4    1    1    2    0  501  0.16037058994E+01 -0.29172598418E+00  0.29015143247E+01  0.35621148266E+01  0.12700000000E+01 0. -1.
<mgrwt>
<rscale>  0 0.20663680E+01</rscale>
<asrwt>0</asrwt>
<pdfrwt beam="1">0</pdfrwt>
<pdfrwt beam="2">0</pdfrwt>
<totfact> 0.33771420E+12</totfact>
</mgrwt>
</event>
<event>
 4    1  0.3102735E+006  0.2110237E+01  0.7546771E-02  0.2910093E+00
         22   -1    0    0    0    0  0.00000000000E+00  0.00000000000E+00  0.17877406697E+01  0.17877406697E+01  0.00000000000E+00 0. -1.
         22   -1    0    0    0    0 -0.00000000000E+00 -0.00000000000E+00 -0.71074455189E+01  0.71074455189E+01  0.00000000000E+00 0.  1.
          4    1    1    2  501    0  0.16852886505E+01 -0.15913232027E-02 -0.62443342920E+01  0.65912677929E+01  0.12700000000E+01 0.  1.
         -4    1    1    2    0  501 -0.16852886505E+01  0.15913232027E-02  0.92462944267E+00  0.23039183957E+01  0.12700000000E+01 0. -1.
<mgrwt>
<rscale>  0 0.21102370E+01</rscale>
<asrwt>0</asrwt>
<pdfrwt beam="1">0</pdfrwt>
<pdfrwt beam="2">0</pdfrwt>
<totfact> 0.12282658E+12</totfact>
</mgrwt>
</event>
<event>
 4    1  0.3102735E+006  0.2637604E+01  0.7546771E-02  0.2650807E+00
         22   -1    0    0    0    0  0.00000000000E+00  0.00000000000E+00  0.32921284803E+02  0.32921284803E+02  0.00000000000E+00 0. -1.
         22   -1    0    0    0    0 -0.00000000000E+00 -0.00000000000E+00 -0.48282068851E+01  0.48282068851E+01  0.00000000000E+00 0.  1.
          4    1    1    2  501    0  0.13853377421E+01 -0.18506474639E+01 -0.44105306479E+01  0.51390405030E+01  0.12700000000E+01 0.  1.
         -4    1    1    2    0  501 -0.13853377421E+01  0.18506474639E+01  0.32503608566E+02  0.32610451185E+02  0.12700000000E+01 0. -1.
<mgrwt>
<rscale>  0 0.26376043E+01</rscale>
<asrwt>0</asrwt>
<pdfrwt beam="1">0</pdfrwt>
<pdfrwt beam="2">0</pdfrwt>
<totfact> 0.58039615E+10</totfact>
</mgrwt>
</event>
<event>
 4    1  0.3102735E+006  0.3019805E+01  0.7546771E-02  0.2515958E+00
         22   -1    0    0    0    0  0.00000000000E+00  0.00000000000E+00  0.89098285786E+01  0.89098285786E+01  0.00000000000E+00 0. -1.
         22   -1    0    0    0    0 -0.00000000000E+00 -0.00000000000E+00 -0.15974302289E+01  0.15974302289E+01  0.00000000000E+00 0.  1.
          4    1    1    2  501    0  0.14063545370E+01 -0.23512739854E+01  0.50716417780E+00  0.30620969843E+01  0.12700000000E+01 0.  1.
         -4    1    1    2    0  501 -0.14063545370E+01  0.23512739854E+01  0.68052341719E+01  0.74451618232E+01  0.12700000000E+01 0. -1.
<mgrwt>
<rscale>  0 0.30198050E+01</rscale>
<asrwt>0</asrwt>
<pdfrwt beam="1">0</pdfrwt>
<pdfrwt beam="2">0</pdfrwt>
<totfact> 0.10661086E+12</totfact>
</mgrwt>
</event>
<event>
 4    1  0.3102735E+006  0.3406652E+01  0.7546771E-02  0.2407445E+00
         22   -1    0    0    0    0  0.00000000000E+00  0.00000000000E+00  0.10804148041E+01  0.10804148041E+01  0.00000000000E+00 0.  1.
         22   -1    0    0    0    0 -0.00000000000E+00 -0.00000000000E+00 -0.10891787600E+02  0.10891787600E+02  0.00000000000E+00 0. -1.
          4    1    1    2  501    0  0.26321379305E+01  0.17504931526E+01 -0.56088478465E+01  0.65623509909E+01  0.12700000000E+01 0. -1.
         -4    1    1    2    0  501 -0.26321379305E+01 -0.17504931526E+01 -0.42025249495E+01  0.54098514133E+01  0.12700000000E+01 0.  1.
<mgrwt>
<rscale>  0 0.34066518E+01</rscale>
<asrwt>0</asrwt>
<pdfrwt beam="1">0</pdfrwt>
<pdfrwt beam="2">0</pdfrwt>
<totfact> 0.13096383E+12</totfact>
</mgrwt>
</event>
<event>
 4    1  0.3102735E+006  0.2461910E+01  0.7546771E-02  0.2725564E+00
         22   -1    0    0    0    0  0.00000000000E+00  0.00000000000E+00  0.41572216321E+01  0.41572216321E+01  0.00000000000E+00 0. -1.
         22   -1    0    0    0    0 -0.00000000000E+00 -0.00000000000E+00 -0.15560710537E+01  0.15560710537E+01  0.00000000000E+00 0. -1.
          4    1    1    2  501    0 -0.16691821622E+01 -0.12891601120E+01  0.58322271934E+00  0.25300497278E+01  0.12700000000E+01 0. -1.
         -4    1    1    2    0  501  0.16691821622E+01  0.12891601120E+01  0.20179278590E+01  0.31832429579E+01  0.12700000000E+01 0. -1.
<mgrwt>
<rscale>  0 0.24619104E+01</rscale>
<asrwt>0</asrwt>
<pdfrwt beam="1">0</pdfrwt>
<pdfrwt beam="2">0</pdfrwt>
<totfact> 0.27245356E+12</totfact>
</mgrwt>
</event>
<event>
 4    1  0.3102735E+006  0.2018289E+01  0.7546771E-02  0.2968488E+00
         22   -1    0    0    0    0  0.00000000000E+00  0.00000000000E+00  0.43380600085E+02  0.43380600085E+02  0.00000000000E+00 0.  1.
         22   -1    0    0    0    0 -0.00000000000E+00 -0.00000000000E+00 -0.93989733615E-01  0.93989733615E-01  0.00000000000E+00 0. -1.
          4    1    1    2  501    0 -0.11122500772E+01  0.11061155532E+01  0.20976287123E+02  0.21073160971E+02  0.12700000000E+01 0.  1.
         -4    1    1    2    0  501  0.11122500772E+01 -0.11061155532E+01  0.22310323229E+02  0.22401428848E+02  0.12700000000E+01 0.  1.
<mgrwt>
<rscale>  0 0.20182893E+01</rscale>
<asrwt>0</asrwt>
<pdfrwt beam="1">0</pdfrwt>
<pdfrwt beam="2">0</pdfrwt>
<totfact> 0.35893007E+12</totfact>
</mgrwt>
</event>
<event>
 4    1  0.3102735E+006  0.2217468E+01  0.7546771E-02  0.2847922E+00
         22   -1    0    0    0    0  0.00000000000E+00  0.00000000000E+00  0.42214497589E+00  0.42214497589E+00  0.00000000000E+00 0.  1.
         22   -1    0    0    0    0 -0.00000000000E+00 -0.00000000000E+00 -0.12018021931E+02  0.12018021931E+02  0.00000000000E+00 0.  1.
          4    1    1    2  501    0  0.15810367258E+01  0.89698835265E+00 -0.47065864163E+01  0.52027993357E+01  0.12700000000E+01 0.  1.
         -4    1    1    2    0  501 -0.15810367258E+01 -0.89698835265E+00 -0.68892905393E+01  0.72373675717E+01  0.12700000000E+01 0.  1.
<mgrwt>
<rscale>  0 0.22174682E+01</rscale>
<asrwt>0</asrwt>
<pdfrwt beam="1">0</pdfrwt>
<pdfrwt beam="2">0</pdfrwt>
<totfact> 0.33743875E+12</totfact>
</mgrwt>
</event>
<event>
 4    1  0.3102735E+006  0.2518930E+01  0.7546771E-02  0.2700243E+00
         22   -1    0    0    0    0  0.00000000000E+00  0.00000000000E+00  0.10388599233E+02  0.10388599233E+02  0.00000000000E+00 0.  1.
         22   -1    0    0    0    0 -0.00000000000E+00 -0.00000000000E+00 -0.61100126060E+00  0.61100126060E+00  0.00000000000E+00 0. -1.
          4    1    1    2  501    0 -0.44641760469E+00 -0.21290423149E+01  0.47810264324E+01  0.54040007036E+01  0.12700000000E+01 0.  1.
         -4    1    1    2    0  501  0.44641760469E+00  0.21290423149E+01  0.49965715401E+01  0.55955997902E+01  0.12700000000E+01 0. -1.
<mgrwt>
<rscale>  0 0.25189303E+01</rscale>
<asrwt>0</asrwt>
<pdfrwt beam="1">0</pdfrwt>
<pdfrwt beam="2">0</pdfrwt>
<totfact> 0.26532199E+12</totfact>
</mgrwt>
</event>
<event>
 4    1  0.3102735E+006  0.3062780E+01  0.7546771E-02  0.2502706E+00
         22   -1    0    0    0    0  0.00000000000E+00  0.00000000000E+00  0.92116193476E+01  0.92116193476E+01  0.00000000000E+00 0.  1.
         22   -1    0    0    0    0 -0.00000000000E+00 -0.00000000000E+00 -0.30401632619E+01  0.30401632619E+01  0.00000000000E+00 0. -1.
          4    1    1    2  501    0 -0.30795457153E-01 -0.27868932690E+01 -0.19099185195E+01  0.36094890503E+01  0.12700000000E+01 0. -1.
         -4    1    1    2    0  501  0.30795457153E-01  0.27868932690E+01  0.80813746052E+01  0.86422935592E+01  0.12700000000E+01 0.  1.
<mgrwt>
<rscale>  0 0.30627802E+01</rscale>
<asrwt>0</asrwt>
<pdfrwt beam="1">0</pdfrwt>
<pdfrwt beam="2">0</pdfrwt>
<totfact> 0.48545129E+11</totfact>
</mgrwt>
</event>
<event>
 4    1  0.3102735E+006  0.2977643E+01  0.7546771E-02  0.2529292E+00
         22   -1    0    0    0    0  0.00000000000E+00  0.00000000000E+00  0.13794257918E+02  0.13794257918E+02  0.00000000000E+00 0. -1.
         22   -1    0    0    0    0 -0.00000000000E+00 -0.00000000000E+00 -0.74102450320E+00  0.74102450320E+00  0.00000000000E+00 0.  1.
          4    1    1    2  501    0  0.15158219854E+01  0.22261500755E+01  0.38800587073E+01  0.48909320198E+01  0.12700000000E+01 0.  1.
         -4    1    1    2    0  501 -0.15158219854E+01 -0.22261500755E+01  0.91731747072E+01  0.96443504011E+01  0.12700000000E+01 0. -1.
<mgrwt>
<rscale>  0 0.29776434E+01</rscale>
<asrwt>0</asrwt>
<pdfrwt beam="1">0</pdfrwt>
<pdfrwt beam="2">0</pdfrwt>
<totfact> 0.15086393E+12</totfact>
</mgrwt>
</event>
<event>
 4    1  0.3102735E+006  0.3283592E+01  0.7546771E-02  0.2439507E+00
         22   -1    0    0    0    0  0.00000000000E+00  0.00000000000E+00  0.11444006500E+03  0.11444006500E+03  0.00000000000E+00 0.  1.
         22   -1    0    0    0    0 -0.00000000000E+00 -0.00000000000E+00 -0.58584355555E+00  0.58584355555E+00  0.00000000000E+00 0. -1.
          4    1    1    2  501    0  0.25042878400E+01  0.17022398371E+01  0.42413360568E+01  0.53638521228E+01  0.12700000000E+01 0. -1.
         -4    1    1    2    0  501 -0.25042878400E+01 -0.17022398371E+01  0.10961288538E+03  0.10966205643E+03  0.12700000000E+01 0.  1.
<mgrwt>
<rscale>  0 0.32835922E+01</rscale>
<asrwt>0</asrwt>
<pdfrwt beam="1">0</pdfrwt>
<pdfrwt beam="2">0</pdfrwt>
<totfact> 0.12389538E+11</totfact>
</mgrwt>
</event>
<event>
 4    1  0.3102735E+006  0.2663482E+01  0.7546771E-02  0.2640568E+00
         22   -1    0    0    0    0  0.00000000000E+00  0.00000000000E+00  0.72580364870E+01  0.72580364870E+01  0.00000000000E+00 0. -1.
         22   -1    0    0    0    0 -0.00000000000E+00 -0.00000000000E+00 -0.98722256086E+00  0.98722256086E+00  0.00000000000E+00 0.  1.
          4    1    1    2  501    0  0.17956731944E+01  0.15022631621E+01  0.27245630927E+01  0.38101680901E+01  0.12700000000E+01 0. -1.
         -4    1    1    2    0  501 -0.17956731944E+01 -0.15022631621E+01  0.35462508335E+01  0.44350909577E+01  0.12700000000E+01 0. -1.
<mgrwt>
<rscale>  0 0.26634821E+01</rscale>
<asrwt>0</asrwt>
<pdfrwt beam="1">0</pdfrwt>
<pdfrwt beam="2">0</pdfrwt>
<totfact> 0.23685667E+12</totfact>
</mgrwt>
</event>
<event>
 4    1  0.3102735E+006  0.2098048E+01  0.7546771E-02  0.2917547E+00
         22   -1    0    0    0    0  0.00000000000E+00  0.00000000000E+00  0.12985939473E+01  0.12985939473E+01  0.00000000000E+00 0.  1.
         22   -1    0    0    0    0 -0.00000000000E+00 -0.00000000000E+00 -0.39977028971E+01  0.39977028971E+01  0.00000000000E+00 0.  1.
          4    1    1    2  501    0 -0.16397085374E+01 -0.31664327407E+00 -0.23823159394E+01  0.31744662993E+01  0.12700000000E+01 0.  1.
         -4    1    1    2    0  501  0.16397085374E+01  0.31664327407E+00 -0.31679301041E+00  0.21218305451E+01  0.12700000000E+01 0.  1.
<mgrwt>
<rscale>  0 0.20980484E+01</rscale>
<asrwt>0</asrwt>
<pdfrwt beam="1">0</pdfrwt>
<pdfrwt beam="2">0</pdfrwt>
<totfact> 0.35121072E+12</totfact>
</mgrwt>
</event>
<event>
 4    1  0.3102735E+006  0.2044600E+01  0.7546771E-02  0.2951256E+00
         22   -1    0    0    0    0  0.00000000000E+00  0.00000000000E+00  0.10195580870E+01  0.10195580870E+01  0.00000000000E+00 0. -1.
         22   -1    0    0    0    0 -0.00000000000E+00 -0.00000000000E+00 -0.45718146339E+01  0.45718146339E+01  0.00000000000E+00 0.  1.
          4    1    1    2  501    0 -0.11327749388E+01 -0.11332731761E+01 -0.26740531357E+01  0.33661472526E+01  0.12700000000E+01 0. -1.
         -4    1    1    2    0  501  0.11327749388E+01  0.11332731761E+01 -0.87820341112E+00  0.22252254683E+01  0.12700000000E+01 0.  1.
<mgrwt>
<rscale>  0 0.20445995E+01</rscale>
<asrwt>0</asrwt>
<pdfrwt beam="1">0</pdfrwt>
<pdfrwt beam="2">0</pdfrwt>
<totfact> 0.39549392E+12</totfact>
</mgrwt>
</event>
<event>
 4    1  0.3102735E+006  0.2953591E+01  0.7546771E-02  0.2537052E+00
         22   -1    0    0    0    0  0.00000000000E+00  0.00000000000E+00  0.12680363787E+01  0.12680363787E+01  0.00000000000E+00 0. -1.
         22   -1    0    0    0    0 -0.00000000000E+00 -0.00000000000E+00 -0.78488710306E+01  0.78488710306E+01  0.00000000000E+00 0.  1.
          4    1    1    2  501    0  0.26427690503E+01  0.35576808056E+00 -0.16885886883E+01  0.34022097141E+01  0.12700000000E+01 0. -1.
         -4    1    1    2    0  501 -0.26427690503E+01 -0.35576808056E+00 -0.48922459636E+01  0.57146976953E+01  0.12700000000E+01 0.  1.
<mgrwt>
<rscale>  0 0.29535909E+01</rscale>
<asrwt>0</asrwt>
<pdfrwt beam="1">0</pdfrwt>
<pdfrwt beam="2">0</pdfrwt>
<totfact> 0.16193235E+12</totfact>
</mgrwt>
</event>
<event>
 4    1  0.3102735E+006  0.3536905E+01  0.7546771E-02  0.2375646E+00
         22   -1    0    0    0    0  0.00000000000E+00  0.00000000000E+00  0.20323185389E+00  0.20323185389E+00  0.00000000000E+00 0.  1.
         22   -1    0    0    0    0 -0.00000000000E+00 -0.00000000000E+00 -0.10342702240E+03  0.10342702240E+03  0.00000000000E+00 0. -1.
          4    1    1    2  501    0 -0.10287595778E+01 -0.31366305150E+01 -0.84581036706E+02  0.84654955363E+02  0.12700000000E+01 0. -1.
         -4    1    1    2    0  501  0.10287595778E+01  0.31366305150E+01 -0.18642753844E+02  0.18975298895E+02  0.12700000000E+01 0.  1.
<mgrwt>
<rscale>  0 0.35369050E+01</rscale>
<asrwt>0</asrwt>
<pdfrwt beam="1">0</pdfrwt>
<pdfrwt beam="2">0</pdfrwt>
<totfact> 0.47002234E+11</totfact>
</mgrwt>
</event>
<event>
 4    1  0.3102735E+006  0.2005298E+01  0.7546771E-02  0.2977161E+00
         22   -1    0    0    0    0  0.00000000000E+00  0.00000000000E+00  0.35328353397E+01  0.35328353397E+01  0.00000000000E+00 0.  1.
         22   -1    0    0    0    0 -0.00000000000E+00 -0.00000000000E+00 -0.11382826407E+01  0.11382826407E+01  0.00000000000E+00 0. -1.
          4    1    1    2  501    0  0.89687807232E+00  0.12664630688E+01  0.11831959154E+01  0.23283409448E+01  0.12700000000E+01 0. -1.
         -4    1    1    2    0  501 -0.89687807232E+00 -0.12664630688E+01  0.12113567836E+01  0.23427770356E+01  0.12700000000E+01 0.  1.
<mgrwt>
<rscale>  0 0.20052977E+01</rscale>
<asrwt>0</asrwt>
<pdfrwt beam="1">0</pdfrwt>
<pdfrwt beam="2">0</pdfrwt>
<totfact> 0.47228799E+12</totfact>
</mgrwt>
</event>
<event>
 4    1  0.3102735E+006  0.2071212E+01  0.7546771E-02  0.2934261E+00
         22   -1    0    0    0    0  0.00000000000E+00  0.00000000000E+00  0.38553992071E+01  0.38553992071E+01  0.00000000000E+00 0.  1.
         22   -1    0    0    0    0 -0.00000000000E+00 -0.00000000000E+00 -0.53073189331E+01  0.53073189331E+01  0.00000000000E+00 0. -1.
          4    1    1    2  501    0  0.79095743427E+00  0.14322727775E+01 -0.47988507563E+01  0.52267473206E+01  0.12700000000E+01 0. -1.
         -4    1    1    2    0  501 -0.79095743427E+00 -0.14322727775E+01  0.33469310303E+01  0.39359708197E+01  0.12700000000E+01 0.  1.
<mgrwt>
<rscale>  0 0.20712120E+01</rscale>
<asrwt>0</asrwt>
<pdfrwt beam="1">0</pdfrwt>
<pdfrwt beam="2">0</pdfrwt>
<totfact> 0.71063194E+11</totfact>
</mgrwt>
</event>
<event>
 4    1  0.3102735E+006  0.2568860E+01  0.7546771E-02  0.2678929E+00
         22   -1    0    0    0    0  0.00000000000E+00  0.00000000000E+00  0.20970826652E+01  0.20970826652E+01  0.00000000000E+00 0. -1.
         22   -1    0    0    0    0 -0.00000000000E+00 -0.00000000000E+00 -0.32312996017E+01  0.32312996017E+01  0.00000000000E+00 0.  1.
          4    1    1    2  501    0  0.22213567479E+01  0.22740838361E+00 -0.13620814510E+00  0.25724682764E+01  0.12700000000E+01 0.  1.
         -4    1    1    2    0  501 -0.22213567479E+01 -0.22740838361E+00 -0.99800879141E+00  0.27559139904E+01  0.12700000000E+01 0. -1.
<mgrwt>
<rscale>  0 0.25688597E+01</rscale>
<asrwt>0</asrwt>
<pdfrwt beam="1">0</pdfrwt>
<pdfrwt beam="2">0</pdfrwt>
<totfact> 0.25947734E+12</totfact>
</mgrwt>
</event>
<event>
 4    1  0.3102735E+006  0.2428999E+01  0.7546771E-02  0.2740684E+00
         22   -1    0    0    0    0  0.00000000000E+00  0.00000000000E+00  0.11045293158E+01  0.11045293158E+01  0.00000000000E+00 0.  1.
         22   -1    0    0    0    0 -0.00000000000E+00 -0.00000000000E+00 -0.73057838812E+01  0.73057838812E+01  0.00000000000E+00 0.  1.
          4    1    1    2  501    0 -0.15454449825E+01 -0.13779469243E+01 -0.52810033876E+01  0.58128336206E+01  0.12700000000E+01 0.  1.
         -4    1    1    2    0  501  0.15454449825E+01  0.13779469243E+01 -0.92025117772E+00  0.25974795765E+01  0.12700000000E+01 0.  1.
<mgrwt>
<rscale>  0 0.24289994E+01</rscale>
<asrwt>0</asrwt>
<pdfrwt beam="1">0</pdfrwt>
<pdfrwt beam="2">0</pdfrwt>
<totfact> 0.20670000E+12</totfact>
</mgrwt>
</event>
<event>
 4    1  0.3102735E+006  0.3319210E+01  0.7546771E-02  0.2430013E+00
         22   -1    0    0    0    0  0.00000000000E+00  0.00000000000E+00  0.43751123683E+00  0.43751123683E+00  0.00000000000E+00 0. -1.
         22   -1    0    0    0    0 -0.00000000000E+00 -0.00000000000E+00 -0.29311782918E+02  0.29311782918E+02  0.00000000000E+00 0.  1.
          4    1    1    2  501    0  0.30068502568E+01 -0.60258474840E+00 -0.20020800685E+02  0.20294078370E+02  0.12700000000E+01 0.  1.
         -4    1    1    2    0  501 -0.30068502568E+01  0.60258474840E+00 -0.88534709967E+01  0.94552157847E+01  0.12700000000E+01 0. -1.
<mgrwt>
<rscale>  0 0.33192103E+01</rscale>
<asrwt>0</asrwt>
<pdfrwt beam="1">0</pdfrwt>
<pdfrwt beam="2">0</pdfrwt>
<totfact> 0.10690357E+12</totfact>
</mgrwt>
</event>
<event>
 4    1  0.3102735E+006  0.2399416E+01  0.7546771E-02  0.2754607E+00
         22   -1    0    0    0    0  0.00000000000E+00  0.00000000000E+00  0.83586310573E+01  0.83586310573E+01  0.00000000000E+00 0. -1.
         22   -1    0    0    0    0 -0.00000000000E+00 -0.00000000000E+00 -0.10555733185E+01  0.10555733185E+01  0.00000000000E+00 0. -1.
          4    1    1    2  501    0  0.10714728036E+01  0.17309658749E+01  0.87677504933E+00  0.25545902442E+01  0.12700000000E+01 0. -1.
         -4    1    1    2    0  501 -0.10714728036E+01 -0.17309658749E+01  0.64262826895E+01  0.68596141316E+01  0.12700000000E+01 0. -1.
<mgrwt>
<rscale>  0 0.23994159E+01</rscale>
<asrwt>0</asrwt>
<pdfrwt beam="1">0</pdfrwt>
<pdfrwt beam="2">0</pdfrwt>
<totfact> 0.18520954E+12</totfact>
</mgrwt>
</event>
<event>
 4    1  0.3102735E+006  0.3592270E+01  0.7546771E-02  0.2362740E+00
         22   -1    0    0    0    0  0.00000000000E+00  0.00000000000E+00  0.92861239300E+01  0.92861239300E+01  0.00000000000E+00 0. -1.
         22   -1    0    0    0    0 -0.00000000000E+00 -0.00000000000E+00 -0.55064606158E+01  0.55064606158E+01  0.00000000000E+00 0.  1.
          4    1    1    2  501    0  0.30454885613E+01 -0.14200362109E+01 -0.45054337641E+01  0.57622336658E+01  0.12700000000E+01 0.  1.
         -4    1    1    2    0  501 -0.30454885613E+01  0.14200362109E+01  0.82850970783E+01  0.90303508799E+01  0.12700000000E+01 0. -1.
<mgrwt>
<rscale>  0 0.35922700E+01</rscale>
<asrwt>0</asrwt>
<pdfrwt beam="1">0</pdfrwt>
<pdfrwt beam="2">0</pdfrwt>
<totfact> 0.23885122E+11</totfact>
</mgrwt>
</event>
<event>
 4    1  0.3102735E+006  0.2102917E+01  0.7546771E-02  0.2914559E+00
         22   -1    0    0    0    0  0.00000000000E+00  0.00000000000E+00  0.36895888514E+02  0.36895888514E+02  0.00000000000E+00 0.  1.
         22   -1    0    0    0    0 -0.00000000000E+00 -0.00000000000E+00 -0.15384122877E+00  0.15384122877E+00  0.00000000000E+00 0.  1.
          4    1    1    2  501    0 -0.10158445989E+00  0.16730335580E+01  0.96643520924E+01  0.98904985746E+01  0.12700000000E+01 0.  1.
         -4    1    1    2    0  501  0.10158445989E+00 -0.16730335580E+01  0.27077695193E+02  0.27159231169E+02  0.12700000000E+01 0.  1.
<mgrwt>
<rscale>  0 0.21029172E+01</rscale>
<asrwt>0</asrwt>
<pdfrwt beam="1">0</pdfrwt>
<pdfrwt beam="2">0</pdfrwt>
<totfact> 0.25641134E+12</totfact>
</mgrwt>
</event>
<event>
 4    1  0.3102735E+006  0.8088935E+01  0.7546771E-02  0.1871184E+00
         22   -1    0    0    0    0  0.00000000000E+00  0.00000000000E+00  0.22056072254E+02  0.22056072254E+02  0.00000000000E+00 0. -1.
         22   -1    0    0    0    0 -0.00000000000E+00 -0.00000000000E+00 -0.29669825106E+01  0.29669825106E+01  0.00000000000E+00 0.  1.
          4    1    1    2  501    0 -0.73717762722E+01  0.30781294406E+01  0.93968885603E+01  0.12398886276E+02  0.12700000000E+01 0.  1.
         -4    1    1    2    0  501  0.73717762722E+01 -0.30781294406E+01  0.96922011829E+01  0.12624168489E+02  0.12700000000E+01 0. -1.
<mgrwt>
<rscale>  0 0.80889348E+01</rscale>
<asrwt>0</asrwt>
<pdfrwt beam="1">0</pdfrwt>
<pdfrwt beam="2">0</pdfrwt>
<totfact> 0.17084623E+11</totfact>
</mgrwt>
</event>
<event>
 4    1  0.3102735E+006  0.2478403E+01  0.7546771E-02  0.2718129E+00
         22   -1    0    0    0    0  0.00000000000E+00  0.00000000000E+00  0.69405851191E+01  0.69405851191E+01  0.00000000000E+00 0.  1.
         22   -1    0    0    0    0 -0.00000000000E+00 -0.00000000000E+00 -0.93004350391E+00  0.93004350391E+00  0.00000000000E+00 0. -1.
          4    1    1    2  501    0 -0.77790658827E+00 -0.19810209471E+01  0.38712328320E+01  0.45966211821E+01  0.12700000000E+01 0.  1.
         -4    1    1    2    0  501  0.77790658827E+00  0.19810209471E+01  0.21393087832E+01  0.32740074409E+01  0.12700000000E+01 0. -1.
<mgrwt>
<rscale>  0 0.24784032E+01</rscale>
<asrwt>0</asrwt>
<pdfrwt beam="1">0</pdfrwt>
<pdfrwt beam="2">0</pdfrwt>
<totfact> 0.26748022E+12</totfact>
</mgrwt>
</event>
<event>
 4    1  0.3102735E+006  0.2323936E+01  0.7546771E-02  0.2791637E+00
         22   -1    0    0    0    0  0.00000000000E+00  0.00000000000E+00  0.45481162007E+02  0.45481162007E+02  0.00000000000E+00 0.  1.
         22   -1    0    0    0    0 -0.00000000000E+00 -0.00000000000E+00 -0.21578597104E+00  0.21578597104E+00  0.00000000000E+00 0. -1.
          4    1    1    2  501    0  0.10414369805E+01  0.16441368868E+01  0.73104448222E+01  0.76709373994E+01  0.12700000000E+01 0. -1.
         -4    1    1    2    0  501 -0.10414369805E+01 -0.16441368868E+01  0.37954931214E+02  0.38026010579E+02  0.12700000000E+01 0.  1.
<mgrwt>
<rscale>  0 0.23239357E+01</rscale>
<asrwt>0</asrwt>
<pdfrwt beam="1">0</pdfrwt>
<pdfrwt beam="2">0</pdfrwt>
<totfact> 0.13399638E+12</totfact>
</mgrwt>
</event>
<event>
 4    1  0.3102735E+006  0.2287040E+01  0.7546771E-02  0.2810578E+00
         22   -1    0    0    0    0  0.00000000000E+00  0.00000000000E+00  0.66603456292E+00  0.66603456292E+00  0.00000000000E+00 0. -1.
         22   -1    0    0    0    0 -0.00000000000E+00 -0.00000000000E+00 -0.80882534366E+01  0.80882534366E+01  0.00000000000E+00 0.  1.
          4    1    1    2  501    0 -0.19005136811E+01 -0.75491622817E-01 -0.44571790123E+01  0.50096902085E+01  0.12700000000E+01 0.  1.
         -4    1    1    2    0  501  0.19005136811E+01  0.75491622817E-01 -0.29650398613E+01  0.37445977910E+01  0.12700000000E+01 0. -1.
<mgrwt>
<rscale>  0 0.22870398E+01</rscale>
<asrwt>0</asrwt>
<pdfrwt beam="1">0</pdfrwt>
<pdfrwt beam="2">0</pdfrwt>
<totfact> 0.32548337E+12</totfact>
</mgrwt>
</event>
<event>
 4    1  0.3102735E+006  0.2428482E+01  0.7546771E-02  0.2740925E+00
         22   -1    0    0    0    0  0.00000000000E+00  0.00000000000E+00  0.23213368103E+01  0.23213368103E+01  0.00000000000E+00 0.  1.
         22   -1    0    0    0    0 -0.00000000000E+00 -0.00000000000E+00 -0.28382146925E+01  0.28382146925E+01  0.00000000000E+00 0. -1.
          4    1    1    2  501    0 -0.20191721832E+01  0.45559873298E+00 -0.10938609998E+01  0.26634673638E+01  0.12700000000E+01 0.  1.
         -4    1    1    2    0  501  0.20191721832E+01 -0.45559873298E+00  0.57698311762E+00  0.24960841390E+01  0.12700000000E+01 0. -1.
<mgrwt>
<rscale>  0 0.24284823E+01</rscale>
<asrwt>0</asrwt>
<pdfrwt beam="1">0</pdfrwt>
<pdfrwt beam="2">0</pdfrwt>
<totfact> 0.26837221E+12</totfact>
</mgrwt>
</event>
<event>
 4    1  0.3102735E+006  0.2782404E+01  0.7546771E-02  0.2595762E+00
         22   -1    0    0    0    0  0.00000000000E+00  0.00000000000E+00  0.46035959456E+00  0.46035959456E+00  0.00000000000E+00 0. -1.
         22   -1    0    0    0    0 -0.00000000000E+00 -0.00000000000E+00 -0.29981811377E+02  0.29981811377E+02  0.00000000000E+00 0. -1.
          4    1    1    2  501    0  0.24477059099E+01  0.37095243384E+00 -0.24846924149E+02  0.25002228093E+02  0.12700000000E+01 0. -1.
         -4    1    1    2    0  501 -0.24477059099E+01 -0.37095243384E+00 -0.46745276331E+01  0.54399428786E+01  0.12700000000E+01 0. -1.
<mgrwt>
<rscale>  0 0.27824036E+01</rscale>
<asrwt>0</asrwt>
<pdfrwt beam="1">0</pdfrwt>
<pdfrwt beam="2">0</pdfrwt>
<totfact> 0.98075583E+11</totfact>
</mgrwt>
</event>
<event>
 4    1  0.3102735E+006  0.3606988E+01  0.7546771E-02  0.2359367E+00
         22   -1    0    0    0    0  0.00000000000E+00  0.00000000000E+00  0.19517772742E+01  0.19517772742E+01  0.00000000000E+00 0.  1.
         22   -1    0    0    0    0 -0.00000000000E+00 -0.00000000000E+00 -0.10711439581E+02  0.10711439581E+02  0.00000000000E+00 0. -1.
          4    1    1    2  501    0  0.30810741736E+01 -0.13800167890E+01 -0.82709815516E+01  0.90232754711E+01  0.12700000000E+01 0. -1.
         -4    1    1    2    0  501 -0.30810741736E+01  0.13800167890E+01 -0.48868075557E+00  0.36399413844E+01  0.12700000000E+01 0.  1.
<mgrwt>
<rscale>  0 0.36069883E+01</rscale>
<asrwt>0</asrwt>
<pdfrwt beam="1">0</pdfrwt>
<pdfrwt beam="2">0</pdfrwt>
<totfact> 0.67700772E+11</totfact>
</mgrwt>
</event>
<event>
 4    1  0.3102735E+006  0.2025596E+01  0.7546771E-02  0.2963659E+00
         22   -1    0    0    0    0  0.00000000000E+00  0.00000000000E+00  0.34988721533E+01  0.34988721533E+01  0.00000000000E+00 0. -1.
         22   -1    0    0    0    0 -0.00000000000E+00 -0.00000000000E+00 -0.39466677311E+01  0.39466677311E+01  0.00000000000E+00 0.  1.
          4    1    1    2  501    0  0.78258784786E+00  0.13702895512E+01 -0.33449687022E+01  0.39104798698E+01  0.12700000000E+01 0.  1.
         -4    1    1    2    0  501 -0.78258784786E+00 -0.13702895512E+01  0.28971731244E+01  0.35350600146E+01  0.12700000000E+01 0. -1.
<mgrwt>
<rscale>  0 0.20255955E+01</rscale>
<asrwt>0</asrwt>
<pdfrwt beam="1">0</pdfrwt>
<pdfrwt beam="2">0</pdfrwt>
<totfact> 0.11299513E+12</totfact>
</mgrwt>
</event>
<event>
 4    1  0.3102735E+006  0.2106816E+01  0.7546771E-02  0.2912176E+00
         22   -1    0    0    0    0  0.00000000000E+00  0.00000000000E+00  0.19404022742E+01  0.19404022742E+01  0.00000000000E+00 0. -1.
         22   -1    0    0    0    0 -0.00000000000E+00 -0.00000000000E+00 -0.23994941925E+01  0.23994941925E+01  0.00000000000E+00 0.  1.
          4    1    1    2  501    0 -0.12406832071E+01  0.11342309296E+01 -0.69834083567E+00  0.22195392641E+01  0.12700000000E+01 0.  1.
         -4    1    1    2    0  501  0.12406832071E+01 -0.11342309296E+01  0.23924891737E+00  0.21203572026E+01  0.12700000000E+01 0.  1.
<mgrwt>
<rscale>  0 0.21068162E+01</rscale>
<asrwt>0</asrwt>
<pdfrwt beam="1">0</pdfrwt>
<pdfrwt beam="2">0</pdfrwt>
<totfact> 0.40164804E+12</totfact>
</mgrwt>
</event>
<event>
 4    1  0.3102735E+006  0.2452227E+01  0.7546771E-02  0.2729974E+00
         22   -1    0    0    0    0  0.00000000000E+00  0.00000000000E+00  0.23532837233E+01  0.23532837233E+01  0.00000000000E+00 0.  1.
         22   -1    0    0    0    0 -0.00000000000E+00 -0.00000000000E+00 -0.42254912357E+01  0.42254912357E+01  0.00000000000E+00 0.  1.
          4    1    1    2  501    0 -0.19961329211E+01  0.64495864390E+00 -0.30041275584E+01  0.38779118966E+01  0.12700000000E+01 0.  1.
         -4    1    1    2    0  501  0.19961329211E+01 -0.64495864390E+00  0.11319200460E+01  0.27008630624E+01  0.12700000000E+01 0.  1.
<mgrwt>
<rscale>  0 0.24522272E+01</rscale>
<asrwt>0</asrwt>
<pdfrwt beam="1">0</pdfrwt>
<pdfrwt beam="2">0</pdfrwt>
<totfact> 0.16565799E+12</totfact>
</mgrwt>
</event>
<event>
 4    1  0.3102735E+006  0.2121846E+01  0.7546771E-02  0.2903070E+00
         22   -1    0    0    0    0  0.00000000000E+00  0.00000000000E+00  0.14696862912E+02  0.14696862912E+02  0.00000000000E+00 0. -1.
         22   -1    0    0    0    0 -0.00000000000E+00 -0.00000000000E+00 -0.71972171511E+00  0.71972171511E+00  0.00000000000E+00 0.  1.
          4    1    1    2  501    0  0.16670999917E+01  0.33182491495E+00  0.11467024869E+01  0.24118782618E+01  0.12700000000E+01 0.  1.
         -4    1    1    2    0  501 -0.16670999917E+01 -0.33182491495E+00  0.12830438710E+02  0.13004706365E+02  0.12700000000E+01 0. -1.
<mgrwt>
<rscale>  0 0.21218459E+01</rscale>
<asrwt>0</asrwt>
<pdfrwt beam="1">0</pdfrwt>
<pdfrwt beam="2">0</pdfrwt>
<totfact> 0.14425782E+12</totfact>
</mgrwt>
</event>
<event>
 4    1  0.3102735E+006  0.2030146E+01  0.7546771E-02  0.2960669E+00
         22   -1    0    0    0    0  0.00000000000E+00  0.00000000000E+00  0.18397789038E+01  0.18397789038E+01  0.00000000000E+00 0.  1.
         22   -1    0    0    0    0 -0.00000000000E+00 -0.00000000000E+00 -0.34011048921E+01  0.34011048921E+01  0.00000000000E+00 0.  1.
          4    1    1    2  501    0 -0.93815009027E+00 -0.12761141854E+01 -0.23116121859E+01  0.30765311480E+01  0.12700000000E+01 0.  1.
         -4    1    1    2    0  501  0.93815009027E+00  0.12761141854E+01  0.75028619760E+00  0.21643526479E+01  0.12700000000E+01 0.  1.
<mgrwt>
<rscale>  0 0.20301461E+01</rscale>
<asrwt>0</asrwt>
<pdfrwt beam="1">0</pdfrwt>
<pdfrwt beam="2">0</pdfrwt>
<totfact> 0.28430811E+12</totfact>
</mgrwt>
</event>
<event>
 4    1  0.3102735E+006  0.2256146E+01  0.7546771E-02  0.2826889E+00
         22   -1    0    0    0    0  0.00000000000E+00  0.00000000000E+00  0.19704949274E+02  0.19704949274E+02  0.00000000000E+00 0.  1.
         22   -1    0    0    0    0 -0.00000000000E+00 -0.00000000000E+00 -0.35364176355E+00  0.35364176355E+00  0.00000000000E+00 0. -1.
          4    1    1    2  501    0 -0.18107282627E+01 -0.44560030035E+00  0.44687077596E+01  0.50059510095E+01  0.12700000000E+01 0. -1.
         -4    1    1    2    0  501  0.18107282627E+01  0.44560030035E+00  0.14882599751E+02  0.15052640028E+02  0.12700000000E+01 0.  1.
<mgrwt>
<rscale>  0 0.22561464E+01</rscale>
<asrwt>0</asrwt>
<pdfrwt beam="1">0</pdfrwt>
<pdfrwt beam="2">0</pdfrwt>
<totfact> 0.22392430E+12</totfact>
</mgrwt>
</event>
<event>
 4    1  0.3102735E+006  0.2296487E+01  0.7546771E-02  0.2805673E+00
         22   -1    0    0    0    0  0.00000000000E+00  0.00000000000E+00  0.56858046553E+00  0.56858046553E+00  0.00000000000E+00 0. -1.
         22   -1    0    0    0    0 -0.00000000000E+00 -0.00000000000E+00 -0.10297403799E+02  0.10297403799E+02  0.00000000000E+00 0.  1.
          4    1    1    2  501    0  0.19010193796E+01  0.21697958513E+00 -0.65759442696E+01  0.69654072285E+01  0.12700000000E+01 0.  1.
         -4    1    1    2    0  501 -0.19010193796E+01 -0.21697958513E+00 -0.31528790635E+01  0.39005770357E+01  0.12700000000E+01 0. -1.
<mgrwt>
<rscale>  0 0.22964875E+01</rscale>
<asrwt>0</asrwt>
<pdfrwt beam="1">0</pdfrwt>
<pdfrwt beam="2">0</pdfrwt>
<totfact> 0.29092566E+12</totfact>
</mgrwt>
</event>
<event>
 4    1  0.3102735E+006  0.2030622E+01  0.7546771E-02  0.2960357E+00
         22   -1    0    0    0    0  0.00000000000E+00  0.00000000000E+00  0.40484519134E+01  0.40484519134E+01  0.00000000000E+00 0.  1.
         22   -1    0    0    0    0 -0.00000000000E+00 -0.00000000000E+00 -0.12132536355E+01  0.12132536355E+01  0.00000000000E+00 0. -1.
          4    1    1    2  501    0 -0.12746220766E+01 -0.94120284004E+00  0.36359428064E+00  0.20629166307E+01  0.12700000000E+01 0. -1.
         -4    1    1    2    0  501  0.12746220766E+01  0.94120284004E+00  0.24716039972E+01  0.31987889182E+01  0.12700000000E+01 0. -1.
<mgrwt>
<rscale>  0 0.20306216E+01</rscale>
<asrwt>0</asrwt>
<pdfrwt beam="1">0</pdfrwt>
<pdfrwt beam="2">0</pdfrwt>
<totfact> 0.37407908E+12</totfact>
</mgrwt>
</event>
<event>
 4    1  0.3102735E+006  0.2012234E+01  0.7546771E-02  0.2972517E+00
         22   -1    0    0    0    0  0.00000000000E+00  0.00000000000E+00  0.44894840869E+00  0.44894840869E+00  0.00000000000E+00 0.  1.
         22   -1    0    0    0    0 -0.00000000000E+00 -0.00000000000E+00 -0.21035864220E+02  0.21035864220E+02  0.00000000000E+00 0. -1.
          4    1    1    2  501    0 -0.15386813916E+01 -0.26200320549E+00 -0.18412712337E+02  0.18522339532E+02  0.12700000000E+01 0. -1.
         -4    1    1    2    0  501  0.15386813916E+01  0.26200320549E+00 -0.21742034736E+01  0.29624730968E+01  0.12700000000E+01 0.  1.
<mgrwt>
<rscale>  0 0.20122341E+01</rscale>
<asrwt>0</asrwt>
<pdfrwt beam="1">0</pdfrwt>
<pdfrwt beam="2">0</pdfrwt>
<totfact> 0.15776011E+12</totfact>
</mgrwt>
</event>
<event>
 4    1  0.3102735E+006  0.2007932E+01  0.7546771E-02  0.2975393E+00
         22   -1    0    0    0    0  0.00000000000E+00  0.00000000000E+00  0.35389484083E+01  0.35389484083E+01  0.00000000000E+00 0.  1.
         22   -1    0    0    0    0 -0.00000000000E+00 -0.00000000000E+00 -0.35625420164E+01  0.35625420164E+01  0.00000000000E+00 0.  1.
          4    1    1    2  501    0 -0.38553847494E+00  0.15067353090E+01 -0.29402701013E+01  0.35604746138E+01  0.12700000000E+01 0.  1.
         -4    1    1    2    0  501  0.38553847494E+00 -0.15067353090E+01  0.29166764932E+01  0.35410158109E+01  0.12700000000E+01 0.  1.
<mgrwt>
<rscale>  0 0.20079321E+01</rscale>
<asrwt>0</asrwt>
<pdfrwt beam="1">0</pdfrwt>
<pdfrwt beam="2">0</pdfrwt>
<totfact> 0.12574709E+12</totfact>
</mgrwt>
</event>
<event>
 4    1  0.3102735E+006  0.7164166E+01  0.7546771E-02  0.1928723E+00
         22   -1    0    0    0    0  0.00000000000E+00  0.00000000000E+00  0.40488092807E+02  0.40488092807E+02  0.00000000000E+00 0. -1.
         22   -1    0    0    0    0 -0.00000000000E+00 -0.00000000000E+00 -0.20088551876E+01  0.20088551876E+01  0.00000000000E+00 0.  1.
          4    1    1    2  501    0 -0.58014600806E+01 -0.40069236868E+01  0.63328150431E+01  0.95618943139E+01  0.12700000000E+01 0.  1.
         -4    1    1    2    0  501  0.58014600806E+01  0.40069236868E+01  0.32146422577E+02  0.32935053681E+02  0.12700000000E+01 0. -1.
<mgrwt>
<rscale>  0 0.71641661E+01</rscale>
<asrwt>0</asrwt>
<pdfrwt beam="1">0</pdfrwt>
<pdfrwt beam="2">0</pdfrwt>
<totfact> 0.12394758E+11</totfact>
</mgrwt>
</event>
<event>
 4    1  0.3102735E+006  0.2851247E+01  0.7546771E-02  0.2571385E+00
         22   -1    0    0    0    0  0.00000000000E+00  0.00000000000E+00  0.18369452260E+02  0.18369452260E+02  0.00000000000E+00 0.  1.
         22   -1    0    0    0    0 -0.00000000000E+00 -0.00000000000E+00 -0.45440881355E+00  0.45440881355E+00  0.00000000000E+00 0. -1.
          4    1    1    2  501    0 -0.13868630814E+00 -0.25490148076E+01  0.74377889049E+01  0.79655705492E+01  0.12700000000E+01 0. -1.
         -4    1    1    2    0  501  0.13868630814E+00  0.25490148076E+01  0.10477254542E+02  0.10858290525E+02  0.12700000000E+01 0.  1.
<mgrwt>
<rscale>  0 0.28512472E+01</rscale>
<asrwt>0</asrwt>
<pdfrwt beam="1">0</pdfrwt>
<pdfrwt beam="2">0</pdfrwt>
<totfact> 0.18427771E+12</totfact>
</mgrwt>
</event>
<event>
 4    1  0.3102735E+006  0.4150225E+01  0.7546771E-02  0.2249466E+00
         22   -1    0    0    0    0  0.00000000000E+00  0.00000000000E+00  0.91760086618E+01  0.91760086618E+01  0.00000000000E+00 0. -1.
         22   -1    0    0    0    0 -0.00000000000E+00 -0.00000000000E+00 -0.23762372118E+01  0.23762372118E+01  0.00000000000E+00 0.  1.
          4    1    1    2  501    0  0.38086154888E+01  0.10516260899E+01  0.60471515092E+01  0.73343309681E+01  0.12700000000E+01 0.  1.
         -4    1    1    2    0  501 -0.38086154888E+01 -0.10516260899E+01  0.75261994084E+00  0.42179149055E+01  0.12700000000E+01 0. -1.
<mgrwt>
<rscale>  0 0.41502252E+01</rscale>
<asrwt>0</asrwt>
<pdfrwt beam="1">0</pdfrwt>
<pdfrwt beam="2">0</pdfrwt>
<totfact> 0.64991975E+11</totfact>
</mgrwt>
</event>
<event>
 4    1  0.3102735E+006  0.4937404E+01  0.7546771E-02  0.2130550E+00
         22   -1    0    0    0    0  0.00000000000E+00  0.00000000000E+00  0.23281247476E+01  0.23281247476E+01  0.00000000000E+00 0.  1.
         22   -1    0    0    0    0 -0.00000000000E+00 -0.00000000000E+00 -0.15470493977E+02  0.15470493977E+02  0.00000000000E+00 0. -1.
          4    1    1    2  501    0 -0.40017884481E+01 -0.25982198290E+01 -0.11630179038E+02  0.12634833656E+02  0.12700000000E+01 0. -1.
         -4    1    1    2    0  501  0.40017884481E+01  0.25982198290E+01 -0.15121901920E+01  0.51637850691E+01  0.12700000000E+01 0.  1.
<mgrwt>
<rscale>  0 0.49374039E+01</rscale>
<asrwt>0</asrwt>
<pdfrwt beam="1">0</pdfrwt>
<pdfrwt beam="2">0</pdfrwt>
<totfact> 0.35204498E+11</totfact>
</mgrwt>
</event>
<event>
 4    1  0.3102735E+006  0.2237767E+01  0.7546771E-02  0.2836797E+00
         22   -1    0    0    0    0  0.00000000000E+00  0.00000000000E+00  0.34506148359E+01  0.34506148359E+01  0.00000000000E+00 0.  1.
         22   -1    0    0    0    0 -0.00000000000E+00 -0.00000000000E+00 -0.42725833381E+01  0.42725833381E+01  0.00000000000E+00 0. -1.
          4    1    1    2  501    0  0.92790686876E+00  0.15917568941E+01 -0.35489732977E+01  0.41955705970E+01  0.12700000000E+01 0. -1.
         -4    1    1    2    0  501 -0.92790686876E+00 -0.15917568941E+01  0.27270047955E+01  0.35276275770E+01  0.12700000000E+01 0.  1.
<mgrwt>
<rscale>  0 0.22377670E+01</rscale>
<asrwt>0</asrwt>
<pdfrwt beam="1">0</pdfrwt>
<pdfrwt beam="2">0</pdfrwt>
<totfact> 0.10461102E+12</totfact>
</mgrwt>
</event>
<event>
 4    1  0.3102735E+006  0.4208752E+01  0.7546771E-02  0.2239083E+00
         22   -1    0    0    0    0  0.00000000000E+00  0.00000000000E+00  0.65066251596E+01  0.65066251596E+01  0.00000000000E+00 0.  1.
         22   -1    0    0    0    0 -0.00000000000E+00 -0.00000000000E+00 -0.42039667183E+01  0.42039667183E+01  0.00000000000E+00 0. -1.
          4    1    1    2  501    0 -0.18235897260E+01 -0.35742426688E+01 -0.20278534904E+01  0.46718069227E+01  0.12700000000E+01 0. -1.
         -4    1    1    2    0  501  0.18235897260E+01  0.35742426688E+01  0.43305119318E+01  0.60387849552E+01  0.12700000000E+01 0.  1.
<mgrwt>
<rscale>  0 0.42087516E+01</rscale>
<asrwt>0</asrwt>
<pdfrwt beam="1">0</pdfrwt>
<pdfrwt beam="2">0</pdfrwt>
<totfact> 0.50371920E+11</totfact>
</mgrwt>
</event>
<event>
 4    1  0.3102735E+006  0.2408509E+01  0.7546771E-02  0.2750293E+00
         22   -1    0    0    0    0  0.00000000000E+00  0.00000000000E+00  0.82227922246E+01  0.82227922246E+01  0.00000000000E+00 0. -1.
         22   -1    0    0    0    0 -0.00000000000E+00 -0.00000000000E+00 -0.85248163531E+00  0.85248163531E+00  0.00000000000E+00 0.  1.
          4    1    1    2  501    0  0.14947405900E+01 -0.13977723763E+01  0.18007861293E+01  0.30072824495E+01  0.12700000000E+01 0.  1.
         -4    1    1    2    0  501 -0.14947405900E+01  0.13977723763E+01  0.55695244600E+01  0.60679914105E+01  0.12700000000E+01 0. -1.
<mgrwt>
<rscale>  0 0.24085093E+01</rscale>
<asrwt>0</asrwt>
<pdfrwt beam="1">0</pdfrwt>
<pdfrwt beam="2">0</pdfrwt>
<totfact> 0.24104825E+12</totfact>
</mgrwt>
</event>
<event>
 4    1  0.3102735E+006  0.2437856E+01  0.7546771E-02  0.2736578E+00
         22   -1    0    0    0    0  0.00000000000E+00  0.00000000000E+00  0.11020818950E+02  0.11020818950E+02  0.00000000000E+00 0. -1.
         22   -1    0    0    0    0 -0.00000000000E+00 -0.00000000000E+00 -0.50486607675E+01  0.50486607675E+01  0.00000000000E+00 0.  1.
          4    1    1    2  501    0 -0.82869708647E+00 -0.19087966135E+01 -0.46074366074E+01  0.52126399707E+01  0.12700000000E+01 0.  1.
         -4    1    1    2    0  501  0.82869708647E+00  0.19087966135E+01  0.10579594789E+02  0.10856839747E+02  0.12700000000E+01 0. -1.
<mgrwt>
<rscale>  0 0.24378563E+01</rscale>
<asrwt>0</asrwt>
<pdfrwt beam="1">0</pdfrwt>
<pdfrwt beam="2">0</pdfrwt>
<totfact> 0.21513263E+11</totfact>
</mgrwt>
</event>
<event>
 4    1  0.3102735E+006  0.3338795E+01  0.7546771E-02  0.2424868E+00
         22   -1    0    0    0    0  0.00000000000E+00  0.00000000000E+00  0.61105659958E+00  0.61105659958E+00  0.00000000000E+00 0. -1.
         22   -1    0    0    0    0 -0.00000000000E+00 -0.00000000000E+00 -0.19038619131E+02  0.19038619131E+02  0.00000000000E+00 0.  1.
          4    1    1    2  501    0  0.20793817219E+01  0.22827227347E+01 -0.11222133036E+02  0.11708280032E+02  0.12700000000E+01 0.  1.
         -4    1    1    2    0  501 -0.20793817219E+01 -0.22827227347E+01 -0.72054294957E+01  0.79413956989E+01  0.12700000000E+01 0. -1.
<mgrwt>
<rscale>  0 0.33387949E+01</rscale>
<asrwt>0</asrwt>
<pdfrwt beam="1">0</pdfrwt>
<pdfrwt beam="2">0</pdfrwt>
<totfact> 0.12612085E+12</totfact>
</mgrwt>
</event>
<event>
 4    1  0.3102735E+006  0.2305215E+01  0.7546771E-02  0.2801175E+00
         22   -1    0    0    0    0  0.00000000000E+00  0.00000000000E+00  0.22367954529E+02  0.22367954529E+02  0.00000000000E+00 0.  1.
         22   -1    0    0    0    0 -0.00000000000E+00 -0.00000000000E+00 -0.27458112442E+00  0.27458112442E+00  0.00000000000E+00 0.  1.
          4    1    1    2  501    0  0.19026647470E+01  0.28457709862E+00  0.68903614960E+01  0.72657483310E+01  0.12700000000E+01 0.  1.
         -4    1    1    2    0  501 -0.19026647470E+01 -0.28457709862E+00  0.15203011909E+02  0.15376787323E+02  0.12700000000E+01 0.  1.
<mgrwt>
<rscale>  0 0.23052152E+01</rscale>
<asrwt>0</asrwt>
<pdfrwt beam="1">0</pdfrwt>
<pdfrwt beam="2">0</pdfrwt>
<totfact> 0.25384588E+12</totfact>
</mgrwt>
</event>
<event>
 4    1  0.3102735E+006  0.2144203E+01  0.7546771E-02  0.2889752E+00
         22   -1    0    0    0    0  0.00000000000E+00  0.00000000000E+00  0.60366855701E+01  0.60366855701E+01  0.00000000000E+00 0. -1.
         22   -1    0    0    0    0 -0.00000000000E+00 -0.00000000000E+00 -0.15207204240E+01  0.15207204240E+01  0.00000000000E+00 0.  1.
          4    1    1    2  501    0  0.17268566933E+01 -0.51701643962E-01 -0.41176508642E+00  0.21833821437E+01  0.12700000000E+01 0.  1.
         -4    1    1    2    0  501 -0.17268566933E+01  0.51701643962E-01  0.49277302325E+01  0.53740238503E+01  0.12700000000E+01 0. -1.
<mgrwt>
<rscale>  0 0.21442031E+01</rscale>
<asrwt>0</asrwt>
<pdfrwt beam="1">0</pdfrwt>
<pdfrwt beam="2">0</pdfrwt>
<totfact> 0.17986022E+12</totfact>
</mgrwt>
</event>
<event>
 4    1  0.3102735E+006  0.2219229E+01  0.7546771E-02  0.2846949E+00
         22   -1    0    0    0    0  0.00000000000E+00  0.00000000000E+00  0.10177110014E+01  0.10177110014E+01  0.00000000000E+00 0.  1.
         22   -1    0    0    0    0 -0.00000000000E+00 -0.00000000000E+00 -0.50489012623E+01  0.50489012623E+01  0.00000000000E+00 0. -1.
          4    1    1    2  501    0  0.40382003527E+00 -0.17745443383E+01 -0.13975133824E+01  0.26225983077E+01  0.12700000000E+01 0.  1.
         -4    1    1    2    0  501 -0.40382003527E+00  0.17745443383E+01 -0.26336768785E+01  0.34440139561E+01  0.12700000000E+01 0. -1.
<mgrwt>
<rscale>  0 0.22192292E+01</rscale>
<asrwt>0</asrwt>
<pdfrwt beam="1">0</pdfrwt>
<pdfrwt beam="2">0</pdfrwt>
<totfact> 0.35243222E+12</totfact>
</mgrwt>
</event>
<event>
 4    1  0.3102735E+006  0.2199145E+01  0.7546771E-02  0.2858132E+00
         22   -1    0    0    0    0  0.00000000000E+00  0.00000000000E+00  0.16545905575E+00  0.16545905575E+00  0.00000000000E+00 0. -1.
         22   -1    0    0    0    0 -0.00000000000E+00 -0.00000000000E+00 -0.40175958863E+02  0.40175958863E+02  0.00000000000E+00 0.  1.
          4    1    1    2  501    0 -0.10489004542E+01 -0.14571021383E+01 -0.30534088233E+02  0.30613179891E+02  0.12700000000E+01 0.  1.
         -4    1    1    2    0  501  0.10489004542E+01  0.14571021383E+01 -0.94764115741E+01  0.97282380278E+01  0.12700000000E+01 0. -1.
<mgrwt>
<rscale>  0 0.21991450E+01</rscale>
<asrwt>0</asrwt>
<pdfrwt beam="1">0</pdfrwt>
<pdfrwt beam="2">0</pdfrwt>
<totfact> 0.21178148E+12</totfact>
</mgrwt>
</event>
<event>
 4    1  0.3102735E+006  0.2018986E+01  0.7546771E-02  0.2968027E+00
         22   -1    0    0    0    0  0.00000000000E+00  0.00000000000E+00  0.94084086338E+00  0.94084086338E+00  0.00000000000E+00 0. -1.
         22   -1    0    0    0    0 -0.00000000000E+00 -0.00000000000E+00 -0.77439575606E+01  0.77439575606E+01  0.00000000000E+00 0. -1.
          4    1    1    2  501    0  0.16469394863E+00  0.15608583077E+01 -0.62836701836E+01  0.66000616459E+01  0.12700000000E+01 0. -1.
         -4    1    1    2    0  501 -0.16469394863E+00 -0.15608583077E+01 -0.51944651361E+00  0.20847367781E+01  0.12700000000E+01 0. -1.
<mgrwt>
<rscale>  0 0.20189856E+01</rscale>
<asrwt>0</asrwt>
<pdfrwt beam="1">0</pdfrwt>
<pdfrwt beam="2">0</pdfrwt>
<totfact> 0.23150066E+12</totfact>
</mgrwt>
</event>
<event>
 4    1  0.3102735E+006  0.2033314E+01  0.7546771E-02  0.2958594E+00
         22   -1    0    0    0    0  0.00000000000E+00  0.00000000000E+00  0.17239701929E+01  0.17239701929E+01  0.00000000000E+00 0. -1.
         22   -1    0    0    0    0 -0.00000000000E+00 -0.00000000000E+00 -0.24372787633E+01  0.24372787633E+01  0.00000000000E+00 0.  1.
          4    1    1    2  501    0 -0.15640367447E+01  0.27432988799E+00 -0.62022474230E+00  0.21258049198E+01  0.12700000000E+01 0.  1.
         -4    1    1    2    0  501  0.15640367447E+01 -0.27432988799E+00 -0.93083828136E-01  0.20354440364E+01  0.12700000000E+01 0. -1.
<mgrwt>
<rscale>  0 0.20333145E+01</rscale>
<asrwt>0</asrwt>
<pdfrwt beam="1">0</pdfrwt>
<pdfrwt beam="2">0</pdfrwt>
<totfact> 0.45215419E+12</totfact>
</mgrwt>
</event>
<event>
 4    1  0.3102735E+006  0.2266216E+01  0.7546771E-02  0.2821526E+00
         22   -1    0    0    0    0  0.00000000000E+00  0.00000000000E+00  0.29444074389E+00  0.29444074389E+00  0.00000000000E+00 0. -1.
         22   -1    0    0    0    0 -0.00000000000E+00 -0.00000000000E+00 -0.17450517731E+02  0.17450517731E+02  0.00000000000E+00 0.  1.
          4    1    1    2  501    0 -0.70460640918E+00  0.17396450875E+01 -0.87701211343E+01  0.90581874529E+01  0.12700000000E+01 0. -1.
         -4    1    1    2    0  501  0.70460640918E+00 -0.17396450875E+01 -0.83859558524E+01  0.86867710215E+01  0.12700000000E+01 0. -1.
<mgrwt>
<rscale>  0 0.22662161E+01</rscale>
<asrwt>0</asrwt>
<pdfrwt beam="1">0</pdfrwt>
<pdfrwt beam="2">0</pdfrwt>
<totfact> 0.31986179E+12</totfact>
</mgrwt>
</event>
<event>
 4    1  0.3102735E+006  0.2517199E+01  0.7546771E-02  0.2700996E+00
         22   -1    0    0    0    0  0.00000000000E+00  0.00000000000E+00  0.31071949859E+01  0.31071949859E+01  0.00000000000E+00 0. -1.
         22   -1    0    0    0    0 -0.00000000000E+00 -0.00000000000E+00 -0.10734692244E+02  0.10734692244E+02  0.00000000000E+00 0.  1.
          4    1    1    2  501    0 -0.71745717619E+00  0.20514985985E+01 -0.10042726674E+02  0.10353388351E+02  0.12700000000E+01 0.  1.
         -4    1    1    2    0  501  0.71745717619E+00 -0.20514985985E+01  0.24152294156E+01  0.34884988791E+01  0.12700000000E+01 0. -1.
<mgrwt>
<rscale>  0 0.25171991E+01</rscale>
<asrwt>0</asrwt>
<pdfrwt beam="1">0</pdfrwt>
<pdfrwt beam="2">0</pdfrwt>
<totfact> 0.39319805E+11</totfact>
</mgrwt>
</event>
<event>
 4    1  0.3102735E+006  0.2472020E+01  0.7546771E-02  0.2720996E+00
         22   -1    0    0    0    0  0.00000000000E+00  0.00000000000E+00  0.60878341626E+01  0.60878341626E+01  0.00000000000E+00 0.  1.
         22   -1    0    0    0    0 -0.00000000000E+00 -0.00000000000E+00 -0.10081116336E+01  0.10081116336E+01  0.00000000000E+00 0.  1.
          4    1    1    2  501    0 -0.18198875971E+01  0.10890327430E+01  0.27722670290E+01  0.37143435035E+01  0.12700000000E+01 0.  1.
         -4    1    1    2    0  501  0.18198875971E+01 -0.10890327430E+01  0.23074555000E+01  0.33816022927E+01  0.12700000000E+01 0.  1.
<mgrwt>
<rscale>  0 0.24720201E+01</rscale>
<asrwt>0</asrwt>
<pdfrwt beam="1">0</pdfrwt>
<pdfrwt beam="2">0</pdfrwt>
<totfact> 0.28528602E+12</totfact>
</mgrwt>
</event>
<event>
 4    1  0.3102735E+006  0.2468781E+01  0.7546771E-02  0.2722455E+00
         22   -1    0    0    0    0  0.00000000000E+00  0.00000000000E+00  0.45298474374E+02  0.45298474374E+02  0.00000000000E+00 0.  1.
         22   -1    0    0    0    0 -0.00000000000E+00 -0.00000000000E+00 -0.14198848647E+00  0.14198848647E+00  0.00000000000E+00 0. -1.
          4    1    1    2  501    0 -0.16250694375E+01  0.13568827233E+01  0.17377723457E+02  0.17552212224E+02  0.12700000000E+01 0.  1.
         -4    1    1    2    0  501  0.16250694375E+01 -0.13568827233E+01  0.27778762430E+02  0.27888250637E+02  0.12700000000E+01 0. -1.
<mgrwt>
<rscale>  0 0.24687814E+01</rscale>
<asrwt>0</asrwt>
<pdfrwt beam="1">0</pdfrwt>
<pdfrwt beam="2">0</pdfrwt>
<totfact> 0.21470935E+12</totfact>
</mgrwt>
</event>
<event>
 4    1  0.3102735E+006  0.2497973E+01  0.7546771E-02  0.2709424E+00
         22   -1    0    0    0    0  0.00000000000E+00  0.00000000000E+00  0.67572448033E+01  0.67572448033E+01  0.00000000000E+00 0.  1.
         22   -1    0    0    0    0 -0.00000000000E+00 -0.00000000000E+00 -0.95747894034E+00  0.95747894034E+00  0.00000000000E+00 0. -1.
          4    1    1    2  501    0  0.20266358076E+01 -0.72091486019E+00  0.21725206153E+01  0.33105462927E+01  0.12700000000E+01 0.  1.
         -4    1    1    2    0  501 -0.20266358076E+01  0.72091486019E+00  0.36272452477E+01  0.44041774509E+01  0.12700000000E+01 0. -1.
<mgrwt>
<rscale>  0 0.24979734E+01</rscale>
<asrwt>0</asrwt>
<pdfrwt beam="1">0</pdfrwt>
<pdfrwt beam="2">0</pdfrwt>
<totfact> 0.26716885E+12</totfact>
</mgrwt>
</event>
<event>
 4    1  0.3102735E+006  0.2240710E+01  0.7546771E-02  0.2835201E+00
         22   -1    0    0    0    0  0.00000000000E+00  0.00000000000E+00  0.76025052937E+02  0.76025052937E+02  0.00000000000E+00 0. -1.
         22   -1    0    0    0    0 -0.00000000000E+00 -0.00000000000E+00 -0.85970477296E-01  0.85970477296E-01  0.00000000000E+00 0.  1.
          4    1    1    2  501    0 -0.14170023210E+01 -0.11832095739E+01  0.56292239286E+02  0.56336817308E+02  0.12700000000E+01 0. -1.
         -4    1    1    2    0  501  0.14170023210E+01  0.11832095739E+01  0.19646843173E+02  0.19774206106E+02  0.12700000000E+01 0.  1.
<mgrwt>
<rscale>  0 0.22407098E+01</rscale>
<asrwt>0</asrwt>
<pdfrwt beam="1">0</pdfrwt>
<pdfrwt beam="2">0</pdfrwt>
<totfact> 0.18737638E+12</totfact>
</mgrwt>
</event>
<event>
 4    1  0.3102735E+006  0.2222608E+01  0.7546771E-02  0.2845087E+00
         22   -1    0    0    0    0  0.00000000000E+00  0.00000000000E+00  0.10514422332E+02  0.10514422332E+02  0.00000000000E+00 0.  1.
         22   -1    0    0    0    0 -0.00000000000E+00 -0.00000000000E+00 -0.48133299832E+00  0.48133299832E+00  0.00000000000E+00 0. -1.
          4    1    1    2  501    0 -0.10169836259E+01 -0.15142096662E+01  0.41666096048E+01  0.47223534607E+01  0.12700000000E+01 0. -1.
         -4    1    1    2    0  501  0.10169836259E+01  0.15142096662E+01  0.58664797284E+01  0.62734018692E+01  0.12700000000E+01 0.  1.
<mgrwt>
<rscale>  0 0.22226081E+01</rscale>
<asrwt>0</asrwt>
<pdfrwt beam="1">0</pdfrwt>
<pdfrwt beam="2">0</pdfrwt>
<totfact> 0.34240833E+12</totfact>
</mgrwt>
</event>
<event>
 4    1  0.3102735E+006  0.2145825E+01  0.7546771E-02  0.2888796E+00
         22   -1    0    0    0    0  0.00000000000E+00  0.00000000000E+00  0.44911107836E+01  0.44911107836E+01  0.00000000000E+00 0. -1.
         22   -1    0    0    0    0 -0.00000000000E+00 -0.00000000000E+00 -0.39779365838E+01  0.39779365838E+01  0.00000000000E+00 0.  1.
          4    1    1    2  501    0  0.13700700493E+01 -0.10557339168E+01 -0.33916530453E+01  0.40134619000E+01  0.12700000000E+01 0.  1.
         -4    1    1    2    0  501 -0.13700700493E+01  0.10557339168E+01  0.39048272451E+01  0.44555854674E+01  0.12700000000E+01 0. -1.
<mgrwt>
<rscale>  0 0.21458253E+01</rscale>
<asrwt>0</asrwt>
<pdfrwt beam="1">0</pdfrwt>
<pdfrwt beam="2">0</pdfrwt>
<totfact> 0.83460638E+11</totfact>
</mgrwt>
</event>
<event>
 4    1  0.3102735E+006  0.2000924E+01  0.7546771E-02  0.2980106E+00
         22   -1    0    0    0    0  0.00000000000E+00  0.00000000000E+00  0.73584751051E+00  0.73584751051E+00  0.00000000000E+00 0. -1.
         22   -1    0    0    0    0 -0.00000000000E+00 -0.00000000000E+00 -0.97164869211E+01  0.97164869211E+01  0.00000000000E+00 0.  1.
          4    1    1    2  501    0  0.68323635682E+00  0.13870773429E+01 -0.79570891925E+01  0.82048134587E+01  0.12700000000E+01 0. -1.
         -4    1    1    2    0  501 -0.68323635682E+00 -0.13870773429E+01 -0.10235502180E+01  0.22475209729E+01  0.12700000000E+01 0. -1.
<mgrwt>
<rscale>  0 0.20009237E+01</rscale>
<asrwt>0</asrwt>
<pdfrwt beam="1">0</pdfrwt>
<pdfrwt beam="2">0</pdfrwt>
<totfact> 0.23297849E+12</totfact>
</mgrwt>
</event>
<event>
 4    1  0.3102735E+006  0.2317518E+01  0.7546771E-02  0.2794890E+00
         22   -1    0    0    0    0  0.00000000000E+00  0.00000000000E+00  0.79360369344E+00  0.79360369344E+00  0.00000000000E+00 0. -1.
         22   -1    0    0    0    0 -0.00000000000E+00 -0.00000000000E+00 -0.70148511993E+01  0.70148511993E+01  0.00000000000E+00 0. -1.
          4    1    1    2  501    0 -0.11409535657E+01 -0.15672320791E+01 -0.38434236752E+01  0.44880727463E+01  0.12700000000E+01 0. -1.
         -4    1    1    2    0  501  0.11409535657E+01  0.15672320791E+01 -0.23778238307E+01  0.33203821464E+01  0.12700000000E+01 0. -1.
<mgrwt>
<rscale>  0 0.23175184E+01</rscale>
<asrwt>0</asrwt>
<pdfrwt beam="1">0</pdfrwt>
<pdfrwt beam="2">0</pdfrwt>
<totfact> 0.31639537E+12</totfact>
</mgrwt>
</event>
<event>
 4    1  0.3102735E+006  0.2259601E+01  0.7546771E-02  0.2825044E+00
         22   -1    0    0    0    0  0.00000000000E+00  0.00000000000E+00  0.37946000903E+01  0.37946000903E+01  0.00000000000E+00 0.  1.
         22   -1    0    0    0    0 -0.00000000000E+00 -0.00000000000E+00 -0.15794102622E+01  0.15794102622E+01  0.00000000000E+00 0.  1.
          4    1    1    2  501    0 -0.92790839761E-01  0.18666238885E+01  0.73628567004E-01  0.22607998688E+01  0.12700000000E+01 0.  1.
         -4    1    1    2    0  501  0.92790839761E-01 -0.18666238885E+01  0.21415612611E+01  0.31132104837E+01  0.12700000000E+01 0.  1.
<mgrwt>
<rscale>  0 0.22596006E+01</rscale>
<asrwt>0</asrwt>
<pdfrwt beam="1">0</pdfrwt>
<pdfrwt beam="2">0</pdfrwt>
<totfact> 0.29817428E+12</totfact>
</mgrwt>
</event>
<event>
 4    1  0.3102735E+006  0.4170594E+01  0.7546771E-02  0.2245825E+00
         22   -1    0    0    0    0  0.00000000000E+00  0.00000000000E+00  0.16736016533E+01  0.16736016533E+01  0.00000000000E+00 0.  1.
         22   -1    0    0    0    0 -0.00000000000E+00 -0.00000000000E+00 -0.28301050561E+02  0.28301050561E+02  0.00000000000E+00 0. -1.
          4    1    1    2  501    0 -0.35301892951E+01  0.18217351011E+01 -0.25235644747E+02  0.25577951854E+02  0.12700000000E+01 0. -1.
         -4    1    1    2    0  501  0.35301892951E+01 -0.18217351011E+01 -0.13918041606E+01  0.43967003604E+01  0.12700000000E+01 0.  1.
<mgrwt>
<rscale>  0 0.41705941E+01</rscale>
<asrwt>0</asrwt>
<pdfrwt beam="1">0</pdfrwt>
<pdfrwt beam="2">0</pdfrwt>
<totfact> 0.24240867E+11</totfact>
</mgrwt>
</event>
<event>
 4    1  0.3102735E+006  0.2690306E+01  0.7546771E-02  0.2630145E+00
         22   -1    0    0    0    0  0.00000000000E+00  0.00000000000E+00  0.11336562534E+01  0.11336562534E+01  0.00000000000E+00 0.  1.
         22   -1    0    0    0    0 -0.00000000000E+00 -0.00000000000E+00 -0.70606046380E+01  0.70606046380E+01  0.00000000000E+00 0. -1.
          4    1    1    2  501    0  0.23367635759E+01 -0.40543860581E+00 -0.42313875111E+01  0.50142182583E+01  0.12700000000E+01 0. -1.
         -4    1    1    2    0  501 -0.23367635759E+01  0.40543860581E+00 -0.16955608736E+01  0.31800426331E+01  0.12700000000E+01 0.  1.
<mgrwt>
<rscale>  0 0.26903056E+01</rscale>
<asrwt>0</asrwt>
<pdfrwt beam="1">0</pdfrwt>
<pdfrwt beam="2">0</pdfrwt>
<totfact> 0.20900702E+12</totfact>
</mgrwt>
</event>
<event>
 4    1  0.3102735E+006  0.3376528E+01  0.7546771E-02  0.2415104E+00
         22   -1    0    0    0    0  0.00000000000E+00  0.00000000000E+00  0.51909749540E+02  0.51909749540E+02  0.00000000000E+00 0. -1.
         22   -1    0    0    0    0 -0.00000000000E+00 -0.00000000000E+00 -0.47099835911E+00  0.47099835911E+00  0.00000000000E+00 0.  1.
          4    1    1    2  501    0 -0.14070906521E+01  0.27943044430E+01  0.65861912719E+01  0.74012740047E+01  0.12700000000E+01 0.  1.
         -4    1    1    2    0  501  0.14070906521E+01 -0.27943044430E+01  0.44852559909E+02  0.44979473895E+02  0.12700000000E+01 0. -1.
<mgrwt>
<rscale>  0 0.33765280E+01</rscale>
<asrwt>0</asrwt>
<pdfrwt beam="1">0</pdfrwt>
<pdfrwt beam="2">0</pdfrwt>
<totfact> 0.46894309E+11</totfact>
</mgrwt>
</event>
<event>
 4    1  0.3102735E+006  0.3916082E+01  0.7546771E-02  0.2293628E+00
         22   -1    0    0    0    0  0.00000000000E+00  0.00000000000E+00  0.21178983170E+01  0.21178983170E+01  0.00000000000E+00 0. -1.
         22   -1    0    0    0    0 -0.00000000000E+00 -0.00000000000E+00 -0.92535518875E+01  0.92535518875E+01  0.00000000000E+00 0.  1.
          4    1    1    2  501    0  0.77722304222E-01  0.37036139047E+01 -0.62194109935E+01  0.73496101813E+01  0.12700000000E+01 0.  1.
         -4    1    1    2    0  501 -0.77722304222E-01 -0.37036139047E+01 -0.91624257698E+00  0.40218400231E+01  0.12700000000E+01 0. -1.
<mgrwt>
<rscale>  0 0.39160818E+01</rscale>
<asrwt>0</asrwt>
<pdfrwt beam="1">0</pdfrwt>
<pdfrwt beam="2">0</pdfrwt>
<totfact> 0.73527056E+11</totfact>
</mgrwt>
</event>
<event>
 4    1  0.3102735E+006  0.2741153E+01  0.7546771E-02  0.2610901E+00
         22   -1    0    0    0    0  0.00000000000E+00  0.00000000000E+00  0.13433331536E+00  0.13433331536E+00  0.00000000000E+00 0. -1.
         22   -1    0    0    0    0 -0.00000000000E+00 -0.00000000000E+00 -0.97570811029E+02  0.97570811029E+02  0.00000000000E+00 0. -1.
          4    1    1    2  501    0 -0.19976308384E+01  0.13822060253E+01 -0.80630783814E+02  0.80677364985E+02  0.12700000000E+01 0. -1.
         -4    1    1    2    0  501  0.19976308384E+01 -0.13822060253E+01 -0.16805693900E+02  0.17027779360E+02  0.12700000000E+01 0. -1.
<mgrwt>
<rscale>  0 0.27411535E+01</rscale>
<asrwt>0</asrwt>
<pdfrwt beam="1">0</pdfrwt>
<pdfrwt beam="2">0</pdfrwt>
<totfact> 0.80892245E+11</totfact>
</mgrwt>
</event>
<event>
 4    1  0.3102735E+006  0.2261247E+01  0.7546771E-02  0.2824167E+00
         22   -1    0    0    0    0  0.00000000000E+00  0.00000000000E+00  0.21447336153E+01  0.21447336153E+01  0.00000000000E+00 0. -1.
         22   -1    0    0    0    0 -0.00000000000E+00 -0.00000000000E+00 -0.45505313955E+01  0.45505313955E+01  0.00000000000E+00 0.  1.
          4    1    1    2  501    0  0.20251741745E+00  0.18599261296E+01 -0.35127296781E+01  0.41776199329E+01  0.12700000000E+01 0.  1.
         -4    1    1    2    0  501 -0.20251741745E+00 -0.18599261296E+01  0.11069318979E+01  0.25176450779E+01  0.12700000000E+01 0. -1.
<mgrwt>
<rscale>  0 0.22612471E+01</rscale>
<asrwt>0</asrwt>
<pdfrwt beam="1">0</pdfrwt>
<pdfrwt beam="2">0</pdfrwt>
<totfact> 0.16904386E+12</totfact>
</mgrwt>
</event>
<event>
 4    1  0.3102735E+006  0.2084086E+01  0.7546771E-02  0.2926191E+00
         22   -1    0    0    0    0  0.00000000000E+00  0.00000000000E+00  0.83760493770E+01  0.83760493770E+01  0.00000000000E+00 0.  1.
         22   -1    0    0    0    0 -0.00000000000E+00 -0.00000000000E+00 -0.84460798570E+00  0.84460798570E+00  0.00000000000E+00 0. -1.
          4    1    1    2  501    0  0.12963910245E+01  0.10246388189E+01  0.90120896724E+00  0.22705928742E+01  0.12700000000E+01 0. -1.
         -4    1    1    2    0  501 -0.12963910245E+01 -0.10246388189E+01  0.66302324241E+01  0.69500644886E+01  0.12700000000E+01 0.  1.
<mgrwt>
<rscale>  0 0.20840860E+01</rscale>
<asrwt>0</asrwt>
<pdfrwt beam="1">0</pdfrwt>
<pdfrwt beam="2">0</pdfrwt>
<totfact> 0.23824244E+12</totfact>
</mgrwt>
</event>
<event>
 4    1  0.3102735E+006  0.2168030E+01  0.7546771E-02  0.2875850E+00
         22   -1    0    0    0    0  0.00000000000E+00  0.00000000000E+00  0.22537019662E+01  0.22537019662E+01  0.00000000000E+00 0. -1.
         22   -1    0    0    0    0 -0.00000000000E+00 -0.00000000000E+00 -0.20875520864E+01  0.20875520864E+01  0.00000000000E+00 0.  1.
          4    1    1    2  501    0  0.84986827753E+00 -0.15379131631E+01  0.14920860740E+00  0.21731581155E+01  0.12700000000E+01 0. -1.
         -4    1    1    2    0  501 -0.84986827753E+00  0.15379131631E+01  0.16941272414E-01  0.21680959372E+01  0.12700000000E+01 0.  1.
<mgrwt>
<rscale>  0 0.21680297E+01</rscale>
<asrwt>0</asrwt>
<pdfrwt beam="1">0</pdfrwt>
<pdfrwt beam="2">0</pdfrwt>
<totfact> 0.39693270E+12</totfact>
</mgrwt>
</event>
<event>
 4    1  0.3102735E+006  0.2161631E+01  0.7546771E-02  0.2879554E+00
         22   -1    0    0    0    0  0.00000000000E+00  0.00000000000E+00  0.11821857748E+02  0.11821857748E+02  0.00000000000E+00 0.  1.
         22   -1    0    0    0    0 -0.00000000000E+00 -0.00000000000E+00 -0.39535708930E+00  0.39535708930E+00  0.00000000000E+00 0.  1.
          4    1    1    2  501    0  0.16272527038E+01  0.64171581455E+00  0.56151777081E+01  0.60168821861E+01  0.12700000000E+01 0.  1.
         -4    1    1    2    0  501 -0.16272527038E+01 -0.64171581455E+00  0.58113229506E+01  0.62003326511E+01  0.12700000000E+01 0.  1.
<mgrwt>
<rscale>  0 0.21616315E+01</rscale>
<asrwt>0</asrwt>
<pdfrwt beam="1">0</pdfrwt>
<pdfrwt beam="2">0</pdfrwt>
<totfact> 0.37064712E+12</totfact>
</mgrwt>
</event>
<event>
 4    1  0.3102735E+006  0.2163573E+01  0.7546771E-02  0.2878428E+00
         22   -1    0    0    0    0  0.00000000000E+00  0.00000000000E+00  0.44484824257E+02  0.44484824257E+02  0.00000000000E+00 0.  1.
         22   -1    0    0    0    0 -0.00000000000E+00 -0.00000000000E+00 -0.23151193320E+00  0.23151193320E+00  0.00000000000E+00 0. -1.
          4    1    1    2  501    0 -0.15845304664E+01  0.74659839579E+00  0.56137430060E+01  0.60162410607E+01  0.12700000000E+01 0. -1.
         -4    1    1    2    0  501  0.15845304664E+01 -0.74659839579E+00  0.38639569318E+02  0.38700095130E+02  0.12700000000E+01 0.  1.
<mgrwt>
<rscale>  0 0.21635725E+01</rscale>
<asrwt>0</asrwt>
<pdfrwt beam="1">0</pdfrwt>
<pdfrwt beam="2">0</pdfrwt>
<totfact> 0.12750841E+12</totfact>
</mgrwt>
</event>
<event>
 4    1  0.3102735E+006  0.2119820E+01  0.7546771E-02  0.2904290E+00
         22   -1    0    0    0    0  0.00000000000E+00  0.00000000000E+00  0.22411227498E+01  0.22411227498E+01  0.00000000000E+00 0. -1.
         22   -1    0    0    0    0 -0.00000000000E+00 -0.00000000000E+00 -0.20371150021E+01  0.20371150021E+01  0.00000000000E+00 0. -1.
          4    1    1    2  501    0 -0.52356263926E+00  0.16145031758E+01 -0.16623116759E+00  0.21263280892E+01  0.12700000000E+01 0. -1.
         -4    1    1    2    0  501  0.52356263926E+00 -0.16145031758E+01  0.37023891531E+00  0.21519096627E+01  0.12700000000E+01 0. -1.
<mgrwt>
<rscale>  0 0.21198204E+01</rscale>
<asrwt>0</asrwt>
<pdfrwt beam="1">0</pdfrwt>
<pdfrwt beam="2">0</pdfrwt>
<totfact> 0.41099363E+12</totfact>
</mgrwt>
</event>
<event>
 4    1  0.3102735E+006  0.2240160E+01  0.7546771E-02  0.2835499E+00
         22   -1    0    0    0    0  0.00000000000E+00  0.00000000000E+00  0.24366750729E+01  0.24366750729E+01  0.00000000000E+00 0.  1.
         22   -1    0    0    0    0 -0.00000000000E+00 -0.00000000000E+00 -0.20612810848E+01  0.20612810848E+01  0.00000000000E+00 0. -1.
          4    1    1    2  501    0 -0.17334482587E+01 -0.63290890877E+00  0.12146832289E+00  0.22434507140E+01  0.12700000000E+01 0. -1.
         -4    1    1    2    0  501  0.17334482587E+01  0.63290890877E+00  0.25392566524E+00  0.22545054438E+01  0.12700000000E+01 0.  1.
<mgrwt>
<rscale>  0 0.22401599E+01</rscale>
<asrwt>0</asrwt>
<pdfrwt beam="1">0</pdfrwt>
<pdfrwt beam="2">0</pdfrwt>
<totfact> 0.36789026E+12</totfact>
</mgrwt>
</event>
<event>
 4    1  0.3102735E+006  0.2871215E+01  0.7546771E-02  0.2564513E+00
         22   -1    0    0    0    0  0.00000000000E+00  0.00000000000E+00  0.38094824570E+00  0.38094824570E+00  0.00000000000E+00 0. -1.
         22   -1    0    0    0    0 -0.00000000000E+00 -0.00000000000E+00 -0.21793914014E+02  0.21793914014E+02  0.00000000000E+00 0.  1.
          4    1    1    2  501    0  0.10895491743E+01  0.23332074439E+01 -0.11637012161E+02  0.11985988754E+02  0.12700000000E+01 0.  1.
         -4    1    1    2    0  501 -0.10895491743E+01 -0.23332074439E+01 -0.97759536071E+01  0.10188873505E+02  0.12700000000E+01 0. -1.
<mgrwt>
<rscale>  0 0.28712148E+01</rscale>
<asrwt>0</asrwt>
<pdfrwt beam="1">0</pdfrwt>
<pdfrwt beam="2">0</pdfrwt>
<totfact> 0.18161125E+12</totfact>
</mgrwt>
</event>
<event>
 4    1  0.3102735E+006  0.2543400E+01  0.7546771E-02  0.2689700E+00
         22   -1    0    0    0    0  0.00000000000E+00  0.00000000000E+00  0.19275250502E+00  0.19275250502E+00  0.00000000000E+00 0.  1.
         22   -1    0    0    0    0 -0.00000000000E+00 -0.00000000000E+00 -0.35057432435E+02  0.35057432435E+02  0.00000000000E+00 0. -1.
          4    1    1    2  501    0  0.34198374793E+00  0.21769314726E+01 -0.13790401446E+02  0.14022983119E+02  0.12700000000E+01 0.  1.
         -4    1    1    2    0  501 -0.34198374793E+00 -0.21769314726E+01 -0.21074278484E+02  0.21227201821E+02  0.12700000000E+01 0. -1.
<mgrwt>
<rscale>  0 0.25434000E+01</rscale>
<asrwt>0</asrwt>
<pdfrwt beam="1">0</pdfrwt>
<pdfrwt beam="2">0</pdfrwt>
<totfact> 0.21307201E+12</totfact>
</mgrwt>
</event>
<event>
 4    1  0.3102735E+006  0.2042989E+01  0.7546771E-02  0.2952298E+00
         22   -1    0    0    0    0  0.00000000000E+00  0.00000000000E+00  0.36271219651E+02  0.36271219651E+02  0.00000000000E+00 0. -1.
         22   -1    0    0    0    0 -0.00000000000E+00 -0.00000000000E+00 -0.17426665802E+00  0.17426665802E+00  0.00000000000E+00 0. -1.
          4    1    1    2  501    0  0.61621202880E+00  0.14768841558E+01  0.74279112993E+01  0.77037439174E+01  0.12700000000E+01 0. -1.
         -4    1    1    2    0  501 -0.61621202880E+00 -0.14768841558E+01  0.28669041694E+02  0.28741742392E+02  0.12700000000E+01 0. -1.
<mgrwt>
<rscale>  0 0.20429890E+01</rscale>
<asrwt>0</asrwt>
<pdfrwt beam="1">0</pdfrwt>
<pdfrwt beam="2">0</pdfrwt>
<totfact> 0.22815928E+12</totfact>
</mgrwt>
</event>
<event>
 4    1  0.3102735E+006  0.2683125E+01  0.7546771E-02  0.2632917E+00
         22   -1    0    0    0    0  0.00000000000E+00  0.00000000000E+00  0.14881742141E+02  0.14881742141E+02  0.00000000000E+00 0.  1.
         22   -1    0    0    0    0 -0.00000000000E+00 -0.00000000000E+00 -0.68559268526E+00  0.68559268526E+00  0.00000000000E+00 0. -1.
          4    1    1    2  501    0  0.22540071072E+01 -0.71113235123E+00  0.28747992257E+01  0.39323819561E+01  0.12700000000E+01 0. -1.
         -4    1    1    2    0  501 -0.22540071072E+01  0.71113235123E+00  0.11321350230E+02  0.11634952870E+02  0.12700000000E+01 0.  1.
<mgrwt>
<rscale>  0 0.26831245E+01</rscale>
<asrwt>0</asrwt>
<pdfrwt beam="1">0</pdfrwt>
<pdfrwt beam="2">0</pdfrwt>
<totfact> 0.15012228E+12</totfact>
</mgrwt>
</event>
<event>
 4    1  0.3102735E+006  0.2219227E+01  0.7546771E-02  0.2846950E+00
         22   -1    0    0    0    0  0.00000000000E+00  0.00000000000E+00  0.43446718025E+00  0.43446718025E+00  0.00000000000E+00 0. -1.
         22   -1    0    0    0    0 -0.00000000000E+00 -0.00000000000E+00 -0.11953262595E+02  0.11953262595E+02  0.00000000000E+00 0.  1.
          4    1    1    2  501    0  0.93729089589E+00  0.15599852419E+01 -0.71673123866E+01  0.75030217263E+01  0.12700000000E+01 0.  1.
         -4    1    1    2    0  501 -0.93729089589E+00 -0.15599852419E+01 -0.43514830278E+01  0.48847080485E+01  0.12700000000E+01 0. -1.
<mgrwt>
<rscale>  0 0.22192269E+01</rscale>
<asrwt>0</asrwt>
<pdfrwt beam="1">0</pdfrwt>
<pdfrwt beam="2">0</pdfrwt>
<totfact> 0.32883466E+12</totfact>
</mgrwt>
</event>
<event>
 4    1  0.3102735E+006  0.2117675E+01  0.7546771E-02  0.2905584E+00
         22   -1    0    0    0    0  0.00000000000E+00  0.00000000000E+00  0.44080413022E+01  0.44080413022E+01  0.00000000000E+00 0. -1.
         22   -1    0    0    0    0 -0.00000000000E+00 -0.00000000000E+00 -0.13287802759E+01  0.13287802759E+01  0.00000000000E+00 0.  1.
          4    1    1    2  501    0 -0.16737590837E+01 -0.26491119599E+00  0.15098636083E+00  0.21230507043E+01  0.12700000000E+01 0.  1.
         -4    1    1    2    0  501  0.16737590837E+01  0.26491119599E+00  0.29282746655E+01  0.36137708738E+01  0.12700000000E+01 0. -1.
<mgrwt>
<rscale>  0 0.21176750E+01</rscale>
<asrwt>0</asrwt>
<pdfrwt beam="1">0</pdfrwt>
<pdfrwt beam="2">0</pdfrwt>
<totfact> 0.30487102E+12</totfact>
</mgrwt>
</event>
<event>
 4    1  0.3102735E+006  0.3894082E+01  0.7546771E-02  0.2298010E+00
         22   -1    0    0    0    0  0.00000000000E+00  0.00000000000E+00  0.49362440704E+01  0.49362440704E+01  0.00000000000E+00 0. -1.
         22   -1    0    0    0    0 -0.00000000000E+00 -0.00000000000E+00 -0.51831228648E+01  0.51831228648E+01  0.00000000000E+00 0.  1.
          4    1    1    2  501    0  0.34802092697E+01 -0.11996311938E+01 -0.33526025025E+01  0.51384642747E+01  0.12700000000E+01 0.  1.
         -4    1    1    2    0  501 -0.34802092697E+01  0.11996311938E+01  0.31057237081E+01  0.49809026605E+01  0.12700000000E+01 0. -1.
<mgrwt>
<rscale>  0 0.38940816E+01</rscale>
<asrwt>0</asrwt>
<pdfrwt beam="1">0</pdfrwt>
<pdfrwt beam="2">0</pdfrwt>
<totfact> 0.54612107E+11</totfact>
</mgrwt>
</event>
<event>
 4    1  0.3102735E+006  0.6993273E+01  0.7546771E-02  0.1940606E+00
         22   -1    0    0    0    0  0.00000000000E+00  0.00000000000E+00  0.57496784336E+00  0.57496784336E+00  0.00000000000E+00 0.  1.
         22   -1    0    0    0    0 -0.00000000000E+00 -0.00000000000E+00 -0.85607071780E+02  0.85607071780E+02  0.00000000000E+00 0. -1.
          4    1    1    2  501    0  0.25638469949E+01 -0.63811954918E+01 -0.39066419968E+02  0.39687416600E+02  0.12700000000E+01 0.  1.
         -4    1    1    2    0  501 -0.25638469949E+01  0.63811954918E+01 -0.45965683969E+02  0.46494623023E+02  0.12700000000E+01 0. -1.
<mgrwt>
<rscale>  0 0.69932730E+01</rscale>
<asrwt>0</asrwt>
<pdfrwt beam="1">0</pdfrwt>
<pdfrwt beam="2">0</pdfrwt>
<totfact> 0.19036604E+11</totfact>
</mgrwt>
</event>
<event>
 4    1  0.3102735E+006  0.2312721E+01  0.7546771E-02  0.2797334E+00
         22   -1    0    0    0    0  0.00000000000E+00  0.00000000000E+00  0.16092880927E+01  0.16092880927E+01  0.00000000000E+00 0.  1.
         22   -1    0    0    0    0 -0.00000000000E+00 -0.00000000000E+00 -0.55154811117E+01  0.55154811117E+01  0.00000000000E+00 0. -1.
          4    1    1    2  501    0 -0.65987119020E+00 -0.18166857227E+01 -0.41988118302E+01  0.47936100997E+01  0.12700000000E+01 0. -1.
         -4    1    1    2    0  501  0.65987119020E+00  0.18166857227E+01  0.29261881121E+00  0.23311591047E+01  0.12700000000E+01 0.  1.
<mgrwt>
<rscale>  0 0.23127207E+01</rscale>
<asrwt>0</asrwt>
<pdfrwt beam="1">0</pdfrwt>
<pdfrwt beam="2">0</pdfrwt>
<totfact> 0.18761362E+12</totfact>
</mgrwt>
</event>
<event>
 4    1  0.3102735E+006  0.4195154E+01  0.7546771E-02  0.2241473E+00
         22   -1    0    0    0    0  0.00000000000E+00  0.00000000000E+00  0.73207395490E+01  0.73207395490E+01  0.00000000000E+00 0.  1.
         22   -1    0    0    0    0 -0.00000000000E+00 -0.00000000000E+00 -0.25640327444E+01  0.25640327444E+01  0.00000000000E+00 0. -1.
          4    1    1    2  501    0  0.43125158937E+00 -0.39749765857E+01  0.11437390487E+01  0.43482704379E+01  0.12700000000E+01 0. -1.
         -4    1    1    2    0  501 -0.43125158937E+00  0.39749765857E+01  0.36129677559E+01  0.55365018554E+01  0.12700000000E+01 0.  1.
<mgrwt>
<rscale>  0 0.41951540E+01</rscale>
<asrwt>0</asrwt>
<pdfrwt beam="1">0</pdfrwt>
<pdfrwt beam="2">0</pdfrwt>
<totfact> 0.78055665E+11</totfact>
</mgrwt>
</event>
<event>
 4    1  0.3102735E+006  0.3729152E+01  0.7546771E-02  0.2332264E+00
         22   -1    0    0    0    0  0.00000000000E+00  0.00000000000E+00  0.40465089671E+01  0.40465089671E+01  0.00000000000E+00 0. -1.
         22   -1    0    0    0    0 -0.00000000000E+00 -0.00000000000E+00 -0.10346357751E+02  0.10346357751E+02  0.00000000000E+00 0.  1.
          4    1    1    2  501    0  0.13136588186E+01  0.32508422678E+01  0.27310909930E+01  0.46222757332E+01  0.12700000000E+01 0.  1.
         -4    1    1    2    0  501 -0.13136588186E+01 -0.32508422678E+01 -0.90309397765E+01  0.97705909846E+01  0.12700000000E+01 0. -1.
<mgrwt>
<rscale>  0 0.37291520E+01</rscale>
<asrwt>0</asrwt>
<pdfrwt beam="1">0</pdfrwt>
<pdfrwt beam="2">0</pdfrwt>
<totfact> 0.30162807E+11</totfact>
</mgrwt>
</event>
<event>
 4    1  0.3102735E+006  0.4200240E+01  0.7546771E-02  0.2240578E+00
         22   -1    0    0    0    0  0.00000000000E+00  0.00000000000E+00  0.18191397189E+01  0.18191397189E+01  0.00000000000E+00 0. -1.
         22   -1    0    0    0    0 -0.00000000000E+00 -0.00000000000E+00 -0.96987403303E+01  0.96987403303E+01  0.00000000000E+00 0.  1.
          4    1    1    2  501    0  0.39716403206E+01 -0.50515900537E+00 -0.39902000098E+01  0.57934194199E+01  0.12700000000E+01 0.  1.
         -4    1    1    2    0  501 -0.39716403206E+01  0.50515900537E+00 -0.38894006016E+01  0.57244606293E+01  0.12700000000E+01 0. -1.
<mgrwt>
<rscale>  0 0.42002396E+01</rscale>
<asrwt>0</asrwt>
<pdfrwt beam="1">0</pdfrwt>
<pdfrwt beam="2">0</pdfrwt>
<totfact> 0.82830857E+11</totfact>
</mgrwt>
</event>
<event>
 4    1  0.3102735E+006  0.2591843E+01  0.7546771E-02  0.2669374E+00
         22   -1    0    0    0    0  0.00000000000E+00  0.00000000000E+00  0.22428171731E+01  0.22428171731E+01  0.00000000000E+00 0. -1.
         22   -1    0    0    0    0 -0.00000000000E+00 -0.00000000000E+00 -0.31131729718E+01  0.31131729718E+01  0.00000000000E+00 0.  1.
          4    1    1    2  501    0 -0.18147947003E+01 -0.13458335054E+01 -0.95652971917E+00  0.27627154635E+01  0.12700000000E+01 0. -1.
         -4    1    1    2    0  501  0.18147947003E+01  0.13458335054E+01  0.86173920481E-01  0.25932746814E+01  0.12700000000E+01 0.  1.
<mgrwt>
<rscale>  0 0.25918425E+01</rscale>
<asrwt>0</asrwt>
<pdfrwt beam="1">0</pdfrwt>
<pdfrwt beam="2">0</pdfrwt>
<totfact> 0.25071951E+12</totfact>
</mgrwt>
</event>
<event>
 4    1  0.3102735E+006  0.2262420E+01  0.7546771E-02  0.2823543E+00
         22   -1    0    0    0    0  0.00000000000E+00  0.00000000000E+00  0.37526818933E+02  0.37526818933E+02  0.00000000000E+00 0.  1.
         22   -1    0    0    0    0 -0.00000000000E+00 -0.00000000000E+00 -0.18771296304E+00  0.18771296304E+00  0.00000000000E+00 0. -1.
          4    1    1    2  501    0  0.18711814093E+01  0.65749804834E-01  0.88099794444E+01  0.90958386482E+01  0.12700000000E+01 0. -1.
         -4    1    1    2    0  501 -0.18711814093E+01 -0.65749804834E-01  0.28529126526E+02  0.28618693248E+02  0.12700000000E+01 0.  1.
<mgrwt>
<rscale>  0 0.22624197E+01</rscale>
<asrwt>0</asrwt>
<pdfrwt beam="1">0</pdfrwt>
<pdfrwt beam="2">0</pdfrwt>
<totfact> 0.20101121E+12</totfact>
</mgrwt>
</event>
<event>
 4    1  0.3102735E+006  0.5173011E+01  0.7546771E-02  0.2102902E+00
         22   -1    0    0    0    0  0.00000000000E+00  0.00000000000E+00  0.21397553416E+02  0.21397553416E+02  0.00000000000E+00 0. -1.
         22   -1    0    0    0    0 -0.00000000000E+00 -0.00000000000E+00 -0.12876729976E+01  0.12876729976E+01  0.00000000000E+00 0.  1.
          4    1    1    2  501    0  0.31616270586E+01  0.38924618761E+01  0.81306672424E+01  0.96367938092E+01  0.12700000000E+01 0.  1.
         -4    1    1    2    0  501 -0.31616270586E+01 -0.38924618761E+01  0.11979213176E+02  0.13048432604E+02  0.12700000000E+01 0. -1.
<mgrwt>
<rscale>  0 0.51730112E+01</rscale>
<asrwt>0</asrwt>
<pdfrwt beam="1">0</pdfrwt>
<pdfrwt beam="2">0</pdfrwt>
<totfact> 0.46617721E+11</totfact>
</mgrwt>
</event>
<event>
 4    1  0.3102735E+006  0.2108648E+01  0.7546771E-02  0.2911060E+00
         22   -1    0    0    0    0  0.00000000000E+00  0.00000000000E+00  0.23962313559E+01  0.23962313559E+01  0.00000000000E+00 0. -1.
         22   -1    0    0    0    0 -0.00000000000E+00 -0.00000000000E+00 -0.35106901363E+01  0.35106901363E+01  0.00000000000E+00 0. -1.
          4    1    1    2  501    0  0.10932688119E+01  0.12799456950E+01 -0.25851384436E+01  0.33360663137E+01  0.12700000000E+01 0. -1.
         -4    1    1    2    0  501 -0.10932688119E+01 -0.12799456950E+01  0.14706796632E+01  0.25708551785E+01  0.12700000000E+01 0. -1.
<mgrwt>
<rscale>  0 0.21086483E+01</rscale>
<asrwt>0</asrwt>
<pdfrwt beam="1">0</pdfrwt>
<pdfrwt beam="2">0</pdfrwt>
<totfact> 0.20168747E+12</totfact>
</mgrwt>
</event>
<event>
 4    1  0.3102735E+006  0.3290345E+01  0.7546771E-02  0.2437694E+00
         22   -1    0    0    0    0  0.00000000000E+00  0.00000000000E+00  0.92954824815E+01  0.92954824815E+01  0.00000000000E+00 0. -1.
         22   -1    0    0    0    0 -0.00000000000E+00 -0.00000000000E+00 -0.16061943117E+01  0.16061943117E+01  0.00000000000E+00 0.  1.
          4    1    1    2  501    0 -0.27703644902E+01  0.12403825367E+01  0.98684913476E+00  0.34351476621E+01  0.12700000000E+01 0.  1.
         -4    1    1    2    0  501  0.27703644902E+01 -0.12403825367E+01  0.67024390350E+01  0.74665291310E+01  0.12700000000E+01 0. -1.
<mgrwt>
<rscale>  0 0.32903447E+01</rscale>
<asrwt>0</asrwt>
<pdfrwt beam="1">0</pdfrwt>
<pdfrwt beam="2">0</pdfrwt>
<totfact> 0.10066011E+12</totfact>
</mgrwt>
</event>
<event>
 4    1  0.3102735E+006  0.2125097E+01  0.7546771E-02  0.2901116E+00
         22   -1    0    0    0    0  0.00000000000E+00  0.00000000000E+00  0.27819269044E+00  0.27819269044E+00  0.00000000000E+00 0.  1.
         22   -1    0    0    0    0 -0.00000000000E+00 -0.00000000000E+00 -0.56164920671E+02  0.56164920671E+02  0.00000000000E+00 0. -1.
          4    1    1    2  501    0  0.19473333210E+00 -0.16926951166E+01 -0.51739466667E+02  0.51783090375E+02  0.12700000000E+01 0. -1.
         -4    1    1    2    0  501 -0.19473333210E+00  0.16926951166E+01 -0.41472613133E+01  0.46600229859E+01  0.12700000000E+01 0.  1.
<mgrwt>
<rscale>  0 0.21250971E+01</rscale>
<asrwt>0</asrwt>
<pdfrwt beam="1">0</pdfrwt>
<pdfrwt beam="2">0</pdfrwt>
<totfact> 0.76335212E+11</totfact>
</mgrwt>
</event>
<event>
 4    1  0.3102735E+006  0.3648000E+01  0.7546771E-02  0.2350093E+00
         22   -1    0    0    0    0  0.00000000000E+00  0.00000000000E+00  0.30322892843E+01  0.30322892843E+01  0.00000000000E+00 0.  1.
         22   -1    0    0    0    0 -0.00000000000E+00 -0.00000000000E+00 -0.52973194116E+01  0.52973194116E+01  0.00000000000E+00 0. -1.
          4    1    1    2  501    0  0.33434184639E+01 -0.71871833228E+00 -0.28573599099E+01  0.46338330484E+01  0.12700000000E+01 0. -1.
         -4    1    1    2    0  501 -0.33434184639E+01  0.71871833228E+00  0.59232978263E+00  0.36957756475E+01  0.12700000000E+01 0.  1.
<mgrwt>
<rscale>  0 0.36479999E+01</rscale>
<asrwt>0</asrwt>
<pdfrwt beam="1">0</pdfrwt>
<pdfrwt beam="2">0</pdfrwt>
<totfact> 0.94384362E+11</totfact>
</mgrwt>
</event>
<event>
 4    1  0.3102735E+006  0.4568767E+01  0.7546771E-02  0.2180187E+00
         22   -1    0    0    0    0  0.00000000000E+00  0.00000000000E+00  0.15190149614E+01  0.15190149614E+01  0.00000000000E+00 0. -1.
         22   -1    0    0    0    0 -0.00000000000E+00 -0.00000000000E+00 -0.13746345174E+02  0.13746345174E+02  0.00000000000E+00 0.  1.
          4    1    1    2  501    0  0.15907152636E+01  0.40902760068E+01 -0.62560956515E+01  0.77467648514E+01  0.12700000000E+01 0. -1.
         -4    1    1    2    0  501 -0.15907152636E+01 -0.40902760068E+01 -0.59712345615E+01  0.75185952844E+01  0.12700000000E+01 0.  1.
<mgrwt>
<rscale>  0 0.45687671E+01</rscale>
<asrwt>0</asrwt>
<pdfrwt beam="1">0</pdfrwt>
<pdfrwt beam="2">0</pdfrwt>
<totfact> 0.66687760E+11</totfact>
</mgrwt>
</event>
<event>
 4    1  0.3102735E+006  0.3064004E+01  0.7546771E-02  0.2502333E+00
         22   -1    0    0    0    0  0.00000000000E+00  0.00000000000E+00  0.54349695737E+02  0.54349695737E+02  0.00000000000E+00 0. -1.
         22   -1    0    0    0    0 -0.00000000000E+00 -0.00000000000E+00 -0.40852249227E+00  0.40852249227E+00  0.00000000000E+00 0.  1.
          4    1    1    2  501    0  0.14900420113E+01  0.23569034223E+01  0.61702052800E+01  0.68890893545E+01  0.12700000000E+01 0.  1.
         -4    1    1    2    0  501 -0.14900420113E+01 -0.23569034223E+01  0.47770967965E+02  0.47869128875E+02  0.12700000000E+01 0. -1.
<mgrwt>
<rscale>  0 0.30640037E+01</rscale>
<asrwt>0</asrwt>
<pdfrwt beam="1">0</pdfrwt>
<pdfrwt beam="2">0</pdfrwt>
<totfact> 0.51801535E+11</totfact>
</mgrwt>
</event>
<event>
 4    1  0.3102735E+006  0.3250619E+01  0.7546771E-02  0.2448461E+00
         22   -1    0    0    0    0  0.00000000000E+00  0.00000000000E+00  0.54301462984E+01  0.54301462984E+01  0.00000000000E+00 0.  1.
         22   -1    0    0    0    0 -0.00000000000E+00 -0.00000000000E+00 -0.42791675262E+01  0.42791675262E+01  0.00000000000E+00 0. -1.
          4    1    1    2  501    0 -0.28312993525E+01  0.96817630088E+00 -0.30092795870E+01  0.44297048440E+01  0.12700000000E+01 0. -1.
         -4    1    1    2    0  501  0.28312993525E+01 -0.96817630088E+00  0.41602583592E+01  0.52796089806E+01  0.12700000000E+01 0.  1.
<mgrwt>
<rscale>  0 0.32506186E+01</rscale>
<asrwt>0</asrwt>
<pdfrwt beam="1">0</pdfrwt>
<pdfrwt beam="2">0</pdfrwt>
<totfact> 0.61176459E+11</totfact>
</mgrwt>
</event>
<event>
 4    1  0.3102735E+006  0.2073253E+01  0.7546771E-02  0.2932975E+00
         22   -1    0    0    0    0  0.00000000000E+00  0.00000000000E+00  0.40000103751E+00  0.40000103751E+00  0.00000000000E+00 0. -1.
         22   -1    0    0    0    0 -0.00000000000E+00 -0.00000000000E+00 -0.14829752982E+02  0.14829752982E+02  0.00000000000E+00 0.  1.
          4    1    1    2  501    0  0.88191463986E+00  0.13811964344E+01 -0.11210919439E+02  0.11401012748E+02  0.12700000000E+01 0.  1.
         -4    1    1    2    0  501 -0.88191463986E+00 -0.13811964344E+01 -0.32188325055E+01  0.38287412711E+01  0.12700000000E+01 0. -1.
<mgrwt>
<rscale>  0 0.20732528E+01</rscale>
<asrwt>0</asrwt>
<pdfrwt beam="1">0</pdfrwt>
<pdfrwt beam="2">0</pdfrwt>
<totfact> 0.27715271E+12</totfact>
</mgrwt>
</event>
<event>
 4    1  0.3102735E+006  0.3571747E+01  0.7546771E-02  0.2367484E+00
         22   -1    0    0    0    0  0.00000000000E+00  0.00000000000E+00  0.22805466530E+01  0.22805466530E+01  0.00000000000E+00 0. -1.
         22   -1    0    0    0    0 -0.00000000000E+00 -0.00000000000E+00 -0.24411028473E+02  0.24411028473E+02  0.00000000000E+00 0.  1.
          4    1    1    2  501    0 -0.29180846568E+01  0.16214985692E+01 -0.22782518036E+02  0.23060800153E+02  0.12700000000E+01 0.  1.
         -4    1    1    2    0  501  0.29180846568E+01 -0.16214985692E+01  0.65203621572E+00  0.36307749724E+01  0.12700000000E+01 0. -1.
<mgrwt>
<rscale>  0 0.35717469E+01</rscale>
<asrwt>0</asrwt>
<pdfrwt beam="1">0</pdfrwt>
<pdfrwt beam="2">0</pdfrwt>
<totfact> 0.20431446E+11</totfact>
</mgrwt>
</event>
<event>
 4    1  0.3102735E+006  0.9762822E+01  0.7546771E-02  0.1788730E+00
         22   -1    0    0    0    0  0.00000000000E+00  0.00000000000E+00  0.16849820928E+02  0.16849820928E+02  0.00000000000E+00 0.  1.
         22   -1    0    0    0    0 -0.00000000000E+00 -0.00000000000E+00 -0.83473967073E+01  0.83473967073E+01  0.00000000000E+00 0. -1.
          4    1    1    2  501    0  0.55237598499E+01 -0.79490793330E+01 -0.29017770280E+01  0.10184939619E+02  0.12700000000E+01 0. -1.
         -4    1    1    2    0  501 -0.55237598499E+01  0.79490793330E+01  0.11404201249E+02  0.15012278016E+02  0.12700000000E+01 0.  1.
<mgrwt>
<rscale>  0 0.97628216E+01</rscale>
<asrwt>0</asrwt>
<pdfrwt beam="1">0</pdfrwt>
<pdfrwt beam="2">0</pdfrwt>
<totfact> 0.70160864E+10</totfact>
</mgrwt>
</event>
<event>
 4    1  0.3102735E+006  0.2118793E+01  0.7546771E-02  0.2904909E+00
         22   -1    0    0    0    0  0.00000000000E+00  0.00000000000E+00  0.11256333455E+01  0.11256333455E+01  0.00000000000E+00 0. -1.
         22   -1    0    0    0    0 -0.00000000000E+00 -0.00000000000E+00 -0.42866702183E+01  0.42866702183E+01  0.00000000000E+00 0.  1.
          4    1    1    2  501    0 -0.14313881990E+01 -0.90967739477E+00 -0.22945550654E+01  0.31231823653E+01  0.12700000000E+01 0.  1.
         -4    1    1    2    0  501  0.14313881990E+01  0.90967739477E+00 -0.86648180737E+00  0.22891211985E+01  0.12700000000E+01 0. -1.
<mgrwt>
<rscale>  0 0.21187933E+01</rscale>
<asrwt>0</asrwt>
<pdfrwt beam="1">0</pdfrwt>
<pdfrwt beam="2">0</pdfrwt>
<totfact> 0.38106931E+12</totfact>
</mgrwt>
</event>
<event>
 4    1  0.3102735E+006  0.2191718E+01  0.7546771E-02  0.2862318E+00
         22   -1    0    0    0    0  0.00000000000E+00  0.00000000000E+00  0.18242383981E+00  0.18242383981E+00  0.00000000000E+00 0. -1.
         22   -1    0    0    0    0 -0.00000000000E+00 -0.00000000000E+00 -0.54107132994E+02  0.54107132994E+02  0.00000000000E+00 0.  1.
          4    1    1    2  501    0 -0.12618119051E+00 -0.17817981671E+01 -0.46410819129E+02  0.46462541456E+02  0.12700000000E+01 0.  1.
         -4    1    1    2    0  501  0.12618119051E+00  0.17817981671E+01 -0.75138900252E+01  0.78270153770E+01  0.12700000000E+01 0. -1.
<mgrwt>
<rscale>  0 0.21917177E+01</rscale>
<asrwt>0</asrwt>
<pdfrwt beam="1">0</pdfrwt>
<pdfrwt beam="2">0</pdfrwt>
<totfact> 0.12853479E+12</totfact>
</mgrwt>
</event>
<event>
 4    1  0.3102735E+006  0.2127099E+01  0.7546771E-02  0.2899916E+00
         22   -1    0    0    0    0  0.00000000000E+00  0.00000000000E+00  0.87923080089E+01  0.87923080089E+01  0.00000000000E+00 0.  1.
         22   -1    0    0    0    0 -0.00000000000E+00 -0.00000000000E+00 -0.46193438930E+01  0.46193438930E+01  0.00000000000E+00 0. -1.
          4    1    1    2  501    0  0.16937496788E+01  0.20702993330E+00 -0.42347974780E+01  0.47389934636E+01  0.12700000000E+01 0. -1.
         -4    1    1    2    0  501 -0.16937496788E+01 -0.20702993330E+00  0.84077615940E+01  0.86726584384E+01  0.12700000000E+01 0.  1.
<mgrwt>
<rscale>  0 0.21270988E+01</rscale>
<asrwt>0</asrwt>
<pdfrwt beam="1">0</pdfrwt>
<pdfrwt beam="2">0</pdfrwt>
<totfact> 0.31410256E+11</totfact>
</mgrwt>
</event>
<event>
 4    1  0.3102735E+006  0.3792739E+01  0.7546771E-02  0.2318754E+00
         22   -1    0    0    0    0  0.00000000000E+00  0.00000000000E+00  0.93023331549E+01  0.93023331549E+01  0.00000000000E+00 0.  1.
         22   -1    0    0    0    0 -0.00000000000E+00 -0.00000000000E+00 -0.22632696648E+01  0.22632696648E+01  0.00000000000E+00 0. -1.
          4    1    1    2  501    0  0.19681311718E+01 -0.29830237059E+01  0.26492436281E+00  0.38019804914E+01  0.12700000000E+01 0. -1.
         -4    1    1    2    0  501 -0.19681311718E+01  0.29830237059E+01  0.67741391274E+01  0.77636223283E+01  0.12700000000E+01 0.  1.
<mgrwt>
<rscale>  0 0.37927392E+01</rscale>
<asrwt>0</asrwt>
<pdfrwt beam="1">0</pdfrwt>
<pdfrwt beam="2">0</pdfrwt>
<totfact> 0.67647725E+11</totfact>
</mgrwt>
</event>
<event>
 4    1  0.3102735E+006  0.2296182E+01  0.7546771E-02  0.2805831E+00
         22   -1    0    0    0    0  0.00000000000E+00  0.00000000000E+00  0.64015175946E+01  0.64015175946E+01  0.00000000000E+00 0.  1.
         22   -1    0    0    0    0 -0.00000000000E+00 -0.00000000000E+00 -0.24042584691E+01  0.24042584691E+01  0.00000000000E+00 0. -1.
          4    1    1    2  501    0 -0.18633549682E+01  0.43296612474E+00 -0.15713244292E+01  0.27823572496E+01  0.12700000000E+01 0. -1.
         -4    1    1    2    0  501  0.18633549682E+01 -0.43296612474E+00  0.55685835548E+01  0.60234188141E+01  0.12700000000E+01 0.  1.
<mgrwt>
<rscale>  0 0.22961819E+01</rscale>
<asrwt>0</asrwt>
<pdfrwt beam="1">0</pdfrwt>
<pdfrwt beam="2">0</pdfrwt>
<totfact> 0.98748600E+11</totfact>
</mgrwt>
</event>
<event>
 4    1  0.3102735E+006  0.2169734E+01  0.7546771E-02  0.2874867E+00
         22   -1    0    0    0    0  0.00000000000E+00  0.00000000000E+00  0.19383154209E+02  0.19383154209E+02  0.00000000000E+00 0. -1.
         22   -1    0    0    0    0 -0.00000000000E+00 -0.00000000000E+00 -0.55927092434E+00  0.55927092434E+00  0.00000000000E+00 0.  1.
          4    1    1    2  501    0  0.97572792391E+00 -0.14638301963E+01  0.19121333732E+01  0.28920577210E+01  0.12700000000E+01 0.  1.
         -4    1    1    2    0  501 -0.97572792391E+00  0.14638301963E+01  0.16911749911E+02  0.17050367412E+02  0.12700000000E+01 0. -1.
<mgrwt>
<rscale>  0 0.21697336E+01</rscale>
<asrwt>0</asrwt>
<pdfrwt beam="1">0</pdfrwt>
<pdfrwt beam="2">0</pdfrwt>
<totfact> 0.13632986E+12</totfact>
</mgrwt>
</event>
<event>
 4    1  0.3102735E+006  0.2105779E+01  0.7546771E-02  0.2912810E+00
         22   -1    0    0    0    0  0.00000000000E+00  0.00000000000E+00  0.10022111852E+02  0.10022111852E+02  0.00000000000E+00 0. -1.
         22   -1    0    0    0    0 -0.00000000000E+00 -0.00000000000E+00 -0.18295066878E+01  0.18295066878E+01  0.00000000000E+00 0. -1.
          4    1    1    2  501    0  0.76424610739E+00 -0.14957713152E+01 -0.10634330769E+01  0.23590663088E+01  0.12700000000E+01 0. -1.
         -4    1    1    2    0  501 -0.76424610739E+00  0.14957713152E+01  0.92560382407E+01  0.94925522308E+01  0.12700000000E+01 0. -1.
<mgrwt>
<rscale>  0 0.21057787E+01</rscale>
<asrwt>0</asrwt>
<pdfrwt beam="1">0</pdfrwt>
<pdfrwt beam="2">0</pdfrwt>
<totfact> 0.79078740E+11</totfact>
</mgrwt>
</event>
<event>
 4    1  0.3102735E+006  0.2054946E+01  0.7546771E-02  0.2944598E+00
         22   -1    0    0    0    0  0.00000000000E+00  0.00000000000E+00  0.57967732766E+02  0.57967732766E+02  0.00000000000E+00 0.  1.
         22   -1    0    0    0    0 -0.00000000000E+00 -0.00000000000E+00 -0.74027900523E-01  0.74027900523E-01  0.00000000000E+00 0.  1.
          4    1    1    2  501    0  0.15740683019E+01 -0.36360991237E+00  0.25282211310E+02  0.25365587159E+02  0.12700000000E+01 0.  1.
         -4    1    1    2    0  501 -0.15740683019E+01  0.36360991237E+00  0.32611493556E+02  0.32676173508E+02  0.12700000000E+01 0.  1.
<mgrwt>
<rscale>  0 0.20549460E+01</rscale>
<asrwt>0</asrwt>
<pdfrwt beam="1">0</pdfrwt>
<pdfrwt beam="2">0</pdfrwt>
<totfact> 0.31877192E+12</totfact>
</mgrwt>
</event>
<event>
 4    1  0.3102735E+006  0.3311430E+01  0.7546771E-02  0.2432071E+00
         22   -1    0    0    0    0  0.00000000000E+00  0.00000000000E+00  0.44784560631E+00  0.44784560631E+00  0.00000000000E+00 0.  1.
         22   -1    0    0    0    0 -0.00000000000E+00 -0.00000000000E+00 -0.26348290675E+02  0.26348290675E+02  0.00000000000E+00 0. -1.
          4    1    1    2  501    0 -0.25644470418E+01 -0.16662172680E+01 -0.93874481353E+01  0.99543835121E+01  0.12700000000E+01 0.  1.
         -4    1    1    2    0  501  0.25644470418E+01  0.16662172680E+01 -0.16512996933E+02  0.16841752769E+02  0.12700000000E+01 0. -1.
<mgrwt>
<rscale>  0 0.33114300E+01</rscale>
<asrwt>0</asrwt>
<pdfrwt beam="1">0</pdfrwt>
<pdfrwt beam="2">0</pdfrwt>
<totfact> 0.11920520E+12</totfact>
</mgrwt>
</event>
<event>
 4    1  0.3102735E+006  0.2406726E+01  0.7546771E-02  0.2751136E+00
         22   -1    0    0    0    0  0.00000000000E+00  0.00000000000E+00  0.50688347451E+01  0.50688347451E+01  0.00000000000E+00 0. -1.
         22   -1    0    0    0    0 -0.00000000000E+00 -0.00000000000E+00 -0.22576647571E+01  0.22576647571E+01  0.00000000000E+00 0. -1.
          4    1    1    2  501    0  0.13871499633E+01  0.15017477688E+01 -0.11687240918E+01  0.26754901204E+01  0.12700000000E+01 0. -1.
         -4    1    1    2    0  501 -0.13871499633E+01 -0.15017477688E+01  0.39798940798E+01  0.46510093817E+01  0.12700000000E+01 0. -1.
<mgrwt>
<rscale>  0 0.24067263E+01</rscale>
<asrwt>0</asrwt>
<pdfrwt beam="1">0</pdfrwt>
<pdfrwt beam="2">0</pdfrwt>
<totfact> 0.14020274E+12</totfact>
</mgrwt>
</event>
<event>
 4    1  0.3102735E+006  0.2937804E+01  0.7546771E-02  0.2542207E+00
         22   -1    0    0    0    0  0.00000000000E+00  0.00000000000E+00  0.69245626408E+00  0.69245626408E+00  0.00000000000E+00 0.  1.
         22   -1    0    0    0    0 -0.00000000000E+00 -0.00000000000E+00 -0.13927495817E+02  0.13927495817E+02  0.00000000000E+00 0. -1.
          4    1    1    2  501    0 -0.25346943292E+01 -0.77014224166E+00 -0.42478249638E+01  0.51647566581E+01  0.12700000000E+01 0. -1.
         -4    1    1    2    0  501  0.25346943292E+01  0.77014224166E+00 -0.89872145896E+01  0.94551954234E+01  0.12700000000E+01 0.  1.
<mgrwt>
<rscale>  0 0.29378044E+01</rscale>
<asrwt>0</asrwt>
<pdfrwt beam="1">0</pdfrwt>
<pdfrwt beam="2">0</pdfrwt>
<totfact> 0.16102574E+12</totfact>
</mgrwt>
</event>
<event>
 4    1  0.3102735E+006  0.4523937E+01  0.7546771E-02  0.2187090E+00
         22   -1    0    0    0    0  0.00000000000E+00  0.00000000000E+00  0.53213674951E+00  0.53213674951E+00  0.00000000000E+00 0. -1.
         22   -1    0    0    0    0 -0.00000000000E+00 -0.00000000000E+00 -0.38630345795E+02  0.38630345795E+02  0.00000000000E+00 0.  1.
          4    1    1    2  501    0  0.36467515898E+01  0.23567580591E+01 -0.17748999101E+02  0.18316467312E+02  0.12700000000E+01 0.  1.
         -4    1    1    2    0  501 -0.36467515898E+01 -0.23567580591E+01 -0.20349209945E+02  0.20846015233E+02  0.12700000000E+01 0. -1.
<mgrwt>
<rscale>  0 0.45239370E+01</rscale>
<asrwt>0</asrwt>
<pdfrwt beam="1">0</pdfrwt>
<pdfrwt beam="2">0</pdfrwt>
<totfact> 0.60138515E+11</totfact>
</mgrwt>
</event>
<event>
 4    1  0.3102735E+006  0.2038706E+01  0.7546771E-02  0.2955078E+00
         22   -1    0    0    0    0  0.00000000000E+00  0.00000000000E+00  0.92417433651E+00  0.92417433651E+00  0.00000000000E+00 0. -1.
         22   -1    0    0    0    0 -0.00000000000E+00 -0.00000000000E+00 -0.76282380252E+01  0.76282380252E+01  0.00000000000E+00 0.  1.
          4    1    1    2  501    0  0.12384087760E+01 -0.10048708977E+01 -0.60915949572E+01  0.64236944930E+01  0.12700000000E+01 0.  1.
         -4    1    1    2    0  501 -0.12384087760E+01  0.10048708977E+01 -0.61246873156E+00  0.21287178687E+01  0.12700000000E+01 0. -1.
<mgrwt>
<rscale>  0 0.20387059E+01</rscale>
<asrwt>0</asrwt>
<pdfrwt beam="1">0</pdfrwt>
<pdfrwt beam="2">0</pdfrwt>
<totfact> 0.24057699E+12</totfact>
</mgrwt>
</event>
<event>
 4    1  0.3102735E+006  0.2002869E+01  0.7546771E-02  0.2978794E+00
         22   -1    0    0    0    0  0.00000000000E+00  0.00000000000E+00  0.15659814226E+01  0.15659814226E+01  0.00000000000E+00 0.  1.
         22   -1    0    0    0    0 -0.00000000000E+00 -0.00000000000E+00 -0.31250841404E+01  0.31250841404E+01  0.00000000000E+00 0. -1.
          4    1    1    2  501    0  0.18234229363E+00 -0.15379649669E+01  0.21639288236E+00  0.20145249641E+01  0.12700000000E+01 0.  1.
         -4    1    1    2    0  501 -0.18234229363E+00  0.15379649669E+01 -0.17754956001E+01  0.26765405989E+01  0.12700000000E+01 0. -1.
<mgrwt>
<rscale>  0 0.20028692E+01</rscale>
<asrwt>0</asrwt>
<pdfrwt beam="1">0</pdfrwt>
<pdfrwt beam="2">0</pdfrwt>
<totfact> 0.37803732E+12</totfact>
</mgrwt>
</event>
<event>
 4    1  0.3102735E+006  0.2045399E+01  0.7546771E-02  0.2950739E+00
         22   -1    0    0    0    0  0.00000000000E+00  0.00000000000E+00  0.86479367065E+00  0.86479367065E+00  0.00000000000E+00 0.  1.
         22   -1    0    0    0    0 -0.00000000000E+00 -0.00000000000E+00 -0.48583405500E+01  0.48583405500E+01  0.00000000000E+00 0.  1.
          4    1    1    2  501    0 -0.15537399218E+01 -0.39578825611E+00 -0.18104842142E+01  0.27315763174E+01  0.12700000000E+01 0.  1.
         -4    1    1    2    0  501  0.15537399218E+01  0.39578825611E+00 -0.21830626652E+01  0.29915579032E+01  0.12700000000E+01 0.  1.
<mgrwt>
<rscale>  0 0.20453988E+01</rscale>
<asrwt>0</asrwt>
<pdfrwt beam="1">0</pdfrwt>
<pdfrwt beam="2">0</pdfrwt>
<totfact> 0.44411499E+12</totfact>
</mgrwt>
</event>
<event>
 4    1  0.3102735E+006  0.2738406E+01  0.7546771E-02  0.2611925E+00
         22   -1    0    0    0    0  0.00000000000E+00  0.00000000000E+00  0.67893922222E+01  0.67893922222E+01  0.00000000000E+00 0.  1.
         22   -1    0    0    0    0 -0.00000000000E+00 -0.00000000000E+00 -0.64816779803E+01  0.64816779803E+01  0.00000000000E+00 0.  1.
          4    1    1    2  501    0  0.23136642503E+01  0.73001594342E+00 -0.58899352942E+01  0.64953986260E+01  0.12700000000E+01 0.  1.
         -4    1    1    2    0  501 -0.23136642503E+01 -0.73001594342E+00  0.61976495361E+01  0.67756715765E+01  0.12700000000E+01 0.  1.
<mgrwt>
<rscale>  0 0.27384057E+01</rscale>
<asrwt>0</asrwt>
<pdfrwt beam="1">0</pdfrwt>
<pdfrwt beam="2">0</pdfrwt>
<totfact> 0.28654879E+11</totfact>
</mgrwt>
</event>
<event>
 4    1  0.3102735E+006  0.2729646E+01  0.7546771E-02  0.2615199E+00
         22   -1    0    0    0    0  0.00000000000E+00  0.00000000000E+00  0.12199152441E+01  0.12199152441E+01  0.00000000000E+00 0.  1.
         22   -1    0    0    0    0 -0.00000000000E+00 -0.00000000000E+00 -0.62980866522E+01  0.62980866522E+01  0.00000000000E+00 0. -1.
          4    1    1    2  501    0  0.22603292844E+00  0.24056140761E+01 -0.31925153129E+01  0.42003718872E+01  0.12700000000E+01 0. -1.
         -4    1    1    2    0  501 -0.22603292844E+00 -0.24056140761E+01 -0.18856560952E+01  0.33176300091E+01  0.12700000000E+01 0.  1.
<mgrwt>
<rscale>  0 0.27296465E+01</rscale>
<asrwt>0</asrwt>
<pdfrwt beam="1">0</pdfrwt>
<pdfrwt beam="2">0</pdfrwt>
<totfact> 0.22027379E+12</totfact>
</mgrwt>
</event>
<event>
 4    1  0.3102735E+006  0.4061028E+01  0.7546771E-02  0.2265778E+00
         22   -1    0    0    0    0  0.00000000000E+00  0.00000000000E+00  0.33232971574E+02  0.33232971574E+02  0.00000000000E+00 0.  1.
         22   -1    0    0    0    0 -0.00000000000E+00 -0.00000000000E+00 -0.92151514824E+00  0.92151514824E+00  0.00000000000E+00 0. -1.
          4    1    1    2  501    0 -0.34485557529E+01  0.17281529632E+01  0.45547373986E+01  0.61022604185E+01  0.12700000000E+01 0. -1.
         -4    1    1    2    0  501  0.34485557529E+01 -0.17281529632E+01  0.27756719027E+02  0.28052226303E+02  0.12700000000E+01 0.  1.
<mgrwt>
<rscale>  0 0.40610281E+01</rscale>
<asrwt>0</asrwt>
<pdfrwt beam="1">0</pdfrwt>
<pdfrwt beam="2">0</pdfrwt>
<totfact> 0.39142388E+11</totfact>
</mgrwt>
</event>
<event>
 4    1  0.3102735E+006  0.2249379E+01  0.7546771E-02  0.2830519E+00
         22   -1    0    0    0    0  0.00000000000E+00  0.00000000000E+00  0.67925345527E+02  0.67925345527E+02  0.00000000000E+00 0.  1.
         22   -1    0    0    0    0 -0.00000000000E+00 -0.00000000000E+00 -0.13446415568E+00  0.13446415568E+00  0.00000000000E+00 0. -1.
          4    1    1    2  501    0  0.44509203556E+00 -0.18024143815E+01  0.56622458093E+02  0.56667119788E+02  0.12700000000E+01 0.  1.
         -4    1    1    2    0  501 -0.44509203556E+00  0.18024143815E+01  0.11168423279E+02  0.11392689895E+02  0.12700000000E+01 0. -1.
<mgrwt>
<rscale>  0 0.22493787E+01</rscale>
<asrwt>0</asrwt>
<pdfrwt beam="1">0</pdfrwt>
<pdfrwt beam="2">0</pdfrwt>
<totfact> 0.13306232E+12</totfact>
</mgrwt>
</event>
<event>
 4    1  0.3102735E+006  0.2067320E+01  0.7546771E-02  0.2936720E+00
         22   -1    0    0    0    0  0.00000000000E+00  0.00000000000E+00  0.70451640567E+01  0.70451640567E+01  0.00000000000E+00 0.  1.
         22   -1    0    0    0    0 -0.00000000000E+00 -0.00000000000E+00 -0.87865155910E+00  0.87865155910E+00  0.00000000000E+00 0.  1.
          4    1    1    2  501    0  0.84458406400E+00 -0.13955600930E+01  0.87882062439E+00  0.22463605908E+01  0.12700000000E+01 0.  1.
         -4    1    1    2    0  501 -0.84458406400E+00  0.13955600930E+01  0.52876918732E+01  0.56774550249E+01  0.12700000000E+01 0.  1.
<mgrwt>
<rscale>  0 0.20673196E+01</rscale>
<asrwt>0</asrwt>
<pdfrwt beam="1">0</pdfrwt>
<pdfrwt beam="2">0</pdfrwt>
<totfact> 0.28030669E+12</totfact>
</mgrwt>
</event>
<event>
 4    1  0.3102735E+006  0.2800488E+01  0.7546771E-02  0.2589254E+00
         22   -1    0    0    0    0  0.00000000000E+00  0.00000000000E+00  0.13637075723E+02  0.13637075723E+02  0.00000000000E+00 0.  1.
         22   -1    0    0    0    0 -0.00000000000E+00 -0.00000000000E+00 -0.10118183468E+01  0.10118183468E+01  0.00000000000E+00 0. -1.
          4    1    1    2  501    0  0.19978964346E+01 -0.14960749806E+01  0.15006629464E+01  0.31772188766E+01  0.12700000000E+01 0. -1.
         -4    1    1    2    0  501 -0.19978964346E+01  0.14960749806E+01  0.11124594430E+02  0.11471675193E+02  0.12700000000E+01 0.  1.
<mgrwt>
<rscale>  0 0.28004875E+01</rscale>
<asrwt>0</asrwt>
<pdfrwt beam="1">0</pdfrwt>
<pdfrwt beam="2">0</pdfrwt>
<totfact> 0.10729859E+12</totfact>
</mgrwt>
</event>
<event>
 4    1  0.3102735E+006  0.2058846E+01  0.7546771E-02  0.2942104E+00
         22   -1    0    0    0    0  0.00000000000E+00  0.00000000000E+00  0.54144788228E+00  0.54144788228E+00  0.00000000000E+00 0. -1.
         22   -1    0    0    0    0 -0.00000000000E+00 -0.00000000000E+00 -0.80983028075E+01  0.80983028075E+01  0.00000000000E+00 0. -1.
          4    1    1    2  501    0 -0.98502287474E+00  0.12867318347E+01 -0.29902702631E+01  0.36305048030E+01  0.12700000000E+01 0. -1.
         -4    1    1    2    0  501  0.98502287474E+00 -0.12867318347E+01 -0.45665846621E+01  0.50092458868E+01  0.12700000000E+01 0. -1.
<mgrwt>
<rscale>  0 0.20588465E+01</rscale>
<asrwt>0</asrwt>
<pdfrwt beam="1">0</pdfrwt>
<pdfrwt beam="2">0</pdfrwt>
<totfact> 0.41087053E+12</totfact>
</mgrwt>
</event>
<event>
 4    1  0.3102735E+006  0.2254387E+01  0.7546771E-02  0.2827831E+00
         22   -1    0    0    0    0  0.00000000000E+00  0.00000000000E+00  0.92678323085E+01  0.92678323085E+01  0.00000000000E+00 0.  1.
         22   -1    0    0    0    0 -0.00000000000E+00 -0.00000000000E+00 -0.60443144019E+00  0.60443144019E+00  0.00000000000E+00 0. -1.
          4    1    1    2  501    0 -0.53977441562E+00  0.17826953717E+01  0.28284853957E+01  0.36169861545E+01  0.12700000000E+01 0. -1.
         -4    1    1    2    0  501  0.53977441562E+00 -0.17826953717E+01  0.58349154726E+01  0.62552775942E+01  0.12700000000E+01 0. -1.
<mgrwt>
<rscale>  0 0.22543867E+01</rscale>
<asrwt>0</asrwt>
<pdfrwt beam="1">0</pdfrwt>
<pdfrwt beam="2">0</pdfrwt>
<totfact> 0.30836933E+12</totfact>
</mgrwt>
</event>
<event>
 4    1  0.3102735E+006  0.3094890E+01  0.7546771E-02  0.2493018E+00
         22   -1    0    0    0    0  0.00000000000E+00  0.00000000000E+00  0.16595800647E+02  0.16595800647E+02  0.00000000000E+00 0.  1.
         22   -1    0    0    0    0 -0.00000000000E+00 -0.00000000000E+00 -0.85072787991E+00  0.85072787991E+00  0.00000000000E+00 0. -1.
          4    1    1    2  501    0 -0.27437793798E+01  0.66115164065E+00  0.12819290676E+02  0.13187591145E+02  0.12700000000E+01 0.  1.
         -4    1    1    2    0  501  0.27437793798E+01 -0.66115164065E+00  0.29257820911E+01  0.42589373817E+01  0.12700000000E+01 0. -1.
<mgrwt>
<rscale>  0 0.30948904E+01</rscale>
<asrwt>0</asrwt>
<pdfrwt beam="1">0</pdfrwt>
<pdfrwt beam="2">0</pdfrwt>
<totfact> 0.10269021E+12</totfact>
</mgrwt>
</event>
<event>
 4    1  0.3102735E+006  0.2071302E+01  0.7546771E-02  0.2934204E+00
         22   -1    0    0    0    0  0.00000000000E+00  0.00000000000E+00  0.26730123239E+00  0.26730123239E+00  0.00000000000E+00 0.  1.
         22   -1    0    0    0    0 -0.00000000000E+00 -0.00000000000E+00 -0.20557800847E+02  0.20557800847E+02  0.00000000000E+00 0. -1.
          4    1    1    2  501    0  0.15574220045E+01 -0.50182447243E+00 -0.15020894113E+02  0.15163032384E+02  0.12700000000E+01 0. -1.
         -4    1    1    2    0  501 -0.15574220045E+01  0.50182447243E+00 -0.52696055013E+01  0.56620696958E+01  0.12700000000E+01 0. -1.
<mgrwt>
<rscale>  0 0.20713018E+01</rscale>
<asrwt>0</asrwt>
<pdfrwt beam="1">0</pdfrwt>
<pdfrwt beam="2">0</pdfrwt>
<totfact> 0.29071884E+12</totfact>
</mgrwt>
</event>
<event>
 4    1  0.3102735E+006  0.3141246E+01  0.7546771E-02  0.2479345E+00
         22   -1    0    0    0    0  0.00000000000E+00  0.00000000000E+00  0.11222953265E+01  0.11222953265E+01  0.00000000000E+00 0.  1.
         22   -1    0    0    0    0 -0.00000000000E+00 -0.00000000000E+00 -0.11486677787E+02  0.11486677787E+02  0.00000000000E+00 0.  1.
          4    1    1    2  501    0  0.25675190206E+01 -0.12893294647E+01 -0.21287379090E+01  0.37945947708E+01  0.12700000000E+01 0.  1.
         -4    1    1    2    0  501 -0.25675190206E+01  0.12893294647E+01 -0.82356445512E+01  0.88143783424E+01  0.12700000000E+01 0.  1.
<mgrwt>
<rscale>  0 0.31412457E+01</rscale>
<asrwt>0</asrwt>
<pdfrwt beam="1">0</pdfrwt>
<pdfrwt beam="2">0</pdfrwt>
<totfact> 0.11753644E+12</totfact>
</mgrwt>
</event>
<event>
 4    1  0.3102735E+006  0.2231476E+01  0.7546771E-02  0.2840225E+00
         22   -1    0    0    0    0  0.00000000000E+00  0.00000000000E+00  0.16224538527E+02  0.16224538527E+02  0.00000000000E+00 0.  1.
         22   -1    0    0    0    0 -0.00000000000E+00 -0.00000000000E+00 -0.33676450687E+00  0.33676450687E+00  0.00000000000E+00 0.  1.
          4    1    1    2  501    0 -0.84100965243E+00 -0.16307317272E+01  0.10409368706E+02  0.10645864928E+02  0.12700000000E+01 0.  1.
         -4    1    1    2    0  501  0.84100965243E+00  0.16307317272E+01  0.54784053139E+01  0.59154381060E+01  0.12700000000E+01 0.  1.
<mgrwt>
<rscale>  0 0.22314756E+01</rscale>
<asrwt>0</asrwt>
<pdfrwt beam="1">0</pdfrwt>
<pdfrwt beam="2">0</pdfrwt>
<totfact> 0.30105649E+12</totfact>
</mgrwt>
</event>
<event>
 4    1  0.3102735E+006  0.6138998E+01  0.7546771E-02  0.2007442E+00
         22   -1    0    0    0    0  0.00000000000E+00  0.00000000000E+00  0.24661360753E+02  0.24661360753E+02  0.00000000000E+00 0.  1.
         22   -1    0    0    0    0 -0.00000000000E+00 -0.00000000000E+00 -0.15302871399E+01  0.15302871399E+01  0.00000000000E+00 0. -1.
          4    1    1    2  501    0 -0.31852981112E+01 -0.50919811376E+01  0.12050094528E+02  0.13523759614E+02  0.12700000000E+01 0. -1.
         -4    1    1    2    0  501  0.31852981112E+01  0.50919811376E+01  0.11080979085E+02  0.12667888279E+02  0.12700000000E+01 0.  1.
<mgrwt>
<rscale>  0 0.61389980E+01</rscale>
<asrwt>0</asrwt>
<pdfrwt beam="1">0</pdfrwt>
<pdfrwt beam="2">0</pdfrwt>
<totfact> 0.31987672E+11</totfact>
</mgrwt>
</event>
<event>
 4    1  0.3102735E+006  0.3602476E+01  0.7546771E-02  0.2360399E+00
         22   -1    0    0    0    0  0.00000000000E+00  0.00000000000E+00  0.10178553589E+02  0.10178553589E+02  0.00000000000E+00 0. -1.
         22   -1    0    0    0    0 -0.00000000000E+00 -0.00000000000E+00 -0.14425668804E+01  0.14425668804E+01  0.00000000000E+00 0.  1.
          4    1    1    2  501    0  0.24116228094E+01 -0.23556331795E+01  0.23877358920E+01  0.43219341667E+01  0.12700000000E+01 0.  1.
         -4    1    1    2    0  501 -0.24116228094E+01  0.23556331795E+01  0.63482508163E+01  0.72991863024E+01  0.12700000000E+01 0. -1.
<mgrwt>
<rscale>  0 0.36024759E+01</rscale>
<asrwt>0</asrwt>
<pdfrwt beam="1">0</pdfrwt>
<pdfrwt beam="2">0</pdfrwt>
<totfact> 0.10206725E+12</totfact>
</mgrwt>
</event>
<event>
 4    1  0.3102735E+006  0.2044011E+01  0.7546771E-02  0.2951637E+00
         22   -1    0    0    0    0  0.00000000000E+00  0.00000000000E+00  0.16112404198E+02  0.16112404198E+02  0.00000000000E+00 0. -1.
         22   -1    0    0    0    0 -0.00000000000E+00 -0.00000000000E+00 -0.27981154576E+00  0.27981154576E+00  0.00000000000E+00 0. -1.
          4    1    1    2  501    0  0.11359232632E+01 -0.11290523949E+01  0.56973268119E+01  0.60528930085E+01  0.12700000000E+01 0. -1.
         -4    1    1    2    0  501 -0.11359232632E+01  0.11290523949E+01  0.10135265841E+02  0.10339322736E+02  0.12700000000E+01 0. -1.
<mgrwt>
<rscale>  0 0.20440110E+01</rscale>
<asrwt>0</asrwt>
<pdfrwt beam="1">0</pdfrwt>
<pdfrwt beam="2">0</pdfrwt>
<totfact> 0.37375593E+12</totfact>
</mgrwt>
</event>
<event>
 4    1  0.3102735E+006  0.2364303E+01  0.7546771E-02  0.2771555E+00
         22   -1    0    0    0    0  0.00000000000E+00  0.00000000000E+00  0.95802629629E+00  0.95802629629E+00  0.00000000000E+00 0. -1.
         22   -1    0    0    0    0 -0.00000000000E+00 -0.00000000000E+00 -0.91843849773E+01  0.91843849773E+01  0.00000000000E+00 0.  1.
          4    1    1    2  501    0  0.16696420949E+01 -0.10905619523E+01 -0.71757004616E+01  0.75551708922E+01  0.12700000000E+01 0.  1.
         -4    1    1    2    0  501 -0.16696420949E+01  0.10905619523E+01 -0.10506582195E+01  0.25872403814E+01  0.12700000000E+01 0. -1.
<mgrwt>
<rscale>  0 0.23643033E+01</rscale>
<asrwt>0</asrwt>
<pdfrwt beam="1">0</pdfrwt>
<pdfrwt beam="2">0</pdfrwt>
<totfact> 0.18469082E+12</totfact>
</mgrwt>
</event>
<event>
 4    1  0.3102735E+006  0.2534005E+01  0.7546771E-02  0.2693726E+00
         22   -1    0    0    0    0  0.00000000000E+00  0.00000000000E+00  0.49961844461E+00  0.49961844461E+00  0.00000000000E+00 0.  1.
         22   -1    0    0    0    0 -0.00000000000E+00 -0.00000000000E+00 -0.12885684301E+02  0.12885684301E+02  0.00000000000E+00 0. -1.
          4    1    1    2  501    0 -0.19761006209E+01 -0.95042490875E+00 -0.65343513517E+01  0.70084897630E+01  0.12700000000E+01 0.  1.
         -4    1    1    2    0  501  0.19761006209E+01  0.95042490875E+00 -0.58517145050E+01  0.63768129829E+01  0.12700000000E+01 0. -1.
<mgrwt>
<rscale>  0 0.25340050E+01</rscale>
<asrwt>0</asrwt>
<pdfrwt beam="1">0</pdfrwt>
<pdfrwt beam="2">0</pdfrwt>
<totfact> 0.25627848E+12</totfact>
</mgrwt>
</event>
<event>
 4    1  0.3102735E+006  0.6287840E+01  0.7546771E-02  0.1994797E+00
         22   -1    0    0    0    0  0.00000000000E+00  0.00000000000E+00  0.26072767507E+01  0.26072767507E+01  0.00000000000E+00 0.  1.
         22   -1    0    0    0    0 -0.00000000000E+00 -0.00000000000E+00 -0.18460783842E+02  0.18460783842E+02  0.00000000000E+00 0.  1.
          4    1    1    2  501    0  0.18616886797E+01 -0.58701065497E+01 -0.12378289709E+02  0.13883767204E+02  0.12700000000E+01 0.  1.
         -4    1    1    2    0  501 -0.18616886797E+01  0.58701065497E+01 -0.34752173820E+01  0.71842933889E+01  0.12700000000E+01 0.  1.
<mgrwt>
<rscale>  0 0.62878403E+01</rscale>
<asrwt>0</asrwt>
<pdfrwt beam="1">0</pdfrwt>
<pdfrwt beam="2">0</pdfrwt>
<totfact> 0.24800698E+11</totfact>
</mgrwt>
</event>
<event>
 4    1  0.3102735E+006  0.2899945E+01  0.7546771E-02  0.2554776E+00
         22   -1    0    0    0    0  0.00000000000E+00  0.00000000000E+00  0.26986293868E+00  0.26986293868E+00  0.00000000000E+00 0. -1.
         22   -1    0    0    0    0 -0.00000000000E+00 -0.00000000000E+00 -0.31986219272E+02  0.31986219272E+02  0.00000000000E+00 0.  1.
          4    1    1    2  501    0  0.25503708532E+01 -0.54072828460E+00 -0.13270461296E+02  0.13583623286E+02  0.12700000000E+01 0. -1.
         -4    1    1    2    0  501 -0.25503708532E+01  0.54072828460E+00 -0.18445895037E+02  0.18672458925E+02  0.12700000000E+01 0.  1.
<mgrwt>
<rscale>  0 0.28999446E+01</rscale>
<asrwt>0</asrwt>
<pdfrwt beam="1">0</pdfrwt>
<pdfrwt beam="2">0</pdfrwt>
<totfact> 0.16455978E+12</totfact>
</mgrwt>
</event>
<event>
 4    1  0.3102735E+006  0.2636406E+01  0.7546771E-02  0.2651286E+00
         22   -1    0    0    0    0  0.00000000000E+00  0.00000000000E+00  0.54577060817E+00  0.54577060817E+00  0.00000000000E+00 0. -1.
         22   -1    0    0    0    0 -0.00000000000E+00 -0.00000000000E+00 -0.15469248416E+02  0.15469248416E+02  0.00000000000E+00 0.  1.
          4    1    1    2  501    0 -0.15632226390E+01 -0.17011963337E+01 -0.10827987186E+02  0.11144323241E+02  0.12700000000E+01 0.  1.
         -4    1    1    2    0  501  0.15632226390E+01  0.17011963337E+01 -0.40954906215E+01  0.48706957835E+01  0.12700000000E+01 0. -1.
<mgrwt>
<rscale>  0 0.26364055E+01</rscale>
<asrwt>0</asrwt>
<pdfrwt beam="1">0</pdfrwt>
<pdfrwt beam="2">0</pdfrwt>
<totfact> 0.18532848E+12</totfact>
</mgrwt>
</event>
<event>
 4    1  0.3102735E+006  0.2473348E+01  0.7546771E-02  0.2720398E+00
         22   -1    0    0    0    0  0.00000000000E+00  0.00000000000E+00  0.70509386100E+01  0.70509386100E+01  0.00000000000E+00 0. -1.
         22   -1    0    0    0    0 -0.00000000000E+00 -0.00000000000E+00 -0.47893175242E+01  0.47893175242E+01  0.00000000000E+00 0.  1.
          4    1    1    2  501    0  0.14286313910E+01  0.15695739941E+01 -0.42263171962E+01  0.48968568712E+01  0.12700000000E+01 0.  1.
         -4    1    1    2    0  501 -0.14286313910E+01 -0.15695739941E+01  0.64879382820E+01  0.69433992630E+01  0.12700000000E+01 0. -1.
<mgrwt>
<rscale>  0 0.24733480E+01</rscale>
<asrwt>0</asrwt>
<pdfrwt beam="1">0</pdfrwt>
<pdfrwt beam="2">0</pdfrwt>
<totfact> 0.39233254E+11</totfact>
</mgrwt>
</event>
<event>
 4    1  0.3102735E+006  0.2050694E+01  0.7546771E-02  0.2947326E+00
         22   -1    0    0    0    0  0.00000000000E+00  0.00000000000E+00  0.38466335614E+01  0.38466335614E+01  0.00000000000E+00 0. -1.
         22   -1    0    0    0    0 -0.00000000000E+00 -0.00000000000E+00 -0.22380258542E+01  0.22380258542E+01  0.00000000000E+00 0.  1.
          4    1    1    2  501    0  0.12352311049E+01  0.10327868515E+01 -0.13715681606E+01  0.24670921714E+01  0.12700000000E+01 0.  1.
         -4    1    1    2    0  501 -0.12352311049E+01 -0.10327868515E+01  0.29801758678E+01  0.36175672442E+01  0.12700000000E+01 0. -1.
<mgrwt>
<rscale>  0 0.20506937E+01</rscale>
<asrwt>0</asrwt>
<pdfrwt beam="1">0</pdfrwt>
<pdfrwt beam="2">0</pdfrwt>
<totfact> 0.19611746E+12</totfact>
</mgrwt>
</event>
<event>
 4    1  0.3102735E+006  0.3975642E+01  0.7546771E-02  0.2281975E+00
         22   -1    0    0    0    0  0.00000000000E+00  0.00000000000E+00  0.76017930771E+01  0.76017930771E+01  0.00000000000E+00 0.  1.
         22   -1    0    0    0    0 -0.00000000000E+00 -0.00000000000E+00 -0.21710231658E+01  0.21710231658E+01  0.00000000000E+00 0.  1.
          4    1    1    2  501    0 -0.37059998746E+01 -0.67704863685E+00  0.17105188381E+01  0.43280023825E+01  0.12700000000E+01 0.  1.
         -4    1    1    2    0  501  0.37059998746E+01  0.67704863685E+00  0.37202510732E+01  0.54448138605E+01  0.12700000000E+01 0.  1.
<mgrwt>
<rscale>  0 0.39756421E+01</rscale>
<asrwt>0</asrwt>
<pdfrwt beam="1">0</pdfrwt>
<pdfrwt beam="2">0</pdfrwt>
<totfact> 0.90517911E+11</totfact>
</mgrwt>
</event>
<event>
 4    1  0.3102735E+006  0.2707393E+01  0.7546771E-02  0.2623604E+00
         22   -1    0    0    0    0  0.00000000000E+00  0.00000000000E+00  0.76318116272E+00  0.76318116272E+00  0.00000000000E+00 0. -1.
         22   -1    0    0    0    0 -0.00000000000E+00 -0.00000000000E+00 -0.97750806231E+01  0.97750806231E+01  0.00000000000E+00 0.  1.
          4    1    1    2  501    0  0.22677529296E+01  0.75787595809E+00 -0.52019892840E+01  0.58643560455E+01  0.12700000000E+01 0.  1.
         -4    1    1    2    0  501 -0.22677529296E+01 -0.75787595809E+00 -0.38099101763E+01  0.46739057403E+01  0.12700000000E+01 0. -1.
<mgrwt>
<rscale>  0 0.27073935E+01</rscale>
<asrwt>0</asrwt>
<pdfrwt beam="1">0</pdfrwt>
<pdfrwt beam="2">0</pdfrwt>
<totfact> 0.22192486E+12</totfact>
</mgrwt>
</event>
<event>
 4    1  0.3102735E+006  0.2471115E+01  0.7546771E-02  0.2721403E+00
         22   -1    0    0    0    0  0.00000000000E+00  0.00000000000E+00  0.30815314226E+01  0.30815314226E+01  0.00000000000E+00 0.  1.
         22   -1    0    0    0    0 -0.00000000000E+00 -0.00000000000E+00 -0.21407785882E+01  0.21407785882E+01  0.00000000000E+00 0. -1.
          4    1    1    2  501    0 -0.15173808088E+01  0.14802238166E+01 -0.24160628989E+00  0.24828976349E+01  0.12700000000E+01 0. -1.
         -4    1    1    2    0  501  0.15173808088E+01 -0.14802238166E+01  0.11823591243E+01  0.27394123758E+01  0.12700000000E+01 0.  1.
<mgrwt>
<rscale>  0 0.24711145E+01</rscale>
<asrwt>0</asrwt>
<pdfrwt beam="1">0</pdfrwt>
<pdfrwt beam="2">0</pdfrwt>
<totfact> 0.26780824E+12</totfact>
</mgrwt>
</event>
<event>
 4    1  0.3102735E+006  0.2914260E+01  0.7546771E-02  0.2549989E+00
         22   -1    0    0    0    0  0.00000000000E+00  0.00000000000E+00  0.21535720382E+02  0.21535720382E+02  0.00000000000E+00 0. -1.
         22   -1    0    0    0    0 -0.00000000000E+00 -0.00000000000E+00 -0.47112097999E+00  0.47112097999E+00  0.00000000000E+00 0.  1.
          4    1    1    2  501    0 -0.42030179549E-02 -0.26229744267E+01  0.60908936805E+01  0.67521773033E+01  0.12700000000E+01 0.  1.
         -4    1    1    2    0  501  0.42030179549E-02  0.26229744267E+01  0.14973705721E+02  0.15254664059E+02  0.12700000000E+01 0. -1.
<mgrwt>
<rscale>  0 0.29142602E+01</rscale>
<asrwt>0</asrwt>
<pdfrwt beam="1">0</pdfrwt>
<pdfrwt beam="2">0</pdfrwt>
<totfact> 0.14510474E+12</totfact>
</mgrwt>
</event>
<event>
 4    1  0.3102735E+006  0.2435875E+01  0.7546771E-02  0.2737494E+00
         22   -1    0    0    0    0  0.00000000000E+00  0.00000000000E+00  0.41980711246E+01  0.41980711246E+01  0.00000000000E+00 0.  1.
         22   -1    0    0    0    0 -0.00000000000E+00 -0.00000000000E+00 -0.15974520508E+01  0.15974520508E+01  0.00000000000E+00 0. -1.
          4    1    1    2  501    0  0.20127764588E+00  0.20688344703E+01  0.31666694705E+00  0.24563726736E+01  0.12700000000E+01 0. -1.
         -4    1    1    2    0  501 -0.20127764588E+00 -0.20688344703E+01  0.22839521268E+01  0.33391505018E+01  0.12700000000E+01 0.  1.
<mgrwt>
<rscale>  0 0.24358754E+01</rscale>
<asrwt>0</asrwt>
<pdfrwt beam="1">0</pdfrwt>
<pdfrwt beam="2">0</pdfrwt>
<totfact> 0.26131248E+12</totfact>
</mgrwt>
</event>
<event>
 4    1  0.3102735E+006  0.2118809E+01  0.7546771E-02  0.2904900E+00
         22   -1    0    0    0    0  0.00000000000E+00  0.00000000000E+00  0.10599350290E+03  0.10599350290E+03  0.00000000000E+00 0.  1.
         22   -1    0    0    0    0 -0.00000000000E+00 -0.00000000000E+00 -0.70630162312E+00  0.70630162312E+00  0.00000000000E+00 0. -1.
          4    1    1    2  501    0  0.15459830246E+01  0.69741593617E+00  0.91805074753E+00  0.23091491237E+01  0.12700000000E+01 0. -1.
         -4    1    1    2    0  501 -0.15459830246E+01 -0.69741593617E+00  0.10436915052E+03  0.10439065539E+03  0.12700000000E+01 0.  1.
<mgrwt>
<rscale>  0 0.21188092E+01</rscale>
<asrwt>0</asrwt>
<pdfrwt beam="1">0</pdfrwt>
<pdfrwt beam="2">0</pdfrwt>
<totfact> 0.11177852E+11</totfact>
</mgrwt>
</event>
<event>
 4    1  0.3102735E+006  0.3717132E+01  0.7546771E-02  0.2334862E+00
         22   -1    0    0    0    0  0.00000000000E+00  0.00000000000E+00  0.40355995477E+02  0.40355995477E+02  0.00000000000E+00 0. -1.
         22   -1    0    0    0    0 -0.00000000000E+00 -0.00000000000E+00 -0.43377628085E+00  0.43377628085E+00  0.00000000000E+00 0. -1.
          4    1    1    2  501    0 -0.17728922945E+01  0.30101527770E+01  0.10599430424E+02  0.11232319090E+02  0.12700000000E+01 0. -1.
         -4    1    1    2    0  501  0.17728922945E+01 -0.30101527770E+01  0.29322788772E+02  0.29557452668E+02  0.12700000000E+01 0. -1.
<mgrwt>
<rscale>  0 0.37171315E+01</rscale>
<asrwt>0</asrwt>
<pdfrwt beam="1">0</pdfrwt>
<pdfrwt beam="2">0</pdfrwt>
<totfact> 0.71566865E+11</totfact>
</mgrwt>
</event>
<event>
 4    1  0.3102735E+006  0.3624752E+01  0.7546771E-02  0.2355328E+00
         22   -1    0    0    0    0  0.00000000000E+00  0.00000000000E+00  0.15376888882E+01  0.15376888882E+01  0.00000000000E+00 0. -1.
         22   -1    0    0    0    0 -0.00000000000E+00 -0.00000000000E+00 -0.10784641383E+02  0.10784641383E+02  0.00000000000E+00 0.  1.
          4    1    1    2  501    0  0.31979760044E+01 -0.11396812188E+01 -0.74314634146E+01  0.82683415682E+01  0.12700000000E+01 0. -1.
         -4    1    1    2    0  501 -0.31979760044E+01  0.11396812188E+01 -0.18154890804E+01  0.40539887032E+01  0.12700000000E+01 0.  1.
<mgrwt>
<rscale>  0 0.36247516E+01</rscale>
<asrwt>0</asrwt>
<pdfrwt beam="1">0</pdfrwt>
<pdfrwt beam="2">0</pdfrwt>
<totfact> 0.88411994E+11</totfact>
</mgrwt>
</event>
<event>
 4    1  0.3102735E+006  0.9171502E+01  0.7546771E-02  0.1815275E+00
         22   -1    0    0    0    0  0.00000000000E+00  0.00000000000E+00  0.14136490487E+02  0.14136490487E+02  0.00000000000E+00 0.  1.
         22   -1    0    0    0    0 -0.00000000000E+00 -0.00000000000E+00 -0.79152982017E+01  0.79152982017E+01  0.00000000000E+00 0. -1.
          4    1    1    2  501    0 -0.29922389977E+01 -0.85761324261E+01 -0.23830492330E+01  0.94760416449E+01  0.12700000000E+01 0. -1.
         -4    1    1    2    0  501  0.29922389977E+01  0.85761324261E+01  0.86042415186E+01  0.12575747044E+02  0.12700000000E+01 0.  1.
<mgrwt>
<rscale>  0 0.91715016E+01</rscale>
<asrwt>0</asrwt>
<pdfrwt beam="1">0</pdfrwt>
<pdfrwt beam="2">0</pdfrwt>
<totfact> 0.92853897E+10</totfact>
</mgrwt>
</event>
<event>
 4    1  0.3102735E+006  0.4311404E+01  0.7546771E-02  0.2221448E+00
         22   -1    0    0    0    0  0.00000000000E+00  0.00000000000E+00  0.17031849350E+02  0.17031849350E+02  0.00000000000E+00 0. -1.
         22   -1    0    0    0    0 -0.00000000000E+00 -0.00000000000E+00 -0.11473439995E+01  0.11473439995E+01  0.00000000000E+00 0.  1.
          4    1    1    2  501    0  0.37467067021E+01 -0.17139106027E+01  0.99497570797E+01  0.10843701702E+02  0.12700000000E+01 0. -1.
         -4    1    1    2    0  501 -0.37467067021E+01  0.17139106027E+01  0.59347482707E+01  0.73354916470E+01  0.12700000000E+01 0.  1.
<mgrwt>
<rscale>  0 0.43114036E+01</rscale>
<asrwt>0</asrwt>
<pdfrwt beam="1">0</pdfrwt>
<pdfrwt beam="2">0</pdfrwt>
<totfact> 0.70678276E+11</totfact>
</mgrwt>
</event>
<event>
 4    1  0.3102735E+006  0.2083584E+01  0.7546771E-02  0.2926504E+00
         22   -1    0    0    0    0  0.00000000000E+00  0.00000000000E+00  0.13361660603E+02  0.13361660603E+02  0.00000000000E+00 0. -1.
         22   -1    0    0    0    0 -0.00000000000E+00 -0.00000000000E+00 -0.78862371604E+00  0.78862371604E+00  0.00000000000E+00 0.  1.
          4    1    1    2  501    0 -0.16319010788E+01 -0.25557987747E+00  0.86119358010E+00  0.22545457607E+01  0.12700000000E+01 0.  1.
         -4    1    1    2    0  501  0.16319010788E+01  0.25557987747E+00  0.11711843307E+02  0.11895738559E+02  0.12700000000E+01 0. -1.
<mgrwt>
<rscale>  0 0.20835840E+01</rscale>
<asrwt>0</asrwt>
<pdfrwt beam="1">0</pdfrwt>
<pdfrwt beam="2">0</pdfrwt>
<totfact> 0.14613926E+12</totfact>
</mgrwt>
</event>
<event>
 4    1  0.3102735E+006  0.2613031E+01  0.7546771E-02  0.2660703E+00
         22   -1    0    0    0    0  0.00000000000E+00  0.00000000000E+00  0.63675855052E+02  0.63675855052E+02  0.00000000000E+00 0.  1.
         22   -1    0    0    0    0 -0.00000000000E+00 -0.00000000000E+00 -0.82973540424E+00  0.82973540424E+00  0.00000000000E+00 0. -1.
          4    1    1    2  501    0 -0.18148929269E+01 -0.13860709768E+01  0.13264031925E+01  0.29304051798E+01  0.12700000000E+01 0. -1.
         -4    1    1    2    0  501  0.18148929269E+01  0.13860709768E+01  0.61519716455E+02  0.61575185276E+02  0.12700000000E+01 0.  1.
<mgrwt>
<rscale>  0 0.26130306E+01</rscale>
<asrwt>0</asrwt>
<pdfrwt beam="1">0</pdfrwt>
<pdfrwt beam="2">0</pdfrwt>
<totfact> 0.18797811E+11</totfact>
</mgrwt>
</event>
<event>
 4    1  0.3102735E+006  0.3868762E+01  0.7546771E-02  0.2303105E+00
         22   -1    0    0    0    0  0.00000000000E+00  0.00000000000E+00  0.13009739891E+02  0.13009739891E+02  0.00000000000E+00 0. -1.
         22   -1    0    0    0    0 -0.00000000000E+00 -0.00000000000E+00 -0.18826376418E+01  0.18826376418E+01  0.00000000000E+00 0.  1.
          4    1    1    2  501    0  0.21206106764E+01  0.29761436237E+01  0.91994021142E+00  0.39766330610E+01  0.12700000000E+01 0.  1.
         -4    1    1    2    0  501 -0.21206106764E+01 -0.29761436237E+01  0.10207162038E+02  0.10915744472E+02  0.12700000000E+01 0. -1.
<mgrwt>
<rscale>  0 0.38687621E+01</rscale>
<asrwt>0</asrwt>
<pdfrwt beam="1">0</pdfrwt>
<pdfrwt beam="2">0</pdfrwt>
<totfact> 0.55697356E+11</totfact>
</mgrwt>
</event>
<event>
 4    1  0.3102735E+006  0.3297898E+01  0.7546771E-02  0.2435672E+00
         22   -1    0    0    0    0  0.00000000000E+00  0.00000000000E+00  0.85191690077E+01  0.85191690077E+01  0.00000000000E+00 0. -1.
         22   -1    0    0    0    0 -0.00000000000E+00 -0.00000000000E+00 -0.13034369255E+01  0.13034369255E+01  0.00000000000E+00 0. -1.
          4    1    1    2  501    0 -0.30270456901E+01  0.31658673777E+00  0.29040097039E+01  0.43942468220E+01  0.12700000000E+01 0. -1.
         -4    1    1    2    0  501  0.30270456901E+01 -0.31658673777E+00  0.43117223783E+01  0.54283591112E+01  0.12700000000E+01 0. -1.
<mgrwt>
<rscale>  0 0.32978982E+01</rscale>
<asrwt>0</asrwt>
<pdfrwt beam="1">0</pdfrwt>
<pdfrwt beam="2">0</pdfrwt>
<totfact> 0.14217614E+12</totfact>
</mgrwt>
</event>
<event>
 4    1  0.3102735E+006  0.2618835E+01  0.7546771E-02  0.2658350E+00
         22   -1    0    0    0    0  0.00000000000E+00  0.00000000000E+00  0.32450099474E+02  0.32450099474E+02  0.00000000000E+00 0.  1.
         22   -1    0    0    0    0 -0.00000000000E+00 -0.00000000000E+00 -0.96190182366E+00  0.96190182366E+00  0.00000000000E+00 0. -1.
          4    1    1    2  501    0 -0.22396935033E+01  0.47871607004E+00  0.98710989339E+00  0.27986929103E+01  0.12700000000E+01 0. -1.
         -4    1    1    2    0  501  0.22396935033E+01 -0.47871607004E+00  0.30501087757E+02  0.30613308387E+02  0.12700000000E+01 0.  1.
<mgrwt>
<rscale>  0 0.26188349E+01</rscale>
<asrwt>0</asrwt>
<pdfrwt beam="1">0</pdfrwt>
<pdfrwt beam="2">0</pdfrwt>
<totfact> 0.38428403E+11</totfact>
</mgrwt>
</event>
<event>
 4    1  0.3102735E+006  0.5260997E+01  0.7546771E-02  0.2093081E+00
         22   -1    0    0    0    0  0.00000000000E+00  0.00000000000E+00  0.63014168606E+00  0.63014168606E+00  0.00000000000E+00 0. -1.
         22   -1    0    0    0    0 -0.00000000000E+00 -0.00000000000E+00 -0.83657294530E+02  0.83657294530E+02  0.00000000000E+00 0.  1.
          4    1    1    2  501    0  0.30230368170E+01  0.41141756517E+01 -0.70557842165E+02  0.70753707916E+02  0.12700000000E+01 0.  1.
         -4    1    1    2    0  501 -0.30230368170E+01 -0.41141756517E+01 -0.12469310679E+02  0.13533728300E+02  0.12700000000E+01 0. -1.
<mgrwt>
<rscale>  0 0.52609973E+01</rscale>
<asrwt>0</asrwt>
<pdfrwt beam="1">0</pdfrwt>
<pdfrwt beam="2">0</pdfrwt>
<totfact> 0.17715618E+11</totfact>
</mgrwt>
</event>
<event>
 4    1  0.3102735E+006  0.2256790E+01  0.7546771E-02  0.2826545E+00
         22   -1    0    0    0    0  0.00000000000E+00  0.00000000000E+00  0.29137778598E+01  0.29137778598E+01  0.00000000000E+00 0. -1.
         22   -1    0    0    0    0 -0.00000000000E+00 -0.00000000000E+00 -0.23172946500E+01  0.23172946500E+01  0.00000000000E+00 0. -1.
          4    1    1    2  501    0 -0.14192362863E+01 -0.12107724699E+01 -0.99822848348E+00  0.24677037333E+01  0.12700000000E+01 0. -1.
         -4    1    1    2    0  501  0.14192362863E+01  0.12107724699E+01  0.15947116932E+01  0.27633687765E+01  0.12700000000E+01 0. -1.
<mgrwt>
<rscale>  0 0.22567901E+01</rscale>
<asrwt>0</asrwt>
<pdfrwt beam="1">0</pdfrwt>
<pdfrwt beam="2">0</pdfrwt>
<totfact> 0.26078948E+12</totfact>
</mgrwt>
</event>
<event>
 4    1  0.3102735E+006  0.3002828E+01  0.7546771E-02  0.2521287E+00
         22   -1    0    0    0    0  0.00000000000E+00  0.00000000000E+00  0.13450553979E+02  0.13450553979E+02  0.00000000000E+00 0.  1.
         22   -1    0    0    0    0 -0.00000000000E+00 -0.00000000000E+00 -0.91782371927E+00  0.91782371927E+00  0.00000000000E+00 0. -1.
          4    1    1    2  501    0 -0.39087732456E+00  0.26928223098E+01  0.25361260742E+01  0.39305104680E+01  0.12700000000E+01 0. -1.
         -4    1    1    2    0  501  0.39087732456E+00 -0.26928223098E+01  0.99966041860E+01  0.10437867231E+02  0.12700000000E+01 0.  1.
<mgrwt>
<rscale>  0 0.30028282E+01</rscale>
<asrwt>0</asrwt>
<pdfrwt beam="1">0</pdfrwt>
<pdfrwt beam="2">0</pdfrwt>
<totfact> 0.12196858E+12</totfact>
</mgrwt>
</event>
<event>
 4    1  0.3102735E+006  0.3281150E+01  0.7546771E-02  0.2440165E+00
         22   -1    0    0    0    0  0.00000000000E+00  0.00000000000E+00  0.18347544392E+02  0.18347544392E+02  0.00000000000E+00 0. -1.
         22   -1    0    0    0    0 -0.00000000000E+00 -0.00000000000E+00 -0.58897838804E+00  0.58897838804E+00  0.00000000000E+00 0.  1.
          4    1    1    2  501    0  0.28087946696E+01  0.11241520125E+01  0.83006312609E+01  0.89256049976E+01  0.12700000000E+01 0. -1.
         -4    1    1    2    0  501 -0.28087946696E+01 -0.11241520125E+01  0.94579347431E+01  0.10010917783E+02  0.12700000000E+01 0.  1.
<mgrwt>
<rscale>  0 0.32811500E+01</rscale>
<asrwt>0</asrwt>
<pdfrwt beam="1">0</pdfrwt>
<pdfrwt beam="2">0</pdfrwt>
<totfact> 0.13767094E+12</totfact>
</mgrwt>
</event>
<event>
 4    1  0.3102735E+006  0.2402272E+01  0.7546771E-02  0.2753249E+00
         22   -1    0    0    0    0  0.00000000000E+00  0.00000000000E+00  0.13478139973E+00  0.13478139973E+00  0.00000000000E+00 0. -1.
         22   -1    0    0    0    0 -0.00000000000E+00 -0.00000000000E+00 -0.44549636494E+02  0.44549636494E+02  0.00000000000E+00 0.  1.
          4    1    1    2  501    0 -0.11947102642E+01 -0.16524760882E+01 -0.26613801288E+02  0.26722000839E+02  0.12700000000E+01 0.  1.
         -4    1    1    2    0  501  0.11947102642E+01  0.16524760882E+01 -0.17801053806E+02  0.17962417054E+02  0.12700000000E+01 0. -1.
<mgrwt>
<rscale>  0 0.24022718E+01</rscale>
<asrwt>0</asrwt>
<pdfrwt beam="1">0</pdfrwt>
<pdfrwt beam="2">0</pdfrwt>
<totfact> 0.23251424E+12</totfact>
</mgrwt>
</event>
<event>
 4    1  0.3102735E+006  0.2118984E+01  0.7546771E-02  0.2904794E+00
         22   -1    0    0    0    0  0.00000000000E+00  0.00000000000E+00  0.12828102155E+00  0.12828102155E+00  0.00000000000E+00 0.  1.
         22   -1    0    0    0    0 -0.00000000000E+00 -0.00000000000E+00 -0.40721567513E+02  0.40721567513E+02  0.00000000000E+00 0. -1.
          4    1    1    2  501    0 -0.11609209734E+01  0.12367112235E+01 -0.12641913648E+02  0.12818271055E+02  0.12700000000E+01 0. -1.
         -4    1    1    2    0  501  0.11609209734E+01 -0.12367112235E+01 -0.27951372844E+02  0.28031577480E+02  0.12700000000E+01 0. -1.
<mgrwt>
<rscale>  0 0.21189838E+01</rscale>
<asrwt>0</asrwt>
<pdfrwt beam="1">0</pdfrwt>
<pdfrwt beam="2">0</pdfrwt>
<totfact> 0.27613367E+12</totfact>
</mgrwt>
</event>
<event>
 4    1  0.3102735E+006  0.2046870E+01  0.7546771E-02  0.2949789E+00
         22   -1    0    0    0    0  0.00000000000E+00  0.00000000000E+00  0.42527798534E+00  0.42527798534E+00  0.00000000000E+00 0.  1.
         22   -1    0    0    0    0 -0.00000000000E+00 -0.00000000000E+00 -0.45829124682E+02  0.45829124682E+02  0.00000000000E+00 0.  1.
          4    1    1    2  501    0  0.16048125216E+01  0.36810133561E-01 -0.43193142749E+02  0.43241614895E+02  0.12700000000E+01 0.  1.
         -4    1    1    2    0  501 -0.16048125216E+01 -0.36810133561E-01 -0.22107039476E+01  0.30127877720E+01  0.12700000000E+01 0.  1.
<mgrwt>
<rscale>  0 0.20468703E+01</rscale>
<asrwt>0</asrwt>
<pdfrwt beam="1">0</pdfrwt>
<pdfrwt beam="2">0</pdfrwt>
<totfact> 0.61985040E+11</totfact>
</mgrwt>
</event>
<event>
 4    1  0.3102735E+006  0.2024150E+01  0.7546771E-02  0.2964612E+00
         22   -1    0    0    0    0  0.00000000000E+00  0.00000000000E+00  0.20439603859E+01  0.20439603859E+01  0.00000000000E+00 0. -1.
         22   -1    0    0    0    0 -0.00000000000E+00 -0.00000000000E+00 -0.33748748377E+01  0.33748748377E+01  0.00000000000E+00 0.  1.
          4    1    1    2  501    0  0.15540869759E+01 -0.26286631865E+00 -0.23919376215E+01  0.31334566561E+01  0.12700000000E+01 0.  1.
         -4    1    1    2    0  501 -0.15540869759E+01  0.26286631865E+00  0.10610231697E+01  0.22853785675E+01  0.12700000000E+01 0. -1.
<mgrwt>
<rscale>  0 0.20241504E+01</rscale>
<asrwt>0</asrwt>
<pdfrwt beam="1">0</pdfrwt>
<pdfrwt beam="2">0</pdfrwt>
<totfact> 0.25401472E+12</totfact>
</mgrwt>
</event>
<event>
 4    1  0.3102735E+006  0.2221735E+01  0.7546771E-02  0.2845567E+00
         22   -1    0    0    0    0  0.00000000000E+00  0.00000000000E+00  0.77922597867E+00  0.77922597867E+00  0.00000000000E+00 0. -1.
         22   -1    0    0    0    0 -0.00000000000E+00 -0.00000000000E+00 -0.66532958724E+01  0.66532958724E+01  0.00000000000E+00 0.  1.
          4    1    1    2  501    0  0.12717027068E+01  0.13061308290E+01 -0.37503484037E+01  0.43590387319E+01  0.12700000000E+01 0.  1.
         -4    1    1    2    0  501 -0.12717027068E+01 -0.13061308290E+01 -0.21237214900E+01  0.30734831192E+01  0.12700000000E+01 0.  1.
<mgrwt>
<rscale>  0 0.22217348E+01</rscale>
<asrwt>0</asrwt>
<pdfrwt beam="1">0</pdfrwt>
<pdfrwt beam="2">0</pdfrwt>
<totfact> 0.34412937E+12</totfact>
</mgrwt>
</event>
<event>
 4    1  0.3102735E+006  0.2085741E+01  0.7546771E-02  0.2925160E+00
         22   -1    0    0    0    0  0.00000000000E+00  0.00000000000E+00  0.85490739981E+01  0.85490739981E+01  0.00000000000E+00 0. -1.
         22   -1    0    0    0    0 -0.00000000000E+00 -0.00000000000E+00 -0.61522823956E+00  0.61522823956E+00  0.00000000000E+00 0.  1.
          4    1    1    2  501    0  0.85256709477E+00 -0.14179366574E+01  0.20616844627E+01  0.29327219165E+01  0.12700000000E+01 0.  1.
         -4    1    1    2    0  501 -0.85256709477E+00  0.14179366574E+01  0.58721612958E+01  0.62315803212E+01  0.12700000000E+01 0. -1.
<mgrwt>
<rscale>  0 0.20857409E+01</rscale>
<asrwt>0</asrwt>
<pdfrwt beam="1">0</pdfrwt>
<pdfrwt beam="2">0</pdfrwt>
<totfact> 0.33313586E+12</totfact>
</mgrwt>
</event>
<event>
 4    1  0.3102735E+006  0.3446057E+01  0.7546771E-02  0.2397604E+00
         22   -1    0    0    0    0  0.00000000000E+00  0.00000000000E+00  0.33910215515E+01  0.33910215515E+01  0.00000000000E+00 0. -1.
         22   -1    0    0    0    0 -0.00000000000E+00 -0.00000000000E+00 -0.14274315318E+02  0.14274315318E+02  0.00000000000E+00 0.  1.
          4    1    1    2  501    0  0.25706205056E+01  0.19116265729E+01 -0.13114716171E+02  0.13559907308E+02  0.12700000000E+01 0.  1.
         -4    1    1    2    0  501 -0.25706205056E+01 -0.19116265729E+01  0.22314224049E+01  0.41054295618E+01  0.12700000000E+01 0. -1.
<mgrwt>
<rscale>  0 0.34460566E+01</rscale>
<asrwt>0</asrwt>
<pdfrwt beam="1">0</pdfrwt>
<pdfrwt beam="2">0</pdfrwt>
<totfact> 0.25065989E+11</totfact>
</mgrwt>
</event>
<event>
 4    1  0.3102735E+006  0.2392143E+01  0.7546771E-02  0.2758079E+00
         22   -1    0    0    0    0  0.00000000000E+00  0.00000000000E+00  0.40404660425E+02  0.40404660425E+02  0.00000000000E+00 0.  1.
         22   -1    0    0    0    0 -0.00000000000E+00 -0.00000000000E+00 -0.48736223677E+00  0.48736223677E+00  0.00000000000E+00 0.  1.
          4    1    1    2  501    0  0.14135244770E+01  0.14530647885E+01  0.27377771794E+01  0.36356254773E+01  0.12700000000E+01 0.  1.
         -4    1    1    2    0  501 -0.14135244770E+01 -0.14530647885E+01  0.37179521009E+02  0.37256397185E+02  0.12700000000E+01 0.  1.
<mgrwt>
<rscale>  0 0.23921431E+01</rscale>
<asrwt>0</asrwt>
<pdfrwt beam="1">0</pdfrwt>
<pdfrwt beam="2">0</pdfrwt>
<totfact> 0.62655317E+11</totfact>
</mgrwt>
</event>
<event>
 4    1  0.3102735E+006  0.2431303E+01  0.7546771E-02  0.2739614E+00
         22   -1    0    0    0    0  0.00000000000E+00  0.00000000000E+00  0.90739315956E+00  0.90739315956E+00  0.00000000000E+00 0. -1.
         22   -1    0    0    0    0 -0.00000000000E+00 -0.00000000000E+00 -0.65303832673E+01  0.65303832673E+01  0.00000000000E+00 0. -1.
          4    1    1    2  501    0  0.13023634888E+01  0.16131281498E+01 -0.26282184879E+01  0.35803303625E+01  0.12700000000E+01 0. -1.
         -4    1    1    2    0  501 -0.13023634888E+01 -0.16131281498E+01 -0.29947716199E+01  0.38574460644E+01  0.12700000000E+01 0. -1.
<mgrwt>
<rscale>  0 0.24313028E+01</rscale>
<asrwt>0</asrwt>
<pdfrwt beam="1">0</pdfrwt>
<pdfrwt beam="2">0</pdfrwt>
<totfact> 0.29587425E+12</totfact>
</mgrwt>
</event>
<event>
 4    1  0.3102735E+006  0.2142265E+01  0.7546771E-02  0.2890895E+00
         22   -1    0    0    0    0  0.00000000000E+00  0.00000000000E+00  0.16597362881E+01  0.16597362881E+01  0.00000000000E+00 0.  1.
         22   -1    0    0    0    0 -0.00000000000E+00 -0.00000000000E+00 -0.54190555323E+01  0.54190555323E+01  0.00000000000E+00 0. -1.
          4    1    1    2  501    0 -0.17250655525E+01  0.23434092783E-01 -0.43566023443E+01  0.48548207282E+01  0.12700000000E+01 0. -1.
         -4    1    1    2    0  501  0.17250655525E+01 -0.23434092783E-01  0.59728310008E+00  0.22239710922E+01  0.12700000000E+01 0.  1.
<mgrwt>
<rscale>  0 0.21422652E+01</rscale>
<asrwt>0</asrwt>
<pdfrwt beam="1">0</pdfrwt>
<pdfrwt beam="2">0</pdfrwt>
<totfact> 0.18488089E+12</totfact>
</mgrwt>
</event>
<event>
 4    1  0.3102735E+006  0.2289793E+01  0.7546771E-02  0.2809144E+00
         22   -1    0    0    0    0  0.00000000000E+00  0.00000000000E+00  0.26121266088E+00  0.26121266088E+00  0.00000000000E+00 0. -1.
         22   -1    0    0    0    0 -0.00000000000E+00 -0.00000000000E+00 -0.20663774565E+02  0.20663774565E+02  0.00000000000E+00 0.  1.
          4    1    1    2  501    0 -0.18327457531E+01 -0.52085944016E+00 -0.84312509713E+01  0.87366552234E+01  0.12700000000E+01 0. -1.
         -4    1    1    2    0  501  0.18327457531E+01  0.52085944016E+00 -0.11971310933E+02  0.12188332003E+02  0.12700000000E+01 0.  1.
<mgrwt>
<rscale>  0 0.22897929E+01</rscale>
<asrwt>0</asrwt>
<pdfrwt beam="1">0</pdfrwt>
<pdfrwt beam="2">0</pdfrwt>
<totfact> 0.29642120E+12</totfact>
</mgrwt>
</event>
<event>
 4    1  0.3102735E+006  0.5576447E+01  0.7546771E-02  0.2059893E+00
         22   -1    0    0    0    0  0.00000000000E+00  0.00000000000E+00  0.86746916794E+01  0.86746916794E+01  0.00000000000E+00 0. -1.
         22   -1    0    0    0    0 -0.00000000000E+00 -0.00000000000E+00 -0.43978521627E+01  0.43978521627E+01  0.00000000000E+00 0.  1.
          4    1    1    2  501    0  0.41913564083E+01  0.34520134883E+01 -0.67203945427E+00  0.56167964796E+01  0.12700000000E+01 0.  1.
         -4    1    1    2    0  501 -0.41913564083E+01 -0.34520134883E+01  0.49488789710E+01  0.74557473625E+01  0.12700000000E+01 0. -1.
<mgrwt>
<rscale>  0 0.55764474E+01</rscale>
<asrwt>0</asrwt>
<pdfrwt beam="1">0</pdfrwt>
<pdfrwt beam="2">0</pdfrwt>
<totfact> 0.33834087E+11</totfact>
</mgrwt>
</event>
<event>
 4    1  0.3102735E+006  0.2376263E+01  0.7546771E-02  0.2765729E+00
         22   -1    0    0    0    0  0.00000000000E+00  0.00000000000E+00  0.96544102572E+01  0.96544102572E+01  0.00000000000E+00 0.  1.
         22   -1    0    0    0    0 -0.00000000000E+00 -0.00000000000E+00 -0.68054594830E+00  0.68054594830E+00  0.00000000000E+00 0. -1.
          4    1    1    2  501    0  0.20079159833E+01 -0.44725243230E-01  0.25494439028E+01  0.34851529603E+01  0.12700000000E+01 0. -1.
         -4    1    1    2    0  501 -0.20079159833E+01  0.44725243230E-01  0.64244204061E+01  0.68498032452E+01  0.12700000000E+01 0.  1.
<mgrwt>
<rscale>  0 0.23762632E+01</rscale>
<asrwt>0</asrwt>
<pdfrwt beam="1">0</pdfrwt>
<pdfrwt beam="2">0</pdfrwt>
<totfact> 0.25659155E+12</totfact>
</mgrwt>
</event>
<event>
 4    1  0.3102735E+006  0.2813313E+01  0.7546771E-02  0.2584683E+00
         22   -1    0    0    0    0  0.00000000000E+00  0.00000000000E+00  0.29399903757E+01  0.29399903757E+01  0.00000000000E+00 0. -1.
         22   -1    0    0    0    0 -0.00000000000E+00 -0.00000000000E+00 -0.36944472356E+01  0.36944472356E+01  0.00000000000E+00 0. -1.
          4    1    1    2  501    0 -0.25037105651E+01 -0.18238810395E+00 -0.21050928736E+01  0.35137085850E+01  0.12700000000E+01 0. -1.
         -4    1    1    2    0  501  0.25037105651E+01  0.18238810395E+00  0.13506360137E+01  0.31207290263E+01  0.12700000000E+01 0. -1.
<mgrwt>
<rscale>  0 0.28133134E+01</rscale>
<asrwt>0</asrwt>
<pdfrwt beam="1">0</pdfrwt>
<pdfrwt beam="2">0</pdfrwt>
<totfact> 0.14971155E+12</totfact>
</mgrwt>
</event>
<event>
 4    1  0.3102735E+006  0.2854014E+01  0.7546771E-02  0.2570428E+00
         22   -1    0    0    0    0  0.00000000000E+00  0.00000000000E+00  0.11454895750E+01  0.11454895750E+01  0.00000000000E+00 0.  1.
         22   -1    0    0    0    0 -0.00000000000E+00 -0.00000000000E+00 -0.20079195851E+02  0.20079195851E+02  0.00000000000E+00 0. -1.
          4    1    1    2  501    0 -0.24565750142E+01 -0.70550462583E+00 -0.17995507271E+02  0.18220419301E+02  0.12700000000E+01 0. -1.
         -4    1    1    2    0  501  0.24565750142E+01  0.70550462583E+00 -0.93819900569E+00  0.30042661253E+01  0.12700000000E+01 0.  1.
<mgrwt>
<rscale>  0 0.28540143E+01</rscale>
<asrwt>0</asrwt>
<pdfrwt beam="1">0</pdfrwt>
<pdfrwt beam="2">0</pdfrwt>
<totfact> 0.57713529E+11</totfact>
</mgrwt>
</event>
<event>
 4    1  0.3102735E+006  0.2303903E+01  0.7546771E-02  0.2801849E+00
         22   -1    0    0    0    0  0.00000000000E+00  0.00000000000E+00  0.13204529022E+01  0.13204529022E+01  0.00000000000E+00 0.  1.
         22   -1    0    0    0    0 -0.00000000000E+00 -0.00000000000E+00 -0.44347678952E+01  0.44347678952E+01  0.00000000000E+00 0. -1.
          4    1    1    2  501    0 -0.94996226723E+00 -0.16711201138E+01 -0.24373915808E+01  0.33539303007E+01  0.12700000000E+01 0. -1.
         -4    1    1    2    0  501  0.94996226723E+00  0.16711201138E+01 -0.67692341217E+00  0.24012904968E+01  0.12700000000E+01 0.  1.
<mgrwt>
<rscale>  0 0.23039034E+01</rscale>
<asrwt>0</asrwt>
<pdfrwt beam="1">0</pdfrwt>
<pdfrwt beam="2">0</pdfrwt>
<totfact> 0.30490763E+12</totfact>
</mgrwt>
</event>
<event>
 4    1  0.3102735E+006  0.2955375E+01  0.7546771E-02  0.2536473E+00
         22   -1    0    0    0    0  0.00000000000E+00  0.00000000000E+00  0.36296567797E+01  0.36296567797E+01  0.00000000000E+00 0. -1.
         22   -1    0    0    0    0 -0.00000000000E+00 -0.00000000000E+00 -0.67588253631E+01  0.67588253631E+01  0.00000000000E+00 0. -1.
          4    1    1    2  501    0 -0.24407883305E+01  0.10788391725E+01 -0.57328405976E+01  0.64497831709E+01  0.12700000000E+01 0. -1.
         -4    1    1    2    0  501  0.24407883305E+01 -0.10788391725E+01  0.26036720141E+01  0.39386989719E+01  0.12700000000E+01 0. -1.
<mgrwt>
<rscale>  0 0.29553750E+01</rscale>
<asrwt>0</asrwt>
<pdfrwt beam="1">0</pdfrwt>
<pdfrwt beam="2">0</pdfrwt>
<totfact> 0.57211855E+11</totfact>
</mgrwt>
</event>
<event>
 4    1  0.3102735E+006  0.4113224E+01  0.7546771E-02  0.2256160E+00
         22   -1    0    0    0    0  0.00000000000E+00  0.00000000000E+00  0.19174138118E+01  0.19174138118E+01  0.00000000000E+00 0. -1.
         22   -1    0    0    0    0 -0.00000000000E+00 -0.00000000000E+00 -0.88237152482E+01  0.88237152482E+01  0.00000000000E+00 0.  1.
          4    1    1    2  501    0  0.97042033228E+00  0.37899862729E+01 -0.34663321400E+01  0.53790398841E+01  0.12700000000E+01 0.  1.
         -4    1    1    2    0  501 -0.97042033228E+00 -0.37899862729E+01 -0.34399692964E+01  0.53620891759E+01  0.12700000000E+01 0. -1.
<mgrwt>
<rscale>  0 0.41132240E+01</rscale>
<asrwt>0</asrwt>
<pdfrwt beam="1">0</pdfrwt>
<pdfrwt beam="2">0</pdfrwt>
<totfact> 0.87371002E+11</totfact>
</mgrwt>
</event>
<event>
 4    1  0.3102735E+006  0.2380206E+01  0.7546771E-02  0.2763821E+00
         22   -1    0    0    0    0  0.00000000000E+00  0.00000000000E+00  0.67800149088E+02  0.67800149088E+02  0.00000000000E+00 0. -1.
         22   -1    0    0    0    0 -0.00000000000E+00 -0.00000000000E+00 -0.91680998916E+00  0.91680998916E+00  0.00000000000E+00 0. -1.
          4    1    1    2  501    0 -0.17670094495E+01 -0.96444725638E+00  0.68634362308E+00  0.24771855953E+01  0.12700000000E+01 0. -1.
         -4    1    1    2    0  501  0.17670094495E+01  0.96444725638E+00  0.66196995476E+02  0.66239773482E+02  0.12700000000E+01 0. -1.
<mgrwt>
<rscale>  0 0.23802061E+01</rscale>
<asrwt>0</asrwt>
<pdfrwt beam="1">0</pdfrwt>
<pdfrwt beam="2">0</pdfrwt>
<totfact> 0.15415263E+11</totfact>
</mgrwt>
</event>
<event>
 4    1  0.3102735E+006  0.2237152E+01  0.7546771E-02  0.2837132E+00
         22   -1    0    0    0    0  0.00000000000E+00  0.00000000000E+00  0.48328345931E+01  0.48328345931E+01  0.00000000000E+00 0.  1.
         22   -1    0    0    0    0 -0.00000000000E+00 -0.00000000000E+00 -0.18841984381E+01  0.18841984381E+01  0.00000000000E+00 0. -1.
          4    1    1    2  501    0 -0.29245086616E+00 -0.18183563813E+01 -0.77959514973E+00  0.23690960377E+01  0.12700000000E+01 0. -1.
         -4    1    1    2    0  501  0.29245086616E+00  0.18183563813E+01  0.37282313047E+01  0.43479369935E+01  0.12700000000E+01 0.  1.
<mgrwt>
<rscale>  0 0.22371516E+01</rscale>
<asrwt>0</asrwt>
<pdfrwt beam="1">0</pdfrwt>
<pdfrwt beam="2">0</pdfrwt>
<totfact> 0.18290030E+12</totfact>
</mgrwt>
</event>
<event>
 4    1  0.3102735E+006  0.2604691E+01  0.7546771E-02  0.2664100E+00
         22   -1    0    0    0    0  0.00000000000E+00  0.00000000000E+00  0.76093241169E+01  0.76093241169E+01  0.00000000000E+00 0.  1.
         22   -1    0    0    0    0 -0.00000000000E+00 -0.00000000000E+00 -0.95913604505E+00  0.95913604505E+00  0.00000000000E+00 0.  1.
          4    1    1    2  501    0 -0.18211570206E+01 -0.13619484868E+01  0.21881882020E+01  0.34018501116E+01  0.12700000000E+01 0.  1.
         -4    1    1    2    0  501  0.18211570206E+01  0.13619484868E+01  0.44619998699E+01  0.51666100504E+01  0.12700000000E+01 0.  1.
<mgrwt>
<rscale>  0 0.26046913E+01</rscale>
<asrwt>0</asrwt>
<pdfrwt beam="1">0</pdfrwt>
<pdfrwt beam="2">0</pdfrwt>
<totfact> 0.23130801E+12</totfact>
</mgrwt>
</event>
<event>
 4    1  0.3102735E+006  0.2185132E+01  0.7546771E-02  0.2866052E+00
         22   -1    0    0    0    0  0.00000000000E+00  0.00000000000E+00  0.60227539437E+00  0.60227539437E+00  0.00000000000E+00 0. -1.
         22   -1    0    0    0    0 -0.00000000000E+00 -0.00000000000E+00 -0.93595467566E+01  0.93595467566E+01  0.00000000000E+00 0.  1.
          4    1    1    2  501    0  0.17249658748E+01  0.43173272287E+00 -0.24306132731E+01  0.32684371336E+01  0.12700000000E+01 0. -1.
         -4    1    1    2    0  501 -0.17249658748E+01 -0.43173272287E+00 -0.63266580891E+01  0.66933850173E+01  0.12700000000E+01 0.  1.
<mgrwt>
<rscale>  0 0.21851317E+01</rscale>
<asrwt>0</asrwt>
<pdfrwt beam="1">0</pdfrwt>
<pdfrwt beam="2">0</pdfrwt>
<totfact> 0.30595499E+12</totfact>
</mgrwt>
</event>
<event>
 4    1  0.3102735E+006  0.3010790E+01  0.7546771E-02  0.2518781E+00
         22   -1    0    0    0    0  0.00000000000E+00  0.00000000000E+00  0.32705401899E+00  0.32705401899E+00  0.00000000000E+00 0. -1.
         22   -1    0    0    0    0 -0.00000000000E+00 -0.00000000000E+00 -0.57860668925E+02  0.57860668925E+02  0.00000000000E+00 0.  1.
          4    1    1    2  501    0  0.24800619781E+01 -0.11407225161E+01 -0.49766354202E+02  0.49857345155E+02  0.12700000000E+01 0.  1.
         -4    1    1    2    0  501 -0.24800619781E+01  0.11407225161E+01 -0.77672607032E+01  0.83303777889E+01  0.12700000000E+01 0. -1.
<mgrwt>
<rscale>  0 0.30107898E+01</rscale>
<asrwt>0</asrwt>
<pdfrwt beam="1">0</pdfrwt>
<pdfrwt beam="2">0</pdfrwt>
<totfact> 0.61200438E+11</totfact>
</mgrwt>
</event>
<event>
 4    1  0.3102735E+006  0.2391259E+01  0.7546771E-02  0.2758502E+00
         22   -1    0    0    0    0  0.00000000000E+00  0.00000000000E+00  0.31636477271E+01  0.31636477271E+01  0.00000000000E+00 0.  1.
         22   -1    0    0    0    0 -0.00000000000E+00 -0.00000000000E+00 -0.22318852331E+01  0.22318852331E+01  0.00000000000E+00 0. -1.
          4    1    1    2  501    0  0.23143704502E+00  0.20128721325E+01 -0.71057833291E+00  0.24946019512E+01  0.12700000000E+01 0. -1.
         -4    1    1    2    0  501 -0.23143704502E+00 -0.20128721325E+01  0.16423408268E+01  0.29009310090E+01  0.12700000000E+01 0.  1.
<mgrwt>
<rscale>  0 0.23912585E+01</rscale>
<asrwt>0</asrwt>
<pdfrwt beam="1">0</pdfrwt>
<pdfrwt beam="2">0</pdfrwt>
<totfact> 0.24744268E+12</totfact>
</mgrwt>
</event>
<event>
 4    1  0.3102735E+006  0.2011616E+01  0.7546771E-02  0.2972929E+00
         22   -1    0    0    0    0  0.00000000000E+00  0.00000000000E+00  0.14856097579E+01  0.14856097579E+01  0.00000000000E+00 0.  1.
         22   -1    0    0    0    0 -0.00000000000E+00 -0.00000000000E+00 -0.27425725941E+01  0.27425725941E+01  0.00000000000E+00 0.  1.
          4    1    1    2  501    0  0.15595932120E+01 -0.37004509294E-01 -0.45387732639E+00  0.20621845088E+01  0.12700000000E+01 0.  1.
         -4    1    1    2    0  501 -0.15595932120E+01  0.37004509294E-01 -0.80308550978E+00  0.21659978432E+01  0.12700000000E+01 0.  1.
<mgrwt>
<rscale>  0 0.20116163E+01</rscale>
<asrwt>0</asrwt>
<pdfrwt beam="1">0</pdfrwt>
<pdfrwt beam="2">0</pdfrwt>
<totfact> 0.46781692E+12</totfact>
</mgrwt>
</event>
<event>
 4    1  0.3102735E+006  0.2666601E+01  0.7546771E-02  0.2639346E+00
         22   -1    0    0    0    0  0.00000000000E+00  0.00000000000E+00  0.14797316133E+02  0.14797316133E+02  0.00000000000E+00 0. -1.
         22   -1    0    0    0    0 -0.00000000000E+00 -0.00000000000E+00 -0.40562643591E+01  0.40562643591E+01  0.00000000000E+00 0. -1.
          4    1    1    2  501    0  0.11996137893E+01  0.20146432637E+01 -0.34802734520E+01  0.43844114798E+01  0.12700000000E+01 0. -1.
         -4    1    1    2    0  501 -0.11996137893E+01 -0.20146432637E+01  0.14221325226E+02  0.14469169013E+02  0.12700000000E+01 0. -1.
<mgrwt>
<rscale>  0 0.26666010E+01</rscale>
<asrwt>0</asrwt>
<pdfrwt beam="1">0</pdfrwt>
<pdfrwt beam="2">0</pdfrwt>
<totfact> 0.19431486E+11</totfact>
</mgrwt>
</event>
<event>
 4    1  0.3102735E+006  0.2854136E+01  0.7546771E-02  0.2570386E+00
         22   -1    0    0    0    0  0.00000000000E+00  0.00000000000E+00  0.21731274150E+01  0.21731274150E+01  0.00000000000E+00 0. -1.
         22   -1    0    0    0    0 -0.00000000000E+00 -0.00000000000E+00 -0.67826496792E+01  0.67826496792E+01  0.00000000000E+00 0.  1.
          4    1    1    2  501    0  0.24514421208E+01  0.72361800225E+00 -0.52997004298E+01  0.60193783841E+01  0.12700000000E+01 0.  1.
         -4    1    1    2    0  501 -0.24514421208E+01 -0.72361800225E+00  0.69017816561E+00  0.29363987101E+01  0.12700000000E+01 0. -1.
<mgrwt>
<rscale>  0 0.28541359E+01</rscale>
<asrwt>0</asrwt>
<pdfrwt beam="1">0</pdfrwt>
<pdfrwt beam="2">0</pdfrwt>
<totfact> 0.10363824E+12</totfact>
</mgrwt>
</event>
<event>
 4    1  0.3102735E+006  0.2794634E+01  0.7546771E-02  0.2591352E+00
         22   -1    0    0    0    0  0.00000000000E+00  0.00000000000E+00  0.53176072237E+00  0.53176072237E+00  0.00000000000E+00 0. -1.
         22   -1    0    0    0    0 -0.00000000000E+00 -0.00000000000E+00 -0.37196381212E+02  0.37196381212E+02  0.00000000000E+00 0. -1.
          4    1    1    2  501    0  0.24847532439E+01 -0.15192206562E+00 -0.33006924251E+02  0.33125021170E+02  0.12700000000E+01 0. -1.
         -4    1    1    2    0  501 -0.24847532439E+01  0.15192206562E+00 -0.36576962384E+01  0.46031207642E+01  0.12700000000E+01 0. -1.
<mgrwt>
<rscale>  0 0.27946340E+01</rscale>
<asrwt>0</asrwt>
<pdfrwt beam="1">0</pdfrwt>
<pdfrwt beam="2">0</pdfrwt>
<totfact> 0.63202835E+11</totfact>
</mgrwt>
</event>
<event>
 4    1  0.3102735E+006  0.7382967E+01  0.7546771E-02  0.1914126E+00
         22   -1    0    0    0    0  0.00000000000E+00  0.00000000000E+00  0.20660803839E+02  0.20660803839E+02  0.00000000000E+00 0.  1.
         22   -1    0    0    0    0 -0.00000000000E+00 -0.00000000000E+00 -0.26473933140E+01  0.26473933140E+01  0.00000000000E+00 0. -1.
          4    1    1    2  501    0 -0.34222507316E+01 -0.64174376593E+01  0.83215254003E+01  0.11124567010E+02  0.12700000000E+01 0. -1.
         -4    1    1    2    0  501  0.34222507316E+01  0.64174376593E+01  0.96918851244E+01  0.12183630142E+02  0.12700000000E+01 0.  1.
<mgrwt>
<rscale>  0 0.73829673E+01</rscale>
<asrwt>0</asrwt>
<pdfrwt beam="1">0</pdfrwt>
<pdfrwt beam="2">0</pdfrwt>
<totfact> 0.21175701E+11</totfact>
</mgrwt>
</event>
<event>
 4    1  0.3102735E+006  0.5022421E+01  0.7546771E-02  0.2120337E+00
         22   -1    0    0    0    0  0.00000000000E+00  0.00000000000E+00  0.13822973572E+01  0.13822973572E+01  0.00000000000E+00 0. -1.
         22   -1    0    0    0    0 -0.00000000000E+00 -0.00000000000E+00 -0.18249347285E+02  0.18249347285E+02  0.00000000000E+00 0.  1.
          4    1    1    2  501    0  0.18861874032E+01  0.44781814171E+01 -0.85043360956E+01  0.98766615894E+01  0.12700000000E+01 0.  1.
         -4    1    1    2    0  501 -0.18861874032E+01 -0.44781814171E+01 -0.83627138324E+01  0.97549830531E+01  0.12700000000E+01 0. -1.
<mgrwt>
<rscale>  0 0.50224209E+01</rscale>
<asrwt>0</asrwt>
<pdfrwt beam="1">0</pdfrwt>
<pdfrwt beam="2">0</pdfrwt>
<totfact> 0.52400505E+11</totfact>
</mgrwt>
</event>
<event>
 4    1  0.3102735E+006  0.2456280E+01  0.7546771E-02  0.2728124E+00
         22   -1    0    0    0    0  0.00000000000E+00  0.00000000000E+00  0.31381693686E+00  0.31381693686E+00  0.00000000000E+00 0.  1.
         22   -1    0    0    0    0 -0.00000000000E+00 -0.00000000000E+00 -0.19873138966E+02  0.19873138966E+02  0.00000000000E+00 0. -1.
          4    1    1    2  501    0 -0.14969567785E+01  0.14763233576E+01 -0.79576550309E+01  0.83281200666E+01  0.12700000000E+01 0.  1.
         -4    1    1    2    0  501  0.14969567785E+01 -0.14763233576E+01 -0.11601666998E+02  0.11858835836E+02  0.12700000000E+01 0.  1.
<mgrwt>
<rscale>  0 0.24562798E+01</rscale>
<asrwt>0</asrwt>
<pdfrwt beam="1">0</pdfrwt>
<pdfrwt beam="2">0</pdfrwt>
<totfact> 0.25337954E+12</totfact>
</mgrwt>
</event>
<event>
 4    1  0.3102735E+006  0.3363085E+01  0.7546771E-02  0.2418560E+00
         22   -1    0    0    0    0  0.00000000000E+00  0.00000000000E+00  0.12116601698E+01  0.12116601698E+01  0.00000000000E+00 0. -1.
         22   -1    0    0    0    0 -0.00000000000E+00 -0.00000000000E+00 -0.96893723735E+01  0.96893723735E+01  0.00000000000E+00 0.  1.
          4    1    1    2  501    0  0.31037159415E+01  0.25375424268E+00 -0.52818322884E+01  0.62616368614E+01  0.12700000000E+01 0.  1.
         -4    1    1    2    0  501 -0.31037159415E+01 -0.25375424268E+00 -0.31958799152E+01  0.46393956819E+01  0.12700000000E+01 0. -1.
<mgrwt>
<rscale>  0 0.33630855E+01</rscale>
<asrwt>0</asrwt>
<pdfrwt beam="1">0</pdfrwt>
<pdfrwt beam="2">0</pdfrwt>
<totfact> 0.13235317E+12</totfact>
</mgrwt>
</event>
<event>
 4    1  0.3102735E+006  0.2924856E+01  0.7546771E-02  0.2546473E+00
         22   -1    0    0    0    0  0.00000000000E+00  0.00000000000E+00  0.59405429685E+00  0.59405429685E+00  0.00000000000E+00 0. -1.
         22   -1    0    0    0    0 -0.00000000000E+00 -0.00000000000E+00 -0.36957063283E+02  0.36957063283E+02  0.00000000000E+00 0.  1.
          4    1    1    2  501    0  0.22811228417E+00 -0.26248522950E+01 -0.32849774448E+02  0.32979728108E+02  0.12700000000E+01 0.  1.
         -4    1    1    2    0  501 -0.22811228417E+00  0.26248522950E+01 -0.35132345381E+01  0.45713894720E+01  0.12700000000E+01 0. -1.
<mgrwt>
<rscale>  0 0.29248564E+01</rscale>
<asrwt>0</asrwt>
<pdfrwt beam="1">0</pdfrwt>
<pdfrwt beam="2">0</pdfrwt>
<totfact> 0.56225733E+11</totfact>
</mgrwt>
</event>
<event>
 4    1  0.3102735E+006  0.2288427E+01  0.7546771E-02  0.2809855E+00
         22   -1    0    0    0    0  0.00000000000E+00  0.00000000000E+00  0.24274447033E+00  0.24274447033E+00  0.00000000000E+00 0. -1.
         22   -1    0    0    0    0 -0.00000000000E+00 -0.00000000000E+00 -0.24120951692E+02  0.24120951692E+02  0.00000000000E+00 0.  1.
          4    1    1    2  501    0  0.64013546846E+00 -0.17928263423E+01 -0.15897786549E+02  0.16061647389E+02  0.12700000000E+01 0.  1.
         -4    1    1    2    0  501 -0.64013546846E+00  0.17928263423E+01 -0.79804206733E+01  0.83020487733E+01  0.12700000000E+01 0. -1.
<mgrwt>
<rscale>  0 0.22884273E+01</rscale>
<asrwt>0</asrwt>
<pdfrwt beam="1">0</pdfrwt>
<pdfrwt beam="2">0</pdfrwt>
<totfact> 0.26502765E+12</totfact>
</mgrwt>
</event>
<event>
 4    1  0.3102735E+006  0.3487845E+01  0.7546771E-02  0.2387380E+00
         22   -1    0    0    0    0  0.00000000000E+00  0.00000000000E+00  0.21860701978E+01  0.21860701978E+01  0.00000000000E+00 0.  1.
         22   -1    0    0    0    0 -0.00000000000E+00 -0.00000000000E+00 -0.56465019908E+01  0.56465019908E+01  0.00000000000E+00 0. -1.
          4    1    1    2  501    0 -0.22416305563E+01 -0.23510111678E+01 -0.22012795075E+01  0.41244020818E+01  0.12700000000E+01 0.  1.
         -4    1    1    2    0  501  0.22416305563E+01  0.23510111678E+01 -0.12591522855E+01  0.37081701067E+01  0.12700000000E+01 0. -1.
<mgrwt>
<rscale>  0 0.34878448E+01</rscale>
<asrwt>0</asrwt>
<pdfrwt beam="1">0</pdfrwt>
<pdfrwt beam="2">0</pdfrwt>
<totfact> 0.12805699E+12</totfact>
</mgrwt>
</event>
<event>
 4    1  0.3102735E+006  0.2284438E+01  0.7546771E-02  0.2811935E+00
         22   -1    0    0    0    0  0.00000000000E+00  0.00000000000E+00  0.82097239897E+00  0.82097239897E+00  0.00000000000E+00 0. -1.
         22   -1    0    0    0    0 -0.00000000000E+00 -0.00000000000E+00 -0.63699709361E+01  0.63699709361E+01  0.00000000000E+00 0.  1.
          4    1    1    2  501    0 -0.15499040116E+01 -0.10970661129E+01 -0.29387514887E+01  0.37222193398E+01  0.12700000000E+01 0.  1.
         -4    1    1    2    0  501  0.15499040116E+01  0.10970661129E+01 -0.26102470484E+01  0.34687239953E+01  0.12700000000E+01 0. -1.
<mgrwt>
<rscale>  0 0.22844379E+01</rscale>
<asrwt>0</asrwt>
<pdfrwt beam="1">0</pdfrwt>
<pdfrwt beam="2">0</pdfrwt>
<totfact> 0.34158360E+12</totfact>
</mgrwt>
</event>
<event>
 4    1  0.3102735E+006  0.3198596E+01  0.7546771E-02  0.2462917E+00
         22   -1    0    0    0    0  0.00000000000E+00  0.00000000000E+00  0.37895340690E+01  0.37895340690E+01  0.00000000000E+00 0. -1.
         22   -1    0    0    0    0 -0.00000000000E+00 -0.00000000000E+00 -0.27984307248E+01  0.27984307248E+01  0.00000000000E+00 0.  1.
          4    1    1    2  501    0 -0.29187336403E+01 -0.31481912730E+00  0.11139252069E+01  0.33870114427E+01  0.12700000000E+01 0. -1.
         -4    1    1    2    0  501  0.29187336403E+01  0.31481912730E+00 -0.12282186264E+00  0.32009533511E+01  0.12700000000E+01 0. -1.
<mgrwt>
<rscale>  0 0.31985961E+01</rscale>
<asrwt>0</asrwt>
<pdfrwt beam="1">0</pdfrwt>
<pdfrwt beam="2">0</pdfrwt>
<totfact> 0.15392294E+12</totfact>
</mgrwt>
</event>
<event>
 4    1  0.3102735E+006  0.2498632E+01  0.7546771E-02  0.2709133E+00
         22   -1    0    0    0    0  0.00000000000E+00  0.00000000000E+00  0.70402716895E+01  0.70402716895E+01  0.00000000000E+00 0.  1.
         22   -1    0    0    0    0 -0.00000000000E+00 -0.00000000000E+00 -0.12648709780E+01  0.12648709780E+01  0.00000000000E+00 0. -1.
          4    1    1    2  501    0 -0.12625697160E+01  0.17424638238E+01  0.61734973157E+00  0.25737682794E+01  0.12700000000E+01 0. -1.
         -4    1    1    2    0  501  0.12625697160E+01 -0.17424638238E+01  0.51580509800E+01  0.57313743881E+01  0.12700000000E+01 0.  1.
<mgrwt>
<rscale>  0 0.24986321E+01</rscale>
<asrwt>0</asrwt>
<pdfrwt beam="1">0</pdfrwt>
<pdfrwt beam="2">0</pdfrwt>
<totfact> 0.18499491E+12</totfact>
</mgrwt>
</event>
<event>
 4    1  0.3102735E+006  0.2048769E+01  0.7546771E-02  0.2948565E+00
         22   -1    0    0    0    0  0.00000000000E+00  0.00000000000E+00  0.37167337980E+01  0.37167337980E+01  0.00000000000E+00 0. -1.
         22   -1    0    0    0    0 -0.00000000000E+00 -0.00000000000E+00 -0.19459295306E+01  0.19459295306E+01  0.00000000000E+00 0. -1.
          4    1    1    2  501    0  0.70054073715E+00  0.14469962816E+01 -0.94872373863E+00  0.22577715331E+01  0.12700000000E+01 0. -1.
         -4    1    1    2    0  501 -0.70054073715E+00 -0.14469962816E+01  0.27195280061E+01  0.34048917955E+01  0.12700000000E+01 0. -1.
<mgrwt>
<rscale>  0 0.20487693E+01</rscale>
<asrwt>0</asrwt>
<pdfrwt beam="1">0</pdfrwt>
<pdfrwt beam="2">0</pdfrwt>
<totfact> 0.24011150E+12</totfact>
</mgrwt>
</event>
<event>
 4    1  0.3102735E+006  0.2000611E+01  0.7546771E-02  0.2980317E+00
         22   -1    0    0    0    0  0.00000000000E+00  0.00000000000E+00  0.31501050057E+01  0.31501050057E+01  0.00000000000E+00 0.  1.
         22   -1    0    0    0    0 -0.00000000000E+00 -0.00000000000E+00 -0.30904176082E+01  0.30904176082E+01  0.00000000000E+00 0. -1.
          4    1    1    2  501    0  0.93784463536E+00 -0.12288172370E+01 -0.23645706528E+01  0.30973599620E+01  0.12700000000E+01 0. -1.
         -4    1    1    2    0  501 -0.93784463536E+00  0.12288172370E+01  0.24242580503E+01  0.31431626519E+01  0.12700000000E+01 0.  1.
<mgrwt>
<rscale>  0 0.20006110E+01</rscale>
<asrwt>0</asrwt>
<pdfrwt beam="1">0</pdfrwt>
<pdfrwt beam="2">0</pdfrwt>
<totfact> 0.17022052E+12</totfact>
</mgrwt>
</event>
<event>
 4    1  0.3102735E+006  0.3424255E+01  0.7546771E-02  0.2403024E+00
         22   -1    0    0    0    0  0.00000000000E+00  0.00000000000E+00  0.50857777641E+01  0.50857777641E+01  0.00000000000E+00 0.  1.
         22   -1    0    0    0    0 -0.00000000000E+00 -0.00000000000E+00 -0.39379155520E+01  0.39379155520E+01  0.00000000000E+00 0. -1.
          4    1    1    2  501    0  0.24833395443E+01 -0.19863646822E+01 -0.23309590252E+01  0.41423290454E+01  0.12700000000E+01 0. -1.
         -4    1    1    2    0  501 -0.24833395443E+01  0.19863646822E+01  0.34788212373E+01  0.48813642708E+01  0.12700000000E+01 0.  1.
<mgrwt>
<rscale>  0 0.34242547E+01</rscale>
<asrwt>0</asrwt>
<pdfrwt beam="1">0</pdfrwt>
<pdfrwt beam="2">0</pdfrwt>
<totfact> 0.72916298E+11</totfact>
</mgrwt>
</event>
<event>
 4    1  0.3102735E+006  0.3590847E+01  0.7546771E-02  0.2363068E+00
         22   -1    0    0    0    0  0.00000000000E+00  0.00000000000E+00  0.55967098382E+01  0.55967098382E+01  0.00000000000E+00 0.  1.
         22   -1    0    0    0    0 -0.00000000000E+00 -0.00000000000E+00 -0.28348407484E+01  0.28348407484E+01  0.00000000000E+00 0. -1.
          4    1    1    2  501    0  0.30803089338E+01  0.13390212923E+01 -0.44355717573E+00  0.36181382114E+01  0.12700000000E+01 0. -1.
         -4    1    1    2    0  501 -0.30803089338E+01 -0.13390212923E+01  0.32054262655E+01  0.48134123751E+01  0.12700000000E+01 0.  1.
<mgrwt>
<rscale>  0 0.35908469E+01</rscale>
<asrwt>0</asrwt>
<pdfrwt beam="1">0</pdfrwt>
<pdfrwt beam="2">0</pdfrwt>
<totfact> 0.95653586E+11</totfact>
</mgrwt>
</event>
<event>
 4    1  0.3102735E+006  0.2090803E+01  0.7546771E-02  0.2922019E+00
         22   -1    0    0    0    0  0.00000000000E+00  0.00000000000E+00  0.64834077724E+00  0.64834077724E+00  0.00000000000E+00 0.  1.
         22   -1    0    0    0    0 -0.00000000000E+00 -0.00000000000E+00 -0.72903643109E+01  0.72903643109E+01  0.00000000000E+00 0. -1.
          4    1    1    2  501    0 -0.14373355468E+01 -0.83223935912E+00 -0.44091159408E+01  0.48797294192E+01  0.12700000000E+01 0. -1.
         -4    1    1    2    0  501  0.14373355468E+01  0.83223935912E+00 -0.22329075928E+01  0.30589756689E+01  0.12700000000E+01 0.  1.
<mgrwt>
<rscale>  0 0.20908027E+01</rscale>
<asrwt>0</asrwt>
<pdfrwt beam="1">0</pdfrwt>
<pdfrwt beam="2">0</pdfrwt>
<totfact> 0.38009096E+12</totfact>
</mgrwt>
</event>
<event>
 4    1  0.3102735E+006  0.2170237E+01  0.7546771E-02  0.2874577E+00
         22   -1    0    0    0    0  0.00000000000E+00  0.00000000000E+00  0.82633642890E+01  0.82633642890E+01  0.00000000000E+00 0. -1.
         22   -1    0    0    0    0 -0.00000000000E+00 -0.00000000000E+00 -0.57126777270E+00  0.57126777270E+00  0.00000000000E+00 0. -1.
          4    1    1    2  501    0  0.81745256429E+00  0.15584604615E+01  0.40560201210E+01  0.46001333597E+01  0.12700000000E+01 0. -1.
         -4    1    1    2    0  501 -0.81745256429E+00 -0.15584604615E+01  0.36360763953E+01  0.42344987020E+01  0.12700000000E+01 0. -1.
<mgrwt>
<rscale>  0 0.21702368E+01</rscale>
<asrwt>0</asrwt>
<pdfrwt beam="1">0</pdfrwt>
<pdfrwt beam="2">0</pdfrwt>
<totfact> 0.37744002E+12</totfact>
</mgrwt>
</event>
<event>
 4    1  0.3102735E+006  0.2459384E+01  0.7546771E-02  0.2726712E+00
         22   -1    0    0    0    0  0.00000000000E+00  0.00000000000E+00  0.64498812320E+01  0.64498812320E+01  0.00000000000E+00 0. -1.
         22   -1    0    0    0    0 -0.00000000000E+00 -0.00000000000E+00 -0.11346011052E+01  0.11346011052E+01  0.00000000000E+00 0.  1.
          4    1    1    2  501    0  0.20948354596E+01 -0.21756702793E+00  0.10781752974E+01  0.26853366617E+01  0.12700000000E+01 0.  1.
         -4    1    1    2    0  501 -0.20948354596E+01  0.21756702793E+00  0.42371048294E+01  0.48991456755E+01  0.12700000000E+01 0. -1.
<mgrwt>
<rscale>  0 0.24593843E+01</rscale>
<asrwt>0</asrwt>
<pdfrwt beam="1">0</pdfrwt>
<pdfrwt beam="2">0</pdfrwt>
<totfact> 0.23263886E+12</totfact>
</mgrwt>
</event>
<event>
 4    1  0.3102735E+006  0.2137461E+01  0.7546771E-02  0.2893740E+00
         22   -1    0    0    0    0  0.00000000000E+00  0.00000000000E+00  0.81135794737E+01  0.81135794737E+01  0.00000000000E+00 0.  1.
         22   -1    0    0    0    0 -0.00000000000E+00 -0.00000000000E+00 -0.60301968017E+00  0.60301968017E+00  0.00000000000E+00 0. -1.
          4    1    1    2  501    0  0.71107801997E+00  0.15653136117E+01  0.48766704557E+01  0.53245331614E+01  0.12700000000E+01 0.  1.
         -4    1    1    2    0  501 -0.71107801997E+00 -0.15653136117E+01  0.26338893378E+01  0.33920659925E+01  0.12700000000E+01 0. -1.
<mgrwt>
<rscale>  0 0.21374608E+01</rscale>
<asrwt>0</asrwt>
<pdfrwt beam="1">0</pdfrwt>
<pdfrwt beam="2">0</pdfrwt>
<totfact> 0.36291470E+12</totfact>
</mgrwt>
</event>
<event>
 4    1  0.3102735E+006  0.2028011E+01  0.7546771E-02  0.2962070E+00
         22   -1    0    0    0    0  0.00000000000E+00  0.00000000000E+00  0.67450662821E+00  0.67450662821E+00  0.00000000000E+00 0.  1.
         22   -1    0    0    0    0 -0.00000000000E+00 -0.00000000000E+00 -0.63697087632E+01  0.63697087632E+01  0.00000000000E+00 0.  1.
          4    1    1    2  501    0 -0.36244733528E+00 -0.15390129085E+01 -0.35756570149E+01  0.41107361739E+01  0.12700000000E+01 0.  1.
         -4    1    1    2    0  501  0.36244733528E+00  0.15390129085E+01 -0.21195451201E+01  0.29334792175E+01  0.12700000000E+01 0.  1.
<mgrwt>
<rscale>  0 0.20280110E+01</rscale>
<asrwt>0</asrwt>
<pdfrwt beam="1">0</pdfrwt>
<pdfrwt beam="2">0</pdfrwt>
<totfact> 0.42703383E+12</totfact>
</mgrwt>
</event>
<event>
 4    1  0.3102735E+006  0.2040200E+01  0.7546771E-02  0.2954108E+00
         22   -1    0    0    0    0  0.00000000000E+00  0.00000000000E+00  0.23982046045E+01  0.23982046045E+01  0.00000000000E+00 0.  1.
         22   -1    0    0    0    0 -0.00000000000E+00 -0.00000000000E+00 -0.18283875596E+01  0.18283875596E+01  0.00000000000E+00 0. -1.
          4    1    1    2  501    0  0.12686368514E+01  0.96957465569E+00 -0.19106490018E+00  0.20491267091E+01  0.12700000000E+01 0. -1.
         -4    1    1    2    0  501 -0.12686368514E+01 -0.96957465569E+00  0.76088194503E+00  0.21774654550E+01  0.12700000000E+01 0.  1.
<mgrwt>
<rscale>  0 0.20401996E+01</rscale>
<asrwt>0</asrwt>
<pdfrwt beam="1">0</pdfrwt>
<pdfrwt beam="2">0</pdfrwt>
<totfact> 0.43048696E+12</totfact>
</mgrwt>
</event>
<event>
 4    1  0.3102735E+006  0.3387600E+01  0.7546771E-02  0.2412275E+00
         22   -1    0    0    0    0  0.00000000000E+00  0.00000000000E+00  0.34694088638E+02  0.34694088638E+02  0.00000000000E+00 0. -1.
         22   -1    0    0    0    0 -0.00000000000E+00 -0.00000000000E+00 -0.33370803647E+00  0.33370803647E+00  0.00000000000E+00 0.  1.
          4    1    1    2  501    0 -0.31201896587E+01 -0.35686460493E+00  0.15537429546E+02  0.15902438579E+02  0.12700000000E+01 0.  1.
         -4    1    1    2    0  501  0.31201896587E+01  0.35686460493E+00  0.18822951056E+02  0.19125358096E+02  0.12700000000E+01 0. -1.
<mgrwt>
<rscale>  0 0.33876003E+01</rscale>
<asrwt>0</asrwt>
<pdfrwt beam="1">0</pdfrwt>
<pdfrwt beam="2">0</pdfrwt>
<totfact> 0.11685820E+12</totfact>
</mgrwt>
</event>
<event>
 4    1  0.3102735E+006  0.6629131E+01  0.7546771E-02  0.1967472E+00
         22   -1    0    0    0    0  0.00000000000E+00  0.00000000000E+00  0.31613328949E+02  0.31613328949E+02  0.00000000000E+00 0. -1.
         22   -1    0    0    0    0 -0.00000000000E+00 -0.00000000000E+00 -0.23248843519E+01  0.23248843519E+01  0.00000000000E+00 0.  1.
          4    1    1    2  501    0 -0.34797772229E+01 -0.54976025359E+01  0.25404321197E+02  0.26254997974E+02  0.12700000000E+01 0. -1.
         -4    1    1    2    0  501  0.34797772229E+01  0.54976025359E+01  0.38841234003E+01  0.76832153264E+01  0.12700000000E+01 0.  1.
<mgrwt>
<rscale>  0 0.66291314E+01</rscale>
<asrwt>0</asrwt>
<pdfrwt beam="1">0</pdfrwt>
<pdfrwt beam="2">0</pdfrwt>
<totfact> 0.14391936E+11</totfact>
</mgrwt>
</event>
<event>
 4    1  0.3102735E+006  0.2049498E+01  0.7546771E-02  0.2948095E+00
         22   -1    0    0    0    0  0.00000000000E+00  0.00000000000E+00  0.29796194503E+02  0.29796194503E+02  0.00000000000E+00 0.  1.
         22   -1    0    0    0    0 -0.00000000000E+00 -0.00000000000E+00 -0.12410402684E+01  0.12410402684E+01  0.00000000000E+00 0. -1.
          4    1    1    2  501    0 -0.16012498466E+01 -0.15343119953E+00 -0.33308243163E+00  0.20763877553E+01  0.12700000000E+01 0. -1.
         -4    1    1    2    0  501  0.16012498466E+01  0.15343119953E+00  0.28888236666E+02  0.28960847016E+02  0.12700000000E+01 0.  1.
<mgrwt>
<rscale>  0 0.20494980E+01</rscale>
<asrwt>0</asrwt>
<pdfrwt beam="1">0</pdfrwt>
<pdfrwt beam="2">0</pdfrwt>
<totfact> 0.32015801E+11</totfact>
</mgrwt>
</event>
<event>
 4    1  0.3102735E+006  0.2130893E+01  0.7546771E-02  0.2897648E+00
         22   -1    0    0    0    0  0.00000000000E+00  0.00000000000E+00  0.25442853942E+01  0.25442853942E+01  0.00000000000E+00 0.  1.
         22   -1    0    0    0    0 -0.00000000000E+00 -0.00000000000E+00 -0.17848656886E+01  0.17848656886E+01  0.00000000000E+00 0. -1.
          4    1    1    2  501    0 -0.16269429801E+01 -0.52996338345E+00  0.40249198473E+00  0.21685719831E+01  0.12700000000E+01 0. -1.
         -4    1    1    2    0  501  0.16269429801E+01  0.52996338345E+00  0.35692772080E+00  0.21605790997E+01  0.12700000000E+01 0.  1.
<mgrwt>
<rscale>  0 0.21308929E+01</rscale>
<asrwt>0</asrwt>
<pdfrwt beam="1">0</pdfrwt>
<pdfrwt beam="2">0</pdfrwt>
<totfact> 0.41323136E+12</totfact>
</mgrwt>
</event>
<event>
 4    1  0.3102735E+006  0.3531612E+01  0.7546771E-02  0.2376899E+00
         22   -1    0    0    0    0  0.00000000000E+00  0.00000000000E+00  0.67348640564E+00  0.67348640564E+00  0.00000000000E+00 0.  1.
         22   -1    0    0    0    0 -0.00000000000E+00 -0.00000000000E+00 -0.19398789968E+02  0.19398789968E+02  0.00000000000E+00 0. -1.
          4    1    1    2  501    0 -0.30767339452E+01 -0.11802931263E+01 -0.11499988207E+02  0.12030046234E+02  0.12700000000E+01 0. -1.
         -4    1    1    2    0  501  0.30767339452E+01  0.11802931263E+01 -0.72253153562E+01  0.80422301404E+01  0.12700000000E+01 0.  1.
<mgrwt>
<rscale>  0 0.35316120E+01</rscale>
<asrwt>0</asrwt>
<pdfrwt beam="1">0</pdfrwt>
<pdfrwt beam="2">0</pdfrwt>
<totfact> 0.11034902E+12</totfact>
</mgrwt>
</event>
<event>
 4    1  0.3102735E+006  0.2255426E+01  0.7546771E-02  0.2827274E+00
         22   -1    0    0    0    0  0.00000000000E+00  0.00000000000E+00  0.65263979008E+00  0.65263979008E+00  0.00000000000E+00 0.  1.
         22   -1    0    0    0    0 -0.00000000000E+00 -0.00000000000E+00 -0.80808007752E+01  0.80808007752E+01  0.00000000000E+00 0. -1.
          4    1    1    2  501    0 -0.17466129099E+01 -0.65068479536E+00 -0.45361368309E+01  0.50659140053E+01  0.12700000000E+01 0.  1.
         -4    1    1    2    0  501  0.17466129099E+01  0.65068479536E+00 -0.28920241542E+01  0.36675265600E+01  0.12700000000E+01 0. -1.
<mgrwt>
<rscale>  0 0.22554262E+01</rscale>
<asrwt>0</asrwt>
<pdfrwt beam="1">0</pdfrwt>
<pdfrwt beam="2">0</pdfrwt>
<totfact> 0.33343684E+12</totfact>
</mgrwt>
</event>
<event>
 4    1  0.3102735E+006  0.2691965E+01  0.7546771E-02  0.2629507E+00
         22   -1    0    0    0    0  0.00000000000E+00  0.00000000000E+00  0.70300934927E+01  0.70300934927E+01  0.00000000000E+00 0.  1.
         22   -1    0    0    0    0 -0.00000000000E+00 -0.00000000000E+00 -0.20215652149E+01  0.20215652149E+01  0.00000000000E+00 0.  1.
          4    1    1    2  501    0 -0.23043099065E+01 -0.56914920345E+00 -0.66412101881E+00  0.27726759076E+01  0.12700000000E+01 0.  1.
         -4    1    1    2    0  501  0.23043099065E+01  0.56914920345E+00  0.56726492966E+01  0.62789828001E+01  0.12700000000E+01 0.  1.
<mgrwt>
<rscale>  0 0.26919649E+01</rscale>
<asrwt>0</asrwt>
<pdfrwt beam="1">0</pdfrwt>
<pdfrwt beam="2">0</pdfrwt>
<totfact> 0.10796657E+12</totfact>
</mgrwt>
</event>
<event>
 4    1  0.3102735E+006  0.5150511E+01  0.7546771E-02  0.2105455E+00
         22   -1    0    0    0    0  0.00000000000E+00  0.00000000000E+00  0.82398560129E+01  0.82398560129E+01  0.00000000000E+00 0. -1.
         22   -1    0    0    0    0 -0.00000000000E+00 -0.00000000000E+00 -0.40334590123E+01  0.40334590123E+01  0.00000000000E+00 0.  1.
          4    1    1    2  501    0  0.43329322543E+01 -0.24780155138E+01  0.48600223446E+01  0.70814956045E+01  0.12700000000E+01 0. -1.
         -4    1    1    2    0  501 -0.43329322543E+01  0.24780155138E+01 -0.65362534404E+00  0.51918194207E+01  0.12700000000E+01 0.  1.
<mgrwt>
<rscale>  0 0.51505109E+01</rscale>
<asrwt>0</asrwt>
<pdfrwt beam="1">0</pdfrwt>
<pdfrwt beam="2">0</pdfrwt>
<totfact> 0.39856685E+11</totfact>
</mgrwt>
</event>
<event>
 4    1  0.3102735E+006  0.2018218E+01  0.7546771E-02  0.2968536E+00
         22   -1    0    0    0    0  0.00000000000E+00  0.00000000000E+00  0.86520762681E+00  0.86520762681E+00  0.00000000000E+00 0. -1.
         22   -1    0    0    0    0 -0.00000000000E+00 -0.00000000000E+00 -0.51989544430E+01  0.51989544430E+01  0.00000000000E+00 0. -1.
          4    1    1    2  501    0  0.14259228370E+01 -0.65349002821E+00 -0.12349038980E+01  0.23660500399E+01  0.12700000000E+01 0. -1.
         -4    1    1    2    0  501 -0.14259228370E+01  0.65349002821E+00 -0.30988429181E+01  0.36981120299E+01  0.12700000000E+01 0. -1.
<mgrwt>
<rscale>  0 0.20182183E+01</rscale>
<asrwt>0</asrwt>
<pdfrwt beam="1">0</pdfrwt>
<pdfrwt beam="2">0</pdfrwt>
<totfact> 0.40964369E+12</totfact>
</mgrwt>
</event>
<event>
 4    1  0.3102735E+006  0.2099551E+01  0.7546771E-02  0.2916624E+00
         22   -1    0    0    0    0  0.00000000000E+00  0.00000000000E+00  0.24038604576E+01  0.24038604576E+01  0.00000000000E+00 0.  1.
         22   -1    0    0    0    0 -0.00000000000E+00 -0.00000000000E+00 -0.18508050663E+01  0.18508050663E+01  0.00000000000E+00 0. -1.
          4    1    1    2  501    0  0.12032275965E+01 -0.11608002273E+01  0.72401889187E-01  0.21007988600E+01  0.12700000000E+01 0. -1.
         -4    1    1    2    0  501 -0.12032275965E+01  0.11608002273E+01  0.48065350214E+00  0.21538666639E+01  0.12700000000E+01 0.  1.
<mgrwt>
<rscale>  0 0.20995509E+01</rscale>
<asrwt>0</asrwt>
<pdfrwt beam="1">0</pdfrwt>
<pdfrwt beam="2">0</pdfrwt>
<totfact> 0.42331526E+12</totfact>
</mgrwt>
</event>
<event>
 4    1  0.3102735E+006  0.2711675E+01  0.7546771E-02  0.2621977E+00
         22   -1    0    0    0    0  0.00000000000E+00  0.00000000000E+00  0.20871776451E+01  0.20871776451E+01  0.00000000000E+00 0.  1.
         22   -1    0    0    0    0 -0.00000000000E+00 -0.00000000000E+00 -0.35776838716E+01  0.35776838716E+01  0.00000000000E+00 0. -1.
          4    1    1    2  501    0  0.68670006700E+00 -0.22953700423E+01 -0.10953478846E+01  0.29245457085E+01  0.12700000000E+01 0. -1.
         -4    1    1    2    0  501 -0.68670006700E+00  0.22953700423E+01 -0.39515834188E+00  0.27403158081E+01  0.12700000000E+01 0.  1.
<mgrwt>
<rscale>  0 0.27116749E+01</rscale>
<asrwt>0</asrwt>
<pdfrwt beam="1">0</pdfrwt>
<pdfrwt beam="2">0</pdfrwt>
<totfact> 0.23155902E+12</totfact>
</mgrwt>
</event>
<event>
 4    1  0.3102735E+006  0.2226076E+01  0.7546771E-02  0.2843181E+00
         22   -1    0    0    0    0  0.00000000000E+00  0.00000000000E+00  0.63908315983E+00  0.63908315983E+00  0.00000000000E+00 0. -1.
         22   -1    0    0    0    0 -0.00000000000E+00 -0.00000000000E+00 -0.90705226379E+01  0.90705226379E+01  0.00000000000E+00 0.  1.
          4    1    1    2  501    0 -0.18273492171E+01  0.57528806993E-01 -0.60653244733E+01  0.64609268446E+01  0.12700000000E+01 0. -1.
         -4    1    1    2    0  501  0.18273492171E+01 -0.57528806993E-01 -0.23661150047E+01  0.32486789531E+01  0.12700000000E+01 0.  1.
<mgrwt>
<rscale>  0 0.22260761E+01</rscale>
<asrwt>0</asrwt>
<pdfrwt beam="1">0</pdfrwt>
<pdfrwt beam="2">0</pdfrwt>
<totfact> 0.29711226E+12</totfact>
</mgrwt>
</event>
<event>
 4    1  0.3102735E+006  0.5863229E+01  0.7546771E-02  0.2032175E+00
         22   -1    0    0    0    0  0.00000000000E+00  0.00000000000E+00  0.15457294462E+02  0.15457294462E+02  0.00000000000E+00 0. -1.
         22   -1    0    0    0    0 -0.00000000000E+00 -0.00000000000E+00 -0.23761714519E+01  0.23761714519E+01  0.00000000000E+00 0.  1.
          4    1    1    2  501    0  0.53674907223E+01 -0.19886177844E+01  0.42842796387E+01  0.72617153187E+01  0.12700000000E+01 0.  1.
         -4    1    1    2    0  501 -0.53674907223E+01  0.19886177844E+01  0.87968433717E+01  0.10571750596E+02  0.12700000000E+01 0. -1.
<mgrwt>
<rscale>  0 0.58632293E+01</rscale>
<asrwt>0</asrwt>
<pdfrwt beam="1">0</pdfrwt>
<pdfrwt beam="2">0</pdfrwt>
<totfact> 0.34415182E+11</totfact>
</mgrwt>
</event>
<event>
 4    1  0.3102735E+006  0.2813136E+01  0.7546771E-02  0.2584746E+00
         22   -1    0    0    0    0  0.00000000000E+00  0.00000000000E+00  0.29545146669E+02  0.29545146669E+02  0.00000000000E+00 0. -1.
         22   -1    0    0    0    0 -0.00000000000E+00 -0.00000000000E+00 -0.26805036140E+00  0.26805036140E+00  0.00000000000E+00 0.  1.
          4    1    1    2  501    0 -0.25090572372E+01 -0.73943554735E-01  0.14233360512E+02  0.14508696955E+02  0.12700000000E+01 0.  1.
         -4    1    1    2    0  501  0.25090572372E+01  0.73943554735E-01  0.15043735795E+02  0.15304500075E+02  0.12700000000E+01 0. -1.
<mgrwt>
<rscale>  0 0.28131363E+01</rscale>
<asrwt>0</asrwt>
<pdfrwt beam="1">0</pdfrwt>
<pdfrwt beam="2">0</pdfrwt>
<totfact> 0.18348523E+12</totfact>
</mgrwt>
</event>
<event>
 4    1  0.3102735E+006  0.2631909E+01  0.7546771E-02  0.2653085E+00
         22   -1    0    0    0    0  0.00000000000E+00  0.00000000000E+00  0.39185468563E+01  0.39185468563E+01  0.00000000000E+00 0. -1.
         22   -1    0    0    0    0 -0.00000000000E+00 -0.00000000000E+00 -0.18918395858E+01  0.18918395858E+01  0.00000000000E+00 0. -1.
          4    1    1    2  501    0 -0.11759083522E+01 -0.19827472566E+01  0.26925733554E+00  0.26456467355E+01  0.12700000000E+01 0. -1.
         -4    1    1    2    0  501  0.11759083522E+01  0.19827472566E+01  0.17574499350E+01  0.31647397066E+01  0.12700000000E+01 0. -1.
<mgrwt>
<rscale>  0 0.26319094E+01</rscale>
<asrwt>0</asrwt>
<pdfrwt beam="1">0</pdfrwt>
<pdfrwt beam="2">0</pdfrwt>
<totfact> 0.23314159E+12</totfact>
</mgrwt>
</event>
<event>
 4    1  0.3102735E+006  0.2562053E+01  0.7546771E-02  0.2681789E+00
         22   -1    0    0    0    0  0.00000000000E+00  0.00000000000E+00  0.55477238214E+01  0.55477238214E+01  0.00000000000E+00 0.  1.
         22   -1    0    0    0    0 -0.00000000000E+00 -0.00000000000E+00 -0.12690221867E+01  0.12690221867E+01  0.00000000000E+00 0.  1.
          4    1    1    2  501    0  0.22099163568E+01  0.25978302413E+00  0.12530336246E+01  0.28520537842E+01  0.12700000000E+01 0.  1.
         -4    1    1    2    0  501 -0.22099163568E+01 -0.25978302413E+00  0.30256680100E+01  0.39646922239E+01  0.12700000000E+01 0.  1.
<mgrwt>
<rscale>  0 0.25620534E+01</rscale>
<asrwt>0</asrwt>
<pdfrwt beam="1">0</pdfrwt>
<pdfrwt beam="2">0</pdfrwt>
<totfact> 0.24482865E+12</totfact>
</mgrwt>
</event>
<event>
 4    1  0.3102735E+006  0.3888224E+01  0.7546771E-02  0.2299184E+00
         22   -1    0    0    0    0  0.00000000000E+00  0.00000000000E+00  0.11730105759E+01  0.11730105759E+01  0.00000000000E+00 0.  1.
         22   -1    0    0    0    0 -0.00000000000E+00 -0.00000000000E+00 -0.13076579904E+02  0.13076579904E+02  0.00000000000E+00 0. -1.
          4    1    1    2  501    0  0.35511022633E+01 -0.94607453010E+00 -0.50971942576E+01  0.64109027134E+01  0.12700000000E+01 0.  1.
         -4    1    1    2    0  501 -0.35511022633E+01  0.94607453010E+00 -0.68063750707E+01  0.78386877667E+01  0.12700000000E+01 0. -1.
<mgrwt>
<rscale>  0 0.38882238E+01</rscale>
<asrwt>0</asrwt>
<pdfrwt beam="1">0</pdfrwt>
<pdfrwt beam="2">0</pdfrwt>
<totfact> 0.95388246E+11</totfact>
</mgrwt>
</event>
<event>
 4    1  0.3102735E+006  0.2176067E+01  0.7546771E-02  0.2871226E+00
         22   -1    0    0    0    0  0.00000000000E+00  0.00000000000E+00  0.10032269249E+01  0.10032269249E+01  0.00000000000E+00 0. -1.
         22   -1    0    0    0    0 -0.00000000000E+00 -0.00000000000E+00 -0.54708021922E+01  0.54708021922E+01  0.00000000000E+00 0.  1.
          4    1    1    2  501    0  0.14471404735E+01  0.10139792703E+01 -0.34329302416E+01  0.40645146764E+01  0.12700000000E+01 0.  1.
         -4    1    1    2    0  501 -0.14471404735E+01 -0.10139792703E+01 -0.10346450258E+01  0.24095144407E+01  0.12700000000E+01 0. -1.
<mgrwt>
<rscale>  0 0.21760674E+01</rscale>
<asrwt>0</asrwt>
<pdfrwt beam="1">0</pdfrwt>
<pdfrwt beam="2">0</pdfrwt>
<totfact> 0.32572808E+12</totfact>
</mgrwt>
</event>
<event>
 4    1  0.3102735E+006  0.5295217E+01  0.7546771E-02  0.2089331E+00
         22   -1    0    0    0    0  0.00000000000E+00  0.00000000000E+00  0.15965198846E+02  0.15965198846E+02  0.00000000000E+00 0.  1.
         22   -1    0    0    0    0 -0.00000000000E+00 -0.00000000000E+00 -0.22165099581E+01  0.22165099581E+01  0.00000000000E+00 0. -1.
          4    1    1    2  501    0 -0.39289531256E+00  0.51256270803E+01  0.27318829926E+01  0.59583978030E+01  0.12700000000E+01 0.  1.
         -4    1    1    2    0  501  0.39289531256E+00 -0.51256270803E+01  0.11016805895E+02  0.12223311001E+02  0.12700000000E+01 0. -1.
<mgrwt>
<rscale>  0 0.52952167E+01</rscale>
<asrwt>0</asrwt>
<pdfrwt beam="1">0</pdfrwt>
<pdfrwt beam="2">0</pdfrwt>
<totfact> 0.35851403E+11</totfact>
</mgrwt>
</event>
<event>
 4    1  0.3102735E+006  0.3994893E+01  0.7546771E-02  0.2278272E+00
         22   -1    0    0    0    0  0.00000000000E+00  0.00000000000E+00  0.13436335385E+02  0.13436335385E+02  0.00000000000E+00 0.  1.
         22   -1    0    0    0    0 -0.00000000000E+00 -0.00000000000E+00 -0.21893855386E+01  0.21893855386E+01  0.00000000000E+00 0. -1.
          4    1    1    2  501    0 -0.30159511656E+01  0.22913550324E+01  0.33900787000E+00  0.40092512585E+01  0.12700000000E+01 0. -1.
         -4    1    1    2    0  501  0.30159511656E+01 -0.22913550324E+01  0.10907941976E+02  0.11616469665E+02  0.12700000000E+01 0.  1.
<mgrwt>
<rscale>  0 0.39948929E+01</rscale>
<asrwt>0</asrwt>
<pdfrwt beam="1">0</pdfrwt>
<pdfrwt beam="2">0</pdfrwt>
<totfact> 0.44955239E+11</totfact>
</mgrwt>
</event>
<event>
 4    1  0.3102735E+006  0.2403496E+01  0.7546771E-02  0.2752667E+00
         22   -1    0    0    0    0  0.00000000000E+00  0.00000000000E+00  0.17622511066E+01  0.17622511066E+01  0.00000000000E+00 0. -1.
         22   -1    0    0    0    0 -0.00000000000E+00 -0.00000000000E+00 -0.32858454603E+01  0.32858454603E+01  0.00000000000E+00 0.  1.
          4    1    1    2  501    0  0.16473968502E+01  0.12041501656E+01 -0.63906610316E+00  0.24870061294E+01  0.12700000000E+01 0. -1.
         -4    1    1    2    0  501 -0.16473968502E+01 -0.12041501656E+01 -0.88452825060E+00  0.25610904376E+01  0.12700000000E+01 0.  1.
<mgrwt>
<rscale>  0 0.24034962E+01</rscale>
<asrwt>0</asrwt>
<pdfrwt beam="1">0</pdfrwt>
<pdfrwt beam="2">0</pdfrwt>
<totfact> 0.31113853E+12</totfact>
</mgrwt>
</event>
<event>
 4    1  0.3102735E+006  0.2024076E+01  0.7546771E-02  0.2964661E+00
         22   -1    0    0    0    0  0.00000000000E+00  0.00000000000E+00  0.96990102970E+00  0.96990102970E+00  0.00000000000E+00 0.  1.
         22   -1    0    0    0    0 -0.00000000000E+00 -0.00000000000E+00 -0.42243602740E+01  0.42243602740E+01  0.00000000000E+00 0. -1.
          4    1    1    2  501    0 -0.12352182211E+01 -0.97888727676E+00 -0.16504324147E+01  0.26116683384E+01  0.12700000000E+01 0. -1.
         -4    1    1    2    0  501  0.12352182211E+01  0.97888727676E+00 -0.16040268295E+01  0.25825929652E+01  0.12700000000E+01 0.  1.
<mgrwt>
<rscale>  0 0.20240762E+01</rscale>
<asrwt>0</asrwt>
<pdfrwt beam="1">0</pdfrwt>
<pdfrwt beam="2">0</pdfrwt>
<totfact> 0.45961603E+12</totfact>
</mgrwt>
</event>
<event>
 4    1  0.3102735E+006  0.2057987E+01  0.7546771E-02  0.2942653E+00
         22   -1    0    0    0    0  0.00000000000E+00  0.00000000000E+00  0.22010634212E+01  0.22010634212E+01  0.00000000000E+00 0.  1.
         22   -1    0    0    0    0 -0.00000000000E+00 -0.00000000000E+00 -0.50160466204E+01  0.50160466204E+01  0.00000000000E+00 0. -1.
          4    1    1    2  501    0  0.15099459279E+01 -0.58521418862E+00 -0.42405836583E+01  0.47135827260E+01  0.12700000000E+01 0. -1.
         -4    1    1    2    0  501 -0.15099459279E+01  0.58521418862E+00  0.14256004591E+01  0.25035273157E+01  0.12700000000E+01 0.  1.
<mgrwt>
<rscale>  0 0.20579875E+01</rscale>
<asrwt>0</asrwt>
<pdfrwt beam="1">0</pdfrwt>
<pdfrwt beam="2">0</pdfrwt>
<totfact> 0.14618543E+12</totfact>
</mgrwt>
</event>
<event>
 4    1  0.3102735E+006  0.2228522E+01  0.7546771E-02  0.2841840E+00
         22   -1    0    0    0    0  0.00000000000E+00  0.00000000000E+00  0.45433496609E+01  0.45433496609E+01  0.00000000000E+00 0. -1.
         22   -1    0    0    0    0 -0.00000000000E+00 -0.00000000000E+00 -0.12704785518E+01  0.12704785518E+01  0.00000000000E+00 0. -1.
          4    1    1    2  501    0 -0.17407789133E+00  0.18229387991E+01  0.55024447148E+00  0.22954472235E+01  0.12700000000E+01 0. -1.
         -4    1    1    2    0  501  0.17407789133E+00 -0.18229387991E+01  0.27226266375E+01  0.35183809892E+01  0.12700000000E+01 0. -1.
<mgrwt>
<rscale>  0 0.22285217E+01</rscale>
<asrwt>0</asrwt>
<pdfrwt beam="1">0</pdfrwt>
<pdfrwt beam="2">0</pdfrwt>
<totfact> 0.30973285E+12</totfact>
</mgrwt>
</event>
<event>
 4    1  0.3102735E+006  0.2098974E+01  0.7546771E-02  0.2916978E+00
         22   -1    0    0    0    0  0.00000000000E+00  0.00000000000E+00  0.76619786269E+00  0.76619786269E+00  0.00000000000E+00 0.  1.
         22   -1    0    0    0    0 -0.00000000000E+00 -0.00000000000E+00 -0.57551529507E+01  0.57551529507E+01  0.00000000000E+00 0. -1.
          4    1    1    2  501    0 -0.73533096016E-01 -0.16695467179E+01 -0.25913554390E+01  0.33347888045E+01  0.12700000000E+01 0.  1.
         -4    1    1    2    0  501  0.73533096016E-01  0.16695467179E+01 -0.23975996490E+01  0.31865620089E+01  0.12700000000E+01 0. -1.
<mgrwt>
<rscale>  0 0.20989744E+01</rscale>
<asrwt>0</asrwt>
<pdfrwt beam="1">0</pdfrwt>
<pdfrwt beam="2">0</pdfrwt>
<totfact> 0.41694366E+12</totfact>
</mgrwt>
</event>
<event>
 4    1  0.3102735E+006  0.2292955E+01  0.7546771E-02  0.2807502E+00
         22   -1    0    0    0    0  0.00000000000E+00  0.00000000000E+00  0.13233198911E+01  0.13233198911E+01  0.00000000000E+00 0.  1.
         22   -1    0    0    0    0 -0.00000000000E+00 -0.00000000000E+00 -0.48180593344E+01  0.48180593344E+01  0.00000000000E+00 0.  1.
          4    1    1    2  501    0 -0.18020066511E+01  0.63048766338E+00 -0.30333237440E+01  0.38024591517E+01  0.12700000000E+01 0.  1.
         -4    1    1    2    0  501  0.18020066511E+01 -0.63048766338E+00 -0.46141569938E+00  0.23389200738E+01  0.12700000000E+01 0.  1.
<mgrwt>
<rscale>  0 0.22929550E+01</rscale>
<asrwt>0</asrwt>
<pdfrwt beam="1">0</pdfrwt>
<pdfrwt beam="2">0</pdfrwt>
<totfact> 0.27577510E+12</totfact>
</mgrwt>
</event>
<event>
 4    1  0.3102735E+006  0.2762824E+01  0.7546771E-02  0.2602897E+00
         22   -1    0    0    0    0  0.00000000000E+00  0.00000000000E+00  0.17305289574E+02  0.17305289574E+02  0.00000000000E+00 0.  1.
         22   -1    0    0    0    0 -0.00000000000E+00 -0.00000000000E+00 -0.45350363722E+00  0.45350363722E+00  0.00000000000E+00 0.  1.
          4    1    1    2  501    0 -0.77032378547E+00 -0.23295700415E+01  0.69568401794E+01  0.74853737779E+01  0.12700000000E+01 0.  1.
         -4    1    1    2    0  501  0.77032378547E+00  0.23295700415E+01  0.98949457576E+01  0.10273419434E+02  0.12700000000E+01 0.  1.
<mgrwt>
<rscale>  0 0.27628238E+01</rscale>
<asrwt>0</asrwt>
<pdfrwt beam="1">0</pdfrwt>
<pdfrwt beam="2">0</pdfrwt>
<totfact> 0.19887949E+12</totfact>
</mgrwt>
</event>
<event>
 4    1  0.3102735E+006  0.2309655E+01  0.7546771E-02  0.2798900E+00
         22   -1    0    0    0    0  0.00000000000E+00  0.00000000000E+00  0.13963810706E+02  0.13963810706E+02  0.00000000000E+00 0.  1.
         22   -1    0    0    0    0 -0.00000000000E+00 -0.00000000000E+00 -0.38321705813E+00  0.38321705813E+00  0.00000000000E+00 0. -1.
          4    1    1    2  501    0  0.11812228798E+01 -0.15252277184E+01  0.71905999884E+01  0.75524324080E+01  0.12700000000E+01 0. -1.
         -4    1    1    2    0  501 -0.11812228798E+01  0.15252277184E+01  0.63899936598E+01  0.67945953564E+01  0.12700000000E+01 0.  1.
<mgrwt>
<rscale>  0 0.23096552E+01</rscale>
<asrwt>0</asrwt>
<pdfrwt beam="1">0</pdfrwt>
<pdfrwt beam="2">0</pdfrwt>
<totfact> 0.31317718E+12</totfact>
</mgrwt>
</event>
<event>
 4    1  0.3102735E+006  0.2277025E+01  0.7546771E-02  0.2815819E+00
         22   -1    0    0    0    0  0.00000000000E+00  0.00000000000E+00  0.42961912589E+01  0.42961912589E+01  0.00000000000E+00 0.  1.
         22   -1    0    0    0    0 -0.00000000000E+00 -0.00000000000E+00 -0.17886268066E+01  0.17886268066E+01  0.00000000000E+00 0. -1.
          4    1    1    2  501    0 -0.14638954828E+00  0.18842801088E+01  0.29889337747E+01  0.37574681020E+01  0.12700000000E+01 0.  1.
         -4    1    1    2    0  501  0.14638954828E+00 -0.18842801088E+01 -0.48136932238E+00  0.23273499635E+01  0.12700000000E+01 0. -1.
<mgrwt>
<rscale>  0 0.22770247E+01</rscale>
<asrwt>0</asrwt>
<pdfrwt beam="1">0</pdfrwt>
<pdfrwt beam="2">0</pdfrwt>
<totfact> 0.22320459E+12</totfact>
</mgrwt>
</event>
<event>
 4    1  0.3102735E+006  0.2379367E+01  0.7546771E-02  0.2764227E+00
         22   -1    0    0    0    0  0.00000000000E+00  0.00000000000E+00  0.41242373080E-01  0.41242373080E-01  0.00000000000E+00 0. -1.
         22   -1    0    0    0    0 -0.00000000000E+00 -0.00000000000E+00 -0.16804463404E+03  0.16804463404E+03  0.00000000000E+00 0.  1.
          4    1    1    2  501    0 -0.71032636958E+00 -0.18825309025E+01 -0.11996648759E+03  0.11999008097E+03  0.12700000000E+01 0.  1.
         -4    1    1    2    0  501  0.71032636958E+00  0.18825309025E+01 -0.48036904079E+02  0.48095795447E+02  0.12700000000E+01 0. -1.
<mgrwt>
<rscale>  0 0.23793668E+01</rscale>
<asrwt>0</asrwt>
<pdfrwt beam="1">0</pdfrwt>
<pdfrwt beam="2">0</pdfrwt>
<totfact> 0.13510583E+12</totfact>
</mgrwt>
</event>
<event>
 4    1  0.3102735E+006  0.3102882E+01  0.7546771E-02  0.2490635E+00
         22   -1    0    0    0    0  0.00000000000E+00  0.00000000000E+00  0.17520603077E+01  0.17520603077E+01  0.00000000000E+00 0. -1.
         22   -1    0    0    0    0 -0.00000000000E+00 -0.00000000000E+00 -0.19140575007E+02  0.19140575007E+02  0.00000000000E+00 0.  1.
          4    1    1    2  501    0  0.24492981861E+01  0.14198302129E+01 -0.17514466029E+02  0.17787197636E+02  0.12700000000E+01 0.  1.
         -4    1    1    2    0  501 -0.24492981861E+01 -0.14198302129E+01  0.12595133049E+00  0.31054376786E+01  0.12700000000E+01 0. -1.
<mgrwt>
<rscale>  0 0.31028824E+01</rscale>
<asrwt>0</asrwt>
<pdfrwt beam="1">0</pdfrwt>
<pdfrwt beam="2">0</pdfrwt>
<totfact> 0.37588239E+11</totfact>
</mgrwt>
</event>
<event>
 4    1  0.3102735E+006  0.2768919E+01  0.7546771E-02  0.2600666E+00
         22   -1    0    0    0    0  0.00000000000E+00  0.00000000000E+00  0.63839674472E+01  0.63839674472E+01  0.00000000000E+00 0. -1.
         22   -1    0    0    0    0 -0.00000000000E+00 -0.00000000000E+00 -0.34943718147E+01  0.34943718147E+01  0.00000000000E+00 0.  1.
          4    1    1    2  501    0  0.67458450366E+00  0.23662095665E+01 -0.25565847462E+01  0.37686917530E+01  0.12700000000E+01 0.  1.
         -4    1    1    2    0  501 -0.67458450366E+00 -0.23662095665E+01  0.54461803786E+01  0.61096475088E+01  0.12700000000E+01 0. -1.
<mgrwt>
<rscale>  0 0.27689189E+01</rscale>
<asrwt>0</asrwt>
<pdfrwt beam="1">0</pdfrwt>
<pdfrwt beam="2">0</pdfrwt>
<totfact> 0.64035124E+11</totfact>
</mgrwt>
</event>
<event>
 4    1  0.3102735E+006  0.3058307E+01  0.7546771E-02  0.2504070E+00
         22   -1    0    0    0    0  0.00000000000E+00  0.00000000000E+00  0.10687317832E+01  0.10687317832E+01  0.00000000000E+00 0.  1.
         22   -1    0    0    0    0 -0.00000000000E+00 -0.00000000000E+00 -0.10291759426E+02  0.10291759426E+02  0.00000000000E+00 0. -1.
          4    1    1    2  501    0  0.42477848516E+00 -0.27495278887E+01 -0.68088087140E+01  0.74641219494E+01  0.12700000000E+01 0. -1.
         -4    1    1    2    0  501 -0.42477848516E+00  0.27495278887E+01 -0.24142189285E+01  0.38963692595E+01  0.12700000000E+01 0.  1.
<mgrwt>
<rscale>  0 0.30583068E+01</rscale>
<asrwt>0</asrwt>
<pdfrwt beam="1">0</pdfrwt>
<pdfrwt beam="2">0</pdfrwt>
<totfact> 0.14204027E+12</totfact>
</mgrwt>
</event>
<event>
 4    1  0.3102735E+006  0.2259998E+01  0.7546771E-02  0.2824832E+00
         22   -1    0    0    0    0  0.00000000000E+00  0.00000000000E+00  0.53498330638E+01  0.53498330638E+01  0.00000000000E+00 0. -1.
         22   -1    0    0    0    0 -0.00000000000E+00 -0.00000000000E+00 -0.96171892282E+00  0.96171892282E+00  0.00000000000E+00 0.  1.
          4    1    1    2  501    0 -0.94297701170E+00  0.16141519291E+01  0.19248411433E+01  0.29686032948E+01  0.12700000000E+01 0.  1.
         -4    1    1    2    0  501  0.94297701170E+00 -0.16141519291E+01  0.24632729976E+01  0.33429486918E+01  0.12700000000E+01 0.  1.
<mgrwt>
<rscale>  0 0.22599983E+01</rscale>
<asrwt>0</asrwt>
<pdfrwt beam="1">0</pdfrwt>
<pdfrwt beam="2">0</pdfrwt>
<totfact> 0.35102296E+12</totfact>
</mgrwt>
</event>
<event>
 4    1  0.3102735E+006  0.2588705E+01  0.7546771E-02  0.2670669E+00
         22   -1    0    0    0    0  0.00000000000E+00  0.00000000000E+00  0.40442305124E+01  0.40442305124E+01  0.00000000000E+00 0.  1.
         22   -1    0    0    0    0 -0.00000000000E+00 -0.00000000000E+00 -0.28643314679E+01  0.28643314679E+01  0.00000000000E+00 0. -1.
          4    1    1    2  501    0  0.19588265218E+01 -0.11187017159E+01 -0.16526649465E+01  0.30712694928E+01  0.12700000000E+01 0. -1.
         -4    1    1    2    0  501 -0.19588265218E+01  0.11187017159E+01  0.28325639910E+01  0.38372924875E+01  0.12700000000E+01 0.  1.
<mgrwt>
<rscale>  0 0.25887053E+01</rscale>
<asrwt>0</asrwt>
<pdfrwt beam="1">0</pdfrwt>
<pdfrwt beam="2">0</pdfrwt>
<totfact> 0.13876467E+12</totfact>
</mgrwt>
</event>
<event>
 4    1  0.3102735E+006  0.2447757E+01  0.7546771E-02  0.2732020E+00
         22   -1    0    0    0    0  0.00000000000E+00  0.00000000000E+00  0.12482727204E+01  0.12482727204E+01  0.00000000000E+00 0. -1.
         22   -1    0    0    0    0 -0.00000000000E+00 -0.00000000000E+00 -0.62798870947E+01  0.62798870947E+01  0.00000000000E+00 0. -1.
          4    1    1    2  501    0 -0.11836664232E+01 -0.17255568192E+01 -0.43431511699E+01  0.49854262227E+01  0.12700000000E+01 0. -1.
         -4    1    1    2    0  501  0.11836664232E+01  0.17255568192E+01 -0.68846320443E+00  0.25427335923E+01  0.12700000000E+01 0. -1.
<mgrwt>
<rscale>  0 0.24477566E+01</rscale>
<asrwt>0</asrwt>
<pdfrwt beam="1">0</pdfrwt>
<pdfrwt beam="2">0</pdfrwt>
<totfact> 0.21528474E+12</totfact>
</mgrwt>
</event>
<event>
 4    1  0.3102735E+006  0.2298059E+01  0.7546771E-02  0.2804861E+00
         22   -1    0    0    0    0  0.00000000000E+00  0.00000000000E+00  0.29964085368E+02  0.29964085368E+02  0.00000000000E+00 0. -1.
         22   -1    0    0    0    0 -0.00000000000E+00 -0.00000000000E+00 -0.23668539285E+00  0.23668539285E+00  0.00000000000E+00 0. -1.
          4    1    1    2  501    0  0.82573396604E+00  0.17281022711E+01  0.72330859072E+01  0.75893745317E+01  0.12700000000E+01 0. -1.
         -4    1    1    2    0  501 -0.82573396604E+00 -0.17281022711E+01  0.22494314068E+02  0.22611396229E+02  0.12700000000E+01 0. -1.
<mgrwt>
<rscale>  0 0.22980588E+01</rscale>
<asrwt>0</asrwt>
<pdfrwt beam="1">0</pdfrwt>
<pdfrwt beam="2">0</pdfrwt>
<totfact> 0.20713524E+12</totfact>
</mgrwt>
</event>
<event>
 4    1  0.3102735E+006  0.3251557E+01  0.7546771E-02  0.2448204E+00
         22   -1    0    0    0    0  0.00000000000E+00  0.00000000000E+00  0.32359675438E+01  0.32359675438E+01  0.00000000000E+00 0.  1.
         22   -1    0    0    0    0 -0.00000000000E+00 -0.00000000000E+00 -0.57403586163E+01  0.57403586163E+01  0.00000000000E+00 0.  1.
          4    1    1    2  501    0 -0.24271458504E+01 -0.17517660498E+01 -0.41981311706E+01  0.53100778335E+01  0.12700000000E+01 0.  1.
         -4    1    1    2    0  501  0.24271458504E+01  0.17517660498E+01  0.16937400981E+01  0.36662483266E+01  0.12700000000E+01 0.  1.
<mgrwt>
<rscale>  0 0.32515567E+01</rscale>
<asrwt>0</asrwt>
<pdfrwt beam="1">0</pdfrwt>
<pdfrwt beam="2">0</pdfrwt>
<totfact> 0.79517512E+11</totfact>
</mgrwt>
</event>
<event>
 4    1  0.3102735E+006  0.5586298E+01  0.7546771E-02  0.2058904E+00
         22   -1    0    0    0    0  0.00000000000E+00  0.00000000000E+00  0.16464010279E+01  0.16464010279E+01  0.00000000000E+00 0.  1.
         22   -1    0    0    0    0 -0.00000000000E+00 -0.00000000000E+00 -0.22445573564E+02  0.22445573564E+02  0.00000000000E+00 0. -1.
          4    1    1    2  501    0 -0.34057096530E+01 -0.42420468911E+01 -0.15150269814E+02  0.16147364971E+02  0.12700000000E+01 0. -1.
         -4    1    1    2    0  501  0.34057096530E+01  0.42420468911E+01 -0.56489027221E+01  0.79446096210E+01  0.12700000000E+01 0.  1.
<mgrwt>
<rscale>  0 0.55862975E+01</rscale>
<asrwt>0</asrwt>
<pdfrwt beam="1">0</pdfrwt>
<pdfrwt beam="2">0</pdfrwt>
<totfact> 0.33097911E+11</totfact>
</mgrwt>
</event>
<event>
 4    1  0.3102735E+006  0.2721562E+01  0.7546771E-02  0.2618238E+00
         22   -1    0    0    0    0  0.00000000000E+00  0.00000000000E+00  0.27838258515E+02  0.27838258515E+02  0.00000000000E+00 0.  1.
         22   -1    0    0    0    0 -0.00000000000E+00 -0.00000000000E+00 -0.27599323939E+00  0.27599323939E+00  0.00000000000E+00 0. -1.
          4    1    1    2  501    0 -0.11712693808E+01 -0.21028858255E+01  0.11115542027E+02  0.11443870644E+02  0.12700000000E+01 0. -1.
         -4    1    1    2    0  501  0.11712693808E+01  0.21028858255E+01  0.16446723248E+02  0.16670381110E+02  0.12700000000E+01 0.  1.
<mgrwt>
<rscale>  0 0.27215622E+01</rscale>
<asrwt>0</asrwt>
<pdfrwt beam="1">0</pdfrwt>
<pdfrwt beam="2">0</pdfrwt>
<totfact> 0.19153474E+12</totfact>
</mgrwt>
</event>
<event>
 4    1  0.3102735E+006  0.2016008E+01  0.7546771E-02  0.2970003E+00
         22   -1    0    0    0    0  0.00000000000E+00  0.00000000000E+00  0.25380773928E+02  0.25380773928E+02  0.00000000000E+00 0. -1.
         22   -1    0    0    0    0 -0.00000000000E+00 -0.00000000000E+00 -0.16892303314E+00  0.16892303314E+00  0.00000000000E+00 0.  1.
          4    1    1    2  501    0  0.12970487717E+01 -0.87695730341E+00  0.96917468852E+01  0.98992043778E+01  0.12700000000E+01 0.  1.
         -4    1    1    2    0  501 -0.12970487717E+01  0.87695730341E+00  0.15520104009E+02  0.15650492583E+02  0.12700000000E+01 0. -1.
<mgrwt>
<rscale>  0 0.20160083E+01</rscale>
<asrwt>0</asrwt>
<pdfrwt beam="1">0</pdfrwt>
<pdfrwt beam="2">0</pdfrwt>
<totfact> 0.37245142E+12</totfact>
</mgrwt>
</event>
<event>
 4    1  0.3102735E+006  0.2141708E+01  0.7546771E-02  0.2891225E+00
         22   -1    0    0    0    0  0.00000000000E+00  0.00000000000E+00  0.50849150156E+00  0.50849150156E+00  0.00000000000E+00 0.  1.
         22   -1    0    0    0    0 -0.00000000000E+00 -0.00000000000E+00 -0.13567510961E+02  0.13567510961E+02  0.00000000000E+00 0. -1.
          4    1    1    2  501    0 -0.11448411262E+01 -0.12897094191E+01 -0.10603840067E+02  0.10817963568E+02  0.12700000000E+01 0. -1.
         -4    1    1    2    0  501  0.11448411262E+01  0.12897094191E+01 -0.24551793924E+01  0.32580388946E+01  0.12700000000E+01 0.  1.
<mgrwt>
<rscale>  0 0.21417076E+01</rscale>
<asrwt>0</asrwt>
<pdfrwt beam="1">0</pdfrwt>
<pdfrwt beam="2">0</pdfrwt>
<totfact> 0.23585323E+12</totfact>
</mgrwt>
</event>
<event>
 4    1  0.3102735E+006  0.2489776E+01  0.7546771E-02  0.2713055E+00
         22   -1    0    0    0    0  0.00000000000E+00  0.00000000000E+00  0.52676213741E+01  0.52676213741E+01  0.00000000000E+00 0. -1.
         22   -1    0    0    0    0 -0.00000000000E+00 -0.00000000000E+00 -0.11893400368E+01  0.11893400368E+01  0.00000000000E+00 0.  1.
          4    1    1    2  501    0  0.79845500262E+00  0.19870973770E+01  0.23705247584E+01  0.34377862073E+01  0.12700000000E+01 0.  1.
         -4    1    1    2    0  501 -0.79845500262E+00 -0.19870973770E+01  0.17077565789E+01  0.30191752036E+01  0.12700000000E+01 0. -1.
<mgrwt>
<rscale>  0 0.24897764E+01</rscale>
<asrwt>0</asrwt>
<pdfrwt beam="1">0</pdfrwt>
<pdfrwt beam="2">0</pdfrwt>
<totfact> 0.28044147E+12</totfact>
</mgrwt>
</event>
<event>
 4    1  0.3102735E+006  0.2356565E+01  0.7546771E-02  0.2775355E+00
         22   -1    0    0    0    0  0.00000000000E+00  0.00000000000E+00  0.75478431817E+01  0.75478431817E+01  0.00000000000E+00 0.  1.
         22   -1    0    0    0    0 -0.00000000000E+00 -0.00000000000E+00 -0.14094185070E+01  0.14094185070E+01  0.00000000000E+00 0. -1.
          4    1    1    2  501    0 -0.14757010331E+01 -0.13277064563E+01 -0.27103930584E-01  0.23567207293E+01  0.12700000000E+01 0. -1.
         -4    1    1    2    0  501  0.14757010331E+01  0.13277064563E+01  0.61655286053E+01  0.66005409593E+01  0.12700000000E+01 0.  1.
<mgrwt>
<rscale>  0 0.23565649E+01</rscale>
<asrwt>0</asrwt>
<pdfrwt beam="1">0</pdfrwt>
<pdfrwt beam="2">0</pdfrwt>
<totfact> 0.15031131E+12</totfact>
</mgrwt>
</event>
<event>
 4    1  0.3102735E+006  0.2262500E+01  0.7546771E-02  0.2823500E+00
         22   -1    0    0    0    0  0.00000000000E+00  0.00000000000E+00  0.14954845561E+01  0.14954845561E+01  0.00000000000E+00 0.  1.
         22   -1    0    0    0    0 -0.00000000000E+00 -0.00000000000E+00 -0.42242063667E+01  0.42242063667E+01  0.00000000000E+00 0. -1.
          4    1    1    2  501    0 -0.14939575897E+01 -0.11287585750E+01 -0.26099284547E+01  0.34540746575E+01  0.12700000000E+01 0.  1.
         -4    1    1    2    0  501  0.14939575897E+01  0.11287585750E+01 -0.11879335589E+00  0.22656162654E+01  0.12700000000E+01 0. -1.
<mgrwt>
<rscale>  0 0.22624998E+01</rscale>
<asrwt>0</asrwt>
<pdfrwt beam="1">0</pdfrwt>
<pdfrwt beam="2">0</pdfrwt>
<totfact> 0.27986919E+12</totfact>
</mgrwt>
</event>
<event>
 4    1  0.3102735E+006  0.3089663E+01  0.7546771E-02  0.2494583E+00
         22   -1    0    0    0    0  0.00000000000E+00  0.00000000000E+00  0.63986194650E+00  0.63986194650E+00  0.00000000000E+00 0. -1.
         22   -1    0    0    0    0 -0.00000000000E+00 -0.00000000000E+00 -0.17142867065E+02  0.17142867065E+02  0.00000000000E+00 0.  1.
          4    1    1    2  501    0  0.27546695067E+01 -0.58729279018E+00 -0.50489679305E+01  0.59192984446E+01  0.12700000000E+01 0.  1.
         -4    1    1    2    0  501 -0.27546695067E+01  0.58729279018E+00 -0.11454037188E+02  0.11863430567E+02  0.12700000000E+01 0. -1.
<mgrwt>
<rscale>  0 0.30896629E+01</rscale>
<asrwt>0</asrwt>
<pdfrwt beam="1">0</pdfrwt>
<pdfrwt beam="2">0</pdfrwt>
<totfact> 0.13634707E+12</totfact>
</mgrwt>
</event>
<event>
 4    1  0.3102735E+006  0.3438942E+01  0.7546771E-02  0.2399366E+00
         22   -1    0    0    0    0  0.00000000000E+00  0.00000000000E+00  0.20819677772E+02  0.20819677772E+02  0.00000000000E+00 0.  1.
         22   -1    0    0    0    0 -0.00000000000E+00 -0.00000000000E+00 -0.67086946953E+00  0.67086946953E+00  0.00000000000E+00 0. -1.
          4    1    1    2  501    0  0.21977295081E+01 -0.23202170549E+01  0.58674658133E+01  0.68009909015E+01  0.12700000000E+01 0. -1.
         -4    1    1    2    0  501 -0.21977295081E+01  0.23202170549E+01  0.14281342489E+02  0.14689556340E+02  0.12700000000E+01 0.  1.
<mgrwt>
<rscale>  0 0.34389420E+01</rscale>
<asrwt>0</asrwt>
<pdfrwt beam="1">0</pdfrwt>
<pdfrwt beam="2">0</pdfrwt>
<totfact> 0.10148355E+12</totfact>
</mgrwt>
</event>
<event>
 4    1  0.3102735E+006  0.2550124E+01  0.7546771E-02  0.2686836E+00
         22   -1    0    0    0    0  0.00000000000E+00  0.00000000000E+00  0.21606492780E+00  0.21606492780E+00  0.00000000000E+00 0. -1.
         22   -1    0    0    0    0 -0.00000000000E+00 -0.00000000000E+00 -0.37733191786E+02  0.37733191786E+02  0.00000000000E+00 0.  1.
          4    1    1    2  501    0  0.15570884819E+01 -0.15702569456E+01 -0.27293892483E+02  0.27412765244E+02  0.12700000000E+01 0.  1.
         -4    1    1    2    0  501 -0.15570884819E+01  0.15702569456E+01 -0.10223234375E+02  0.10536491470E+02  0.12700000000E+01 0. -1.
<mgrwt>
<rscale>  0 0.25501238E+01</rscale>
<asrwt>0</asrwt>
<pdfrwt beam="1">0</pdfrwt>
<pdfrwt beam="2">0</pdfrwt>
<totfact> 0.17060925E+12</totfact>
</mgrwt>
</event>
<event>
 4    1  0.3102735E+006  0.2942091E+01  0.7546771E-02  0.2540803E+00
         22   -1    0    0    0    0  0.00000000000E+00  0.00000000000E+00  0.12407032546E+02  0.12407032546E+02  0.00000000000E+00 0.  1.
         22   -1    0    0    0    0 -0.00000000000E+00 -0.00000000000E+00 -0.90330602644E+01  0.90330602644E+01  0.00000000000E+00 0. -1.
          4    1    1    2  501    0  0.22424537943E+01 -0.14192954275E+01 -0.86107657516E+01  0.90995156661E+01  0.12700000000E+01 0. -1.
         -4    1    1    2    0  501 -0.22424537943E+01  0.14192954275E+01  0.11984738033E+02  0.12340577144E+02  0.12700000000E+01 0.  1.
<mgrwt>
<rscale>  0 0.29420908E+01</rscale>
<asrwt>0</asrwt>
<pdfrwt beam="1">0</pdfrwt>
<pdfrwt beam="2">0</pdfrwt>
<totfact> 0.92922470E+10</totfact>
</mgrwt>
</event>
<event>
 4    1  0.3102735E+006  0.3183889E+01  0.7546771E-02  0.2467080E+00
         22   -1    0    0    0    0  0.00000000000E+00  0.00000000000E+00  0.13154603681E+02  0.13154603681E+02  0.00000000000E+00 0. -1.
         22   -1    0    0    0    0 -0.00000000000E+00 -0.00000000000E+00 -0.10933307534E+01  0.10933307534E+01  0.00000000000E+00 0.  1.
          4    1    1    2  501    0  0.20702244299E+01 -0.20587429093E+01  0.21602408218E+01  0.38475696179E+01  0.12700000000E+01 0.  1.
         -4    1    1    2    0  501 -0.20702244299E+01  0.20587429093E+01  0.99010321059E+01  0.10400364817E+02  0.12700000000E+01 0. -1.
<mgrwt>
<rscale>  0 0.31838894E+01</rscale>
<asrwt>0</asrwt>
<pdfrwt beam="1">0</pdfrwt>
<pdfrwt beam="2">0</pdfrwt>
<totfact> 0.10263528E+12</totfact>
</mgrwt>
</event>
<event>
 4    1  0.3102735E+006  0.3481782E+01  0.7546771E-02  0.2388850E+00
         22   -1    0    0    0    0  0.00000000000E+00  0.00000000000E+00  0.45734375966E+02  0.45734375966E+02  0.00000000000E+00 0.  1.
         22   -1    0    0    0    0 -0.00000000000E+00 -0.00000000000E+00 -0.27847182211E+00  0.27847182211E+00  0.00000000000E+00 0. -1.
          4    1    1    2  501    0  0.32221780890E+01 -0.35703538852E+00  0.27775055815E+02  0.27992437040E+02  0.12700000000E+01 0.  1.
         -4    1    1    2    0  501 -0.32221780890E+01  0.35703538852E+00  0.17680848329E+02  0.18020410748E+02  0.12700000000E+01 0. -1.
<mgrwt>
<rscale>  0 0.34817820E+01</rscale>
<asrwt>0</asrwt>
<pdfrwt beam="1">0</pdfrwt>
<pdfrwt beam="2">0</pdfrwt>
<totfact> 0.10002145E+12</totfact>
</mgrwt>
</event>
<event>
 4    1  0.3102735E+006  0.3187080E+01  0.7546771E-02  0.2466174E+00
         22   -1    0    0    0    0  0.00000000000E+00  0.00000000000E+00  0.13225847955E+01  0.13225847955E+01  0.00000000000E+00 0.  1.
         22   -1    0    0    0    0 -0.00000000000E+00 -0.00000000000E+00 -0.12954670024E+02  0.12954670024E+02  0.00000000000E+00 0. -1.
          4    1    1    2  501    0 -0.19273446719E+00  0.29167499050E+01 -0.10371147656E+02  0.10849800933E+02  0.12700000000E+01 0.  1.
         -4    1    1    2    0  501  0.19273446719E+00 -0.29167499050E+01 -0.12609375727E+01  0.34274538867E+01  0.12700000000E+01 0. -1.
<mgrwt>
<rscale>  0 0.31870796E+01</rscale>
<asrwt>0</asrwt>
<pdfrwt beam="1">0</pdfrwt>
<pdfrwt beam="2">0</pdfrwt>
<totfact> 0.84083394E+11</totfact>
</mgrwt>
</event>
<event>
 4    1  0.3102735E+006  0.2786677E+01  0.7546771E-02  0.2594217E+00
         22   -1    0    0    0    0  0.00000000000E+00  0.00000000000E+00  0.52373626216E-01  0.52373626216E-01  0.00000000000E+00 0.  1.
         22   -1    0    0    0    0 -0.00000000000E+00 -0.00000000000E+00 -0.14832239079E+03  0.14832239079E+03  0.00000000000E+00 0. -1.
          4    1    1    2  501    0  0.15398430754E+01  0.19446208426E+01 -0.75496038555E+02  0.75547451343E+02  0.12700000000E+01 0. -1.
         -4    1    1    2    0  501 -0.15398430754E+01 -0.19446208426E+01 -0.72773978604E+02  0.72827313068E+02  0.12700000000E+01 0. -1.
<mgrwt>
<rscale>  0 0.27866767E+01</rscale>
<asrwt>0</asrwt>
<pdfrwt beam="1">0</pdfrwt>
<pdfrwt beam="2">0</pdfrwt>
<totfact> 0.12526944E+12</totfact>
</mgrwt>
</event>
<event>
 4    1  0.3102735E+006  0.2088763E+01  0.7546771E-02  0.2923283E+00
         22   -1    0    0    0    0  0.00000000000E+00  0.00000000000E+00  0.97209141753E+00  0.97209141753E+00  0.00000000000E+00 0.  1.
         22   -1    0    0    0    0 -0.00000000000E+00 -0.00000000000E+00 -0.50593673354E+01  0.50593673354E+01  0.00000000000E+00 0.  1.
          4    1    1    2  501    0 -0.16550984039E+01  0.10334851184E+00 -0.30569179908E+01  0.37023883162E+01  0.12700000000E+01 0.  1.
         -4    1    1    2    0  501  0.16550984039E+01 -0.10334851184E+00 -0.10303579271E+01  0.23290704368E+01  0.12700000000E+01 0.  1.
<mgrwt>
<rscale>  0 0.20887632E+01</rscale>
<asrwt>0</asrwt>
<pdfrwt beam="1">0</pdfrwt>
<pdfrwt beam="2">0</pdfrwt>
<totfact> 0.37045886E+12</totfact>
</mgrwt>
</event>
<event>
 4    1  0.3102735E+006  0.2093804E+01  0.7546771E-02  0.2920163E+00
         22   -1    0    0    0    0  0.00000000000E+00  0.00000000000E+00  0.56405885089E+01  0.56405885089E+01  0.00000000000E+00 0.  1.
         22   -1    0    0    0    0 -0.00000000000E+00 -0.00000000000E+00 -0.89887178847E+00  0.89887178847E+00  0.00000000000E+00 0. -1.
          4    1    1    2  501    0 -0.13721036679E+01  0.94257409228E+00  0.11680101352E+01  0.23975533510E+01  0.12700000000E+01 0.  1.
         -4    1    1    2    0  501  0.13721036679E+01 -0.94257409228E+00  0.35737065852E+01  0.41419069463E+01  0.12700000000E+01 0. -1.
<mgrwt>
<rscale>  0 0.20938038E+01</rscale>
<asrwt>0</asrwt>
<pdfrwt beam="1">0</pdfrwt>
<pdfrwt beam="2">0</pdfrwt>
<totfact> 0.35604613E+12</totfact>
</mgrwt>
</event>
<event>
 4    1  0.3102735E+006  0.2316814E+01  0.7546771E-02  0.2795248E+00
         22   -1    0    0    0    0  0.00000000000E+00  0.00000000000E+00  0.28587533497E+01  0.28587533497E+01  0.00000000000E+00 0. -1.
         22   -1    0    0    0    0 -0.00000000000E+00 -0.00000000000E+00 -0.23026919226E+01  0.23026919226E+01  0.00000000000E+00 0.  1.
          4    1    1    2  501    0 -0.88155199093E+00 -0.17255707930E+01 -0.83078381809E+00  0.24612659805E+01  0.12700000000E+01 0.  1.
         -4    1    1    2    0  501  0.88155199093E+00  0.17255707930E+01  0.13868452451E+01  0.27001792919E+01  0.12700000000E+01 0. -1.
<mgrwt>
<rscale>  0 0.23168143E+01</rscale>
<asrwt>0</asrwt>
<pdfrwt beam="1">0</pdfrwt>
<pdfrwt beam="2">0</pdfrwt>
<totfact> 0.26862416E+12</totfact>
</mgrwt>
</event>
<event>
 4    1  0.3102735E+006  0.2007254E+01  0.7546771E-02  0.2975848E+00
         22   -1    0    0    0    0  0.00000000000E+00  0.00000000000E+00  0.16465823127E+02  0.16465823127E+02  0.00000000000E+00 0.  1.
         22   -1    0    0    0    0 -0.00000000000E+00 -0.00000000000E+00 -0.30173314421E+00  0.30173314421E+00  0.00000000000E+00 0. -1.
          4    1    1    2  501    0 -0.15529890970E+01  0.66291788987E-01  0.44368646503E+01  0.48697882563E+01  0.12700000000E+01 0. -1.
         -4    1    1    2    0  501  0.15529890970E+01 -0.66291788987E-01  0.11727225333E+02  0.11897768015E+02  0.12700000000E+01 0.  1.
<mgrwt>
<rscale>  0 0.20072543E+01</rscale>
<asrwt>0</asrwt>
<pdfrwt beam="1">0</pdfrwt>
<pdfrwt beam="2">0</pdfrwt>
<totfact> 0.33437197E+12</totfact>
</mgrwt>
</event>
<event>
 4    1  0.3102735E+006  0.2853421E+01  0.7546771E-02  0.2570633E+00
         22   -1    0    0    0    0  0.00000000000E+00  0.00000000000E+00  0.35287614877E+01  0.35287614877E+01  0.00000000000E+00 0.  1.
         22   -1    0    0    0    0 -0.00000000000E+00 -0.00000000000E+00 -0.23822631037E+01  0.23822631037E+01  0.00000000000E+00 0. -1.
          4    1    1    2  501    0  0.10837629052E+00  0.25529127626E+01  0.10974305161E+01  0.30571821554E+01  0.12700000000E+01 0. -1.
         -4    1    1    2    0  501 -0.10837629052E+00 -0.25529127626E+01  0.49067867792E-01  0.28538424360E+01  0.12700000000E+01 0. -1.
<mgrwt>
<rscale>  0 0.28534206E+01</rscale>
<asrwt>0</asrwt>
<pdfrwt beam="1">0</pdfrwt>
<pdfrwt beam="2">0</pdfrwt>
<totfact> 0.20185890E+12</totfact>
</mgrwt>
</event>
<event>
 4    1  0.3102735E+006  0.2398856E+01  0.7546771E-02  0.2754873E+00
         22   -1    0    0    0    0  0.00000000000E+00  0.00000000000E+00  0.11223821371E+01  0.11223821371E+01  0.00000000000E+00 0. -1.
         22   -1    0    0    0    0 -0.00000000000E+00 -0.00000000000E+00 -0.84329539527E+01  0.84329539527E+01  0.00000000000E+00 0.  1.
          4    1    1    2  501    0 -0.19708080301E+01 -0.50747204672E+00 -0.66466622663E+01  0.70663025305E+01  0.12700000000E+01 0.  1.
         -4    1    1    2    0  501  0.19708080301E+01  0.50747204672E+00 -0.66390954926E+00  0.24890335593E+01  0.12700000000E+01 0. -1.
<mgrwt>
<rscale>  0 0.23988564E+01</rscale>
<asrwt>0</asrwt>
<pdfrwt beam="1">0</pdfrwt>
<pdfrwt beam="2">0</pdfrwt>
<totfact> 0.17082631E+12</totfact>
</mgrwt>
</event>
<event>
 4    1  0.3102735E+006  0.2214556E+01  0.7546771E-02  0.2849534E+00
         22   -1    0    0    0    0  0.00000000000E+00  0.00000000000E+00  0.98142724232E+00  0.98142724232E+00  0.00000000000E+00 0.  1.
         22   -1    0    0    0    0 -0.00000000000E+00 -0.00000000000E+00 -0.49993315479E+01  0.49993315479E+01  0.00000000000E+00 0. -1.
          4    1    1    2  501    0  0.71868890695E+00  0.16657870438E+01 -0.20725603764E+01  0.30331117247E+01  0.12700000000E+01 0. -1.
         -4    1    1    2    0  501 -0.71868890695E+00 -0.16657870438E+01 -0.19453439291E+01  0.29476470656E+01  0.12700000000E+01 0.  1.
<mgrwt>
<rscale>  0 0.22145564E+01</rscale>
<asrwt>0</asrwt>
<pdfrwt beam="1">0</pdfrwt>
<pdfrwt beam="2">0</pdfrwt>
<totfact> 0.37166674E+12</totfact>
</mgrwt>
</event>
<event>
 4    1  0.3102735E+006  0.2717770E+01  0.7546771E-02  0.2619669E+00
         22   -1    0    0    0    0  0.00000000000E+00  0.00000000000E+00  0.97785574265E+01  0.97785574265E+01  0.00000000000E+00 0.  1.
         22   -1    0    0    0    0 -0.00000000000E+00 -0.00000000000E+00 -0.82386534518E+00  0.82386534518E+00  0.00000000000E+00 0.  1.
          4    1    1    2  501    0 -0.53945634721E+00  0.23414439057E+01  0.29486252520E+01  0.40100702725E+01  0.12700000000E+01 0.  1.
         -4    1    1    2    0  501  0.53945634721E+00 -0.23414439057E+01  0.60060668293E+01  0.65923524991E+01  0.12700000000E+01 0.  1.
<mgrwt>
<rscale>  0 0.27177698E+01</rscale>
<asrwt>0</asrwt>
<pdfrwt beam="1">0</pdfrwt>
<pdfrwt beam="2">0</pdfrwt>
<totfact> 0.20334056E+12</totfact>
</mgrwt>
</event>
<event>
 4    1  0.3102735E+006  0.2104087E+01  0.7546771E-02  0.2913844E+00
         22   -1    0    0    0    0  0.00000000000E+00  0.00000000000E+00  0.20135590325E+01  0.20135590325E+01  0.00000000000E+00 0. -1.
         22   -1    0    0    0    0 -0.00000000000E+00 -0.00000000000E+00 -0.63611503385E+01  0.63611503385E+01  0.00000000000E+00 0.  1.
          4    1    1    2  501    0 -0.10976388450E+01  0.12686485871E+01 -0.55610458752E+01  0.59457893923E+01  0.12700000000E+01 0.  1.
         -4    1    1    2    0  501  0.10976388450E+01 -0.12686485871E+01  0.12134545692E+01  0.24289199787E+01  0.12700000000E+01 0. -1.
<mgrwt>
<rscale>  0 0.21040866E+01</rscale>
<asrwt>0</asrwt>
<pdfrwt beam="1">0</pdfrwt>
<pdfrwt beam="2">0</pdfrwt>
<totfact> 0.12221336E+12</totfact>
</mgrwt>
</event>
<event>
 4    1  0.3102735E+006  0.2740749E+01  0.7546771E-02  0.2611052E+00
         22   -1    0    0    0    0  0.00000000000E+00  0.00000000000E+00  0.24952623958E+01  0.24952623958E+01  0.00000000000E+00 0. -1.
         22   -1    0    0    0    0 -0.00000000000E+00 -0.00000000000E+00 -0.31251094909E+01  0.31251094909E+01  0.00000000000E+00 0. -1.
          4    1    1    2  501    0 -0.14993200102E+01 -0.19107186539E+01 -0.85334967139E+00  0.28705246783E+01  0.12700000000E+01 0. -1.
         -4    1    1    2    0  501  0.14993200102E+01  0.19107186539E+01  0.22350257630E+00  0.27498472083E+01  0.12700000000E+01 0. -1.
<mgrwt>
<rscale>  0 0.27407492E+01</rscale>
<asrwt>0</asrwt>
<pdfrwt beam="1">0</pdfrwt>
<pdfrwt beam="2">0</pdfrwt>
<totfact> 0.22051274E+12</totfact>
</mgrwt>
</event>
<event>
 4    1  0.3102735E+006  0.2103380E+01  0.7546771E-02  0.2914276E+00
         22   -1    0    0    0    0  0.00000000000E+00  0.00000000000E+00  0.10183004286E+02  0.10183004286E+02  0.00000000000E+00 0. -1.
         22   -1    0    0    0    0 -0.00000000000E+00 -0.00000000000E+00 -0.47719997759E+00  0.47719997759E+00  0.00000000000E+00 0. -1.
          4    1    1    2  501    0  0.66185483131E+00  0.15405380756E+01  0.32579344213E+01  0.38779306433E+01  0.12700000000E+01 0. -1.
         -4    1    1    2    0  501 -0.66185483131E+00 -0.15405380756E+01  0.64478698870E+01  0.67822736202E+01  0.12700000000E+01 0. -1.
<mgrwt>
<rscale>  0 0.21033805E+01</rscale>
<asrwt>0</asrwt>
<pdfrwt beam="1">0</pdfrwt>
<pdfrwt beam="2">0</pdfrwt>
<totfact> 0.35943726E+12</totfact>
</mgrwt>
</event>
<event>
 4    1  0.3102735E+006  0.2389684E+01  0.7546771E-02  0.2759257E+00
         22   -1    0    0    0    0  0.00000000000E+00  0.00000000000E+00  0.25057635766E+02  0.25057635766E+02  0.00000000000E+00 0. -1.
         22   -1    0    0    0    0 -0.00000000000E+00 -0.00000000000E+00 -0.23150304991E+00  0.23150304991E+00  0.00000000000E+00 0.  1.
          4    1    1    2  501    0  0.20026764751E+01 -0.29491737904E+00  0.10835196742E+02  0.11095588212E+02  0.12700000000E+01 0. -1.
         -4    1    1    2    0  501 -0.20026764751E+01  0.29491737904E+00  0.13990935974E+02  0.14193550604E+02  0.12700000000E+01 0. -1.
<mgrwt>
<rscale>  0 0.23896839E+01</rscale>
<asrwt>0</asrwt>
<pdfrwt beam="1">0</pdfrwt>
<pdfrwt beam="2">0</pdfrwt>
<totfact> 0.26635842E+12</totfact>
</mgrwt>
</event>
<event>
 4    1  0.3102735E+006  0.2027081E+01  0.7546771E-02  0.2962682E+00
         22   -1    0    0    0    0  0.00000000000E+00  0.00000000000E+00  0.50118881680E+01  0.50118881680E+01  0.00000000000E+00 0.  1.
         22   -1    0    0    0    0 -0.00000000000E+00 -0.00000000000E+00 -0.11802289854E+01  0.11802289854E+01  0.00000000000E+00 0.  1.
          4    1    1    2  501    0 -0.10802274914E+01 -0.11529373275E+01  0.20503204625E+00  0.20374233861E+01  0.12700000000E+01 0.  1.
         -4    1    1    2    0  501  0.10802274914E+01  0.11529373275E+01  0.36266271363E+01  0.41546937673E+01  0.12700000000E+01 0.  1.
<mgrwt>
<rscale>  0 0.20270806E+01</rscale>
<asrwt>0</asrwt>
<pdfrwt beam="1">0</pdfrwt>
<pdfrwt beam="2">0</pdfrwt>
<totfact> 0.30008285E+12</totfact>
</mgrwt>
</event>
<event>
 4    1  0.3102735E+006  0.4796872E+01  0.7546771E-02  0.2148060E+00
         22   -1    0    0    0    0  0.00000000000E+00  0.00000000000E+00  0.95151035494E+01  0.95151035494E+01  0.00000000000E+00 0.  1.
         22   -1    0    0    0    0 -0.00000000000E+00 -0.00000000000E+00 -0.45518407981E+01  0.45518407981E+01  0.00000000000E+00 0. -1.
          4    1    1    2  501    0 -0.42698309951E+01  0.17792197821E+01 -0.23337528334E+01  0.53344523662E+01  0.12700000000E+01 0. -1.
         -4    1    1    2    0  501  0.42698309951E+01 -0.17792197821E+01  0.72970155847E+01  0.87324919813E+01  0.12700000000E+01 0.  1.
<mgrwt>
<rscale>  0 0.47968719E+01</rscale>
<asrwt>0</asrwt>
<pdfrwt beam="1">0</pdfrwt>
<pdfrwt beam="2">0</pdfrwt>
<totfact> 0.29057063E+11</totfact>
</mgrwt>
</event>
<event>
 4    1  0.3102735E+006  0.5542910E+01  0.7546771E-02  0.2063280E+00
         22   -1    0    0    0    0  0.00000000000E+00  0.00000000000E+00  0.28484517048E+02  0.28484517048E+02  0.00000000000E+00 0. -1.
         22   -1    0    0    0    0 -0.00000000000E+00 -0.00000000000E+00 -0.43014970824E+01  0.43014970824E+01  0.00000000000E+00 0.  1.
          4    1    1    2  501    0 -0.48712897449E+01 -0.23198039589E+01 -0.20981161960E+01  0.59267145839E+01  0.12700000000E+01 0.  1.
         -4    1    1    2    0  501  0.48712897449E+01  0.23198039589E+01  0.26281136161E+02  0.26859299546E+02  0.12700000000E+01 0. -1.
<mgrwt>
<rscale>  0 0.55429103E+01</rscale>
<asrwt>0</asrwt>
<pdfrwt beam="1">0</pdfrwt>
<pdfrwt beam="2">0</pdfrwt>
<totfact> 0.80019796E+10</totfact>
</mgrwt>
</event>
<event>
 4    1  0.3102735E+006  0.2315706E+01  0.7546771E-02  0.2795812E+00
         22   -1    0    0    0    0  0.00000000000E+00  0.00000000000E+00  0.39846163158E+00  0.39846163158E+00  0.00000000000E+00 0.  1.
         22   -1    0    0    0    0 -0.00000000000E+00 -0.00000000000E+00 -0.13532128129E+02  0.13532128129E+02  0.00000000000E+00 0. -1.
          4    1    1    2  501    0  0.12849944124E+01  0.14485801143E+01 -0.60512959299E+01  0.64792497574E+01  0.12700000000E+01 0.  1.
         -4    1    1    2    0  501 -0.12849944124E+01 -0.14485801143E+01 -0.70823705676E+01  0.74513400033E+01  0.12700000000E+01 0. -1.
<mgrwt>
<rscale>  0 0.23157062E+01</rscale>
<asrwt>0</asrwt>
<pdfrwt beam="1">0</pdfrwt>
<pdfrwt beam="2">0</pdfrwt>
<totfact> 0.31149259E+12</totfact>
</mgrwt>
</event>
<event>
 4    1  0.3102735E+006  0.3256348E+01  0.7546771E-02  0.2446894E+00
         22   -1    0    0    0    0  0.00000000000E+00  0.00000000000E+00  0.15006297962E+02  0.15006297962E+02  0.00000000000E+00 0. -1.
         22   -1    0    0    0    0 -0.00000000000E+00 -0.00000000000E+00 -0.12105367603E+01  0.12105367603E+01  0.00000000000E+00 0.  1.
          4    1    1    2  501    0  0.65701655677E+00  0.29256159550E+01  0.16663943004E+01  0.36579597369E+01  0.12700000000E+01 0.  1.
         -4    1    1    2    0  501 -0.65701655677E+00 -0.29256159550E+01  0.12129366901E+02  0.12558874985E+02  0.12700000000E+01 0. -1.
<mgrwt>
<rscale>  0 0.32563476E+01</rscale>
<asrwt>0</asrwt>
<pdfrwt beam="1">0</pdfrwt>
<pdfrwt beam="2">0</pdfrwt>
<totfact> 0.77709521E+11</totfact>
</mgrwt>
</event>
<event>
 4    1  0.3102735E+006  0.2331576E+01  0.7546771E-02  0.2787786E+00
         22   -1    0    0    0    0  0.00000000000E+00  0.00000000000E+00  0.13838863611E+02  0.13838863611E+02  0.00000000000E+00 0. -1.
         22   -1    0    0    0    0 -0.00000000000E+00 -0.00000000000E+00 -0.62201687236E+00  0.62201687236E+00  0.00000000000E+00 0.  1.
          4    1    1    2  501    0 -0.17262454756E+01  0.91838075071E+00  0.22194433488E+01  0.32190333058E+01  0.12700000000E+01 0.  1.
         -4    1    1    2    0  501  0.17262454756E+01 -0.91838075071E+00  0.10997403390E+02  0.11241847178E+02  0.12700000000E+01 0. -1.
<mgrwt>
<rscale>  0 0.23315760E+01</rscale>
<asrwt>0</asrwt>
<pdfrwt beam="1">0</pdfrwt>
<pdfrwt beam="2">0</pdfrwt>
<totfact> 0.18327787E+12</totfact>
</mgrwt>
</event>
<event>
 4    1  0.3102735E+006  0.2601494E+01  0.7546771E-02  0.2665408E+00
         22   -1    0    0    0    0  0.00000000000E+00  0.00000000000E+00  0.41488668374E+02  0.41488668374E+02  0.00000000000E+00 0. -1.
         22   -1    0    0    0    0 -0.00000000000E+00 -0.00000000000E+00 -0.20961526830E+00  0.20961526830E+00  0.00000000000E+00 0.  1.
          4    1    1    2  501    0  0.44463772713E+00  0.22264704454E+01  0.10820574330E+02  0.11128908400E+02  0.12700000000E+01 0.  1.
         -4    1    1    2    0  501 -0.44463772713E+00 -0.22264704454E+01  0.30458478776E+02  0.30569375242E+02  0.12700000000E+01 0. -1.
<mgrwt>
<rscale>  0 0.26014944E+01</rscale>
<asrwt>0</asrwt>
<pdfrwt beam="1">0</pdfrwt>
<pdfrwt beam="2">0</pdfrwt>
<totfact> 0.15604805E+12</totfact>
</mgrwt>
</event>
<event>
 4    1  0.3102735E+006  0.3056786E+01  0.7546771E-02  0.2504534E+00
         22   -1    0    0    0    0  0.00000000000E+00  0.00000000000E+00  0.13505136587E+00  0.13505136587E+00  0.00000000000E+00 0. -1.
         22   -1    0    0    0    0 -0.00000000000E+00 -0.00000000000E+00 -0.10335231333E+03  0.10335231333E+03  0.00000000000E+00 0.  1.
          4    1    1    2  501    0 -0.27293089115E+01  0.53095280328E+00 -0.81358385455E+02  0.81415789758E+02  0.12700000000E+01 0.  1.
         -4    1    1    2    0  501  0.27293089115E+01 -0.53095280328E+00 -0.21858876510E+02  0.22071574939E+02  0.12700000000E+01 0. -1.
<mgrwt>
<rscale>  0 0.30567856E+01</rscale>
<asrwt>0</asrwt>
<pdfrwt beam="1">0</pdfrwt>
<pdfrwt beam="2">0</pdfrwt>
<totfact> 0.74153019E+11</totfact>
</mgrwt>
</event>
<event>
 4    1  0.3102735E+006  0.3334004E+01  0.7546771E-02  0.2426121E+00
         22   -1    0    0    0    0  0.00000000000E+00  0.00000000000E+00  0.36705954934E+00  0.36705954934E+00  0.00000000000E+00 0. -1.
         22   -1    0    0    0    0 -0.00000000000E+00 -0.00000000000E+00 -0.35428713816E+02  0.35428713816E+02  0.00000000000E+00 0. -1.
          4    1    1    2  501    0 -0.23161622607E+01 -0.20342264670E+01 -0.10709702214E+02  0.11216653086E+02  0.12700000000E+01 0. -1.
         -4    1    1    2    0  501  0.23161622607E+01  0.20342264670E+01 -0.24351952052E+02  0.24579120279E+02  0.12700000000E+01 0. -1.
<mgrwt>
<rscale>  0 0.33340043E+01</rscale>
<asrwt>0</asrwt>
<pdfrwt beam="1">0</pdfrwt>
<pdfrwt beam="2">0</pdfrwt>
<totfact> 0.10220442E+12</totfact>
</mgrwt>
</event>
<event>
 4    1  0.3102735E+006  0.3273471E+01  0.7546771E-02  0.2442239E+00
         22   -1    0    0    0    0  0.00000000000E+00  0.00000000000E+00  0.41080185685E+00  0.41080185685E+00  0.00000000000E+00 0.  1.
         22   -1    0    0    0    0 -0.00000000000E+00 -0.00000000000E+00 -0.32859266051E+02  0.32859266051E+02  0.00000000000E+00 0.  1.
          4    1    1    2  501    0 -0.15128365677E+01 -0.26103710750E+01 -0.23777553519E+02  0.24001826242E+02  0.12700000000E+01 0.  1.
         -4    1    1    2    0  501  0.15128365677E+01  0.26103710750E+01 -0.86709106751E+01  0.92682416652E+01  0.12700000000E+01 0.  1.
<mgrwt>
<rscale>  0 0.32734709E+01</rscale>
<asrwt>0</asrwt>
<pdfrwt beam="1">0</pdfrwt>
<pdfrwt beam="2">0</pdfrwt>
<totfact> 0.99186278E+11</totfact>
</mgrwt>
</event>
<event>
 4    1  0.3102735E+006  0.2220481E+01  0.7546771E-02  0.2846258E+00
         22   -1    0    0    0    0  0.00000000000E+00  0.00000000000E+00  0.25477283156E+00  0.25477283156E+00  0.00000000000E+00 0.  1.
         22   -1    0    0    0    0 -0.00000000000E+00 -0.00000000000E+00 -0.19393252663E+02  0.19393252663E+02  0.00000000000E+00 0.  1.
          4    1    1    2  501    0 -0.18158611849E+01 -0.14242810216E+00 -0.10018573945E+02  0.10261693890E+02  0.12700000000E+01 0.  1.
         -4    1    1    2    0  501  0.18158611849E+01  0.14242810216E+00 -0.91199058867E+01  0.93863316045E+01  0.12700000000E+01 0.  1.
<mgrwt>
<rscale>  0 0.22204814E+01</rscale>
<asrwt>0</asrwt>
<pdfrwt beam="1">0</pdfrwt>
<pdfrwt beam="2">0</pdfrwt>
<totfact> 0.32991564E+12</totfact>
</mgrwt>
</event>
<event>
 4    1  0.3102735E+006  0.2173835E+01  0.7546771E-02  0.2872508E+00
         22   -1    0    0    0    0  0.00000000000E+00  0.00000000000E+00  0.38626379265E+01  0.38626379265E+01  0.00000000000E+00 0.  1.
         22   -1    0    0    0    0 -0.00000000000E+00 -0.00000000000E+00 -0.18525257229E+01  0.18525257229E+01  0.00000000000E+00 0. -1.
          4    1    1    2  501    0 -0.15925717972E+01 -0.75919182697E+00 -0.66021422561E+00  0.22718802748E+01  0.12700000000E+01 0. -1.
         -4    1    1    2    0  501  0.15925717972E+01  0.75919182697E+00  0.26703264292E+01  0.34432833746E+01  0.12700000000E+01 0.  1.
<mgrwt>
<rscale>  0 0.21738347E+01</rscale>
<asrwt>0</asrwt>
<pdfrwt beam="1">0</pdfrwt>
<pdfrwt beam="2">0</pdfrwt>
<totfact> 0.24292762E+12</totfact>
</mgrwt>
</event>
<event>
 4    1  0.3102735E+006  0.2314307E+01  0.7546771E-02  0.2796525E+00
         22   -1    0    0    0    0  0.00000000000E+00  0.00000000000E+00  0.47090654566E+02  0.47090654566E+02  0.00000000000E+00 0. -1.
         22   -1    0    0    0    0 -0.00000000000E+00 -0.00000000000E+00 -0.11700540658E+00  0.11700540658E+00  0.00000000000E+00 0. -1.
          4    1    1    2  501    0 -0.88678429625E+00 -0.17195148548E+01  0.19542690517E+02  0.19679247201E+02  0.12700000000E+01 0. -1.
         -4    1    1    2    0  501  0.88678429625E+00  0.17195148548E+01  0.27430958642E+02  0.27528412772E+02  0.12700000000E+01 0. -1.
<mgrwt>
<rscale>  0 0.23143072E+01</rscale>
<asrwt>0</asrwt>
<pdfrwt beam="1">0</pdfrwt>
<pdfrwt beam="2">0</pdfrwt>
<totfact> 0.25295252E+12</totfact>
</mgrwt>
</event>
<event>
 4    1  0.3102735E+006  0.2506176E+01  0.7546771E-02  0.2705813E+00
         22   -1    0    0    0    0  0.00000000000E+00  0.00000000000E+00  0.72654651992E+00  0.72654651992E+00  0.00000000000E+00 0.  1.
         22   -1    0    0    0    0 -0.00000000000E+00 -0.00000000000E+00 -0.10755726228E+02  0.10755726228E+02  0.00000000000E+00 0. -1.
          4    1    1    2  501    0  0.20505640154E+01  0.68059234669E+00 -0.24712482254E+01  0.35196571587E+01  0.12700000000E+01 0.  1.
         -4    1    1    2    0  501 -0.20505640154E+01 -0.68059234669E+00 -0.75579314823E+01  0.79626155888E+01  0.12700000000E+01 0. -1.
<mgrwt>
<rscale>  0 0.25061761E+01</rscale>
<asrwt>0</asrwt>
<pdfrwt beam="1">0</pdfrwt>
<pdfrwt beam="2">0</pdfrwt>
<totfact> 0.20900341E+12</totfact>
</mgrwt>
</event>
<event>
 4    1  0.3102735E+006  0.2068293E+01  0.7546771E-02  0.2936104E+00
         22   -1    0    0    0    0  0.00000000000E+00  0.00000000000E+00  0.43910251241E+01  0.43910251241E+01  0.00000000000E+00 0.  1.
         22   -1    0    0    0    0 -0.00000000000E+00 -0.00000000000E+00 -0.21712029439E+01  0.21712029439E+01  0.00000000000E+00 0. -1.
          4    1    1    2  501    0  0.10206421127E+01 -0.12740585726E+01 -0.13262984436E+01  0.24570110155E+01  0.12700000000E+01 0. -1.
         -4    1    1    2    0  501 -0.10206421127E+01  0.12740585726E+01  0.35461206238E+01  0.41052170524E+01  0.12700000000E+01 0.  1.
<mgrwt>
<rscale>  0 0.20682929E+01</rscale>
<asrwt>0</asrwt>
<pdfrwt beam="1">0</pdfrwt>
<pdfrwt beam="2">0</pdfrwt>
<totfact> 0.17381754E+12</totfact>
</mgrwt>
</event>
<event>
 4    1  0.3102735E+006  0.4501086E+01  0.7546771E-02  0.2190654E+00
         22   -1    0    0    0    0  0.00000000000E+00  0.00000000000E+00  0.45571732268E+00  0.45571732268E+00  0.00000000000E+00 0.  1.
         22   -1    0    0    0    0 -0.00000000000E+00 -0.00000000000E+00 -0.52450914941E+02  0.52450914941E+02  0.00000000000E+00 0. -1.
          4    1    1    2  501    0  0.15534939817E+01 -0.40290857344E+01 -0.36324887232E+02  0.36602693997E+02  0.12700000000E+01 0. -1.
         -4    1    1    2    0  501 -0.15534939817E+01  0.40290857344E+01 -0.15670310386E+02  0.16303938267E+02  0.12700000000E+01 0.  1.
<mgrwt>
<rscale>  0 0.45010860E+01</rscale>
<asrwt>0</asrwt>
<pdfrwt beam="1">0</pdfrwt>
<pdfrwt beam="2">0</pdfrwt>
<totfact> 0.48008535E+11</totfact>
</mgrwt>
</event>
<event>
 4    1  0.3102735E+006  0.5242737E+01  0.7546771E-02  0.2095098E+00
         22   -1    0    0    0    0  0.00000000000E+00  0.00000000000E+00  0.44481375409E+02  0.44481375409E+02  0.00000000000E+00 0. -1.
         22   -1    0    0    0    0 -0.00000000000E+00 -0.00000000000E+00 -0.66026541066E+00  0.66026541066E+00  0.00000000000E+00 0.  1.
          4    1    1    2  501    0 -0.44547456005E+01  0.24553280952E+01  0.27625991481E+02  0.28119062924E+02  0.12700000000E+01 0. -1.
         -4    1    1    2    0  501  0.44547456005E+01 -0.24553280952E+01  0.16195118517E+02  0.17022577895E+02  0.12700000000E+01 0.  1.
<mgrwt>
<rscale>  0 0.52427373E+01</rscale>
<asrwt>0</asrwt>
<pdfrwt beam="1">0</pdfrwt>
<pdfrwt beam="2">0</pdfrwt>
<totfact> 0.39209062E+11</totfact>
</mgrwt>
</event>
<event>
 4    1  0.3102735E+006  0.2551489E+01  0.7546771E-02  0.2686256E+00
         22   -1    0    0    0    0  0.00000000000E+00  0.00000000000E+00  0.54337385583E+00  0.54337385583E+00  0.00000000000E+00 0.  1.
         22   -1    0    0    0    0 -0.00000000000E+00 -0.00000000000E+00 -0.19844999378E+02  0.19844999378E+02  0.00000000000E+00 0. -1.
          4    1    1    2  501    0 -0.83335186676E+00  0.20500541601E+01 -0.16068108612E+02  0.16269425674E+02  0.12700000000E+01 0. -1.
         -4    1    1    2    0  501  0.83335186676E+00 -0.20500541601E+01 -0.32335169105E+01  0.41189475602E+01  0.12700000000E+01 0.  1.
<mgrwt>
<rscale>  0 0.25514893E+01</rscale>
<asrwt>0</asrwt>
<pdfrwt beam="1">0</pdfrwt>
<pdfrwt beam="2">0</pdfrwt>
<totfact> 0.13678466E+12</totfact>
</mgrwt>
</event>
<event>
 4    1  0.3102735E+006  0.2503671E+01  0.7546771E-02  0.2706914E+00
         22   -1    0    0    0    0  0.00000000000E+00  0.00000000000E+00  0.13714076453E+03  0.13714076453E+03  0.00000000000E+00 0. -1.
         22   -1    0    0    0    0 -0.00000000000E+00 -0.00000000000E+00 -0.54412728782E-01  0.54412728782E-01  0.00000000000E+00 0. -1.
          4    1    1    2  501    0  0.51143476081E-01  0.21570468413E+01  0.41105473665E+02  0.41181650427E+02  0.12700000000E+01 0. -1.
         -4    1    1    2    0  501 -0.51143476081E-01 -0.21570468413E+01  0.95980878132E+02  0.96013526827E+02  0.12700000000E+01 0. -1.
<mgrwt>
<rscale>  0 0.25036707E+01</rscale>
<asrwt>0</asrwt>
<pdfrwt beam="1">0</pdfrwt>
<pdfrwt beam="2">0</pdfrwt>
<totfact> 0.13482896E+12</totfact>
</mgrwt>
</event>
<event>
 4    1  0.3102735E+006  0.2733036E+01  0.7546771E-02  0.2613930E+00
         22   -1    0    0    0    0  0.00000000000E+00  0.00000000000E+00  0.21298695172E+02  0.21298695172E+02  0.00000000000E+00 0.  1.
         22   -1    0    0    0    0 -0.00000000000E+00 -0.00000000000E+00 -0.45097004638E+00  0.45097004638E+00  0.00000000000E+00 0.  1.
          4    1    1    2  501    0 -0.23216489548E+01 -0.68303205913E+00  0.52960651829E+01  0.59596806194E+01  0.12700000000E+01 0.  1.
         -4    1    1    2    0  501  0.23216489548E+01  0.68303205913E+00  0.15551659943E+02  0.15789984599E+02  0.12700000000E+01 0.  1.
<mgrwt>
<rscale>  0 0.27330362E+01</rscale>
<asrwt>0</asrwt>
<pdfrwt beam="1">0</pdfrwt>
<pdfrwt beam="2">0</pdfrwt>
<totfact> 0.15456299E+12</totfact>
</mgrwt>
</event>
<event>
 4    1  0.3102735E+006  0.3841344E+01  0.7546771E-02  0.2308688E+00
         22   -1    0    0    0    0  0.00000000000E+00  0.00000000000E+00  0.43028935978E+01  0.43028935978E+01  0.00000000000E+00 0.  1.
         22   -1    0    0    0    0 -0.00000000000E+00 -0.00000000000E+00 -0.61911190781E+01  0.61911190781E+01  0.00000000000E+00 0.  1.
          4    1    1    2  501    0 -0.35032476737E+01 -0.93288771524E+00 -0.44485995252E+01  0.58775812617E+01  0.12700000000E+01 0.  1.
         -4    1    1    2    0  501  0.35032476737E+01  0.93288771524E+00  0.25603740449E+01  0.46164314142E+01  0.12700000000E+01 0.  1.
<mgrwt>
<rscale>  0 0.38413440E+01</rscale>
<asrwt>0</asrwt>
<pdfrwt beam="1">0</pdfrwt>
<pdfrwt beam="2">0</pdfrwt>
<totfact> 0.52002337E+11</totfact>
</mgrwt>
</event>
<event>
 4    1  0.3102735E+006  0.2210924E+01  0.7546771E-02  0.2851550E+00
         22   -1    0    0    0    0  0.00000000000E+00  0.00000000000E+00  0.12028412260E+02  0.12028412260E+02  0.00000000000E+00 0.  1.
         22   -1    0    0    0    0 -0.00000000000E+00 -0.00000000000E+00 -0.62134167818E+00  0.62134167818E+00  0.00000000000E+00 0. -1.
          4    1    1    2  501    0  0.17916888455E+01 -0.25521511260E+00  0.19833818557E+01  0.29701830345E+01  0.12700000000E+01 0. -1.
         -4    1    1    2    0  501 -0.17916888455E+01  0.25521511260E+00  0.94236887260E+01  0.96795709036E+01  0.12700000000E+01 0.  1.
<mgrwt>
<rscale>  0 0.22109237E+01</rscale>
<asrwt>0</asrwt>
<pdfrwt beam="1">0</pdfrwt>
<pdfrwt beam="2">0</pdfrwt>
<totfact> 0.21782111E+12</totfact>
</mgrwt>
</event>
<event>
 4    1  0.3102735E+006  0.2046383E+01  0.7546771E-02  0.2950103E+00
         22   -1    0    0    0    0  0.00000000000E+00  0.00000000000E+00  0.15673679118E+01  0.15673679118E+01  0.00000000000E+00 0.  1.
         22   -1    0    0    0    0 -0.00000000000E+00 -0.00000000000E+00 -0.55783084315E+01  0.55783084315E+01  0.00000000000E+00 0. -1.
          4    1    1    2  501    0  0.75399320570E+00  0.14164317330E+01 -0.45844522277E+01  0.50204468762E+01  0.12700000000E+01 0. -1.
         -4    1    1    2    0  501 -0.75399320570E+00 -0.14164317330E+01  0.57351170806E+00  0.21252294671E+01  0.12700000000E+01 0.  1.
<mgrwt>
<rscale>  0 0.20463833E+01</rscale>
<asrwt>0</asrwt>
<pdfrwt beam="1">0</pdfrwt>
<pdfrwt beam="2">0</pdfrwt>
<totfact> 0.19080974E+12</totfact>
</mgrwt>
</event>
<event>
 4    1  0.3102735E+006  0.2544984E+01  0.7546771E-02  0.2689024E+00
         22   -1    0    0    0    0  0.00000000000E+00  0.00000000000E+00  0.82992120374E+00  0.82992120374E+00  0.00000000000E+00 0. -1.
         22   -1    0    0    0    0 -0.00000000000E+00 -0.00000000000E+00 -0.79811618331E+01  0.79811618331E+01  0.00000000000E+00 0. -1.
          4    1    1    2  501    0 -0.19943791326E+01 -0.94153780320E+00 -0.42314661709E+01  0.49378383444E+01  0.12700000000E+01 0. -1.
         -4    1    1    2    0  501  0.19943791326E+01  0.94153780320E+00 -0.29197744584E+01  0.38732446925E+01  0.12700000000E+01 0. -1.
<mgrwt>
<rscale>  0 0.25449836E+01</rscale>
<asrwt>0</asrwt>
<pdfrwt beam="1">0</pdfrwt>
<pdfrwt beam="2">0</pdfrwt>
<totfact> 0.25759656E+12</totfact>
</mgrwt>
</event>
<event>
 4    1  0.3102735E+006  0.2452624E+01  0.7546771E-02  0.2729792E+00
         22   -1    0    0    0    0  0.00000000000E+00  0.00000000000E+00  0.38434920585E+02  0.38434920585E+02  0.00000000000E+00 0. -1.
         22   -1    0    0    0    0 -0.00000000000E+00 -0.00000000000E+00 -0.15958370660E+00  0.15958370660E+00  0.00000000000E+00 0.  1.
          4    1    1    2  501    0 -0.75055594222E+00  0.19593695551E+01  0.16458557569E+02  0.16640296888E+02  0.12700000000E+01 0.  1.
         -4    1    1    2    0  501  0.75055594222E+00 -0.19593695551E+01  0.21816779310E+02  0.21954207404E+02  0.12700000000E+01 0. -1.
<mgrwt>
<rscale>  0 0.24526238E+01</rscale>
<asrwt>0</asrwt>
<pdfrwt beam="1">0</pdfrwt>
<pdfrwt beam="2">0</pdfrwt>
<totfact> 0.23351893E+12</totfact>
</mgrwt>
</event>
<event>
 4    1  0.3102735E+006  0.2001395E+01  0.7546771E-02  0.2979788E+00
         22   -1    0    0    0    0  0.00000000000E+00  0.00000000000E+00  0.10291522489E+01  0.10291522489E+01  0.00000000000E+00 0. -1.
         22   -1    0    0    0    0 -0.00000000000E+00 -0.00000000000E+00 -0.87012457799E+01  0.87012457799E+01  0.00000000000E+00 0.  1.
          4    1    1    2  501    0 -0.12072374412E+01 -0.96708848560E+00 -0.74530011643E+01  0.77170466329E+01  0.12700000000E+01 0.  1.
         -4    1    1    2    0  501  0.12072374412E+01  0.96708848560E+00 -0.21909236668E+00  0.20133513959E+01  0.12700000000E+01 0. -1.
<mgrwt>
<rscale>  0 0.20013951E+01</rscale>
<asrwt>0</asrwt>
<pdfrwt beam="1">0</pdfrwt>
<pdfrwt beam="2">0</pdfrwt>
<totfact> 0.18163460E+12</totfact>
</mgrwt>
</event>
<event>
 4    1  0.3102735E+006  0.4940179E+01  0.7546771E-02  0.2130213E+00
         22   -1    0    0    0    0  0.00000000000E+00  0.00000000000E+00  0.22980873329E+02  0.22980873329E+02  0.00000000000E+00 0.  1.
         22   -1    0    0    0    0 -0.00000000000E+00 -0.00000000000E+00 -0.45221027841E+01  0.45221027841E+01  0.00000000000E+00 0. -1.
          4    1    1    2  501    0 -0.11499840809E+01  0.46335735971E+01 -0.27994853723E+01  0.56782467378E+01  0.12700000000E+01 0. -1.
         -4    1    1    2    0  501  0.11499840809E+01 -0.46335735971E+01  0.21258255918E+02  0.21824729376E+02  0.12700000000E+01 0.  1.
<mgrwt>
<rscale>  0 0.49401789E+01</rscale>
<asrwt>0</asrwt>
<pdfrwt beam="1">0</pdfrwt>
<pdfrwt beam="2">0</pdfrwt>
<totfact> 0.98931928E+10</totfact>
</mgrwt>
</event>
<event>
 4    1  0.3102735E+006  0.2013090E+01  0.7546771E-02  0.2971946E+00
         22   -1    0    0    0    0  0.00000000000E+00  0.00000000000E+00  0.10493353409E+03  0.10493353409E+03  0.00000000000E+00 0.  1.
         22   -1    0    0    0    0 -0.00000000000E+00 -0.00000000000E+00 -0.40142500878E-01  0.40142500878E-01  0.00000000000E+00 0.  1.
          4    1    1    2  501    0  0.87572930007E+00  0.12933406865E+01  0.42224868560E+02  0.42272828825E+02  0.12700000000E+01 0.  1.
         -4    1    1    2    0  501 -0.87572930007E+00 -0.12933406865E+01  0.62668523031E+02  0.62700847768E+02  0.12700000000E+01 0.  1.
<mgrwt>
<rscale>  0 0.20130901E+01</rscale>
<asrwt>0</asrwt>
<pdfrwt beam="1">0</pdfrwt>
<pdfrwt beam="2">0</pdfrwt>
<totfact> 0.27687687E+12</totfact>
</mgrwt>
</event>
<event>
 4    1  0.3102735E+006  0.3220503E+01  0.7546771E-02  0.2456779E+00
         22   -1    0    0    0    0  0.00000000000E+00  0.00000000000E+00  0.25566528134E+01  0.25566528134E+01  0.00000000000E+00 0. -1.
         22   -1    0    0    0    0 -0.00000000000E+00 -0.00000000000E+00 -0.47515561172E+01  0.47515561172E+01  0.00000000000E+00 0.  1.
          4    1    1    2  501    0  0.24161563850E+01  0.17090717067E+01 -0.24947933197E+01  0.40737736171E+01  0.12700000000E+01 0.  1.
         -4    1    1    2    0  501 -0.24161563850E+01 -0.17090717067E+01  0.29989001587E+00  0.32344353135E+01  0.12700000000E+01 0. -1.
<mgrwt>
<rscale>  0 0.32205027E+01</rscale>
<asrwt>0</asrwt>
<pdfrwt beam="1">0</pdfrwt>
<pdfrwt beam="2">0</pdfrwt>
<totfact> 0.13098487E+12</totfact>
</mgrwt>
</event>
<event>
 4    1  0.3102735E+006  0.2709802E+01  0.7546771E-02  0.2622689E+00
         22   -1    0    0    0    0  0.00000000000E+00  0.00000000000E+00  0.37440430979E+01  0.37440430979E+01  0.00000000000E+00 0.  1.
         22   -1    0    0    0    0 -0.00000000000E+00 -0.00000000000E+00 -0.97115151292E+01  0.97115151292E+01  0.00000000000E+00 0. -1.
          4    1    1    2  501    0  0.23415336976E+01 -0.49733751365E+00 -0.89939005005E+01  0.93932566702E+01  0.12700000000E+01 0. -1.
         -4    1    1    2    0  501 -0.23415336976E+01  0.49733751365E+00  0.30264284692E+01  0.40623015569E+01  0.12700000000E+01 0.  1.
<mgrwt>
<rscale>  0 0.27098016E+01</rscale>
<asrwt>0</asrwt>
<pdfrwt beam="1">0</pdfrwt>
<pdfrwt beam="2">0</pdfrwt>
<totfact> 0.35681407E+11</totfact>
</mgrwt>
</event>
<event>
 4    1  0.3102735E+006  0.4664360E+01  0.7546771E-02  0.2165837E+00
         22   -1    0    0    0    0  0.00000000000E+00  0.00000000000E+00  0.23846097855E+01  0.23846097855E+01  0.00000000000E+00 0. -1.
         22   -1    0    0    0    0 -0.00000000000E+00 -0.00000000000E+00 -0.91714603856E+01  0.91714603856E+01  0.00000000000E+00 0.  1.
          4    1    1    2  501    0 -0.42653534743E+01  0.13964632271E+01 -0.38107781840E+01  0.60231453721E+01  0.12700000000E+01 0. -1.
         -4    1    1    2    0  501  0.42653534743E+01 -0.13964632271E+01 -0.29760724160E+01  0.55329247990E+01  0.12700000000E+01 0. -1.
<mgrwt>
<rscale>  0 0.46643595E+01</rscale>
<asrwt>0</asrwt>
<pdfrwt beam="1">0</pdfrwt>
<pdfrwt beam="2">0</pdfrwt>
<totfact> 0.64765696E+11</totfact>
</mgrwt>
</event>
<event>
 4    1  0.3102735E+006  0.2140165E+01  0.7546771E-02  0.2892137E+00
         22   -1    0    0    0    0  0.00000000000E+00  0.00000000000E+00  0.13492076600E+00  0.13492076600E+00  0.00000000000E+00 0. -1.
         22   -1    0    0    0    0 -0.00000000000E+00 -0.00000000000E+00 -0.40696741460E+02  0.40696741460E+02  0.00000000000E+00 0. -1.
          4    1    1    2  501    0  0.94355661385E+00  0.14412169240E+01 -0.11967197303E+02  0.12157060360E+02  0.12700000000E+01 0. -1.
         -4    1    1    2    0  501 -0.94355661385E+00 -0.14412169240E+01 -0.28594623391E+02  0.28674601866E+02  0.12700000000E+01 0. -1.
<mgrwt>
<rscale>  0 0.21401648E+01</rscale>
<asrwt>0</asrwt>
<pdfrwt beam="1">0</pdfrwt>
<pdfrwt beam="2">0</pdfrwt>
<totfact> 0.26129695E+12</totfact>
</mgrwt>
</event>
<event>
 4    1  0.3102735E+006  0.4397783E+01  0.7546771E-02  0.2207148E+00
         22   -1    0    0    0    0  0.00000000000E+00  0.00000000000E+00  0.24840484437E+02  0.24840484437E+02  0.00000000000E+00 0. -1.
         22   -1    0    0    0    0 -0.00000000000E+00 -0.00000000000E+00 -0.77866503345E+00  0.77866503345E+00  0.00000000000E+00 0.  1.
          4    1    1    2  501    0 -0.28770985362E+01 -0.30740692877E+01  0.12158488851E+02  0.12929398637E+02  0.12700000000E+01 0. -1.
         -4    1    1    2    0  501  0.28770985362E+01  0.30740692877E+01  0.11903330552E+02  0.12689750833E+02  0.12700000000E+01 0.  1.
<mgrwt>
<rscale>  0 0.43977833E+01</rscale>
<asrwt>0</asrwt>
<pdfrwt beam="1">0</pdfrwt>
<pdfrwt beam="2">0</pdfrwt>
<totfact> 0.68652076E+11</totfact>
</mgrwt>
</event>
<event>
 4    1  0.3102735E+006  0.2588868E+01  0.7546771E-02  0.2670602E+00
         22   -1    0    0    0    0  0.00000000000E+00  0.00000000000E+00  0.25384155439E+02  0.25384155439E+02  0.00000000000E+00 0.  1.
         22   -1    0    0    0    0 -0.00000000000E+00 -0.00000000000E+00 -0.32083041880E+00  0.32083041880E+00  0.00000000000E+00 0.  1.
          4    1    1    2  501    0  0.50433050311E+00 -0.21988603291E+01  0.71239110639E+01  0.75797325051E+01  0.12700000000E+01 0.  1.
         -4    1    1    2    0  501 -0.50433050311E+00  0.21988603291E+01  0.17939413957E+02  0.18125253353E+02  0.12700000000E+01 0.  1.
<mgrwt>
<rscale>  0 0.25888677E+01</rscale>
<asrwt>0</asrwt>
<pdfrwt beam="1">0</pdfrwt>
<pdfrwt beam="2">0</pdfrwt>
<totfact> 0.18183361E+12</totfact>
</mgrwt>
</event>
<event>
 4    1  0.3102735E+006  0.2373245E+01  0.7546771E-02  0.2767195E+00
         22   -1    0    0    0    0  0.00000000000E+00  0.00000000000E+00  0.45541300082E+00  0.45541300082E+00  0.00000000000E+00 0.  1.
         22   -1    0    0    0    0 -0.00000000000E+00 -0.00000000000E+00 -0.12760752787E+02  0.12760752787E+02  0.00000000000E+00 0.  1.
          4    1    1    2  501    0  0.18180220477E+01 -0.84509514530E+00 -0.73128088096E+01  0.76882678580E+01  0.12700000000E+01 0.  1.
         -4    1    1    2    0  501 -0.18180220477E+01  0.84509514530E+00 -0.49925309764E+01  0.55278979297E+01  0.12700000000E+01 0.  1.
<mgrwt>
<rscale>  0 0.23732446E+01</rscale>
<asrwt>0</asrwt>
<pdfrwt beam="1">0</pdfrwt>
<pdfrwt beam="2">0</pdfrwt>
<totfact> 0.28792528E+12</totfact>
</mgrwt>
</event>
<event>
 4    1  0.3102735E+006  0.2124153E+01  0.7546771E-02  0.2901683E+00
         22   -1    0    0    0    0  0.00000000000E+00  0.00000000000E+00  0.78647712267E+01  0.78647712267E+01  0.00000000000E+00 0. -1.
         22   -1    0    0    0    0 -0.00000000000E+00 -0.00000000000E+00 -0.59578680746E+00  0.59578680746E+00  0.00000000000E+00 0.  1.
          4    1    1    2  501    0  0.15814879483E+01 -0.63088936213E+00  0.28200088561E+01  0.35305064037E+01  0.12700000000E+01 0. -1.
         -4    1    1    2    0  501 -0.15814879483E+01  0.63088936213E+00  0.44489755632E+01  0.49300516305E+01  0.12700000000E+01 0.  1.
<mgrwt>
<rscale>  0 0.21241529E+01</rscale>
<asrwt>0</asrwt>
<pdfrwt beam="1">0</pdfrwt>
<pdfrwt beam="2">0</pdfrwt>
<totfact> 0.38193322E+12</totfact>
</mgrwt>
</event>
<event>
 4    1  0.3102735E+006  0.3481737E+01  0.7546771E-02  0.2388861E+00
         22   -1    0    0    0    0  0.00000000000E+00  0.00000000000E+00  0.68014718894E+01  0.68014718894E+01  0.00000000000E+00 0. -1.
         22   -1    0    0    0    0 -0.00000000000E+00 -0.00000000000E+00 -0.17837070726E+01  0.17837070726E+01  0.00000000000E+00 0.  1.
          4    1    1    2  501    0  0.26656143536E+01 -0.18450184517E+01  0.26279907608E+01  0.43622045353E+01  0.12700000000E+01 0. -1.
         -4    1    1    2    0  501 -0.26656143536E+01  0.18450184517E+01  0.23897740561E+01  0.42229744267E+01  0.12700000000E+01 0.  1.
<mgrwt>
<rscale>  0 0.34817371E+01</rscale>
<asrwt>0</asrwt>
<pdfrwt beam="1">0</pdfrwt>
<pdfrwt beam="2">0</pdfrwt>
<totfact> 0.12981309E+12</totfact>
</mgrwt>
</event>
<event>
 4    1  0.3102735E+006  0.3758045E+01  0.7546771E-02  0.2326077E+00
         22   -1    0    0    0    0  0.00000000000E+00  0.00000000000E+00  0.10669085141E+01  0.10669085141E+01  0.00000000000E+00 0.  1.
         22   -1    0    0    0    0 -0.00000000000E+00 -0.00000000000E+00 -0.14338404839E+02  0.14338404839E+02  0.00000000000E+00 0.  1.
          4    1    1    2  501    0 -0.27823871065E+01  0.21836493244E+01 -0.87703667955E+01  0.95416055311E+01  0.12700000000E+01 0.  1.
         -4    1    1    2    0  501  0.27823871065E+01 -0.21836493244E+01 -0.45011295292E+01  0.58637078219E+01  0.12700000000E+01 0.  1.
<mgrwt>
<rscale>  0 0.37580450E+01</rscale>
<asrwt>0</asrwt>
<pdfrwt beam="1">0</pdfrwt>
<pdfrwt beam="2">0</pdfrwt>
<totfact> 0.94965584E+11</totfact>
</mgrwt>
</event>
<event>
 4    1  0.3102735E+006  0.2116450E+01  0.7546771E-02  0.2906324E+00
         22   -1    0    0    0    0  0.00000000000E+00  0.00000000000E+00  0.13862442119E+02  0.13862442119E+02  0.00000000000E+00 0. -1.
         22   -1    0    0    0    0 -0.00000000000E+00 -0.00000000000E+00 -0.32361612108E+00  0.32361612108E+00  0.00000000000E+00 0.  1.
          4    1    1    2  501    0 -0.28341145142E+00  0.16691733948E+01  0.64943195186E+01  0.68304866505E+01  0.12700000000E+01 0.  1.
         -4    1    1    2    0  501  0.28341145142E+00 -0.16691733948E+01  0.70445064794E+01  0.73555715897E+01  0.12700000000E+01 0. -1.
<mgrwt>
<rscale>  0 0.21164503E+01</rscale>
<asrwt>0</asrwt>
<pdfrwt beam="1">0</pdfrwt>
<pdfrwt beam="2">0</pdfrwt>
<totfact> 0.38207297E+12</totfact>
</mgrwt>
</event>
<event>
 4    1  0.3102735E+006  0.2558448E+01  0.7546771E-02  0.2683310E+00
         22   -1    0    0    0    0  0.00000000000E+00  0.00000000000E+00  0.21317893241E+02  0.21317893241E+02  0.00000000000E+00 0. -1.
         22   -1    0    0    0    0 -0.00000000000E+00 -0.00000000000E+00 -0.11155654539E+01  0.11155654539E+01  0.00000000000E+00 0.  1.
          4    1    1    2  501    0  0.11427682282E+01 -0.19044259688E+01  0.55205390854E+00  0.26173308946E+01  0.12700000000E+01 0.  1.
         -4    1    1    2    0  501 -0.11427682282E+01  0.19044259688E+01  0.19650273879E+02  0.19816127800E+02  0.12700000000E+01 0. -1.
<mgrwt>
<rscale>  0 0.25584483E+01</rscale>
<asrwt>0</asrwt>
<pdfrwt beam="1">0</pdfrwt>
<pdfrwt beam="2">0</pdfrwt>
<totfact> 0.55201997E+11</totfact>
</mgrwt>
</event>
<event>
 4    1  0.3102735E+006  0.2355379E+01  0.7546771E-02  0.2775939E+00
         22   -1    0    0    0    0  0.00000000000E+00  0.00000000000E+00  0.69274890595E+00  0.69274890595E+00  0.00000000000E+00 0.  1.
         22   -1    0    0    0    0 -0.00000000000E+00 -0.00000000000E+00 -0.80673605987E+01  0.80673605987E+01  0.00000000000E+00 0.  1.
          4    1    1    2  501    0  0.17598309010E+01  0.91537160586E+00 -0.40617582892E+01  0.46952838442E+01  0.12700000000E+01 0.  1.
         -4    1    1    2    0  501 -0.17598309010E+01 -0.91537160586E+00 -0.33128534036E+01  0.40648256605E+01  0.12700000000E+01 0.  1.
<mgrwt>
<rscale>  0 0.23553789E+01</rscale>
<asrwt>0</asrwt>
<pdfrwt beam="1">0</pdfrwt>
<pdfrwt beam="2">0</pdfrwt>
<totfact> 0.31225215E+12</totfact>
</mgrwt>
</event>
<event>
 4    1  0.3102735E+006  0.2019355E+01  0.7546771E-02  0.2967782E+00
         22   -1    0    0    0    0  0.00000000000E+00  0.00000000000E+00  0.10997463278E+00  0.10997463278E+00  0.00000000000E+00 0.  1.
         22   -1    0    0    0    0 -0.00000000000E+00 -0.00000000000E+00 -0.37207661187E+02  0.37207661187E+02  0.00000000000E+00 0.  1.
          4    1    1    2  501    0 -0.13190487693E+01 -0.85147300173E+00 -0.17453433489E+02  0.17569864441E+02  0.12700000000E+01 0.  1.
         -4    1    1    2    0  501  0.13190487693E+01  0.85147300173E+00 -0.19644253066E+02  0.19747771379E+02  0.12700000000E+01 0.  1.
<mgrwt>
<rscale>  0 0.20193553E+01</rscale>
<asrwt>0</asrwt>
<pdfrwt beam="1">0</pdfrwt>
<pdfrwt beam="2">0</pdfrwt>
<totfact> 0.36815786E+12</totfact>
</mgrwt>
</event>
<event>
 4    1  0.3102735E+006  0.3299788E+01  0.7546771E-02  0.2435168E+00
         22   -1    0    0    0    0  0.00000000000E+00  0.00000000000E+00  0.28633648698E+01  0.28633648698E+01  0.00000000000E+00 0. -1.
         22   -1    0    0    0    0 -0.00000000000E+00 -0.00000000000E+00 -0.38094713823E+01  0.38094713823E+01  0.00000000000E+00 0.  1.
          4    1    1    2  501    0  0.29682092241E+01  0.68222805745E+00 -0.33269134947E+00  0.33165169462E+01  0.12700000000E+01 0.  1.
         -4    1    1    2    0  501 -0.29682092241E+01 -0.68222805745E+00 -0.61341516298E+00  0.33563193058E+01  0.12700000000E+01 0. -1.
<mgrwt>
<rscale>  0 0.32997880E+01</rscale>
<asrwt>0</asrwt>
<pdfrwt beam="1">0</pdfrwt>
<pdfrwt beam="2">0</pdfrwt>
<totfact> 0.14893759E+12</totfact>
</mgrwt>
</event>
<event>
 4    1  0.3102735E+006  0.2198894E+01  0.7546771E-02  0.2858273E+00
         22   -1    0    0    0    0  0.00000000000E+00  0.00000000000E+00  0.71147382434E+01  0.71147382434E+01  0.00000000000E+00 0.  1.
         22   -1    0    0    0    0 -0.00000000000E+00 -0.00000000000E+00 -0.67995299226E+00  0.67995299226E+00  0.00000000000E+00 0. -1.
          4    1    1    2  501    0  0.12165376537E+01  0.13199513490E+01  0.31278764549E+01  0.38234469454E+01  0.12700000000E+01 0. -1.
         -4    1    1    2    0  501 -0.12165376537E+01 -0.13199513490E+01  0.33069087962E+01  0.39712442903E+01  0.12700000000E+01 0.  1.
<mgrwt>
<rscale>  0 0.21988941E+01</rscale>
<asrwt>0</asrwt>
<pdfrwt beam="1">0</pdfrwt>
<pdfrwt beam="2">0</pdfrwt>
<totfact> 0.37079068E+12</totfact>
</mgrwt>
</event>
<event>
 4    1  0.3102735E+006  0.6445885E+01  0.7546771E-02  0.1981866E+00
         22   -1    0    0    0    0  0.00000000000E+00  0.00000000000E+00  0.74845005250E+01  0.74845005250E+01  0.00000000000E+00 0.  1.
         22   -1    0    0    0    0 -0.00000000000E+00 -0.00000000000E+00 -0.69208832803E+01  0.69208832803E+01  0.00000000000E+00 0. -1.
          4    1    1    2  501    0 -0.60848116271E+01 -0.17063428638E+01  0.34858109135E+01  0.73280499610E+01  0.12700000000E+01 0.  1.
         -4    1    1    2    0  501  0.60848116271E+01  0.17063428638E+01 -0.29221936687E+01  0.70773338443E+01  0.12700000000E+01 0. -1.
<mgrwt>
<rscale>  0 0.64458854E+01</rscale>
<asrwt>0</asrwt>
<pdfrwt beam="1">0</pdfrwt>
<pdfrwt beam="2">0</pdfrwt>
<totfact> 0.23579255E+11</totfact>
</mgrwt>
</event>
<event>
 4    1  0.3102735E+006  0.2186905E+01  0.7546771E-02  0.2865044E+00
         22   -1    0    0    0    0  0.00000000000E+00  0.00000000000E+00  0.14274671312E+01  0.14274671312E+01  0.00000000000E+00 0.  1.
         22   -1    0    0    0    0 -0.00000000000E+00 -0.00000000000E+00 -0.42759301343E+01  0.42759301343E+01  0.00000000000E+00 0. -1.
          4    1    1    2  501    0  0.62569578610E+00  0.16667811337E+01 -0.27509804597E+01  0.35143204257E+01  0.12700000000E+01 0.  1.
         -4    1    1    2    0  501 -0.62569578610E+00 -0.16667811337E+01 -0.97482543299E-01  0.21890768398E+01  0.12700000000E+01 0. -1.
<mgrwt>
<rscale>  0 0.21869052E+01</rscale>
<asrwt>0</asrwt>
<pdfrwt beam="1">0</pdfrwt>
<pdfrwt beam="2">0</pdfrwt>
<totfact> 0.29105040E+12</totfact>
</mgrwt>
</event>
<event>
 4    1  0.3102735E+006  0.2203690E+01  0.7546771E-02  0.2855584E+00
         22   -1    0    0    0    0  0.00000000000E+00  0.00000000000E+00  0.15244718409E+01  0.15244718409E+01  0.00000000000E+00 0.  1.
         22   -1    0    0    0    0 -0.00000000000E+00 -0.00000000000E+00 -0.31935793240E+01  0.31935793240E+01  0.00000000000E+00 0.  1.
          4    1    1    2  501    0 -0.71293319202E+00 -0.16538064304E+01 -0.95299340641E+00  0.24009260460E+01  0.12700000000E+01 0.  1.
         -4    1    1    2    0  501  0.71293319202E+00  0.16538064304E+01 -0.71611407676E+00  0.23171251189E+01  0.12700000000E+01 0.  1.
<mgrwt>
<rscale>  0 0.22036900E+01</rscale>
<asrwt>0</asrwt>
<pdfrwt beam="1">0</pdfrwt>
<pdfrwt beam="2">0</pdfrwt>
<totfact> 0.38016982E+12</totfact>
</mgrwt>
</event>
<event>
 4    1  0.3102735E+006  0.3321124E+01  0.7546771E-02  0.2429507E+00
         22   -1    0    0    0    0  0.00000000000E+00  0.00000000000E+00  0.81299424237E+01  0.81299424237E+01  0.00000000000E+00 0. -1.
         22   -1    0    0    0    0 -0.00000000000E+00 -0.00000000000E+00 -0.21528185133E+01  0.21528185133E+01  0.00000000000E+00 0.  1.
          4    1    1    2  501    0 -0.20945160844E+01 -0.22427592435E+01 -0.13799090361E+00  0.33239897926E+01  0.12700000000E+01 0.  1.
         -4    1    1    2    0  501  0.20945160844E+01  0.22427592435E+01  0.61151148140E+01  0.69587711444E+01  0.12700000000E+01 0. -1.
<mgrwt>
<rscale>  0 0.33211243E+01</rscale>
<asrwt>0</asrwt>
<pdfrwt beam="1">0</pdfrwt>
<pdfrwt beam="2">0</pdfrwt>
<totfact> 0.84323117E+11</totfact>
</mgrwt>
</event>
<event>
 4    1  0.3102735E+006  0.2559441E+01  0.7546771E-02  0.2682891E+00
         22   -1    0    0    0    0  0.00000000000E+00  0.00000000000E+00  0.12528878488E+01  0.12528878488E+01  0.00000000000E+00 0. -1.
         22   -1    0    0    0    0 -0.00000000000E+00 -0.00000000000E+00 -0.54369139388E+01  0.54369139388E+01  0.00000000000E+00 0.  1.
          4    1    1    2  501    0 -0.21533879000E+01 -0.54841619790E+00 -0.27468864982E+01  0.37544806842E+01  0.12700000000E+01 0.  1.
         -4    1    1    2    0  501  0.21533879000E+01  0.54841619790E+00 -0.14371395917E+01  0.29353211034E+01  0.12700000000E+01 0. -1.
<mgrwt>
<rscale>  0 0.25594413E+01</rscale>
<asrwt>0</asrwt>
<pdfrwt beam="1">0</pdfrwt>
<pdfrwt beam="2">0</pdfrwt>
<totfact> 0.25447077E+12</totfact>
</mgrwt>
</event>
<event>
 4    1  0.3102735E+006  0.2456440E+01  0.7546771E-02  0.2728051E+00
         22   -1    0    0    0    0  0.00000000000E+00  0.00000000000E+00  0.40329880211E+01  0.40329880211E+01  0.00000000000E+00 0. -1.
         22   -1    0    0    0    0 -0.00000000000E+00 -0.00000000000E+00 -0.16058450173E+01  0.16058450173E+01  0.00000000000E+00 0.  1.
          4    1    1    2  501    0 -0.12246575723E+00 -0.20990952192E+01  0.47680411532E+00  0.25022871069E+01  0.12700000000E+01 0.  1.
         -4    1    1    2    0  501  0.12246575723E+00  0.20990952192E+01  0.19503388884E+01  0.31365459315E+01  0.12700000000E+01 0. -1.
<mgrwt>
<rscale>  0 0.24564402E+01</rscale>
<asrwt>0</asrwt>
<pdfrwt beam="1">0</pdfrwt>
<pdfrwt beam="2">0</pdfrwt>
<totfact> 0.27230566E+12</totfact>
</mgrwt>
</event>
<event>
 4    1  0.3102735E+006  0.2280899E+01  0.7546771E-02  0.2813786E+00
         22   -1    0    0    0    0  0.00000000000E+00  0.00000000000E+00  0.19669305512E+02  0.19669305512E+02  0.00000000000E+00 0. -1.
         22   -1    0    0    0    0 -0.00000000000E+00 -0.00000000000E+00 -0.55084728434E+00  0.55084728434E+00  0.00000000000E+00 0.  1.
          4    1    1    2  501    0 -0.18922562163E+01 -0.94697609582E-01  0.22699173531E+01  0.32179226242E+01  0.12700000000E+01 0.  1.
         -4    1    1    2    0  501  0.18922562163E+01  0.94697609582E-01  0.16848540875E+02  0.17002230172E+02  0.12700000000E+01 0. -1.
<mgrwt>
<rscale>  0 0.22808992E+01</rscale>
<asrwt>0</asrwt>
<pdfrwt beam="1">0</pdfrwt>
<pdfrwt beam="2">0</pdfrwt>
<totfact> 0.13618474E+12</totfact>
</mgrwt>
</event>
<event>
 4    1  0.3102735E+006  0.6666704E+01  0.7546771E-02  0.1964596E+00
         22   -1    0    0    0    0  0.00000000000E+00  0.00000000000E+00  0.27790305315E+02  0.27790305315E+02  0.00000000000E+00 0.  1.
         22   -1    0    0    0    0 -0.00000000000E+00 -0.00000000000E+00 -0.20380899458E+01  0.20380899458E+01  0.00000000000E+00 0. -1.
          4    1    1    2  501    0  0.12497807662E+01 -0.64241802208E+01  0.59559149627E+01  0.89396793296E+01  0.12700000000E+01 0. -1.
         -4    1    1    2    0  501 -0.12497807662E+01  0.64241802208E+01  0.19796300407E+02  0.20888715931E+02  0.12700000000E+01 0.  1.
<mgrwt>
<rscale>  0 0.66667041E+01</rscale>
<asrwt>0</asrwt>
<pdfrwt beam="1">0</pdfrwt>
<pdfrwt beam="2">0</pdfrwt>
<totfact> 0.19756505E+11</totfact>
</mgrwt>
</event>
<event>
 4    1  0.3102735E+006  0.2013523E+01  0.7546771E-02  0.2971657E+00
         22   -1    0    0    0    0  0.00000000000E+00  0.00000000000E+00  0.53233689375E+01  0.53233689375E+01  0.00000000000E+00 0.  1.
         22   -1    0    0    0    0 -0.00000000000E+00 -0.00000000000E+00 -0.10393867777E+01  0.10393867777E+01  0.00000000000E+00 0.  1.
          4    1    1    2  501    0 -0.13041614478E+00 -0.15570383668E+01  0.49730664373E+00  0.20740276624E+01  0.12700000000E+01 0.  1.
         -4    1    1    2    0  501  0.13041614478E+00  0.15570383668E+01  0.37866755161E+01  0.42887280528E+01  0.12700000000E+01 0.  1.
<mgrwt>
<rscale>  0 0.20135235E+01</rscale>
<asrwt>0</asrwt>
<pdfrwt beam="1">0</pdfrwt>
<pdfrwt beam="2">0</pdfrwt>
<totfact> 0.32310665E+12</totfact>
</mgrwt>
</event>
<event>
 4    1  0.3102735E+006  0.2255005E+01  0.7546771E-02  0.2827500E+00
         22   -1    0    0    0    0  0.00000000000E+00  0.00000000000E+00  0.10294542491E+01  0.10294542491E+01  0.00000000000E+00 0. -1.
         22   -1    0    0    0    0 -0.00000000000E+00 -0.00000000000E+00 -0.55283179669E+01  0.55283179669E+01  0.00000000000E+00 0.  1.
          4    1    1    2  501    0 -0.11745918738E+01  0.14465417533E+01 -0.11793945764E+01  0.25448026802E+01  0.12700000000E+01 0. -1.
         -4    1    1    2    0  501  0.11745918738E+01 -0.14465417533E+01 -0.33194691414E+01  0.40129695358E+01  0.12700000000E+01 0.  1.
<mgrwt>
<rscale>  0 0.22550053E+01</rscale>
<asrwt>0</asrwt>
<pdfrwt beam="1">0</pdfrwt>
<pdfrwt beam="2">0</pdfrwt>
<totfact> 0.31236795E+12</totfact>
</mgrwt>
</event>
<event>
 4    1  0.3102735E+006  0.2905948E+01  0.7546771E-02  0.2552763E+00
         22   -1    0    0    0    0  0.00000000000E+00  0.00000000000E+00  0.34802232227E+01  0.34802232227E+01  0.00000000000E+00 0. -1.
         22   -1    0    0    0    0 -0.00000000000E+00 -0.00000000000E+00 -0.25177257717E+01  0.25177257717E+01  0.00000000000E+00 0.  1.
          4    1    1    2  501    0  0.52376650705E+00 -0.25607235930E+01  0.10523079522E+01  0.30906129974E+01  0.12700000000E+01 0. -1.
         -4    1    1    2    0  501 -0.52376650705E+00  0.25607235930E+01 -0.89810501192E-01  0.29073359970E+01  0.12700000000E+01 0.  1.
<mgrwt>
<rscale>  0 0.29059485E+01</rscale>
<asrwt>0</asrwt>
<pdfrwt beam="1">0</pdfrwt>
<pdfrwt beam="2">0</pdfrwt>
<totfact> 0.19238777E+12</totfact>
</mgrwt>
</event>
<event>
 4    1  0.3102735E+006  0.2217115E+01  0.7546771E-02  0.2848117E+00
         22   -1    0    0    0    0  0.00000000000E+00  0.00000000000E+00  0.56315831250E+01  0.56315831250E+01  0.00000000000E+00 0. -1.
         22   -1    0    0    0    0 -0.00000000000E+00 -0.00000000000E+00 -0.98008205646E+00  0.98008205646E+00  0.00000000000E+00 0. -1.
          4    1    1    2  501    0  0.27834940237E+00 -0.17958903454E+01  0.12323340046E+01  0.25365818776E+01  0.12700000000E+01 0. -1.
         -4    1    1    2    0  501 -0.27834940237E+00  0.17958903454E+01  0.34191670640E+01  0.40750833040E+01  0.12700000000E+01 0. -1.
<mgrwt>
<rscale>  0 0.22171154E+01</rscale>
<asrwt>0</asrwt>
<pdfrwt beam="1">0</pdfrwt>
<pdfrwt beam="2">0</pdfrwt>
<totfact> 0.32321633E+12</totfact>
</mgrwt>
</event>
<event>
 4    1  0.3102735E+006  0.2348026E+01  0.7546771E-02  0.2779575E+00
         22   -1    0    0    0    0  0.00000000000E+00  0.00000000000E+00  0.93089940779E+00  0.93089940779E+00  0.00000000000E+00 0.  1.
         22   -1    0    0    0    0 -0.00000000000E+00 -0.00000000000E+00 -0.74665580845E+01  0.74665580845E+01  0.00000000000E+00 0. -1.
          4    1    1    2  501    0  0.10430226234E+01 -0.16770296287E+01 -0.51772143827E+01  0.56847843700E+01  0.12700000000E+01 0. -1.
         -4    1    1    2    0  501 -0.10430226234E+01  0.16770296287E+01 -0.13584442939E+01  0.27126731223E+01  0.12700000000E+01 0. -1.
<mgrwt>
<rscale>  0 0.23480257E+01</rscale>
<asrwt>0</asrwt>
<pdfrwt beam="1">0</pdfrwt>
<pdfrwt beam="2">0</pdfrwt>
<totfact> 0.24482102E+12</totfact>
</mgrwt>
</event>
<event>
 4    1  0.3102735E+006  0.2334185E+01  0.7546771E-02  0.2786476E+00
         22   -1    0    0    0    0  0.00000000000E+00  0.00000000000E+00  0.85401900830E+01  0.85401900830E+01  0.00000000000E+00 0. -1.
         22   -1    0    0    0    0 -0.00000000000E+00 -0.00000000000E+00 -0.68359915677E+00  0.68359915677E+00  0.00000000000E+00 0.  1.
          4    1    1    2  501    0 -0.13434510667E+01 -0.14250115712E+01  0.27368310667E+01  0.35970353118E+01  0.12700000000E+01 0.  1.
         -4    1    1    2    0  501  0.13434510667E+01  0.14250115712E+01  0.51197598596E+01  0.56267539280E+01  0.12700000000E+01 0. -1.
<mgrwt>
<rscale>  0 0.23341848E+01</rscale>
<asrwt>0</asrwt>
<pdfrwt beam="1">0</pdfrwt>
<pdfrwt beam="2">0</pdfrwt>
<totfact> 0.29600649E+12</totfact>
</mgrwt>
</event>
<event>
 4    1  0.3102735E+006  0.3534725E+01  0.7546771E-02  0.2376162E+00
         22   -1    0    0    0    0  0.00000000000E+00  0.00000000000E+00  0.29061416409E+00  0.29061416409E+00  0.00000000000E+00 0.  1.
         22   -1    0    0    0    0 -0.00000000000E+00 -0.00000000000E+00 -0.47336793226E+02  0.47336793226E+02  0.00000000000E+00 0. -1.
          4    1    1    2  501    0  0.29969714801E+01  0.13782395445E+01 -0.30737120543E+02  0.30939697179E+02  0.12700000000E+01 0. -1.
         -4    1    1    2    0  501 -0.29969714801E+01 -0.13782395445E+01 -0.16309058520E+02  0.16687710211E+02  0.12700000000E+01 0.  1.
<mgrwt>
<rscale>  0 0.35347252E+01</rscale>
<asrwt>0</asrwt>
<pdfrwt beam="1">0</pdfrwt>
<pdfrwt beam="2">0</pdfrwt>
<totfact> 0.91139216E+11</totfact>
</mgrwt>
</event>
<event>
 4    1  0.3102735E+006  0.2114253E+01  0.7546771E-02  0.2907654E+00
         22   -1    0    0    0    0  0.00000000000E+00  0.00000000000E+00  0.93769937436E+01  0.93769937436E+01  0.00000000000E+00 0. -1.
         22   -1    0    0    0    0 -0.00000000000E+00 -0.00000000000E+00 -0.45687127080E+01  0.45687127080E+01  0.00000000000E+00 0.  1.
          4    1    1    2  501    0 -0.63765986008E+00  0.15654256430E+01 -0.41949149186E+01  0.46975928639E+01  0.12700000000E+01 0.  1.
         -4    1    1    2    0  501  0.63765986008E+00 -0.15654256430E+01  0.90031959542E+01  0.92481135877E+01  0.12700000000E+01 0. -1.
<mgrwt>
<rscale>  0 0.21142534E+01</rscale>
<asrwt>0</asrwt>
<pdfrwt beam="1">0</pdfrwt>
<pdfrwt beam="2">0</pdfrwt>
<totfact> 0.29443074E+11</totfact>
</mgrwt>
</event>
<event>
 4    1  0.3102735E+006  0.3201097E+01  0.7546771E-02  0.2462213E+00
         22   -1    0    0    0    0  0.00000000000E+00  0.00000000000E+00  0.23758508473E+02  0.23758508473E+02  0.00000000000E+00 0. -1.
         22   -1    0    0    0    0 -0.00000000000E+00 -0.00000000000E+00 -0.11534674380E+01  0.11534674380E+01  0.00000000000E+00 0.  1.
          4    1    1    2  501    0 -0.24380641091E+01 -0.16401105397E+01  0.14466546505E+01  0.35128092547E+01  0.12700000000E+01 0.  1.
         -4    1    1    2    0  501  0.24380641091E+01  0.16401105397E+01  0.21158386385E+02  0.21399166656E+02  0.12700000000E+01 0. -1.
<mgrwt>
<rscale>  0 0.32010966E+01</rscale>
<asrwt>0</asrwt>
<pdfrwt beam="1">0</pdfrwt>
<pdfrwt beam="2">0</pdfrwt>
<totfact> 0.46377407E+11</totfact>
</mgrwt>
</event>
<event>
 4    1  0.3102735E+006  0.3467666E+01  0.7546771E-02  0.2392290E+00
         22   -1    0    0    0    0  0.00000000000E+00  0.00000000000E+00  0.16304102583E+02  0.16304102583E+02  0.00000000000E+00 0.  1.
         22   -1    0    0    0    0 -0.00000000000E+00 -0.00000000000E+00 -0.74723588060E+00  0.74723588060E+00  0.00000000000E+00 0. -1.
          4    1    1    2  501    0 -0.32229242470E+01  0.15673043088E+00  0.87502826527E+01  0.94123403908E+01  0.12700000000E+01 0.  1.
         -4    1    1    2    0  501  0.32229242470E+01 -0.15673043088E+00  0.68065840493E+01  0.76389980724E+01  0.12700000000E+01 0. -1.
<mgrwt>
<rscale>  0 0.34676657E+01</rscale>
<asrwt>0</asrwt>
<pdfrwt beam="1">0</pdfrwt>
<pdfrwt beam="2">0</pdfrwt>
<totfact> 0.12165431E+12</totfact>
</mgrwt>
</event>
<event>
 4    1  0.3102735E+006  0.5105239E+01  0.7546771E-02  0.2110648E+00
         22   -1    0    0    0    0  0.00000000000E+00  0.00000000000E+00  0.46834661150E+00  0.46834661150E+00  0.00000000000E+00 0. -1.
         22   -1    0    0    0    0 -0.00000000000E+00 -0.00000000000E+00 -0.58204867689E+02  0.58204867689E+02  0.00000000000E+00 0.  1.
          4    1    1    2  501    0 -0.46961426802E+01 -0.15481622438E+01 -0.35014638351E+02  0.35384860622E+02  0.12700000000E+01 0.  1.
         -4    1    1    2    0  501  0.46961426802E+01  0.15481622438E+01 -0.22721882727E+02  0.23288353679E+02  0.12700000000E+01 0. -1.
<mgrwt>
<rscale>  0 0.51052387E+01</rscale>
<asrwt>0</asrwt>
<pdfrwt beam="1">0</pdfrwt>
<pdfrwt beam="2">0</pdfrwt>
<totfact> 0.40535337E+11</totfact>
</mgrwt>
</event>
<event>
 4    1  0.3102735E+006  0.2107012E+01  0.7546771E-02  0.2912057E+00
         22   -1    0    0    0    0  0.00000000000E+00  0.00000000000E+00  0.68059132916E+01  0.68059132916E+01  0.00000000000E+00 0.  1.
         22   -1    0    0    0    0 -0.00000000000E+00 -0.00000000000E+00 -0.10774552746E+01  0.10774552746E+01  0.00000000000E+00 0. -1.
          4    1    1    2  501    0  0.15562060434E+01 -0.63625734433E+00  0.38819993903E+00  0.21424751691E+01  0.12700000000E+01 0. -1.
         -4    1    1    2    0  501 -0.15562060434E+01  0.63625734433E+00  0.53402580779E+01  0.57408933971E+01  0.12700000000E+01 0.  1.
<mgrwt>
<rscale>  0 0.21070123E+01</rscale>
<asrwt>0</asrwt>
<pdfrwt beam="1">0</pdfrwt>
<pdfrwt beam="2">0</pdfrwt>
<totfact> 0.23145691E+12</totfact>
</mgrwt>
</event>
<event>
 4    1  0.3102735E+006  0.2315743E+01  0.7546771E-02  0.2795794E+00
         22   -1    0    0    0    0  0.00000000000E+00  0.00000000000E+00  0.38419610223E+01  0.38419610223E+01  0.00000000000E+00 0. -1.
         22   -1    0    0    0    0 -0.00000000000E+00 -0.00000000000E+00 -0.16725872949E+01  0.16725872949E+01  0.00000000000E+00 0.  1.
          4    1    1    2  501    0  0.13988569170E+01  0.13390158784E+01  0.22063111329E+01  0.31985110617E+01  0.12700000000E+01 0. -1.
         -4    1    1    2    0  501 -0.13988569170E+01 -0.13390158784E+01 -0.36937405423E-01  0.23160372555E+01  0.12700000000E+01 0.  1.
<mgrwt>
<rscale>  0 0.23157427E+01</rscale>
<asrwt>0</asrwt>
<pdfrwt beam="1">0</pdfrwt>
<pdfrwt beam="2">0</pdfrwt>
<totfact> 0.27507619E+12</totfact>
</mgrwt>
</event>
<event>
 4    1  0.3102735E+006  0.2024082E+01  0.7546771E-02  0.2964657E+00
         22   -1    0    0    0    0  0.00000000000E+00  0.00000000000E+00  0.30616066715E+01  0.30616066715E+01  0.00000000000E+00 0. -1.
         22   -1    0    0    0    0 -0.00000000000E+00 -0.00000000000E+00 -0.10975370987E+02  0.10975370987E+02  0.00000000000E+00 0.  1.
          4    1    1    2  501    0  0.15445736410E+01  0.31352908722E+00 -0.10533608567E+02  0.10726314263E+02  0.12700000000E+01 0.  1.
         -4    1    1    2    0  501 -0.15445736410E+01 -0.31352908722E+00  0.26198442512E+01  0.33106633960E+01  0.12700000000E+01 0. -1.
<mgrwt>
<rscale>  0 0.20240821E+01</rscale>
<asrwt>0</asrwt>
<pdfrwt beam="1">0</pdfrwt>
<pdfrwt beam="2">0</pdfrwt>
<totfact> 0.38938080E+11</totfact>
</mgrwt>
</event>
<event>
 4    1  0.3102735E+006  0.2125148E+01  0.7546771E-02  0.2901086E+00
         22   -1    0    0    0    0  0.00000000000E+00  0.00000000000E+00  0.54048795486E+01  0.54048795486E+01  0.00000000000E+00 0. -1.
         22   -1    0    0    0    0 -0.00000000000E+00 -0.00000000000E+00 -0.16063121932E+01  0.16063121932E+01  0.00000000000E+00 0. -1.
          4    1    1    2  501    0  0.13898525987E+01  0.98572960461E+00 -0.52898274658E+00  0.21899944853E+01  0.12700000000E+01 0. -1.
         -4    1    1    2    0  501 -0.13898525987E+01 -0.98572960461E+00  0.43275501020E+01  0.48211972564E+01  0.12700000000E+01 0. -1.
<mgrwt>
<rscale>  0 0.21251478E+01</rscale>
<asrwt>0</asrwt>
<pdfrwt beam="1">0</pdfrwt>
<pdfrwt beam="2">0</pdfrwt>
<totfact> 0.19258272E+12</totfact>
</mgrwt>
</event>
<event>
 4    1  0.3102735E+006  0.3443111E+01  0.7546771E-02  0.2398332E+00
         22   -1    0    0    0    0  0.00000000000E+00  0.00000000000E+00  0.68537545734E+01  0.68537545734E+01  0.00000000000E+00 0. -1.
         22   -1    0    0    0    0 -0.00000000000E+00 -0.00000000000E+00 -0.16721353192E+02  0.16721353192E+02  0.00000000000E+00 0.  1.
          4    1    1    2  501    0 -0.23275462402E+01 -0.21965068722E+01 -0.16095042900E+02  0.16459204716E+02  0.12700000000E+01 0.  1.
         -4    1    1    2    0  501  0.23275462402E+01  0.21965068722E+01  0.62274442809E+01  0.71159030496E+01  0.12700000000E+01 0. -1.
<mgrwt>
<rscale>  0 0.34431111E+01</rscale>
<asrwt>0</asrwt>
<pdfrwt beam="1">0</pdfrwt>
<pdfrwt beam="2">0</pdfrwt>
<totfact> 0.89718501E+10</totfact>
</mgrwt>
</event>
<event>
 4    1  0.3102735E+006  0.2321870E+01  0.7546771E-02  0.2792682E+00
         22   -1    0    0    0    0  0.00000000000E+00  0.00000000000E+00  0.75083791410E+01  0.75083791410E+01  0.00000000000E+00 0. -1.
         22   -1    0    0    0    0 -0.00000000000E+00 -0.00000000000E+00 -0.29959716257E+01  0.29959716257E+01  0.00000000000E+00 0.  1.
          4    1    1    2  501    0 -0.52624648045E+00 -0.18711617019E+01 -0.23235665660E+01  0.32848200955E+01  0.12700000000E+01 0.  1.
         -4    1    1    2    0  501  0.52624648045E+00  0.18711617019E+01  0.68359740813E+01  0.72195306713E+01  0.12700000000E+01 0. -1.
<mgrwt>
<rscale>  0 0.23218703E+01</rscale>
<asrwt>0</asrwt>
<pdfrwt beam="1">0</pdfrwt>
<pdfrwt beam="2">0</pdfrwt>
<totfact> 0.63150004E+11</totfact>
</mgrwt>
</event>
<event>
 4    1  0.3102735E+006  0.3712043E+01  0.7546771E-02  0.2335967E+00
         22   -1    0    0    0    0  0.00000000000E+00  0.00000000000E+00  0.12977138331E+02  0.12977138331E+02  0.00000000000E+00 0. -1.
         22   -1    0    0    0    0 -0.00000000000E+00 -0.00000000000E+00 -0.23558746266E+01  0.23558746266E+01  0.00000000000E+00 0.  1.
          4    1    1    2  501    0 -0.32734119539E+01  0.12046326907E+01 -0.37134247303E+00  0.37305711321E+01  0.12700000000E+01 0.  1.
         -4    1    1    2    0  501  0.32734119539E+01 -0.12046326907E+01  0.10992606177E+02  0.11602441825E+02  0.12700000000E+01 0. -1.
<mgrwt>
<rscale>  0 0.37120433E+01</rscale>
<asrwt>0</asrwt>
<pdfrwt beam="1">0</pdfrwt>
<pdfrwt beam="2">0</pdfrwt>
<totfact> 0.43084500E+11</totfact>
</mgrwt>
</event>
<event>
 4    1  0.3102735E+006  0.4548784E+01  0.7546771E-02  0.2183250E+00
         22   -1    0    0    0    0  0.00000000000E+00  0.00000000000E+00  0.11695681168E+02  0.11695681168E+02  0.00000000000E+00 0.  1.
         22   -1    0    0    0    0 -0.00000000000E+00 -0.00000000000E+00 -0.22150866839E+01  0.22150866839E+01  0.00000000000E+00 0. -1.
          4    1    1    2  501    0  0.31572243926E+00  0.43564725599E+01  0.16195288913E+01  0.48284891688E+01  0.12700000000E+01 0. -1.
         -4    1    1    2    0  501 -0.31572243926E+00 -0.43564725599E+01  0.78610655928E+01  0.90822786832E+01  0.12700000000E+01 0.  1.
<mgrwt>
<rscale>  0 0.45487838E+01</rscale>
<asrwt>0</asrwt>
<pdfrwt beam="1">0</pdfrwt>
<pdfrwt beam="2">0</pdfrwt>
<totfact> 0.52541382E+11</totfact>
</mgrwt>
</event>
<event>
 4    1  0.3102735E+006  0.2609545E+01  0.7546771E-02  0.2662120E+00
         22   -1    0    0    0    0  0.00000000000E+00  0.00000000000E+00  0.18710570609E+03  0.18710570609E+03  0.00000000000E+00 0.  1.
         22   -1    0    0    0    0 -0.00000000000E+00 -0.00000000000E+00 -0.36543959509E-01  0.36543959509E-01  0.00000000000E+00 0.  1.
          4    1    1    2  501    0 -0.88320681096E+00 -0.21016109909E+01  0.99507458169E+02  0.99541669437E+02  0.12700000000E+01 0.  1.
         -4    1    1    2    0  501  0.88320681096E+00  0.21016109909E+01  0.87561703958E+02  0.87600580609E+02  0.12700000000E+01 0.  1.
<mgrwt>
<rscale>  0 0.26095446E+01</rscale>
<asrwt>0</asrwt>
<pdfrwt beam="1">0</pdfrwt>
<pdfrwt beam="2">0</pdfrwt>
<totfact> 0.13096130E+12</totfact>
</mgrwt>
</event>
<event>
 4    1  0.3102735E+006  0.4135633E+01  0.7546771E-02  0.2252094E+00
         22   -1    0    0    0    0  0.00000000000E+00  0.00000000000E+00  0.10864787394E+01  0.10864787394E+01  0.00000000000E+00 0.  1.
         22   -1    0    0    0    0 -0.00000000000E+00 -0.00000000000E+00 -0.16057443984E+02  0.16057443984E+02  0.00000000000E+00 0. -1.
          4    1    1    2  501    0 -0.30770185890E+01 -0.24540817789E+01 -0.62842368932E+01  0.75229710955E+01  0.12700000000E+01 0.  1.
         -4    1    1    2    0  501  0.30770185890E+01  0.24540817789E+01 -0.86867283512E+01  0.96209516277E+01  0.12700000000E+01 0. -1.
<mgrwt>
<rscale>  0 0.41356331E+01</rscale>
<asrwt>0</asrwt>
<pdfrwt beam="1">0</pdfrwt>
<pdfrwt beam="2">0</pdfrwt>
<totfact> 0.80908379E+11</totfact>
</mgrwt>
</event>
<event>
 4    1  0.3102735E+006  0.2179172E+01  0.7546771E-02  0.2869450E+00
         22   -1    0    0    0    0  0.00000000000E+00  0.00000000000E+00  0.15833536360E+01  0.15833536360E+01  0.00000000000E+00 0.  1.
         22   -1    0    0    0    0 -0.00000000000E+00 -0.00000000000E+00 -0.43202921827E+01  0.43202921827E+01  0.00000000000E+00 0. -1.
          4    1    1    2  501    0  0.15567001520E+01  0.84414095473E+00 -0.30007723924E+01  0.37085609427E+01  0.12700000000E+01 0.  1.
         -4    1    1    2    0  501 -0.15567001520E+01 -0.84414095473E+00  0.26383384583E+00  0.21950848760E+01  0.12700000000E+01 0.  1.
<mgrwt>
<rscale>  0 0.21791717E+01</rscale>
<asrwt>0</asrwt>
<pdfrwt beam="1">0</pdfrwt>
<pdfrwt beam="2">0</pdfrwt>
<totfact> 0.25520432E+12</totfact>
</mgrwt>
</event>
