<event>
 4    2  0.1993797E+006  0.2115427E+01  0.7546771E-02  0.2906944E+00
         22   -1    0    0    0    0  0.00000000000E+00  0.00000000000E+00  0.28989841358E+01  0.28989841358E+01  0.00000000000E+00 0.  1.
         22   -1    0    0    0    0 -0.00000000000E+00 -0.00000000000E+00 -0.16514707442E+01  0.16514707442E+01  0.00000000000E+00 0. -1.
          4    1    1    2  501    0  0.20982289381E+01  0.26919363959E+00  0.12050984062E+01  0.24346030602E+01  0.00000000000E+00 0.  1.
         -4    1    1    2    0  501 -0.20982289381E+01 -0.26919363959E+00  0.42414985384E-01  0.21158518197E+01  0.00000000000E+00 0. -1.
<mgrwt>
<rscale>  0 0.21154266E+01</rscale>
<asrwt>0</asrwt>
<pdfrwt beam="1">0</pdfrwt>
<pdfrwt beam="2">0</pdfrwt>
<totfact> 0.38820094E+12</totfact>
</mgrwt>
</event>
<event>
 4    2  0.1993797E+006  0.2891174E+01  0.7546771E-02  0.2557730E+00
         22   -1    0    0    0    0  0.00000000000E+00  0.00000000000E+00  0.65450385677E+01  0.65450385677E+01  0.00000000000E+00 0.  1.
         22   -1    0    0    0    0 -0.00000000000E+00 -0.00000000000E+00 -0.13757210390E+01  0.13757210390E+01  0.00000000000E+00 0. -1.
          4    1    1    2  501    0 -0.28903515330E+01 -0.68951569972E-01  0.36448476227E+01  0.46522898121E+01  0.00000000000E+00 0.  1.
         -4    1    1    2    0  501  0.28903515330E+01  0.68951569972E-01  0.15244699060E+01  0.32684697945E+01  0.00000000000E+00 0. -1.
<mgrwt>
<rscale>  0 0.28911739E+01</rscale>
<asrwt>0</asrwt>
<pdfrwt beam="1">0</pdfrwt>
<pdfrwt beam="2">0</pdfrwt>
<totfact> 0.18329300E+12</totfact>
</mgrwt>
</event>
<event>
 4    2  0.1993797E+006  0.2030537E+01  0.7546771E-02  0.2960412E+00
         22   -1    0    0    0    0  0.00000000000E+00  0.00000000000E+00  0.14866976887E+01  0.14866976887E+01  0.00000000000E+00 0. -1.
         22   -1    0    0    0    0 -0.00000000000E+00 -0.00000000000E+00 -0.82805546170E+01  0.82805546170E+01  0.00000000000E+00 0.  1.
          4    1    1    2  501    0  0.11082761150E+00 -0.20275103206E+01  0.58579073764E+00  0.21133460786E+01  0.00000000000E+00 0. -1.
         -4    1    1    2    0  501 -0.11082761150E+00  0.20275103206E+01 -0.73796476659E+01  0.76539062271E+01  0.00000000000E+00 0.  1.
<mgrwt>
<rscale>  0 0.20305371E+01</rscale>
<asrwt>0</asrwt>
<pdfrwt beam="1">0</pdfrwt>
<pdfrwt beam="2">0</pdfrwt>
<totfact> 0.12646805E+12</totfact>
</mgrwt>
</event>
<event>
 4    2  0.1993797E+006  0.2352159E+01  0.7546771E-02  0.2777528E+00
         22   -1    0    0    0    0  0.00000000000E+00  0.00000000000E+00  0.17454751363E+02  0.17454751363E+02  0.00000000000E+00 0.  1.
         22   -1    0    0    0    0 -0.00000000000E+00 -0.00000000000E+00 -0.10802410924E+01  0.10802410924E+01  0.00000000000E+00 0. -1.
          4    1    1    2  501    0  0.19133931918E+01  0.13680568572E+01  0.15977321251E+02  0.16149533970E+02  0.00000000000E+00 0.  1.
         -4    1    1    2    0  501 -0.19133931918E+01 -0.13680568572E+01  0.39718901944E+00  0.23854584859E+01  0.00000000000E+00 0. -1.
<mgrwt>
<rscale>  0 0.23521592E+01</rscale>
<asrwt>0</asrwt>
<pdfrwt beam="1">0</pdfrwt>
<pdfrwt beam="2">0</pdfrwt>
<totfact> 0.73454928E+11</totfact>
</mgrwt>
</event>
<event>
 4    2  0.1993797E+006  0.3652323E+01  0.7546771E-02  0.2349126E+00
         22   -1    0    0    0    0  0.00000000000E+00  0.00000000000E+00  0.19451976177E+01  0.19451976177E+01  0.00000000000E+00 0. -1.
         22   -1    0    0    0    0 -0.00000000000E+00 -0.00000000000E+00 -0.26199481051E+02  0.26199481051E+02  0.00000000000E+00 0.  1.
          4    1    1    2  501    0 -0.10649722074E+01  0.34936075931E+01 -0.35956071203E-01  0.36524995080E+01  0.00000000000E+00 0. -1.
         -4    1    1    2    0  501  0.10649722074E+01 -0.34936075931E+01 -0.24218327362E+02  0.24492179160E+02  0.00000000000E+00 0.  1.
<mgrwt>
<rscale>  0 0.36523225E+01</rscale>
<asrwt>0</asrwt>
<pdfrwt beam="1">0</pdfrwt>
<pdfrwt beam="2">0</pdfrwt>
<totfact> 0.22469012E+11</totfact>
</mgrwt>
</event>
<event>
 4    2  0.1993797E+006  0.2793712E+01  0.7546771E-02  0.2591683E+00
         22   -1    0    0    0    0  0.00000000000E+00  0.00000000000E+00  0.53666230212E-01  0.53666230212E-01  0.00000000000E+00 0.  1.
         22   -1    0    0    0    0 -0.00000000000E+00 -0.00000000000E+00 -0.15164698639E+03  0.15164698639E+03  0.00000000000E+00 0. -1.
          4    1    1    2  501    0  0.27605971900E+01 -0.42886892512E+00 -0.91151163502E+02  0.91193965991E+02  0.00000000000E+00 0. -1.
         -4    1    1    2    0  501 -0.27605971900E+01  0.42886892512E+00 -0.60442156659E+02  0.60506686630E+02  0.00000000000E+00 0.  1.
<mgrwt>
<rscale>  0 0.27937118E+01</rscale>
<asrwt>0</asrwt>
<pdfrwt beam="1">0</pdfrwt>
<pdfrwt beam="2">0</pdfrwt>
<totfact> 0.11800401E+12</totfact>
</mgrwt>
</event>
<event>
 4    2  0.1993797E+006  0.2044229E+01  0.7546771E-02  0.2951495E+00
         22   -1    0    0    0    0  0.00000000000E+00  0.00000000000E+00  0.12788031073E+01  0.12788031073E+01  0.00000000000E+00 0. -1.
         22   -1    0    0    0    0 -0.00000000000E+00 -0.00000000000E+00 -0.44438849428E+01  0.44438849428E+01  0.00000000000E+00 0.  1.
          4    1    1    2  501    0 -0.20123501237E+01 -0.35961221375E+00 -0.30545410529E+01  0.36754720797E+01  0.00000000000E+00 0.  1.
         -4    1    1    2    0  501  0.20123501237E+01  0.35961221375E+00 -0.11054078266E+00  0.20472159704E+01  0.00000000000E+00 0. -1.
<mgrwt>
<rscale>  0 0.20442294E+01</rscale>
<asrwt>0</asrwt>
<pdfrwt beam="1">0</pdfrwt>
<pdfrwt beam="2">0</pdfrwt>
<totfact> 0.31554554E+12</totfact>
</mgrwt>
</event>
<event>
 4    2  0.1993797E+006  0.2785172E+01  0.7546771E-02  0.2594761E+00
         22   -1    0    0    0    0  0.00000000000E+00  0.00000000000E+00  0.73487250304E+00  0.73487250304E+00  0.00000000000E+00 0.  1.
         22   -1    0    0    0    0 -0.00000000000E+00 -0.00000000000E+00 -0.12565266180E+02  0.12565266180E+02  0.00000000000E+00 0. -1.
          4    1    1    2  501    0  0.10354051965E+01  0.25855600776E+01 -0.32558310353E+01  0.42845793919E+01  0.00000000000E+00 0.  1.
         -4    1    1    2    0  501 -0.10354051965E+01 -0.25855600776E+01 -0.85745626420E+01  0.90155592915E+01  0.00000000000E+00 0. -1.
<mgrwt>
<rscale>  0 0.27851723E+01</rscale>
<asrwt>0</asrwt>
<pdfrwt beam="1">0</pdfrwt>
<pdfrwt beam="2">0</pdfrwt>
<totfact> 0.17072465E+12</totfact>
</mgrwt>
</event>
<event>
 4    2  0.1993797E+006  0.2341641E+01  0.7546771E-02  0.2782749E+00
         22   -1    0    0    0    0  0.00000000000E+00  0.00000000000E+00  0.11737344867E+01  0.11737344867E+01  0.00000000000E+00 0.  1.
         22   -1    0    0    0    0 -0.00000000000E+00 -0.00000000000E+00 -0.47630364977E+01  0.47630364977E+01  0.00000000000E+00 0. -1.
          4    1    1    2  501    0 -0.12258314256E+01  0.19951486637E+01 -0.13834909257E+01  0.27198029369E+01  0.00000000000E+00 0. -1.
         -4    1    1    2    0  501  0.12258314256E+01 -0.19951486637E+01 -0.22058110854E+01  0.32169680475E+01  0.00000000000E+00 0.  1.
<mgrwt>
<rscale>  0 0.23416406E+01</rscale>
<asrwt>0</asrwt>
<pdfrwt beam="1">0</pdfrwt>
<pdfrwt beam="2">0</pdfrwt>
<totfact> 0.32076431E+12</totfact>
</mgrwt>
</event>
<event>
 4    2  0.1993797E+006  0.2319888E+01  0.7546771E-02  0.2793687E+00
         22   -1    0    0    0    0  0.00000000000E+00  0.00000000000E+00  0.74432846936E+01  0.74432846936E+01  0.00000000000E+00 0. -1.
         22   -1    0    0    0    0 -0.00000000000E+00 -0.00000000000E+00 -0.17002983476E+01  0.17002983476E+01  0.00000000000E+00 0.  1.
          4    1    1    2  501    0 -0.22203572667E+01 -0.67223060318E+00  0.63374721522E+01  0.67487357080E+01  0.00000000000E+00 0. -1.
         -4    1    1    2    0  501  0.22203572667E+01  0.67223060318E+00 -0.59448580622E+00  0.23948473332E+01  0.00000000000E+00 0.  1.
<mgrwt>
<rscale>  0 0.23198880E+01</rscale>
<asrwt>0</asrwt>
<pdfrwt beam="1">0</pdfrwt>
<pdfrwt beam="2">0</pdfrwt>
<totfact> 0.12314974E+12</totfact>
</mgrwt>
</event>
<event>
 4    2  0.1993797E+006  0.4722887E+01  0.7546771E-02  0.2157609E+00
         22   -1    0    0    0    0  0.00000000000E+00  0.00000000000E+00  0.28912508915E+01  0.28912508915E+01  0.00000000000E+00 0.  1.
         22   -1    0    0    0    0 -0.00000000000E+00 -0.00000000000E+00 -0.88528174693E+01  0.88528174693E+01  0.00000000000E+00 0. -1.
          4    1    1    2  501    0 -0.29010952538E+01  0.37268359749E+01 -0.50860474529E+01  0.69407160113E+01  0.00000000000E+00 0. -1.
         -4    1    1    2    0  501  0.29010952538E+01 -0.37268359749E+01 -0.87551912488E+00  0.48033523495E+01  0.00000000000E+00 0.  1.
<mgrwt>
<rscale>  0 0.47228868E+01</rscale>
<asrwt>0</asrwt>
<pdfrwt beam="1">0</pdfrwt>
<pdfrwt beam="2">0</pdfrwt>
<totfact> 0.54005489E+11</totfact>
</mgrwt>
</event>
<event>
 4    2  0.1993797E+006  0.2955215E+01  0.7546771E-02  0.2536525E+00
         22   -1    0    0    0    0  0.00000000000E+00  0.00000000000E+00  0.13144058915E+01  0.13144058915E+01  0.00000000000E+00 0. -1.
         22   -1    0    0    0    0 -0.00000000000E+00 -0.00000000000E+00 -0.81791028815E+01  0.81791028815E+01  0.00000000000E+00 0.  1.
          4    1    1    2  501    0  0.27790909546E+01 -0.10049626759E+01 -0.13761200459E+01  0.32599084181E+01  0.00000000000E+00 0. -1.
         -4    1    1    2    0  501 -0.27790909546E+01  0.10049626759E+01 -0.54885769441E+01  0.62336003549E+01  0.00000000000E+00 0.  1.
<mgrwt>
<rscale>  0 0.29552151E+01</rscale>
<asrwt>0</asrwt>
<pdfrwt beam="1">0</pdfrwt>
<pdfrwt beam="2">0</pdfrwt>
<totfact> 0.14788823E+12</totfact>
</mgrwt>
</event>
<event>
 4    2  0.1993797E+006  0.2174103E+01  0.7546771E-02  0.2872354E+00
         22   -1    0    0    0    0  0.00000000000E+00  0.00000000000E+00  0.13034543495E+01  0.13034543495E+01  0.00000000000E+00 0. -1.
         22   -1    0    0    0    0 -0.00000000000E+00 -0.00000000000E+00 -0.49860825312E+01  0.49860825312E+01  0.00000000000E+00 0.  1.
          4    1    1    2  501    0  0.41222871658E+00 -0.21346640680E+01 -0.19905055472E+00  0.21831958962E+01  0.00000000000E+00 0. -1.
         -4    1    1    2    0  501 -0.41222871658E+00  0.21346640680E+01 -0.34835776270E+01  0.41063409845E+01  0.00000000000E+00 0.  1.
<mgrwt>
<rscale>  0 0.21741028E+01</rscale>
<asrwt>0</asrwt>
<pdfrwt beam="1">0</pdfrwt>
<pdfrwt beam="2">0</pdfrwt>
<totfact> 0.26944377E+12</totfact>
</mgrwt>
</event>
<event>
 4    2  0.1993797E+006  0.2141618E+01  0.7546771E-02  0.2891278E+00
         22   -1    0    0    0    0  0.00000000000E+00  0.00000000000E+00  0.20194641067E+02  0.20194641067E+02  0.00000000000E+00 0. -1.
         22   -1    0    0    0    0 -0.00000000000E+00 -0.00000000000E+00 -0.12709649809E+01  0.12709649809E+01  0.00000000000E+00 0.  1.
          4    1    1    2  501    0 -0.11304082531E+00 -0.21386327832E+01  0.19188530372E+02  0.19307672730E+02  0.00000000000E+00 0. -1.
         -4    1    1    2    0  501  0.11304082531E+00  0.21386327832E+01 -0.26485428635E+00  0.21579333175E+01  0.00000000000E+00 0.  1.
<mgrwt>
<rscale>  0 0.21416182E+01</rscale>
<asrwt>0</asrwt>
<pdfrwt beam="1">0</pdfrwt>
<pdfrwt beam="2">0</pdfrwt>
<totfact> 0.50863933E+11</totfact>
</mgrwt>
</event>
<event>
 4    2  0.1993797E+006  0.2506107E+01  0.7546771E-02  0.2705844E+00
         22   -1    0    0    0    0  0.00000000000E+00  0.00000000000E+00  0.26054287376E+00  0.26054287376E+00  0.00000000000E+00 0. -1.
         22   -1    0    0    0    0 -0.00000000000E+00 -0.00000000000E+00 -0.25170268855E+02  0.25170268855E+02  0.00000000000E+00 0.  1.
          4    1    1    2  501    0  0.10081750312E+00  0.25040781526E+01 -0.15069856791E+02  0.15276817577E+02  0.00000000000E+00 0.  1.
         -4    1    1    2    0  501 -0.10081750312E+00 -0.25040781526E+01 -0.98398691895E+01  0.10153994152E+02  0.00000000000E+00 0. -1.
<mgrwt>
<rscale>  0 0.25061069E+01</rscale>
<asrwt>0</asrwt>
<pdfrwt beam="1">0</pdfrwt>
<pdfrwt beam="2">0</pdfrwt>
<totfact> 0.23206876E+12</totfact>
</mgrwt>
</event>
<event>
 4    2  0.1993797E+006  0.2505733E+01  0.7546771E-02  0.2706008E+00
         22   -1    0    0    0    0  0.00000000000E+00  0.00000000000E+00  0.39257154317E+01  0.39257154317E+01  0.00000000000E+00 0. -1.
         22   -1    0    0    0    0 -0.00000000000E+00 -0.00000000000E+00 -0.28076296918E+01  0.28076296918E+01  0.00000000000E+00 0.  1.
          4    1    1    2  501    0  0.86351610629E+00 -0.23522409317E+01  0.27676065237E+01  0.37334090770E+01  0.00000000000E+00 0. -1.
         -4    1    1    2    0  501 -0.86351610629E+00  0.23522409317E+01 -0.16495207838E+01  0.29999360464E+01  0.00000000000E+00 0.  1.
<mgrwt>
<rscale>  0 0.25057329E+01</rscale>
<asrwt>0</asrwt>
<pdfrwt beam="1">0</pdfrwt>
<pdfrwt beam="2">0</pdfrwt>
<totfact> 0.14709745E+12</totfact>
</mgrwt>
</event>
<event>
 4    2  0.1993797E+006  0.2725515E+01  0.7546771E-02  0.2616750E+00
         22   -1    0    0    0    0  0.00000000000E+00  0.00000000000E+00  0.60834535709E+02  0.60834535709E+02  0.00000000000E+00 0.  1.
         22   -1    0    0    0    0 -0.00000000000E+00 -0.00000000000E+00 -0.16760362371E+00  0.16760362371E+00  0.00000000000E+00 0. -1.
          4    1    1    2  501    0  0.18218242997E+01  0.20271627858E+01  0.14442353057E+02  0.14697278475E+02  0.00000000000E+00 0. -1.
         -4    1    1    2    0  501 -0.18218242997E+01 -0.20271627858E+01  0.46224579028E+02  0.46304860858E+02  0.00000000000E+00 0.  1.
<mgrwt>
<rscale>  0 0.27255151E+01</rscale>
<asrwt>0</asrwt>
<pdfrwt beam="1">0</pdfrwt>
<pdfrwt beam="2">0</pdfrwt>
<totfact> 0.12082909E+12</totfact>
</mgrwt>
</event>
<event>
 4    2  0.1993797E+006  0.3343274E+01  0.7546771E-02  0.2423699E+00
         22   -1    0    0    0    0  0.00000000000E+00  0.00000000000E+00  0.26251399038E+01  0.26251399038E+01  0.00000000000E+00 0. -1.
         22   -1    0    0    0    0 -0.00000000000E+00 -0.00000000000E+00 -0.10314989300E+02  0.10314989300E+02  0.00000000000E+00 0.  1.
          4    1    1    2  501    0 -0.32663505431E+01 -0.71304456483E+00  0.11130881199E+01  0.35236974309E+01  0.00000000000E+00 0. -1.
         -4    1    1    2    0  501  0.32663505431E+01  0.71304456483E+00 -0.88029375166E+01  0.94164317734E+01  0.00000000000E+00 0.  1.
<mgrwt>
<rscale>  0 0.33432736E+01</rscale>
<asrwt>0</asrwt>
<pdfrwt beam="1">0</pdfrwt>
<pdfrwt beam="2">0</pdfrwt>
<totfact> 0.50241947E+11</totfact>
</mgrwt>
</event>
<event>
 4    2  0.1993797E+006  0.3556854E+01  0.7546771E-02  0.2370956E+00
         22   -1    0    0    0    0  0.00000000000E+00  0.00000000000E+00  0.88583970448E+01  0.88583970448E+01  0.00000000000E+00 0.  1.
         22   -1    0    0    0    0 -0.00000000000E+00 -0.00000000000E+00 -0.29816002992E+01  0.29816002992E+01  0.00000000000E+00 0. -1.
          4    1    1    2  501    0 -0.21685527077E+01 -0.28193246020E+01 -0.13347121159E+01  0.37990352052E+01  0.00000000000E+00 0. -1.
         -4    1    1    2    0  501  0.21685527077E+01  0.28193246020E+01  0.72115088615E+01  0.80409621388E+01  0.00000000000E+00 0.  1.
<mgrwt>
<rscale>  0 0.35568542E+01</rscale>
<asrwt>0</asrwt>
<pdfrwt beam="1">0</pdfrwt>
<pdfrwt beam="2">0</pdfrwt>
<totfact> 0.52059964E+11</totfact>
</mgrwt>
</event>
<event>
 4    2  0.1993797E+006  0.2182795E+01  0.7546771E-02  0.2867382E+00
         22   -1    0    0    0    0  0.00000000000E+00  0.00000000000E+00  0.64457062515E+00  0.64457062515E+00  0.00000000000E+00 0. -1.
         22   -1    0    0    0    0 -0.00000000000E+00 -0.00000000000E+00 -0.82192866735E+01  0.82192866735E+01  0.00000000000E+00 0.  1.
          4    1    1    2  501    0 -0.16538215219E+01 -0.14245937350E+01 -0.51935139649E+01  0.56335761502E+01  0.00000000000E+00 0.  1.
         -4    1    1    2    0  501  0.16538215219E+01  0.14245937350E+01 -0.23812020834E+01  0.32302811485E+01  0.00000000000E+00 0. -1.
<mgrwt>
<rscale>  0 0.21827948E+01</rscale>
<asrwt>0</asrwt>
<pdfrwt beam="1">0</pdfrwt>
<pdfrwt beam="2">0</pdfrwt>
<totfact> 0.33133049E+12</totfact>
</mgrwt>
</event>
<event>
 4    2  0.1993797E+006  0.2429585E+01  0.7546771E-02  0.2740412E+00
         22   -1    0    0    0    0  0.00000000000E+00  0.00000000000E+00  0.96076532816E+00  0.96076532816E+00  0.00000000000E+00 0.  1.
         22   -1    0    0    0    0 -0.00000000000E+00 -0.00000000000E+00 -0.62123669678E+01  0.62123669678E+01  0.00000000000E+00 0. -1.
          4    1    1    2  501    0  0.65785197416E+00 -0.23388276676E+01 -0.22493871088E+01  0.33109857209E+01  0.00000000000E+00 0.  1.
         -4    1    1    2    0  501 -0.65785197416E+00  0.23388276676E+01 -0.30022145309E+01  0.38621465751E+01  0.00000000000E+00 0. -1.
<mgrwt>
<rscale>  0 0.24295852E+01</rscale>
<asrwt>0</asrwt>
<pdfrwt beam="1">0</pdfrwt>
<pdfrwt beam="2">0</pdfrwt>
<totfact> 0.29420673E+12</totfact>
</mgrwt>
</event>
<event>
 4    2  0.1993797E+006  0.4009690E+01  0.7546771E-02  0.2275446E+00
         22   -1    0    0    0    0  0.00000000000E+00  0.00000000000E+00  0.20793939026E+00  0.20793939026E+00  0.00000000000E+00 0. -1.
         22   -1    0    0    0    0 -0.00000000000E+00 -0.00000000000E+00 -0.12261650182E+03  0.12261650182E+03  0.00000000000E+00 0.  1.
          4    1    1    2  501    0  0.30155271720E+01 -0.26427655487E+01 -0.23877661581E+02  0.24211987454E+02  0.00000000000E+00 0. -1.
         -4    1    1    2    0  501 -0.30155271720E+01  0.26427655487E+01 -0.98530900852E+02  0.98612453760E+02  0.00000000000E+00 0.  1.
<mgrwt>
<rscale>  0 0.40096900E+01</rscale>
<asrwt>0</asrwt>
<pdfrwt beam="1">0</pdfrwt>
<pdfrwt beam="2">0</pdfrwt>
<totfact> 0.35930255E+11</totfact>
</mgrwt>
</event>
<event>
 4    2  0.1993797E+006  0.3734694E+01  0.7546771E-02  0.2331071E+00
         22   -1    0    0    0    0  0.00000000000E+00  0.00000000000E+00  0.37755425440E+01  0.37755425440E+01  0.00000000000E+00 0.  1.
         22   -1    0    0    0    0 -0.00000000000E+00 -0.00000000000E+00 -0.37202029038E+01  0.37202029038E+01  0.00000000000E+00 0. -1.
          4    1    1    2  501    0 -0.35359909884E+01 -0.12019604210E+01  0.34047734100E+00  0.37501821214E+01  0.00000000000E+00 0. -1.
         -4    1    1    2    0  501  0.35359909884E+01  0.12019604210E+01 -0.28513770084E+00  0.37455633264E+01  0.00000000000E+00 0.  1.
<mgrwt>
<rscale>  0 0.37346942E+01</rscale>
<asrwt>0</asrwt>
<pdfrwt beam="1">0</pdfrwt>
<pdfrwt beam="2">0</pdfrwt>
<totfact> 0.11078514E+12</totfact>
</mgrwt>
</event>
<event>
 4    2  0.1993797E+006  0.2098938E+01  0.7546771E-02  0.2917000E+00
         22   -1    0    0    0    0  0.00000000000E+00  0.00000000000E+00  0.41438684710E+02  0.41438684710E+02  0.00000000000E+00 0.  1.
         22   -1    0    0    0    0 -0.00000000000E+00 -0.00000000000E+00 -0.63032183112E+00  0.63032183112E+00  0.00000000000E+00 0. -1.
          4    1    1    2  501    0  0.19064511270E+01  0.87805819592E+00  0.39582904016E+02  0.39638514509E+02  0.00000000000E+00 0.  1.
         -4    1    1    2    0  501 -0.19064511270E+01 -0.87805819592E+00  0.12254588623E+01  0.24304920321E+01  0.00000000000E+00 0. -1.
<mgrwt>
<rscale>  0 0.20989383E+01</rscale>
<asrwt>0</asrwt>
<pdfrwt beam="1">0</pdfrwt>
<pdfrwt beam="2">0</pdfrwt>
<totfact> 0.45322953E+11</totfact>
</mgrwt>
</event>
<event>
 4    2  0.1993797E+006  0.2436702E+01  0.7546771E-02  0.2737111E+00
         22   -1    0    0    0    0  0.00000000000E+00  0.00000000000E+00  0.49970611804E+01  0.49970611804E+01  0.00000000000E+00 0. -1.
         22   -1    0    0    0    0 -0.00000000000E+00 -0.00000000000E+00 -0.26080510074E+01  0.26080510074E+01  0.00000000000E+00 0.  1.
          4    1    1    2  501    0  0.10085488555E+01 -0.22181850901E+01  0.40001889689E+01  0.46839115785E+01  0.00000000000E+00 0. -1.
         -4    1    1    2    0  501 -0.10085488555E+01  0.22181850901E+01 -0.16111787959E+01  0.29212006093E+01  0.00000000000E+00 0.  1.
<mgrwt>
<rscale>  0 0.24367018E+01</rscale>
<asrwt>0</asrwt>
<pdfrwt beam="1">0</pdfrwt>
<pdfrwt beam="2">0</pdfrwt>
<totfact> 0.12057575E+12</totfact>
</mgrwt>
</event>
<event>
 4    2  0.1993797E+006  0.2032692E+01  0.7546771E-02  0.2959001E+00
         22   -1    0    0    0    0  0.00000000000E+00  0.00000000000E+00  0.36472718176E+02  0.36472718176E+02  0.00000000000E+00 0. -1.
         22   -1    0    0    0    0 -0.00000000000E+00 -0.00000000000E+00 -0.12751261612E+00  0.12751261612E+00  0.00000000000E+00 0.  1.
          4    1    1    2  501    0 -0.53063005518E+00 -0.19622101888E+01  0.24285298437E+02  0.24370218654E+02  0.00000000000E+00 0. -1.
         -4    1    1    2    0  501  0.53063005518E+00  0.19622101888E+01  0.12059907123E+02  0.12230012138E+02  0.00000000000E+00 0.  1.
<mgrwt>
<rscale>  0 0.20326921E+01</rscale>
<asrwt>0</asrwt>
<pdfrwt beam="1">0</pdfrwt>
<pdfrwt beam="2">0</pdfrwt>
<totfact> 0.32059603E+12</totfact>
</mgrwt>
</event>
<event>
 4    2  0.1993797E+006  0.2001594E+01  0.7546771E-02  0.2979654E+00
         22   -1    0    0    0    0  0.00000000000E+00  0.00000000000E+00  0.52623960940E+01  0.52623960940E+01  0.00000000000E+00 0.  1.
         22   -1    0    0    0    0 -0.00000000000E+00 -0.00000000000E+00 -0.89747435342E+00  0.89747435342E+00  0.00000000000E+00 0. -1.
          4    1    1    2  501    0 -0.62816944887E+00  0.19004685551E+01  0.33820795968E+01  0.39299923645E+01  0.00000000000E+00 0.  1.
         -4    1    1    2    0  501  0.62816944887E+00 -0.19004685551E+01  0.98284214378E+00  0.22298780830E+01  0.00000000000E+00 0. -1.
<mgrwt>
<rscale>  0 0.20015938E+01</rscale>
<asrwt>0</asrwt>
<pdfrwt beam="1">0</pdfrwt>
<pdfrwt beam="2">0</pdfrwt>
<totfact> 0.38729266E+12</totfact>
</mgrwt>
</event>
<event>
 4    2  0.1993797E+006  0.2764020E+01  0.7546771E-02  0.2602458E+00
         22   -1    0    0    0    0  0.00000000000E+00  0.00000000000E+00  0.50967314089E+01  0.50967314089E+01  0.00000000000E+00 0.  1.
         22   -1    0    0    0    0 -0.00000000000E+00 -0.00000000000E+00 -0.94227650728E+01  0.94227650728E+01  0.00000000000E+00 0. -1.
          4    1    1    2  501    0  0.23011275684E+01 -0.15312149709E+01  0.44942997774E+01  0.52762238260E+01  0.00000000000E+00 0.  1.
         -4    1    1    2    0  501 -0.23011275684E+01  0.15312149709E+01 -0.88203334412E+01  0.92432726557E+01  0.00000000000E+00 0. -1.
<mgrwt>
<rscale>  0 0.27640201E+01</rscale>
<asrwt>0</asrwt>
<pdfrwt beam="1">0</pdfrwt>
<pdfrwt beam="2">0</pdfrwt>
<totfact> 0.25720787E+11</totfact>
</mgrwt>
</event>
<event>
 4    2  0.1993797E+006  0.3963649E+01  0.7546771E-02  0.2284297E+00
         22   -1    0    0    0    0  0.00000000000E+00  0.00000000000E+00  0.13755767838E+01  0.13755767838E+01  0.00000000000E+00 0. -1.
         22   -1    0    0    0    0 -0.00000000000E+00 -0.00000000000E+00 -0.17189869293E+02  0.17189869293E+02  0.00000000000E+00 0.  1.
          4    1    1    2  501    0 -0.23479465076E+01 -0.31933774006E+01 -0.25296130754E+01  0.47020691548E+01  0.00000000000E+00 0. -1.
         -4    1    1    2    0  501  0.23479465076E+01  0.31933774006E+01 -0.13284679434E+02  0.13863376922E+02  0.00000000000E+00 0.  1.
<mgrwt>
<rscale>  0 0.39636488E+01</rscale>
<asrwt>0</asrwt>
<pdfrwt beam="1">0</pdfrwt>
<pdfrwt beam="2">0</pdfrwt>
<totfact> 0.56750516E+11</totfact>
</mgrwt>
</event>
<event>
 4    2  0.1993797E+006  0.2905792E+01  0.7546771E-02  0.2552815E+00
         22   -1    0    0    0    0  0.00000000000E+00  0.00000000000E+00  0.27624847181E+01  0.27624847181E+01  0.00000000000E+00 0. -1.
         22   -1    0    0    0    0 -0.00000000000E+00 -0.00000000000E+00 -0.35342301118E+01  0.35342301118E+01  0.00000000000E+00 0.  1.
          4    1    1    2  501    0 -0.28615448875E+01  0.50516253887E+00  0.77160463049E+00  0.30064933128E+01  0.00000000000E+00 0. -1.
         -4    1    1    2    0  501  0.28615448875E+01 -0.50516253887E+00 -0.15433500243E+01  0.32902215171E+01  0.00000000000E+00 0.  1.
<mgrwt>
<rscale>  0 0.29057922E+01</rscale>
<asrwt>0</asrwt>
<pdfrwt beam="1">0</pdfrwt>
<pdfrwt beam="2">0</pdfrwt>
<totfact> 0.16959387E+12</totfact>
</mgrwt>
</event>
<event>
 4    2  0.1993797E+006  0.2310186E+01  0.7546771E-02  0.2798628E+00
         22   -1    0    0    0    0  0.00000000000E+00  0.00000000000E+00  0.16083865326E+02  0.16083865326E+02  0.00000000000E+00 0.  1.
         22   -1    0    0    0    0 -0.00000000000E+00 -0.00000000000E+00 -0.62857601495E+00  0.62857601495E+00  0.00000000000E+00 0. -1.
          4    1    1    2  501    0  0.69256779925E+00  0.22039308192E+01  0.13469208131E+02  0.13665889246E+02  0.00000000000E+00 0.  1.
         -4    1    1    2    0  501 -0.69256779925E+00 -0.22039308192E+01  0.19860811799E+01  0.30465520946E+01  0.00000000000E+00 0. -1.
<mgrwt>
<rscale>  0 0.23101864E+01</rscale>
<asrwt>0</asrwt>
<pdfrwt beam="1">0</pdfrwt>
<pdfrwt beam="2">0</pdfrwt>
<totfact> 0.15052796E+12</totfact>
</mgrwt>
</event>
<event>
 4    2  0.1993797E+006  0.5904572E+01  0.7546771E-02  0.2028353E+00
         22   -1    0    0    0    0  0.00000000000E+00  0.00000000000E+00  0.50618487132E+02  0.50618487132E+02  0.00000000000E+00 0.  1.
         22   -1    0    0    0    0 -0.00000000000E+00 -0.00000000000E+00 -0.18935885019E+01  0.18935885019E+01  0.00000000000E+00 0. -1.
          4    1    1    2  501    0  0.53083378087E+01 -0.25856377274E+01  0.45305939631E+02  0.45689081175E+02  0.00000000000E+00 0.  1.
         -4    1    1    2    0  501 -0.53083378087E+01  0.25856377274E+01  0.34189589987E+01  0.68229944586E+01  0.00000000000E+00 0. -1.
<mgrwt>
<rscale>  0 0.59045722E+01</rscale>
<asrwt>0</asrwt>
<pdfrwt beam="1">0</pdfrwt>
<pdfrwt beam="2">0</pdfrwt>
<totfact> 0.99071620E+10</totfact>
</mgrwt>
</event>
<event>
 4    2  0.1993797E+006  0.3962551E+01  0.7546771E-02  0.2284511E+00
         22   -1    0    0    0    0  0.00000000000E+00  0.00000000000E+00  0.90538838564E+00  0.90538838564E+00  0.00000000000E+00 0. -1.
         22   -1    0    0    0    0 -0.00000000000E+00 -0.00000000000E+00 -0.23189412375E+02  0.23189412375E+02  0.00000000000E+00 0.  1.
          4    1    1    2  501    0  0.28183822397E+01  0.27854135188E+01 -0.50926816691E+01  0.64526904081E+01  0.00000000000E+00 0. -1.
         -4    1    1    2    0  501 -0.28183822397E+01 -0.27854135188E+01 -0.17191342321E+02  0.17642110353E+02  0.00000000000E+00 0.  1.
<mgrwt>
<rscale>  0 0.39625506E+01</rscale>
<asrwt>0</asrwt>
<pdfrwt beam="1">0</pdfrwt>
<pdfrwt beam="2">0</pdfrwt>
<totfact> 0.63051155E+11</totfact>
</mgrwt>
</event>
<event>
 4    2  0.1993797E+006  0.6136615E+01  0.7546771E-02  0.2007649E+00
         22   -1    0    0    0    0  0.00000000000E+00  0.00000000000E+00  0.23448304402E+01  0.23448304402E+01  0.00000000000E+00 0. -1.
         22   -1    0    0    0    0 -0.00000000000E+00 -0.00000000000E+00 -0.16153079880E+02  0.16153079880E+02  0.00000000000E+00 0.  1.
          4    1    1    2  501    0  0.15613984339E+01  0.59346507077E+01 -0.62021426493E+01  0.87249422654E+01  0.00000000000E+00 0. -1.
         -4    1    1    2    0  501 -0.15613984339E+01 -0.59346507077E+01 -0.76061067909E+01  0.97729680551E+01  0.00000000000E+00 0.  1.
<mgrwt>
<rscale>  0 0.61366150E+01</rscale>
<asrwt>0</asrwt>
<pdfrwt beam="1">0</pdfrwt>
<pdfrwt beam="2">0</pdfrwt>
<totfact> 0.33102713E+11</totfact>
</mgrwt>
</event>
<event>
 4    2  0.1993797E+006  0.2769135E+01  0.7546771E-02  0.2600587E+00
         22   -1    0    0    0    0  0.00000000000E+00  0.00000000000E+00  0.55385546239E+00  0.55385546239E+00  0.00000000000E+00 0. -1.
         22   -1    0    0    0    0 -0.00000000000E+00 -0.00000000000E+00 -0.17404859758E+02  0.17404859758E+02  0.00000000000E+00 0.  1.
          4    1    1    2  501    0 -0.24258628168E+01  0.13354024587E+01 -0.43645440078E+01  0.51688832961E+01  0.00000000000E+00 0. -1.
         -4    1    1    2    0  501  0.24258628168E+01 -0.13354024587E+01 -0.12486460288E+02  0.12789831925E+02  0.00000000000E+00 0.  1.
<mgrwt>
<rscale>  0 0.27691353E+01</rscale>
<asrwt>0</asrwt>
<pdfrwt beam="1">0</pdfrwt>
<pdfrwt beam="2">0</pdfrwt>
<totfact> 0.15756656E+12</totfact>
</mgrwt>
</event>
<event>
 4    2  0.1993797E+006  0.3166099E+01  0.7546771E-02  0.2472162E+00
         22   -1    0    0    0    0  0.00000000000E+00  0.00000000000E+00  0.14974053051E+01  0.14974053051E+01  0.00000000000E+00 0.  1.
         22   -1    0    0    0    0 -0.00000000000E+00 -0.00000000000E+00 -0.76388888068E+01  0.76388888068E+01  0.00000000000E+00 0. -1.
          4    1    1    2  501    0  0.13357971785E+01  0.28705098093E+01 -0.14644257873E+01  0.34883697559E+01  0.00000000000E+00 0.  1.
         -4    1    1    2    0  501 -0.13357971785E+01 -0.28705098093E+01 -0.46770577144E+01  0.56479243560E+01  0.00000000000E+00 0. -1.
<mgrwt>
<rscale>  0 0.31660987E+01</rscale>
<asrwt>0</asrwt>
<pdfrwt beam="1">0</pdfrwt>
<pdfrwt beam="2">0</pdfrwt>
<totfact> 0.13820426E+12</totfact>
</mgrwt>
</event>
<event>
 4    2  0.1993797E+006  0.2749735E+01  0.7546771E-02  0.2607718E+00
         22   -1    0    0    0    0  0.00000000000E+00  0.00000000000E+00  0.13168890556E+01  0.13168890556E+01  0.00000000000E+00 0.  1.
         22   -1    0    0    0    0 -0.00000000000E+00 -0.00000000000E+00 -0.11587026398E+02  0.11587026398E+02  0.00000000000E+00 0. -1.
          4    1    1    2  501    0 -0.13914573112E+01 -0.23716851999E+01 -0.55244932313E+00  0.28046825829E+01  0.00000000000E+00 0. -1.
         -4    1    1    2    0  501  0.13914573112E+01  0.23716851999E+01 -0.97176880188E+01  0.10099232870E+02  0.00000000000E+00 0.  1.
<mgrwt>
<rscale>  0 0.27497353E+01</rscale>
<asrwt>0</asrwt>
<pdfrwt beam="1">0</pdfrwt>
<pdfrwt beam="2">0</pdfrwt>
<totfact> 0.96825069E+11</totfact>
</mgrwt>
</event>
<event>
 4    2  0.1993797E+006  0.2169938E+01  0.7546771E-02  0.2874749E+00
         22   -1    0    0    0    0  0.00000000000E+00  0.00000000000E+00  0.15265349011E+01  0.15265349011E+01  0.00000000000E+00 0. -1.
         22   -1    0    0    0    0 -0.00000000000E+00 -0.00000000000E+00 -0.49221000038E+01  0.49221000038E+01  0.00000000000E+00 0.  1.
          4    1    1    2  501    0  0.11085229624E+00  0.21671049507E+01  0.27230417269E+00  0.21869571695E+01  0.00000000000E+00 0. -1.
         -4    1    1    2    0  501 -0.11085229624E+00 -0.21671049507E+01 -0.36678692754E+01  0.42616777354E+01  0.00000000000E+00 0.  1.
<mgrwt>
<rscale>  0 0.21699383E+01</rscale>
<asrwt>0</asrwt>
<pdfrwt beam="1">0</pdfrwt>
<pdfrwt beam="2">0</pdfrwt>
<totfact> 0.22816841E+12</totfact>
</mgrwt>
</event>
<event>
 4    2  0.1993797E+006  0.2065363E+01  0.7546771E-02  0.2937959E+00
         22   -1    0    0    0    0  0.00000000000E+00  0.00000000000E+00  0.38077615426E+00  0.38077615426E+00  0.00000000000E+00 0.  1.
         22   -1    0    0    0    0 -0.00000000000E+00 -0.00000000000E+00 -0.11345701025E+02  0.11345701025E+02  0.00000000000E+00 0. -1.
          4    1    1    2  501    0  0.14577836610E+01  0.14630760007E+01 -0.61406918204E+01  0.64787206005E+01  0.00000000000E+00 0. -1.
         -4    1    1    2    0  501 -0.14577836610E+01 -0.14630760007E+01 -0.48242330504E+01  0.52477565788E+01  0.00000000000E+00 0.  1.
<mgrwt>
<rscale>  0 0.20653631E+01</rscale>
<asrwt>0</asrwt>
<pdfrwt beam="1">0</pdfrwt>
<pdfrwt beam="2">0</pdfrwt>
<totfact> 0.40649133E+12</totfact>
</mgrwt>
</event>
<event>
 4    2  0.1993797E+006  0.6715521E+01  0.7546771E-02  0.1960896E+00
         22   -1    0    0    0    0  0.00000000000E+00  0.00000000000E+00  0.84225569349E+01  0.84225569349E+01  0.00000000000E+00 0. -1.
         22   -1    0    0    0    0 -0.00000000000E+00 -0.00000000000E+00 -0.57425830481E+01  0.57425830481E+01  0.00000000000E+00 0.  1.
          4    1    1    2  501    0 -0.14732819924E+01 -0.65519205479E+01  0.31812819621E+01  0.74309338322E+01  0.00000000000E+00 0. -1.
         -4    1    1    2    0  501  0.14732819924E+01  0.65519205479E+01 -0.50130807523E+00  0.67342061509E+01  0.00000000000E+00 0.  1.
<mgrwt>
<rscale>  0 0.67155210E+01</rscale>
<asrwt>0</asrwt>
<pdfrwt beam="1">0</pdfrwt>
<pdfrwt beam="2">0</pdfrwt>
<totfact> 0.25560507E+11</totfact>
</mgrwt>
</event>
<event>
 4    2  0.1993797E+006  0.6081212E+01  0.7546771E-02  0.2012480E+00
         22   -1    0    0    0    0  0.00000000000E+00  0.00000000000E+00  0.11582416759E+02  0.11582416759E+02  0.00000000000E+00 0. -1.
         22   -1    0    0    0    0 -0.00000000000E+00 -0.00000000000E+00 -0.13238326165E+02  0.13238326165E+02  0.00000000000E+00 0.  1.
          4    1    1    2  501    0 -0.60031989000E+01  0.97094800926E+00  0.99827274742E+01  0.11689139613E+02  0.00000000000E+00 0. -1.
         -4    1    1    2    0  501  0.60031989000E+01 -0.97094800926E+00 -0.11638636880E+02  0.13131603310E+02  0.00000000000E+00 0.  1.
<mgrwt>
<rscale>  0 0.60812118E+01</rscale>
<asrwt>0</asrwt>
<pdfrwt beam="1">0</pdfrwt>
<pdfrwt beam="2">0</pdfrwt>
<totfact> 0.63510439E+10</totfact>
</mgrwt>
</event>
<event>
 4    2  0.1993797E+006  0.3733527E+01  0.7546771E-02  0.2331322E+00
         22   -1    0    0    0    0  0.00000000000E+00  0.00000000000E+00  0.36512588079E+02  0.36512588079E+02  0.00000000000E+00 0. -1.
         22   -1    0    0    0    0 -0.00000000000E+00 -0.00000000000E+00 -0.39074830349E+00  0.39074830349E+00  0.00000000000E+00 0.  1.
          4    1    1    2  501    0 -0.30724239578E+01 -0.21211878546E+01  0.20858651051E+02  0.21190152207E+02  0.00000000000E+00 0. -1.
         -4    1    1    2    0  501  0.30724239578E+01  0.21211878546E+01  0.15263188724E+02  0.15713184175E+02  0.00000000000E+00 0.  1.
<mgrwt>
<rscale>  0 0.37335274E+01</rscale>
<asrwt>0</asrwt>
<pdfrwt beam="1">0</pdfrwt>
<pdfrwt beam="2">0</pdfrwt>
<totfact> 0.91633860E+11</totfact>
</mgrwt>
</event>
<event>
 4    2  0.1993797E+006  0.2252876E+01  0.7546771E-02  0.2828641E+00
         22   -1    0    0    0    0  0.00000000000E+00  0.00000000000E+00  0.74893900272E+01  0.74893900272E+01  0.00000000000E+00 0.  1.
         22   -1    0    0    0    0 -0.00000000000E+00 -0.00000000000E+00 -0.13236955281E+01  0.13236955281E+01  0.00000000000E+00 0. -1.
          4    1    1    2  501    0  0.13109667437E+01 -0.18321618766E+01  0.61612367783E+01  0.65602049956E+01  0.00000000000E+00 0.  1.
         -4    1    1    2    0  501 -0.13109667437E+01  0.18321618766E+01  0.44577208577E-02  0.22528805598E+01  0.00000000000E+00 0. -1.
<mgrwt>
<rscale>  0 0.22528761E+01</rscale>
<asrwt>0</asrwt>
<pdfrwt beam="1">0</pdfrwt>
<pdfrwt beam="2">0</pdfrwt>
<totfact> 0.16305448E+12</totfact>
</mgrwt>
</event>
<event>
 4    2  0.1993797E+006  0.4188607E+01  0.7546771E-02  0.2242629E+00
         22   -1    0    0    0    0  0.00000000000E+00  0.00000000000E+00  0.17687901035E+02  0.17687901035E+02  0.00000000000E+00 0.  1.
         22   -1    0    0    0    0 -0.00000000000E+00 -0.00000000000E+00 -0.10921235053E+01  0.10921235053E+01  0.00000000000E+00 0. -1.
          4    1    1    2  501    0 -0.19602141851E+01  0.37016192303E+01  0.11142612654E+02  0.11903875056E+02  0.00000000000E+00 0.  1.
         -4    1    1    2    0  501  0.19602141851E+01 -0.37016192303E+01  0.54531648754E+01  0.68761494846E+01  0.00000000000E+00 0. -1.
<mgrwt>
<rscale>  0 0.41886065E+01</rscale>
<asrwt>0</asrwt>
<pdfrwt beam="1">0</pdfrwt>
<pdfrwt beam="2">0</pdfrwt>
<totfact> 0.71361954E+11</totfact>
</mgrwt>
</event>
<event>
 4    2  0.1993797E+006  0.2033827E+01  0.7546771E-02  0.2958259E+00
         22   -1    0    0    0    0  0.00000000000E+00  0.00000000000E+00  0.64637580297E+01  0.64637580297E+01  0.00000000000E+00 0. -1.
         22   -1    0    0    0    0 -0.00000000000E+00 -0.00000000000E+00 -0.74190078169E+00  0.74190078169E+00  0.00000000000E+00 0.  1.
          4    1    1    2  501    0  0.59488789692E+00  0.19448802114E+01  0.41965285291E+01  0.46634002983E+01  0.00000000000E+00 0. -1.
         -4    1    1    2    0  501 -0.59488789692E+00 -0.19448802114E+01  0.15253287190E+01  0.25422585131E+01  0.00000000000E+00 0.  1.
<mgrwt>
<rscale>  0 0.20338266E+01</rscale>
<asrwt>0</asrwt>
<pdfrwt beam="1">0</pdfrwt>
<pdfrwt beam="2">0</pdfrwt>
<totfact> 0.37662902E+12</totfact>
</mgrwt>
</event>
<event>
 4    2  0.1993797E+006  0.5415819E+01  0.7546771E-02  0.2076413E+00
         22   -1    0    0    0    0  0.00000000000E+00  0.00000000000E+00  0.18110108917E+01  0.18110108917E+01  0.00000000000E+00 0. -1.
         22   -1    0    0    0    0 -0.00000000000E+00 -0.00000000000E+00 -0.19792389427E+02  0.19792389427E+02  0.00000000000E+00 0.  1.
          4    1    1    2  501    0  0.10710427381E+01 -0.53088571651E+01 -0.43862415904E+01  0.69692332603E+01  0.00000000000E+00 0. -1.
         -4    1    1    2    0  501 -0.10710427381E+01  0.53088571651E+01 -0.13595136945E+02  0.14634167059E+02  0.00000000000E+00 0.  1.
<mgrwt>
<rscale>  0 0.54158191E+01</rscale>
<asrwt>0</asrwt>
<pdfrwt beam="1">0</pdfrwt>
<pdfrwt beam="2">0</pdfrwt>
<totfact> 0.34701609E+11</totfact>
</mgrwt>
</event>
<event>
 4    2  0.1993797E+006  0.2431655E+01  0.7546771E-02  0.2739450E+00
         22   -1    0    0    0    0  0.00000000000E+00  0.00000000000E+00  0.31165447846E+01  0.31165447846E+01  0.00000000000E+00 0.  1.
         22   -1    0    0    0    0 -0.00000000000E+00 -0.00000000000E+00 -0.28207451245E+01  0.28207451245E+01  0.00000000000E+00 0. -1.
          4    1    1    2  501    0 -0.24298222377E+01 -0.94379741553E-01  0.18464863608E+01  0.30532696447E+01  0.00000000000E+00 0.  1.
         -4    1    1    2    0  501  0.24298222377E+01  0.94379741553E-01 -0.15506867007E+01  0.28840202645E+01  0.00000000000E+00 0. -1.
<mgrwt>
<rscale>  0 0.24316545E+01</rscale>
<asrwt>0</asrwt>
<pdfrwt beam="1">0</pdfrwt>
<pdfrwt beam="2">0</pdfrwt>
<totfact> 0.19177705E+12</totfact>
</mgrwt>
</event>
<event>
 4    2  0.1993797E+006  0.3110474E+01  0.7546771E-02  0.2488381E+00
         22   -1    0    0    0    0  0.00000000000E+00  0.00000000000E+00  0.43965465690E+00  0.43965465690E+00  0.00000000000E+00 0. -1.
         22   -1    0    0    0    0 -0.00000000000E+00 -0.00000000000E+00 -0.29133300009E+02  0.29133300009E+02  0.00000000000E+00 0.  1.
          4    1    1    2  501    0 -0.15769503656E+01 -0.26810959649E+01 -0.70332114394E+01  0.76903258175E+01  0.00000000000E+00 0. -1.
         -4    1    1    2    0  501  0.15769503656E+01  0.26810959649E+01 -0.21660433912E+02  0.21882628848E+02  0.00000000000E+00 0.  1.
<mgrwt>
<rscale>  0 0.31104739E+01</rscale>
<asrwt>0</asrwt>
<pdfrwt beam="1">0</pdfrwt>
<pdfrwt beam="2">0</pdfrwt>
<totfact> 0.10714552E+12</totfact>
</mgrwt>
</event>
<event>
 4    2  0.1993797E+006  0.2285488E+01  0.7546771E-02  0.2811387E+00
         22   -1    0    0    0    0  0.00000000000E+00  0.00000000000E+00  0.70283756405E+00  0.70283756405E+00  0.00000000000E+00 0.  1.
         22   -1    0    0    0    0 -0.00000000000E+00 -0.00000000000E+00 -0.21252176733E+02  0.21252176733E+02  0.00000000000E+00 0. -1.
          4    1    1    2  501    0  0.22522763925E+01 -0.38820862372E+00 -0.14222992266E+01  0.26919119550E+01  0.00000000000E+00 0.  1.
         -4    1    1    2    0  501 -0.22522763925E+01  0.38820862372E+00 -0.19127039943E+02  0.19263102342E+02  0.00000000000E+00 0. -1.
<mgrwt>
<rscale>  0 0.22854879E+01</rscale>
<asrwt>0</asrwt>
<pdfrwt beam="1">0</pdfrwt>
<pdfrwt beam="2">0</pdfrwt>
<totfact> 0.93813807E+11</totfact>
</mgrwt>
</event>
<event>
 4    2  0.1993797E+006  0.2720434E+01  0.7546771E-02  0.2618663E+00
         22   -1    0    0    0    0  0.00000000000E+00  0.00000000000E+00  0.70728980668E+01  0.70728980668E+01  0.00000000000E+00 0. -1.
         22   -1    0    0    0    0 -0.00000000000E+00 -0.00000000000E+00 -0.17929180120E+01  0.17929180120E+01  0.00000000000E+00 0.  1.
          4    1    1    2  501    0 -0.61160764026E+00  0.26507918553E+01  0.55004888813E+01  0.61364598344E+01  0.00000000000E+00 0. -1.
         -4    1    1    2    0  501  0.61160764026E+00 -0.26507918553E+01 -0.22050882648E+00  0.27293562443E+01  0.00000000000E+00 0.  1.
<mgrwt>
<rscale>  0 0.27204340E+01</rscale>
<asrwt>0</asrwt>
<pdfrwt beam="1">0</pdfrwt>
<pdfrwt beam="2">0</pdfrwt>
<totfact> 0.12314240E+12</totfact>
</mgrwt>
</event>
<event>
 4    2  0.1993797E+006  0.3845997E+01  0.7546771E-02  0.2307736E+00
         22   -1    0    0    0    0  0.00000000000E+00  0.00000000000E+00  0.10580699856E+02  0.10580699856E+02  0.00000000000E+00 0.  1.
         22   -1    0    0    0    0 -0.00000000000E+00 -0.00000000000E+00 -0.14129628776E+01  0.14129628776E+01  0.00000000000E+00 0. -1.
          4    1    1    2  501    0  0.36759754054E+01 -0.11308826865E+01  0.39665078731E+01  0.55249321751E+01  0.00000000000E+00 0.  1.
         -4    1    1    2    0  501 -0.36759754054E+01  0.11308826865E+01  0.52012291052E+01  0.64687305583E+01  0.00000000000E+00 0. -1.
<mgrwt>
<rscale>  0 0.38459967E+01</rscale>
<asrwt>0</asrwt>
<pdfrwt beam="1">0</pdfrwt>
<pdfrwt beam="2">0</pdfrwt>
<totfact> 0.99731670E+11</totfact>
</mgrwt>
</event>
<event>
 4    2  0.1993797E+006  0.2260455E+01  0.7546771E-02  0.2824589E+00
         22   -1    0    0    0    0  0.00000000000E+00  0.00000000000E+00  0.24363546474E+01  0.24363546474E+01  0.00000000000E+00 0. -1.
         22   -1    0    0    0    0 -0.00000000000E+00 -0.00000000000E+00 -0.81689942132E+01  0.81689942132E+01  0.00000000000E+00 0.  1.
          4    1    1    2  501    0  0.18709141894E+01 -0.12685961704E+01  0.17052698188E+01  0.28315369153E+01  0.00000000000E+00 0. -1.
         -4    1    1    2    0  501 -0.18709141894E+01  0.12685961704E+01 -0.74379093845E+01  0.77738119453E+01  0.00000000000E+00 0.  1.
<mgrwt>
<rscale>  0 0.22604549E+01</rscale>
<asrwt>0</asrwt>
<pdfrwt beam="1">0</pdfrwt>
<pdfrwt beam="2">0</pdfrwt>
<totfact> 0.72617574E+11</totfact>
</mgrwt>
</event>
<event>
 4    2  0.1993797E+006  0.2113191E+01  0.7546771E-02  0.2908298E+00
         22   -1    0    0    0    0  0.00000000000E+00  0.00000000000E+00  0.26485817025E+00  0.26485817025E+00  0.00000000000E+00 0.  1.
         22   -1    0    0    0    0 -0.00000000000E+00 -0.00000000000E+00 -0.21861788312E+02  0.21861788312E+02  0.00000000000E+00 0. -1.
          4    1    1    2  501    0 -0.19517909807E+01 -0.80999323600E+00 -0.55067772762E+01  0.58983195102E+01  0.00000000000E+00 0.  1.
         -4    1    1    2    0  501  0.19517909807E+01  0.80999323600E+00 -0.16090152865E+02  0.16228326972E+02  0.00000000000E+00 0. -1.
<mgrwt>
<rscale>  0 0.21131912E+01</rscale>
<asrwt>0</asrwt>
<pdfrwt beam="1">0</pdfrwt>
<pdfrwt beam="2">0</pdfrwt>
<totfact> 0.27198243E+12</totfact>
</mgrwt>
</event>
<event>
 4    2  0.1993797E+006  0.4182103E+01  0.7546771E-02  0.2243780E+00
         22   -1    0    0    0    0  0.00000000000E+00  0.00000000000E+00  0.54619656140E+01  0.54619656140E+01  0.00000000000E+00 0. -1.
         22   -1    0    0    0    0 -0.00000000000E+00 -0.00000000000E+00 -0.40734325594E+01  0.40734325594E+01  0.00000000000E+00 0.  1.
          4    1    1    2  501    0 -0.26433605104E+01 -0.32407756403E+01  0.28992758965E+01  0.50887898623E+01  0.00000000000E+00 0. -1.
         -4    1    1    2    0  501  0.26433605104E+01  0.32407756403E+01 -0.15107428418E+01  0.44466083111E+01  0.00000000000E+00 0.  1.
<mgrwt>
<rscale>  0 0.41821025E+01</rscale>
<asrwt>0</asrwt>
<pdfrwt beam="1">0</pdfrwt>
<pdfrwt beam="2">0</pdfrwt>
<totfact> 0.64384901E+11</totfact>
</mgrwt>
</event>
<event>
 4    2  0.1993797E+006  0.2101140E+01  0.7546771E-02  0.2915648E+00
         22   -1    0    0    0    0  0.00000000000E+00  0.00000000000E+00  0.21894192926E+02  0.21894192926E+02  0.00000000000E+00 0. -1.
         22   -1    0    0    0    0 -0.00000000000E+00 -0.00000000000E+00 -0.38807916996E+00  0.38807916996E+00  0.00000000000E+00 0.  1.
          4    1    1    2  501    0 -0.20583572283E+01  0.42184938954E+00  0.18475156982E+02  0.18594252254E+02  0.00000000000E+00 0. -1.
         -4    1    1    2    0  501  0.20583572283E+01 -0.42184938954E+00  0.30309567743E+01  0.36880198419E+01  0.00000000000E+00 0.  1.
<mgrwt>
<rscale>  0 0.21011405E+01</rscale>
<asrwt>0</asrwt>
<pdfrwt beam="1">0</pdfrwt>
<pdfrwt beam="2">0</pdfrwt>
<totfact> 0.17682563E+12</totfact>
</mgrwt>
</event>
<event>
 4    2  0.1993797E+006  0.2025188E+01  0.7546771E-02  0.2963927E+00
         22   -1    0    0    0    0  0.00000000000E+00  0.00000000000E+00  0.88010851778E+00  0.88010851778E+00  0.00000000000E+00 0. -1.
         22   -1    0    0    0    0 -0.00000000000E+00 -0.00000000000E+00 -0.58247841065E+01  0.58247841065E+01  0.00000000000E+00 0.  1.
          4    1    1    2  501    0 -0.20068990817E+01 -0.27155925565E+00 -0.97324981064E+00  0.22469097773E+01  0.00000000000E+00 0. -1.
         -4    1    1    2    0  501  0.20068990817E+01  0.27155925565E+00 -0.39714257781E+01  0.44579828470E+01  0.00000000000E+00 0.  1.
<mgrwt>
<rscale>  0 0.20251885E+01</rscale>
<asrwt>0</asrwt>
<pdfrwt beam="1">0</pdfrwt>
<pdfrwt beam="2">0</pdfrwt>
<totfact> 0.35103301E+12</totfact>
</mgrwt>
</event>
<event>
 4    2  0.1993797E+006  0.2496024E+01  0.7546771E-02  0.2710286E+00
         22   -1    0    0    0    0  0.00000000000E+00  0.00000000000E+00  0.25535074452E+02  0.25535074452E+02  0.00000000000E+00 0. -1.
         22   -1    0    0    0    0 -0.00000000000E+00 -0.00000000000E+00 -0.27227409262E+00  0.27227409262E+00  0.00000000000E+00 0.  1.
          4    1    1    2  501    0  0.24517196682E+01 -0.46819339452E+00  0.16790812666E+02  0.16975321039E+02  0.00000000000E+00 0.  1.
         -4    1    1    2    0  501 -0.24517196682E+01  0.46819339452E+00  0.84719876929E+01  0.88320275053E+01  0.00000000000E+00 0. -1.
<mgrwt>
<rscale>  0 0.24960237E+01</rscale>
<asrwt>0</asrwt>
<pdfrwt beam="1">0</pdfrwt>
<pdfrwt beam="2">0</pdfrwt>
<totfact> 0.21692762E+12</totfact>
</mgrwt>
</event>
<event>
 4    2  0.1993797E+006  0.5419421E+01  0.7546771E-02  0.2076034E+00
         22   -1    0    0    0    0  0.00000000000E+00  0.00000000000E+00  0.14738160121E+02  0.14738160121E+02  0.00000000000E+00 0.  1.
         22   -1    0    0    0    0 -0.00000000000E+00 -0.00000000000E+00 -0.20281900005E+01  0.20281900005E+01  0.00000000000E+00 0. -1.
          4    1    1    2  501    0  0.20746384678E+01  0.50065960375E+01  0.74624410760E+01  0.92226978411E+01  0.00000000000E+00 0. -1.
         -4    1    1    2    0  501 -0.20746384678E+01 -0.50065960375E+01  0.52475290444E+01  0.75436522804E+01  0.00000000000E+00 0.  1.
<mgrwt>
<rscale>  0 0.54194214E+01</rscale>
<asrwt>0</asrwt>
<pdfrwt beam="1">0</pdfrwt>
<pdfrwt beam="2">0</pdfrwt>
<totfact> 0.43850761E+11</totfact>
</mgrwt>
</event>
<event>
 4    2  0.1993797E+006  0.2513065E+01  0.7546771E-02  0.2702798E+00
         22   -1    0    0    0    0  0.00000000000E+00  0.00000000000E+00  0.99374628650E+00  0.99374628650E+00  0.00000000000E+00 0.  1.
         22   -1    0    0    0    0 -0.00000000000E+00 -0.00000000000E+00 -0.89034158451E+01  0.89034158451E+01  0.00000000000E+00 0. -1.
          4    1    1    2  501    0 -0.24777264332E+01 -0.41996043832E+00 -0.13074494865E+01  0.28328288348E+01  0.00000000000E+00 0.  1.
         -4    1    1    2    0  501  0.24777264332E+01  0.41996043832E+00 -0.66022200721E+01  0.70643332968E+01  0.00000000000E+00 0. -1.
<mgrwt>
<rscale>  0 0.25130649E+01</rscale>
<asrwt>0</asrwt>
<pdfrwt beam="1">0</pdfrwt>
<pdfrwt beam="2">0</pdfrwt>
<totfact> 0.18390124E+12</totfact>
</mgrwt>
</event>
<event>
 4    2  0.1993797E+006  0.2648073E+01  0.7546771E-02  0.2646643E+00
         22   -1    0    0    0    0  0.00000000000E+00  0.00000000000E+00  0.20778032793E+02  0.20778032793E+02  0.00000000000E+00 0. -1.
         22   -1    0    0    0    0 -0.00000000000E+00 -0.00000000000E+00 -0.63991253194E+00  0.63991253194E+00  0.00000000000E+00 0.  1.
          4    1    1    2  501    0  0.18721557649E+00 -0.26414467244E+01  0.17431090581E+02  0.17631086447E+02  0.00000000000E+00 0. -1.
         -4    1    1    2    0  501 -0.18721557649E+00  0.26414467244E+01  0.27070296800E+01  0.37868588775E+01  0.00000000000E+00 0.  1.
<mgrwt>
<rscale>  0 0.26480730E+01</rscale>
<asrwt>0</asrwt>
<pdfrwt beam="1">0</pdfrwt>
<pdfrwt beam="2">0</pdfrwt>
<totfact> 0.10733444E+12</totfact>
</mgrwt>
</event>
<event>
 4    2  0.1993797E+006  0.2061925E+01  0.7546771E-02  0.2940143E+00
         22   -1    0    0    0    0  0.00000000000E+00  0.00000000000E+00  0.48770197305E-01  0.48770197305E-01  0.00000000000E+00 0.  1.
         22   -1    0    0    0    0 -0.00000000000E+00 -0.00000000000E+00 -0.19608396285E+03  0.19608396285E+03  0.00000000000E+00 0. -1.
          4    1    1    2  501    0  0.11694877481E+01  0.16981846680E+01 -0.24932094448E+02  0.25017211401E+02  0.00000000000E+00 0.  1.
         -4    1    1    2    0  501 -0.11694877481E+01 -0.16981846680E+01 -0.17110309821E+03  0.17111552165E+03  0.00000000000E+00 0. -1.
<mgrwt>
<rscale>  0 0.20619245E+01</rscale>
<asrwt>0</asrwt>
<pdfrwt beam="1">0</pdfrwt>
<pdfrwt beam="2">0</pdfrwt>
<totfact> 0.88702925E+11</totfact>
</mgrwt>
</event>
<event>
 4    2  0.1993797E+006  0.2173197E+01  0.7546771E-02  0.2872874E+00
         22   -1    0    0    0    0  0.00000000000E+00  0.00000000000E+00  0.12921895652E+02  0.12921895652E+02  0.00000000000E+00 0. -1.
         22   -1    0    0    0    0 -0.00000000000E+00 -0.00000000000E+00 -0.12849746418E+01  0.12849746418E+01  0.00000000000E+00 0.  1.
          4    1    1    2  501    0  0.85019389324E+00  0.19999891169E+01  0.11827347916E+02  0.12025345934E+02  0.00000000000E+00 0. -1.
         -4    1    1    2    0  501 -0.85019389324E+00 -0.19999891169E+01 -0.19042690560E+00  0.21815243593E+01  0.00000000000E+00 0.  1.
<mgrwt>
<rscale>  0 0.21731972E+01</rscale>
<asrwt>0</asrwt>
<pdfrwt beam="1">0</pdfrwt>
<pdfrwt beam="2">0</pdfrwt>
<totfact> 0.87176635E+11</totfact>
</mgrwt>
</event>
<event>
 4    2  0.1993797E+006  0.3078867E+01  0.7546771E-02  0.2497830E+00
         22   -1    0    0    0    0  0.00000000000E+00  0.00000000000E+00  0.93038220629E+00  0.93038220629E+00  0.00000000000E+00 0. -1.
         22   -1    0    0    0    0 -0.00000000000E+00 -0.00000000000E+00 -0.10265850027E+02  0.10265850027E+02  0.00000000000E+00 0.  1.
          4    1    1    2  501    0 -0.12561184353E+01  0.28109763596E+01 -0.41825546357E+01  0.51935714974E+01  0.00000000000E+00 0. -1.
         -4    1    1    2    0  501  0.12561184353E+01 -0.28109763596E+01 -0.51529131851E+01  0.60026607360E+01  0.00000000000E+00 0.  1.
<mgrwt>
<rscale>  0 0.30788669E+01</rscale>
<asrwt>0</asrwt>
<pdfrwt beam="1">0</pdfrwt>
<pdfrwt beam="2">0</pdfrwt>
<totfact> 0.16691278E+12</totfact>
</mgrwt>
</event>
<event>
 4    2  0.1993797E+006  0.2881079E+01  0.7546771E-02  0.2561150E+00
         22   -1    0    0    0    0  0.00000000000E+00  0.00000000000E+00  0.85110587434E+01  0.85110587434E+01  0.00000000000E+00 0.  1.
         22   -1    0    0    0    0 -0.00000000000E+00 -0.00000000000E+00 -0.10799147548E+01  0.10799147548E+01  0.00000000000E+00 0. -1.
          4    1    1    2  501    0 -0.15189441154E+01  0.24481476728E+01  0.52083231870E+01  0.59520793572E+01  0.00000000000E+00 0.  1.
         -4    1    1    2    0  501  0.15189441154E+01 -0.24481476728E+01  0.22228208016E+01  0.36388941410E+01  0.00000000000E+00 0. -1.
<mgrwt>
<rscale>  0 0.28810794E+01</rscale>
<asrwt>0</asrwt>
<pdfrwt beam="1">0</pdfrwt>
<pdfrwt beam="2">0</pdfrwt>
<totfact> 0.17656699E+12</totfact>
</mgrwt>
</event>
<event>
 4    2  0.1993797E+006  0.2100161E+01  0.7546771E-02  0.2916249E+00
         22   -1    0    0    0    0  0.00000000000E+00  0.00000000000E+00  0.53450136774E+00  0.53450136774E+00  0.00000000000E+00 0. -1.
         22   -1    0    0    0    0 -0.00000000000E+00 -0.00000000000E+00 -0.84445177063E+01  0.84445177063E+01  0.00000000000E+00 0.  1.
          4    1    1    2  501    0  0.16546513445E+01  0.12933691182E+01 -0.32770369663E+01  0.38922546200E+01  0.00000000000E+00 0. -1.
         -4    1    1    2    0  501 -0.16546513445E+01 -0.12933691182E+01 -0.46329793722E+01  0.50867644541E+01  0.00000000000E+00 0.  1.
<mgrwt>
<rscale>  0 0.21001606E+01</rscale>
<asrwt>0</asrwt>
<pdfrwt beam="1">0</pdfrwt>
<pdfrwt beam="2">0</pdfrwt>
<totfact> 0.39644448E+12</totfact>
</mgrwt>
</event>
<event>
 4    2  0.1993797E+006  0.2499402E+01  0.7546771E-02  0.2708794E+00
         22   -1    0    0    0    0  0.00000000000E+00  0.00000000000E+00  0.11346905389E+01  0.11346905389E+01  0.00000000000E+00 0. -1.
         22   -1    0    0    0    0 -0.00000000000E+00 -0.00000000000E+00 -0.56982296829E+01  0.56982296829E+01  0.00000000000E+00 0.  1.
          4    1    1    2  501    0 -0.17406008818E+01  0.17936885962E+01 -0.16534088481E+01  0.29967934578E+01  0.00000000000E+00 0. -1.
         -4    1    1    2    0  501  0.17406008818E+01 -0.17936885962E+01 -0.29101302959E+01  0.38361267639E+01  0.00000000000E+00 0.  1.
<mgrwt>
<rscale>  0 0.24994020E+01</rscale>
<asrwt>0</asrwt>
<pdfrwt beam="1">0</pdfrwt>
<pdfrwt beam="2">0</pdfrwt>
<totfact> 0.26960142E+12</totfact>
</mgrwt>
</event>
<event>
 4    2  0.1993797E+006  0.2025127E+01  0.7546771E-02  0.2963968E+00
         22   -1    0    0    0    0  0.00000000000E+00  0.00000000000E+00  0.64649038170E+01  0.64649038170E+01  0.00000000000E+00 0.  1.
         22   -1    0    0    0    0 -0.00000000000E+00 -0.00000000000E+00 -0.10903097149E+01  0.10903097149E+01  0.00000000000E+00 0. -1.
          4    1    1    2  501    0  0.11669616138E+01 -0.16550948549E+01  0.51301409362E+01  0.55153861526E+01  0.00000000000E+00 0.  1.
         -4    1    1    2    0  501 -0.11669616138E+01  0.16550948549E+01  0.24445316585E+00  0.20398273792E+01  0.00000000000E+00 0. -1.
<mgrwt>
<rscale>  0 0.20251268E+01</rscale>
<asrwt>0</asrwt>
<pdfrwt beam="1">0</pdfrwt>
<pdfrwt beam="2">0</pdfrwt>
<totfact> 0.24278731E+12</totfact>
</mgrwt>
</event>
<event>
 4    2  0.1993797E+006  0.2156934E+01  0.7546771E-02  0.2882287E+00
         22   -1    0    0    0    0  0.00000000000E+00  0.00000000000E+00  0.12773094867E+02  0.12773094867E+02  0.00000000000E+00 0.  1.
         22   -1    0    0    0    0 -0.00000000000E+00 -0.00000000000E+00 -0.17338178450E+01  0.17338178450E+01  0.00000000000E+00 0. -1.
          4    1    1    2  501    0  0.21554122258E+01 -0.81002286226E-01  0.11966346221E+02  0.12159186038E+02  0.00000000000E+00 0.  1.
         -4    1    1    2    0  501 -0.21554122258E+01  0.81002286226E-01 -0.92706919911E+00  0.23477266735E+01  0.00000000000E+00 0. -1.
<mgrwt>
<rscale>  0 0.21569338E+01</rscale>
<asrwt>0</asrwt>
<pdfrwt beam="1">0</pdfrwt>
<pdfrwt beam="2">0</pdfrwt>
<totfact> 0.62640053E+11</totfact>
</mgrwt>
</event>
<event>
 4    2  0.1993797E+006  0.2553323E+01  0.7546771E-02  0.2685479E+00
         22   -1    0    0    0    0  0.00000000000E+00  0.00000000000E+00  0.17048977372E+01  0.17048977372E+01  0.00000000000E+00 0.  1.
         22   -1    0    0    0    0 -0.00000000000E+00 -0.00000000000E+00 -0.54411218639E+01  0.54411218639E+01  0.00000000000E+00 0. -1.
          4    1    1    2  501    0 -0.20595898200E+01  0.15091539429E+01  0.79789977649E-01  0.25545689050E+01  0.00000000000E+00 0.  1.
         -4    1    1    2    0  501  0.20595898200E+01 -0.15091539429E+01 -0.38160141044E+01  0.45914506961E+01  0.00000000000E+00 0. -1.
<mgrwt>
<rscale>  0 0.25533225E+01</rscale>
<asrwt>0</asrwt>
<pdfrwt beam="1">0</pdfrwt>
<pdfrwt beam="2">0</pdfrwt>
<totfact> 0.17839214E+12</totfact>
</mgrwt>
</event>
<event>
 4    2  0.1993797E+006  0.2145615E+01  0.7546771E-02  0.2888919E+00
         22   -1    0    0    0    0  0.00000000000E+00  0.00000000000E+00  0.31179240349E+02  0.31179240349E+02  0.00000000000E+00 0.  1.
         22   -1    0    0    0    0 -0.00000000000E+00 -0.00000000000E+00 -0.22392649448E+00  0.22392649448E+00  0.00000000000E+00 0. -1.
          4    1    1    2  501    0  0.11294374888E+01 -0.18242902731E+01  0.24641583070E+02  0.24734819187E+02  0.00000000000E+00 0.  1.
         -4    1    1    2    0  501 -0.11294374888E+01  0.18242902731E+01  0.63137307847E+01  0.66683476562E+01  0.00000000000E+00 0. -1.
<mgrwt>
<rscale>  0 0.21456151E+01</rscale>
<asrwt>0</asrwt>
<pdfrwt beam="1">0</pdfrwt>
<pdfrwt beam="2">0</pdfrwt>
<totfact> 0.20946214E+12</totfact>
</mgrwt>
</event>
<event>
 4    2  0.1993797E+006  0.1220774E+02  0.7546771E-02  0.1700004E+00
         22   -1    0    0    0    0  0.00000000000E+00  0.00000000000E+00  0.47742349012E+02  0.47742349012E+02  0.00000000000E+00 0. -1.
         22   -1    0    0    0    0 -0.00000000000E+00 -0.00000000000E+00 -0.31512158480E+01  0.31512158480E+01  0.00000000000E+00 0.  1.
          4    1    1    2  501    0 -0.38053544983E+01  0.11599495766E+02  0.19825597691E+02  0.23282683451E+02  0.00000000000E+00 0.  1.
         -4    1    1    2    0  501  0.38053544983E+01 -0.11599495766E+02  0.24765535473E+02  0.27610881409E+02  0.00000000000E+00 0. -1.
<mgrwt>
<rscale>  0 0.12207744E+02</rscale>
<asrwt>0</asrwt>
<pdfrwt beam="1">0</pdfrwt>
<pdfrwt beam="2">0</pdfrwt>
<totfact> 0.59188974E+10</totfact>
</mgrwt>
</event>
<event>
 4    2  0.1993797E+006  0.2243992E+01  0.7546771E-02  0.2833425E+00
         22   -1    0    0    0    0  0.00000000000E+00  0.00000000000E+00  0.16007437549E+01  0.16007437549E+01  0.00000000000E+00 0.  1.
         22   -1    0    0    0    0 -0.00000000000E+00 -0.00000000000E+00 -0.37722046168E+01  0.37722046168E+01  0.00000000000E+00 0. -1.
          4    1    1    2  501    0 -0.29009824329E+00  0.22251610235E+01  0.90795716017E-02  0.22440100289E+01  0.00000000000E+00 0.  1.
         -4    1    1    2    0  501  0.29009824329E+00 -0.22251610235E+01 -0.21805404335E+01  0.31289383428E+01  0.00000000000E+00 0. -1.
<mgrwt>
<rscale>  0 0.22439917E+01</rscale>
<asrwt>0</asrwt>
<pdfrwt beam="1">0</pdfrwt>
<pdfrwt beam="2">0</pdfrwt>
<totfact> 0.29564969E+12</totfact>
</mgrwt>
</event>
<event>
 4    2  0.1993797E+006  0.2524481E+01  0.7546771E-02  0.2697835E+00
         22   -1    0    0    0    0  0.00000000000E+00  0.00000000000E+00  0.80123503116E+00  0.80123503116E+00  0.00000000000E+00 0. -1.
         22   -1    0    0    0    0 -0.00000000000E+00 -0.00000000000E+00 -0.10447875589E+02  0.10447875589E+02  0.00000000000E+00 0.  1.
          4    1    1    2  501    0  0.25227047438E+01 -0.94681566540E-01 -0.20753393190E+01  0.32680326058E+01  0.00000000000E+00 0. -1.
         -4    1    1    2    0  501 -0.25227047438E+01  0.94681566540E-01 -0.75713012389E+01  0.79810780145E+01  0.00000000000E+00 0.  1.
<mgrwt>
<rscale>  0 0.25244809E+01</rscale>
<asrwt>0</asrwt>
<pdfrwt beam="1">0</pdfrwt>
<pdfrwt beam="2">0</pdfrwt>
<totfact> 0.19371019E+12</totfact>
</mgrwt>
</event>
<event>
 4    2  0.1993797E+006  0.4140369E+01  0.7546771E-02  0.2251240E+00
         22   -1    0    0    0    0  0.00000000000E+00  0.00000000000E+00  0.32328728673E+01  0.32328728673E+01  0.00000000000E+00 0.  1.
         22   -1    0    0    0    0 -0.00000000000E+00 -0.00000000000E+00 -0.55449512601E+01  0.55449512601E+01  0.00000000000E+00 0. -1.
          4    1    1    2  501    0 -0.40154079934E+01 -0.10095315917E+01 -0.23850115491E+00  0.41472325940E+01  0.00000000000E+00 0.  1.
         -4    1    1    2    0  501  0.40154079934E+01  0.10095315917E+01 -0.20735772379E+01  0.46305915334E+01  0.00000000000E+00 0. -1.
<mgrwt>
<rscale>  0 0.41403690E+01</rscale>
<asrwt>0</asrwt>
<pdfrwt beam="1">0</pdfrwt>
<pdfrwt beam="2">0</pdfrwt>
<totfact> 0.82951187E+11</totfact>
</mgrwt>
</event>
<event>
 4    2  0.1993797E+006  0.2568546E+01  0.7546771E-02  0.2679061E+00
         22   -1    0    0    0    0  0.00000000000E+00  0.00000000000E+00  0.16451349635E+02  0.16451349635E+02  0.00000000000E+00 0. -1.
         22   -1    0    0    0    0 -0.00000000000E+00 -0.00000000000E+00 -0.40703113101E+00  0.40703113101E+00  0.00000000000E+00 0.  1.
          4    1    1    2  501    0 -0.13985643567E+01  0.21544015746E+01  0.69983654730E+01  0.74548338478E+01  0.00000000000E+00 0.  1.
         -4    1    1    2    0  501  0.13985643567E+01 -0.21544015746E+01  0.90459530310E+01  0.94035469182E+01  0.00000000000E+00 0. -1.
<mgrwt>
<rscale>  0 0.25685460E+01</rscale>
<asrwt>0</asrwt>
<pdfrwt beam="1">0</pdfrwt>
<pdfrwt beam="2">0</pdfrwt>
<totfact> 0.23915376E+12</totfact>
</mgrwt>
</event>
<event>
 4    2  0.1993797E+006  0.2021021E+01  0.7546771E-02  0.2966679E+00
         22   -1    0    0    0    0  0.00000000000E+00  0.00000000000E+00  0.65119139885E+01  0.65119139885E+01  0.00000000000E+00 0. -1.
         22   -1    0    0    0    0 -0.00000000000E+00 -0.00000000000E+00 -0.19330956694E+01  0.19330956694E+01  0.00000000000E+00 0.  1.
          4    1    1    2  501    0 -0.12399792830E+01  0.15959252328E+01  0.57599027617E+01  0.61041793711E+01  0.00000000000E+00 0. -1.
         -4    1    1    2    0  501  0.12399792830E+01 -0.15959252328E+01 -0.11810844426E+01  0.23408302868E+01  0.00000000000E+00 0.  1.
<mgrwt>
<rscale>  0 0.20210210E+01</rscale>
<asrwt>0</asrwt>
<pdfrwt beam="1">0</pdfrwt>
<pdfrwt beam="2">0</pdfrwt>
<totfact> 0.12458453E+12</totfact>
</mgrwt>
</event>
<event>
 4    2  0.1993797E+006  0.2476917E+01  0.7546771E-02  0.2718795E+00
         22   -1    0    0    0    0  0.00000000000E+00  0.00000000000E+00  0.16327433121E+02  0.16327433121E+02  0.00000000000E+00 0.  1.
         22   -1    0    0    0    0 -0.00000000000E+00 -0.00000000000E+00 -0.22164422548E+01  0.22164422548E+01  0.00000000000E+00 0. -1.
          4    1    1    2  501    0 -0.35558285912E+00 -0.24512602328E+01  0.15505020276E+02  0.15701616785E+02  0.00000000000E+00 0.  1.
         -4    1    1    2    0  501  0.35558285912E+00  0.24512602328E+01 -0.13940294103E+01  0.28422585905E+01  0.00000000000E+00 0. -1.
<mgrwt>
<rscale>  0 0.24769166E+01</rscale>
<asrwt>0</asrwt>
<pdfrwt beam="1">0</pdfrwt>
<pdfrwt beam="2">0</pdfrwt>
<totfact> 0.34871989E+11</totfact>
</mgrwt>
</event>
<event>
 4    2  0.1993797E+006  0.2312863E+01  0.7546771E-02  0.2797261E+00
         22   -1    0    0    0    0  0.00000000000E+00  0.00000000000E+00  0.99390172386E+00  0.99390172386E+00  0.00000000000E+00 0.  1.
         22   -1    0    0    0    0 -0.00000000000E+00 -0.00000000000E+00 -0.14600156899E+02  0.14600156899E+02  0.00000000000E+00 0. -1.
          4    1    1    2  501    0  0.19611452239E+01 -0.12260688446E+01 -0.60773619158E+00  0.23913758967E+01  0.00000000000E+00 0.  1.
         -4    1    1    2    0  501 -0.19611452239E+01  0.12260688446E+01 -0.12998518984E+02  0.13202682726E+02  0.00000000000E+00 0. -1.
<mgrwt>
<rscale>  0 0.23128630E+01</rscale>
<asrwt>0</asrwt>
<pdfrwt beam="1">0</pdfrwt>
<pdfrwt beam="2">0</pdfrwt>
<totfact> 0.10070757E+12</totfact>
</mgrwt>
</event>
<event>
 4    2  0.1993797E+006  0.5073653E+01  0.7546771E-02  0.2114314E+00
         22   -1    0    0    0    0  0.00000000000E+00  0.00000000000E+00  0.31624703482E+00  0.31624703482E+00  0.00000000000E+00 0.  1.
         22   -1    0    0    0    0 -0.00000000000E+00 -0.00000000000E+00 -0.18326989955E+03  0.18326989955E+03  0.00000000000E+00 0. -1.
          4    1    1    2  501    0 -0.49159385057E+01  0.12551896034E+01 -0.23039816067E+02  0.23591843436E+02  0.00000000000E+00 0.  1.
         -4    1    1    2    0  501  0.49159385057E+01 -0.12551896034E+01 -0.15991383645E+03  0.15999430315E+03  0.00000000000E+00 0. -1.
<mgrwt>
<rscale>  0 0.50736528E+01</rscale>
<asrwt>0</asrwt>
<pdfrwt beam="1">0</pdfrwt>
<pdfrwt beam="2">0</pdfrwt>
<totfact> 0.12366250E+11</totfact>
</mgrwt>
</event>
<event>
 4    2  0.1993797E+006  0.2312512E+01  0.7546771E-02  0.2797440E+00
         22   -1    0    0    0    0  0.00000000000E+00  0.00000000000E+00  0.29354992547E+02  0.29354992547E+02  0.00000000000E+00 0. -1.
         22   -1    0    0    0    0 -0.00000000000E+00 -0.00000000000E+00 -0.12792553390E+01  0.12792553390E+01  0.00000000000E+00 0.  1.
          4    1    1    2  501    0 -0.13913339121E+01 -0.18471327958E+01  0.28222500412E+02  0.28317083874E+02  0.00000000000E+00 0. -1.
         -4    1    1    2    0  501  0.13913339121E+01  0.18471327958E+01 -0.14676320410E+00  0.23171640120E+01  0.00000000000E+00 0.  1.
<mgrwt>
<rscale>  0 0.23125115E+01</rscale>
<asrwt>0</asrwt>
<pdfrwt beam="1">0</pdfrwt>
<pdfrwt beam="2">0</pdfrwt>
<totfact> 0.31516770E+11</totfact>
</mgrwt>
</event>
<event>
 4    2  0.1993797E+006  0.2488461E+01  0.7546771E-02  0.2713639E+00
         22   -1    0    0    0    0  0.00000000000E+00  0.00000000000E+00  0.43611148590E+01  0.43611148590E+01  0.00000000000E+00 0.  1.
         22   -1    0    0    0    0 -0.00000000000E+00 -0.00000000000E+00 -0.14683740783E+01  0.14683740783E+01  0.00000000000E+00 0. -1.
          4    1    1    2  501    0 -0.71501025679E+00  0.23835269420E+01  0.91690083746E+00  0.26520082006E+01  0.00000000000E+00 0. -1.
         -4    1    1    2    0  501  0.71501025679E+00 -0.23835269420E+01  0.19758399433E+01  0.31774807367E+01  0.00000000000E+00 0.  1.
<mgrwt>
<rscale>  0 0.24884614E+01</rscale>
<asrwt>0</asrwt>
<pdfrwt beam="1">0</pdfrwt>
<pdfrwt beam="2">0</pdfrwt>
<totfact> 0.27528000E+12</totfact>
</mgrwt>
</event>
<event>
 4    2  0.1993797E+006  0.4037119E+01  0.7546771E-02  0.2270255E+00
         22   -1    0    0    0    0  0.00000000000E+00  0.00000000000E+00  0.21557642793E+02  0.21557642793E+02  0.00000000000E+00 0.  1.
         22   -1    0    0    0    0 -0.00000000000E+00 -0.00000000000E+00 -0.86774351937E+00  0.86774351937E+00  0.00000000000E+00 0. -1.
          4    1    1    2  501    0  0.95669380708E+00  0.39221256467E+01  0.14368017712E+02  0.14924418434E+02  0.00000000000E+00 0.  1.
         -4    1    1    2    0  501 -0.95669380708E+00 -0.39221256467E+01  0.63218815619E+01  0.75009678784E+01  0.00000000000E+00 0. -1.
<mgrwt>
<rscale>  0 0.40371193E+01</rscale>
<asrwt>0</asrwt>
<pdfrwt beam="1">0</pdfrwt>
<pdfrwt beam="2">0</pdfrwt>
<totfact> 0.72518212E+11</totfact>
</mgrwt>
</event>
<event>
 4    2  0.1993797E+006  0.2873024E+01  0.7546771E-02  0.2563895E+00
         22   -1    0    0    0    0  0.00000000000E+00  0.00000000000E+00  0.96004169891E+01  0.96004169891E+01  0.00000000000E+00 0.  1.
         22   -1    0    0    0    0 -0.00000000000E+00 -0.00000000000E+00 -0.14737221825E+01  0.14737221825E+01  0.00000000000E+00 0. -1.
          4    1    1    2  501    0  0.15270810626E+01 -0.24335757908E+01  0.76371875867E+01  0.81597121234E+01  0.00000000000E+00 0.  1.
         -4    1    1    2    0  501 -0.15270810626E+01  0.24335757908E+01  0.48950721987E+00  0.29144270483E+01  0.00000000000E+00 0. -1.
<mgrwt>
<rscale>  0 0.28730241E+01</rscale>
<asrwt>0</asrwt>
<pdfrwt beam="1">0</pdfrwt>
<pdfrwt beam="2">0</pdfrwt>
<totfact> 0.10689312E+12</totfact>
</mgrwt>
</event>
<event>
 4    2  0.1993797E+006  0.3036272E+01  0.7546771E-02  0.2510841E+00
         22   -1    0    0    0    0  0.00000000000E+00  0.00000000000E+00  0.41017930064E+01  0.41017930064E+01  0.00000000000E+00 0.  1.
         22   -1    0    0    0    0 -0.00000000000E+00 -0.00000000000E+00 -0.22722910516E+01  0.22722910516E+01  0.00000000000E+00 0. -1.
          4    1    1    2  501    0 -0.27404572261E+01 -0.13072256810E+01  0.12473727231E+01  0.32825117669E+01  0.00000000000E+00 0.  1.
         -4    1    1    2    0  501  0.27404572261E+01  0.13072256810E+01  0.58212923168E+00  0.30915722912E+01  0.00000000000E+00 0. -1.
<mgrwt>
<rscale>  0 0.30362715E+01</rscale>
<asrwt>0</asrwt>
<pdfrwt beam="1">0</pdfrwt>
<pdfrwt beam="2">0</pdfrwt>
<totfact> 0.17868376E+12</totfact>
</mgrwt>
</event>
<event>
 4    2  0.1993797E+006  0.2312938E+01  0.7546771E-02  0.2797223E+00
         22   -1    0    0    0    0  0.00000000000E+00  0.00000000000E+00  0.92116966260E+01  0.92116966260E+01  0.00000000000E+00 0.  1.
         22   -1    0    0    0    0 -0.00000000000E+00 -0.00000000000E+00 -0.14209317235E+02  0.14209317235E+02  0.00000000000E+00 0. -1.
          4    1    1    2  501    0  0.73312644793E+00 -0.21936745210E+01  0.89698901298E+01  0.92632937573E+01  0.00000000000E+00 0.  1.
         -4    1    1    2    0  501 -0.73312644793E+00  0.21936745210E+01 -0.13967510739E+02  0.14157720104E+02  0.00000000000E+00 0. -1.
<mgrwt>
<rscale>  0 0.23129380E+01</rscale>
<asrwt>0</asrwt>
<pdfrwt beam="1">0</pdfrwt>
<pdfrwt beam="2">0</pdfrwt>
<totfact> 0.76862667E+10</totfact>
</mgrwt>
</event>
<event>
 4    2  0.1993797E+006  0.3490447E+01  0.7546771E-02  0.2386750E+00
         22   -1    0    0    0    0  0.00000000000E+00  0.00000000000E+00  0.16577370260E+01  0.16577370260E+01  0.00000000000E+00 0. -1.
         22   -1    0    0    0    0 -0.00000000000E+00 -0.00000000000E+00 -0.79890599613E+01  0.79890599613E+01  0.00000000000E+00 0.  1.
          4    1    1    2  501    0  0.23808588249E+01  0.25523967154E+01 -0.18007277039E+01  0.39275740604E+01  0.00000000000E+00 0. -1.
         -4    1    1    2    0  501 -0.23808588249E+01 -0.25523967154E+01 -0.45305952314E+01  0.57192229269E+01  0.00000000000E+00 0.  1.
<mgrwt>
<rscale>  0 0.34904466E+01</rscale>
<asrwt>0</asrwt>
<pdfrwt beam="1">0</pdfrwt>
<pdfrwt beam="2">0</pdfrwt>
<totfact> 0.11648633E+12</totfact>
</mgrwt>
</event>
<event>
 4    2  0.1993797E+006  0.2908086E+01  0.7546771E-02  0.2552048E+00
         22   -1    0    0    0    0  0.00000000000E+00  0.00000000000E+00  0.55805203404E+01  0.55805203404E+01  0.00000000000E+00 0.  1.
         22   -1    0    0    0    0 -0.00000000000E+00 -0.00000000000E+00 -0.16138648363E+01  0.16138648363E+01  0.00000000000E+00 0. -1.
          4    1    1    2  501    0 -0.12710553149E+01 -0.26156038720E+01  0.28716570117E+01  0.40869767827E+01  0.00000000000E+00 0.  1.
         -4    1    1    2    0  501  0.12710553149E+01  0.26156038720E+01  0.10949984924E+01  0.31074083941E+01  0.00000000000E+00 0. -1.
<mgrwt>
<rscale>  0 0.29080862E+01</rscale>
<asrwt>0</asrwt>
<pdfrwt beam="1">0</pdfrwt>
<pdfrwt beam="2">0</pdfrwt>
<totfact> 0.18442245E+12</totfact>
</mgrwt>
</event>
<event>
 4    2  0.1993797E+006  0.2292265E+01  0.7546771E-02  0.2807860E+00
         22   -1    0    0    0    0  0.00000000000E+00  0.00000000000E+00  0.17205314105E+02  0.17205314105E+02  0.00000000000E+00 0.  1.
         22   -1    0    0    0    0 -0.00000000000E+00 -0.00000000000E+00 -0.48563913420E+00  0.48563913420E+00  0.00000000000E+00 0. -1.
          4    1    1    2  501    0  0.22922189854E+01 -0.14550713208E-01  0.13748619061E+02  0.13938400399E+02  0.00000000000E+00 0. -1.
         -4    1    1    2    0  501 -0.22922189854E+01  0.14550713208E-01  0.29710559107E+01  0.37525528410E+01  0.00000000000E+00 0.  1.
<mgrwt>
<rscale>  0 0.22922652E+01</rscale>
<asrwt>0</asrwt>
<pdfrwt beam="1">0</pdfrwt>
<pdfrwt beam="2">0</pdfrwt>
<totfact> 0.18541455E+12</totfact>
</mgrwt>
</event>
<event>
 4    2  0.1993797E+006  0.4920844E+01  0.7546771E-02  0.2132572E+00
         22   -1    0    0    0    0  0.00000000000E+00  0.00000000000E+00  0.39995304475E+01  0.39995304475E+01  0.00000000000E+00 0. -1.
         22   -1    0    0    0    0 -0.00000000000E+00 -0.00000000000E+00 -0.23287483150E+02  0.23287483150E+02  0.00000000000E+00 0.  1.
          4    1    1    2  501    0  0.47674912769E+01 -0.12189048532E+01  0.20927343540E+01  0.53473581508E+01  0.00000000000E+00 0. -1.
         -4    1    1    2    0  501 -0.47674912769E+01  0.12189048532E+01 -0.21380687056E+02  0.21939655446E+02  0.00000000000E+00 0.  1.
<mgrwt>
<rscale>  0 0.49208436E+01</rscale>
<asrwt>0</asrwt>
<pdfrwt beam="1">0</pdfrwt>
<pdfrwt beam="2">0</pdfrwt>
<totfact> 0.11245190E+11</totfact>
</mgrwt>
</event>
<event>
 4    2  0.1993797E+006  0.2046824E+01  0.7546771E-02  0.2949819E+00
         22   -1    0    0    0    0  0.00000000000E+00  0.00000000000E+00  0.20766415712E+02  0.20766415712E+02  0.00000000000E+00 0.  1.
         22   -1    0    0    0    0 -0.00000000000E+00 -0.00000000000E+00 -0.31774225092E+00  0.31774225092E+00  0.00000000000E+00 0. -1.
          4    1    1    2  501    0  0.12056670684E+01  0.16540418091E+01  0.16593987453E+02  0.16719746020E+02  0.00000000000E+00 0.  1.
         -4    1    1    2    0  501 -0.12056670684E+01 -0.16540418091E+01  0.38546860082E+01  0.43644119430E+01  0.00000000000E+00 0. -1.
<mgrwt>
<rscale>  0 0.20468237E+01</rscale>
<asrwt>0</asrwt>
<pdfrwt beam="1">0</pdfrwt>
<pdfrwt beam="2">0</pdfrwt>
<totfact> 0.23650933E+12</totfact>
</mgrwt>
</event>
<event>
 4    2  0.1993797E+006  0.2342757E+01  0.7546771E-02  0.2782193E+00
         22   -1    0    0    0    0  0.00000000000E+00  0.00000000000E+00  0.10821000129E+02  0.10821000129E+02  0.00000000000E+00 0.  1.
         22   -1    0    0    0    0 -0.00000000000E+00 -0.00000000000E+00 -0.83215288706E+00  0.83215288706E+00  0.00000000000E+00 0. -1.
          4    1    1    2  501    0  0.23713483038E-02 -0.23427554222E+01  0.13534621693E+01  0.27056179397E+01  0.00000000000E+00 0.  1.
         -4    1    1    2    0  501 -0.23713483038E-02  0.23427554222E+01  0.86353850726E+01  0.89475350764E+01  0.00000000000E+00 0. -1.
<mgrwt>
<rscale>  0 0.23427566E+01</rscale>
<asrwt>0</asrwt>
<pdfrwt beam="1">0</pdfrwt>
<pdfrwt beam="2">0</pdfrwt>
<totfact> 0.17780202E+12</totfact>
</mgrwt>
</event>
<event>
 4    2  0.1993797E+006  0.6297278E+01  0.7546771E-02  0.1994011E+00
         22   -1    0    0    0    0  0.00000000000E+00  0.00000000000E+00  0.69068819204E+01  0.69068819204E+01  0.00000000000E+00 0.  1.
         22   -1    0    0    0    0 -0.00000000000E+00 -0.00000000000E+00 -0.89287633420E+01  0.89287633420E+01  0.00000000000E+00 0. -1.
          4    1    1    2  501    0  0.58026287110E+01 -0.24464688520E+01  0.37197068451E+01  0.73138176635E+01  0.00000000000E+00 0.  1.
         -4    1    1    2    0  501 -0.58026287110E+01  0.24464688520E+01 -0.57415882666E+01  0.85218275989E+01  0.00000000000E+00 0. -1.
<mgrwt>
<rscale>  0 0.62972780E+01</rscale>
<asrwt>0</asrwt>
<pdfrwt beam="1">0</pdfrwt>
<pdfrwt beam="2">0</pdfrwt>
<totfact> 0.19118321E+11</totfact>
</mgrwt>
</event>
<event>
 4    2  0.1993797E+006  0.2036681E+01  0.7546771E-02  0.2956397E+00
         22   -1    0    0    0    0  0.00000000000E+00  0.00000000000E+00  0.21349167400E+01  0.21349167400E+01  0.00000000000E+00 0. -1.
         22   -1    0    0    0    0 -0.00000000000E+00 -0.00000000000E+00 -0.22174294113E+01  0.22174294113E+01  0.00000000000E+00 0.  1.
          4    1    1    2  501    0  0.19780103807E+01 -0.48532986051E+00  0.72435956456E+00  0.21616583723E+01  0.00000000000E+00 0.  1.
         -4    1    1    2    0  501 -0.19780103807E+01  0.48532986051E+00 -0.80687223584E+00  0.21906877789E+01  0.00000000000E+00 0. -1.
<mgrwt>
<rscale>  0 0.20366812E+01</rscale>
<asrwt>0</asrwt>
<pdfrwt beam="1">0</pdfrwt>
<pdfrwt beam="2">0</pdfrwt>
<totfact> 0.39408183E+12</totfact>
</mgrwt>
</event>
<event>
 4    2  0.1993797E+006  0.2029563E+01  0.7546771E-02  0.2961051E+00
         22   -1    0    0    0    0  0.00000000000E+00  0.00000000000E+00  0.61752793693E+01  0.61752793693E+01  0.00000000000E+00 0. -1.
         22   -1    0    0    0    0 -0.00000000000E+00 -0.00000000000E+00 -0.84756199227E+00  0.84756199227E+00  0.00000000000E+00 0.  1.
          4    1    1    2  501    0  0.90140996354E+00 -0.18184020547E+01  0.42844313013E+01  0.47408308903E+01  0.00000000000E+00 0. -1.
         -4    1    1    2    0  501 -0.90140996354E+00  0.18184020547E+01  0.10432860757E+01  0.22820104712E+01  0.00000000000E+00 0.  1.
<mgrwt>
<rscale>  0 0.20295630E+01</rscale>
<asrwt>0</asrwt>
<pdfrwt beam="1">0</pdfrwt>
<pdfrwt beam="2">0</pdfrwt>
<totfact> 0.34180713E+12</totfact>
</mgrwt>
</event>
<event>
 4    2  0.1993797E+006  0.2214057E+01  0.7546771E-02  0.2849810E+00
         22   -1    0    0    0    0  0.00000000000E+00  0.00000000000E+00  0.16802328046E+01  0.16802328046E+01  0.00000000000E+00 0.  1.
         22   -1    0    0    0    0 -0.00000000000E+00 -0.00000000000E+00 -0.40913875903E+01  0.40913875903E+01  0.00000000000E+00 0. -1.
          4    1    1    2  501    0 -0.22092437312E+01  0.14591698725E+00  0.34020716276E+00  0.22400425319E+01  0.00000000000E+00 0.  1.
         -4    1    1    2    0  501  0.22092437312E+01 -0.14591698725E+00 -0.27513619484E+01  0.35315778630E+01  0.00000000000E+00 0. -1.
<mgrwt>
<rscale>  0 0.22140573E+01</rscale>
<asrwt>0</asrwt>
<pdfrwt beam="1">0</pdfrwt>
<pdfrwt beam="2">0</pdfrwt>
<totfact> 0.25411088E+12</totfact>
</mgrwt>
</event>
<event>
 4    2  0.1993797E+006  0.3691825E+01  0.7546771E-02  0.2340381E+00
         22   -1    0    0    0    0  0.00000000000E+00  0.00000000000E+00  0.14502357304E+02  0.14502357304E+02  0.00000000000E+00 0. -1.
         22   -1    0    0    0    0 -0.00000000000E+00 -0.00000000000E+00 -0.59370794711E+01  0.59370794711E+01  0.00000000000E+00 0.  1.
          4    1    1    2  501    0  0.31453024442E+01  0.19330409273E+01  0.13658659229E+02  0.14148800183E+02  0.00000000000E+00 0. -1.
         -4    1    1    2    0  501 -0.31453024442E+01 -0.19330409273E+01 -0.50933813958E+01  0.62906365922E+01  0.00000000000E+00 0.  1.
<mgrwt>
<rscale>  0 0.36918254E+01</rscale>
<asrwt>0</asrwt>
<pdfrwt beam="1">0</pdfrwt>
<pdfrwt beam="2">0</pdfrwt>
<totfact> 0.12690190E+11</totfact>
</mgrwt>
</event>
<event>
 4    2  0.1993797E+006  0.2977065E+01  0.7546771E-02  0.2529478E+00
         22   -1    0    0    0    0  0.00000000000E+00  0.00000000000E+00  0.61591826916E+00  0.61591826916E+00  0.00000000000E+00 0.  1.
         22   -1    0    0    0    0 -0.00000000000E+00 -0.00000000000E+00 -0.35457613890E+02  0.35457613890E+02  0.00000000000E+00 0. -1.
          4    1    1    2  501    0  0.10858451177E+00  0.29750845796E+01 -0.35176717621E+01  0.46083547474E+01  0.00000000000E+00 0.  1.
         -4    1    1    2    0  501 -0.10858451177E+00 -0.29750845796E+01 -0.31324023859E+02  0.31465177412E+02  0.00000000000E+00 0. -1.
<mgrwt>
<rscale>  0 0.29770655E+01</rscale>
<asrwt>0</asrwt>
<pdfrwt beam="1">0</pdfrwt>
<pdfrwt beam="2">0</pdfrwt>
<totfact> 0.56931186E+11</totfact>
</mgrwt>
</event>
<event>
 4    2  0.1993797E+006  0.4852322E+01  0.7546771E-02  0.2141055E+00
         22   -1    0    0    0    0  0.00000000000E+00  0.00000000000E+00  0.16265843194E+02  0.16265843194E+02  0.00000000000E+00 0.  1.
         22   -1    0    0    0    0 -0.00000000000E+00 -0.00000000000E+00 -0.35757390395E+01  0.35757390395E+01  0.00000000000E+00 0. -1.
          4    1    1    2  501    0  0.45760230517E+01  0.16140146525E+01  0.13998765663E+02  0.14815885743E+02  0.00000000000E+00 0.  1.
         -4    1    1    2    0  501 -0.45760230517E+01 -0.16140146525E+01 -0.13086615086E+01  0.50256964903E+01  0.00000000000E+00 0. -1.
<mgrwt>
<rscale>  0 0.48523222E+01</rscale>
<asrwt>0</asrwt>
<pdfrwt beam="1">0</pdfrwt>
<pdfrwt beam="2">0</pdfrwt>
<totfact> 0.20055197E+11</totfact>
</mgrwt>
</event>
<event>
 4    2  0.1993797E+006  0.2192655E+01  0.7546771E-02  0.2861788E+00
         22   -1    0    0    0    0  0.00000000000E+00  0.00000000000E+00  0.44122542610E+01  0.44122542610E+01  0.00000000000E+00 0.  1.
         22   -1    0    0    0    0 -0.00000000000E+00 -0.00000000000E+00 -0.40225271774E+01  0.40225271774E+01  0.00000000000E+00 0. -1.
          4    1    1    2  501    0  0.19575181747E+01 -0.98785590595E+00  0.37960247270E+01  0.43837815209E+01  0.00000000000E+00 0.  1.
         -4    1    1    2    0  501 -0.19575181747E+01  0.98785590595E+00 -0.34062976434E+01  0.40509999174E+01  0.00000000000E+00 0. -1.
<mgrwt>
<rscale>  0 0.21926552E+01</rscale>
<asrwt>0</asrwt>
<pdfrwt beam="1">0</pdfrwt>
<pdfrwt beam="2">0</pdfrwt>
<totfact> 0.84114137E+11</totfact>
</mgrwt>
</event>
<event>
 4    2  0.1993797E+006  0.3193355E+01  0.7546771E-02  0.2464397E+00
         22   -1    0    0    0    0  0.00000000000E+00  0.00000000000E+00  0.31471214627E+02  0.31471214627E+02  0.00000000000E+00 0. -1.
         22   -1    0    0    0    0 -0.00000000000E+00 -0.00000000000E+00 -0.39655589765E+00  0.39655589765E+00  0.00000000000E+00 0.  1.
          4    1    1    2  501    0  0.30087674467E+01  0.10699707812E+01  0.22351694814E+02  0.22578657624E+02  0.00000000000E+00 0. -1.
         -4    1    1    2    0  501 -0.30087674467E+01 -0.10699707812E+01  0.87229639150E+01  0.92891129008E+01  0.00000000000E+00 0.  1.
<mgrwt>
<rscale>  0 0.31933554E+01</rscale>
<asrwt>0</asrwt>
<pdfrwt beam="1">0</pdfrwt>
<pdfrwt beam="2">0</pdfrwt>
<totfact> 0.10906729E+12</totfact>
</mgrwt>
</event>
<event>
 4    2  0.1993797E+006  0.2294698E+01  0.7546771E-02  0.2806599E+00
         22   -1    0    0    0    0  0.00000000000E+00  0.00000000000E+00  0.27379833533E+01  0.27379833533E+01  0.00000000000E+00 0. -1.
         22   -1    0    0    0    0 -0.00000000000E+00 -0.00000000000E+00 -0.20483052955E+01  0.20483052955E+01  0.00000000000E+00 0.  1.
          4    1    1    2  501    0  0.15675468810E+00  0.22893376329E+01 -0.24664301723E+00  0.23079149914E+01  0.00000000000E+00 0.  1.
         -4    1    1    2    0  501 -0.15675468810E+00 -0.22893376329E+01  0.93632107505E+00  0.24783736573E+01  0.00000000000E+00 0. -1.
<mgrwt>
<rscale>  0 0.22946980E+01</rscale>
<asrwt>0</asrwt>
<pdfrwt beam="1">0</pdfrwt>
<pdfrwt beam="2">0</pdfrwt>
<totfact> 0.32356217E+12</totfact>
</mgrwt>
</event>
<event>
 4    2  0.1993797E+006  0.2012486E+01  0.7546771E-02  0.2972349E+00
         22   -1    0    0    0    0  0.00000000000E+00  0.00000000000E+00  0.17771623834E+01  0.17771623834E+01  0.00000000000E+00 0. -1.
         22   -1    0    0    0    0 -0.00000000000E+00 -0.00000000000E+00 -0.50661885918E+01  0.50661885918E+01  0.00000000000E+00 0.  1.
          4    1    1    2  501    0 -0.12482025014E+01 -0.15786358573E+01  0.89344014631E+00  0.22018937189E+01  0.00000000000E+00 0. -1.
         -4    1    1    2    0  501  0.12482025014E+01  0.15786358573E+01 -0.41824663547E+01  0.46414572563E+01  0.00000000000E+00 0.  1.
<mgrwt>
<rscale>  0 0.20124862E+01</rscale>
<asrwt>0</asrwt>
<pdfrwt beam="1">0</pdfrwt>
<pdfrwt beam="2">0</pdfrwt>
<totfact> 0.18505081E+12</totfact>
</mgrwt>
</event>
<event>
 4    2  0.1993797E+006  0.1175108E+02  0.7546771E-02  0.1714492E+00
         22   -1    0    0    0    0  0.00000000000E+00  0.00000000000E+00  0.38776664217E+01  0.38776664217E+01  0.00000000000E+00 0.  1.
         22   -1    0    0    0    0 -0.00000000000E+00 -0.00000000000E+00 -0.36720598259E+02  0.36720598259E+02  0.00000000000E+00 0. -1.
          4    1    1    2  501    0  0.24658286384E+01  0.11489459146E+02 -0.19949925319E+02  0.23153563496E+02  0.00000000000E+00 0. -1.
         -4    1    1    2    0  501 -0.24658286384E+01 -0.11489459146E+02 -0.12893006518E+02  0.17444701184E+02  0.00000000000E+00 0.  1.
<mgrwt>
<rscale>  0 0.11751084E+02</rscale>
<asrwt>0</asrwt>
<pdfrwt beam="1">0</pdfrwt>
<pdfrwt beam="2">0</pdfrwt>
<totfact> 0.65316425E+10</totfact>
</mgrwt>
</event>
<event>
 4    2  0.1993797E+006  0.3132496E+01  0.7546771E-02  0.2481899E+00
         22   -1    0    0    0    0  0.00000000000E+00  0.00000000000E+00  0.38244404596E+02  0.38244404596E+02  0.00000000000E+00 0.  1.
         22   -1    0    0    0    0 -0.00000000000E+00 -0.00000000000E+00 -0.30808238144E+00  0.30808238144E+00  0.00000000000E+00 0. -1.
          4    1    1    2  501    0  0.12215329955E+00 -0.31301137104E+01  0.26849979904E+02  0.27032091190E+02  0.00000000000E+00 0.  1.
         -4    1    1    2    0  501 -0.12215329955E+00  0.31301137104E+01  0.11086342311E+02  0.11520395788E+02  0.00000000000E+00 0. -1.
<mgrwt>
<rscale>  0 0.31324963E+01</rscale>
<asrwt>0</asrwt>
<pdfrwt beam="1">0</pdfrwt>
<pdfrwt beam="2">0</pdfrwt>
<totfact> 0.11272599E+12</totfact>
</mgrwt>
</event>
<event>
 4    2  0.1993797E+006  0.2420302E+01  0.7546771E-02  0.2744744E+00
         22   -1    0    0    0    0  0.00000000000E+00  0.00000000000E+00  0.12563071889E+01  0.12563071889E+01  0.00000000000E+00 0.  1.
         22   -1    0    0    0    0 -0.00000000000E+00 -0.00000000000E+00 -0.58955013668E+01  0.58955013668E+01  0.00000000000E+00 0. -1.
          4    1    1    2  501    0 -0.13615727066E+01 -0.20009950920E+01 -0.68443382757E+00  0.25152159466E+01  0.00000000000E+00 0.  1.
         -4    1    1    2    0  501  0.13615727066E+01  0.20009950920E+01 -0.39547603504E+01  0.46365926091E+01  0.00000000000E+00 0. -1.
<mgrwt>
<rscale>  0 0.24203020E+01</rscale>
<asrwt>0</asrwt>
<pdfrwt beam="1">0</pdfrwt>
<pdfrwt beam="2">0</pdfrwt>
<totfact> 0.23040126E+12</totfact>
</mgrwt>
</event>
<event>
 4    2  0.1993797E+006  0.3096395E+01  0.7546771E-02  0.2492569E+00
         22   -1    0    0    0    0  0.00000000000E+00  0.00000000000E+00  0.21497726058E+01  0.21497726058E+01  0.00000000000E+00 0.  1.
         22   -1    0    0    0    0 -0.00000000000E+00 -0.00000000000E+00 -0.44606331365E+01  0.44606331365E+01  0.00000000000E+00 0. -1.
          4    1    1    2  501    0 -0.47103011872E-01  0.30960371558E+01 -0.11116541787E+01  0.32898996606E+01  0.00000000000E+00 0.  1.
         -4    1    1    2    0  501  0.47103011872E-01 -0.30960371558E+01 -0.11992063520E+01  0.33205060817E+01  0.00000000000E+00 0. -1.
<mgrwt>
<rscale>  0 0.30963954E+01</rscale>
<asrwt>0</asrwt>
<pdfrwt beam="1">0</pdfrwt>
<pdfrwt beam="2">0</pdfrwt>
<totfact> 0.17261164E+12</totfact>
</mgrwt>
</event>
<event>
 4    2  0.1993797E+006  0.2206839E+01  0.7546771E-02  0.2853825E+00
         22   -1    0    0    0    0  0.00000000000E+00  0.00000000000E+00  0.29022123757E+02  0.29022123757E+02  0.00000000000E+00 0.  1.
         22   -1    0    0    0    0 -0.00000000000E+00 -0.00000000000E+00 -0.16809515827E+00  0.16809515827E+00  0.00000000000E+00 0. -1.
          4    1    1    2  501    0 -0.22064402370E+01  0.41955767852E-01  0.13823566287E+02  0.13998611492E+02  0.00000000000E+00 0.  1.
         -4    1    1    2    0  501  0.22064402370E+01 -0.41955767852E-01  0.15030462312E+02  0.15191607423E+02  0.00000000000E+00 0. -1.
<mgrwt>
<rscale>  0 0.22068391E+01</rscale>
<asrwt>0</asrwt>
<pdfrwt beam="1">0</pdfrwt>
<pdfrwt beam="2">0</pdfrwt>
<totfact> 0.31600487E+12</totfact>
</mgrwt>
</event>
<event>
 4    2  0.1993797E+006  0.2218247E+01  0.7546771E-02  0.2847491E+00
         22   -1    0    0    0    0  0.00000000000E+00  0.00000000000E+00  0.42512862489E+02  0.42512862489E+02  0.00000000000E+00 0. -1.
         22   -1    0    0    0    0 -0.00000000000E+00 -0.00000000000E+00 -0.17065626638E+00  0.17065626638E+00  0.00000000000E+00 0.  1.
          4    1    1    2  501    0  0.10695568207E+01  0.19433651251E+01  0.33277161268E+02  0.33351013206E+02  0.00000000000E+00 0. -1.
         -4    1    1    2    0  501 -0.10695568207E+01 -0.19433651251E+01  0.90650449551E+01  0.93325055500E+01  0.00000000000E+00 0.  1.
<mgrwt>
<rscale>  0 0.22182470E+01</rscale>
<asrwt>0</asrwt>
<pdfrwt beam="1">0</pdfrwt>
<pdfrwt beam="2">0</pdfrwt>
<totfact> 0.19010714E+12</totfact>
</mgrwt>
</event>
<event>
 4    2  0.1993797E+006  0.2049536E+01  0.7546771E-02  0.2948071E+00
         22   -1    0    0    0    0  0.00000000000E+00  0.00000000000E+00  0.38934025166E+01  0.38934025166E+01  0.00000000000E+00 0.  1.
         22   -1    0    0    0    0 -0.00000000000E+00 -0.00000000000E+00 -0.37771072225E+01  0.37771072225E+01  0.00000000000E+00 0. -1.
          4    1    1    2  501    0 -0.20493722131E+01 -0.25948449693E-01  0.32996926992E+01  0.38844010734E+01  0.00000000000E+00 0.  1.
         -4    1    1    2    0  501  0.20493722131E+01  0.25948449693E-01 -0.31833974051E+01  0.37861086658E+01  0.00000000000E+00 0. -1.
<mgrwt>
<rscale>  0 0.20495365E+01</rscale>
<asrwt>0</asrwt>
<pdfrwt beam="1">0</pdfrwt>
<pdfrwt beam="2">0</pdfrwt>
<totfact> 0.10495346E+12</totfact>
</mgrwt>
</event>
<event>
 4    2  0.1993797E+006  0.2297938E+01  0.7546771E-02  0.2804923E+00
         22   -1    0    0    0    0  0.00000000000E+00  0.00000000000E+00  0.42891858014E+01  0.42891858014E+01  0.00000000000E+00 0. -1.
         22   -1    0    0    0    0 -0.00000000000E+00 -0.00000000000E+00 -0.20561210499E+01  0.20561210499E+01  0.00000000000E+00 0.  1.
          4    1    1    2  501    0  0.11913616581E+00  0.22948476093E+01  0.31262013531E+01  0.38799038488E+01  0.00000000000E+00 0. -1.
         -4    1    1    2    0  501 -0.11913616581E+00 -0.22948476093E+01 -0.89313660160E+00  0.24654030025E+01  0.00000000000E+00 0.  1.
<mgrwt>
<rscale>  0 0.22979380E+01</rscale>
<asrwt>0</asrwt>
<pdfrwt beam="1">0</pdfrwt>
<pdfrwt beam="2">0</pdfrwt>
<totfact> 0.19034561E+12</totfact>
</mgrwt>
</event>
<event>
 4    2  0.1993797E+006  0.2656728E+01  0.7546771E-02  0.2643223E+00
         22   -1    0    0    0    0  0.00000000000E+00  0.00000000000E+00  0.22634037144E+01  0.22634037144E+01  0.00000000000E+00 0. -1.
         22   -1    0    0    0    0 -0.00000000000E+00 -0.00000000000E+00 -0.14967284064E+02  0.14967284064E+02  0.00000000000E+00 0.  1.
          4    1    1    2  501    0  0.19812022755E+01  0.17700393247E+01  0.13135479168E+01  0.29637155392E+01  0.00000000000E+00 0. -1.
         -4    1    1    2    0  501 -0.19812022755E+01 -0.17700393247E+01 -0.14017428267E+02  0.14266972239E+02  0.00000000000E+00 0.  1.
<mgrwt>
<rscale>  0 0.26567276E+01</rscale>
<asrwt>0</asrwt>
<pdfrwt beam="1">0</pdfrwt>
<pdfrwt beam="2">0</pdfrwt>
<totfact> 0.37886767E+11</totfact>
</mgrwt>
</event>
<event>
 4    2  0.1993797E+006  0.3172609E+01  0.7546771E-02  0.2470296E+00
         22   -1    0    0    0    0  0.00000000000E+00  0.00000000000E+00  0.23082728792E+02  0.23082728792E+02  0.00000000000E+00 0.  1.
         22   -1    0    0    0    0 -0.00000000000E+00 -0.00000000000E+00 -0.50789990285E+00  0.50789990285E+00  0.00000000000E+00 0. -1.
          4    1    1    2  501    0  0.18762528480E+01  0.25583433555E+01  0.15723547187E+02  0.16040429596E+02  0.00000000000E+00 0.  1.
         -4    1    1    2    0  501 -0.18762528480E+01 -0.25583433555E+01  0.68512817022E+01  0.75501990992E+01  0.00000000000E+00 0. -1.
<mgrwt>
<rscale>  0 0.31726086E+01</rscale>
<asrwt>0</asrwt>
<pdfrwt beam="1">0</pdfrwt>
<pdfrwt beam="2">0</pdfrwt>
<totfact> 0.12219604E+12</totfact>
</mgrwt>
</event>
<event>
 4    2  0.1993797E+006  0.2081068E+01  0.7546771E-02  0.2928074E+00
         22   -1    0    0    0    0  0.00000000000E+00  0.00000000000E+00  0.53385697645E+00  0.53385697645E+00  0.00000000000E+00 0. -1.
         22   -1    0    0    0    0 -0.00000000000E+00 -0.00000000000E+00 -0.28402660448E+02  0.28402660448E+02  0.00000000000E+00 0.  1.
          4    1    1    2  501    0  0.15965662083E+00  0.20749347447E+01 -0.17056844492E+01  0.26907626932E+01  0.00000000000E+00 0. -1.
         -4    1    1    2    0  501 -0.15965662083E+00 -0.20749347447E+01 -0.26163119022E+02  0.26245754731E+02  0.00000000000E+00 0.  1.
<mgrwt>
<rscale>  0 0.20810681E+01</rscale>
<asrwt>0</asrwt>
<pdfrwt beam="1">0</pdfrwt>
<pdfrwt beam="2">0</pdfrwt>
<totfact> 0.88875807E+11</totfact>
</mgrwt>
</event>
<event>
 4    2  0.1993797E+006  0.2272940E+01  0.7546771E-02  0.2817970E+00
         22   -1    0    0    0    0  0.00000000000E+00  0.00000000000E+00  0.51539059183E+02  0.51539059183E+02  0.00000000000E+00 0.  1.
         22   -1    0    0    0    0 -0.00000000000E+00 -0.00000000000E+00 -0.10718335414E+00  0.10718335414E+00  0.00000000000E+00 0. -1.
          4    1    1    2  501    0 -0.38598136023E+00 -0.22399268768E+01  0.19143255823E+02  0.19277720237E+02  0.00000000000E+00 0. -1.
         -4    1    1    2    0  501  0.38598136023E+00  0.22399268768E+01  0.32288620006E+02  0.32368522300E+02  0.00000000000E+00 0.  1.
<mgrwt>
<rscale>  0 0.22729395E+01</rscale>
<asrwt>0</asrwt>
<pdfrwt beam="1">0</pdfrwt>
<pdfrwt beam="2">0</pdfrwt>
<totfact> 0.24750977E+12</totfact>
</mgrwt>
</event>
<event>
 4    2  0.1993797E+006  0.2808124E+01  0.7546771E-02  0.2586528E+00
         22   -1    0    0    0    0  0.00000000000E+00  0.00000000000E+00  0.21088204379E+01  0.21088204379E+01  0.00000000000E+00 0. -1.
         22   -1    0    0    0    0 -0.00000000000E+00 -0.00000000000E+00 -0.38060142915E+01  0.38060142915E+01  0.00000000000E+00 0.  1.
          4    1    1    2  501    0  0.26399153423E+01  0.95729048968E+00 -0.45711105091E+00  0.28450849915E+01  0.00000000000E+00 0. -1.
         -4    1    1    2    0  501 -0.26399153423E+01 -0.95729048968E+00 -0.12400828027E+01  0.30697497379E+01  0.00000000000E+00 0.  1.
<mgrwt>
<rscale>  0 0.28081236E+01</rscale>
<asrwt>0</asrwt>
<pdfrwt beam="1">0</pdfrwt>
<pdfrwt beam="2">0</pdfrwt>
<totfact> 0.21277555E+12</totfact>
</mgrwt>
</event>
<event>
 4    2  0.1993797E+006  0.3459654E+01  0.7546771E-02  0.2394253E+00
         22   -1    0    0    0    0  0.00000000000E+00  0.00000000000E+00  0.39081809986E+02  0.39081809986E+02  0.00000000000E+00 0. -1.
         22   -1    0    0    0    0 -0.00000000000E+00 -0.00000000000E+00 -0.31972291969E+00  0.31972291969E+00  0.00000000000E+00 0.  1.
          4    1    1    2  501    0 -0.21205053326E+01 -0.27336172934E+01  0.15338439326E+02  0.15723769501E+02  0.00000000000E+00 0.  1.
         -4    1    1    2    0  501  0.21205053326E+01  0.27336172934E+01  0.23423647740E+02  0.23677763404E+02  0.00000000000E+00 0. -1.
<mgrwt>
<rscale>  0 0.34596541E+01</rscale>
<asrwt>0</asrwt>
<pdfrwt beam="1">0</pdfrwt>
<pdfrwt beam="2">0</pdfrwt>
<totfact> 0.10514168E+12</totfact>
</mgrwt>
</event>
<event>
 4    2  0.1993797E+006  0.3686721E+01  0.7546771E-02  0.2341501E+00
         22   -1    0    0    0    0  0.00000000000E+00  0.00000000000E+00  0.35839361262E+02  0.35839361262E+02  0.00000000000E+00 0.  1.
         22   -1    0    0    0    0 -0.00000000000E+00 -0.00000000000E+00 -0.45249362555E+00  0.45249362555E+00  0.00000000000E+00 0. -1.
          4    1    1    2  501    0 -0.13032328022E+01  0.34486951917E+01  0.10392618233E+02  0.11027167723E+02  0.00000000000E+00 0. -1.
         -4    1    1    2    0  501  0.13032328022E+01 -0.34486951917E+01  0.24994249404E+02  0.25264687164E+02  0.00000000000E+00 0.  1.
<mgrwt>
<rscale>  0 0.36867213E+01</rscale>
<asrwt>0</asrwt>
<pdfrwt beam="1">0</pdfrwt>
<pdfrwt beam="2">0</pdfrwt>
<totfact> 0.79562024E+11</totfact>
</mgrwt>
</event>
<event>
 4    2  0.1993797E+006  0.2498883E+01  0.7546771E-02  0.2709023E+00
         22   -1    0    0    0    0  0.00000000000E+00  0.00000000000E+00  0.51695963883E+01  0.51695963883E+01  0.00000000000E+00 0.  1.
         22   -1    0    0    0    0 -0.00000000000E+00 -0.00000000000E+00 -0.12860596859E+01  0.12860596859E+01  0.00000000000E+00 0. -1.
          4    1    1    2  501    0 -0.22098607147E+01  0.11665908782E+01  0.11460904904E+01  0.27491711601E+01  0.00000000000E+00 0. -1.
         -4    1    1    2    0  501  0.22098607147E+01 -0.11665908782E+01  0.27374462120E+01  0.37064849141E+01  0.00000000000E+00 0.  1.
<mgrwt>
<rscale>  0 0.24988835E+01</rscale>
<asrwt>0</asrwt>
<pdfrwt beam="1">0</pdfrwt>
<pdfrwt beam="2">0</pdfrwt>
<totfact> 0.26217311E+12</totfact>
</mgrwt>
</event>
<event>
 4    2  0.1993797E+006  0.2110824E+01  0.7546771E-02  0.2909736E+00
         22   -1    0    0    0    0  0.00000000000E+00  0.00000000000E+00  0.10468299127E+01  0.10468299127E+01  0.00000000000E+00 0.  1.
         22   -1    0    0    0    0 -0.00000000000E+00 -0.00000000000E+00 -0.44459259462E+01  0.44459259462E+01  0.00000000000E+00 0. -1.
          4    1    1    2  501    0  0.14628497613E+01  0.15217257349E+01 -0.11322964930E+01  0.23953442309E+01  0.00000000000E+00 0.  1.
         -4    1    1    2    0  501 -0.14628497613E+01 -0.15217257349E+01 -0.22667995405E+01  0.30974116280E+01  0.00000000000E+00 0. -1.
<mgrwt>
<rscale>  0 0.21108242E+01</rscale>
<asrwt>0</asrwt>
<pdfrwt beam="1">0</pdfrwt>
<pdfrwt beam="2">0</pdfrwt>
<totfact> 0.39661143E+12</totfact>
</mgrwt>
</event>
<event>
 4    2  0.1993797E+006  0.2655386E+01  0.7546771E-02  0.2643751E+00
         22   -1    0    0    0    0  0.00000000000E+00  0.00000000000E+00  0.77795075347E+00  0.77795075347E+00  0.00000000000E+00 0. -1.
         22   -1    0    0    0    0 -0.00000000000E+00 -0.00000000000E+00 -0.10444224814E+02  0.10444224814E+02  0.00000000000E+00 0.  1.
          4    1    1    2  501    0  0.23667796358E+01 -0.12039224748E+01 -0.27930975989E+01  0.38538901602E+01  0.00000000000E+00 0. -1.
         -4    1    1    2    0  501 -0.23667796358E+01  0.12039224748E+01 -0.68731764616E+01  0.73682854073E+01  0.00000000000E+00 0.  1.
<mgrwt>
<rscale>  0 0.26553861E+01</rscale>
<asrwt>0</asrwt>
<pdfrwt beam="1">0</pdfrwt>
<pdfrwt beam="2">0</pdfrwt>
<totfact> 0.20040433E+12</totfact>
</mgrwt>
</event>
<event>
 4    2  0.1993797E+006  0.2172805E+01  0.7546771E-02  0.2873099E+00
         22   -1    0    0    0    0  0.00000000000E+00  0.00000000000E+00  0.17315312588E+00  0.17315312588E+00  0.00000000000E+00 0. -1.
         22   -1    0    0    0    0 -0.00000000000E+00 -0.00000000000E+00 -0.28626503734E+02  0.28626503734E+02  0.00000000000E+00 0.  1.
          4    1    1    2  501    0 -0.14735972552E+01  0.15967442894E+01 -0.11086700340E+02  0.11297610616E+02  0.00000000000E+00 0. -1.
         -4    1    1    2    0  501  0.14735972552E+01 -0.15967442894E+01 -0.17366650268E+02  0.17502046244E+02  0.00000000000E+00 0.  1.
<mgrwt>
<rscale>  0 0.21728049E+01</rscale>
<asrwt>0</asrwt>
<pdfrwt beam="1">0</pdfrwt>
<pdfrwt beam="2">0</pdfrwt>
<totfact> 0.31112337E+12</totfact>
</mgrwt>
</event>
<event>
 4    2  0.1993797E+006  0.2876222E+01  0.7546771E-02  0.2562804E+00
         22   -1    0    0    0    0  0.00000000000E+00  0.00000000000E+00  0.60339195168E+01  0.60339195168E+01  0.00000000000E+00 0.  1.
         22   -1    0    0    0    0 -0.00000000000E+00 -0.00000000000E+00 -0.27928441426E+01  0.27928441426E+01  0.00000000000E+00 0. -1.
          4    1    1    2  501    0 -0.14702461646E+01 -0.24720491864E+01  0.47695214458E+01  0.55696486233E+01  0.00000000000E+00 0.  1.
         -4    1    1    2    0  501  0.14702461646E+01  0.24720491864E+01 -0.15284460716E+01  0.32571150361E+01  0.00000000000E+00 0. -1.
<mgrwt>
<rscale>  0 0.28762216E+01</rscale>
<asrwt>0</asrwt>
<pdfrwt beam="1">0</pdfrwt>
<pdfrwt beam="2">0</pdfrwt>
<totfact> 0.89003962E+11</totfact>
</mgrwt>
</event>
<event>
 4    2  0.1993797E+006  0.2349921E+01  0.7546771E-02  0.2778635E+00
         22   -1    0    0    0    0  0.00000000000E+00  0.00000000000E+00  0.20157867258E+01  0.20157867258E+01  0.00000000000E+00 0. -1.
         22   -1    0    0    0    0 -0.00000000000E+00 -0.00000000000E+00 -0.31074084764E+01  0.31074084764E+01  0.00000000000E+00 0.  1.
          4    1    1    2  501    0  0.53295340337E-01  0.23493169917E+01  0.33567608201E+00  0.23737752954E+01  0.00000000000E+00 0. -1.
         -4    1    1    2    0  501 -0.53295340337E-01 -0.23493169917E+01 -0.14272978326E+01  0.27494199068E+01  0.00000000000E+00 0.  1.
<mgrwt>
<rscale>  0 0.23499214E+01</rscale>
<asrwt>0</asrwt>
<pdfrwt beam="1">0</pdfrwt>
<pdfrwt beam="2">0</pdfrwt>
<totfact> 0.28434039E+12</totfact>
</mgrwt>
</event>
<event>
 4    2  0.1993797E+006  0.2310983E+01  0.7546771E-02  0.2798221E+00
         22   -1    0    0    0    0  0.00000000000E+00  0.00000000000E+00  0.19966964040E+01  0.19966964040E+01  0.00000000000E+00 0.  1.
         22   -1    0    0    0    0 -0.00000000000E+00 -0.00000000000E+00 -0.10794518938E+03  0.10794518938E+03  0.00000000000E+00 0. -1.
          4    1    1    2  501    0 -0.45271898886E+00  0.22662052246E+01  0.13113709322E+01  0.26571289628E+01  0.00000000000E+00 0.  1.
         -4    1    1    2    0  501  0.45271898886E+00 -0.22662052246E+01 -0.10725986391E+03  0.10728475682E+03  0.00000000000E+00 0. -1.
<mgrwt>
<rscale>  0 0.23109826E+01</rscale>
<asrwt>0</asrwt>
<pdfrwt beam="1">0</pdfrwt>
<pdfrwt beam="2">0</pdfrwt>
<totfact> 0.33114708E+10</totfact>
</mgrwt>
</event>
<event>
 4    2  0.1993797E+006  0.2293596E+01  0.7546771E-02  0.2807170E+00
         22   -1    0    0    0    0  0.00000000000E+00  0.00000000000E+00  0.48542438772E+02  0.48542438772E+02  0.00000000000E+00 0.  1.
         22   -1    0    0    0    0 -0.00000000000E+00 -0.00000000000E+00 -0.10922003488E+00  0.10922003488E+00  0.00000000000E+00 0. -1.
          4    1    1    2  501    0  0.20608072184E+01  0.10068045788E+01  0.26361652663E+02  0.26461241712E+02  0.00000000000E+00 0.  1.
         -4    1    1    2    0  501 -0.20608072184E+01 -0.10068045788E+01  0.22071566074E+02  0.22190417094E+02  0.00000000000E+00 0. -1.
<mgrwt>
<rscale>  0 0.22935958E+01</rscale>
<asrwt>0</asrwt>
<pdfrwt beam="1">0</pdfrwt>
<pdfrwt beam="2">0</pdfrwt>
<totfact> 0.26233091E+12</totfact>
</mgrwt>
</event>
<event>
 4    2  0.1993797E+006  0.2010257E+01  0.7546771E-02  0.2973838E+00
         22   -1    0    0    0    0  0.00000000000E+00  0.00000000000E+00  0.33358602348E+00  0.33358602348E+00  0.00000000000E+00 0.  1.
         22   -1    0    0    0    0 -0.00000000000E+00 -0.00000000000E+00 -0.26061619919E+02  0.26061619919E+02  0.00000000000E+00 0. -1.
          4    1    1    2  501    0  0.19624429916E+01  0.43583207875E+00 -0.32092655882E+01  0.37868876022E+01  0.00000000000E+00 0. -1.
         -4    1    1    2    0  501 -0.19624429916E+01 -0.43583207875E+00 -0.22518768308E+02  0.22608318341E+02  0.00000000000E+00 0.  1.
<mgrwt>
<rscale>  0 0.20102567E+01</rscale>
<asrwt>0</asrwt>
<pdfrwt beam="1">0</pdfrwt>
<pdfrwt beam="2">0</pdfrwt>
<totfact> 0.16833196E+12</totfact>
</mgrwt>
</event>
<event>
 4    2  0.1993797E+006  0.2239292E+01  0.7546771E-02  0.2835969E+00
         22   -1    0    0    0    0  0.00000000000E+00  0.00000000000E+00  0.39993041489E+00  0.39993041489E+00  0.00000000000E+00 0.  1.
         22   -1    0    0    0    0 -0.00000000000E+00 -0.00000000000E+00 -0.20950419332E+02  0.20950419332E+02  0.00000000000E+00 0. -1.
          4    1    1    2  501    0  0.20326625691E+01 -0.93952844244E+00 -0.35107954265E+01  0.41641464120E+01  0.00000000000E+00 0.  1.
         -4    1    1    2    0  501 -0.20326625691E+01  0.93952844244E+00 -0.17039693491E+02  0.17186203335E+02  0.00000000000E+00 0. -1.
<mgrwt>
<rscale>  0 0.22392925E+01</rscale>
<asrwt>0</asrwt>
<pdfrwt beam="1">0</pdfrwt>
<pdfrwt beam="2">0</pdfrwt>
<totfact> 0.18063513E+12</totfact>
</mgrwt>
</event>
<event>
 4    2  0.1993797E+006  0.2033807E+01  0.7546771E-02  0.2958272E+00
         22   -1    0    0    0    0  0.00000000000E+00  0.00000000000E+00  0.10420836493E+01  0.10420836493E+01  0.00000000000E+00 0.  1.
         22   -1    0    0    0    0 -0.00000000000E+00 -0.00000000000E+00 -0.92345560121E+01  0.92345560121E+01  0.00000000000E+00 0. -1.
          4    1    1    2  501    0 -0.60565728435E+00  0.19415334604E+01 -0.21632601210E+00  0.20452798995E+01  0.00000000000E+00 0.  1.
         -4    1    1    2    0  501  0.60565728435E+00 -0.19415334604E+01 -0.79761463506E+01  0.82313597619E+01  0.00000000000E+00 0. -1.
<mgrwt>
<rscale>  0 0.20338075E+01</rscale>
<asrwt>0</asrwt>
<pdfrwt beam="1">0</pdfrwt>
<pdfrwt beam="2">0</pdfrwt>
<totfact> 0.16666595E+12</totfact>
</mgrwt>
</event>
<event>
 4    2  0.1993797E+006  0.2400831E+01  0.7546771E-02  0.2753933E+00
         22   -1    0    0    0    0  0.00000000000E+00  0.00000000000E+00  0.40124062814E+01  0.40124062814E+01  0.00000000000E+00 0.  1.
         22   -1    0    0    0    0 -0.00000000000E+00 -0.00000000000E+00 -0.18161233725E+01  0.18161233725E+01  0.00000000000E+00 0. -1.
          4    1    1    2  501    0  0.10261289182E+01  0.21704950613E+01  0.24304625288E+01  0.34163046515E+01  0.00000000000E+00 0.  1.
         -4    1    1    2    0  501 -0.10261289182E+01 -0.21704950613E+01 -0.23417961989E+00  0.24122250024E+01  0.00000000000E+00 0. -1.
<mgrwt>
<rscale>  0 0.24008310E+01</rscale>
<asrwt>0</asrwt>
<pdfrwt beam="1">0</pdfrwt>
<pdfrwt beam="2">0</pdfrwt>
<totfact> 0.23769343E+12</totfact>
</mgrwt>
</event>
<event>
 4    2  0.1993797E+006  0.2067390E+01  0.7546771E-02  0.2936675E+00
         22   -1    0    0    0    0  0.00000000000E+00  0.00000000000E+00  0.71815886125E+00  0.71815886125E+00  0.00000000000E+00 0.  1.
         22   -1    0    0    0    0 -0.00000000000E+00 -0.00000000000E+00 -0.16354140166E+02  0.16354140166E+02  0.00000000000E+00 0. -1.
          4    1    1    2  501    0  0.14524221413E+01 -0.14712489057E+01 -0.10099757594E+01  0.23009029649E+01  0.00000000000E+00 0.  1.
         -4    1    1    2    0  501 -0.14524221413E+01  0.14712489057E+01 -0.14626005546E+02  0.14771396063E+02  0.00000000000E+00 0. -1.
<mgrwt>
<rscale>  0 0.20673905E+01</rscale>
<asrwt>0</asrwt>
<pdfrwt beam="1">0</pdfrwt>
<pdfrwt beam="2">0</pdfrwt>
<totfact> 0.12677007E+12</totfact>
</mgrwt>
</event>
<event>
 4    2  0.1993797E+006  0.2048492E+01  0.7546771E-02  0.2948744E+00
         22   -1    0    0    0    0  0.00000000000E+00  0.00000000000E+00  0.10523334786E+00  0.10523334786E+00  0.00000000000E+00 0. -1.
         22   -1    0    0    0    0 -0.00000000000E+00 -0.00000000000E+00 -0.39877165450E+02  0.39877165450E+02  0.00000000000E+00 0.  1.
          4    1    1    2  501    0  0.20405148962E+01 -0.18060076868E+00 -0.19978518186E+02  0.20083264341E+02  0.00000000000E+00 0. -1.
         -4    1    1    2    0  501 -0.20405148962E+01  0.18060076868E+00 -0.19793413916E+02  0.19899134457E+02  0.00000000000E+00 0.  1.
<mgrwt>
<rscale>  0 0.20484916E+01</rscale>
<asrwt>0</asrwt>
<pdfrwt beam="1">0</pdfrwt>
<pdfrwt beam="2">0</pdfrwt>
<totfact> 0.35341608E+12</totfact>
</mgrwt>
</event>
<event>
 4    2  0.1993797E+006  0.2256129E+01  0.7546771E-02  0.2826898E+00
         22   -1    0    0    0    0  0.00000000000E+00  0.00000000000E+00  0.10755560437E+01  0.10755560437E+01  0.00000000000E+00 0.  1.
         22   -1    0    0    0    0 -0.00000000000E+00 -0.00000000000E+00 -0.48178955628E+01  0.48178955628E+01  0.00000000000E+00 0. -1.
          4    1    1    2  501    0  0.62137998932E+00  0.21688722592E+01 -0.14789692969E+01  0.26976786593E+01  0.00000000000E+00 0.  1.
         -4    1    1    2    0  501 -0.62137998932E+00 -0.21688722592E+01 -0.22633702222E+01  0.31957729472E+01  0.00000000000E+00 0. -1.
<mgrwt>
<rscale>  0 0.22561294E+01</rscale>
<asrwt>0</asrwt>
<pdfrwt beam="1">0</pdfrwt>
<pdfrwt beam="2">0</pdfrwt>
<totfact> 0.34971336E+12</totfact>
</mgrwt>
</event>
<event>
 4    2  0.1993797E+006  0.2286011E+01  0.7546771E-02  0.2811114E+00
         22   -1    0    0    0    0  0.00000000000E+00  0.00000000000E+00  0.20529243941E+02  0.20529243941E+02  0.00000000000E+00 0.  1.
         22   -1    0    0    0    0 -0.00000000000E+00 -0.00000000000E+00 -0.69439479351E+00  0.69439479351E+00  0.00000000000E+00 0. -1.
          4    1    1    2  501    0  0.14511129439E+01 -0.17663851440E+01  0.18363079123E+02  0.18504824240E+02  0.00000000000E+00 0.  1.
         -4    1    1    2    0  501 -0.14511129439E+01  0.17663851440E+01  0.14717700240E+01  0.27188144947E+01  0.00000000000E+00 0. -1.
<mgrwt>
<rscale>  0 0.22860108E+01</rscale>
<asrwt>0</asrwt>
<pdfrwt beam="1">0</pdfrwt>
<pdfrwt beam="2">0</pdfrwt>
<totfact> 0.99313280E+11</totfact>
</mgrwt>
</event>
<event>
 4    2  0.1993797E+006  0.3000240E+01  0.7546771E-02  0.2522104E+00
         22   -1    0    0    0    0  0.00000000000E+00  0.00000000000E+00  0.25513473991E+01  0.25513473991E+01  0.00000000000E+00 0. -1.
         22   -1    0    0    0    0 -0.00000000000E+00 -0.00000000000E+00 -0.35408075061E+01  0.35408075061E+01  0.00000000000E+00 0.  1.
          4    1    1    2  501    0  0.12755742476E+01 -0.27155750725E+01 -0.67713073335E+00  0.30757021419E+01  0.00000000000E+00 0. -1.
         -4    1    1    2    0  501 -0.12755742476E+01  0.27155750725E+01 -0.31232937363E+00  0.30164527633E+01  0.00000000000E+00 0.  1.
<mgrwt>
<rscale>  0 0.30002396E+01</rscale>
<asrwt>0</asrwt>
<pdfrwt beam="1">0</pdfrwt>
<pdfrwt beam="2">0</pdfrwt>
<totfact> 0.18564569E+12</totfact>
</mgrwt>
</event>
<event>
 4    2  0.1993797E+006  0.3210061E+01  0.7546771E-02  0.2459696E+00
         22   -1    0    0    0    0  0.00000000000E+00  0.00000000000E+00  0.10395953973E+01  0.10395953973E+01  0.00000000000E+00 0. -1.
         22   -1    0    0    0    0 -0.00000000000E+00 -0.00000000000E+00 -0.18973141075E+02  0.18973141075E+02  0.00000000000E+00 0.  1.
          4    1    1    2  501    0 -0.16023052746E+01  0.27815663884E+01 -0.20516841980E+01  0.38097115133E+01  0.00000000000E+00 0. -1.
         -4    1    1    2    0  501  0.16023052746E+01 -0.27815663884E+01 -0.15881861480E+02  0.16203024959E+02  0.00000000000E+00 0.  1.
<mgrwt>
<rscale>  0 0.32100613E+01</rscale>
<asrwt>0</asrwt>
<pdfrwt beam="1">0</pdfrwt>
<pdfrwt beam="2">0</pdfrwt>
<totfact> 0.69200833E+11</totfact>
</mgrwt>
</event>
<event>
 4    2  0.1993797E+006  0.2498641E+01  0.7546771E-02  0.2709130E+00
         22   -1    0    0    0    0  0.00000000000E+00  0.00000000000E+00  0.93637526256E+00  0.93637526256E+00  0.00000000000E+00 0.  1.
         22   -1    0    0    0    0 -0.00000000000E+00 -0.00000000000E+00 -0.14727993759E+02  0.14727993759E+02  0.00000000000E+00 0. -1.
          4    1    1    2  501    0 -0.21593658862E+01  0.12571180107E+01 -0.11016009354E+01  0.27307016212E+01  0.00000000000E+00 0.  1.
         -4    1    1    2    0  501  0.21593658862E+01 -0.12571180107E+01 -0.12690017561E+02  0.12933667400E+02  0.00000000000E+00 0. -1.
<mgrwt>
<rscale>  0 0.24986410E+01</rscale>
<asrwt>0</asrwt>
<pdfrwt beam="1">0</pdfrwt>
<pdfrwt beam="2">0</pdfrwt>
<totfact> 0.10665168E+12</totfact>
</mgrwt>
</event>
<event>
 4    2  0.1993797E+006  0.3079727E+01  0.7546771E-02  0.2497571E+00
         22   -1    0    0    0    0  0.00000000000E+00  0.00000000000E+00  0.29829067367E+00  0.29829067367E+00  0.00000000000E+00 0. -1.
         22   -1    0    0    0    0 -0.00000000000E+00 -0.00000000000E+00 -0.61341228321E+02  0.61341228321E+02  0.00000000000E+00 0.  1.
          4    1    1    2  501    0 -0.17191190414E+01 -0.25552591852E+01 -0.91324902422E+01  0.96377952772E+01  0.00000000000E+00 0. -1.
         -4    1    1    2    0  501  0.17191190414E+01  0.25552591852E+01 -0.51910447405E+02  0.52001723718E+02  0.00000000000E+00 0.  1.
<mgrwt>
<rscale>  0 0.30797272E+01</rscale>
<asrwt>0</asrwt>
<pdfrwt beam="1">0</pdfrwt>
<pdfrwt beam="2">0</pdfrwt>
<totfact> 0.62758415E+11</totfact>
</mgrwt>
</event>
<event>
 4    2  0.1993797E+006  0.2155653E+01  0.7546771E-02  0.2883034E+00
         22   -1    0    0    0    0  0.00000000000E+00  0.00000000000E+00  0.79058099409E+01  0.79058099409E+01  0.00000000000E+00 0.  1.
         22   -1    0    0    0    0 -0.00000000000E+00 -0.00000000000E+00 -0.60301977048E+00  0.60301977048E+00  0.00000000000E+00 0. -1.
          4    1    1    2  501    0 -0.11978377096E+01 -0.17922116825E+01  0.43278419461E+01  0.48349822961E+01  0.00000000000E+00 0.  1.
         -4    1    1    2    0  501  0.11978377096E+01  0.17922116825E+01  0.29749482242E+01  0.36738474152E+01  0.00000000000E+00 0. -1.
<mgrwt>
<rscale>  0 0.21556525E+01</rscale>
<asrwt>0</asrwt>
<pdfrwt beam="1">0</pdfrwt>
<pdfrwt beam="2">0</pdfrwt>
<totfact> 0.37440560E+12</totfact>
</mgrwt>
</event>
<event>
 4    2  0.1993797E+006  0.2804275E+01  0.7546771E-02  0.2587900E+00
         22   -1    0    0    0    0  0.00000000000E+00  0.00000000000E+00  0.17459968499E+02  0.17459968499E+02  0.00000000000E+00 0.  1.
         22   -1    0    0    0    0 -0.00000000000E+00 -0.00000000000E+00 -0.45449091349E+00  0.45449091349E+00  0.00000000000E+00 0. -1.
          4    1    1    2  501    0  0.23533879701E+01 -0.15249671086E+01  0.93526082831E+01  0.97639767163E+01  0.00000000000E+00 0.  1.
         -4    1    1    2    0  501 -0.23533879701E+01  0.15249671086E+01  0.76528693020E+01  0.81504826958E+01  0.00000000000E+00 0. -1.
<mgrwt>
<rscale>  0 0.28042752E+01</rscale>
<asrwt>0</asrwt>
<pdfrwt beam="1">0</pdfrwt>
<pdfrwt beam="2">0</pdfrwt>
<totfact> 0.19621788E+12</totfact>
</mgrwt>
</event>
<event>
 4    2  0.1993797E+006  0.2480513E+01  0.7546771E-02  0.2717184E+00
         22   -1    0    0    0    0  0.00000000000E+00  0.00000000000E+00  0.17680601571E+01  0.17680601571E+01  0.00000000000E+00 0. -1.
         22   -1    0    0    0    0 -0.00000000000E+00 -0.00000000000E+00 -0.81374658751E+01  0.81374658751E+01  0.00000000000E+00 0.  1.
          4    1    1    2  501    0  0.21466814481E+01 -0.12428617479E+01  0.56222416690E+00  0.25434312606E+01  0.00000000000E+00 0. -1.
         -4    1    1    2    0  501 -0.21466814481E+01  0.12428617479E+01 -0.69316298849E+01  0.73620947715E+01  0.00000000000E+00 0.  1.
<mgrwt>
<rscale>  0 0.24805134E+01</rscale>
<asrwt>0</asrwt>
<pdfrwt beam="1">0</pdfrwt>
<pdfrwt beam="2">0</pdfrwt>
<totfact> 0.10577288E+12</totfact>
</mgrwt>
</event>
<event>
 4    2  0.1993797E+006  0.2560478E+01  0.7546771E-02  0.2682453E+00
         22   -1    0    0    0    0  0.00000000000E+00  0.00000000000E+00  0.33279295305E+02  0.33279295305E+02  0.00000000000E+00 0. -1.
         22   -1    0    0    0    0 -0.00000000000E+00 -0.00000000000E+00 -0.39791943484E+00  0.39791943484E+00  0.00000000000E+00 0.  1.
          4    1    1    2  501    0  0.13193209796E+01 -0.21944106286E+01  0.28405855015E+02  0.28521021107E+02  0.00000000000E+00 0. -1.
         -4    1    1    2    0  501 -0.13193209796E+01  0.21944106286E+01  0.44755208551E+01  0.51561936328E+01  0.00000000000E+00 0.  1.
<mgrwt>
<rscale>  0 0.25604777E+01</rscale>
<asrwt>0</asrwt>
<pdfrwt beam="1">0</pdfrwt>
<pdfrwt beam="2">0</pdfrwt>
<totfact> 0.10114574E+12</totfact>
</mgrwt>
</event>
<event>
 4    2  0.1993797E+006  0.2127884E+01  0.7546771E-02  0.2899446E+00
         22   -1    0    0    0    0  0.00000000000E+00  0.00000000000E+00  0.50147421642E+01  0.50147421642E+01  0.00000000000E+00 0.  1.
         22   -1    0    0    0    0 -0.00000000000E+00 -0.00000000000E+00 -0.90339839146E+00  0.90339839146E+00  0.00000000000E+00 0. -1.
          4    1    1    2  501    0  0.14755267027E+01 -0.15332025508E+01  0.21240755037E+01  0.30065904040E+01  0.00000000000E+00 0. -1.
         -4    1    1    2    0  501 -0.14755267027E+01  0.15332025508E+01  0.19872682691E+01  0.29115501517E+01  0.00000000000E+00 0.  1.
<mgrwt>
<rscale>  0 0.21278837E+01</rscale>
<asrwt>0</asrwt>
<pdfrwt beam="1">0</pdfrwt>
<pdfrwt beam="2">0</pdfrwt>
<totfact> 0.40701087E+12</totfact>
</mgrwt>
</event>
<event>
 4    2  0.1993797E+006  0.3517177E+01  0.7546771E-02  0.2380330E+00
         22   -1    0    0    0    0  0.00000000000E+00  0.00000000000E+00  0.43769562004E+01  0.43769562004E+01  0.00000000000E+00 0.  1.
         22   -1    0    0    0    0 -0.00000000000E+00 -0.00000000000E+00 -0.38993842729E+01  0.38993842729E+01  0.00000000000E+00 0. -1.
          4    1    1    2  501    0 -0.15039907504E+01 -0.31793935305E+01  0.24096369822E+01  0.42634354439E+01  0.00000000000E+00 0.  1.
         -4    1    1    2    0  501  0.15039907504E+01  0.31793935305E+01 -0.19320650547E+01  0.40129050293E+01  0.00000000000E+00 0. -1.
<mgrwt>
<rscale>  0 0.35171766E+01</rscale>
<asrwt>0</asrwt>
<pdfrwt beam="1">0</pdfrwt>
<pdfrwt beam="2">0</pdfrwt>
<totfact> 0.88084688E+11</totfact>
</mgrwt>
</event>
<event>
 4    2  0.1993797E+006  0.2007037E+01  0.7546771E-02  0.2975993E+00
         22   -1    0    0    0    0  0.00000000000E+00  0.00000000000E+00  0.12891818716E+01  0.12891818716E+01  0.00000000000E+00 0.  1.
         22   -1    0    0    0    0 -0.00000000000E+00 -0.00000000000E+00 -0.32207994714E+01  0.32207994714E+01  0.00000000000E+00 0. -1.
          4    1    1    2  501    0  0.12715773415E+01 -0.15528324983E+01 -0.57612335903E+00  0.20880890374E+01  0.00000000000E+00 0.  1.
         -4    1    1    2    0  501 -0.12715773415E+01  0.15528324983E+01 -0.13554942408E+01  0.24218923056E+01  0.00000000000E+00 0. -1.
<mgrwt>
<rscale>  0 0.20070370E+01</rscale>
<asrwt>0</asrwt>
<pdfrwt beam="1">0</pdfrwt>
<pdfrwt beam="2">0</pdfrwt>
<totfact> 0.45635574E+12</totfact>
</mgrwt>
</event>
<event>
 4    2  0.1993797E+006  0.2209462E+01  0.7546771E-02  0.2852363E+00
         22   -1    0    0    0    0  0.00000000000E+00  0.00000000000E+00  0.13476408928E+01  0.13476408928E+01  0.00000000000E+00 0.  1.
         22   -1    0    0    0    0 -0.00000000000E+00 -0.00000000000E+00 -0.58483911766E+01  0.58483911766E+01  0.00000000000E+00 0. -1.
          4    1    1    2  501    0 -0.18566139046E+01  0.11977922936E+01 -0.30622210125E-01  0.22096740233E+01  0.00000000000E+00 0.  1.
         -4    1    1    2    0  501  0.18566139046E+01 -0.11977922936E+01 -0.44701280737E+01  0.49863580462E+01  0.00000000000E+00 0. -1.
<mgrwt>
<rscale>  0 0.22094618E+01</rscale>
<asrwt>0</asrwt>
<pdfrwt beam="1">0</pdfrwt>
<pdfrwt beam="2">0</pdfrwt>
<totfact> 0.21460687E+12</totfact>
</mgrwt>
</event>
<event>
 4    2  0.1993797E+006  0.2068606E+01  0.7546771E-02  0.2935906E+00
         22   -1    0    0    0    0  0.00000000000E+00  0.00000000000E+00  0.37185257167E+01  0.37185257167E+01  0.00000000000E+00 0. -1.
         22   -1    0    0    0    0 -0.00000000000E+00 -0.00000000000E+00 -0.11794050504E+01  0.11794050504E+01  0.00000000000E+00 0.  1.
          4    1    1    2  501    0 -0.60432063111E+00  0.19783651306E+01  0.88790338389E+00  0.22511118218E+01  0.00000000000E+00 0. -1.
         -4    1    1    2    0  501  0.60432063111E+00 -0.19783651306E+01  0.16512172824E+01  0.26468189453E+01  0.00000000000E+00 0.  1.
<mgrwt>
<rscale>  0 0.20686063E+01</rscale>
<asrwt>0</asrwt>
<pdfrwt beam="1">0</pdfrwt>
<pdfrwt beam="2">0</pdfrwt>
<totfact> 0.42702784E+12</totfact>
</mgrwt>
</event>
<event>
 4    2  0.1993797E+006  0.2490242E+01  0.7546771E-02  0.2712848E+00
         22   -1    0    0    0    0  0.00000000000E+00  0.00000000000E+00  0.10763733965E+01  0.10763733965E+01  0.00000000000E+00 0. -1.
         22   -1    0    0    0    0 -0.00000000000E+00 -0.00000000000E+00 -0.17551570831E+02  0.17551570831E+02  0.00000000000E+00 0.  1.
          4    1    1    2  501    0  0.24855692895E+01  0.15248669272E+00 -0.60383202629E+00  0.25624051203E+01  0.00000000000E+00 0. -1.
         -4    1    1    2    0  501 -0.24855692895E+01 -0.15248669272E+00 -0.15871365408E+02  0.16065539107E+02  0.00000000000E+00 0.  1.
<mgrwt>
<rscale>  0 0.24902423E+01</rscale>
<asrwt>0</asrwt>
<pdfrwt beam="1">0</pdfrwt>
<pdfrwt beam="2">0</pdfrwt>
<totfact> 0.73254165E+11</totfact>
</mgrwt>
</event>
<event>
 4    2  0.1993797E+006  0.2022737E+01  0.7546771E-02  0.2965545E+00
         22   -1    0    0    0    0  0.00000000000E+00  0.00000000000E+00  0.36432244331E+01  0.36432244331E+01  0.00000000000E+00 0.  1.
         22   -1    0    0    0    0 -0.00000000000E+00 -0.00000000000E+00 -0.11948536478E+01  0.11948536478E+01  0.00000000000E+00 0. -1.
          4    1    1    2  501    0 -0.10129428413E+01 -0.17508314070E+01  0.63111251633E+00  0.21189069880E+01  0.00000000000E+00 0.  1.
         -4    1    1    2    0  501  0.10129428413E+01  0.17508314070E+01  0.18172582690E+01  0.27191710928E+01  0.00000000000E+00 0. -1.
<mgrwt>
<rscale>  0 0.20227367E+01</rscale>
<asrwt>0</asrwt>
<pdfrwt beam="1">0</pdfrwt>
<pdfrwt beam="2">0</pdfrwt>
<totfact> 0.43093133E+12</totfact>
</mgrwt>
</event>
<event>
 4    2  0.1993797E+006  0.2907472E+01  0.7546771E-02  0.2552254E+00
         22   -1    0    0    0    0  0.00000000000E+00  0.00000000000E+00  0.10065659290E+00  0.10065659290E+00  0.00000000000E+00 0. -1.
         22   -1    0    0    0    0 -0.00000000000E+00 -0.00000000000E+00 -0.92485432393E+02  0.92485432393E+02  0.00000000000E+00 0.  1.
          4    1    1    2  501    0  0.11414063757E+01 -0.26740576561E+01 -0.32155743383E+02  0.32286920345E+02  0.00000000000E+00 0. -1.
         -4    1    1    2    0  501 -0.11414063757E+01  0.26740576561E+01 -0.60229032417E+02  0.60299168641E+02  0.00000000000E+00 0.  1.
<mgrwt>
<rscale>  0 0.29074719E+01</rscale>
<asrwt>0</asrwt>
<pdfrwt beam="1">0</pdfrwt>
<pdfrwt beam="2">0</pdfrwt>
<totfact> 0.12006572E+12</totfact>
</mgrwt>
</event>
<event>
 4    2  0.1993797E+006  0.3163554E+01  0.7546771E-02  0.2472893E+00
         22   -1    0    0    0    0  0.00000000000E+00  0.00000000000E+00  0.46379725127E+00  0.46379725127E+00  0.00000000000E+00 0. -1.
         22   -1    0    0    0    0 -0.00000000000E+00 -0.00000000000E+00 -0.21619086336E+02  0.21619086336E+02  0.00000000000E+00 0.  1.
          4    1    1    2  501    0 -0.16058704436E+01 -0.27256653135E+01 -0.10099521489E+02  0.10583402364E+02  0.00000000000E+00 0. -1.
         -4    1    1    2    0  501  0.16058704436E+01  0.27256653135E+01 -0.11055767595E+02  0.11499481223E+02  0.00000000000E+00 0.  1.
<mgrwt>
<rscale>  0 0.31635536E+01</rscale>
<asrwt>0</asrwt>
<pdfrwt beam="1">0</pdfrwt>
<pdfrwt beam="2">0</pdfrwt>
<totfact> 0.14698042E+12</totfact>
</mgrwt>
</event>
<event>
 4    2  0.1993797E+006  0.3769943E+01  0.7546771E-02  0.2323552E+00
         22   -1    0    0    0    0  0.00000000000E+00  0.00000000000E+00  0.68273905345E+00  0.68273905345E+00  0.00000000000E+00 0. -1.
         22   -1    0    0    0    0 -0.00000000000E+00 -0.00000000000E+00 -0.39177124023E+02  0.39177124023E+02  0.00000000000E+00 0.  1.
          4    1    1    2  501    0 -0.51547262935E+00  0.37345361230E+01 -0.56035859520E+01  0.67537136160E+01  0.00000000000E+00 0. -1.
         -4    1    1    2    0  501  0.51547262935E+00 -0.37345361230E+01 -0.32890799018E+02  0.33106149460E+02  0.00000000000E+00 0.  1.
<mgrwt>
<rscale>  0 0.37699432E+01</rscale>
<asrwt>0</asrwt>
<pdfrwt beam="1">0</pdfrwt>
<pdfrwt beam="2">0</pdfrwt>
<totfact> 0.44532617E+11</totfact>
</mgrwt>
</event>
<event>
 4    2  0.1993797E+006  0.2720117E+01  0.7546771E-02  0.2618783E+00
         22   -1    0    0    0    0  0.00000000000E+00  0.00000000000E+00  0.18230476902E+01  0.18230476902E+01  0.00000000000E+00 0.  1.
         22   -1    0    0    0    0 -0.00000000000E+00 -0.00000000000E+00 -0.41026708990E+01  0.41026708990E+01  0.00000000000E+00 0. -1.
          4    1    1    2  501    0 -0.21122061609E+01 -0.17139493838E+01 -0.83276069217E+00  0.28447368466E+01  0.00000000000E+00 0.  1.
         -4    1    1    2    0  501  0.21122061609E+01  0.17139493838E+01 -0.14468625166E+01  0.30809817426E+01  0.00000000000E+00 0. -1.
<mgrwt>
<rscale>  0 0.27201172E+01</rscale>
<asrwt>0</asrwt>
<pdfrwt beam="1">0</pdfrwt>
<pdfrwt beam="2">0</pdfrwt>
<totfact> 0.23053864E+12</totfact>
</mgrwt>
</event>
<event>
 4    2  0.1993797E+006  0.2372063E+01  0.7546771E-02  0.2767769E+00
         22   -1    0    0    0    0  0.00000000000E+00  0.00000000000E+00  0.25368968950E+02  0.25368968950E+02  0.00000000000E+00 0. -1.
         22   -1    0    0    0    0 -0.00000000000E+00 -0.00000000000E+00 -0.59104328618E+00  0.59104328618E+00  0.00000000000E+00 0.  1.
          4    1    1    2  501    0  0.23498506270E+01  0.32386190437E+00  0.22648436922E+02  0.22772316077E+02  0.00000000000E+00 0. -1.
         -4    1    1    2    0  501 -0.23498506270E+01 -0.32386190437E+00  0.21294887423E+01  0.31876961596E+01  0.00000000000E+00 0.  1.
<mgrwt>
<rscale>  0 0.23720633E+01</rscale>
<asrwt>0</asrwt>
<pdfrwt beam="1">0</pdfrwt>
<pdfrwt beam="2">0</pdfrwt>
<totfact> 0.91398846E+11</totfact>
</mgrwt>
</event>
<event>
 4    2  0.1993797E+006  0.2454630E+01  0.7546771E-02  0.2728877E+00
         22   -1    0    0    0    0  0.00000000000E+00  0.00000000000E+00  0.13961074272E+01  0.13961074272E+01  0.00000000000E+00 0.  1.
         22   -1    0    0    0    0 -0.00000000000E+00 -0.00000000000E+00 -0.63520972289E+01  0.63520972289E+01  0.00000000000E+00 0. -1.
          4    1    1    2  501    0  0.15913721762E+01  0.18688877542E+01 -0.28447398082E+00  0.24710589404E+01  0.00000000000E+00 0.  1.
         -4    1    1    2    0  501 -0.15913721762E+01 -0.18688877542E+01 -0.46715158209E+01  0.52771457158E+01  0.00000000000E+00 0. -1.
<mgrwt>
<rscale>  0 0.24546297E+01</rscale>
<asrwt>0</asrwt>
<pdfrwt beam="1">0</pdfrwt>
<pdfrwt beam="2">0</pdfrwt>
<totfact> 0.18676705E+12</totfact>
</mgrwt>
</event>
<event>
 4    2  0.1993797E+006  0.2305989E+01  0.7546771E-02  0.2800778E+00
         22   -1    0    0    0    0  0.00000000000E+00  0.00000000000E+00  0.78180523573E+00  0.78180523573E+00  0.00000000000E+00 0.  1.
         22   -1    0    0    0    0 -0.00000000000E+00 -0.00000000000E+00 -0.75274540884E+01  0.75274540884E+01  0.00000000000E+00 0. -1.
          4    1    1    2  501    0 -0.12237755308E+01  0.19544719411E+01 -0.20827649804E+01  0.31073295741E+01  0.00000000000E+00 0.  1.
         -4    1    1    2    0  501  0.12237755308E+01 -0.19544719411E+01 -0.46628838723E+01  0.52019297501E+01  0.00000000000E+00 0. -1.
<mgrwt>
<rscale>  0 0.23059894E+01</rscale>
<asrwt>0</asrwt>
<pdfrwt beam="1">0</pdfrwt>
<pdfrwt beam="2">0</pdfrwt>
<totfact> 0.29576423E+12</totfact>
</mgrwt>
</event>
<event>
 4    2  0.1993797E+006  0.2337759E+01  0.7546771E-02  0.2784687E+00
         22   -1    0    0    0    0  0.00000000000E+00  0.00000000000E+00  0.68881508575E+00  0.68881508575E+00  0.00000000000E+00 0. -1.
         22   -1    0    0    0    0 -0.00000000000E+00 -0.00000000000E+00 -0.17604434945E+02  0.17604434945E+02  0.00000000000E+00 0.  1.
          4    1    1    2  501    0  0.88864389956E+00 -0.21622738865E+01 -0.16787267821E+01  0.28780618391E+01  0.00000000000E+00 0. -1.
         -4    1    1    2    0  501 -0.88864389956E+00  0.21622738865E+01 -0.15236893077E+02  0.15415188192E+02  0.00000000000E+00 0.  1.
<mgrwt>
<rscale>  0 0.23377588E+01</rscale>
<asrwt>0</asrwt>
<pdfrwt beam="1">0</pdfrwt>
<pdfrwt beam="2">0</pdfrwt>
<totfact> 0.12134525E+12</totfact>
</mgrwt>
</event>
<event>
 4    2  0.1993797E+006  0.2385796E+01  0.7546771E-02  0.2761125E+00
         22   -1    0    0    0    0  0.00000000000E+00  0.00000000000E+00  0.70736307018E+00  0.70736307018E+00  0.00000000000E+00 0.  1.
         22   -1    0    0    0    0 -0.00000000000E+00 -0.00000000000E+00 -0.11255317072E+02  0.11255317072E+02  0.00000000000E+00 0. -1.
          4    1    1    2  501    0  0.10283239783E+01  0.21528058409E+01 -0.20804509588E+01  0.31654856475E+01  0.00000000000E+00 0.  1.
         -4    1    1    2    0  501 -0.10283239783E+01 -0.21528058409E+01 -0.84675030435E+01  0.87971944951E+01  0.00000000000E+00 0. -1.
<mgrwt>
<rscale>  0 0.23857961E+01</rscale>
<asrwt>0</asrwt>
<pdfrwt beam="1">0</pdfrwt>
<pdfrwt beam="2">0</pdfrwt>
<totfact> 0.20388373E+12</totfact>
</mgrwt>
</event>
<event>
 4    2  0.1993797E+006  0.2825066E+01  0.7546771E-02  0.2580529E+00
         22   -1    0    0    0    0  0.00000000000E+00  0.00000000000E+00  0.21582931436E+02  0.21582931436E+02  0.00000000000E+00 0.  1.
         22   -1    0    0    0    0 -0.00000000000E+00 -0.00000000000E+00 -0.14194336627E+02  0.14194336627E+02  0.00000000000E+00 0. -1.
          4    1    1    2  501    0  0.22820726423E+01 -0.16652758961E+01  0.21348381420E+02  0.21534492997E+02  0.00000000000E+00 0.  1.
         -4    1    1    2    0  501 -0.22820726423E+01  0.16652758961E+01 -0.13959786611E+02  0.14242775066E+02  0.00000000000E+00 0. -1.
<mgrwt>
<rscale>  0 0.28250663E+01</rscale>
<asrwt>0</asrwt>
<pdfrwt beam="1">0</pdfrwt>
<pdfrwt beam="2">0</pdfrwt>
<totfact> 0.27051486E+10</totfact>
</mgrwt>
</event>
<event>
 4    2  0.1993797E+006  0.2554385E+01  0.7546771E-02  0.2685028E+00
         22   -1    0    0    0    0  0.00000000000E+00  0.00000000000E+00  0.33178137368E+01  0.33178137368E+01  0.00000000000E+00 0.  1.
         22   -1    0    0    0    0 -0.00000000000E+00 -0.00000000000E+00 -0.23973095838E+01  0.23973095838E+01  0.00000000000E+00 0. -1.
          4    1    1    2  501    0  0.23617813403E+00  0.25434433658E+01  0.16714494236E+01  0.30526426980E+01  0.00000000000E+00 0.  1.
         -4    1    1    2    0  501 -0.23617813403E+00 -0.25434433658E+01 -0.75094527058E+00  0.26624806226E+01  0.00000000000E+00 0. -1.
<mgrwt>
<rscale>  0 0.25543853E+01</rscale>
<asrwt>0</asrwt>
<pdfrwt beam="1">0</pdfrwt>
<pdfrwt beam="2">0</pdfrwt>
<totfact> 0.21539693E+12</totfact>
</mgrwt>
</event>
<event>
 4    2  0.1993797E+006  0.2855935E+01  0.7546771E-02  0.2569764E+00
         22   -1    0    0    0    0  0.00000000000E+00  0.00000000000E+00  0.28540267810E+00  0.28540267810E+00  0.00000000000E+00 0.  1.
         22   -1    0    0    0    0 -0.00000000000E+00 -0.00000000000E+00 -0.32952613807E+02  0.32952613807E+02  0.00000000000E+00 0. -1.
          4    1    1    2  501    0 -0.94799631086E+00 -0.26940059089E+01 -0.10278692381E+02  0.10668077704E+02  0.00000000000E+00 0.  1.
         -4    1    1    2    0  501  0.94799631086E+00  0.26940059089E+01 -0.22388518748E+02  0.22569938781E+02  0.00000000000E+00 0. -1.
<mgrwt>
<rscale>  0 0.28559350E+01</rscale>
<asrwt>0</asrwt>
<pdfrwt beam="1">0</pdfrwt>
<pdfrwt beam="2">0</pdfrwt>
<totfact> 0.14877689E+12</totfact>
</mgrwt>
</event>
<event>
 4    2  0.1993797E+006  0.2999844E+01  0.7546771E-02  0.2522229E+00
         22   -1    0    0    0    0  0.00000000000E+00  0.00000000000E+00  0.23852207732E+01  0.23852207732E+01  0.00000000000E+00 0. -1.
         22   -1    0    0    0    0 -0.00000000000E+00 -0.00000000000E+00 -0.70908599918E+01  0.70908599918E+01  0.00000000000E+00 0.  1.
          4    1    1    2  501    0  0.29887783204E+01 -0.25743169270E+00  0.88825114163E+00  0.31285870637E+01  0.00000000000E+00 0. -1.
         -4    1    1    2    0  501 -0.29887783204E+01  0.25743169270E+00 -0.55938903603E+01  0.63474937013E+01  0.00000000000E+00 0.  1.
<mgrwt>
<rscale>  0 0.29998445E+01</rscale>
<asrwt>0</asrwt>
<pdfrwt beam="1">0</pdfrwt>
<pdfrwt beam="2">0</pdfrwt>
<totfact> 0.88206273E+11</totfact>
</mgrwt>
</event>
<event>
 4    2  0.1993797E+006  0.2255530E+01  0.7546771E-02  0.2827219E+00
         22   -1    0    0    0    0  0.00000000000E+00  0.00000000000E+00  0.97575406121E+00  0.97575406121E+00  0.00000000000E+00 0.  1.
         22   -1    0    0    0    0 -0.00000000000E+00 -0.00000000000E+00 -0.96999961307E+01  0.96999961307E+01  0.00000000000E+00 0. -1.
          4    1    1    2  501    0 -0.18088624122E+01  0.13473798729E+01 -0.73200668817E+00  0.23713391870E+01  0.00000000000E+00 0.  1.
         -4    1    1    2    0  501  0.18088624122E+01 -0.13473798729E+01 -0.79922353813E+01  0.83044110049E+01  0.00000000000E+00 0. -1.
<mgrwt>
<rscale>  0 0.22555300E+01</rscale>
<asrwt>0</asrwt>
<pdfrwt beam="1">0</pdfrwt>
<pdfrwt beam="2">0</pdfrwt>
<totfact> 0.16931135E+12</totfact>
</mgrwt>
</event>
<event>
 4    2  0.1993797E+006  0.2060998E+01  0.7546771E-02  0.2940733E+00
         22   -1    0    0    0    0  0.00000000000E+00  0.00000000000E+00  0.86142973284E+00  0.86142973284E+00  0.00000000000E+00 0. -1.
         22   -1    0    0    0    0 -0.00000000000E+00 -0.00000000000E+00 -0.51689721824E+01  0.51689721824E+01  0.00000000000E+00 0.  1.
          4    1    1    2  501    0  0.83111736615E+00 -0.18859897504E+01 -0.28007256053E+01  0.34773232997E+01  0.00000000000E+00 0.  1.
         -4    1    1    2    0  501 -0.83111736615E+00  0.18859897504E+01 -0.15068168443E+01  0.25530786155E+01  0.00000000000E+00 0. -1.
<mgrwt>
<rscale>  0 0.20609982E+01</rscale>
<asrwt>0</asrwt>
<pdfrwt beam="1">0</pdfrwt>
<pdfrwt beam="2">0</pdfrwt>
<totfact> 0.41452856E+12</totfact>
</mgrwt>
</event>
<event>
 4    2  0.1993797E+006  0.2725214E+01  0.7546771E-02  0.2616863E+00
         22   -1    0    0    0    0  0.00000000000E+00  0.00000000000E+00  0.84974301461E+00  0.84974301461E+00  0.00000000000E+00 0. -1.
         22   -1    0    0    0    0 -0.00000000000E+00 -0.00000000000E+00 -0.88289207147E+01  0.88289207147E+01  0.00000000000E+00 0.  1.
          4    1    1    2  501    0  0.12037308238E+01 -0.24449586638E+01 -0.35040463617E+01  0.44390462567E+01  0.00000000000E+00 0. -1.
         -4    1    1    2    0  501 -0.12037308238E+01  0.24449586638E+01 -0.44751313384E+01  0.52396174726E+01  0.00000000000E+00 0.  1.
<mgrwt>
<rscale>  0 0.27252139E+01</rscale>
<asrwt>0</asrwt>
<pdfrwt beam="1">0</pdfrwt>
<pdfrwt beam="2">0</pdfrwt>
<totfact> 0.22208274E+12</totfact>
</mgrwt>
</event>
<event>
 4    2  0.1993797E+006  0.2003057E+01  0.7546771E-02  0.2978668E+00
         22   -1    0    0    0    0  0.00000000000E+00  0.00000000000E+00  0.30853717341E+02  0.30853717341E+02  0.00000000000E+00 0.  1.
         22   -1    0    0    0    0 -0.00000000000E+00 -0.00000000000E+00 -0.16765858562E+00  0.16765858562E+00  0.00000000000E+00 0. -1.
          4    1    1    2  501    0 -0.28276748440E+00  0.19829972821E+01  0.22690129796E+02  0.22778371887E+02  0.00000000000E+00 0.  1.
         -4    1    1    2    0  501  0.28276748440E+00 -0.19829972821E+01  0.79959289594E+01  0.82430040395E+01  0.00000000000E+00 0. -1.
<mgrwt>
<rscale>  0 0.20030566E+01</rscale>
<asrwt>0</asrwt>
<pdfrwt beam="1">0</pdfrwt>
<pdfrwt beam="2">0</pdfrwt>
<totfact> 0.29312623E+12</totfact>
</mgrwt>
</event>
<event>
 4    2  0.1993797E+006  0.2338402E+01  0.7546771E-02  0.2784365E+00
         22   -1    0    0    0    0  0.00000000000E+00  0.00000000000E+00  0.31087124847E+00  0.31087124847E+00  0.00000000000E+00 0.  1.
         22   -1    0    0    0    0 -0.00000000000E+00 -0.00000000000E+00 -0.20474390103E+02  0.20474390103E+02  0.00000000000E+00 0. -1.
          4    1    1    2  501    0 -0.19540217865E+01 -0.12844926299E+01 -0.61807958122E+01  0.66083552666E+01  0.00000000000E+00 0.  1.
         -4    1    1    2    0  501  0.19540217865E+01  0.12844926299E+01 -0.13982723042E+02  0.14176906084E+02  0.00000000000E+00 0. -1.
<mgrwt>
<rscale>  0 0.23384017E+01</rscale>
<asrwt>0</asrwt>
<pdfrwt beam="1">0</pdfrwt>
<pdfrwt beam="2">0</pdfrwt>
<totfact> 0.24672429E+12</totfact>
</mgrwt>
</event>
<event>
 4    2  0.1993797E+006  0.2648649E+01  0.7546771E-02  0.2646414E+00
         22   -1    0    0    0    0  0.00000000000E+00  0.00000000000E+00  0.41604439051E+01  0.41604439051E+01  0.00000000000E+00 0.  1.
         22   -1    0    0    0    0 -0.00000000000E+00 -0.00000000000E+00 -0.17957300366E+01  0.17957300366E+01  0.00000000000E+00 0. -1.
          4    1    1    2  501    0 -0.88636805783E+00  0.24959358477E+01  0.44685847907E+00  0.26860801533E+01  0.00000000000E+00 0. -1.
         -4    1    1    2    0  501  0.88636805783E+00 -0.24959358477E+01  0.19178553894E+01  0.32700937883E+01  0.00000000000E+00 0.  1.
<mgrwt>
<rscale>  0 0.26486495E+01</rscale>
<asrwt>0</asrwt>
<pdfrwt beam="1">0</pdfrwt>
<pdfrwt beam="2">0</pdfrwt>
<totfact> 0.23076140E+12</totfact>
</mgrwt>
</event>
<event>
 4    2  0.1993797E+006  0.2634607E+01  0.7546771E-02  0.2652005E+00
         22   -1    0    0    0    0  0.00000000000E+00  0.00000000000E+00  0.94295735910E-01  0.94295735910E-01  0.00000000000E+00 0.  1.
         22   -1    0    0    0    0 -0.00000000000E+00 -0.00000000000E+00 -0.79052407840E+02  0.79052407840E+02  0.00000000000E+00 0. -1.
          4    1    1    2  501    0  0.26339800201E+01  0.57480822825E-01 -0.29096088407E+02  0.29215124771E+02  0.00000000000E+00 0.  1.
         -4    1    1    2    0  501 -0.26339800201E+01 -0.57480822825E-01 -0.49862023698E+02  0.49931578805E+02  0.00000000000E+00 0. -1.
<mgrwt>
<rscale>  0 0.26346071E+01</rscale>
<asrwt>0</asrwt>
<pdfrwt beam="1">0</pdfrwt>
<pdfrwt beam="2">0</pdfrwt>
<totfact> 0.16036568E+12</totfact>
</mgrwt>
</event>
<event>
 4    2  0.1993797E+006  0.2275053E+01  0.7546771E-02  0.2816856E+00
         22   -1    0    0    0    0  0.00000000000E+00  0.00000000000E+00  0.23859017992E+01  0.23859017992E+01  0.00000000000E+00 0.  1.
         22   -1    0    0    0    0 -0.00000000000E+00 -0.00000000000E+00 -0.25020654487E+01  0.25020654487E+01  0.00000000000E+00 0. -1.
          4    1    1    2  501    0  0.84481986124E+00  0.21123793876E+01 -0.94929659679E+00  0.24651635450E+01  0.00000000000E+00 0. -1.
         -4    1    1    2    0  501 -0.84481986124E+00 -0.21123793876E+01  0.83313294731E+00  0.24228037029E+01  0.00000000000E+00 0.  1.
<mgrwt>
<rscale>  0 0.22750532E+01</rscale>
<asrwt>0</asrwt>
<pdfrwt beam="1">0</pdfrwt>
<pdfrwt beam="2">0</pdfrwt>
<totfact> 0.30106804E+12</totfact>
</mgrwt>
</event>
<event>
 4    2  0.1993797E+006  0.2181063E+01  0.7546771E-02  0.2868370E+00
         22   -1    0    0    0    0  0.00000000000E+00  0.00000000000E+00  0.33085206007E+00  0.33085206007E+00  0.00000000000E+00 0. -1.
         22   -1    0    0    0    0 -0.00000000000E+00 -0.00000000000E+00 -0.32478300781E+02  0.32478300781E+02  0.00000000000E+00 0.  1.
          4    1    1    2  501    0 -0.20900132355E+01 -0.62360145421E+00 -0.38272888037E+01  0.44051303823E+01  0.00000000000E+00 0. -1.
         -4    1    1    2    0  501  0.20900132355E+01  0.62360145421E+00 -0.28320159918E+02  0.28404022459E+02  0.00000000000E+00 0.  1.
<mgrwt>
<rscale>  0 0.21810626E+01</rscale>
<asrwt>0</asrwt>
<pdfrwt beam="1">0</pdfrwt>
<pdfrwt beam="2">0</pdfrwt>
<totfact> 0.12840772E+12</totfact>
</mgrwt>
</event>
<event>
 4    2  0.1993797E+006  0.2046954E+01  0.7546771E-02  0.2949735E+00
         22   -1    0    0    0    0  0.00000000000E+00  0.00000000000E+00  0.49403740762E+00  0.49403740762E+00  0.00000000000E+00 0.  1.
         22   -1    0    0    0    0 -0.00000000000E+00 -0.00000000000E+00 -0.12751042092E+02  0.12751042092E+02  0.00000000000E+00 0. -1.
          4    1    1    2  501    0 -0.15792171455E+01 -0.13023414944E+01 -0.22962097446E+01  0.30761338319E+01  0.00000000000E+00 0.  1.
         -4    1    1    2    0  501  0.15792171455E+01  0.13023414944E+01 -0.99607949401E+01  0.10168945668E+02  0.00000000000E+00 0. -1.
<mgrwt>
<rscale>  0 0.20469539E+01</rscale>
<asrwt>0</asrwt>
<pdfrwt beam="1">0</pdfrwt>
<pdfrwt beam="2">0</pdfrwt>
<totfact> 0.26288167E+12</totfact>
</mgrwt>
</event>
<event>
 4    2  0.1993797E+006  0.2588938E+01  0.7546771E-02  0.2670573E+00
         22   -1    0    0    0    0  0.00000000000E+00  0.00000000000E+00  0.69379491913E+00  0.69379491913E+00  0.00000000000E+00 0. -1.
         22   -1    0    0    0    0 -0.00000000000E+00 -0.00000000000E+00 -0.17195280209E+02  0.17195280209E+02  0.00000000000E+00 0.  1.
          4    1    1    2  501    0 -0.17749806825E+01  0.18846870047E+01 -0.23299421429E+01  0.34829918056E+01  0.00000000000E+00 0. -1.
         -4    1    1    2    0  501  0.17749806825E+01 -0.18846870047E+01 -0.14171543147E+02  0.14406083322E+02  0.00000000000E+00 0.  1.
<mgrwt>
<rscale>  0 0.25889383E+01</rscale>
<asrwt>0</asrwt>
<pdfrwt beam="1">0</pdfrwt>
<pdfrwt beam="2">0</pdfrwt>
<totfact> 0.12391808E+12</totfact>
</mgrwt>
</event>
<event>
 4    2  0.1993797E+006  0.2220118E+01  0.7546771E-02  0.2846459E+00
         22   -1    0    0    0    0  0.00000000000E+00  0.00000000000E+00  0.10914924673E+01  0.10914924673E+01  0.00000000000E+00 0. -1.
         22   -1    0    0    0    0 -0.00000000000E+00 -0.00000000000E+00 -0.81153506387E+01  0.81153506387E+01  0.00000000000E+00 0.  1.
          4    1    1    2  501    0  0.10362910628E+01 -0.19634214345E+01 -0.44606152849E+00  0.22644853242E+01  0.00000000000E+00 0. -1.
         -4    1    1    2    0  501 -0.10362910628E+01  0.19634214345E+01 -0.65777966429E+01  0.69423577818E+01  0.00000000000E+00 0.  1.
<mgrwt>
<rscale>  0 0.22201178E+01</rscale>
<asrwt>0</asrwt>
<pdfrwt beam="1">0</pdfrwt>
<pdfrwt beam="2">0</pdfrwt>
<totfact> 0.18469808E+12</totfact>
</mgrwt>
</event>
<event>
 4    2  0.1993797E+006  0.3236485E+01  0.7546771E-02  0.2452348E+00
         22   -1    0    0    0    0  0.00000000000E+00  0.00000000000E+00  0.38194789576E+02  0.38194789576E+02  0.00000000000E+00 0.  1.
         22   -1    0    0    0    0 -0.00000000000E+00 -0.00000000000E+00 -0.32453139709E+00  0.32453139709E+00  0.00000000000E+00 0. -1.
          4    1    1    2  501    0 -0.22421796809E+01 -0.23339807848E+01  0.26516252175E+02  0.26713039240E+02  0.00000000000E+00 0.  1.
         -4    1    1    2    0  501  0.22421796809E+01  0.23339807848E+01  0.11354006003E+02  0.11806281733E+02  0.00000000000E+00 0. -1.
<mgrwt>
<rscale>  0 0.32364851E+01</rscale>
<asrwt>0</asrwt>
<pdfrwt beam="1">0</pdfrwt>
<pdfrwt beam="2">0</pdfrwt>
<totfact> 0.10651433E+12</totfact>
</mgrwt>
</event>
<event>
 4    2  0.1993797E+006  0.3118261E+01  0.7546771E-02  0.2486080E+00
         22   -1    0    0    0    0  0.00000000000E+00  0.00000000000E+00  0.65572808180E+01  0.65572808180E+01  0.00000000000E+00 0. -1.
         22   -1    0    0    0    0 -0.00000000000E+00 -0.00000000000E+00 -0.14833301815E+01  0.14833301815E+01  0.00000000000E+00 0.  1.
          4    1    1    2  501    0  0.25316027387E+01  0.18205876601E+01  0.26082914839E+01  0.40653088837E+01  0.00000000000E+00 0. -1.
         -4    1    1    2    0  501 -0.25316027387E+01 -0.18205876601E+01  0.24656591526E+01  0.39753021158E+01  0.00000000000E+00 0.  1.
<mgrwt>
<rscale>  0 0.31182610E+01</rscale>
<asrwt>0</asrwt>
<pdfrwt beam="1">0</pdfrwt>
<pdfrwt beam="2">0</pdfrwt>
<totfact> 0.16771847E+12</totfact>
</mgrwt>
</event>
<event>
 4    2  0.1993797E+006  0.2012649E+01  0.7546771E-02  0.2972240E+00
         22   -1    0    0    0    0  0.00000000000E+00  0.00000000000E+00  0.11558230690E+02  0.11558230690E+02  0.00000000000E+00 0.  1.
         22   -1    0    0    0    0 -0.00000000000E+00 -0.00000000000E+00 -0.43052986263E+00  0.43052986263E+00  0.00000000000E+00 0. -1.
          4    1    1    2  501    0 -0.11276053795E+01 -0.16671117432E+01  0.81488685803E+01  0.83937366289E+01  0.00000000000E+00 0.  1.
         -4    1    1    2    0  501  0.11276053795E+01  0.16671117432E+01  0.29788322472E+01  0.35950239239E+01  0.00000000000E+00 0. -1.
<mgrwt>
<rscale>  0 0.20126489E+01</rscale>
<asrwt>0</asrwt>
<pdfrwt beam="1">0</pdfrwt>
<pdfrwt beam="2">0</pdfrwt>
<totfact> 0.34609022E+12</totfact>
</mgrwt>
</event>
<event>
 4    2  0.1993797E+006  0.2912542E+01  0.7546771E-02  0.2550561E+00
         22   -1    0    0    0    0  0.00000000000E+00  0.00000000000E+00  0.34787212234E+02  0.34787212234E+02  0.00000000000E+00 0. -1.
         22   -1    0    0    0    0 -0.00000000000E+00 -0.00000000000E+00 -0.60350681067E+00  0.60350681067E+00  0.00000000000E+00 0.  1.
          4    1    1    2  501    0 -0.22766905189E+01 -0.18164742184E+01  0.30752202249E+02  0.30889817764E+02  0.00000000000E+00 0. -1.
         -4    1    1    2    0  501  0.22766905189E+01  0.18164742184E+01  0.34315031736E+01  0.45009012803E+01  0.00000000000E+00 0.  1.
<mgrwt>
<rscale>  0 0.29125416E+01</rscale>
<asrwt>0</asrwt>
<pdfrwt beam="1">0</pdfrwt>
<pdfrwt beam="2">0</pdfrwt>
<totfact> 0.59707693E+11</totfact>
</mgrwt>
</event>
<event>
 4    2  0.1993797E+006  0.2179622E+01  0.7546771E-02  0.2869192E+00
         22   -1    0    0    0    0  0.00000000000E+00  0.00000000000E+00  0.45573476001E+00  0.45573476001E+00  0.00000000000E+00 0.  1.
         22   -1    0    0    0    0 -0.00000000000E+00 -0.00000000000E+00 -0.15816867029E+02  0.15816867029E+02  0.00000000000E+00 0. -1.
          4    1    1    2  501    0 -0.21661114547E+00 -0.21688315355E+01 -0.29298238233E+01  0.36516596574E+01  0.00000000000E+00 0.  1.
         -4    1    1    2    0  501  0.21661114547E+00  0.21688315355E+01 -0.12431308445E+02  0.12620942131E+02  0.00000000000E+00 0. -1.
<mgrwt>
<rscale>  0 0.21796217E+01</rscale>
<asrwt>0</asrwt>
<pdfrwt beam="1">0</pdfrwt>
<pdfrwt beam="2">0</pdfrwt>
<totfact> 0.22102099E+12</totfact>
</mgrwt>
</event>
<event>
 4    2  0.1993797E+006  0.4024688E+01  0.7546771E-02  0.2272600E+00
         22   -1    0    0    0    0  0.00000000000E+00  0.00000000000E+00  0.88049000076E+01  0.88049000076E+01  0.00000000000E+00 0.  1.
         22   -1    0    0    0    0 -0.00000000000E+00 -0.00000000000E+00 -0.27311927378E+01  0.27311927378E+01  0.00000000000E+00 0. -1.
          4    1    1    2  501    0 -0.11244026374E+01  0.38644317436E+01  0.63323336432E+01  0.75031035819E+01  0.00000000000E+00 0.  1.
         -4    1    1    2    0  501  0.11244026374E+01 -0.38644317436E+01 -0.25862637329E+00  0.40329891635E+01  0.00000000000E+00 0. -1.
<mgrwt>
<rscale>  0 0.40246881E+01</rscale>
<asrwt>0</asrwt>
<pdfrwt beam="1">0</pdfrwt>
<pdfrwt beam="2">0</pdfrwt>
<totfact> 0.58093446E+11</totfact>
</mgrwt>
</event>
<event>
 4    2  0.1993797E+006  0.3223505E+01  0.7546771E-02  0.2455944E+00
         22   -1    0    0    0    0  0.00000000000E+00  0.00000000000E+00  0.36420671098E+00  0.36420671098E+00  0.00000000000E+00 0.  1.
         22   -1    0    0    0    0 -0.00000000000E+00 -0.00000000000E+00 -0.32206090728E+02  0.32206090728E+02  0.00000000000E+00 0. -1.
          4    1    1    2  501    0  0.13532041432E+01 -0.29257179257E+01 -0.21422533784E+02  0.21663700990E+02  0.00000000000E+00 0. -1.
         -4    1    1    2    0  501 -0.13532041432E+01  0.29257179257E+01 -0.10419350233E+02  0.10906596449E+02  0.00000000000E+00 0.  1.
<mgrwt>
<rscale>  0 0.32235054E+01</rscale>
<asrwt>0</asrwt>
<pdfrwt beam="1">0</pdfrwt>
<pdfrwt beam="2">0</pdfrwt>
<totfact> 0.11653141E+12</totfact>
</mgrwt>
</event>
<event>
 4    2  0.1993797E+006  0.2289980E+01  0.7546771E-02  0.2809047E+00
         22   -1    0    0    0    0  0.00000000000E+00  0.00000000000E+00  0.10194150573E+01  0.10194150573E+01  0.00000000000E+00 0.  1.
         22   -1    0    0    0    0 -0.00000000000E+00 -0.00000000000E+00 -0.52134618225E+01  0.52134618225E+01  0.00000000000E+00 0. -1.
          4    1    1    2  501    0  0.24809815604E+00  0.22765006969E+01 -0.24563983443E+01  0.33582586178E+01  0.00000000000E+00 0.  1.
         -4    1    1    2    0  501 -0.24809815604E+00 -0.22765006969E+01 -0.17376484209E+01  0.28746182621E+01  0.00000000000E+00 0. -1.
<mgrwt>
<rscale>  0 0.22899799E+01</rscale>
<asrwt>0</asrwt>
<pdfrwt beam="1">0</pdfrwt>
<pdfrwt beam="2">0</pdfrwt>
<totfact> 0.33864614E+12</totfact>
</mgrwt>
</event>
<event>
 4    2  0.1993797E+006  0.2614117E+01  0.7546771E-02  0.2660262E+00
         22   -1    0    0    0    0  0.00000000000E+00  0.00000000000E+00  0.73575911435E+01  0.73575911435E+01  0.00000000000E+00 0. -1.
         22   -1    0    0    0    0 -0.00000000000E+00 -0.00000000000E+00 -0.11536703168E+01  0.11536703168E+01  0.00000000000E+00 0.  1.
          4    1    1    2  501    0  0.82993157108E+00 -0.24788745448E+01  0.49808686855E+01  0.56251807334E+01  0.00000000000E+00 0. -1.
         -4    1    1    2    0  501 -0.82993157108E+00  0.24788745448E+01  0.12230521412E+01  0.28860807268E+01  0.00000000000E+00 0.  1.
<mgrwt>
<rscale>  0 0.26141166E+01</rscale>
<asrwt>0</asrwt>
<pdfrwt beam="1">0</pdfrwt>
<pdfrwt beam="2">0</pdfrwt>
<totfact> 0.19500027E+12</totfact>
</mgrwt>
</event>
<event>
 4    2  0.1993797E+006  0.3293326E+01  0.7546771E-02  0.2436895E+00
         22   -1    0    0    0    0  0.00000000000E+00  0.00000000000E+00  0.20384492749E+01  0.20384492749E+01  0.00000000000E+00 0. -1.
         22   -1    0    0    0    0 -0.00000000000E+00 -0.00000000000E+00 -0.61095102063E+01  0.61095102063E+01  0.00000000000E+00 0.  1.
          4    1    1    2  501    0  0.29253265514E+01 -0.15127667083E+01 -0.57167221041E+00  0.33425750047E+01  0.00000000000E+00 0. -1.
         -4    1    1    2    0  501 -0.29253265514E+01  0.15127667083E+01 -0.34993887211E+01  0.48053844765E+01  0.00000000000E+00 0.  1.
<mgrwt>
<rscale>  0 0.32933264E+01</rscale>
<asrwt>0</asrwt>
<pdfrwt beam="1">0</pdfrwt>
<pdfrwt beam="2">0</pdfrwt>
<totfact> 0.12643630E+12</totfact>
</mgrwt>
</event>
<event>
 4    2  0.1993797E+006  0.3578665E+01  0.7546771E-02  0.2365880E+00
         22   -1    0    0    0    0  0.00000000000E+00  0.00000000000E+00  0.12030655337E+02  0.12030655337E+02  0.00000000000E+00 0.  1.
         22   -1    0    0    0    0 -0.00000000000E+00 -0.00000000000E+00 -0.40642192856E+01  0.40642192856E+01  0.00000000000E+00 0. -1.
          4    1    1    2  501    0  0.33214422160E+01  0.13322407258E+01  0.10896878905E+02  0.11469473119E+02  0.00000000000E+00 0.  1.
         -4    1    1    2    0  501 -0.33214422160E+01 -0.13322407258E+01 -0.29304428543E+01  0.46254015034E+01  0.00000000000E+00 0. -1.
<mgrwt>
<rscale>  0 0.35786651E+01</rscale>
<asrwt>0</asrwt>
<pdfrwt beam="1">0</pdfrwt>
<pdfrwt beam="2">0</pdfrwt>
<totfact> 0.24980172E+11</totfact>
</mgrwt>
</event>
<event>
 4    2  0.1993797E+006  0.2586445E+01  0.7546771E-02  0.2671604E+00
         22   -1    0    0    0    0  0.00000000000E+00  0.00000000000E+00  0.43095841668E+00  0.43095841668E+00  0.00000000000E+00 0. -1.
         22   -1    0    0    0    0 -0.00000000000E+00 -0.00000000000E+00 -0.21762395047E+02  0.21762395047E+02  0.00000000000E+00 0.  1.
          4    1    1    2  501    0 -0.23987054128E+01 -0.96742319621E+00 -0.47239370193E+01  0.53856546733E+01  0.00000000000E+00 0. -1.
         -4    1    1    2    0  501  0.23987054128E+01  0.96742319621E+00 -0.16607499611E+02  0.16807698791E+02  0.00000000000E+00 0.  1.
<mgrwt>
<rscale>  0 0.25864445E+01</rscale>
<asrwt>0</asrwt>
<pdfrwt beam="1">0</pdfrwt>
<pdfrwt beam="2">0</pdfrwt>
<totfact> 0.15834868E+12</totfact>
</mgrwt>
</event>
<event>
 4    2  0.1993797E+006  0.3208127E+01  0.7546771E-02  0.2460238E+00
         22   -1    0    0    0    0  0.00000000000E+00  0.00000000000E+00  0.20606398234E+02  0.20606398234E+02  0.00000000000E+00 0.  1.
         22   -1    0    0    0    0 -0.00000000000E+00 -0.00000000000E+00 -0.22321958075E+01  0.22321958075E+01  0.00000000000E+00 0. -1.
          4    1    1    2  501    0 -0.82586971715E+00  0.31000029954E+01  0.19248059620E+02  0.19513581898E+02  0.00000000000E+00 0.  1.
         -4    1    1    2    0  501  0.82586971715E+00 -0.31000029954E+01 -0.87385719327E+00  0.33250121436E+01  0.00000000000E+00 0. -1.
<mgrwt>
<rscale>  0 0.32081271E+01</rscale>
<asrwt>0</asrwt>
<pdfrwt beam="1">0</pdfrwt>
<pdfrwt beam="2">0</pdfrwt>
<totfact> 0.25905203E+11</totfact>
</mgrwt>
</event>
<event>
 4    2  0.1993797E+006  0.2253377E+01  0.7546771E-02  0.2828372E+00
         22   -1    0    0    0    0  0.00000000000E+00  0.00000000000E+00  0.94389049912E-01  0.94389049912E-01  0.00000000000E+00 0. -1.
         22   -1    0    0    0    0 -0.00000000000E+00 -0.00000000000E+00 -0.60244253933E+02  0.60244253933E+02  0.00000000000E+00 0.  1.
          4    1    1    2  501    0 -0.21800136559E+01  0.57030719099E+00 -0.39945549688E+02  0.40009057095E+02  0.00000000000E+00 0.  1.
         -4    1    1    2    0  501  0.21800136559E+01 -0.57030719099E+00 -0.20204315195E+02  0.20329585887E+02  0.00000000000E+00 0. -1.
<mgrwt>
<rscale>  0 0.22533774E+01</rscale>
<asrwt>0</asrwt>
<pdfrwt beam="1">0</pdfrwt>
<pdfrwt beam="2">0</pdfrwt>
<totfact> 0.23149315E+12</totfact>
</mgrwt>
</event>
<event>
 4    2  0.1993797E+006  0.4810042E+01  0.7546771E-02  0.2146384E+00
         22   -1    0    0    0    0  0.00000000000E+00  0.00000000000E+00  0.12895862128E+02  0.12895862128E+02  0.00000000000E+00 0.  1.
         22   -1    0    0    0    0 -0.00000000000E+00 -0.00000000000E+00 -0.28373477887E+01  0.28373477887E+01  0.00000000000E+00 0. -1.
          4    1    1    2  501    0 -0.43725375053E+01  0.20043495940E+01  0.97993213445E+01  0.10916189827E+02  0.00000000000E+00 0. -1.
         -4    1    1    2    0  501  0.43725375053E+01 -0.20043495940E+01  0.25919299448E+00  0.48170200891E+01  0.00000000000E+00 0.  1.
<mgrwt>
<rscale>  0 0.48100417E+01</rscale>
<asrwt>0</asrwt>
<pdfrwt beam="1">0</pdfrwt>
<pdfrwt beam="2">0</pdfrwt>
<totfact> 0.34965992E+11</totfact>
</mgrwt>
</event>
<event>
 4    2  0.1993797E+006  0.2178841E+01  0.7546771E-02  0.2869639E+00
         22   -1    0    0    0    0  0.00000000000E+00  0.00000000000E+00  0.20677244314E+02  0.20677244314E+02  0.00000000000E+00 0. -1.
         22   -1    0    0    0    0 -0.00000000000E+00 -0.00000000000E+00 -0.37609609460E+00  0.37609609460E+00  0.00000000000E+00 0.  1.
          4    1    1    2  501    0  0.55185704876E+00  0.21077952023E+01  0.16720572636E+02  0.16861936309E+02  0.00000000000E+00 0. -1.
         -4    1    1    2    0  501 -0.55185704876E+00 -0.21077952023E+01  0.35805755837E+01  0.41914040998E+01  0.00000000000E+00 0.  1.
<mgrwt>
<rscale>  0 0.21788407E+01</rscale>
<asrwt>0</asrwt>
<pdfrwt beam="1">0</pdfrwt>
<pdfrwt beam="2">0</pdfrwt>
<totfact> 0.19676294E+12</totfact>
</mgrwt>
</event>
<event>
 4    2  0.1993797E+006  0.2641237E+01  0.7546771E-02  0.2649358E+00
         22   -1    0    0    0    0  0.00000000000E+00  0.00000000000E+00  0.23019537896E+01  0.23019537896E+01  0.00000000000E+00 0. -1.
         22   -1    0    0    0    0 -0.00000000000E+00 -0.00000000000E+00 -0.20496141992E+02  0.20496141992E+02  0.00000000000E+00 0.  1.
          4    1    1    2  501    0 -0.16111327649E+01 -0.20929368945E+01  0.14255396850E+01  0.30013825188E+01  0.00000000000E+00 0. -1.
         -4    1    1    2    0  501  0.16111327649E+01  0.20929368945E+01 -0.19619727887E+02  0.19796713262E+02  0.00000000000E+00 0.  1.
<mgrwt>
<rscale>  0 0.26412371E+01</rscale>
<asrwt>0</asrwt>
<pdfrwt beam="1">0</pdfrwt>
<pdfrwt beam="2">0</pdfrwt>
<totfact> 0.25163882E+11</totfact>
</mgrwt>
</event>
<event>
 4    2  0.1993797E+006  0.2020552E+01  0.7546771E-02  0.2966989E+00
         22   -1    0    0    0    0  0.00000000000E+00  0.00000000000E+00  0.37746228909E+01  0.37746228909E+01  0.00000000000E+00 0. -1.
         22   -1    0    0    0    0 -0.00000000000E+00 -0.00000000000E+00 -0.15882636438E+01  0.15882636438E+01  0.00000000000E+00 0.  1.
          4    1    1    2  501    0  0.13885607433E+01  0.14678318376E+01  0.26076726786E+01  0.32988767846E+01  0.00000000000E+00 0. -1.
         -4    1    1    2    0  501 -0.13885607433E+01 -0.14678318376E+01 -0.42131343152E+00  0.20640097501E+01  0.00000000000E+00 0.  1.
<mgrwt>
<rscale>  0 0.20205522E+01</rscale>
<asrwt>0</asrwt>
<pdfrwt beam="1">0</pdfrwt>
<pdfrwt beam="2">0</pdfrwt>
<totfact> 0.29808602E+12</totfact>
</mgrwt>
</event>
<event>
 4    2  0.1993797E+006  0.3274003E+01  0.7546771E-02  0.2442095E+00
         22   -1    0    0    0    0  0.00000000000E+00  0.00000000000E+00  0.17827477855E+01  0.17827477855E+01  0.00000000000E+00 0. -1.
         22   -1    0    0    0    0 -0.00000000000E+00 -0.00000000000E+00 -0.62568509910E+01  0.62568509910E+01  0.00000000000E+00 0.  1.
          4    1    1    2  501    0  0.15802677282E+01  0.28673763313E+01 -0.14429557531E+01  0.35778784808E+01  0.00000000000E+00 0.  1.
         -4    1    1    2    0  501 -0.15802677282E+01 -0.28673763313E+01 -0.30311474525E+01  0.44617202957E+01  0.00000000000E+00 0. -1.
<mgrwt>
<rscale>  0 0.32740026E+01</rscale>
<asrwt>0</asrwt>
<pdfrwt beam="1">0</pdfrwt>
<pdfrwt beam="2">0</pdfrwt>
<totfact> 0.14349852E+12</totfact>
</mgrwt>
</event>
<event>
 4    2  0.1993797E+006  0.2725927E+01  0.7546771E-02  0.2616595E+00
         22   -1    0    0    0    0  0.00000000000E+00  0.00000000000E+00  0.10960742525E+02  0.10960742525E+02  0.00000000000E+00 0.  1.
         22   -1    0    0    0    0 -0.00000000000E+00 -0.00000000000E+00 -0.77353555513E+00  0.77353555513E+00  0.00000000000E+00 0. -1.
          4    1    1    2  501    0  0.27026475939E+01  0.35549111208E+00  0.71562034407E+01  0.76578016187E+01  0.00000000000E+00 0. -1.
         -4    1    1    2    0  501 -0.27026475939E+01 -0.35549111208E+00  0.30310035296E+01  0.40764764618E+01  0.00000000000E+00 0.  1.
<mgrwt>
<rscale>  0 0.27259270E+01</rscale>
<asrwt>0</asrwt>
<pdfrwt beam="1">0</pdfrwt>
<pdfrwt beam="2">0</pdfrwt>
<totfact> 0.19022612E+12</totfact>
</mgrwt>
</event>
<event>
 4    2  0.1993797E+006  0.5962069E+01  0.7546771E-02  0.2023106E+00
         22   -1    0    0    0    0  0.00000000000E+00  0.00000000000E+00  0.39157766983E+01  0.39157766983E+01  0.00000000000E+00 0.  1.
         22   -1    0    0    0    0 -0.00000000000E+00 -0.00000000000E+00 -0.94697608249E+01  0.94697608249E+01  0.00000000000E+00 0. -1.
          4    1    1    2  501    0 -0.52239666097E+01 -0.28734018346E+01 -0.41387826789E+01  0.72578087124E+01  0.00000000000E+00 0. -1.
         -4    1    1    2    0  501  0.52239666097E+01  0.28734018346E+01 -0.14152014477E+01  0.61277288108E+01  0.00000000000E+00 0.  1.
<mgrwt>
<rscale>  0 0.59620689E+01</rscale>
<asrwt>0</asrwt>
<pdfrwt beam="1">0</pdfrwt>
<pdfrwt beam="2">0</pdfrwt>
<totfact> 0.34897446E+11</totfact>
</mgrwt>
</event>
<event>
 4    2  0.1993797E+006  0.2186289E+01  0.7546771E-02  0.2865394E+00
         22   -1    0    0    0    0  0.00000000000E+00  0.00000000000E+00  0.83153136563E+00  0.83153136563E+00  0.00000000000E+00 0. -1.
         22   -1    0    0    0    0 -0.00000000000E+00 -0.00000000000E+00 -0.95899787466E+01  0.95899787466E+01  0.00000000000E+00 0.  1.
          4    1    1    2  501    0 -0.12756624930E+01  0.17755401722E+01 -0.10811931475E+01  0.24390236410E+01  0.00000000000E+00 0. -1.
         -4    1    1    2    0  501  0.12756624930E+01 -0.17755401722E+01 -0.76772542335E+01  0.79824864713E+01  0.00000000000E+00 0.  1.
<mgrwt>
<rscale>  0 0.21862886E+01</rscale>
<asrwt>0</asrwt>
<pdfrwt beam="1">0</pdfrwt>
<pdfrwt beam="2">0</pdfrwt>
<totfact> 0.20599170E+12</totfact>
</mgrwt>
</event>
<event>
 4    2  0.1993797E+006  0.2171789E+01  0.7546771E-02  0.2873683E+00
         22   -1    0    0    0    0  0.00000000000E+00  0.00000000000E+00  0.74124009848E+01  0.74124009848E+01  0.00000000000E+00 0.  1.
         22   -1    0    0    0    0 -0.00000000000E+00 -0.00000000000E+00 -0.14675268524E+01  0.14675268524E+01  0.00000000000E+00 0. -1.
          4    1    1    2  501    0 -0.21420109412E+01  0.35841049267E+00  0.63139305533E+01  0.66770044171E+01  0.00000000000E+00 0.  1.
         -4    1    1    2    0  501  0.21420109412E+01 -0.35841049267E+00 -0.36905642090E+00  0.22029234202E+01  0.00000000000E+00 0. -1.
<mgrwt>
<rscale>  0 0.21717893E+01</rscale>
<asrwt>0</asrwt>
<pdfrwt beam="1">0</pdfrwt>
<pdfrwt beam="2">0</pdfrwt>
<totfact> 0.14663311E+12</totfact>
</mgrwt>
</event>
<event>
 4    2  0.1993797E+006  0.4381023E+01  0.7546771E-02  0.2209885E+00
         22   -1    0    0    0    0  0.00000000000E+00  0.00000000000E+00  0.43148620753E+01  0.43148620753E+01  0.00000000000E+00 0.  1.
         22   -1    0    0    0    0 -0.00000000000E+00 -0.00000000000E+00 -0.45171342021E+01  0.45171342021E+01  0.00000000000E+00 0. -1.
          4    1    1    2  501    0 -0.24253424706E+00 -0.43743049007E+01 -0.64666418085E+00  0.44284919316E+01  0.00000000000E+00 0. -1.
         -4    1    1    2    0  501  0.24253424706E+00  0.43743049007E+01  0.44439205408E+00  0.44035043458E+01  0.00000000000E+00 0.  1.
<mgrwt>
<rscale>  0 0.43810234E+01</rscale>
<asrwt>0</asrwt>
<pdfrwt beam="1">0</pdfrwt>
<pdfrwt beam="2">0</pdfrwt>
<totfact> 0.75329908E+11</totfact>
</mgrwt>
</event>
<event>
 4    2  0.1993797E+006  0.3288273E+01  0.7546771E-02  0.2438249E+00
         22   -1    0    0    0    0  0.00000000000E+00  0.00000000000E+00  0.82101781501E+00  0.82101781501E+00  0.00000000000E+00 0.  1.
         22   -1    0    0    0    0 -0.00000000000E+00 -0.00000000000E+00 -0.13719502905E+02  0.13719502905E+02  0.00000000000E+00 0. -1.
          4    1    1    2  501    0  0.28976795060E+01  0.15544103136E+01 -0.49941257115E+01  0.59794673312E+01  0.00000000000E+00 0. -1.
         -4    1    1    2    0  501 -0.28976795060E+01 -0.15544103136E+01 -0.79043593789E+01  0.85610533892E+01  0.00000000000E+00 0.  1.
<mgrwt>
<rscale>  0 0.32882728E+01</rscale>
<asrwt>0</asrwt>
<pdfrwt beam="1">0</pdfrwt>
<pdfrwt beam="2">0</pdfrwt>
<totfact> 0.13516251E+12</totfact>
</mgrwt>
</event>
<event>
 4    2  0.1993797E+006  0.2455194E+01  0.7546771E-02  0.2728619E+00
         22   -1    0    0    0    0  0.00000000000E+00  0.00000000000E+00  0.85366813319E+00  0.85366813319E+00  0.00000000000E+00 0. -1.
         22   -1    0    0    0    0 -0.00000000000E+00 -0.00000000000E+00 -0.76279019051E+01  0.76279019051E+01  0.00000000000E+00 0.  1.
          4    1    1    2  501    0 -0.12265837727E+01  0.21268456046E+01 -0.22312847662E+01  0.33176213896E+01  0.00000000000E+00 0. -1.
         -4    1    1    2    0  501  0.12265837727E+01 -0.21268456046E+01 -0.45429490057E+01  0.51639486487E+01  0.00000000000E+00 0.  1.
<mgrwt>
<rscale>  0 0.24551945E+01</rscale>
<asrwt>0</asrwt>
<pdfrwt beam="1">0</pdfrwt>
<pdfrwt beam="2">0</pdfrwt>
<totfact> 0.26338334E+12</totfact>
</mgrwt>
</event>
<event>
 4    2  0.1993797E+006  0.2545263E+01  0.7546771E-02  0.2688905E+00
         22   -1    0    0    0    0  0.00000000000E+00  0.00000000000E+00  0.61250859145E-01  0.61250859145E-01  0.00000000000E+00 0.  1.
         22   -1    0    0    0    0 -0.00000000000E+00 -0.00000000000E+00 -0.10612581745E+03  0.10612581745E+03  0.00000000000E+00 0. -1.
          4    1    1    2  501    0 -0.14940767460E+01  0.20606062353E+01 -0.56116430466E+02  0.56174123327E+02  0.00000000000E+00 0.  1.
         -4    1    1    2    0  501  0.14940767460E+01 -0.20606062353E+01 -0.49948136128E+02  0.50012944985E+02  0.00000000000E+00 0. -1.
<mgrwt>
<rscale>  0 0.25452629E+01</rscale>
<asrwt>0</asrwt>
<pdfrwt beam="1">0</pdfrwt>
<pdfrwt beam="2">0</pdfrwt>
<totfact> 0.17124355E+12</totfact>
</mgrwt>
</event>
<event>
 4    2  0.1993797E+006  0.3447920E+01  0.7546771E-02  0.2397143E+00
         22   -1    0    0    0    0  0.00000000000E+00  0.00000000000E+00  0.12632583092E+01  0.12632583092E+01  0.00000000000E+00 0. -1.
         22   -1    0    0    0    0 -0.00000000000E+00 -0.00000000000E+00 -0.25413421261E+02  0.25413421261E+02  0.00000000000E+00 0.  1.
          4    1    1    2  501    0 -0.15872206665E+01 -0.30608634754E+01 -0.14906624428E+01  0.37563584996E+01  0.00000000000E+00 0. -1.
         -4    1    1    2    0  501  0.15872206665E+01  0.30608634754E+01 -0.22659500509E+02  0.22920321071E+02  0.00000000000E+00 0.  1.
<mgrwt>
<rscale>  0 0.34479203E+01</rscale>
<asrwt>0</asrwt>
<pdfrwt beam="1">0</pdfrwt>
<pdfrwt beam="2">0</pdfrwt>
<totfact> 0.38389127E+11</totfact>
</mgrwt>
</event>
<event>
 4    2  0.1993797E+006  0.3240673E+01  0.7546771E-02  0.2451193E+00
         22   -1    0    0    0    0  0.00000000000E+00  0.00000000000E+00  0.36905477416E+01  0.36905477416E+01  0.00000000000E+00 0. -1.
         22   -1    0    0    0    0 -0.00000000000E+00 -0.00000000000E+00 -0.29357160542E+01  0.29357160542E+01  0.00000000000E+00 0.  1.
          4    1    1    2  501    0  0.24682320725E+01  0.20999504827E+01 -0.20293691039E+00  0.32470209398E+01  0.00000000000E+00 0.  1.
         -4    1    1    2    0  501 -0.24682320725E+01 -0.20999504827E+01  0.95776859777E+00  0.33792428561E+01  0.00000000000E+00 0. -1.
<mgrwt>
<rscale>  0 0.32406730E+01</rscale>
<asrwt>0</asrwt>
<pdfrwt beam="1">0</pdfrwt>
<pdfrwt beam="2">0</pdfrwt>
<totfact> 0.15015341E+12</totfact>
</mgrwt>
</event>
<event>
 4    2  0.1993797E+006  0.3934917E+01  0.7546771E-02  0.2289910E+00
         22   -1    0    0    0    0  0.00000000000E+00  0.00000000000E+00  0.16842071303E+01  0.16842071303E+01  0.00000000000E+00 0.  1.
         22   -1    0    0    0    0 -0.00000000000E+00 -0.00000000000E+00 -0.92066628037E+01  0.92066628037E+01  0.00000000000E+00 0. -1.
          4    1    1    2  501    0 -0.49342730415E+00 -0.39038576395E+01 -0.35544787882E+01  0.53026308969E+01  0.00000000000E+00 0.  1.
         -4    1    1    2    0  501  0.49342730415E+00  0.39038576395E+01 -0.39679768853E+01  0.55882390371E+01  0.00000000000E+00 0. -1.
<mgrwt>
<rscale>  0 0.39349174E+01</rscale>
<asrwt>0</asrwt>
<pdfrwt beam="1">0</pdfrwt>
<pdfrwt beam="2">0</pdfrwt>
<totfact> 0.96416205E+11</totfact>
</mgrwt>
</event>
<event>
 4    2  0.1993797E+006  0.3366408E+01  0.7546771E-02  0.2417703E+00
         22   -1    0    0    0    0  0.00000000000E+00  0.00000000000E+00  0.11009090316E+01  0.11009090316E+01  0.00000000000E+00 0. -1.
         22   -1    0    0    0    0 -0.00000000000E+00 -0.00000000000E+00 -0.11786965261E+02  0.11786965261E+02  0.00000000000E+00 0.  1.
          4    1    1    2  501    0  0.33396501065E+01 -0.42360445632E+00 -0.76364411657E+01  0.83455339701E+01  0.00000000000E+00 0.  1.
         -4    1    1    2    0  501 -0.33396501065E+01  0.42360445632E+00 -0.30496150640E+01  0.45423403227E+01  0.00000000000E+00 0. -1.
<mgrwt>
<rscale>  0 0.33664081E+01</rscale>
<asrwt>0</asrwt>
<pdfrwt beam="1">0</pdfrwt>
<pdfrwt beam="2">0</pdfrwt>
<totfact> 0.11643522E+12</totfact>
</mgrwt>
</event>
<event>
 4    2  0.1993797E+006  0.1023575E+02  0.7546771E-02  0.1769160E+00
         22   -1    0    0    0    0  0.00000000000E+00  0.00000000000E+00  0.46672816371E+01  0.46672816371E+01  0.00000000000E+00 0. -1.
         22   -1    0    0    0    0 -0.00000000000E+00 -0.00000000000E+00 -0.51207511792E+02  0.51207511792E+02  0.00000000000E+00 0.  1.
          4    1    1    2  501    0  0.94402160017E+01 -0.39563700201E+01 -0.23332903491E+01  0.10498322997E+02  0.00000000000E+00 0. -1.
         -4    1    1    2    0  501 -0.94402160017E+01  0.39563700201E+01 -0.44206939805E+02  0.45376470432E+02  0.00000000000E+00 0.  1.
<mgrwt>
<rscale>  0 0.10235748E+02</rscale>
<asrwt>0</asrwt>
<pdfrwt beam="1">0</pdfrwt>
<pdfrwt beam="2">0</pdfrwt>
<totfact> 0.34010755E+10</totfact>
</mgrwt>
</event>
<event>
 4    2  0.1993797E+006  0.2142243E+01  0.7546771E-02  0.2890909E+00
         22   -1    0    0    0    0  0.00000000000E+00  0.00000000000E+00  0.77035839942E+01  0.77035839942E+01  0.00000000000E+00 0.  1.
         22   -1    0    0    0    0 -0.00000000000E+00 -0.00000000000E+00 -0.71193234665E+00  0.71193234665E+00  0.00000000000E+00 0. -1.
          4    1    1    2  501    0 -0.18858648146E+01 -0.10162270991E+01  0.51958362605E+01  0.56201350573E+01  0.00000000000E+00 0.  1.
         -4    1    1    2    0  501  0.18858648146E+01  0.10162270991E+01  0.17958153870E+01  0.27953812835E+01  0.00000000000E+00 0. -1.
<mgrwt>
<rscale>  0 0.21422427E+01</rscale>
<asrwt>0</asrwt>
<pdfrwt beam="1">0</pdfrwt>
<pdfrwt beam="2">0</pdfrwt>
<totfact> 0.31995256E+12</totfact>
</mgrwt>
</event>
<event>
 4    2  0.1993797E+006  0.2904777E+01  0.7546771E-02  0.2553155E+00
         22   -1    0    0    0    0  0.00000000000E+00  0.00000000000E+00  0.19836437644E+02  0.19836437644E+02  0.00000000000E+00 0.  1.
         22   -1    0    0    0    0 -0.00000000000E+00 -0.00000000000E+00 -0.24646099570E+01  0.24646099570E+01  0.00000000000E+00 0. -1.
          4    1    1    2  501    0  0.28942374174E+01 -0.24721765659E+00  0.18828667216E+02  0.19051415589E+02  0.00000000000E+00 0.  1.
         -4    1    1    2    0  501 -0.28942374174E+01  0.24721765659E+00 -0.14568395296E+01  0.32496320119E+01  0.00000000000E+00 0. -1.
<mgrwt>
<rscale>  0 0.29047765E+01</rscale>
<asrwt>0</asrwt>
<pdfrwt beam="1">0</pdfrwt>
<pdfrwt beam="2">0</pdfrwt>
<totfact> 0.24213355E+11</totfact>
</mgrwt>
</event>
<event>
 4    2  0.1993797E+006  0.9052424E+01  0.7546771E-02  0.1820931E+00
         22   -1    0    0    0    0  0.00000000000E+00  0.00000000000E+00  0.26066227921E+01  0.26066227921E+01  0.00000000000E+00 0.  1.
         22   -1    0    0    0    0 -0.00000000000E+00 -0.00000000000E+00 -0.31536316193E+02  0.31536316193E+02  0.00000000000E+00 0. -1.
          4    1    1    2  501    0  0.75225625686E+01 -0.50356162574E+01 -0.15419201738E+02  0.17880105171E+02  0.00000000000E+00 0.  1.
         -4    1    1    2    0  501 -0.75225625686E+01  0.50356162574E+01 -0.13510491664E+02  0.16262833815E+02  0.00000000000E+00 0. -1.
<mgrwt>
<rscale>  0 0.90524239E+01</rscale>
<asrwt>0</asrwt>
<pdfrwt beam="1">0</pdfrwt>
<pdfrwt beam="2">0</pdfrwt>
<totfact> 0.12638923E+11</totfact>
</mgrwt>
</event>
<event>
 4    2  0.1993797E+006  0.3547855E+01  0.7546771E-02  0.2373066E+00
         22   -1    0    0    0    0  0.00000000000E+00  0.00000000000E+00  0.24684538725E+02  0.24684538725E+02  0.00000000000E+00 0.  1.
         22   -1    0    0    0    0 -0.00000000000E+00 -0.00000000000E+00 -0.52861431679E+00  0.52861431679E+00  0.00000000000E+00 0. -1.
          4    1    1    2  501    0  0.28430041860E+01 -0.21224040845E+01  0.14448355554E+02  0.14877575412E+02  0.00000000000E+00 0.  1.
         -4    1    1    2    0  501 -0.28430041860E+01  0.21224040845E+01  0.97075688538E+01  0.10335577630E+02  0.00000000000E+00 0. -1.
<mgrwt>
<rscale>  0 0.35478545E+01</rscale>
<asrwt>0</asrwt>
<pdfrwt beam="1">0</pdfrwt>
<pdfrwt beam="2">0</pdfrwt>
<totfact> 0.10734481E+12</totfact>
</mgrwt>
</event>
<event>
 4    2  0.1993797E+006  0.2069699E+01  0.7546771E-02  0.2935215E+00
         22   -1    0    0    0    0  0.00000000000E+00  0.00000000000E+00  0.44844575262E+00  0.44844575262E+00  0.00000000000E+00 0.  1.
         22   -1    0    0    0    0 -0.00000000000E+00 -0.00000000000E+00 -0.10117998620E+02  0.10117998620E+02  0.00000000000E+00 0. -1.
          4    1    1    2  501    0  0.23765210055E+00 -0.20560100312E+01 -0.35854612326E+01  0.41399502436E+01  0.00000000000E+00 0.  1.
         -4    1    1    2    0  501 -0.23765210055E+00  0.20560100312E+01 -0.60840916348E+01  0.64264941290E+01  0.00000000000E+00 0. -1.
<mgrwt>
<rscale>  0 0.20696994E+01</rscale>
<asrwt>0</asrwt>
<pdfrwt beam="1">0</pdfrwt>
<pdfrwt beam="2">0</pdfrwt>
<totfact> 0.38853719E+12</totfact>
</mgrwt>
</event>
<event>
 4    2  0.1993797E+006  0.6555526E+01  0.7546771E-02  0.1973179E+00
         22   -1    0    0    0    0  0.00000000000E+00  0.00000000000E+00  0.19698615854E+02  0.19698615854E+02  0.00000000000E+00 0.  1.
         22   -1    0    0    0    0 -0.00000000000E+00 -0.00000000000E+00 -0.39686167552E+01  0.39686167552E+01  0.00000000000E+00 0. -1.
          4    1    1    2  501    0  0.60777853968E+01  0.24567134257E+01  0.15805715295E+02  0.17111269741E+02  0.00000000000E+00 0.  1.
         -4    1    1    2    0  501 -0.60777853968E+01 -0.24567134257E+01 -0.75716195614E-01  0.65559628681E+01  0.00000000000E+00 0. -1.
<mgrwt>
<rscale>  0 0.65555256E+01</rscale>
<asrwt>0</asrwt>
<pdfrwt beam="1">0</pdfrwt>
<pdfrwt beam="2">0</pdfrwt>
<totfact> 0.13992067E+11</totfact>
</mgrwt>
</event>
<event>
 4    2  0.1993797E+006  0.2268776E+01  0.7546771E-02  0.2820169E+00
         22   -1    0    0    0    0  0.00000000000E+00  0.00000000000E+00  0.11647969270E+01  0.11647969270E+01  0.00000000000E+00 0.  1.
         22   -1    0    0    0    0 -0.00000000000E+00 -0.00000000000E+00 -0.44396015240E+01  0.44396015240E+01  0.00000000000E+00 0. -1.
          4    1    1    2  501    0 -0.14628469988E+01 -0.17341929843E+01 -0.18278553048E+01  0.29134861702E+01  0.00000000000E+00 0.  1.
         -4    1    1    2    0  501  0.14628469988E+01  0.17341929843E+01 -0.14469492922E+01  0.26909122808E+01  0.00000000000E+00 0. -1.
<mgrwt>
<rscale>  0 0.22687765E+01</rscale>
<asrwt>0</asrwt>
<pdfrwt beam="1">0</pdfrwt>
<pdfrwt beam="2">0</pdfrwt>
<totfact> 0.35160689E+12</totfact>
</mgrwt>
</event>
<event>
 4    2  0.1993797E+006  0.2034118E+01  0.7546771E-02  0.2958069E+00
         22   -1    0    0    0    0  0.00000000000E+00  0.00000000000E+00  0.30364619175E+00  0.30364619175E+00  0.00000000000E+00 0.  1.
         22   -1    0    0    0    0 -0.00000000000E+00 -0.00000000000E+00 -0.15244459057E+02  0.15244459057E+02  0.00000000000E+00 0. -1.
          4    1    1    2  501    0 -0.16641299511E+01  0.11697473669E+01 -0.49377627270E+01  0.53403312766E+01  0.00000000000E+00 0. -1.
         -4    1    1    2    0  501  0.16641299511E+01 -0.11697473669E+01 -0.10003050138E+02  0.10207773972E+02  0.00000000000E+00 0.  1.
<mgrwt>
<rscale>  0 0.20341183E+01</rscale>
<asrwt>0</asrwt>
<pdfrwt beam="1">0</pdfrwt>
<pdfrwt beam="2">0</pdfrwt>
<totfact> 0.36512872E+12</totfact>
</mgrwt>
</event>
<event>
 4    2  0.1993797E+006  0.3231408E+01  0.7546771E-02  0.2453751E+00
         22   -1    0    0    0    0  0.00000000000E+00  0.00000000000E+00  0.24055133279E+01  0.24055133279E+01  0.00000000000E+00 0.  1.
         22   -1    0    0    0    0 -0.00000000000E+00 -0.00000000000E+00 -0.32002149592E+02  0.32002149592E+02  0.00000000000E+00 0. -1.
          4    1    1    2  501    0 -0.19153846358E+01  0.26025560860E+01  0.11962241311E+01  0.34457145348E+01  0.00000000000E+00 0.  1.
         -4    1    1    2    0  501  0.19153846358E+01 -0.26025560860E+01 -0.30792860395E+02  0.30961948385E+02  0.00000000000E+00 0. -1.
<mgrwt>
<rscale>  0 0.32314078E+01</rscale>
<asrwt>0</asrwt>
<pdfrwt beam="1">0</pdfrwt>
<pdfrwt beam="2">0</pdfrwt>
<totfact> 0.13618406E+11</totfact>
</mgrwt>
</event>
<event>
 4    2  0.1993797E+006  0.2396923E+01  0.7546771E-02  0.2755795E+00
         22   -1    0    0    0    0  0.00000000000E+00  0.00000000000E+00  0.24107446110E+02  0.24107446110E+02  0.00000000000E+00 0. -1.
         22   -1    0    0    0    0 -0.00000000000E+00 -0.00000000000E+00 -0.97510488533E+00  0.97510488533E+00  0.00000000000E+00 0.  1.
          4    1    1    2  501    0  0.13646652064E+01  0.19705148633E+01  0.22467688352E+02  0.22595182227E+02  0.00000000000E+00 0. -1.
         -4    1    1    2    0  501 -0.13646652064E+01 -0.19705148633E+01  0.66465287248E+00  0.24873687689E+01  0.00000000000E+00 0.  1.
<mgrwt>
<rscale>  0 0.23969230E+01</rscale>
<asrwt>0</asrwt>
<pdfrwt beam="1">0</pdfrwt>
<pdfrwt beam="2">0</pdfrwt>
<totfact> 0.55172029E+11</totfact>
</mgrwt>
</event>
<event>
 4    2  0.1993797E+006  0.2716642E+01  0.7546771E-02  0.2620096E+00
         22   -1    0    0    0    0  0.00000000000E+00  0.00000000000E+00  0.83486664967E+02  0.83486664967E+02  0.00000000000E+00 0.  1.
         22   -1    0    0    0    0 -0.00000000000E+00 -0.00000000000E+00 -0.90426461620E-01  0.90426461620E-01  0.00000000000E+00 0. -1.
          4    1    1    2  501    0  0.27132826935E+01 -0.13505921148E+00  0.47955286556E+02  0.48032173099E+02  0.00000000000E+00 0. -1.
         -4    1    1    2    0  501 -0.27132826935E+01  0.13505921148E+00  0.35440951949E+02  0.35544918329E+02  0.00000000000E+00 0.  1.
<mgrwt>
<rscale>  0 0.27166420E+01</rscale>
<asrwt>0</asrwt>
<pdfrwt beam="1">0</pdfrwt>
<pdfrwt beam="2">0</pdfrwt>
<totfact> 0.15581803E+12</totfact>
</mgrwt>
</event>
<event>
 4    2  0.1993797E+006  0.6593389E+01  0.7546771E-02  0.1970231E+00
         22   -1    0    0    0    0  0.00000000000E+00  0.00000000000E+00  0.18801934439E+01  0.18801934439E+01  0.00000000000E+00 0.  1.
         22   -1    0    0    0    0 -0.00000000000E+00 -0.00000000000E+00 -0.32004829087E+02  0.32004829087E+02  0.00000000000E+00 0. -1.
          4    1    1    2  501    0  0.56531740851E+01 -0.33932877410E+01 -0.61362664547E+01  0.90070275304E+01  0.00000000000E+00 0.  1.
         -4    1    1    2    0  501 -0.56531740851E+01  0.33932877410E+01 -0.23988369189E+02  0.24877995001E+02  0.00000000000E+00 0. -1.
<mgrwt>
<rscale>  0 0.65933890E+01</rscale>
<asrwt>0</asrwt>
<pdfrwt beam="1">0</pdfrwt>
<pdfrwt beam="2">0</pdfrwt>
<totfact> 0.18117673E+11</totfact>
</mgrwt>
</event>
<event>
 4    2  0.1993797E+006  0.2202366E+01  0.7546771E-02  0.2856326E+00
         22   -1    0    0    0    0  0.00000000000E+00  0.00000000000E+00  0.61024475437E+01  0.61024475437E+01  0.00000000000E+00 0. -1.
         22   -1    0    0    0    0 -0.00000000000E+00 -0.00000000000E+00 -0.79841071283E+00  0.79841071283E+00  0.00000000000E+00 0.  1.
          4    1    1    2  501    0  0.16897092074E+01  0.14125501549E+01  0.28830532392E+01  0.36280037384E+01  0.00000000000E+00 0.  1.
         -4    1    1    2    0  501 -0.16897092074E+01 -0.14125501549E+01  0.24209835916E+01  0.32728545181E+01  0.00000000000E+00 0. -1.
<mgrwt>
<rscale>  0 0.22023658E+01</rscale>
<asrwt>0</asrwt>
<pdfrwt beam="1">0</pdfrwt>
<pdfrwt beam="2">0</pdfrwt>
<totfact> 0.37108058E+12</totfact>
</mgrwt>
</event>
<event>
 4    2  0.1993797E+006  0.2022078E+01  0.7546771E-02  0.2965980E+00
         22   -1    0    0    0    0  0.00000000000E+00  0.00000000000E+00  0.12791318774E+01  0.12791318774E+01  0.00000000000E+00 0. -1.
         22   -1    0    0    0    0 -0.00000000000E+00 -0.00000000000E+00 -0.22720981546E+02  0.22720981546E+02  0.00000000000E+00 0.  1.
          4    1    1    2  501    0  0.17868071908E+01  0.94663599765E+00  0.40302532844E+00  0.20618508832E+01  0.00000000000E+00 0. -1.
         -4    1    1    2    0  501 -0.17868071908E+01 -0.94663599765E+00 -0.21844874997E+02  0.21938262540E+02  0.00000000000E+00 0.  1.
<mgrwt>
<rscale>  0 0.20220781E+01</rscale>
<asrwt>0</asrwt>
<pdfrwt beam="1">0</pdfrwt>
<pdfrwt beam="2">0</pdfrwt>
<totfact> 0.43565916E+11</totfact>
</mgrwt>
</event>
<event>
 4    2  0.1993797E+006  0.2855733E+01  0.7546771E-02  0.2569834E+00
         22   -1    0    0    0    0  0.00000000000E+00  0.00000000000E+00  0.14145482858E+01  0.14145482858E+01  0.00000000000E+00 0. -1.
         22   -1    0    0    0    0 -0.00000000000E+00 -0.00000000000E+00 -0.75406693445E+01  0.75406693445E+01  0.00000000000E+00 0.  1.
          4    1    1    2  501    0 -0.24476210871E+01 -0.14711768985E+01 -0.52357261328E+01  0.59638945825E+01  0.00000000000E+00 0.  1.
         -4    1    1    2    0  501  0.24476210871E+01  0.14711768985E+01 -0.89039492581E+00  0.29913230478E+01  0.00000000000E+00 0. -1.
<mgrwt>
<rscale>  0 0.28557329E+01</rscale>
<asrwt>0</asrwt>
<pdfrwt beam="1">0</pdfrwt>
<pdfrwt beam="2">0</pdfrwt>
<totfact> 0.14986068E+12</totfact>
</mgrwt>
</event>
<event>
 4    2  0.1993797E+006  0.4127760E+01  0.7546771E-02  0.2253518E+00
         22   -1    0    0    0    0  0.00000000000E+00  0.00000000000E+00  0.10488847711E+01  0.10488847711E+01  0.00000000000E+00 0.  1.
         22   -1    0    0    0    0 -0.00000000000E+00 -0.00000000000E+00 -0.18770651660E+02  0.18770651660E+02  0.00000000000E+00 0. -1.
          4    1    1    2  501    0  0.29279260417E+01 -0.29095789347E+01 -0.52253295071E+01  0.66590141118E+01  0.00000000000E+00 0. -1.
         -4    1    1    2    0  501 -0.29279260417E+01  0.29095789347E+01 -0.12496437382E+02  0.13160522320E+02  0.00000000000E+00 0.  1.
<mgrwt>
<rscale>  0 0.41277597E+01</rscale>
<asrwt>0</asrwt>
<pdfrwt beam="1">0</pdfrwt>
<pdfrwt beam="2">0</pdfrwt>
<totfact> 0.69421285E+11</totfact>
</mgrwt>
</event>
<event>
 4    2  0.1993797E+006  0.2443327E+01  0.7546771E-02  0.2734055E+00
         22   -1    0    0    0    0  0.00000000000E+00  0.00000000000E+00  0.55227729752E+01  0.55227729752E+01  0.00000000000E+00 0. -1.
         22   -1    0    0    0    0 -0.00000000000E+00 -0.00000000000E+00 -0.31525605752E+01  0.31525605752E+01  0.00000000000E+00 0.  1.
          4    1    1    2  501    0 -0.19818643149E+01 -0.14290069885E+01  0.47013454513E+01  0.52983484397E+01  0.00000000000E+00 0. -1.
         -4    1    1    2    0  501  0.19818643149E+01  0.14290069885E+01 -0.23311330513E+01  0.33769851108E+01  0.00000000000E+00 0.  1.
<mgrwt>
<rscale>  0 0.24433271E+01</rscale>
<asrwt>0</asrwt>
<pdfrwt beam="1">0</pdfrwt>
<pdfrwt beam="2">0</pdfrwt>
<totfact> 0.85833430E+11</totfact>
</mgrwt>
</event>
<event>
 4    2  0.1993797E+006  0.2408189E+01  0.7546771E-02  0.2750445E+00
         22   -1    0    0    0    0  0.00000000000E+00  0.00000000000E+00  0.10505936979E+02  0.10505936979E+02  0.00000000000E+00 0. -1.
         22   -1    0    0    0    0 -0.00000000000E+00 -0.00000000000E+00 -0.61788284676E+00  0.61788284676E+00  0.00000000000E+00 0.  1.
          4    1    1    2  501    0 -0.13238407300E+01  0.20116704123E+01  0.67600748866E+01  0.71762096261E+01  0.00000000000E+00 0. -1.
         -4    1    1    2    0  501  0.13238407300E+01 -0.20116704123E+01  0.31279792454E+01  0.39476101993E+01  0.00000000000E+00 0.  1.
<mgrwt>
<rscale>  0 0.24081886E+01</rscale>
<asrwt>0</asrwt>
<pdfrwt beam="1">0</pdfrwt>
<pdfrwt beam="2">0</pdfrwt>
<totfact> 0.25842999E+12</totfact>
</mgrwt>
</event>
<event>
 4    2  0.1993797E+006  0.2035892E+01  0.7546771E-02  0.2956911E+00
         22   -1    0    0    0    0  0.00000000000E+00  0.00000000000E+00  0.37857305549E+00  0.37857305549E+00  0.00000000000E+00 0. -1.
         22   -1    0    0    0    0 -0.00000000000E+00 -0.00000000000E+00 -0.12310468510E+02  0.12310468510E+02  0.00000000000E+00 0.  1.
          4    1    1    2  501    0 -0.14077626213E+01 -0.14707344619E+01 -0.38557424727E+01  0.43602299792E+01  0.00000000000E+00 0. -1.
         -4    1    1    2    0  501  0.14077626213E+01  0.14707344619E+01 -0.80761529816E+01  0.83288115862E+01  0.00000000000E+00 0.  1.
<mgrwt>
<rscale>  0 0.20358918E+01</rscale>
<asrwt>0</asrwt>
<pdfrwt beam="1">0</pdfrwt>
<pdfrwt beam="2">0</pdfrwt>
<totfact> 0.37041600E+12</totfact>
</mgrwt>
</event>
<event>
 4    2  0.1993797E+006  0.2225526E+01  0.7546771E-02  0.2843483E+00
         22   -1    0    0    0    0  0.00000000000E+00  0.00000000000E+00  0.16287506832E+02  0.16287506832E+02  0.00000000000E+00 0. -1.
         22   -1    0    0    0    0 -0.00000000000E+00 -0.00000000000E+00 -0.13423399343E+01  0.13423399343E+01  0.00000000000E+00 0.  1.
          4    1    1    2  501    0 -0.31527263993E-01  0.22253028857E+01  0.15224997717E+02  0.15386797015E+02  0.00000000000E+00 0. -1.
         -4    1    1    2    0  501  0.31527263993E-01 -0.22253028857E+01 -0.27983081879E+00  0.22430497517E+01  0.00000000000E+00 0.  1.
<mgrwt>
<rscale>  0 0.22255262E+01</rscale>
<asrwt>0</asrwt>
<pdfrwt beam="1">0</pdfrwt>
<pdfrwt beam="2">0</pdfrwt>
<totfact> 0.62387272E+11</totfact>
</mgrwt>
</event>
<event>
 4    2  0.1993797E+006  0.2224412E+01  0.7546771E-02  0.2844094E+00
         22   -1    0    0    0    0  0.00000000000E+00  0.00000000000E+00  0.10959797112E+01  0.10959797112E+01  0.00000000000E+00 0.  1.
         22   -1    0    0    0    0 -0.00000000000E+00 -0.00000000000E+00 -0.45988614535E+01  0.45988614535E+01  0.00000000000E+00 0. -1.
          4    1    1    2  501    0  0.93150638489E-01 -0.22224611381E+01 -0.13662248199E+01  0.26104752078E+01  0.00000000000E+00 0. -1.
         -4    1    1    2    0  501 -0.93150638489E-01  0.22224611381E+01 -0.21366569223E+01  0.30843659568E+01  0.00000000000E+00 0.  1.
<mgrwt>
<rscale>  0 0.22244124E+01</rscale>
<asrwt>0</asrwt>
<pdfrwt beam="1">0</pdfrwt>
<pdfrwt beam="2">0</pdfrwt>
<totfact> 0.36161908E+12</totfact>
</mgrwt>
</event>
<event>
 4    2  0.1993797E+006  0.3694340E+01  0.7546771E-02  0.2339829E+00
         22   -1    0    0    0    0  0.00000000000E+00  0.00000000000E+00  0.40017784197E+01  0.40017784197E+01  0.00000000000E+00 0.  1.
         22   -1    0    0    0    0 -0.00000000000E+00 -0.00000000000E+00 -0.42390494359E+01  0.42390494359E+01  0.00000000000E+00 0. -1.
          4    1    1    2  501    0  0.19817945043E+01  0.31177936832E+01  0.17029957679E+01  0.40679652768E+01  0.00000000000E+00 0.  1.
         -4    1    1    2    0  501 -0.19817945043E+01 -0.31177936832E+01 -0.19402667841E+01  0.41728625788E+01  0.00000000000E+00 0. -1.
<mgrwt>
<rscale>  0 0.36943398E+01</rscale>
<asrwt>0</asrwt>
<pdfrwt beam="1">0</pdfrwt>
<pdfrwt beam="2">0</pdfrwt>
<totfact> 0.88726277E+11</totfact>
</mgrwt>
</event>
<event>
 4    2  0.1993797E+006  0.2434653E+01  0.7546771E-02  0.2738060E+00
         22   -1    0    0    0    0  0.00000000000E+00  0.00000000000E+00  0.10676287716E+01  0.10676287716E+01  0.00000000000E+00 0.  1.
         22   -1    0    0    0    0 -0.00000000000E+00 -0.00000000000E+00 -0.21088239038E+02  0.21088239038E+02  0.00000000000E+00 0. -1.
          4    1    1    2  501    0  0.16148695494E+01  0.18220132807E+01 -0.50183254139E+00  0.24858342576E+01  0.00000000000E+00 0.  1.
         -4    1    1    2    0  501 -0.16148695494E+01 -0.18220132807E+01 -0.19518777725E+02  0.19670033552E+02  0.00000000000E+00 0. -1.
<mgrwt>
<rscale>  0 0.24346532E+01</rscale>
<asrwt>0</asrwt>
<pdfrwt beam="1">0</pdfrwt>
<pdfrwt beam="2">0</pdfrwt>
<totfact> 0.58836809E+11</totfact>
</mgrwt>
</event>
<event>
 4    2  0.1993797E+006  0.2692170E+01  0.7546771E-02  0.2629428E+00
         22   -1    0    0    0    0  0.00000000000E+00  0.00000000000E+00  0.39499213331E+02  0.39499213331E+02  0.00000000000E+00 0.  1.
         22   -1    0    0    0    0 -0.00000000000E+00 -0.00000000000E+00 -0.10866308933E+01  0.10866308933E+01  0.00000000000E+00 0. -1.
          4    1    1    2  501    0  0.14979367105E+01  0.22369545803E+01  0.37706681691E+02  0.37802666895E+02  0.00000000000E+00 0.  1.
         -4    1    1    2    0  501 -0.14979367105E+01 -0.22369545803E+01  0.70590074632E+00  0.27831773294E+01  0.00000000000E+00 0. -1.
<mgrwt>
<rscale>  0 0.26921702E+01</rscale>
<asrwt>0</asrwt>
<pdfrwt beam="1">0</pdfrwt>
<pdfrwt beam="2">0</pdfrwt>
<totfact> 0.25951733E+11</totfact>
</mgrwt>
</event>
<event>
 4    2  0.1993797E+006  0.2535101E+01  0.7546771E-02  0.2693255E+00
         22   -1    0    0    0    0  0.00000000000E+00  0.00000000000E+00  0.94197469780E+00  0.94197469780E+00  0.00000000000E+00 0.  1.
         22   -1    0    0    0    0 -0.00000000000E+00 -0.00000000000E+00 -0.28935572618E+02  0.28935572618E+02  0.00000000000E+00 0. -1.
          4    1    1    2  501    0 -0.13307780909E+01  0.21577222120E+01 -0.93742754423E+00  0.27028699325E+01  0.00000000000E+00 0.  1.
         -4    1    1    2    0  501  0.13307780909E+01 -0.21577222120E+01 -0.27056170376E+02  0.27174677383E+02  0.00000000000E+00 0. -1.
<mgrwt>
<rscale>  0 0.25351007E+01</rscale>
<asrwt>0</asrwt>
<pdfrwt beam="1">0</pdfrwt>
<pdfrwt beam="2">0</pdfrwt>
<totfact> 0.45556303E+11</totfact>
</mgrwt>
</event>
<event>
 4    2  0.1993797E+006  0.2315408E+01  0.7546771E-02  0.2795964E+00
         22   -1    0    0    0    0  0.00000000000E+00  0.00000000000E+00  0.46460544150E+00  0.46460544150E+00  0.00000000000E+00 0.  1.
         22   -1    0    0    0    0 -0.00000000000E+00 -0.00000000000E+00 -0.11591716358E+02  0.11591716358E+02  0.00000000000E+00 0. -1.
          4    1    1    2  501    0 -0.13239365237E+01 -0.18995537087E+01 -0.51572830499E+01  0.56532009223E+01  0.00000000000E+00 0. -1.
         -4    1    1    2    0  501  0.13239365237E+01  0.18995537087E+01 -0.59698278661E+01  0.64031208767E+01  0.00000000000E+00 0.  1.
<mgrwt>
<rscale>  0 0.23154076E+01</rscale>
<asrwt>0</asrwt>
<pdfrwt beam="1">0</pdfrwt>
<pdfrwt beam="2">0</pdfrwt>
<totfact> 0.31651639E+12</totfact>
</mgrwt>
</event>
<event>
 4    2  0.1993797E+006  0.2676096E+01  0.7546771E-02  0.2635642E+00
         22   -1    0    0    0    0  0.00000000000E+00  0.00000000000E+00  0.20024066900E+00  0.20024066900E+00  0.00000000000E+00 0.  1.
         22   -1    0    0    0    0 -0.00000000000E+00 -0.00000000000E+00 -0.50870285154E+02  0.50870285154E+02  0.00000000000E+00 0. -1.
          4    1    1    2  501    0  0.22465380283E-01 -0.26760021823E+01 -0.11420093757E+02  0.11729451555E+02  0.00000000000E+00 0.  1.
         -4    1    1    2    0  501 -0.22465380283E-01  0.26760021823E+01 -0.39249950728E+02  0.39341074268E+02  0.00000000000E+00 0. -1.
<mgrwt>
<rscale>  0 0.26760965E+01</rscale>
<asrwt>0</asrwt>
<pdfrwt beam="1">0</pdfrwt>
<pdfrwt beam="2">0</pdfrwt>
<totfact> 0.12571682E+12</totfact>
</mgrwt>
</event>
<event>
 4    2  0.1993797E+006  0.2649320E+01  0.7546771E-02  0.2646149E+00
         22   -1    0    0    0    0  0.00000000000E+00  0.00000000000E+00  0.30812858417E+02  0.30812858417E+02  0.00000000000E+00 0.  1.
         22   -1    0    0    0    0 -0.00000000000E+00 -0.00000000000E+00 -0.22983582536E+00  0.22983582536E+00  0.00000000000E+00 0. -1.
          4    1    1    2  501    0 -0.13939588728E+01 -0.22529475751E+01  0.16755510329E+02  0.16963667660E+02  0.00000000000E+00 0. -1.
         -4    1    1    2    0  501  0.13939588728E+01  0.22529475751E+01  0.13827512263E+02  0.14079026582E+02  0.00000000000E+00 0.  1.
<mgrwt>
<rscale>  0 0.26493196E+01</rscale>
<asrwt>0</asrwt>
<pdfrwt beam="1">0</pdfrwt>
<pdfrwt beam="2">0</pdfrwt>
<totfact> 0.20656308E+12</totfact>
</mgrwt>
</event>
<event>
 4    2  0.1993797E+006  0.2019342E+01  0.7546771E-02  0.2967790E+00
         22   -1    0    0    0    0  0.00000000000E+00  0.00000000000E+00  0.77514608905E+01  0.77514608905E+01  0.00000000000E+00 0. -1.
         22   -1    0    0    0    0 -0.00000000000E+00 -0.00000000000E+00 -0.52612695345E+00  0.52612695345E+00  0.00000000000E+00 0.  1.
          4    1    1    2  501    0  0.13133716435E+01  0.15338834664E+01  0.36589019051E+01  0.41791514346E+01  0.00000000000E+00 0. -1.
         -4    1    1    2    0  501 -0.13133716435E+01 -0.15338834664E+01  0.35664320320E+01  0.40984364093E+01  0.00000000000E+00 0.  1.
<mgrwt>
<rscale>  0 0.20193424E+01</rscale>
<asrwt>0</asrwt>
<pdfrwt beam="1">0</pdfrwt>
<pdfrwt beam="2">0</pdfrwt>
<totfact> 0.44732416E+12</totfact>
</mgrwt>
</event>
<event>
 4    2  0.1993797E+006  0.2583990E+01  0.7546771E-02  0.2672621E+00
         22   -1    0    0    0    0  0.00000000000E+00  0.00000000000E+00  0.58806713470E+02  0.58806713470E+02  0.00000000000E+00 0. -1.
         22   -1    0    0    0    0 -0.00000000000E+00 -0.00000000000E+00 -0.14053117731E+00  0.14053117731E+00  0.00000000000E+00 0.  1.
          4    1    1    2  501    0  0.21406661153E+01  0.14472571805E+01  0.42249616549E+02  0.42328561319E+02  0.00000000000E+00 0. -1.
         -4    1    1    2    0  501 -0.21406661153E+01 -0.14472571805E+01  0.16416565744E+02  0.16618683329E+02  0.00000000000E+00 0.  1.
<mgrwt>
<rscale>  0 0.25839901E+01</rscale>
<asrwt>0</asrwt>
<pdfrwt beam="1">0</pdfrwt>
<pdfrwt beam="2">0</pdfrwt>
<totfact> 0.15380056E+12</totfact>
</mgrwt>
</event>
<event>
 4    2  0.1993797E+006  0.3585471E+01  0.7546771E-02  0.2364307E+00
         22   -1    0    0    0    0  0.00000000000E+00  0.00000000000E+00  0.52961934036E+01  0.52961934036E+01  0.00000000000E+00 0. -1.
         22   -1    0    0    0    0 -0.00000000000E+00 -0.00000000000E+00 -0.24810953016E+01  0.24810953016E+01  0.00000000000E+00 0.  1.
          4    1    1    2  501    0 -0.13876110369E+01  0.33060761735E+01  0.83510714507E+00  0.36814410220E+01  0.00000000000E+00 0. -1.
         -4    1    1    2    0  501  0.13876110369E+01 -0.33060761735E+01  0.19799909570E+01  0.40958476832E+01  0.00000000000E+00 0.  1.
<mgrwt>
<rscale>  0 0.35854712E+01</rscale>
<asrwt>0</asrwt>
<pdfrwt beam="1">0</pdfrwt>
<pdfrwt beam="2">0</pdfrwt>
<totfact> 0.11928181E+12</totfact>
</mgrwt>
</event>
<event>
 4    2  0.1993797E+006  0.2554783E+01  0.7546771E-02  0.2684860E+00
         22   -1    0    0    0    0  0.00000000000E+00  0.00000000000E+00  0.44789246928E+01  0.44789246928E+01  0.00000000000E+00 0.  1.
         22   -1    0    0    0    0 -0.00000000000E+00 -0.00000000000E+00 -0.34644917378E+01  0.34644917378E+01  0.00000000000E+00 0. -1.
          4    1    1    2  501    0 -0.24291048708E+01 -0.79143265972E+00  0.35303500369E+01  0.43577847023E+01  0.00000000000E+00 0.  1.
         -4    1    1    2    0  501  0.24291048708E+01  0.79143265972E+00 -0.25159170819E+01  0.35856317283E+01  0.00000000000E+00 0. -1.
<mgrwt>
<rscale>  0 0.25547830E+01</rscale>
<asrwt>0</asrwt>
<pdfrwt beam="1">0</pdfrwt>
<pdfrwt beam="2">0</pdfrwt>
<totfact> 0.98489210E+11</totfact>
</mgrwt>
</event>
<event>
 4    2  0.1993797E+006  0.3765899E+01  0.7546771E-02  0.2324409E+00
         22   -1    0    0    0    0  0.00000000000E+00  0.00000000000E+00  0.12519179784E+02  0.12519179784E+02  0.00000000000E+00 0.  1.
         22   -1    0    0    0    0 -0.00000000000E+00 -0.00000000000E+00 -0.16032594146E+01  0.16032594146E+01  0.00000000000E+00 0. -1.
          4    1    1    2  501    0  0.30605827038E+01 -0.21942716559E+01  0.92829389587E+01  0.10017731794E+02  0.00000000000E+00 0. -1.
         -4    1    1    2    0  501 -0.30605827038E+01  0.21942716559E+01  0.16329814104E+01  0.41047074042E+01  0.00000000000E+00 0.  1.
<mgrwt>
<rscale>  0 0.37658989E+01</rscale>
<asrwt>0</asrwt>
<pdfrwt beam="1">0</pdfrwt>
<pdfrwt beam="2">0</pdfrwt>
<totfact> 0.70266439E+11</totfact>
</mgrwt>
</event>
<event>
 4    2  0.1993797E+006  0.6566552E+01  0.7546771E-02  0.1972318E+00
         22   -1    0    0    0    0  0.00000000000E+00  0.00000000000E+00  0.27680340619E+02  0.27680340619E+02  0.00000000000E+00 0. -1.
         22   -1    0    0    0    0 -0.00000000000E+00 -0.00000000000E+00 -0.18199662887E+01  0.18199662887E+01  0.00000000000E+00 0.  1.
          4    1    1    2  501    0  0.24617942005E+01  0.60876251405E+01  0.18528767927E+02  0.19657946267E+02  0.00000000000E+00 0. -1.
         -4    1    1    2    0  501 -0.24617942005E+01 -0.60876251405E+01  0.73316064041E+01  0.98423606417E+01  0.00000000000E+00 0.  1.
<mgrwt>
<rscale>  0 0.65665524E+01</rscale>
<asrwt>0</asrwt>
<pdfrwt beam="1">0</pdfrwt>
<pdfrwt beam="2">0</pdfrwt>
<totfact> 0.22633376E+11</totfact>
</mgrwt>
</event>
<event>
 4    2  0.1993797E+006  0.3768224E+01  0.7546771E-02  0.2323916E+00
         22   -1    0    0    0    0  0.00000000000E+00  0.00000000000E+00  0.49819666082E+02  0.49819666082E+02  0.00000000000E+00 0.  1.
         22   -1    0    0    0    0 -0.00000000000E+00 -0.00000000000E+00 -0.18085696727E+01  0.18085696727E+01  0.00000000000E+00 0. -1.
          4    1    1    2  501    0  0.19635768892E+01  0.32161898669E+01  0.47698448825E+02  0.47847063983E+02  0.00000000000E+00 0.  1.
         -4    1    1    2    0  501 -0.19635768892E+01 -0.32161898669E+01  0.31264758461E+00  0.37811717723E+01  0.00000000000E+00 0. -1.
<mgrwt>
<rscale>  0 0.37682239E+01</rscale>
<asrwt>0</asrwt>
<pdfrwt beam="1">0</pdfrwt>
<pdfrwt beam="2">0</pdfrwt>
<totfact> 0.10668821E+11</totfact>
</mgrwt>
</event>
<event>
 4    2  0.1993797E+006  0.2402879E+01  0.7546771E-02  0.2752960E+00
         22   -1    0    0    0    0  0.00000000000E+00  0.00000000000E+00  0.88102923435E+01  0.88102923435E+01  0.00000000000E+00 0. -1.
         22   -1    0    0    0    0 -0.00000000000E+00 -0.00000000000E+00 -0.92064867193E+00  0.92064867193E+00  0.00000000000E+00 0.  1.
          4    1    1    2  501    0  0.10436066226E+01  0.21644199563E+01  0.65566529849E+01  0.69830886358E+01  0.00000000000E+00 0. -1.
         -4    1    1    2    0  501 -0.10436066226E+01 -0.21644199563E+01  0.13329906867E+01  0.27478523797E+01  0.00000000000E+00 0.  1.
<mgrwt>
<rscale>  0 0.24028792E+01</rscale>
<asrwt>0</asrwt>
<pdfrwt beam="1">0</pdfrwt>
<pdfrwt beam="2">0</pdfrwt>
<totfact> 0.20321139E+12</totfact>
</mgrwt>
</event>
<event>
 4    2  0.1993797E+006  0.2735964E+01  0.7546771E-02  0.2612835E+00
         22   -1    0    0    0    0  0.00000000000E+00  0.00000000000E+00  0.48443325647E+02  0.48443325647E+02  0.00000000000E+00 0.  1.
         22   -1    0    0    0    0 -0.00000000000E+00 -0.00000000000E+00 -0.24747378088E+00  0.24747378088E+00  0.00000000000E+00 0. -1.
          4    1    1    2  501    0 -0.17828824532E+01  0.20752907916E+01  0.39018445964E+02  0.39114250947E+02  0.00000000000E+00 0.  1.
         -4    1    1    2    0  501  0.17828824532E+01 -0.20752907916E+01  0.91774059026E+01  0.95765484812E+01  0.00000000000E+00 0. -1.
<mgrwt>
<rscale>  0 0.27359645E+01</rscale>
<asrwt>0</asrwt>
<pdfrwt beam="1">0</pdfrwt>
<pdfrwt beam="2">0</pdfrwt>
<totfact> 0.10583799E+12</totfact>
</mgrwt>
</event>
<event>
 4    2  0.1993797E+006  0.3452591E+01  0.7546771E-02  0.2395991E+00
         22   -1    0    0    0    0  0.00000000000E+00  0.00000000000E+00  0.48003594202E+00  0.48003594202E+00  0.00000000000E+00 0. -1.
         22   -1    0    0    0    0 -0.00000000000E+00 -0.00000000000E+00 -0.30999501784E+02  0.30999501784E+02  0.00000000000E+00 0.  1.
          4    1    1    2  501    0  0.67414818487E+00 -0.33861346781E+01 -0.82392659026E+01  0.89334140420E+01  0.00000000000E+00 0. -1.
         -4    1    1    2    0  501 -0.67414818487E+00  0.33861346781E+01 -0.22280199939E+02  0.22546123684E+02  0.00000000000E+00 0.  1.
<mgrwt>
<rscale>  0 0.34525909E+01</rscale>
<asrwt>0</asrwt>
<pdfrwt beam="1">0</pdfrwt>
<pdfrwt beam="2">0</pdfrwt>
<totfact> 0.89653432E+11</totfact>
</mgrwt>
</event>
<event>
 4    2  0.1993797E+006  0.3409728E+01  0.7546771E-02  0.2406669E+00
         22   -1    0    0    0    0  0.00000000000E+00  0.00000000000E+00  0.18269099918E+01  0.18269099918E+01  0.00000000000E+00 0.  1.
         22   -1    0    0    0    0 -0.00000000000E+00 -0.00000000000E+00 -0.71491237574E+01  0.71491237574E+01  0.00000000000E+00 0. -1.
          4    1    1    2  501    0 -0.32374918748E+01  0.10699959238E+01 -0.11737028185E+01  0.36060814221E+01  0.00000000000E+00 0.  1.
         -4    1    1    2    0  501  0.32374918748E+01 -0.10699959238E+01 -0.41485109472E+01  0.53699523271E+01  0.00000000000E+00 0. -1.
<mgrwt>
<rscale>  0 0.34097280E+01</rscale>
<asrwt>0</asrwt>
<pdfrwt beam="1">0</pdfrwt>
<pdfrwt beam="2">0</pdfrwt>
<totfact> 0.11896548E+12</totfact>
</mgrwt>
</event>
<event>
 4    2  0.1993797E+006  0.2283362E+01  0.7546771E-02  0.2812498E+00
         22   -1    0    0    0    0  0.00000000000E+00  0.00000000000E+00  0.89413190183E+00  0.89413190183E+00  0.00000000000E+00 0.  1.
         22   -1    0    0    0    0 -0.00000000000E+00 -0.00000000000E+00 -0.26243088728E+02  0.26243088728E+02  0.00000000000E+00 0. -1.
          4    1    1    2  501    0  0.99939003696E+00 -0.20530371027E+01 -0.70787436878E+00  0.23905706250E+01  0.00000000000E+00 0.  1.
         -4    1    1    2    0  501 -0.99939003696E+00  0.20530371027E+01 -0.24641082457E+02  0.24746650004E+02  0.00000000000E+00 0. -1.
<mgrwt>
<rscale>  0 0.22833619E+01</rscale>
<asrwt>0</asrwt>
<pdfrwt beam="1">0</pdfrwt>
<pdfrwt beam="2">0</pdfrwt>
<totfact> 0.54719214E+11</totfact>
</mgrwt>
</event>
<event>
 4    2  0.1993797E+006  0.3143068E+01  0.7546771E-02  0.2478815E+00
         22   -1    0    0    0    0  0.00000000000E+00  0.00000000000E+00  0.47773285285E+01  0.47773285285E+01  0.00000000000E+00 0. -1.
         22   -1    0    0    0    0 -0.00000000000E+00 -0.00000000000E+00 -0.23639438639E+01  0.23639438639E+01  0.00000000000E+00 0.  1.
          4    1    1    2  501    0  0.17404578830E+00  0.31382457887E+01 -0.56965465243E-01  0.31435845194E+01  0.00000000000E+00 0. -1.
         -4    1    1    2    0  501 -0.17404578830E+00 -0.31382457887E+01  0.24703501298E+01  0.39976878731E+01  0.00000000000E+00 0.  1.
<mgrwt>
<rscale>  0 0.31430683E+01</rscale>
<asrwt>0</asrwt>
<pdfrwt beam="1">0</pdfrwt>
<pdfrwt beam="2">0</pdfrwt>
<totfact> 0.14256616E+12</totfact>
</mgrwt>
</event>
<event>
 4    2  0.1993797E+006  0.2411760E+01  0.7546771E-02  0.2748758E+00
         22   -1    0    0    0    0  0.00000000000E+00  0.00000000000E+00  0.10283413088E+02  0.10283413088E+02  0.00000000000E+00 0.  1.
         22   -1    0    0    0    0 -0.00000000000E+00 -0.00000000000E+00 -0.63520300994E+00  0.63520300994E+00  0.00000000000E+00 0. -1.
          4    1    1    2  501    0  0.22827909408E+01 -0.77810702630E+00  0.66308979437E+01  0.70558764561E+01  0.00000000000E+00 0.  1.
         -4    1    1    2    0  501 -0.22827909408E+01  0.77810702630E+00  0.30173121340E+01  0.38627396415E+01  0.00000000000E+00 0. -1.
<mgrwt>
<rscale>  0 0.24117597E+01</rscale>
<asrwt>0</asrwt>
<pdfrwt beam="1">0</pdfrwt>
<pdfrwt beam="2">0</pdfrwt>
<totfact> 0.25704716E+12</totfact>
</mgrwt>
</event>
<event>
 4    2  0.1993797E+006  0.2007265E+01  0.7546771E-02  0.2975841E+00
         22   -1    0    0    0    0  0.00000000000E+00  0.00000000000E+00  0.93558988901E+01  0.93558988901E+01  0.00000000000E+00 0.  1.
         22   -1    0    0    0    0 -0.00000000000E+00 -0.00000000000E+00 -0.56609059289E+00  0.56609059289E+00  0.00000000000E+00 0. -1.
          4    1    1    2  501    0  0.14113615521E+01 -0.14272948608E+01  0.68215210374E+01  0.71107145431E+01  0.00000000000E+00 0. -1.
         -4    1    1    2    0  501 -0.14113615521E+01  0.14272948608E+01  0.19682872598E+01  0.28112749399E+01  0.00000000000E+00 0.  1.
<mgrwt>
<rscale>  0 0.20072648E+01</rscale>
<asrwt>0</asrwt>
<pdfrwt beam="1">0</pdfrwt>
<pdfrwt beam="2">0</pdfrwt>
<totfact> 0.32831996E+12</totfact>
</mgrwt>
</event>
<event>
 4    2  0.1993797E+006  0.2548592E+01  0.7546771E-02  0.2687488E+00
         22   -1    0    0    0    0  0.00000000000E+00  0.00000000000E+00  0.38102352484E+01  0.38102352484E+01  0.00000000000E+00 0. -1.
         22   -1    0    0    0    0 -0.00000000000E+00 -0.00000000000E+00 -0.22459423445E+01  0.22459423445E+01  0.00000000000E+00 0.  1.
          4    1    1    2  501    0  0.65806955227E+00  0.24621666050E+01  0.22686431032E+01  0.34120465202E+01  0.00000000000E+00 0. -1.
         -4    1    1    2    0  501 -0.65806955227E+00 -0.24621666050E+01 -0.70435019930E+00  0.26441310727E+01  0.00000000000E+00 0.  1.
<mgrwt>
<rscale>  0 0.25485918E+01</rscale>
<asrwt>0</asrwt>
<pdfrwt beam="1">0</pdfrwt>
<pdfrwt beam="2">0</pdfrwt>
<totfact> 0.19752670E+12</totfact>
</mgrwt>
</event>
<event>
 4    2  0.1993797E+006  0.4044084E+01  0.7546771E-02  0.2268946E+00
         22   -1    0    0    0    0  0.00000000000E+00  0.00000000000E+00  0.21734891522E+01  0.21734891522E+01  0.00000000000E+00 0.  1.
         22   -1    0    0    0    0 -0.00000000000E+00 -0.00000000000E+00 -0.76117016702E+01  0.76117016702E+01  0.00000000000E+00 0. -1.
          4    1    1    2  501    0 -0.14634741618E+01 -0.37699941520E+01 -0.32425127824E+01  0.51834835460E+01  0.00000000000E+00 0.  1.
         -4    1    1    2    0  501  0.14634741618E+01  0.37699941520E+01 -0.21956997357E+01  0.46017072764E+01  0.00000000000E+00 0. -1.
<mgrwt>
<rscale>  0 0.40440836E+01</rscale>
<asrwt>0</asrwt>
<pdfrwt beam="1">0</pdfrwt>
<pdfrwt beam="2">0</pdfrwt>
<totfact> 0.90257727E+11</totfact>
</mgrwt>
</event>
<event>
 4    2  0.1993797E+006  0.2263047E+01  0.7546771E-02  0.2823209E+00
         22   -1    0    0    0    0  0.00000000000E+00  0.00000000000E+00  0.49020133162E+02  0.49020133162E+02  0.00000000000E+00 0. -1.
         22   -1    0    0    0    0 -0.00000000000E+00 -0.00000000000E+00 -0.10779828146E+00  0.10779828146E+00  0.00000000000E+00 0.  1.
          4    1    1    2  501    0  0.20480084187E+01 -0.96283115061E+00  0.28769082783E+02  0.28857953955E+02  0.00000000000E+00 0. -1.
         -4    1    1    2    0  501 -0.20480084187E+01  0.96283115061E+00  0.20143252098E+02  0.20269977489E+02  0.00000000000E+00 0.  1.
<mgrwt>
<rscale>  0 0.22630471E+01</rscale>
<asrwt>0</asrwt>
<pdfrwt beam="1">0</pdfrwt>
<pdfrwt beam="2">0</pdfrwt>
<totfact> 0.26275612E+12</totfact>
</mgrwt>
</event>
<event>
 4    2  0.1993797E+006  0.2846122E+01  0.7546771E-02  0.2573163E+00
         22   -1    0    0    0    0  0.00000000000E+00  0.00000000000E+00  0.74101292051E+00  0.74101292051E+00  0.00000000000E+00 0.  1.
         22   -1    0    0    0    0 -0.00000000000E+00 -0.00000000000E+00 -0.18373881614E+02  0.18373881614E+02  0.00000000000E+00 0. -1.
          4    1    1    2  501    0  0.17937152969E+01 -0.22097504971E+01 -0.27337360501E+01  0.39463558656E+01  0.00000000000E+00 0.  1.
         -4    1    1    2    0  501 -0.17937152969E+01  0.22097504971E+01 -0.14899132643E+02  0.15168538669E+02  0.00000000000E+00 0. -1.
<mgrwt>
<rscale>  0 0.28461222E+01</rscale>
<asrwt>0</asrwt>
<pdfrwt beam="1">0</pdfrwt>
<pdfrwt beam="2">0</pdfrwt>
<totfact> 0.10591743E+12</totfact>
</mgrwt>
</event>
<event>
 4    2  0.1993797E+006  0.2046683E+01  0.7546771E-02  0.2949910E+00
         22   -1    0    0    0    0  0.00000000000E+00  0.00000000000E+00  0.33522728682E+02  0.33522728682E+02  0.00000000000E+00 0.  1.
         22   -1    0    0    0    0 -0.00000000000E+00 -0.00000000000E+00 -0.11203215167E+01  0.11203215167E+01  0.00000000000E+00 0. -1.
          4    1    1    2  501    0  0.18214679520E+01 -0.93336360462E+00  0.32528180486E+02  0.32592505870E+02  0.00000000000E+00 0.  1.
         -4    1    1    2    0  501 -0.18214679520E+01  0.93336360462E+00 -0.12577332061E+00  0.20505443294E+01  0.00000000000E+00 0. -1.
<mgrwt>
<rscale>  0 0.20466834E+01</rscale>
<asrwt>0</asrwt>
<pdfrwt beam="1">0</pdfrwt>
<pdfrwt beam="2">0</pdfrwt>
<totfact> 0.30962776E+11</totfact>
</mgrwt>
</event>
<event>
 4    2  0.1993797E+006  0.2051007E+01  0.7546771E-02  0.2947125E+00
         22   -1    0    0    0    0  0.00000000000E+00  0.00000000000E+00  0.11815907575E+02  0.11815907575E+02  0.00000000000E+00 0. -1.
         22   -1    0    0    0    0 -0.00000000000E+00 -0.00000000000E+00 -0.58711167879E+01  0.58711167879E+01  0.00000000000E+00 0.  1.
          4    1    1    2  501    0  0.97378335922E-01 -0.20486939311E+01  0.11543587348E+02  0.11724377946E+02  0.00000000000E+00 0. -1.
         -4    1    1    2    0  501 -0.97378335922E-01  0.20486939311E+01 -0.55987965607E+01  0.59626464168E+01  0.00000000000E+00 0.  1.
<mgrwt>
<rscale>  0 0.20510069E+01</rscale>
<asrwt>0</asrwt>
<pdfrwt beam="1">0</pdfrwt>
<pdfrwt beam="2">0</pdfrwt>
<totfact> 0.16521656E+11</totfact>
</mgrwt>
</event>
<event>
 4    2  0.1993797E+006  0.4039441E+01  0.7546771E-02  0.2269818E+00
         22   -1    0    0    0    0  0.00000000000E+00  0.00000000000E+00  0.11312488267E+02  0.11312488267E+02  0.00000000000E+00 0.  1.
         22   -1    0    0    0    0 -0.00000000000E+00 -0.00000000000E+00 -0.14983548175E+01  0.14983548175E+01  0.00000000000E+00 0. -1.
          4    1    1    2  501    0 -0.36330589857E+01 -0.17657758336E+01  0.61449414136E+01  0.73537328524E+01  0.00000000000E+00 0.  1.
         -4    1    1    2    0  501  0.36330589857E+01  0.17657758336E+01  0.36691920357E+01  0.54571102319E+01  0.00000000000E+00 0. -1.
<mgrwt>
<rscale>  0 0.40394408E+01</rscale>
<asrwt>0</asrwt>
<pdfrwt beam="1">0</pdfrwt>
<pdfrwt beam="2">0</pdfrwt>
<totfact> 0.85949019E+11</totfact>
</mgrwt>
</event>
<event>
 4    2  0.1993797E+006  0.2243339E+01  0.7546771E-02  0.2833778E+00
         22   -1    0    0    0    0  0.00000000000E+00  0.00000000000E+00  0.74906301901E+00  0.74906301901E+00  0.00000000000E+00 0. -1.
         22   -1    0    0    0    0 -0.00000000000E+00 -0.00000000000E+00 -0.78849115381E+01  0.78849115381E+01  0.00000000000E+00 0.  1.
          4    1    1    2  501    0 -0.21111323900E+01  0.75874102554E+00 -0.19075299455E+01  0.29446966575E+01  0.00000000000E+00 0. -1.
         -4    1    1    2    0  501  0.21111323900E+01 -0.75874102554E+00 -0.52283185736E+01  0.56892778996E+01  0.00000000000E+00 0.  1.
<mgrwt>
<rscale>  0 0.22433386E+01</rscale>
<asrwt>0</asrwt>
<pdfrwt beam="1">0</pdfrwt>
<pdfrwt beam="2">0</pdfrwt>
<totfact> 0.29368791E+12</totfact>
</mgrwt>
</event>
<event>
 4    2  0.1993797E+006  0.2099551E+01  0.7546771E-02  0.2916624E+00
         22   -1    0    0    0    0  0.00000000000E+00  0.00000000000E+00  0.24213323405E+01  0.24213323405E+01  0.00000000000E+00 0. -1.
         22   -1    0    0    0    0 -0.00000000000E+00 -0.00000000000E+00 -0.75430758958E+01  0.75430758958E+01  0.00000000000E+00 0.  1.
          4    1    1    2  501    0 -0.20955356024E+01 -0.12978152782E+00  0.17786497655E+01  0.27516736170E+01  0.00000000000E+00 0. -1.
         -4    1    1    2    0  501  0.20955356024E+01  0.12978152782E+00 -0.69003933208E+01  0.72127346192E+01  0.00000000000E+00 0.  1.
<mgrwt>
<rscale>  0 0.20995506E+01</rscale>
<asrwt>0</asrwt>
<pdfrwt beam="1">0</pdfrwt>
<pdfrwt beam="2">0</pdfrwt>
<totfact> 0.80484932E+11</totfact>
</mgrwt>
</event>
<event>
 4    2  0.1993797E+006  0.2079834E+01  0.7546771E-02  0.2928845E+00
         22   -1    0    0    0    0  0.00000000000E+00  0.00000000000E+00  0.18823960094E+02  0.18823960094E+02  0.00000000000E+00 0. -1.
         22   -1    0    0    0    0 -0.00000000000E+00 -0.00000000000E+00 -0.26212715493E+00  0.26212715493E+00  0.00000000000E+00 0.  1.
          4    1    1    2  501    0 -0.10485616869E+01  0.17961705262E+01  0.12632325536E+02  0.12802396596E+02  0.00000000000E+00 0. -1.
         -4    1    1    2    0  501  0.10485616869E+01 -0.17961705262E+01  0.59295074031E+01  0.62836906523E+01  0.00000000000E+00 0.  1.
<mgrwt>
<rscale>  0 0.20798342E+01</rscale>
<asrwt>0</asrwt>
<pdfrwt beam="1">0</pdfrwt>
<pdfrwt beam="2">0</pdfrwt>
<totfact> 0.33163191E+12</totfact>
</mgrwt>
</event>
<event>
 4    2  0.1993797E+006  0.3529444E+01  0.7546771E-02  0.2377412E+00
         22   -1    0    0    0    0  0.00000000000E+00  0.00000000000E+00  0.74818052320E+00  0.74818052320E+00  0.00000000000E+00 0. -1.
         22   -1    0    0    0    0 -0.00000000000E+00 -0.00000000000E+00 -0.16807849740E+02  0.16807849740E+02  0.00000000000E+00 0.  1.
          4    1    1    2  501    0  0.25817828472E+01 -0.24065269442E+01 -0.88813386188E+01  0.95569425166E+01  0.00000000000E+00 0.  1.
         -4    1    1    2    0  501 -0.25817828472E+01  0.24065269442E+01 -0.71783305977E+01  0.79990877463E+01  0.00000000000E+00 0. -1.
<mgrwt>
<rscale>  0 0.35294440E+01</rscale>
<asrwt>0</asrwt>
<pdfrwt beam="1">0</pdfrwt>
<pdfrwt beam="2">0</pdfrwt>
<totfact> 0.11699587E+12</totfact>
</mgrwt>
</event>
<event>
 4    2  0.1993797E+006  0.6355441E+01  0.7546771E-02  0.1989205E+00
         22   -1    0    0    0    0  0.00000000000E+00  0.00000000000E+00  0.34224288336E+02  0.34224288336E+02  0.00000000000E+00 0. -1.
         22   -1    0    0    0    0 -0.00000000000E+00 -0.00000000000E+00 -0.19008442213E+01  0.19008442213E+01  0.00000000000E+00 0.  1.
          4    1    1    2  501    0  0.51625951878E+01 -0.37066478291E+01  0.27283278478E+02  0.28013727201E+02  0.00000000000E+00 0. -1.
         -4    1    1    2    0  501 -0.51625951878E+01  0.37066478291E+01  0.50401656363E+01  0.81114053556E+01  0.00000000000E+00 0.  1.
<mgrwt>
<rscale>  0 0.63554408E+01</rscale>
<asrwt>0</asrwt>
<pdfrwt beam="1">0</pdfrwt>
<pdfrwt beam="2">0</pdfrwt>
<totfact> 0.16416781E+11</totfact>
</mgrwt>
</event>
<event>
 4    2  0.1993797E+006  0.3668410E+01  0.7546771E-02  0.2345545E+00
         22   -1    0    0    0    0  0.00000000000E+00  0.00000000000E+00  0.82574233405E+00  0.82574233405E+00  0.00000000000E+00 0.  1.
         22   -1    0    0    0    0 -0.00000000000E+00 -0.00000000000E+00 -0.16378748353E+02  0.16378748353E+02  0.00000000000E+00 0. -1.
          4    1    1    2  501    0 -0.26192395828E+01 -0.25684264921E+01 -0.71692581344E+01  0.80532908078E+01  0.00000000000E+00 0.  1.
         -4    1    1    2    0  501  0.26192395828E+01  0.25684264921E+01 -0.83837478842E+01  0.91511998789E+01  0.00000000000E+00 0. -1.
<mgrwt>
<rscale>  0 0.36684098E+01</rscale>
<asrwt>0</asrwt>
<pdfrwt beam="1">0</pdfrwt>
<pdfrwt beam="2">0</pdfrwt>
<totfact> 0.10797806E+12</totfact>
</mgrwt>
</event>
<event>
 4    2  0.1993797E+006  0.2130510E+01  0.7546771E-02  0.2897877E+00
         22   -1    0    0    0    0  0.00000000000E+00  0.00000000000E+00  0.26165967928E+00  0.26165967928E+00  0.00000000000E+00 0.  1.
         22   -1    0    0    0    0 -0.00000000000E+00 -0.00000000000E+00 -0.17490334879E+02  0.17490334879E+02  0.00000000000E+00 0. -1.
          4    1    1    2  501    0 -0.38918943378E+00  0.20946605695E+01 -0.94172004882E+01  0.96551921965E+01  0.00000000000E+00 0. -1.
         -4    1    1    2    0  501  0.38918943378E+00 -0.20946605695E+01 -0.78114747119E+01  0.80968023621E+01  0.00000000000E+00 0.  1.
<mgrwt>
<rscale>  0 0.21305096E+01</rscale>
<asrwt>0</asrwt>
<pdfrwt beam="1">0</pdfrwt>
<pdfrwt beam="2">0</pdfrwt>
<totfact> 0.36403316E+12</totfact>
</mgrwt>
</event>
<event>
 4    2  0.1993797E+006  0.2382728E+01  0.7546771E-02  0.2762603E+00
         22   -1    0    0    0    0  0.00000000000E+00  0.00000000000E+00  0.76423773273E+00  0.76423773273E+00  0.00000000000E+00 0.  1.
         22   -1    0    0    0    0 -0.00000000000E+00 -0.00000000000E+00 -0.26352171967E+02  0.26352171967E+02  0.00000000000E+00 0. -1.
          4    1    1    2  501    0 -0.19091970300E+01  0.14256079797E+01 -0.13046844602E+01  0.27165406221E+01  0.00000000000E+00 0.  1.
         -4    1    1    2    0  501  0.19091970300E+01 -0.14256079797E+01 -0.24283249774E+02  0.24399869077E+02  0.00000000000E+00 0. -1.
<mgrwt>
<rscale>  0 0.23827277E+01</rscale>
<asrwt>0</asrwt>
<pdfrwt beam="1">0</pdfrwt>
<pdfrwt beam="2">0</pdfrwt>
<totfact> 0.65082577E+11</totfact>
</mgrwt>
</event>
<event>
 4    2  0.1993797E+006  0.4848318E+01  0.7546771E-02  0.2141556E+00
         22   -1    0    0    0    0  0.00000000000E+00  0.00000000000E+00  0.57003974654E+02  0.57003974654E+02  0.00000000000E+00 0. -1.
         22   -1    0    0    0    0 -0.00000000000E+00 -0.00000000000E+00 -0.85696826143E+00  0.85696826143E+00  0.00000000000E+00 0.  1.
          4    1    1    2  501    0 -0.45963649321E+01 -0.15426005110E+01  0.48911773489E+02  0.49151477829E+02  0.00000000000E+00 0. -1.
         -4    1    1    2    0  501  0.45963649321E+01  0.15426005110E+01  0.72352329037E+01  0.87094650867E+01  0.00000000000E+00 0.  1.
<mgrwt>
<rscale>  0 0.48483179E+01</rscale>
<asrwt>0</asrwt>
<pdfrwt beam="1">0</pdfrwt>
<pdfrwt beam="2">0</pdfrwt>
<totfact> 0.21014165E+11</totfact>
</mgrwt>
</event>
<event>
 4    2  0.1993797E+006  0.3503579E+01  0.7546771E-02  0.2383585E+00
         22   -1    0    0    0    0  0.00000000000E+00  0.00000000000E+00  0.10872021837E+02  0.10872021837E+02  0.00000000000E+00 0.  1.
         22   -1    0    0    0    0 -0.00000000000E+00 -0.00000000000E+00 -0.11340347783E+01  0.11340347783E+01  0.00000000000E+00 0. -1.
          4    1    1    2  501    0 -0.89792283991E+00  0.33865622287E+01  0.52669434585E+01  0.63258013366E+01  0.00000000000E+00 0.  1.
         -4    1    1    2    0  501  0.89792283991E+00 -0.33865622287E+01  0.44710435999E+01  0.56802552784E+01  0.00000000000E+00 0. -1.
<mgrwt>
<rscale>  0 0.35035795E+01</rscale>
<asrwt>0</asrwt>
<pdfrwt beam="1">0</pdfrwt>
<pdfrwt beam="2">0</pdfrwt>
<totfact> 0.12417785E+12</totfact>
</mgrwt>
</event>
<event>
 4    2  0.1993797E+006  0.3250363E+01  0.7546771E-02  0.2448531E+00
         22   -1    0    0    0    0  0.00000000000E+00  0.00000000000E+00  0.22528004774E+01  0.22528004774E+01  0.00000000000E+00 0. -1.
         22   -1    0    0    0    0 -0.00000000000E+00 -0.00000000000E+00 -0.27234663451E+02  0.27234663451E+02  0.00000000000E+00 0.  1.
          4    1    1    2  501    0 -0.13351323407E+01 -0.29634909911E+01  0.92347989794E+00  0.33790046380E+01  0.00000000000E+00 0. -1.
         -4    1    1    2    0  501  0.13351323407E+01  0.29634909911E+01 -0.25905342871E+02  0.26108459290E+02  0.00000000000E+00 0.  1.
<mgrwt>
<rscale>  0 0.32503626E+01</rscale>
<asrwt>0</asrwt>
<pdfrwt beam="1">0</pdfrwt>
<pdfrwt beam="2">0</pdfrwt>
<totfact> 0.18047056E+11</totfact>
</mgrwt>
</event>
<event>
 4    2  0.1993797E+006  0.2353344E+01  0.7546771E-02  0.2776943E+00
         22   -1    0    0    0    0  0.00000000000E+00  0.00000000000E+00  0.52261324847E+01  0.52261324847E+01  0.00000000000E+00 0. -1.
         22   -1    0    0    0    0 -0.00000000000E+00 -0.00000000000E+00 -0.11329821409E+01  0.11329821409E+01  0.00000000000E+00 0.  1.
          4    1    1    2  501    0 -0.21346840928E+01 -0.99063194134E+00  0.12380376084E+01  0.26591286052E+01  0.00000000000E+00 0.  1.
         -4    1    1    2    0  501  0.21346840928E+01  0.99063194134E+00  0.28551127353E+01  0.36999860204E+01  0.00000000000E+00 0. -1.
<mgrwt>
<rscale>  0 0.23533440E+01</rscale>
<asrwt>0</asrwt>
<pdfrwt beam="1">0</pdfrwt>
<pdfrwt beam="2">0</pdfrwt>
<totfact> 0.29926000E+12</totfact>
</mgrwt>
</event>
<event>
 4    2  0.1993797E+006  0.2660570E+01  0.7546771E-02  0.2641711E+00
         22   -1    0    0    0    0  0.00000000000E+00  0.00000000000E+00  0.10720258557E+01  0.10720258557E+01  0.00000000000E+00 0.  1.
         22   -1    0    0    0    0 -0.00000000000E+00 -0.00000000000E+00 -0.67050207503E+01  0.67050207503E+01  0.00000000000E+00 0. -1.
          4    1    1    2  501    0 -0.14807255711E+01 -0.22104486349E+01 -0.32960544223E+01  0.42358713554E+01  0.00000000000E+00 0. -1.
         -4    1    1    2    0  501  0.14807255711E+01  0.22104486349E+01 -0.23369404723E+01  0.35411752506E+01  0.00000000000E+00 0.  1.
<mgrwt>
<rscale>  0 0.26605697E+01</rscale>
<asrwt>0</asrwt>
<pdfrwt beam="1">0</pdfrwt>
<pdfrwt beam="2">0</pdfrwt>
<totfact> 0.23700625E+12</totfact>
</mgrwt>
</event>
<event>
 4    2  0.1993797E+006  0.3162375E+01  0.7546771E-02  0.2473231E+00
         22   -1    0    0    0    0  0.00000000000E+00  0.00000000000E+00  0.99789520044E+01  0.99789520044E+01  0.00000000000E+00 0. -1.
         22   -1    0    0    0    0 -0.00000000000E+00 -0.00000000000E+00 -0.34240760982E+01  0.34240760982E+01  0.00000000000E+00 0.  1.
          4    1    1    2  501    0  0.31229191628E+01 -0.49799055374E+00  0.89135519394E+01  0.94579081654E+01  0.00000000000E+00 0. -1.
         -4    1    1    2    0  501 -0.31229191628E+01  0.49799055374E+00 -0.23586760333E+01  0.39451199372E+01  0.00000000000E+00 0.  1.
<mgrwt>
<rscale>  0 0.31623755E+01</rscale>
<asrwt>0</asrwt>
<pdfrwt beam="1">0</pdfrwt>
<pdfrwt beam="2">0</pdfrwt>
<totfact> 0.38343568E+11</totfact>
</mgrwt>
</event>
<event>
 4    2  0.1993797E+006  0.2150456E+01  0.7546771E-02  0.2886075E+00
         22   -1    0    0    0    0  0.00000000000E+00  0.00000000000E+00  0.34388399354E+02  0.34388399354E+02  0.00000000000E+00 0.  1.
         22   -1    0    0    0    0 -0.00000000000E+00 -0.00000000000E+00 -0.30370469355E+00  0.30370469355E+00  0.00000000000E+00 0. -1.
          4    1    1    2  501    0 -0.21335991034E+01 -0.26872665247E+00  0.29990571915E+02  0.30067571617E+02  0.00000000000E+00 0.  1.
         -4    1    1    2    0  501  0.21335991034E+01  0.26872665247E+00  0.40941227459E+01  0.46245324311E+01  0.00000000000E+00 0. -1.
<mgrwt>
<rscale>  0 0.21504556E+01</rscale>
<asrwt>0</asrwt>
<pdfrwt beam="1">0</pdfrwt>
<pdfrwt beam="2">0</pdfrwt>
<totfact> 0.13136255E+12</totfact>
</mgrwt>
</event>
<event>
 4    2  0.1993797E+006  0.2571961E+01  0.7546771E-02  0.2677630E+00
         22   -1    0    0    0    0  0.00000000000E+00  0.00000000000E+00  0.11354842450E+00  0.11354842450E+00  0.00000000000E+00 0.  1.
         22   -1    0    0    0    0 -0.00000000000E+00 -0.00000000000E+00 -0.80241486227E+02  0.80241486227E+02  0.00000000000E+00 0. -1.
          4    1    1    2  501    0 -0.24222475591E+01 -0.86469656535E+00 -0.19033817475E+02  0.19206800647E+02  0.00000000000E+00 0.  1.
         -4    1    1    2    0  501  0.24222475591E+01  0.86469656535E+00 -0.61094120327E+02  0.61148234005E+02  0.00000000000E+00 0. -1.
<mgrwt>
<rscale>  0 0.25719610E+01</rscale>
<asrwt>0</asrwt>
<pdfrwt beam="1">0</pdfrwt>
<pdfrwt beam="2">0</pdfrwt>
<totfact> 0.12789340E+12</totfact>
</mgrwt>
</event>
<event>
 4    2  0.1993797E+006  0.4051824E+01  0.7546771E-02  0.2267496E+00
         22   -1    0    0    0    0  0.00000000000E+00  0.00000000000E+00  0.76981948458E+01  0.76981948458E+01  0.00000000000E+00 0.  1.
         22   -1    0    0    0    0 -0.00000000000E+00 -0.00000000000E+00 -0.94984761458E+01  0.94984761458E+01  0.00000000000E+00 0. -1.
          4    1    1    2  501    0  0.24658922366E+00  0.40443137332E+01  0.66716605914E+01  0.78056604374E+01  0.00000000000E+00 0.  1.
         -4    1    1    2    0  501 -0.24658922366E+00 -0.40443137332E+01 -0.84719418914E+01  0.93910105542E+01  0.00000000000E+00 0. -1.
<mgrwt>
<rscale>  0 0.40518243E+01</rscale>
<asrwt>0</asrwt>
<pdfrwt beam="1">0</pdfrwt>
<pdfrwt beam="2">0</pdfrwt>
<totfact> 0.15581048E+11</totfact>
</mgrwt>
</event>
<event>
 4    2  0.1993797E+006  0.2400065E+01  0.7546771E-02  0.2754297E+00
         22   -1    0    0    0    0  0.00000000000E+00  0.00000000000E+00  0.13011818484E+01  0.13011818484E+01  0.00000000000E+00 0.  1.
         22   -1    0    0    0    0 -0.00000000000E+00 -0.00000000000E+00 -0.44639602353E+01  0.44639602353E+01  0.00000000000E+00 0. -1.
          4    1    1    2  501    0  0.22725394640E+01 -0.77193155839E+00 -0.13190465323E+01  0.27386488823E+01  0.00000000000E+00 0. -1.
         -4    1    1    2    0  501 -0.22725394640E+01  0.77193155839E+00 -0.18437318547E+01  0.30264932014E+01  0.00000000000E+00 0.  1.
<mgrwt>
<rscale>  0 0.24000654E+01</rscale>
<asrwt>0</asrwt>
<pdfrwt beam="1">0</pdfrwt>
<pdfrwt beam="2">0</pdfrwt>
<totfact> 0.30770760E+12</totfact>
</mgrwt>
</event>
<event>
 4    2  0.1993797E+006  0.2265449E+01  0.7546771E-02  0.2821933E+00
         22   -1    0    0    0    0  0.00000000000E+00  0.00000000000E+00  0.33655090682E+01  0.33655090682E+01  0.00000000000E+00 0. -1.
         22   -1    0    0    0    0 -0.00000000000E+00 -0.00000000000E+00 -0.20685717171E+01  0.20685717171E+01  0.00000000000E+00 0.  1.
          4    1    1    2  501    0  0.11344491501E+00  0.22626063063E+01  0.20413251107E+01  0.30494696676E+01  0.00000000000E+00 0. -1.
         -4    1    1    2    0  501 -0.11344491501E+00 -0.22626063063E+01 -0.74438775970E+00  0.23846111177E+01  0.00000000000E+00 0.  1.
<mgrwt>
<rscale>  0 0.22654485E+01</rscale>
<asrwt>0</asrwt>
<pdfrwt beam="1">0</pdfrwt>
<pdfrwt beam="2">0</pdfrwt>
<totfact> 0.25134986E+12</totfact>
</mgrwt>
</event>
<event>
 4    2  0.1993797E+006  0.2649916E+01  0.7546771E-02  0.2645912E+00
         22   -1    0    0    0    0  0.00000000000E+00  0.00000000000E+00  0.64996842830E+01  0.64996842830E+01  0.00000000000E+00 0.  1.
         22   -1    0    0    0    0 -0.00000000000E+00 -0.00000000000E+00 -0.11709788316E+01  0.11709788316E+01  0.00000000000E+00 0. -1.
          4    1    1    2  501    0  0.10461111626E+01  0.24346886263E+01  0.15974714226E+01  0.30941836108E+01  0.00000000000E+00 0. -1.
         -4    1    1    2    0  501 -0.10461111626E+01 -0.24346886263E+01  0.37312340288E+01  0.45764795038E+01  0.00000000000E+00 0.  1.
<mgrwt>
<rscale>  0 0.26499165E+01</rscale>
<asrwt>0</asrwt>
<pdfrwt beam="1">0</pdfrwt>
<pdfrwt beam="2">0</pdfrwt>
<totfact> 0.22233634E+12</totfact>
</mgrwt>
</event>
<event>
 4    2  0.1993797E+006  0.2684798E+01  0.7546771E-02  0.2632269E+00
         22   -1    0    0    0    0  0.00000000000E+00  0.00000000000E+00  0.12680084073E+01  0.12680084073E+01  0.00000000000E+00 0. -1.
         22   -1    0    0    0    0 -0.00000000000E+00 -0.00000000000E+00 -0.86220354609E+01  0.86220354609E+01  0.00000000000E+00 0.  1.
          4    1    1    2  501    0 -0.23012279639E+01  0.13829290210E+01 -0.79068214793E+00  0.27988070812E+01  0.00000000000E+00 0. -1.
         -4    1    1    2    0  501  0.23012279639E+01 -0.13829290210E+01 -0.65633449056E+01  0.70912367870E+01  0.00000000000E+00 0.  1.
<mgrwt>
<rscale>  0 0.26847985E+01</rscale>
<asrwt>0</asrwt>
<pdfrwt beam="1">0</pdfrwt>
<pdfrwt beam="2">0</pdfrwt>
<totfact> 0.14463487E+12</totfact>
</mgrwt>
</event>
<event>
 4    2  0.1993797E+006  0.2854584E+01  0.7546771E-02  0.2570231E+00
         22   -1    0    0    0    0  0.00000000000E+00  0.00000000000E+00  0.17091392764E+01  0.17091392764E+01  0.00000000000E+00 0. -1.
         22   -1    0    0    0    0 -0.00000000000E+00 -0.00000000000E+00 -0.48528950662E+01  0.48528950662E+01  0.00000000000E+00 0.  1.
          4    1    1    2  501    0 -0.17710955524E+01 -0.22387211190E+01 -0.20066209061E+01  0.34892949381E+01  0.00000000000E+00 0.  1.
         -4    1    1    2    0  501  0.17710955524E+01  0.22387211190E+01 -0.11371348837E+01  0.30727394045E+01  0.00000000000E+00 0. -1.
<mgrwt>
<rscale>  0 0.28545843E+01</rscale>
<asrwt>0</asrwt>
<pdfrwt beam="1">0</pdfrwt>
<pdfrwt beam="2">0</pdfrwt>
<totfact> 0.20371047E+12</totfact>
</mgrwt>
</event>
<event>
 4    2  0.1993797E+006  0.2350362E+01  0.7546771E-02  0.2778417E+00
         22   -1    0    0    0    0  0.00000000000E+00  0.00000000000E+00  0.60719074209E+00  0.60719074209E+00  0.00000000000E+00 0. -1.
         22   -1    0    0    0    0 -0.00000000000E+00 -0.00000000000E+00 -0.13022684122E+02  0.13022684122E+02  0.00000000000E+00 0.  1.
          4    1    1    2  501    0 -0.16591240584E+01  0.16647855079E+01 -0.24665063468E+01  0.34070305234E+01  0.00000000000E+00 0. -1.
         -4    1    1    2    0  501  0.16591240584E+01 -0.16647855079E+01 -0.99489870330E+01  0.10222844341E+02  0.00000000000E+00 0.  1.
<mgrwt>
<rscale>  0 0.23503624E+01</rscale>
<asrwt>0</asrwt>
<pdfrwt beam="1">0</pdfrwt>
<pdfrwt beam="2">0</pdfrwt>
<totfact> 0.20291571E+12</totfact>
</mgrwt>
</event>
<event>
 4    2  0.1993797E+006  0.3389774E+01  0.7546771E-02  0.2411721E+00
         22   -1    0    0    0    0  0.00000000000E+00  0.00000000000E+00  0.12697912855E+01  0.12697912855E+01  0.00000000000E+00 0.  1.
         22   -1    0    0    0    0 -0.00000000000E+00 -0.00000000000E+00 -0.10231663506E+02  0.10231663506E+02  0.00000000000E+00 0. -1.
          4    1    1    2  501    0  0.47729399834E+00 -0.33560037817E+01 -0.25259348030E+01  0.42274008058E+01  0.00000000000E+00 0.  1.
         -4    1    1    2    0  501 -0.47729399834E+00  0.33560037817E+01 -0.64359374174E+01  0.72740539856E+01  0.00000000000E+00 0. -1.
<mgrwt>
<rscale>  0 0.33897745E+01</rscale>
<asrwt>0</asrwt>
<pdfrwt beam="1">0</pdfrwt>
<pdfrwt beam="2">0</pdfrwt>
<totfact> 0.11742724E+12</totfact>
</mgrwt>
</event>
<event>
 4    2  0.1993797E+006  0.2293377E+01  0.7546771E-02  0.2807284E+00
         22   -1    0    0    0    0  0.00000000000E+00  0.00000000000E+00  0.69639201112E+01  0.69639201112E+01  0.00000000000E+00 0. -1.
         22   -1    0    0    0    0 -0.00000000000E+00 -0.00000000000E+00 -0.18048228707E+01  0.18048228707E+01  0.00000000000E+00 0.  1.
          4    1    1    2  501    0  0.13598549999E+01  0.18467189112E+01  0.59229929916E+01  0.63514897730E+01  0.00000000000E+00 0. -1.
         -4    1    1    2    0  501 -0.13598549999E+01 -0.18467189112E+01 -0.76389575115E+00  0.24172532090E+01  0.00000000000E+00 0.  1.
<mgrwt>
<rscale>  0 0.22933766E+01</rscale>
<asrwt>0</asrwt>
<pdfrwt beam="1">0</pdfrwt>
<pdfrwt beam="2">0</pdfrwt>
<totfact> 0.12449138E+12</totfact>
</mgrwt>
</event>
<event>
 4    2  0.1993797E+006  0.3414029E+01  0.7546771E-02  0.2405587E+00
         22   -1    0    0    0    0  0.00000000000E+00  0.00000000000E+00  0.96631752205E+00  0.96631752205E+00  0.00000000000E+00 0. -1.
         22   -1    0    0    0    0 -0.00000000000E+00 -0.00000000000E+00 -0.81651134339E+02  0.81651134339E+02  0.00000000000E+00 0.  1.
          4    1    1    2  501    0 -0.73124149569E+00 -0.33347985099E+01 -0.22067002519E+01  0.40651102357E+01  0.00000000000E+00 0. -1.
         -4    1    1    2    0  501  0.73124149569E+00  0.33347985099E+01 -0.78478116565E+02  0.78552341625E+02  0.00000000000E+00 0.  1.
<mgrwt>
<rscale>  0 0.34140292E+01</rscale>
<asrwt>0</asrwt>
<pdfrwt beam="1">0</pdfrwt>
<pdfrwt beam="2">0</pdfrwt>
<totfact> 0.11265208E+11</totfact>
</mgrwt>
</event>
<event>
 4    2  0.1993797E+006  0.3094589E+01  0.7546771E-02  0.2493109E+00
         22   -1    0    0    0    0  0.00000000000E+00  0.00000000000E+00  0.22105828349E+00  0.22105828349E+00  0.00000000000E+00 0. -1.
         22   -1    0    0    0    0 -0.00000000000E+00 -0.00000000000E+00 -0.49183596656E+02  0.49183596656E+02  0.00000000000E+00 0.  1.
          4    1    1    2  501    0  0.23020807793E+01  0.20680676044E+01 -0.15952812337E+02  0.16250190799E+02  0.00000000000E+00 0. -1.
         -4    1    1    2    0  501 -0.23020807793E+01 -0.20680676044E+01 -0.33009726036E+02  0.33154464141E+02  0.00000000000E+00 0.  1.
<mgrwt>
<rscale>  0 0.30945887E+01</rscale>
<asrwt>0</asrwt>
<pdfrwt beam="1">0</pdfrwt>
<pdfrwt beam="2">0</pdfrwt>
<totfact> 0.11769740E+12</totfact>
</mgrwt>
</event>
<event>
 4    2  0.1993797E+006  0.2575818E+01  0.7546771E-02  0.2676019E+00
         22   -1    0    0    0    0  0.00000000000E+00  0.00000000000E+00  0.27060850832E+01  0.27060850832E+01  0.00000000000E+00 0. -1.
         22   -1    0    0    0    0 -0.00000000000E+00 -0.00000000000E+00 -0.32018557590E+01  0.32018557590E+01  0.00000000000E+00 0.  1.
          4    1    1    2  501    0 -0.85933650837E+00 -0.24282464368E+01  0.11818167578E+01  0.28339955613E+01  0.00000000000E+00 0. -1.
         -4    1    1    2    0  501  0.85933650837E+00  0.24282464368E+01 -0.16775874336E+01  0.30739452809E+01  0.00000000000E+00 0.  1.
<mgrwt>
<rscale>  0 0.25758183E+01</rscale>
<asrwt>0</asrwt>
<pdfrwt beam="1">0</pdfrwt>
<pdfrwt beam="2">0</pdfrwt>
<totfact> 0.19502733E+12</totfact>
</mgrwt>
</event>
<event>
 4    2  0.1993797E+006  0.3071299E+01  0.7546771E-02  0.2500118E+00
         22   -1    0    0    0    0  0.00000000000E+00  0.00000000000E+00  0.90365511004E+00  0.90365511004E+00  0.00000000000E+00 0.  1.
         22   -1    0    0    0    0 -0.00000000000E+00 -0.00000000000E+00 -0.10627654423E+02  0.10627654423E+02  0.00000000000E+00 0. -1.
          4    1    1    2  501    0 -0.28115260929E+01  0.12362023148E+01 -0.56310373299E+01  0.64141606267E+01  0.00000000000E+00 0.  1.
         -4    1    1    2    0  501  0.28115260929E+01 -0.12362023148E+01 -0.40929619826E+01  0.51171489059E+01  0.00000000000E+00 0. -1.
<mgrwt>
<rscale>  0 0.30712986E+01</rscale>
<asrwt>0</asrwt>
<pdfrwt beam="1">0</pdfrwt>
<pdfrwt beam="2">0</pdfrwt>
<totfact> 0.16545468E+12</totfact>
</mgrwt>
</event>
<event>
 4    2  0.1993797E+006  0.2576731E+01  0.7546771E-02  0.2675639E+00
         22   -1    0    0    0    0  0.00000000000E+00  0.00000000000E+00  0.16364527617E+02  0.16364527617E+02  0.00000000000E+00 0. -1.
         22   -1    0    0    0    0 -0.00000000000E+00 -0.00000000000E+00 -0.41317845921E+00  0.41317845921E+00  0.00000000000E+00 0.  1.
          4    1    1    2  501    0 -0.25199548155E+01 -0.53793116605E+00  0.91021816122E+01  0.94598759142E+01  0.00000000000E+00 0. -1.
         -4    1    1    2    0  501  0.25199548155E+01  0.53793116605E+00  0.68491675454E+01  0.73178301617E+01  0.00000000000E+00 0.  1.
<mgrwt>
<rscale>  0 0.25767309E+01</rscale>
<asrwt>0</asrwt>
<pdfrwt beam="1">0</pdfrwt>
<pdfrwt beam="2">0</pdfrwt>
<totfact> 0.23669346E+12</totfact>
</mgrwt>
</event>
<event>
 4    2  0.1993797E+006  0.3165295E+01  0.7546771E-02  0.2472392E+00
         22   -1    0    0    0    0  0.00000000000E+00  0.00000000000E+00  0.15290378594E+01  0.15290378594E+01  0.00000000000E+00 0. -1.
         22   -1    0    0    0    0 -0.00000000000E+00 -0.00000000000E+00 -0.66471977606E+01  0.66471977606E+01  0.00000000000E+00 0.  1.
          4    1    1    2  501    0  0.31148022110E+01 -0.56311743899E+00 -0.20712553262E+01  0.37827493559E+01  0.00000000000E+00 0.  1.
         -4    1    1    2    0  501 -0.31148022110E+01  0.56311743899E+00 -0.30469045750E+01  0.43934862641E+01  0.00000000000E+00 0. -1.
<mgrwt>
<rscale>  0 0.31652953E+01</rscale>
<asrwt>0</asrwt>
<pdfrwt beam="1">0</pdfrwt>
<pdfrwt beam="2">0</pdfrwt>
<totfact> 0.15935014E+12</totfact>
</mgrwt>
</event>
<event>
 4    2  0.1993797E+006  0.2075461E+01  0.7546771E-02  0.2931586E+00
         22   -1    0    0    0    0  0.00000000000E+00  0.00000000000E+00  0.23346442325E+00  0.23346442325E+00  0.00000000000E+00 0.  1.
         22   -1    0    0    0    0 -0.00000000000E+00 -0.00000000000E+00 -0.29214978773E+02  0.29214978773E+02  0.00000000000E+00 0. -1.
          4    1    1    2  501    0 -0.62216976260E-01  0.20745282780E+01 -0.55530569351E+01  0.59282358129E+01  0.00000000000E+00 0.  1.
         -4    1    1    2    0  501  0.62216976260E-01 -0.20745282780E+01 -0.23428457414E+02  0.23520207383E+02  0.00000000000E+00 0. -1.
<mgrwt>
<rscale>  0 0.20754610E+01</rscale>
<asrwt>0</asrwt>
<pdfrwt beam="1">0</pdfrwt>
<pdfrwt beam="2">0</pdfrwt>
<totfact> 0.21721111E+12</totfact>
</mgrwt>
</event>
<event>
 4    2  0.1993797E+006  0.3280434E+01  0.7546771E-02  0.2440358E+00
         22   -1    0    0    0    0  0.00000000000E+00  0.00000000000E+00  0.42795505753E+01  0.42795505753E+01  0.00000000000E+00 0. -1.
         22   -1    0    0    0    0 -0.00000000000E+00 -0.00000000000E+00 -0.29564931606E+01  0.29564931606E+01  0.00000000000E+00 0.  1.
          4    1    1    2  501    0  0.21016311897E+01  0.25188081009E+01  0.20603235263E+01  0.38737812199E+01  0.00000000000E+00 0. -1.
         -4    1    1    2    0  501 -0.21016311897E+01 -0.25188081009E+01 -0.73726611164E+00  0.33622625160E+01  0.00000000000E+00 0.  1.
<mgrwt>
<rscale>  0 0.32804341E+01</rscale>
<asrwt>0</asrwt>
<pdfrwt beam="1">0</pdfrwt>
<pdfrwt beam="2">0</pdfrwt>
<totfact> 0.12511178E+12</totfact>
</mgrwt>
</event>
<event>
 4    2  0.1993797E+006  0.2345106E+01  0.7546771E-02  0.2781024E+00
         22   -1    0    0    0    0  0.00000000000E+00  0.00000000000E+00  0.33471568474E+01  0.33471568474E+01  0.00000000000E+00 0. -1.
         22   -1    0    0    0    0 -0.00000000000E+00 -0.00000000000E+00 -0.17405843894E+01  0.17405843894E+01  0.00000000000E+00 0.  1.
          4    1    1    2  501    0  0.34127097933E+00 -0.23201413193E+01  0.20108364507E+00  0.23537111664E+01  0.00000000000E+00 0.  1.
         -4    1    1    2    0  501 -0.34127097933E+00  0.23201413193E+01  0.14054888128E+01  0.27340300704E+01  0.00000000000E+00 0. -1.
<mgrwt>
<rscale>  0 0.23451059E+01</rscale>
<asrwt>0</asrwt>
<pdfrwt beam="1">0</pdfrwt>
<pdfrwt beam="2">0</pdfrwt>
<totfact> 0.30885155E+12</totfact>
</mgrwt>
</event>
<event>
 4    2  0.1993797E+006  0.2001614E+01  0.7546771E-02  0.2979640E+00
         22   -1    0    0    0    0  0.00000000000E+00  0.00000000000E+00  0.20606671673E+02  0.20606671673E+02  0.00000000000E+00 0. -1.
         22   -1    0    0    0    0 -0.00000000000E+00 -0.00000000000E+00 -0.26345673135E+00  0.26345673135E+00  0.00000000000E+00 0.  1.
          4    1    1    2  501    0 -0.19803884985E+01 -0.29072385621E+00  0.15513114653E+02  0.15641712988E+02  0.00000000000E+00 0. -1.
         -4    1    1    2    0  501  0.19803884985E+01  0.29072385621E+00  0.48301002880E+01  0.52284154156E+01  0.00000000000E+00 0.  1.
<mgrwt>
<rscale>  0 0.20016141E+01</rscale>
<asrwt>0</asrwt>
<pdfrwt beam="1">0</pdfrwt>
<pdfrwt beam="2">0</pdfrwt>
<totfact> 0.29458935E+12</totfact>
</mgrwt>
</event>
<event>
 4    2  0.1993797E+006  0.2520199E+01  0.7546771E-02  0.2699691E+00
         22   -1    0    0    0    0  0.00000000000E+00  0.00000000000E+00  0.71798929587E+00  0.71798929587E+00  0.00000000000E+00 0.  1.
         22   -1    0    0    0    0 -0.00000000000E+00 -0.00000000000E+00 -0.17775190542E+02  0.17775190542E+02  0.00000000000E+00 0. -1.
          4    1    1    2  501    0  0.20573279522E+01  0.14556122146E+01 -0.19750286324E+01  0.32018968317E+01  0.00000000000E+00 0.  1.
         -4    1    1    2    0  501 -0.20573279522E+01 -0.14556122146E+01 -0.15082172614E+02  0.15291283006E+02  0.00000000000E+00 0. -1.
<mgrwt>
<rscale>  0 0.25201994E+01</rscale>
<asrwt>0</asrwt>
<pdfrwt beam="1">0</pdfrwt>
<pdfrwt beam="2">0</pdfrwt>
<totfact> 0.11438877E+12</totfact>
</mgrwt>
</event>
<event>
 4    2  0.1993797E+006  0.2133611E+01  0.7546771E-02  0.2896028E+00
         22   -1    0    0    0    0  0.00000000000E+00  0.00000000000E+00  0.10924099739E+01  0.10924099739E+01  0.00000000000E+00 0. -1.
         22   -1    0    0    0    0 -0.00000000000E+00 -0.00000000000E+00 -0.42880286265E+01  0.42880286265E+01  0.00000000000E+00 0.  1.
          4    1    1    2  501    0  0.16473658380E+01 -0.13559065322E+01 -0.20493886867E+01  0.29584270681E+01  0.00000000000E+00 0.  1.
         -4    1    1    2    0  501 -0.16473658380E+01  0.13559065322E+01 -0.11462299660E+01  0.24220115324E+01  0.00000000000E+00 0. -1.
<mgrwt>
<rscale>  0 0.21336112E+01</rscale>
<asrwt>0</asrwt>
<pdfrwt beam="1">0</pdfrwt>
<pdfrwt beam="2">0</pdfrwt>
<totfact> 0.39421149E+12</totfact>
</mgrwt>
</event>
<event>
 4    2  0.1993797E+006  0.2025263E+01  0.7546771E-02  0.2963878E+00
         22   -1    0    0    0    0  0.00000000000E+00  0.00000000000E+00  0.22057380275E+00  0.22057380275E+00  0.00000000000E+00 0.  1.
         22   -1    0    0    0    0 -0.00000000000E+00 -0.00000000000E+00 -0.40781476843E+02  0.40781476843E+02  0.00000000000E+00 0. -1.
          4    1    1    2  501    0 -0.12590386455E+01  0.15863521424E+01 -0.51593689607E+01  0.55426329035E+01  0.00000000000E+00 0.  1.
         -4    1    1    2    0  501  0.12590386455E+01 -0.15863521424E+01 -0.35401534079E+02  0.35459417742E+02  0.00000000000E+00 0. -1.
<mgrwt>
<rscale>  0 0.20252633E+01</rscale>
<asrwt>0</asrwt>
<pdfrwt beam="1">0</pdfrwt>
<pdfrwt beam="2">0</pdfrwt>
<totfact> 0.15073211E+12</totfact>
</mgrwt>
</event>
<event>
 4    2  0.1993797E+006  0.2543545E+01  0.7546771E-02  0.2689638E+00
         22   -1    0    0    0    0  0.00000000000E+00  0.00000000000E+00  0.58261733640E+00  0.58261733640E+00  0.00000000000E+00 0.  1.
         22   -1    0    0    0    0 -0.00000000000E+00 -0.00000000000E+00 -0.22906458924E+02  0.22906458924E+02  0.00000000000E+00 0. -1.
          4    1    1    2  501    0 -0.21013019749E+01 -0.14332303531E+01 -0.27317621193E+01  0.37325786678E+01  0.00000000000E+00 0.  1.
         -4    1    1    2    0  501  0.21013019749E+01  0.14332303531E+01 -0.19592079468E+02  0.19756497592E+02  0.00000000000E+00 0. -1.
<mgrwt>
<rscale>  0 0.25435446E+01</rscale>
<asrwt>0</asrwt>
<pdfrwt beam="1">0</pdfrwt>
<pdfrwt beam="2">0</pdfrwt>
<totfact> 0.10564136E+12</totfact>
</mgrwt>
</event>
<event>
 4    2  0.1993797E+006  0.2614743E+01  0.7546771E-02  0.2660008E+00
         22   -1    0    0    0    0  0.00000000000E+00  0.00000000000E+00  0.69511888580E+00  0.69511888580E+00  0.00000000000E+00 0. -1.
         22   -1    0    0    0    0 -0.00000000000E+00 -0.00000000000E+00 -0.98366449851E+01  0.98366449851E+01  0.00000000000E+00 0.  1.
          4    1    1    2  501    0  0.21682957810E+01 -0.14612922045E+01 -0.45153851219E+01  0.52178141305E+01  0.00000000000E+00 0. -1.
         -4    1    1    2    0  501 -0.21682957810E+01  0.14612922045E+01 -0.46261409774E+01  0.53139497404E+01  0.00000000000E+00 0.  1.
<mgrwt>
<rscale>  0 0.26147431E+01</rscale>
<asrwt>0</asrwt>
<pdfrwt beam="1">0</pdfrwt>
<pdfrwt beam="2">0</pdfrwt>
<totfact> 0.24489746E+12</totfact>
</mgrwt>
</event>
<event>
 4    2  0.1993797E+006  0.2206507E+01  0.7546771E-02  0.2854010E+00
         22   -1    0    0    0    0  0.00000000000E+00  0.00000000000E+00  0.20377089585E+02  0.20377089585E+02  0.00000000000E+00 0.  1.
         22   -1    0    0    0    0 -0.00000000000E+00 -0.00000000000E+00 -0.29724881710E+00  0.29724881710E+00  0.00000000000E+00 0. -1.
          4    1    1    2  501    0  0.23455680774E+00  0.21940045251E+01  0.54611324808E+01  0.58900459017E+01  0.00000000000E+00 0.  1.
         -4    1    1    2    0  501 -0.23455680774E+00 -0.21940045251E+01  0.14618708287E+02  0.14784292500E+02  0.00000000000E+00 0. -1.
<mgrwt>
<rscale>  0 0.22065069E+01</rscale>
<asrwt>0</asrwt>
<pdfrwt beam="1">0</pdfrwt>
<pdfrwt beam="2">0</pdfrwt>
<totfact> 0.26098035E+12</totfact>
</mgrwt>
</event>
<event>
 4    2  0.1993797E+006  0.2112193E+01  0.7546771E-02  0.2908904E+00
         22   -1    0    0    0    0  0.00000000000E+00  0.00000000000E+00  0.31725352518E+00  0.31725352518E+00  0.00000000000E+00 0.  1.
         22   -1    0    0    0    0 -0.00000000000E+00 -0.00000000000E+00 -0.15781444155E+02  0.15781444155E+02  0.00000000000E+00 0. -1.
          4    1    1    2  501    0  0.18663873023E+01 -0.98891827254E+00 -0.50755027963E+01  0.54974621005E+01  0.00000000000E+00 0.  1.
         -4    1    1    2    0  501 -0.18663873023E+01  0.98891827254E+00 -0.10388687834E+02  0.10601235580E+02  0.00000000000E+00 0. -1.
<mgrwt>
<rscale>  0 0.21121934E+01</rscale>
<asrwt>0</asrwt>
<pdfrwt beam="1">0</pdfrwt>
<pdfrwt beam="2">0</pdfrwt>
<totfact> 0.33309780E+12</totfact>
</mgrwt>
</event>
<event>
 4    2  0.1993797E+006  0.2075483E+01  0.7546771E-02  0.2931573E+00
         22   -1    0    0    0    0  0.00000000000E+00  0.00000000000E+00  0.19115231436E+00  0.19115231436E+00  0.00000000000E+00 0. -1.
         22   -1    0    0    0    0 -0.00000000000E+00 -0.00000000000E+00 -0.23653851664E+02  0.23653851664E+02  0.00000000000E+00 0.  1.
          4    1    1    2  501    0 -0.72931276229E+00  0.19431242501E+01 -0.91384184635E+01  0.93711429917E+01  0.00000000000E+00 0.  1.
         -4    1    1    2    0  501  0.72931276229E+00 -0.19431242501E+01 -0.14324280886E+02  0.14473860987E+02  0.00000000000E+00 0. -1.
<mgrwt>
<rscale>  0 0.20754828E+01</rscale>
<asrwt>0</asrwt>
<pdfrwt beam="1">0</pdfrwt>
<pdfrwt beam="2">0</pdfrwt>
<totfact> 0.35466659E+12</totfact>
</mgrwt>
</event>
<event>
 4    2  0.1993797E+006  0.2308041E+01  0.7546771E-02  0.2799726E+00
         22   -1    0    0    0    0  0.00000000000E+00  0.00000000000E+00  0.92126734216E+01  0.92126734216E+01  0.00000000000E+00 0. -1.
         22   -1    0    0    0    0 -0.00000000000E+00 -0.00000000000E+00 -0.14148600612E+01  0.14148600612E+01  0.00000000000E+00 0.  1.
          4    1    1    2  501    0 -0.20149852481E+01  0.11255611081E+01  0.79850370212E+01  0.83119113078E+01  0.00000000000E+00 0. -1.
         -4    1    1    2    0  501  0.20149852481E+01 -0.11255611081E+01 -0.18722366086E+00  0.23156221750E+01  0.00000000000E+00 0.  1.
<mgrwt>
<rscale>  0 0.23080410E+01</rscale>
<asrwt>0</asrwt>
<pdfrwt beam="1">0</pdfrwt>
<pdfrwt beam="2">0</pdfrwt>
<totfact> 0.11773825E+12</totfact>
</mgrwt>
</event>
<event>
 4    2  0.1993797E+006  0.3191186E+01  0.7546771E-02  0.2465011E+00
         22   -1    0    0    0    0  0.00000000000E+00  0.00000000000E+00  0.18942608683E+02  0.18942608683E+02  0.00000000000E+00 0. -1.
         22   -1    0    0    0    0 -0.00000000000E+00 -0.00000000000E+00 -0.55998568496E+00  0.55998568496E+00  0.00000000000E+00 0.  1.
          4    1    1    2  501    0  0.11151052059E+01  0.29900176284E+01  0.72419231060E+01  0.79138559067E+01  0.00000000000E+00 0.  1.
         -4    1    1    2    0  501 -0.11151052059E+01 -0.29900176284E+01  0.11140699892E+02  0.11588738461E+02  0.00000000000E+00 0. -1.
<mgrwt>
<rscale>  0 0.31911855E+01</rscale>
<asrwt>0</asrwt>
<pdfrwt beam="1">0</pdfrwt>
<pdfrwt beam="2">0</pdfrwt>
<totfact> 0.14009483E+12</totfact>
</mgrwt>
</event>
<event>
 4    2  0.1993797E+006  0.2330741E+01  0.7546771E-02  0.2788205E+00
         22   -1    0    0    0    0  0.00000000000E+00  0.00000000000E+00  0.13524498428E+01  0.13524498428E+01  0.00000000000E+00 0. -1.
         22   -1    0    0    0    0 -0.00000000000E+00 -0.00000000000E+00 -0.45737459339E+01  0.45737459339E+01  0.00000000000E+00 0.  1.
          4    1    1    2  501    0  0.22934847558E+01  0.41506853116E+00 -0.57654351430E+00  0.24009907610E+01  0.00000000000E+00 0. -1.
         -4    1    1    2    0  501 -0.22934847558E+01 -0.41506853116E+00 -0.26447525767E+01  0.35252050157E+01  0.00000000000E+00 0.  1.
<mgrwt>
<rscale>  0 0.23307411E+01</rscale>
<asrwt>0</asrwt>
<pdfrwt beam="1">0</pdfrwt>
<pdfrwt beam="2">0</pdfrwt>
<totfact> 0.28603004E+12</totfact>
</mgrwt>
</event>
<event>
 4    2  0.1993797E+006  0.2397484E+01  0.7546771E-02  0.2755527E+00
         22   -1    0    0    0    0  0.00000000000E+00  0.00000000000E+00  0.28770869148E+02  0.28770869148E+02  0.00000000000E+00 0.  1.
         22   -1    0    0    0    0 -0.00000000000E+00 -0.00000000000E+00 -0.20306703941E+00  0.20306703941E+00  0.00000000000E+00 0. -1.
          4    1    1    2  501    0  0.11663242091E+01 -0.20946640881E+01  0.12441586917E+02  0.12670478082E+02  0.00000000000E+00 0. -1.
         -4    1    1    2    0  501 -0.11663242091E+01  0.20946640881E+01  0.16126215191E+02  0.16303458105E+02  0.00000000000E+00 0.  1.
<mgrwt>
<rscale>  0 0.23974841E+01</rscale>
<asrwt>0</asrwt>
<pdfrwt beam="1">0</pdfrwt>
<pdfrwt beam="2">0</pdfrwt>
<totfact> 0.25883671E+12</totfact>
</mgrwt>
</event>
<event>
 4    2  0.1993797E+006  0.2430122E+01  0.7546771E-02  0.2740162E+00
         22   -1    0    0    0    0  0.00000000000E+00  0.00000000000E+00  0.77067518009E+01  0.77067518009E+01  0.00000000000E+00 0.  1.
         22   -1    0    0    0    0 -0.00000000000E+00 -0.00000000000E+00 -0.19030034646E+01  0.19030034646E+01  0.00000000000E+00 0. -1.
          4    1    1    2  501    0  0.10023664152E+01 -0.22137647301E+01  0.66154378296E+01  0.70476599229E+01  0.00000000000E+00 0.  1.
         -4    1    1    2    0  501 -0.10023664152E+01  0.22137647301E+01 -0.81168949334E+00  0.25620953425E+01  0.00000000000E+00 0. -1.
<mgrwt>
<rscale>  0 0.24301220E+01</rscale>
<asrwt>0</asrwt>
<pdfrwt beam="1">0</pdfrwt>
<pdfrwt beam="2">0</pdfrwt>
<totfact> 0.10371296E+12</totfact>
</mgrwt>
</event>
<event>
 4    2  0.1993797E+006  0.2341943E+01  0.7546771E-02  0.2782598E+00
         22   -1    0    0    0    0  0.00000000000E+00  0.00000000000E+00  0.21756944396E+02  0.21756944396E+02  0.00000000000E+00 0. -1.
         22   -1    0    0    0    0 -0.00000000000E+00 -0.00000000000E+00 -0.43362656564E+00  0.43362656564E+00  0.00000000000E+00 0.  1.
          4    1    1    2  501    0 -0.19732079046E+01 -0.12614062060E+01  0.17840648384E+02  0.17993705283E+02  0.00000000000E+00 0.  1.
         -4    1    1    2    0  501  0.19732079046E+01  0.12614062060E+01  0.34826694461E+01  0.41968656784E+01  0.00000000000E+00 0. -1.
<mgrwt>
<rscale>  0 0.23419426E+01</rscale>
<asrwt>0</asrwt>
<pdfrwt beam="1">0</pdfrwt>
<pdfrwt beam="2">0</pdfrwt>
<totfact> 0.15729663E+12</totfact>
</mgrwt>
</event>
<event>
 4    2  0.1993797E+006  0.3438426E+01  0.7546771E-02  0.2399494E+00
         22   -1    0    0    0    0  0.00000000000E+00  0.00000000000E+00  0.28057559009E+02  0.28057559009E+02  0.00000000000E+00 0.  1.
         22   -1    0    0    0    0 -0.00000000000E+00 -0.00000000000E+00 -0.47735674673E+00  0.47735674673E+00  0.00000000000E+00 0. -1.
          4    1    1    2  501    0 -0.10070394451E+01  0.32876507372E+01  0.18676008886E+02  0.18989894253E+02  0.00000000000E+00 0.  1.
         -4    1    1    2    0  501  0.10070394451E+01 -0.32876507372E+01  0.89041933758E+01  0.95450215027E+01  0.00000000000E+00 0. -1.
<mgrwt>
<rscale>  0 0.34384264E+01</rscale>
<asrwt>0</asrwt>
<pdfrwt beam="1">0</pdfrwt>
<pdfrwt beam="2">0</pdfrwt>
<totfact> 0.10243381E+12</totfact>
</mgrwt>
</event>
<event>
 4    2  0.1993797E+006  0.4336133E+01  0.7546771E-02  0.2217305E+00
         22   -1    0    0    0    0  0.00000000000E+00  0.00000000000E+00  0.10819784555E+02  0.10819784555E+02  0.00000000000E+00 0.  1.
         22   -1    0    0    0    0 -0.00000000000E+00 -0.00000000000E+00 -0.26297162410E+01  0.26297162410E+01  0.00000000000E+00 0. -1.
          4    1    1    2  501    0 -0.38867471702E+01  0.19223033337E+01  0.80115198100E+01  0.91096928235E+01  0.00000000000E+00 0.  1.
         -4    1    1    2    0  501  0.38867471702E+01 -0.19223033337E+01  0.17854850418E+00  0.43398079727E+01  0.00000000000E+00 0. -1.
<mgrwt>
<rscale>  0 0.43361335E+01</rscale>
<asrwt>0</asrwt>
<pdfrwt beam="1">0</pdfrwt>
<pdfrwt beam="2">0</pdfrwt>
<totfact> 0.47316210E+11</totfact>
</mgrwt>
</event>
<event>
 4    2  0.1993797E+006  0.2058969E+01  0.7546771E-02  0.2942026E+00
         22   -1    0    0    0    0  0.00000000000E+00  0.00000000000E+00  0.10743203530E+01  0.10743203530E+01  0.00000000000E+00 0.  1.
         22   -1    0    0    0    0 -0.00000000000E+00 -0.00000000000E+00 -0.77151281283E+01  0.77151281283E+01  0.00000000000E+00 0. -1.
          4    1    1    2  501    0  0.10281316970E+01  0.17838996429E+01 -0.24872388063E+00  0.20739373884E+01  0.00000000000E+00 0.  1.
         -4    1    1    2    0  501 -0.10281316970E+01 -0.17838996429E+01 -0.63920838947E+01  0.67155110929E+01  0.00000000000E+00 0. -1.
<mgrwt>
<rscale>  0 0.20589688E+01</rscale>
<asrwt>0</asrwt>
<pdfrwt beam="1">0</pdfrwt>
<pdfrwt beam="2">0</pdfrwt>
<totfact> 0.19984745E+12</totfact>
</mgrwt>
</event>
<event>
 4    2  0.1993797E+006  0.2155775E+01  0.7546771E-02  0.2882963E+00
         22   -1    0    0    0    0  0.00000000000E+00  0.00000000000E+00  0.19977870774E+01  0.19977870774E+01  0.00000000000E+00 0. -1.
         22   -1    0    0    0    0 -0.00000000000E+00 -0.00000000000E+00 -0.27165566861E+01  0.27165566861E+01  0.00000000000E+00 0.  1.
          4    1    1    2  501    0 -0.17113780463E+01  0.13109358098E+01 -0.12528560768E+01  0.24933944461E+01  0.00000000000E+00 0.  1.
         -4    1    1    2    0  501  0.17113780463E+01 -0.13109358098E+01  0.53408646810E+00  0.22209493173E+01  0.00000000000E+00 0. -1.
<mgrwt>
<rscale>  0 0.21557754E+01</rscale>
<asrwt>0</asrwt>
<pdfrwt beam="1">0</pdfrwt>
<pdfrwt beam="2">0</pdfrwt>
<totfact> 0.33610877E+12</totfact>
</mgrwt>
</event>
<event>
 4    2  0.1993797E+006  0.3761578E+01  0.7546771E-02  0.2325326E+00
         22   -1    0    0    0    0  0.00000000000E+00  0.00000000000E+00  0.62213213750E+01  0.62213213750E+01  0.00000000000E+00 0. -1.
         22   -1    0    0    0    0 -0.00000000000E+00 -0.00000000000E+00 -0.22743534087E+01  0.22743534087E+01  0.00000000000E+00 0.  1.
          4    1    1    2  501    0  0.11385512420E+01 -0.35851319225E+01  0.19693127611E+01  0.42458995023E+01  0.00000000000E+00 0.  1.
         -4    1    1    2    0  501 -0.11385512420E+01  0.35851319225E+01  0.19776552051E+01  0.42497752814E+01  0.00000000000E+00 0. -1.
<mgrwt>
<rscale>  0 0.37615781E+01</rscale>
<asrwt>0</asrwt>
<pdfrwt beam="1">0</pdfrwt>
<pdfrwt beam="2">0</pdfrwt>
<totfact> 0.10898207E+12</totfact>
</mgrwt>
</event>
<event>
 4    2  0.1993797E+006  0.4789165E+01  0.7546771E-02  0.2149044E+00
         22   -1    0    0    0    0  0.00000000000E+00  0.00000000000E+00  0.28875902898E+01  0.28875902898E+01  0.00000000000E+00 0.  1.
         22   -1    0    0    0    0 -0.00000000000E+00 -0.00000000000E+00 -0.12014652354E+02  0.12014652354E+02  0.00000000000E+00 0. -1.
          4    1    1    2  501    0  0.33740402791E+01 -0.33988165018E+01 -0.22590709265E+00  0.47944901118E+01  0.00000000000E+00 0.  1.
         -4    1    1    2    0  501 -0.33740402791E+01  0.33988165018E+01 -0.89011549714E+01  0.10107752532E+02  0.00000000000E+00 0. -1.
<mgrwt>
<rscale>  0 0.47891650E+01</rscale>
<asrwt>0</asrwt>
<pdfrwt beam="1">0</pdfrwt>
<pdfrwt beam="2">0</pdfrwt>
<totfact> 0.37349650E+11</totfact>
</mgrwt>
</event>
<event>
 4    2  0.1993797E+006  0.2745816E+01  0.7546771E-02  0.2609170E+00
         22   -1    0    0    0    0  0.00000000000E+00  0.00000000000E+00  0.21772895389E+02  0.21772895389E+02  0.00000000000E+00 0. -1.
         22   -1    0    0    0    0 -0.00000000000E+00 -0.00000000000E+00 -0.34821019553E+00  0.34821019553E+00  0.00000000000E+00 0.  1.
          4    1    1    2  501    0  0.25902322132E+01  0.91115313005E+00  0.11535979191E+02  0.11858259520E+02  0.00000000000E+00 0. -1.
         -4    1    1    2    0  501 -0.25902322132E+01 -0.91115313005E+00  0.98887060032E+01  0.10262846065E+02  0.00000000000E+00 0.  1.
<mgrwt>
<rscale>  0 0.27458155E+01</rscale>
<asrwt>0</asrwt>
<pdfrwt beam="1">0</pdfrwt>
<pdfrwt beam="2">0</pdfrwt>
<totfact> 0.20115708E+12</totfact>
</mgrwt>
</event>
<event>
 4    2  0.1993797E+006  0.2117313E+01  0.7546771E-02  0.2905803E+00
         22   -1    0    0    0    0  0.00000000000E+00  0.00000000000E+00  0.73052025354E+01  0.73052025354E+01  0.00000000000E+00 0.  1.
         22   -1    0    0    0    0 -0.00000000000E+00 -0.00000000000E+00 -0.63418559324E+00  0.63418559324E+00  0.00000000000E+00 0. -1.
          4    1    1    2  501    0  0.19820568445E+01  0.74462280265E+00  0.40494277998E+01  0.45695599306E+01  0.00000000000E+00 0.  1.
         -4    1    1    2    0  501 -0.19820568445E+01 -0.74462280265E+00  0.26215891423E+01  0.33698281981E+01  0.00000000000E+00 0. -1.
<mgrwt>
<rscale>  0 0.21173126E+01</rscale>
<asrwt>0</asrwt>
<pdfrwt beam="1">0</pdfrwt>
<pdfrwt beam="2">0</pdfrwt>
<totfact> 0.38877673E+12</totfact>
</mgrwt>
</event>
<event>
 4    2  0.1993797E+006  0.4441963E+01  0.7546771E-02  0.2200015E+00
         22   -1    0    0    0    0  0.00000000000E+00  0.00000000000E+00  0.33572284879E+01  0.33572284879E+01  0.00000000000E+00 0. -1.
         22   -1    0    0    0    0 -0.00000000000E+00 -0.00000000000E+00 -0.91517768053E+01  0.91517768053E+01  0.00000000000E+00 0.  1.
          4    1    1    2  501    0 -0.19376393199E+01  0.39970730496E+01  0.84399478451E+00  0.45214340970E+01  0.00000000000E+00 0. -1.
         -4    1    1    2    0  501  0.19376393199E+01 -0.39970730496E+01 -0.66385431019E+01  0.79875711961E+01  0.00000000000E+00 0.  1.
<mgrwt>
<rscale>  0 0.44419634E+01</rscale>
<asrwt>0</asrwt>
<pdfrwt beam="1">0</pdfrwt>
<pdfrwt beam="2">0</pdfrwt>
<totfact> 0.43567019E+11</totfact>
</mgrwt>
</event>
<event>
 4    2  0.1993797E+006  0.2088526E+01  0.7546771E-02  0.2923430E+00
         22   -1    0    0    0    0  0.00000000000E+00  0.00000000000E+00  0.13107035886E+02  0.13107035886E+02  0.00000000000E+00 0. -1.
         22   -1    0    0    0    0 -0.00000000000E+00 -0.00000000000E+00 -0.36908823343E+00  0.36908823343E+00  0.00000000000E+00 0.  1.
          4    1    1    2  501    0 -0.15149565021E+01  0.14376532239E+01  0.84819278485E+01  0.87352756123E+01  0.00000000000E+00 0. -1.
         -4    1    1    2    0  501  0.15149565021E+01 -0.14376532239E+01  0.42560198043E+01  0.47408485073E+01  0.00000000000E+00 0.  1.
<mgrwt>
<rscale>  0 0.20885258E+01</rscale>
<asrwt>0</asrwt>
<pdfrwt beam="1">0</pdfrwt>
<pdfrwt beam="2">0</pdfrwt>
<totfact> 0.35302992E+12</totfact>
</mgrwt>
</event>
<event>
 4    2  0.1993797E+006  0.2091025E+01  0.7546771E-02  0.2921881E+00
         22   -1    0    0    0    0  0.00000000000E+00  0.00000000000E+00  0.62632532343E+00  0.62632532343E+00  0.00000000000E+00 0. -1.
         22   -1    0    0    0    0 -0.00000000000E+00 -0.00000000000E+00 -0.81689651472E+01  0.81689651472E+01  0.00000000000E+00 0.  1.
          4    1    1    2  501    0 -0.17164193419E+01  0.11942743727E+01 -0.20943096053E+01  0.29594795755E+01  0.00000000000E+00 0. -1.
         -4    1    1    2    0  501  0.17164193419E+01 -0.11942743727E+01 -0.54483302185E+01  0.58358108952E+01  0.00000000000E+00 0.  1.
<mgrwt>
<rscale>  0 0.20910253E+01</rscale>
<asrwt>0</asrwt>
<pdfrwt beam="1">0</pdfrwt>
<pdfrwt beam="2">0</pdfrwt>
<totfact> 0.34481967E+12</totfact>
</mgrwt>
</event>
<event>
 4    2  0.1993797E+006  0.3056463E+01  0.7546771E-02  0.2504633E+00
         22   -1    0    0    0    0  0.00000000000E+00  0.00000000000E+00  0.39272117320E+00  0.39272117320E+00  0.00000000000E+00 0.  1.
         22   -1    0    0    0    0 -0.00000000000E+00 -0.00000000000E+00 -0.28439024219E+02  0.28439024219E+02  0.00000000000E+00 0. -1.
          4    1    1    2  501    0 -0.20719039079E+01 -0.22470378248E+01 -0.81931566341E+01  0.87447001333E+01  0.00000000000E+00 0.  1.
         -4    1    1    2    0  501  0.20719039079E+01  0.22470378248E+01 -0.19853146412E+02  0.20087045259E+02  0.00000000000E+00 0. -1.
<mgrwt>
<rscale>  0 0.30564628E+01</rscale>
<asrwt>0</asrwt>
<pdfrwt beam="1">0</pdfrwt>
<pdfrwt beam="2">0</pdfrwt>
<totfact> 0.12546036E+12</totfact>
</mgrwt>
</event>
<event>
 4    2  0.1993797E+006  0.2023417E+01  0.7546771E-02  0.2965096E+00
         22   -1    0    0    0    0  0.00000000000E+00  0.00000000000E+00  0.19048174580E+02  0.19048174580E+02  0.00000000000E+00 0. -1.
         22   -1    0    0    0    0 -0.00000000000E+00 -0.00000000000E+00 -0.35277037929E+00  0.35277037929E+00  0.00000000000E+00 0.  1.
          4    1    1    2  501    0  0.18754202191E+01  0.75961407746E+00  0.32842588706E+01  0.38575342998E+01  0.00000000000E+00 0.  1.
         -4    1    1    2    0  501 -0.18754202191E+01 -0.75961407746E+00  0.15411145330E+02  0.15543410660E+02  0.00000000000E+00 0. -1.
<mgrwt>
<rscale>  0 0.20234166E+01</rscale>
<asrwt>0</asrwt>
<pdfrwt beam="1">0</pdfrwt>
<pdfrwt beam="2">0</pdfrwt>
<totfact> 0.23421062E+12</totfact>
</mgrwt>
</event>
<event>
 4    2  0.1993797E+006  0.2232272E+01  0.7546771E-02  0.2839790E+00
         22   -1    0    0    0    0  0.00000000000E+00  0.00000000000E+00  0.38697472977E+00  0.38697472977E+00  0.00000000000E+00 0.  1.
         22   -1    0    0    0    0 -0.00000000000E+00 -0.00000000000E+00 -0.18549469088E+02  0.18549469088E+02  0.00000000000E+00 0. -1.
          4    1    1    2  501    0  0.12580962777E+01  0.18439718113E+01 -0.38453362738E+01  0.44463073829E+01  0.00000000000E+00 0.  1.
         -4    1    1    2    0  501 -0.12580962777E+01 -0.18439718113E+01 -0.14317158084E+02  0.14490136435E+02  0.00000000000E+00 0. -1.
<mgrwt>
<rscale>  0 0.22322720E+01</rscale>
<asrwt>0</asrwt>
<pdfrwt beam="1">0</pdfrwt>
<pdfrwt beam="2">0</pdfrwt>
<totfact> 0.21815653E+12</totfact>
</mgrwt>
</event>
<event>
 4    2  0.1993797E+006  0.2263580E+01  0.7546771E-02  0.2822925E+00
         22   -1    0    0    0    0  0.00000000000E+00  0.00000000000E+00  0.72397112528E+01  0.72397112528E+01  0.00000000000E+00 0. -1.
         22   -1    0    0    0    0 -0.00000000000E+00 -0.00000000000E+00 -0.75190623682E+00  0.75190623682E+00  0.00000000000E+00 0.  1.
          4    1    1    2  501    0  0.15285030428E+01  0.16695732355E+01  0.42123879717E+01  0.47820506862E+01  0.00000000000E+00 0. -1.
         -4    1    1    2    0  501 -0.15285030428E+01 -0.16695732355E+01  0.22754170443E+01  0.32095668035E+01  0.00000000000E+00 0.  1.
<mgrwt>
<rscale>  0 0.22635804E+01</rscale>
<asrwt>0</asrwt>
<pdfrwt beam="1">0</pdfrwt>
<pdfrwt beam="2">0</pdfrwt>
<totfact> 0.32394887E+12</totfact>
</mgrwt>
</event>
<event>
 4    2  0.1993797E+006  0.2436877E+01  0.7546771E-02  0.2737031E+00
         22   -1    0    0    0    0  0.00000000000E+00  0.00000000000E+00  0.11943365822E+02  0.11943365822E+02  0.00000000000E+00 0. -1.
         22   -1    0    0    0    0 -0.00000000000E+00 -0.00000000000E+00 -0.49839604843E+00  0.49839604843E+00  0.00000000000E+00 0.  1.
          4    1    1    2  501    0 -0.58210057204E+00  0.23663319410E+01  0.54190899605E+01  0.59417929895E+01  0.00000000000E+00 0.  1.
         -4    1    1    2    0  501  0.58210057204E+00 -0.23663319410E+01  0.60258798131E+01  0.64999688809E+01  0.00000000000E+00 0. -1.
<mgrwt>
<rscale>  0 0.24368767E+01</rscale>
<asrwt>0</asrwt>
<pdfrwt beam="1">0</pdfrwt>
<pdfrwt beam="2">0</pdfrwt>
<totfact> 0.28195355E+12</totfact>
</mgrwt>
</event>
<event>
 4    2  0.1993797E+006  0.2024292E+01  0.7546771E-02  0.2964518E+00
         22   -1    0    0    0    0  0.00000000000E+00  0.00000000000E+00  0.63105616047E+01  0.63105616047E+01  0.00000000000E+00 0. -1.
         22   -1    0    0    0    0 -0.00000000000E+00 -0.00000000000E+00 -0.10002356985E+01  0.10002356985E+01  0.00000000000E+00 0.  1.
          4    1    1    2  501    0 -0.20001177322E+01  0.31190963547E+00  0.48202076083E+01  0.52280168277E+01  0.00000000000E+00 0. -1.
         -4    1    1    2    0  501  0.20001177322E+01 -0.31190963547E+00  0.49011829798E+00  0.20827804756E+01  0.00000000000E+00 0.  1.
<mgrwt>
<rscale>  0 0.20242921E+01</rscale>
<asrwt>0</asrwt>
<pdfrwt beam="1">0</pdfrwt>
<pdfrwt beam="2">0</pdfrwt>
<totfact> 0.27576475E+12</totfact>
</mgrwt>
</event>
<event>
 4    2  0.1993797E+006  0.2564479E+01  0.7546771E-02  0.2680768E+00
         22   -1    0    0    0    0  0.00000000000E+00  0.00000000000E+00  0.32021403660E+01  0.32021403660E+01  0.00000000000E+00 0.  1.
         22   -1    0    0    0    0 -0.00000000000E+00 -0.00000000000E+00 -0.22965589480E+01  0.22965589480E+01  0.00000000000E+00 0. -1.
          4    1    1    2  501    0  0.13751173636E+01 -0.21646258209E+01  0.13466716712E+01  0.28965630148E+01  0.00000000000E+00 0.  1.
         -4    1    1    2    0  501 -0.13751173636E+01  0.21646258209E+01 -0.44109025326E+00  0.26021362993E+01  0.00000000000E+00 0. -1.
<mgrwt>
<rscale>  0 0.25644790E+01</rscale>
<asrwt>0</asrwt>
<pdfrwt beam="1">0</pdfrwt>
<pdfrwt beam="2">0</pdfrwt>
<totfact> 0.23601437E+12</totfact>
</mgrwt>
</event>
<event>
 4    2  0.1993797E+006  0.3833567E+01  0.7546771E-02  0.2310284E+00
         22   -1    0    0    0    0  0.00000000000E+00  0.00000000000E+00  0.59361030518E+01  0.59361030518E+01  0.00000000000E+00 0. -1.
         22   -1    0    0    0    0 -0.00000000000E+00 -0.00000000000E+00 -0.32246871714E+01  0.32246871714E+01  0.00000000000E+00 0.  1.
          4    1    1    2  501    0 -0.24757096085E+01 -0.29269605779E+01  0.35631296052E+01  0.52337490266E+01  0.00000000000E+00 0. -1.
         -4    1    1    2    0  501  0.24757096085E+01  0.29269605779E+01 -0.85171372486E+00  0.39270411966E+01  0.00000000000E+00 0.  1.
<mgrwt>
<rscale>  0 0.38335670E+01</rscale>
<asrwt>0</asrwt>
<pdfrwt beam="1">0</pdfrwt>
<pdfrwt beam="2">0</pdfrwt>
<totfact> 0.76721773E+11</totfact>
</mgrwt>
</event>
<event>
 4    2  0.1993797E+006  0.4567183E+01  0.7546771E-02  0.2180429E+00
         22   -1    0    0    0    0  0.00000000000E+00  0.00000000000E+00  0.12538543953E+01  0.12538543953E+01  0.00000000000E+00 0. -1.
         22   -1    0    0    0    0 -0.00000000000E+00 -0.00000000000E+00 -0.19504015775E+02  0.19504015775E+02  0.00000000000E+00 0.  1.
          4    1    1    2  501    0  0.45591343637E+01 -0.27103094579E+00 -0.51451180483E+01  0.68797822386E+01  0.00000000000E+00 0. -1.
         -4    1    1    2    0  501 -0.45591343637E+01  0.27103094579E+00 -0.13105043332E+02  0.13878087932E+02  0.00000000000E+00 0.  1.
<mgrwt>
<rscale>  0 0.45671834E+01</rscale>
<asrwt>0</asrwt>
<pdfrwt beam="1">0</pdfrwt>
<pdfrwt beam="2">0</pdfrwt>
<totfact> 0.53955920E+11</totfact>
</mgrwt>
</event>
<event>
 4    2  0.1993797E+006  0.2086287E+01  0.7546771E-02  0.2924821E+00
         22   -1    0    0    0    0  0.00000000000E+00  0.00000000000E+00  0.17052560120E+00  0.17052560120E+00  0.00000000000E+00 0. -1.
         22   -1    0    0    0    0 -0.00000000000E+00 -0.00000000000E+00 -0.30004048012E+02  0.30004048012E+02  0.00000000000E+00 0.  1.
          4    1    1    2  501    0  0.80856427349E+00 -0.19232306491E+01 -0.20746311036E+02  0.20850947554E+02  0.00000000000E+00 0.  1.
         -4    1    1    2    0  501 -0.80856427349E+00  0.19232306491E+01 -0.90872113749E+01  0.93236260589E+01  0.00000000000E+00 0. -1.
<mgrwt>
<rscale>  0 0.20862867E+01</rscale>
<asrwt>0</asrwt>
<pdfrwt beam="1">0</pdfrwt>
<pdfrwt beam="2">0</pdfrwt>
<totfact> 0.29808419E+12</totfact>
</mgrwt>
</event>
<event>
 4    2  0.1993797E+006  0.2570873E+01  0.7546771E-02  0.2678085E+00
         22   -1    0    0    0    0  0.00000000000E+00  0.00000000000E+00  0.25426460354E+00  0.25426460354E+00  0.00000000000E+00 0. -1.
         22   -1    0    0    0    0 -0.00000000000E+00 -0.00000000000E+00 -0.44187943159E+02  0.44187943159E+02  0.00000000000E+00 0.  1.
          4    1    1    2  501    0 -0.14943487291E+01  0.20919637679E+01 -0.77082866393E+01  0.81257044891E+01  0.00000000000E+00 0. -1.
         -4    1    1    2    0  501  0.14943487291E+01 -0.20919637679E+01 -0.36225391917E+02  0.36316503274E+02  0.00000000000E+00 0.  1.
<mgrwt>
<rscale>  0 0.25708735E+01</rscale>
<asrwt>0</asrwt>
<pdfrwt beam="1">0</pdfrwt>
<pdfrwt beam="2">0</pdfrwt>
<totfact> 0.11583608E+12</totfact>
</mgrwt>
</event>
<event>
 4    2  0.1993797E+006  0.4532615E+01  0.7546771E-02  0.2185745E+00
         22   -1    0    0    0    0  0.00000000000E+00  0.00000000000E+00  0.79293498839E+01  0.79293498839E+01  0.00000000000E+00 0.  1.
         22   -1    0    0    0    0 -0.00000000000E+00 -0.00000000000E+00 -0.29641301709E+01  0.29641301709E+01  0.00000000000E+00 0. -1.
          4    1    1    2  501    0  0.38527696308E+01  0.23876280115E+01  0.44152164414E+01  0.63276170534E+01  0.00000000000E+00 0.  1.
         -4    1    1    2    0  501 -0.38527696308E+01 -0.23876280115E+01  0.55000327162E+00  0.45658630014E+01  0.00000000000E+00 0. -1.
<mgrwt>
<rscale>  0 0.45326153E+01</rscale>
<asrwt>0</asrwt>
<pdfrwt beam="1">0</pdfrwt>
<pdfrwt beam="2">0</pdfrwt>
<totfact> 0.59894494E+11</totfact>
</mgrwt>
</event>
<event>
 4    2  0.1993797E+006  0.2337265E+01  0.7546771E-02  0.2784934E+00
         22   -1    0    0    0    0  0.00000000000E+00  0.00000000000E+00  0.27376326224E+01  0.27376326224E+01  0.00000000000E+00 0. -1.
         22   -1    0    0    0    0 -0.00000000000E+00 -0.00000000000E+00 -0.33895572042E+01  0.33895572042E+01  0.00000000000E+00 0.  1.
          4    1    1    2  501    0  0.22800027682E+01 -0.51419439078E+00  0.16387907577E+01  0.28545478875E+01  0.00000000000E+00 0. -1.
         -4    1    1    2    0  501 -0.22800027682E+01  0.51419439078E+00 -0.22907153395E+01  0.32726419391E+01  0.00000000000E+00 0.  1.
<mgrwt>
<rscale>  0 0.23372652E+01</rscale>
<asrwt>0</asrwt>
<pdfrwt beam="1">0</pdfrwt>
<pdfrwt beam="2">0</pdfrwt>
<totfact> 0.17999073E+12</totfact>
</mgrwt>
</event>
<event>
 4    2  0.1993797E+006  0.3578514E+01  0.7546771E-02  0.2365915E+00
         22   -1    0    0    0    0  0.00000000000E+00  0.00000000000E+00  0.64730288227E+01  0.64730288227E+01  0.00000000000E+00 0.  1.
         22   -1    0    0    0    0 -0.00000000000E+00 -0.00000000000E+00 -0.25572315769E+01  0.25572315769E+01  0.00000000000E+00 0. -1.
          4    1    1    2  501    0 -0.30676538818E+01  0.18426243346E+01  0.41061688497E+01  0.54466859097E+01  0.00000000000E+00 0.  1.
         -4    1    1    2    0  501  0.30676538818E+01 -0.18426243346E+01 -0.19037160386E+00  0.35835744899E+01  0.00000000000E+00 0. -1.
<mgrwt>
<rscale>  0 0.35785143E+01</rscale>
<asrwt>0</asrwt>
<pdfrwt beam="1">0</pdfrwt>
<pdfrwt beam="2">0</pdfrwt>
<totfact> 0.90707482E+11</totfact>
</mgrwt>
</event>
<event>
 4    2  0.1993797E+006  0.2475036E+01  0.7546771E-02  0.2719639E+00
         22   -1    0    0    0    0  0.00000000000E+00  0.00000000000E+00  0.88956922891E+00  0.88956922891E+00  0.00000000000E+00 0.  1.
         22   -1    0    0    0    0 -0.00000000000E+00 -0.00000000000E+00 -0.17383819388E+02  0.17383819388E+02  0.00000000000E+00 0. -1.
          4    1    1    2  501    0 -0.24326368885E+01 -0.45615910990E+00 -0.11470866030E+01  0.27279316413E+01  0.00000000000E+00 0.  1.
         -4    1    1    2    0  501  0.24326368885E+01  0.45615910990E+00 -0.15347163556E+02  0.15545456975E+02  0.00000000000E+00 0. -1.
<mgrwt>
<rscale>  0 0.24750360E+01</rscale>
<asrwt>0</asrwt>
<pdfrwt beam="1">0</pdfrwt>
<pdfrwt beam="2">0</pdfrwt>
<totfact> 0.92150758E+11</totfact>
</mgrwt>
</event>
<event>
 4    2  0.1993797E+006  0.2470234E+01  0.7546771E-02  0.2721800E+00
         22   -1    0    0    0    0  0.00000000000E+00  0.00000000000E+00  0.33217150814E+01  0.33217150814E+01  0.00000000000E+00 0.  1.
         22   -1    0    0    0    0 -0.00000000000E+00 -0.00000000000E+00 -0.23767549944E+01  0.23767549944E+01  0.00000000000E+00 0. -1.
          4    1    1    2  501    0 -0.96819345572E+00  0.22725882551E+01  0.18302509223E+01  0.30743900832E+01  0.00000000000E+00 0. -1.
         -4    1    1    2    0  501  0.96819345572E+00 -0.22725882551E+01 -0.88529083527E+00  0.26240799927E+01  0.00000000000E+00 0.  1.
<mgrwt>
<rscale>  0 0.24702340E+01</rscale>
<asrwt>0</asrwt>
<pdfrwt beam="1">0</pdfrwt>
<pdfrwt beam="2">0</pdfrwt>
<totfact> 0.21726234E+12</totfact>
</mgrwt>
</event>
<event>
 4    2  0.1993797E+006  0.2579575E+01  0.7546771E-02  0.2674455E+00
         22   -1    0    0    0    0  0.00000000000E+00  0.00000000000E+00  0.66600416859E+00  0.66600416859E+00  0.00000000000E+00 0. -1.
         22   -1    0    0    0    0 -0.00000000000E+00 -0.00000000000E+00 -0.14731358213E+02  0.14731358213E+02  0.00000000000E+00 0.  1.
          4    1    1    2  501    0 -0.16790080132E+01  0.19583506103E+01 -0.26656116155E+01  0.37094056540E+01  0.00000000000E+00 0. -1.
         -4    1    1    2    0  501  0.16790080132E+01 -0.19583506103E+01 -0.11399742429E+02  0.11687956728E+02  0.00000000000E+00 0.  1.
<mgrwt>
<rscale>  0 0.25795746E+01</rscale>
<asrwt>0</asrwt>
<pdfrwt beam="1">0</pdfrwt>
<pdfrwt beam="2">0</pdfrwt>
<totfact> 0.15709048E+12</totfact>
</mgrwt>
</event>
<event>
 4    2  0.1993797E+006  0.2134500E+01  0.7546771E-02  0.2895498E+00
         22   -1    0    0    0    0  0.00000000000E+00  0.00000000000E+00  0.20108234673E+02  0.20108234673E+02  0.00000000000E+00 0.  1.
         22   -1    0    0    0    0 -0.00000000000E+00 -0.00000000000E+00 -0.17969346869E+01  0.17969346869E+01  0.00000000000E+00 0. -1.
          4    1    1    2  501    0 -0.12373340754E+01  0.17392804534E+01  0.19394462001E+02  0.19511567041E+02  0.00000000000E+00 0.  1.
         -4    1    1    2    0  501  0.12373340754E+01 -0.17392804534E+01 -0.10831620146E+01  0.23936023186E+01  0.00000000000E+00 0. -1.
<mgrwt>
<rscale>  0 0.21345004E+01</rscale>
<asrwt>0</asrwt>
<pdfrwt beam="1">0</pdfrwt>
<pdfrwt beam="2">0</pdfrwt>
<totfact> 0.34327932E+11</totfact>
</mgrwt>
</event>
<event>
 4    2  0.1993797E+006  0.3525666E+01  0.7546771E-02  0.2378309E+00
         22   -1    0    0    0    0  0.00000000000E+00  0.00000000000E+00  0.22346748720E+01  0.22346748720E+01  0.00000000000E+00 0. -1.
         22   -1    0    0    0    0 -0.00000000000E+00 -0.00000000000E+00 -0.19031580717E+02  0.19031580717E+02  0.00000000000E+00 0.  1.
          4    1    1    2  501    0  0.30274158062E+01  0.18069520629E+01  0.54680752967E+00  0.35678173573E+01  0.00000000000E+00 0. -1.
         -4    1    1    2    0  501 -0.30274158062E+01 -0.18069520629E+01 -0.17343713375E+02  0.17698438232E+02  0.00000000000E+00 0.  1.
<mgrwt>
<rscale>  0 0.35256662E+01</rscale>
<asrwt>0</asrwt>
<pdfrwt beam="1">0</pdfrwt>
<pdfrwt beam="2">0</pdfrwt>
<totfact> 0.28566904E+11</totfact>
</mgrwt>
</event>
<event>
 4    2  0.1993797E+006  0.2883988E+01  0.7546771E-02  0.2560162E+00
         22   -1    0    0    0    0  0.00000000000E+00  0.00000000000E+00  0.48275870548E+01  0.48275870548E+01  0.00000000000E+00 0.  1.
         22   -1    0    0    0    0 -0.00000000000E+00 -0.00000000000E+00 -0.41242879941E+01  0.41242879941E+01  0.00000000000E+00 0. -1.
          4    1    1    2  501    0 -0.10147714114E+01  0.26995602802E+01  0.37670518717E+01  0.47442667008E+01  0.00000000000E+00 0.  1.
         -4    1    1    2    0  501  0.10147714114E+01 -0.26995602802E+01 -0.30637528110E+01  0.42076083481E+01  0.00000000000E+00 0. -1.
<mgrwt>
<rscale>  0 0.28839880E+01</rscale>
<asrwt>0</asrwt>
<pdfrwt beam="1">0</pdfrwt>
<pdfrwt beam="2">0</pdfrwt>
<totfact> 0.73446000E+11</totfact>
</mgrwt>
</event>
<event>
 4    2  0.1993797E+006  0.2121847E+01  0.7546771E-02  0.2903069E+00
         22   -1    0    0    0    0  0.00000000000E+00  0.00000000000E+00  0.25110365131E+02  0.25110365131E+02  0.00000000000E+00 0. -1.
         22   -1    0    0    0    0 -0.00000000000E+00 -0.00000000000E+00 -0.53259591716E+00  0.53259591716E+00  0.00000000000E+00 0.  1.
          4    1    1    2  501    0 -0.16679065124E+01  0.13116111555E+01  0.22731513758E+02  0.22830329689E+02  0.00000000000E+00 0. -1.
         -4    1    1    2    0  501  0.16679065124E+01 -0.13116111555E+01  0.18462554560E+01  0.28126313598E+01  0.00000000000E+00 0.  1.
<mgrwt>
<rscale>  0 0.21218473E+01</rscale>
<asrwt>0</asrwt>
<pdfrwt beam="1">0</pdfrwt>
<pdfrwt beam="2">0</pdfrwt>
<totfact> 0.10415689E+12</totfact>
</mgrwt>
</event>
<event>
 4    2  0.1993797E+006  0.2030067E+01  0.7546771E-02  0.2960720E+00
         22   -1    0    0    0    0  0.00000000000E+00  0.00000000000E+00  0.11794720697E+01  0.11794720697E+01  0.00000000000E+00 0.  1.
         22   -1    0    0    0    0 -0.00000000000E+00 -0.00000000000E+00 -0.35051707339E+01  0.35051707339E+01  0.00000000000E+00 0. -1.
          4    1    1    2  501    0  0.20057731578E+01 -0.31312440772E+00 -0.12945902869E+01  0.24077244166E+01  0.00000000000E+00 0. -1.
         -4    1    1    2    0  501 -0.20057731578E+01  0.31312440772E+00 -0.10311083773E+01  0.22769183870E+01  0.00000000000E+00 0.  1.
<mgrwt>
<rscale>  0 0.20300672E+01</rscale>
<asrwt>0</asrwt>
<pdfrwt beam="1">0</pdfrwt>
<pdfrwt beam="2">0</pdfrwt>
<totfact> 0.45765600E+12</totfact>
</mgrwt>
</event>
<event>
 4    2  0.1993797E+006  0.2353214E+01  0.7546771E-02  0.2777007E+00
         22   -1    0    0    0    0  0.00000000000E+00  0.00000000000E+00  0.12891992265E+01  0.12891992265E+01  0.00000000000E+00 0. -1.
         22   -1    0    0    0    0 -0.00000000000E+00 -0.00000000000E+00 -0.43067879502E+01  0.43067879502E+01  0.00000000000E+00 0.  1.
          4    1    1    2  501    0 -0.22910975326E+01 -0.53711128096E+00 -0.13648682791E+01  0.27203826663E+01  0.00000000000E+00 0. -1.
         -4    1    1    2    0  501  0.22910975326E+01  0.53711128096E+00 -0.16527204446E+01  0.28756045104E+01  0.00000000000E+00 0.  1.
<mgrwt>
<rscale>  0 0.23532141E+01</rscale>
<asrwt>0</asrwt>
<pdfrwt beam="1">0</pdfrwt>
<pdfrwt beam="2">0</pdfrwt>
<totfact> 0.32442149E+12</totfact>
</mgrwt>
</event>
<event>
 4    2  0.1993797E+006  0.2200352E+01  0.7546771E-02  0.2857455E+00
         22   -1    0    0    0    0  0.00000000000E+00  0.00000000000E+00  0.13245238817E+01  0.13245238817E+01  0.00000000000E+00 0.  1.
         22   -1    0    0    0    0 -0.00000000000E+00 -0.00000000000E+00 -0.37176192090E+01  0.37176192090E+01  0.00000000000E+00 0. -1.
          4    1    1    2  501    0 -0.10208225129E+01  0.19492226426E+01 -0.87016787917E+00  0.23661656010E+01  0.00000000000E+00 0. -1.
         -4    1    1    2    0  501  0.10208225129E+01 -0.19492226426E+01 -0.15229274481E+01  0.26759774897E+01  0.00000000000E+00 0.  1.
<mgrwt>
<rscale>  0 0.22003517E+01</rscale>
<asrwt>0</asrwt>
<pdfrwt beam="1">0</pdfrwt>
<pdfrwt beam="2">0</pdfrwt>
<totfact> 0.37394626E+12</totfact>
</mgrwt>
</event>
<event>
 4    2  0.1993797E+006  0.2410489E+01  0.7546771E-02  0.2749358E+00
         22   -1    0    0    0    0  0.00000000000E+00  0.00000000000E+00  0.19630933371E+01  0.19630933371E+01  0.00000000000E+00 0. -1.
         22   -1    0    0    0    0 -0.00000000000E+00 -0.00000000000E+00 -0.94129843610E+01  0.94129843610E+01  0.00000000000E+00 0.  1.
          4    1    1    2  501    0 -0.23946581325E+01  0.27580653742E+00  0.98465776348E+00  0.26038447974E+01  0.00000000000E+00 0. -1.
         -4    1    1    2    0  501  0.23946581325E+01 -0.27580653742E+00 -0.84345487874E+01  0.87722329007E+01  0.00000000000E+00 0.  1.
<mgrwt>
<rscale>  0 0.24104889E+01</rscale>
<asrwt>0</asrwt>
<pdfrwt beam="1">0</pdfrwt>
<pdfrwt beam="2">0</pdfrwt>
<totfact> 0.78639297E+11</totfact>
</mgrwt>
</event>
<event>
 4    2  0.1993797E+006  0.3891854E+01  0.7546771E-02  0.2298456E+00
         22   -1    0    0    0    0  0.00000000000E+00  0.00000000000E+00  0.47433690320E+02  0.47433690320E+02  0.00000000000E+00 0.  1.
         22   -1    0    0    0    0 -0.00000000000E+00 -0.00000000000E+00 -0.57036736811E+00  0.57036736811E+00  0.00000000000E+00 0. -1.
          4    1    1    2  501    0  0.32814103390E+01 -0.20925766304E+01  0.39355522086E+02  0.39547486006E+02  0.00000000000E+00 0.  1.
         -4    1    1    2    0  501 -0.32814103390E+01  0.20925766304E+01  0.75078008667E+01  0.84565716824E+01  0.00000000000E+00 0. -1.
<mgrwt>
<rscale>  0 0.38918544E+01</rscale>
<asrwt>0</asrwt>
<pdfrwt beam="1">0</pdfrwt>
<pdfrwt beam="2">0</pdfrwt>
<totfact> 0.42541459E+11</totfact>
</mgrwt>
</event>
<event>
 4    2  0.1993797E+006  0.2605307E+01  0.7546771E-02  0.2663848E+00
         22   -1    0    0    0    0  0.00000000000E+00  0.00000000000E+00  0.53883579285E+00  0.53883579285E+00  0.00000000000E+00 0. -1.
         22   -1    0    0    0    0 -0.00000000000E+00 -0.00000000000E+00 -0.14888155899E+02  0.14888155899E+02  0.00000000000E+00 0.  1.
          4    1    1    2  501    0  0.26043086336E+01  0.72131925749E-01 -0.41486274971E+01  0.48988505370E+01  0.00000000000E+00 0. -1.
         -4    1    1    2    0  501 -0.26043086336E+01 -0.72131925749E-01 -0.10200692609E+02  0.10528141155E+02  0.00000000000E+00 0.  1.
<mgrwt>
<rscale>  0 0.26053074E+01</rscale>
<asrwt>0</asrwt>
<pdfrwt beam="1">0</pdfrwt>
<pdfrwt beam="2">0</pdfrwt>
<totfact> 0.19710324E+12</totfact>
</mgrwt>
</event>
<event>
 4    2  0.1993797E+006  0.2115713E+01  0.7546771E-02  0.2906771E+00
         22   -1    0    0    0    0  0.00000000000E+00  0.00000000000E+00  0.14281322144E+01  0.14281322144E+01  0.00000000000E+00 0.  1.
         22   -1    0    0    0    0 -0.00000000000E+00 -0.00000000000E+00 -0.32472276226E+01  0.32472276226E+01  0.00000000000E+00 0. -1.
          4    1    1    2  501    0 -0.19370610552E+01  0.85090222085E+00 -0.47366690206E+00  0.21680868191E+01  0.00000000000E+00 0. -1.
         -4    1    1    2    0  501  0.19370610552E+01 -0.85090222085E+00 -0.13454285061E+01  0.25072730178E+01  0.00000000000E+00 0.  1.
<mgrwt>
<rscale>  0 0.21157127E+01</rscale>
<asrwt>0</asrwt>
<pdfrwt beam="1">0</pdfrwt>
<pdfrwt beam="2">0</pdfrwt>
<totfact> 0.40189588E+12</totfact>
</mgrwt>
</event>
<event>
 4    2  0.1993797E+006  0.2405228E+01  0.7546771E-02  0.2751846E+00
         22   -1    0    0    0    0  0.00000000000E+00  0.00000000000E+00  0.10610374293E+02  0.10610374293E+02  0.00000000000E+00 0. -1.
         22   -1    0    0    0    0 -0.00000000000E+00 -0.00000000000E+00 -0.72616257835E+00  0.72616257835E+00  0.00000000000E+00 0.  1.
          4    1    1    2  501    0  0.20194800988E+01 -0.13064539000E+01  0.77714695524E+01  0.81351619938E+01  0.00000000000E+00 0. -1.
         -4    1    1    2    0  501 -0.20194800988E+01  0.13064539000E+01  0.21127421621E+01  0.32013748774E+01  0.00000000000E+00 0.  1.
<mgrwt>
<rscale>  0 0.24052280E+01</rscale>
<asrwt>0</asrwt>
<pdfrwt beam="1">0</pdfrwt>
<pdfrwt beam="2">0</pdfrwt>
<totfact> 0.21260959E+12</totfact>
</mgrwt>
</event>
<event>
 4    2  0.1993797E+006  0.2055498E+01  0.7546771E-02  0.2944244E+00
         22   -1    0    0    0    0  0.00000000000E+00  0.00000000000E+00  0.30035683646E+00  0.30035683646E+00  0.00000000000E+00 0.  1.
         22   -1    0    0    0    0 -0.00000000000E+00 -0.00000000000E+00 -0.15317656498E+02  0.15317656498E+02  0.00000000000E+00 0. -1.
          4    1    1    2  501    0  0.19973311200E+01  0.48553056596E+00 -0.52771521128E+01  0.56633387639E+01  0.00000000000E+00 0.  1.
         -4    1    1    2    0  501 -0.19973311200E+01 -0.48553056596E+00 -0.97401475486E+01  0.99546745704E+01  0.00000000000E+00 0. -1.
<mgrwt>
<rscale>  0 0.20554979E+01</rscale>
<asrwt>0</asrwt>
<pdfrwt beam="1">0</pdfrwt>
<pdfrwt beam="2">0</pdfrwt>
<totfact> 0.36744430E+12</totfact>
</mgrwt>
</event>
<event>
 4    2  0.1993797E+006  0.3431115E+01  0.7546771E-02  0.2401312E+00
         22   -1    0    0    0    0  0.00000000000E+00  0.00000000000E+00  0.61406983123E+01  0.61406983123E+01  0.00000000000E+00 0.  1.
         22   -1    0    0    0    0 -0.00000000000E+00 -0.00000000000E+00 -0.19227800180E+01  0.19227800180E+01  0.00000000000E+00 0. -1.
          4    1    1    2  501    0 -0.20802519807E+01 -0.27285715101E+01  0.23274034317E+01  0.41460050076E+01  0.00000000000E+00 0. -1.
         -4    1    1    2    0  501  0.20802519807E+01  0.27285715101E+01  0.18905148625E+01  0.39174733227E+01  0.00000000000E+00 0.  1.
<mgrwt>
<rscale>  0 0.34311151E+01</rscale>
<asrwt>0</asrwt>
<pdfrwt beam="1">0</pdfrwt>
<pdfrwt beam="2">0</pdfrwt>
<totfact> 0.13446112E+12</totfact>
</mgrwt>
</event>
<event>
 4    2  0.1993797E+006  0.2016305E+01  0.7546771E-02  0.2969806E+00
         22   -1    0    0    0    0  0.00000000000E+00  0.00000000000E+00  0.12850582467E+02  0.12850582467E+02  0.00000000000E+00 0. -1.
         22   -1    0    0    0    0 -0.00000000000E+00 -0.00000000000E+00 -0.28697766878E+01  0.28697766878E+01  0.00000000000E+00 0.  1.
          4    1    1    2  501    0 -0.18391762536E+01  0.82638721811E+00  0.12404679206E+02  0.12567479912E+02  0.00000000000E+00 0. -1.
         -4    1    1    2    0  501  0.18391762536E+01 -0.82638721811E+00 -0.24238734274E+01  0.31528792426E+01  0.00000000000E+00 0.  1.
<mgrwt>
<rscale>  0 0.20163048E+01</rscale>
<asrwt>0</asrwt>
<pdfrwt beam="1">0</pdfrwt>
<pdfrwt beam="2">0</pdfrwt>
<totfact> 0.34649325E+11</totfact>
</mgrwt>
</event>
<event>
 4    2  0.1993797E+006  0.2035370E+01  0.7546771E-02  0.2957251E+00
         22   -1    0    0    0    0  0.00000000000E+00  0.00000000000E+00  0.33258119403E+02  0.33258119403E+02  0.00000000000E+00 0. -1.
         22   -1    0    0    0    0 -0.00000000000E+00 -0.00000000000E+00 -0.20090930373E+00  0.20090930373E+00  0.00000000000E+00 0.  1.
          4    1    1    2  501    0  0.10121584395E+01 -0.17658615589E+01  0.26841420927E+02  0.26918480811E+02  0.00000000000E+00 0. -1.
         -4    1    1    2    0  501 -0.10121584395E+01  0.17658615589E+01  0.62157891721E+01  0.65405478963E+01  0.00000000000E+00 0.  1.
<mgrwt>
<rscale>  0 0.20353702E+01</rscale>
<asrwt>0</asrwt>
<pdfrwt beam="1">0</pdfrwt>
<pdfrwt beam="2">0</pdfrwt>
<totfact> 0.21766967E+12</totfact>
</mgrwt>
</event>
<event>
 4    2  0.1993797E+006  0.2907181E+01  0.7546771E-02  0.2552351E+00
         22   -1    0    0    0    0  0.00000000000E+00  0.00000000000E+00  0.52374139764E+01  0.52374139764E+01  0.00000000000E+00 0. -1.
         22   -1    0    0    0    0 -0.00000000000E+00 -0.00000000000E+00 -0.16237704729E+01  0.16237704729E+01  0.00000000000E+00 0.  1.
          4    1    1    2  501    0 -0.10439743011E+01 -0.27132675266E+01  0.15368807934E+01  0.32884199222E+01  0.00000000000E+00 0. -1.
         -4    1    1    2    0  501  0.10439743011E+01  0.27132675266E+01  0.20767627101E+01  0.35727645271E+01  0.00000000000E+00 0.  1.
<mgrwt>
<rscale>  0 0.29071813E+01</rscale>
<asrwt>0</asrwt>
<pdfrwt beam="1">0</pdfrwt>
<pdfrwt beam="2">0</pdfrwt>
<totfact> 0.19744848E+12</totfact>
</mgrwt>
</event>
<event>
 4    2  0.1993797E+006  0.8559325E+01  0.7546771E-02  0.1845589E+00
         22   -1    0    0    0    0  0.00000000000E+00  0.00000000000E+00  0.24042083193E+02  0.24042083193E+02  0.00000000000E+00 0.  1.
         22   -1    0    0    0    0 -0.00000000000E+00 -0.00000000000E+00 -0.33817166674E+01  0.33817166674E+01  0.00000000000E+00 0. -1.
          4    1    1    2  501    0 -0.39689951503E+01  0.75834767501E+01  0.14642500846E+02  0.16960686105E+02  0.00000000000E+00 0. -1.
         -4    1    1    2    0  501  0.39689951503E+01 -0.75834767501E+01  0.60178656793E+01  0.10463113755E+02  0.00000000000E+00 0.  1.
<mgrwt>
<rscale>  0 0.85593249E+01</rscale>
<asrwt>0</asrwt>
<pdfrwt beam="1">0</pdfrwt>
<pdfrwt beam="2">0</pdfrwt>
<totfact> 0.13155658E+11</totfact>
</mgrwt>
</event>
<event>
 4    2  0.1993797E+006  0.4390321E+01  0.7546771E-02  0.2208364E+00
         22   -1    0    0    0    0  0.00000000000E+00  0.00000000000E+00  0.11808718912E+01  0.11808718912E+01  0.00000000000E+00 0. -1.
         22   -1    0    0    0    0 -0.00000000000E+00 -0.00000000000E+00 -0.22575524064E+02  0.22575524064E+02  0.00000000000E+00 0.  1.
          4    1    1    2  501    0  0.38380103903E+01 -0.21318056723E+01 -0.44459930167E+01  0.62483416268E+01  0.00000000000E+00 0. -1.
         -4    1    1    2    0  501 -0.38380103903E+01  0.21318056723E+01 -0.16948659156E+02  0.17508054329E+02  0.00000000000E+00 0.  1.
<mgrwt>
<rscale>  0 0.43903211E+01</rscale>
<asrwt>0</asrwt>
<pdfrwt beam="1">0</pdfrwt>
<pdfrwt beam="2">0</pdfrwt>
<totfact> 0.48138944E+11</totfact>
</mgrwt>
</event>
<event>
 4    2  0.1993797E+006  0.2778019E+01  0.7546771E-02  0.2597352E+00
         22   -1    0    0    0    0  0.00000000000E+00  0.00000000000E+00  0.75471985184E+00  0.75471985184E+00  0.00000000000E+00 0. -1.
         22   -1    0    0    0    0 -0.00000000000E+00 -0.00000000000E+00 -0.10452667030E+02  0.10452667030E+02  0.00000000000E+00 0.  1.
          4    1    1    2  501    0 -0.19122104041E+01  0.20151525548E+01 -0.56750737292E+01  0.63185322885E+01  0.00000000000E+00 0.  1.
         -4    1    1    2    0  501  0.19122104041E+01 -0.20151525548E+01 -0.40228734493E+01  0.48888545936E+01  0.00000000000E+00 0. -1.
<mgrwt>
<rscale>  0 0.27780188E+01</rscale>
<asrwt>0</asrwt>
<pdfrwt beam="1">0</pdfrwt>
<pdfrwt beam="2">0</pdfrwt>
<totfact> 0.20722929E+12</totfact>
</mgrwt>
</event>
<event>
 4    2  0.1993797E+006  0.2284282E+01  0.7546771E-02  0.2812017E+00
         22   -1    0    0    0    0  0.00000000000E+00  0.00000000000E+00  0.20885561183E+02  0.20885561183E+02  0.00000000000E+00 0. -1.
         22   -1    0    0    0    0 -0.00000000000E+00 -0.00000000000E+00 -0.25036851335E+00  0.25036851335E+00  0.00000000000E+00 0.  1.
          4    1    1    2  501    0  0.22509437357E+01 -0.38883884174E+00  0.10805450892E+02  0.11044261511E+02  0.00000000000E+00 0. -1.
         -4    1    1    2    0  501 -0.22509437357E+01  0.38883884174E+00  0.98297417775E+01  0.10091668185E+02  0.00000000000E+00 0.  1.
<mgrwt>
<rscale>  0 0.22842818E+01</rscale>
<asrwt>0</asrwt>
<pdfrwt beam="1">0</pdfrwt>
<pdfrwt beam="2">0</pdfrwt>
<totfact> 0.30670523E+12</totfact>
</mgrwt>
</event>
<event>
 4    2  0.1993797E+006  0.3969819E+01  0.7546771E-02  0.2283101E+00
         22   -1    0    0    0    0  0.00000000000E+00  0.00000000000E+00  0.20891232859E+01  0.20891232859E+01  0.00000000000E+00 0.  1.
         22   -1    0    0    0    0 -0.00000000000E+00 -0.00000000000E+00 -0.93051428159E+01  0.93051428159E+01  0.00000000000E+00 0. -1.
          4    1    1    2  501    0 -0.35666300180E+01 -0.17431616696E+01 -0.11291938140E+01  0.41272922069E+01  0.00000000000E+00 0.  1.
         -4    1    1    2    0  501  0.35666300180E+01  0.17431616696E+01 -0.60868257160E+01  0.72669738949E+01  0.00000000000E+00 0. -1.
<mgrwt>
<rscale>  0 0.39698189E+01</rscale>
<asrwt>0</asrwt>
<pdfrwt beam="1">0</pdfrwt>
<pdfrwt beam="2">0</pdfrwt>
<totfact> 0.74201944E+11</totfact>
</mgrwt>
</event>
<event>
 4    2  0.1993797E+006  0.3221317E+01  0.7546771E-02  0.2456553E+00
         22   -1    0    0    0    0  0.00000000000E+00  0.00000000000E+00  0.20467660167E+02  0.20467660167E+02  0.00000000000E+00 0. -1.
         22   -1    0    0    0    0 -0.00000000000E+00 -0.00000000000E+00 -0.12721931357E+01  0.12721931357E+01  0.00000000000E+00 0.  1.
          4    1    1    2  501    0 -0.27299665924E+01  0.17100193903E+01  0.18027948882E+02  0.18313487511E+02  0.00000000000E+00 0. -1.
         -4    1    1    2    0  501  0.27299665924E+01 -0.17100193903E+01  0.11675181490E+01  0.34263657918E+01  0.00000000000E+00 0.  1.
<mgrwt>
<rscale>  0 0.32213171E+01</rscale>
<asrwt>0</asrwt>
<pdfrwt beam="1">0</pdfrwt>
<pdfrwt beam="2">0</pdfrwt>
<totfact> 0.49967705E+11</totfact>
</mgrwt>
</event>
<event>
 4    2  0.1993797E+006  0.2416132E+01  0.7546771E-02  0.2746701E+00
         22   -1    0    0    0    0  0.00000000000E+00  0.00000000000E+00  0.83506348330E+00  0.83506348330E+00  0.00000000000E+00 0.  1.
         22   -1    0    0    0    0 -0.00000000000E+00 -0.00000000000E+00 -0.72455335315E+01  0.72455335315E+01  0.00000000000E+00 0. -1.
          4    1    1    2  501    0  0.23920901429E+01 -0.33999503015E+00 -0.24475430326E+01  0.34392090324E+01  0.00000000000E+00 0.  1.
         -4    1    1    2    0  501 -0.23920901429E+01  0.33999503015E+00 -0.39629270156E+01  0.46413879824E+01  0.00000000000E+00 0. -1.
<mgrwt>
<rscale>  0 0.24161316E+01</rscale>
<asrwt>0</asrwt>
<pdfrwt beam="1">0</pdfrwt>
<pdfrwt beam="2">0</pdfrwt>
<totfact> 0.28724392E+12</totfact>
</mgrwt>
</event>
<event>
 4    2  0.1993797E+006  0.2523038E+01  0.7546771E-02  0.2698460E+00
         22   -1    0    0    0    0  0.00000000000E+00  0.00000000000E+00  0.62116641683E+01  0.62116641683E+01  0.00000000000E+00 0. -1.
         22   -1    0    0    0    0 -0.00000000000E+00 -0.00000000000E+00 -0.63490927033E+01  0.63490927033E+01  0.00000000000E+00 0.  1.
          4    1    1    2  501    0 -0.21350426432E+01  0.13443634647E+01  0.56825178585E+01  0.62174536126E+01  0.00000000000E+00 0. -1.
         -4    1    1    2    0  501  0.21350426432E+01 -0.13443634647E+01 -0.58199463935E+01  0.63433032591E+01  0.00000000000E+00 0.  1.
<mgrwt>
<rscale>  0 0.25230379E+01</rscale>
<asrwt>0</asrwt>
<pdfrwt beam="1">0</pdfrwt>
<pdfrwt beam="2">0</pdfrwt>
<totfact> 0.32657910E+11</totfact>
</mgrwt>
</event>
<event>
 4    2  0.1993797E+006  0.2809583E+01  0.7546771E-02  0.2586009E+00
         22   -1    0    0    0    0  0.00000000000E+00  0.00000000000E+00  0.21701576126E+01  0.21701576126E+01  0.00000000000E+00 0.  1.
         22   -1    0    0    0    0 -0.00000000000E+00 -0.00000000000E+00 -0.48634822996E+01  0.48634822996E+01  0.00000000000E+00 0. -1.
          4    1    1    2  501    0 -0.22204089568E+01  0.17214937262E+01  0.41910797860E+00  0.28406703580E+01  0.00000000000E+00 0. -1.
         -4    1    1    2    0  501  0.22204089568E+01 -0.17214937262E+01 -0.31124326657E+01  0.41929695543E+01  0.00000000000E+00 0.  1.
<mgrwt>
<rscale>  0 0.28095830E+01</rscale>
<asrwt>0</asrwt>
<pdfrwt beam="1">0</pdfrwt>
<pdfrwt beam="2">0</pdfrwt>
<totfact> 0.15415015E+12</totfact>
</mgrwt>
</event>
<event>
 4    2  0.1993797E+006  0.3331315E+01  0.7546771E-02  0.2426826E+00
         22   -1    0    0    0    0  0.00000000000E+00  0.00000000000E+00  0.68053328277E+01  0.68053328277E+01  0.00000000000E+00 0. -1.
         22   -1    0    0    0    0 -0.00000000000E+00 -0.00000000000E+00 -0.16378929831E+01  0.16378929831E+01  0.00000000000E+00 0.  1.
          4    1    1    2  501    0  0.26640513495E+01 -0.20001226003E+01  0.23045398837E+01  0.40507485832E+01  0.00000000000E+00 0. -1.
         -4    1    1    2    0  501 -0.26640513495E+01  0.20001226003E+01  0.28628999609E+01  0.43924772276E+01  0.00000000000E+00 0.  1.
<mgrwt>
<rscale>  0 0.33313151E+01</rscale>
<asrwt>0</asrwt>
<pdfrwt beam="1">0</pdfrwt>
<pdfrwt beam="2">0</pdfrwt>
<totfact> 0.14313718E+12</totfact>
</mgrwt>
</event>
<event>
 4    2  0.1993797E+006  0.2315500E+01  0.7546771E-02  0.2795917E+00
         22   -1    0    0    0    0  0.00000000000E+00  0.00000000000E+00  0.42203030372E+01  0.42203030372E+01  0.00000000000E+00 0.  1.
         22   -1    0    0    0    0 -0.00000000000E+00 -0.00000000000E+00 -0.13151207275E+01  0.13151207275E+01  0.00000000000E+00 0. -1.
          4    1    1    2  501    0  0.92495139567E-02  0.23154818769E+01  0.19628766377E+01  0.30355273958E+01  0.00000000000E+00 0. -1.
         -4    1    1    2    0  501 -0.92495139567E-02 -0.23154818769E+01  0.94230567197E+00  0.24998963689E+01  0.00000000000E+00 0.  1.
<mgrwt>
<rscale>  0 0.23155004E+01</rscale>
<asrwt>0</asrwt>
<pdfrwt beam="1">0</pdfrwt>
<pdfrwt beam="2">0</pdfrwt>
<totfact> 0.32476672E+12</totfact>
</mgrwt>
</event>
<event>
 4    2  0.1993797E+006  0.3961326E+01  0.7546771E-02  0.2284749E+00
         22   -1    0    0    0    0  0.00000000000E+00  0.00000000000E+00  0.41123309065E+01  0.41123309065E+01  0.00000000000E+00 0.  1.
         22   -1    0    0    0    0 -0.00000000000E+00 -0.00000000000E+00 -0.57299639539E+01  0.57299639539E+01  0.00000000000E+00 0. -1.
          4    1    1    2  501    0 -0.16173366643E+01 -0.36161198785E+01  0.20354650549E+01  0.44536747581E+01  0.00000000000E+00 0.  1.
         -4    1    1    2    0  501  0.16173366643E+01  0.36161198785E+01 -0.36530981023E+01  0.53886201023E+01  0.00000000000E+00 0. -1.
<mgrwt>
<rscale>  0 0.39613256E+01</rscale>
<asrwt>0</asrwt>
<pdfrwt beam="1">0</pdfrwt>
<pdfrwt beam="2">0</pdfrwt>
<totfact> 0.60146786E+11</totfact>
</mgrwt>
</event>
<event>
 4    2  0.1993797E+006  0.1386624E+02  0.7546771E-02  0.1653376E+00
         22   -1    0    0    0    0  0.00000000000E+00  0.00000000000E+00  0.62847266715E+02  0.62847266715E+02  0.00000000000E+00 0. -1.
         22   -1    0    0    0    0 -0.00000000000E+00 -0.00000000000E+00 -0.31440972142E+01  0.31440972142E+01  0.00000000000E+00 0.  1.
          4    1    1    2  501    0 -0.73048985151E+01  0.11786051686E+02  0.24434814746E+02  0.28095065908E+02  0.00000000000E+00 0.  1.
         -4    1    1    2    0  501  0.73048985151E+01 -0.11786051686E+02  0.35268354754E+02  0.37896298021E+02  0.00000000000E+00 0. -1.
<mgrwt>
<rscale>  0 0.13866238E+02</rscale>
<asrwt>0</asrwt>
<pdfrwt beam="1">0</pdfrwt>
<pdfrwt beam="2">0</pdfrwt>
<totfact> 0.41188805E+10</totfact>
</mgrwt>
</event>
<event>
 4    2  0.1993797E+006  0.2707803E+01  0.7546771E-02  0.2623449E+00
         22   -1    0    0    0    0  0.00000000000E+00  0.00000000000E+00  0.14317004937E+01  0.14317004937E+01  0.00000000000E+00 0. -1.
         22   -1    0    0    0    0 -0.00000000000E+00 -0.00000000000E+00 -0.16634934038E+02  0.16634934038E+02  0.00000000000E+00 0.  1.
          4    1    1    2  501    0 -0.22002877767E+01  0.15782682821E+01 -0.86382102639E-01  0.27091804920E+01  0.00000000000E+00 0. -1.
         -4    1    1    2    0  501  0.22002877767E+01 -0.15782682821E+01 -0.15116851442E+02  0.15357454040E+02  0.00000000000E+00 0.  1.
<mgrwt>
<rscale>  0 0.27078030E+01</rscale>
<asrwt>0</asrwt>
<pdfrwt beam="1">0</pdfrwt>
<pdfrwt beam="2">0</pdfrwt>
<totfact> 0.56446380E+11</totfact>
</mgrwt>
</event>
<event>
 4    2  0.1993797E+006  0.2584958E+01  0.7546771E-02  0.2672220E+00
         22   -1    0    0    0    0  0.00000000000E+00  0.00000000000E+00  0.17405532802E+02  0.17405532802E+02  0.00000000000E+00 0.  1.
         22   -1    0    0    0    0 -0.00000000000E+00 -0.00000000000E+00 -0.41867735864E+00  0.41867735864E+00  0.00000000000E+00 0. -1.
          4    1    1    2  501    0  0.17763073217E+01 -0.18779618559E+01  0.11061930903E+02  0.11359943826E+02  0.00000000000E+00 0.  1.
         -4    1    1    2    0  501 -0.17763073217E+01  0.18779618559E+01  0.59249245407E+01  0.64642663347E+01  0.00000000000E+00 0. -1.
<mgrwt>
<rscale>  0 0.25849581E+01</rscale>
<asrwt>0</asrwt>
<pdfrwt beam="1">0</pdfrwt>
<pdfrwt beam="2">0</pdfrwt>
<totfact> 0.21606618E+12</totfact>
</mgrwt>
</event>
<event>
 4    2  0.1993797E+006  0.2059858E+01  0.7546771E-02  0.2941459E+00
         22   -1    0    0    0    0  0.00000000000E+00  0.00000000000E+00  0.62417814202E-01  0.62417814202E-01  0.00000000000E+00 0. -1.
         22   -1    0    0    0    0 -0.00000000000E+00 -0.00000000000E+00 -0.77988939088E+02  0.77988939088E+02  0.00000000000E+00 0.  1.
          4    1    1    2  501    0  0.16030703930E+01 -0.12935143092E+01 -0.24980923096E+02  0.25065704313E+02  0.00000000000E+00 0. -1.
         -4    1    1    2    0  501 -0.16030703930E+01  0.12935143092E+01 -0.52945598178E+02  0.52985652590E+02  0.00000000000E+00 0.  1.
<mgrwt>
<rscale>  0 0.20598578E+01</rscale>
<asrwt>0</asrwt>
<pdfrwt beam="1">0</pdfrwt>
<pdfrwt beam="2">0</pdfrwt>
<totfact> 0.25760656E+12</totfact>
</mgrwt>
</event>
<event>
 4    2  0.1993797E+006  0.3307916E+01  0.7546771E-02  0.2433004E+00
         22   -1    0    0    0    0  0.00000000000E+00  0.00000000000E+00  0.31476585899E+01  0.31476585899E+01  0.00000000000E+00 0. -1.
         22   -1    0    0    0    0 -0.00000000000E+00 -0.00000000000E+00 -0.72821166851E+01  0.72821166851E+01  0.00000000000E+00 0.  1.
          4    1    1    2  501    0  0.95650104954E+00  0.31666090638E+01  0.17027438545E+01  0.37204359765E+01  0.00000000000E+00 0. -1.
         -4    1    1    2    0  501 -0.95650104954E+00 -0.31666090638E+01 -0.58372019497E+01  0.67093392985E+01  0.00000000000E+00 0.  1.
<mgrwt>
<rscale>  0 0.33079158E+01</rscale>
<asrwt>0</asrwt>
<pdfrwt beam="1">0</pdfrwt>
<pdfrwt beam="2">0</pdfrwt>
<totfact> 0.61836586E+11</totfact>
</mgrwt>
</event>
<event>
 4    2  0.1993797E+006  0.2148892E+01  0.7546771E-02  0.2886992E+00
         22   -1    0    0    0    0  0.00000000000E+00  0.00000000000E+00  0.37192755848E+00  0.37192755848E+00  0.00000000000E+00 0.  1.
         22   -1    0    0    0    0 -0.00000000000E+00 -0.00000000000E+00 -0.12814207780E+02  0.12814207780E+02  0.00000000000E+00 0. -1.
          4    1    1    2  501    0 -0.92885051350E+00 -0.19377758781E+01 -0.50584512583E+01  0.54959683190E+01  0.00000000000E+00 0. -1.
         -4    1    1    2    0  501  0.92885051350E+00  0.19377758781E+01 -0.73838289637E+01  0.76901670200E+01  0.00000000000E+00 0.  1.
<mgrwt>
<rscale>  0 0.21488924E+01</rscale>
<asrwt>0</asrwt>
<pdfrwt beam="1">0</pdfrwt>
<pdfrwt beam="2">0</pdfrwt>
<totfact> 0.35981433E+12</totfact>
</mgrwt>
</event>
<event>
 4    2  0.1993797E+006  0.2887171E+01  0.7546771E-02  0.2559084E+00
         22   -1    0    0    0    0  0.00000000000E+00  0.00000000000E+00  0.98431017420E+00  0.98431017420E+00  0.00000000000E+00 0. -1.
         22   -1    0    0    0    0 -0.00000000000E+00 -0.00000000000E+00 -0.11374325516E+02  0.11374325516E+02  0.00000000000E+00 0.  1.
          4    1    1    2  501    0  0.18651592856E+01  0.22038459168E+01 -0.20717848914E+01  0.35535965755E+01  0.00000000000E+00 0. -1.
         -4    1    1    2    0  501 -0.18651592856E+01 -0.22038459168E+01 -0.83182304506E+01  0.88050391149E+01  0.00000000000E+00 0.  1.
<mgrwt>
<rscale>  0 0.28871709E+01</rscale>
<asrwt>0</asrwt>
<pdfrwt beam="1">0</pdfrwt>
<pdfrwt beam="2">0</pdfrwt>
<totfact> 0.13819315E+12</totfact>
</mgrwt>
</event>
<event>
 4    2  0.1993797E+006  0.2676808E+01  0.7546771E-02  0.2635366E+00
         22   -1    0    0    0    0  0.00000000000E+00  0.00000000000E+00  0.31500171833E+02  0.31500171833E+02  0.00000000000E+00 0. -1.
         22   -1    0    0    0    0 -0.00000000000E+00 -0.00000000000E+00 -0.87127926724E+00  0.87127926724E+00  0.00000000000E+00 0.  1.
          4    1    1    2  501    0 -0.21794288529E+00 -0.26679204137E+01  0.29227824240E+02  0.29350144944E+02  0.00000000000E+00 0. -1.
         -4    1    1    2    0  501  0.21794288529E+00  0.26679204137E+01  0.14010683256E+01  0.30213061560E+01  0.00000000000E+00 0.  1.
<mgrwt>
<rscale>  0 0.26768075E+01</rscale>
<asrwt>0</asrwt>
<pdfrwt beam="1">0</pdfrwt>
<pdfrwt beam="2">0</pdfrwt>
<totfact> 0.44684702E+11</totfact>
</mgrwt>
</event>
<event>
 4    2  0.1993797E+006  0.2227398E+01  0.7546771E-02  0.2842456E+00
         22   -1    0    0    0    0  0.00000000000E+00  0.00000000000E+00  0.77321114942E+01  0.77321114942E+01  0.00000000000E+00 0.  1.
         22   -1    0    0    0    0 -0.00000000000E+00 -0.00000000000E+00 -0.78143278967E+00  0.78143278967E+00  0.00000000000E+00 0. -1.
          4    1    1    2  501    0  0.13875665734E+01 -0.17424005485E+01  0.52757152186E+01  0.57266457665E+01  0.00000000000E+00 0.  1.
         -4    1    1    2    0  501 -0.13875665734E+01  0.17424005485E+01  0.16749634859E+01  0.27868985174E+01  0.00000000000E+00 0. -1.
<mgrwt>
<rscale>  0 0.22273977E+01</rscale>
<asrwt>0</asrwt>
<pdfrwt beam="1">0</pdfrwt>
<pdfrwt beam="2">0</pdfrwt>
<totfact> 0.28655040E+12</totfact>
</mgrwt>
</event>
<event>
 4    2  0.1993797E+006  0.2103757E+01  0.7546771E-02  0.2914045E+00
         22   -1    0    0    0    0  0.00000000000E+00  0.00000000000E+00  0.60461130500E+01  0.60461130500E+01  0.00000000000E+00 0. -1.
         22   -1    0    0    0    0 -0.00000000000E+00 -0.00000000000E+00 -0.22700192473E+02  0.22700192473E+02  0.00000000000E+00 0.  1.
          4    1    1    2  501    0  0.42753572825E+00 -0.20598558849E+01  0.58124706814E+01  0.61814730030E+01  0.00000000000E+00 0. -1.
         -4    1    1    2    0  501 -0.42753572825E+00  0.20598558849E+01 -0.22466550104E+02  0.22564832520E+02  0.00000000000E+00 0.  1.
<mgrwt>
<rscale>  0 0.21037569E+01</rscale>
<asrwt>0</asrwt>
<pdfrwt beam="1">0</pdfrwt>
<pdfrwt beam="2">0</pdfrwt>
<totfact> 0.71193582E+10</totfact>
</mgrwt>
</event>
<event>
 4    2  0.1993797E+006  0.2385865E+01  0.7546771E-02  0.2761092E+00
         22   -1    0    0    0    0  0.00000000000E+00  0.00000000000E+00  0.14059379711E+01  0.14059379711E+01  0.00000000000E+00 0. -1.
         22   -1    0    0    0    0 -0.00000000000E+00 -0.00000000000E+00 -0.40662833187E+01  0.40662833187E+01  0.00000000000E+00 0.  1.
          4    1    1    2  501    0  0.33916247535E+00  0.23616353519E+01 -0.11507300067E+01  0.26488737736E+01  0.00000000000E+00 0.  1.
         -4    1    1    2    0  501 -0.33916247535E+00 -0.23616353519E+01 -0.15096153409E+01  0.28233475163E+01  0.00000000000E+00 0. -1.
<mgrwt>
<rscale>  0 0.23858652E+01</rscale>
<asrwt>0</asrwt>
<pdfrwt beam="1">0</pdfrwt>
<pdfrwt beam="2">0</pdfrwt>
<totfact> 0.31425882E+12</totfact>
</mgrwt>
</event>
<event>
 4    2  0.1993797E+006  0.2799390E+01  0.7546771E-02  0.2589646E+00
         22   -1    0    0    0    0  0.00000000000E+00  0.00000000000E+00  0.13750333038E+01  0.13750333038E+01  0.00000000000E+00 0. -1.
         22   -1    0    0    0    0 -0.00000000000E+00 -0.00000000000E+00 -0.58866587058E+01  0.58866587058E+01  0.00000000000E+00 0.  1.
          4    1    1    2  501    0  0.41782521114E+00 -0.27680334118E+01 -0.16078818255E+01  0.32282922483E+01  0.00000000000E+00 0. -1.
         -4    1    1    2    0  501 -0.41782521114E+00  0.27680334118E+01 -0.29037435765E+01  0.40333997612E+01  0.00000000000E+00 0.  1.
<mgrwt>
<rscale>  0 0.27993904E+01</rscale>
<asrwt>0</asrwt>
<pdfrwt beam="1">0</pdfrwt>
<pdfrwt beam="2">0</pdfrwt>
<totfact> 0.20809463E+12</totfact>
</mgrwt>
</event>
<event>
 4    2  0.1993797E+006  0.2769298E+01  0.7546771E-02  0.2600528E+00
         22   -1    0    0    0    0  0.00000000000E+00  0.00000000000E+00  0.40239687291E+01  0.40239687291E+01  0.00000000000E+00 0. -1.
         22   -1    0    0    0    0 -0.00000000000E+00 -0.00000000000E+00 -0.20865507880E+01  0.20865507880E+01  0.00000000000E+00 0.  1.
          4    1    1    2  501    0 -0.70257799189E+00 -0.26786927061E+01  0.69553704448E-01  0.27701711439E+01  0.00000000000E+00 0.  1.
         -4    1    1    2    0  501  0.70257799189E+00  0.26786927061E+01  0.18678642366E+01  0.33403483733E+01  0.00000000000E+00 0. -1.
<mgrwt>
<rscale>  0 0.27692978E+01</rscale>
<asrwt>0</asrwt>
<pdfrwt beam="1">0</pdfrwt>
<pdfrwt beam="2">0</pdfrwt>
<totfact> 0.20175351E+12</totfact>
</mgrwt>
</event>
<event>
 4    2  0.1993797E+006  0.3950295E+01  0.7546771E-02  0.2286898E+00
         22   -1    0    0    0    0  0.00000000000E+00  0.00000000000E+00  0.90558538145E+01  0.90558538145E+01  0.00000000000E+00 0.  1.
         22   -1    0    0    0    0 -0.00000000000E+00 -0.00000000000E+00 -0.31878445885E+01  0.31878445885E+01  0.00000000000E+00 0. -1.
          4    1    1    2  501    0 -0.18140022772E+01 -0.35091628318E+01  0.70835810817E+01  0.81106071896E+01  0.00000000000E+00 0.  1.
         -4    1    1    2    0  501  0.18140022772E+01  0.35091628318E+01 -0.12155718558E+01  0.41330912135E+01  0.00000000000E+00 0. -1.
<mgrwt>
<rscale>  0 0.39502947E+01</rscale>
<asrwt>0</asrwt>
<pdfrwt beam="1">0</pdfrwt>
<pdfrwt beam="2">0</pdfrwt>
<totfact> 0.46881456E+11</totfact>
</mgrwt>
</event>
<event>
 4    2  0.1993797E+006  0.2182104E+01  0.7546771E-02  0.2867776E+00
         22   -1    0    0    0    0  0.00000000000E+00  0.00000000000E+00  0.99513565757E+01  0.99513565757E+01  0.00000000000E+00 0.  1.
         22   -1    0    0    0    0 -0.00000000000E+00 -0.00000000000E+00 -0.53222956980E+00  0.53222956980E+00  0.00000000000E+00 0. -1.
          4    1    1    2  501    0 -0.88359160655E-01  0.21803138499E+01  0.30438616353E+01  0.37452195503E+01  0.00000000000E+00 0. -1.
         -4    1    1    2    0  501  0.88359160655E-01 -0.21803138499E+01  0.63752653706E+01  0.67383665952E+01  0.00000000000E+00 0.  1.
<mgrwt>
<rscale>  0 0.21821035E+01</rscale>
<asrwt>0</asrwt>
<pdfrwt beam="1">0</pdfrwt>
<pdfrwt beam="2">0</pdfrwt>
<totfact> 0.32674209E+12</totfact>
</mgrwt>
</event>
<event>
 4    2  0.1993797E+006  0.2196966E+01  0.7546771E-02  0.2859357E+00
         22   -1    0    0    0    0  0.00000000000E+00  0.00000000000E+00  0.77475505129E+01  0.77475505129E+01  0.00000000000E+00 0.  1.
         22   -1    0    0    0    0 -0.00000000000E+00 -0.00000000000E+00 -0.12269740526E+01  0.12269740526E+01  0.00000000000E+00 0. -1.
          4    1    1    2  501    0  0.12023037285E+01  0.18387833756E+01  0.64085870152E+01  0.67747063471E+01  0.00000000000E+00 0. -1.
         -4    1    1    2    0  501 -0.12023037285E+01 -0.18387833756E+01  0.11198944515E+00  0.21998182184E+01  0.00000000000E+00 0.  1.
<mgrwt>
<rscale>  0 0.21969658E+01</rscale>
<asrwt>0</asrwt>
<pdfrwt beam="1">0</pdfrwt>
<pdfrwt beam="2">0</pdfrwt>
<totfact> 0.17079377E+12</totfact>
</mgrwt>
</event>
<event>
 4    2  0.1993797E+006  0.2321670E+01  0.7546771E-02  0.2792784E+00
         22   -1    0    0    0    0  0.00000000000E+00  0.00000000000E+00  0.33130433679E+00  0.33130433679E+00  0.00000000000E+00 0. -1.
         22   -1    0    0    0    0 -0.00000000000E+00 -0.00000000000E+00 -0.17378304176E+02  0.17378304176E+02  0.00000000000E+00 0.  1.
          4    1    1    2  501    0  0.20906193235E+01  0.10096837094E+01 -0.62868089713E+01  0.67017995636E+01  0.00000000000E+00 0. -1.
         -4    1    1    2    0  501 -0.20906193235E+01 -0.10096837094E+01 -0.10760190868E+02  0.11007808950E+02  0.00000000000E+00 0.  1.
<mgrwt>
<rscale>  0 0.23216697E+01</rscale>
<asrwt>0</asrwt>
<pdfrwt beam="1">0</pdfrwt>
<pdfrwt beam="2">0</pdfrwt>
<totfact> 0.28166090E+12</totfact>
</mgrwt>
</event>
<event>
 4    2  0.1993797E+006  0.2542027E+01  0.7546771E-02  0.2690287E+00
         22   -1    0    0    0    0  0.00000000000E+00  0.00000000000E+00  0.20250325663E+02  0.20250325663E+02  0.00000000000E+00 0.  1.
         22   -1    0    0    0    0 -0.00000000000E+00 -0.00000000000E+00 -0.53519656575E+00  0.53519656575E+00  0.00000000000E+00 0. -1.
          4    1    1    2  501    0  0.86002652031E+00 -0.23921241132E+01  0.16461411568E+02  0.16656529477E+02  0.00000000000E+00 0.  1.
         -4    1    1    2    0  501 -0.86002652031E+00  0.23921241132E+01  0.32537175292E+01  0.41289927523E+01  0.00000000000E+00 0. -1.
<mgrwt>
<rscale>  0 0.25420274E+01</rscale>
<asrwt>0</asrwt>
<pdfrwt beam="1">0</pdfrwt>
<pdfrwt beam="2">0</pdfrwt>
<totfact> 0.13568479E+12</totfact>
</mgrwt>
</event>
<event>
 4    2  0.1993797E+006  0.2160593E+01  0.7546771E-02  0.2880157E+00
         22   -1    0    0    0    0  0.00000000000E+00  0.00000000000E+00  0.87727757875E+00  0.87727757875E+00  0.00000000000E+00 0.  1.
         22   -1    0    0    0    0 -0.00000000000E+00 -0.00000000000E+00 -0.98371313906E+01  0.98371313906E+01  0.00000000000E+00 0. -1.
          4    1    1    2  501    0 -0.20633054613E+01  0.64104006661E+00 -0.85016553009E+00  0.23218404816E+01  0.00000000000E+00 0.  1.
         -4    1    1    2    0  501  0.20633054613E+01 -0.64104006661E+00 -0.81096882818E+01  0.83925684877E+01  0.00000000000E+00 0. -1.
<mgrwt>
<rscale>  0 0.21605929E+01</rscale>
<asrwt>0</asrwt>
<pdfrwt beam="1">0</pdfrwt>
<pdfrwt beam="2">0</pdfrwt>
<totfact> 0.18792821E+12</totfact>
</mgrwt>
</event>
<event>
 4    2  0.1993797E+006  0.2033437E+01  0.7546771E-02  0.2958514E+00
         22   -1    0    0    0    0  0.00000000000E+00  0.00000000000E+00  0.60663506569E+01  0.60663506569E+01  0.00000000000E+00 0.  1.
         22   -1    0    0    0    0 -0.00000000000E+00 -0.00000000000E+00 -0.74621354639E+00  0.74621354639E+00  0.00000000000E+00 0. -1.
          4    1    1    2  501    0 -0.82908854847E+00  0.18567384539E+01  0.36623465101E+01  0.41889912231E+01  0.00000000000E+00 0.  1.
         -4    1    1    2    0  501  0.82908854847E+00 -0.18567384539E+01  0.16577906004E+01  0.26235729802E+01  0.00000000000E+00 0. -1.
<mgrwt>
<rscale>  0 0.20334369E+01</rscale>
<asrwt>0</asrwt>
<pdfrwt beam="1">0</pdfrwt>
<pdfrwt beam="2">0</pdfrwt>
<totfact> 0.40355342E+12</totfact>
</mgrwt>
</event>
<event>
 4    2  0.1993797E+006  0.6335015E+01  0.7546771E-02  0.1990885E+00
         22   -1    0    0    0    0  0.00000000000E+00  0.00000000000E+00  0.23320278009E+01  0.23320278009E+01  0.00000000000E+00 0. -1.
         22   -1    0    0    0    0 -0.00000000000E+00 -0.00000000000E+00 -0.21990411333E+02  0.21990411333E+02  0.00000000000E+00 0.  1.
          4    1    1    2  501    0 -0.29569907141E+01 -0.56025546625E+01 -0.41586067596E+01  0.75780223680E+01  0.00000000000E+00 0. -1.
         -4    1    1    2    0  501  0.29569907141E+01  0.56025546625E+01 -0.15499776773E+02  0.16744416766E+02  0.00000000000E+00 0.  1.
<mgrwt>
<rscale>  0 0.63350148E+01</rscale>
<asrwt>0</asrwt>
<pdfrwt beam="1">0</pdfrwt>
<pdfrwt beam="2">0</pdfrwt>
<totfact> 0.22699703E+11</totfact>
</mgrwt>
</event>
<event>
 4    2  0.1993797E+006  0.2036753E+01  0.7546771E-02  0.2956349E+00
         22   -1    0    0    0    0  0.00000000000E+00  0.00000000000E+00  0.15432681709E+01  0.15432681709E+01  0.00000000000E+00 0.  1.
         22   -1    0    0    0    0 -0.00000000000E+00 -0.00000000000E+00 -0.29932961518E+01  0.29932961518E+01  0.00000000000E+00 0. -1.
          4    1    1    2  501    0  0.62776312231E-01  0.20357858189E+01 -0.65262310062E-03  0.20367535913E+01  0.00000000000E+00 0. -1.
         -4    1    1    2    0  501 -0.62776312231E-01 -0.20357858189E+01 -0.14493753578E+01  0.24998107315E+01  0.00000000000E+00 0.  1.
<mgrwt>
<rscale>  0 0.20367535E+01</rscale>
<asrwt>0</asrwt>
<pdfrwt beam="1">0</pdfrwt>
<pdfrwt beam="2">0</pdfrwt>
<totfact> 0.40431123E+12</totfact>
</mgrwt>
</event>
<event>
 4    2  0.1993797E+006  0.3244557E+01  0.7546771E-02  0.2450124E+00
         22   -1    0    0    0    0  0.00000000000E+00  0.00000000000E+00  0.40056158827E+02  0.40056158827E+02  0.00000000000E+00 0. -1.
         22   -1    0    0    0    0 -0.00000000000E+00 -0.00000000000E+00 -0.26459365550E+00  0.26459365550E+00  0.00000000000E+00 0.  1.
          4    1    1    2  501    0 -0.30522297713E+01 -0.11004754764E+01  0.21551108080E+02  0.21793976514E+02  0.00000000000E+00 0.  1.
         -4    1    1    2    0  501  0.30522297713E+01  0.11004754764E+01  0.18240457092E+02  0.18526775969E+02  0.00000000000E+00 0. -1.
<mgrwt>
<rscale>  0 0.32445574E+01</rscale>
<asrwt>0</asrwt>
<pdfrwt beam="1">0</pdfrwt>
<pdfrwt beam="2">0</pdfrwt>
<totfact> 0.12590036E+12</totfact>
</mgrwt>
</event>
<event>
 4    2  0.1993797E+006  0.2048734E+01  0.7546771E-02  0.2948588E+00
         22   -1    0    0    0    0  0.00000000000E+00  0.00000000000E+00  0.49899582430E+01  0.49899582430E+01  0.00000000000E+00 0. -1.
         22   -1    0    0    0    0 -0.00000000000E+00 -0.00000000000E+00 -0.30948560281E+01  0.30948560281E+01  0.00000000000E+00 0.  1.
          4    1    1    2  501    0 -0.19815922123E+01  0.52019417957E+00  0.43971479209E+01  0.48510019087E+01  0.00000000000E+00 0. -1.
         -4    1    1    2    0  501  0.19815922123E+01 -0.52019417957E+00 -0.25020457060E+01  0.32338123624E+01  0.00000000000E+00 0.  1.
<mgrwt>
<rscale>  0 0.20487337E+01</rscale>
<asrwt>0</asrwt>
<pdfrwt beam="1">0</pdfrwt>
<pdfrwt beam="2">0</pdfrwt>
<totfact> 0.98911114E+11</totfact>
</mgrwt>
</event>
<event>
 4    2  0.1993797E+006  0.2045350E+01  0.7546771E-02  0.2950771E+00
         22   -1    0    0    0    0  0.00000000000E+00  0.00000000000E+00  0.34008861208E+00  0.34008861208E+00  0.00000000000E+00 0.  1.
         22   -1    0    0    0    0 -0.00000000000E+00 -0.00000000000E+00 -0.23058696700E+02  0.23058696700E+02  0.00000000000E+00 0. -1.
          4    1    1    2  501    0 -0.16812128078E+01 -0.11648953712E+01 -0.33682523234E+01  0.39406321123E+01  0.00000000000E+00 0.  1.
         -4    1    1    2    0  501  0.16812128078E+01  0.11648953712E+01 -0.19350355764E+02  0.19458153200E+02  0.00000000000E+00 0. -1.
<mgrwt>
<rscale>  0 0.20453503E+01</rscale>
<asrwt>0</asrwt>
<pdfrwt beam="1">0</pdfrwt>
<pdfrwt beam="2">0</pdfrwt>
<totfact> 0.19219918E+12</totfact>
</mgrwt>
</event>
<event>
 4    2  0.1993797E+006  0.4745094E+01  0.7546771E-02  0.2154718E+00
         22   -1    0    0    0    0  0.00000000000E+00  0.00000000000E+00  0.21083079161E+02  0.21083079161E+02  0.00000000000E+00 0.  1.
         22   -1    0    0    0    0 -0.00000000000E+00 -0.00000000000E+00 -0.11160621249E+01  0.11160621249E+01  0.00000000000E+00 0. -1.
          4    1    1    2  501    0  0.35462249764E+01  0.31528097144E+01  0.76792217129E+01  0.90269799376E+01  0.00000000000E+00 0.  1.
         -4    1    1    2    0  501 -0.35462249764E+01 -0.31528097144E+01  0.12287795323E+02  0.13172161348E+02  0.00000000000E+00 0. -1.
<mgrwt>
<rscale>  0 0.47450944E+01</rscale>
<asrwt>0</asrwt>
<pdfrwt beam="1">0</pdfrwt>
<pdfrwt beam="2">0</pdfrwt>
<totfact> 0.55945035E+11</totfact>
</mgrwt>
</event>
<event>
 4    2  0.1993797E+006  0.2976552E+01  0.7546771E-02  0.2529642E+00
         22   -1    0    0    0    0  0.00000000000E+00  0.00000000000E+00  0.14917265275E+01  0.14917265275E+01  0.00000000000E+00 0. -1.
         22   -1    0    0    0    0 -0.00000000000E+00 -0.00000000000E+00 -0.15251345218E+02  0.15251345218E+02  0.00000000000E+00 0.  1.
          4    1    1    2  501    0  0.27683434889E+01 -0.10936801250E+01 -0.33837758716E+00  0.29957238324E+01  0.00000000000E+00 0. -1.
         -4    1    1    2    0  501 -0.27683434889E+01  0.10936801250E+01 -0.13421241103E+02  0.13747347913E+02  0.00000000000E+00 0.  1.
<mgrwt>
<rscale>  0 0.29765520E+01</rscale>
<asrwt>0</asrwt>
<pdfrwt beam="1">0</pdfrwt>
<pdfrwt beam="2">0</pdfrwt>
<totfact> 0.59932024E+11</totfact>
</mgrwt>
</event>
<event>
 4    2  0.1993797E+006  0.2512203E+01  0.7546771E-02  0.2703174E+00
         22   -1    0    0    0    0  0.00000000000E+00  0.00000000000E+00  0.49603747376E+01  0.49603747376E+01  0.00000000000E+00 0.  1.
         22   -1    0    0    0    0 -0.00000000000E+00 -0.00000000000E+00 -0.20054246024E+01  0.20054246024E+01  0.00000000000E+00 0. -1.
          4    1    1    2  501    0  0.20291853286E+01  0.14810709205E+01  0.35832984868E+01  0.43762075150E+01  0.00000000000E+00 0.  1.
         -4    1    1    2    0  501 -0.20291853286E+01 -0.14810709205E+01 -0.62834835155E+00  0.25895918250E+01  0.00000000000E+00 0. -1.
<mgrwt>
<rscale>  0 0.25122031E+01</rscale>
<asrwt>0</asrwt>
<pdfrwt beam="1">0</pdfrwt>
<pdfrwt beam="2">0</pdfrwt>
<totfact> 0.16501306E+12</totfact>
</mgrwt>
</event>
<event>
 4    2  0.1993797E+006  0.2322128E+01  0.7546771E-02  0.2792552E+00
         22   -1    0    0    0    0  0.00000000000E+00  0.00000000000E+00  0.30380934297E+01  0.30380934297E+01  0.00000000000E+00 0. -1.
         22   -1    0    0    0    0 -0.00000000000E+00 -0.00000000000E+00 -0.23455225558E+01  0.23455225558E+01  0.00000000000E+00 0.  1.
          4    1    1    2  501    0 -0.22034037352E+01 -0.73300105313E+00 -0.98142365840E+00  0.25210059424E+01  0.00000000000E+00 0.  1.
         -4    1    1    2    0  501  0.22034037352E+01  0.73300105313E+00  0.16739945324E+01  0.28626100431E+01  0.00000000000E+00 0. -1.
<mgrwt>
<rscale>  0 0.23221280E+01</rscale>
<asrwt>0</asrwt>
<pdfrwt beam="1">0</pdfrwt>
<pdfrwt beam="2">0</pdfrwt>
<totfact> 0.24490364E+12</totfact>
</mgrwt>
</event>
<event>
 4    2  0.1993797E+006  0.2007970E+01  0.7546771E-02  0.2975368E+00
         22   -1    0    0    0    0  0.00000000000E+00  0.00000000000E+00  0.12470879023E+01  0.12470879023E+01  0.00000000000E+00 0.  1.
         22   -1    0    0    0    0 -0.00000000000E+00 -0.00000000000E+00 -0.35702899185E+01  0.35702899185E+01  0.00000000000E+00 0. -1.
          4    1    1    2  501    0  0.18010383546E+01 -0.88780784714E+00 -0.19018461073E+01  0.27656754228E+01  0.00000000000E+00 0. -1.
         -4    1    1    2    0  501 -0.18010383546E+01  0.88780784714E+00 -0.42135590883E+00  0.20517023980E+01  0.00000000000E+00 0.  1.
<mgrwt>
<rscale>  0 0.20079696E+01</rscale>
<asrwt>0</asrwt>
<pdfrwt beam="1">0</pdfrwt>
<pdfrwt beam="2">0</pdfrwt>
<totfact> 0.42016061E+12</totfact>
</mgrwt>
</event>
<event>
 4    2  0.1993797E+006  0.2331682E+01  0.7546771E-02  0.2787732E+00
         22   -1    0    0    0    0  0.00000000000E+00  0.00000000000E+00  0.19373378810E+01  0.19373378810E+01  0.00000000000E+00 0.  1.
         22   -1    0    0    0    0 -0.00000000000E+00 -0.00000000000E+00 -0.33521519135E+01  0.33521519135E+01  0.00000000000E+00 0. -1.
          4    1    1    2  501    0  0.19486301107E+01  0.12804619178E+01  0.35983094052E+00  0.23592838611E+01  0.00000000000E+00 0.  1.
         -4    1    1    2    0  501 -0.19486301107E+01 -0.12804619178E+01 -0.17746449731E+01  0.29302059334E+01  0.00000000000E+00 0. -1.
<mgrwt>
<rscale>  0 0.23316822E+01</rscale>
<asrwt>0</asrwt>
<pdfrwt beam="1">0</pdfrwt>
<pdfrwt beam="2">0</pdfrwt>
<totfact> 0.27242935E+12</totfact>
</mgrwt>
</event>
<event>
 4    2  0.1993797E+006  0.2622407E+01  0.7546771E-02  0.2656907E+00
         22   -1    0    0    0    0  0.00000000000E+00  0.00000000000E+00  0.63607163605E+01  0.63607163605E+01  0.00000000000E+00 0.  1.
         22   -1    0    0    0    0 -0.00000000000E+00 -0.00000000000E+00 -0.44338842489E+01  0.44338842489E+01  0.00000000000E+00 0. -1.
          4    1    1    2  501    0  0.44001500991E-01  0.26220377578E+01  0.56567629243E+01  0.62350609393E+01  0.00000000000E+00 0.  1.
         -4    1    1    2    0  501 -0.44001500991E-01 -0.26220377578E+01 -0.37299308127E+01  0.45595396700E+01  0.00000000000E+00 0. -1.
<mgrwt>
<rscale>  0 0.26224069E+01</rscale>
<asrwt>0</asrwt>
<pdfrwt beam="1">0</pdfrwt>
<pdfrwt beam="2">0</pdfrwt>
<totfact> 0.48602762E+11</totfact>
</mgrwt>
</event>
<event>
 4    2  0.1993797E+006  0.1217346E+02  0.7546771E-02  0.1701064E+00
         22   -1    0    0    0    0  0.00000000000E+00  0.00000000000E+00  0.15205381625E+01  0.15205381625E+01  0.00000000000E+00 0.  1.
         22   -1    0    0    0    0 -0.00000000000E+00 -0.00000000000E+00 -0.10485475250E+03  0.10485475250E+03  0.00000000000E+00 0. -1.
          4    1    1    2  501    0 -0.15023591827E+01 -0.12080399480E+02 -0.37543363157E+02  0.39467673504E+02  0.00000000000E+00 0.  1.
         -4    1    1    2    0  501  0.15023591827E+01  0.12080399480E+02 -0.65790851177E+02  0.66907617155E+02  0.00000000000E+00 0. -1.
<mgrwt>
<rscale>  0 0.12173460E+02</rscale>
<asrwt>0</asrwt>
<pdfrwt beam="1">0</pdfrwt>
<pdfrwt beam="2">0</pdfrwt>
<totfact> 0.47260387E+10</totfact>
</mgrwt>
</event>
<event>
 4    2  0.1993797E+006  0.5364867E+01  0.7546771E-02  0.2081815E+00
         22   -1    0    0    0    0  0.00000000000E+00  0.00000000000E+00  0.19687825437E+02  0.19687825437E+02  0.00000000000E+00 0.  1.
         22   -1    0    0    0    0 -0.00000000000E+00 -0.00000000000E+00 -0.17978156083E+01  0.17978156083E+01  0.00000000000E+00 0. -1.
          4    1    1    2  501    0  0.24930074329E+01 -0.47504428457E+01  0.13588612833E+02  0.14609318670E+02  0.00000000000E+00 0.  1.
         -4    1    1    2    0  501 -0.24930074329E+01  0.47504428457E+01  0.43013969962E+01  0.68763223754E+01  0.00000000000E+00 0. -1.
<mgrwt>
<rscale>  0 0.53648666E+01</rscale>
<asrwt>0</asrwt>
<pdfrwt beam="1">0</pdfrwt>
<pdfrwt beam="2">0</pdfrwt>
<totfact> 0.35227711E+11</totfact>
</mgrwt>
</event>
<event>
 4    2  0.1993797E+006  0.3519404E+01  0.7546771E-02  0.2379799E+00
         22   -1    0    0    0    0  0.00000000000E+00  0.00000000000E+00  0.11962675421E+01  0.11962675421E+01  0.00000000000E+00 0. -1.
         22   -1    0    0    0    0 -0.00000000000E+00 -0.00000000000E+00 -0.10424646512E+02  0.10424646512E+02  0.00000000000E+00 0.  1.
          4    1    1    2  501    0 -0.30255402272E+01 -0.17978635317E+01 -0.41360118692E+01  0.54307274952E+01  0.00000000000E+00 0. -1.
         -4    1    1    2    0  501  0.30255402272E+01  0.17978635317E+01 -0.50923671004E+01  0.61901865586E+01  0.00000000000E+00 0.  1.
<mgrwt>
<rscale>  0 0.35194043E+01</rscale>
<asrwt>0</asrwt>
<pdfrwt beam="1">0</pdfrwt>
<pdfrwt beam="2">0</pdfrwt>
<totfact> 0.12292062E+12</totfact>
</mgrwt>
</event>
<event>
 4    2  0.1993797E+006  0.2748735E+01  0.7546771E-02  0.2608088E+00
         22   -1    0    0    0    0  0.00000000000E+00  0.00000000000E+00  0.30143203487E+02  0.30143203487E+02  0.00000000000E+00 0. -1.
         22   -1    0    0    0    0 -0.00000000000E+00 -0.00000000000E+00 -0.22930739183E+01  0.22930739183E+01  0.00000000000E+00 0.  1.
          4    1    1    2  501    0 -0.26221967780E+01 -0.82439685875E+00  0.29231159277E+02  0.29360112718E+02  0.00000000000E+00 0. -1.
         -4    1    1    2    0  501  0.26221967780E+01  0.82439685875E+00 -0.13810297090E+01  0.30761646868E+01  0.00000000000E+00 0.  1.
<mgrwt>
<rscale>  0 0.27487354E+01</rscale>
<asrwt>0</asrwt>
<pdfrwt beam="1">0</pdfrwt>
<pdfrwt beam="2">0</pdfrwt>
<totfact> 0.15540269E+11</totfact>
</mgrwt>
</event>
<event>
 4    2  0.1993797E+006  0.2626266E+01  0.7546771E-02  0.2655352E+00
         22   -1    0    0    0    0  0.00000000000E+00  0.00000000000E+00  0.11611910281E+02  0.11611910281E+02  0.00000000000E+00 0.  1.
         22   -1    0    0    0    0 -0.00000000000E+00 -0.00000000000E+00 -0.63549497970E+00  0.63549497970E+00  0.00000000000E+00 0. -1.
          4    1    1    2  501    0 -0.19836852134E+01 -0.17211239098E+01  0.70533217346E+01  0.75263950222E+01  0.00000000000E+00 0. -1.
         -4    1    1    2    0  501  0.19836852134E+01  0.17211239098E+01  0.39230935664E+01  0.47210102382E+01  0.00000000000E+00 0.  1.
<mgrwt>
<rscale>  0 0.26262663E+01</rscale>
<asrwt>0</asrwt>
<pdfrwt beam="1">0</pdfrwt>
<pdfrwt beam="2">0</pdfrwt>
<totfact> 0.22165956E+12</totfact>
</mgrwt>
</event>
<event>
 4    2  0.1993797E+006  0.2888176E+01  0.7546771E-02  0.2558744E+00
         22   -1    0    0    0    0  0.00000000000E+00  0.00000000000E+00  0.59464633250E+00  0.59464633250E+00  0.00000000000E+00 0.  1.
         22   -1    0    0    0    0 -0.00000000000E+00 -0.00000000000E+00 -0.23615965353E+02  0.23615965353E+02  0.00000000000E+00 0. -1.
          4    1    1    2  501    0  0.13513465510E+01 -0.25525325091E+01 -0.37973379242E+01  0.47708840922E+01  0.00000000000E+00 0.  1.
         -4    1    1    2    0  501 -0.13513465510E+01  0.25525325091E+01 -0.19223981097E+02  0.19439727594E+02  0.00000000000E+00 0. -1.
<mgrwt>
<rscale>  0 0.28881758E+01</rscale>
<asrwt>0</asrwt>
<pdfrwt beam="1">0</pdfrwt>
<pdfrwt beam="2">0</pdfrwt>
<totfact> 0.99345507E+11</totfact>
</mgrwt>
</event>
<event>
 4    2  0.1993797E+006  0.2762771E+01  0.7546771E-02  0.2602916E+00
         22   -1    0    0    0    0  0.00000000000E+00  0.00000000000E+00  0.20261865616E+02  0.20261865616E+02  0.00000000000E+00 0.  1.
         22   -1    0    0    0    0 -0.00000000000E+00 -0.00000000000E+00 -0.11842634847E+01  0.11842634847E+01  0.00000000000E+00 0. -1.
          4    1    1    2  501    0 -0.14244542968E+01 -0.23672416592E+01  0.18393619476E+02  0.18599950015E+02  0.00000000000E+00 0.  1.
         -4    1    1    2    0  501  0.14244542968E+01  0.23672416592E+01  0.68398265506E+00  0.28461790859E+01  0.00000000000E+00 0. -1.
<mgrwt>
<rscale>  0 0.27627709E+01</rscale>
<asrwt>0</asrwt>
<pdfrwt beam="1">0</pdfrwt>
<pdfrwt beam="2">0</pdfrwt>
<totfact> 0.54930645E+11</totfact>
</mgrwt>
</event>
<event>
 4    2  0.1993797E+006  0.2103769E+01  0.7546771E-02  0.2914038E+00
         22   -1    0    0    0    0  0.00000000000E+00  0.00000000000E+00  0.76838447388E+00  0.76838447388E+00  0.00000000000E+00 0.  1.
         22   -1    0    0    0    0 -0.00000000000E+00 -0.00000000000E+00 -0.74058522850E+01  0.74058522850E+01  0.00000000000E+00 0. -1.
          4    1    1    2  501    0 -0.13478364277E+01  0.16152964435E+01 -0.52455200890E+01  0.56516658288E+01  0.00000000000E+00 0. -1.
         -4    1    1    2    0  501  0.13478364277E+01 -0.16152964435E+01 -0.13919477221E+01  0.25225709301E+01  0.00000000000E+00 0.  1.
<mgrwt>
<rscale>  0 0.21037694E+01</rscale>
<asrwt>0</asrwt>
<pdfrwt beam="1">0</pdfrwt>
<pdfrwt beam="2">0</pdfrwt>
<totfact> 0.30757865E+12</totfact>
</mgrwt>
</event>
<event>
 4    2  0.1993797E+006  0.3320746E+01  0.7546771E-02  0.2429607E+00
         22   -1    0    0    0    0  0.00000000000E+00  0.00000000000E+00  0.26652863331E+02  0.26652863331E+02  0.00000000000E+00 0.  1.
         22   -1    0    0    0    0 -0.00000000000E+00 -0.00000000000E+00 -0.47179255137E+00  0.47179255137E+00  0.00000000000E+00 0. -1.
          4    1    1    2  501    0 -0.26770497332E+01  0.19648811082E+01  0.17847936028E+02  0.18154232936E+02  0.00000000000E+00 0.  1.
         -4    1    1    2    0  501  0.26770497332E+01 -0.19648811082E+01  0.83331347516E+01  0.89704229461E+01  0.00000000000E+00 0. -1.
<mgrwt>
<rscale>  0 0.33207459E+01</rscale>
<asrwt>0</asrwt>
<pdfrwt beam="1">0</pdfrwt>
<pdfrwt beam="2">0</pdfrwt>
<totfact> 0.11078071E+12</totfact>
</mgrwt>
</event>
<event>
 4    2  0.1993797E+006  0.2247734E+01  0.7546771E-02  0.2831405E+00
         22   -1    0    0    0    0  0.00000000000E+00  0.00000000000E+00  0.15758829513E+02  0.15758829513E+02  0.00000000000E+00 0.  1.
         22   -1    0    0    0    0 -0.00000000000E+00 -0.00000000000E+00 -0.44279392602E+00  0.44279392602E+00  0.00000000000E+00 0. -1.
          4    1    1    2  501    0 -0.13766887122E+01  0.17768050568E+01  0.11913506519E+02  0.12123693562E+02  0.00000000000E+00 0.  1.
         -4    1    1    2    0  501  0.13766887122E+01 -0.17768050568E+01  0.34025290688E+01  0.40779298773E+01  0.00000000000E+00 0. -1.
<mgrwt>
<rscale>  0 0.22477340E+01</rscale>
<asrwt>0</asrwt>
<pdfrwt beam="1">0</pdfrwt>
<pdfrwt beam="2">0</pdfrwt>
<totfact> 0.22935815E+12</totfact>
</mgrwt>
</event>
<event>
 4    2  0.1993797E+006  0.2036812E+01  0.7546771E-02  0.2956311E+00
         22   -1    0    0    0    0  0.00000000000E+00  0.00000000000E+00  0.13629507015E+01  0.13629507015E+01  0.00000000000E+00 0.  1.
         22   -1    0    0    0    0 -0.00000000000E+00 -0.00000000000E+00 -0.49475516243E+01  0.49475516243E+01  0.00000000000E+00 0. -1.
          4    1    1    2  501    0 -0.10883658383E+01  0.17216453148E+01  0.16491861076E+00  0.20434776574E+01  0.00000000000E+00 0.  1.
         -4    1    1    2    0  501  0.10883658383E+01 -0.17216453148E+01 -0.37495195336E+01  0.42670246684E+01  0.00000000000E+00 0. -1.
<mgrwt>
<rscale>  0 0.20368119E+01</rscale>
<asrwt>0</asrwt>
<pdfrwt beam="1">0</pdfrwt>
<pdfrwt beam="2">0</pdfrwt>
<totfact> 0.25833698E+12</totfact>
</mgrwt>
</event>
<event>
 4    2  0.1993797E+006  0.2675916E+01  0.7546771E-02  0.2635713E+00
         22   -1    0    0    0    0  0.00000000000E+00  0.00000000000E+00  0.43469580163E+00  0.43469580163E+00  0.00000000000E+00 0. -1.
         22   -1    0    0    0    0 -0.00000000000E+00 -0.00000000000E+00 -0.19592365831E+02  0.19592365831E+02  0.00000000000E+00 0.  1.
          4    1    1    2  501    0 -0.17635405931E+01 -0.20125732343E+01 -0.55829610634E+01  0.61911211167E+01  0.00000000000E+00 0. -1.
         -4    1    1    2    0  501  0.17635405931E+01  0.20125732343E+01 -0.13574708966E+02  0.13835940516E+02  0.00000000000E+00 0.  1.
<mgrwt>
<rscale>  0 0.26759160E+01</rscale>
<asrwt>0</asrwt>
<pdfrwt beam="1">0</pdfrwt>
<pdfrwt beam="2">0</pdfrwt>
<totfact> 0.17880019E+12</totfact>
</mgrwt>
</event>
<event>
 4    2  0.1993797E+006  0.2601592E+01  0.7546771E-02  0.2665368E+00
         22   -1    0    0    0    0  0.00000000000E+00  0.00000000000E+00  0.64155760026E+00  0.64155760026E+00  0.00000000000E+00 0. -1.
         22   -1    0    0    0    0 -0.00000000000E+00 -0.00000000000E+00 -0.12276872832E+02  0.12276872832E+02  0.00000000000E+00 0.  1.
          4    1    1    2  501    0 -0.25789434242E+01 -0.34253831986E+00 -0.33949798782E+01  0.42771684628E+01  0.00000000000E+00 0. -1.
         -4    1    1    2    0  501  0.25789434242E+01  0.34253831986E+00 -0.82403353540E+01  0.86412619699E+01  0.00000000000E+00 0.  1.
<mgrwt>
<rscale>  0 0.26015921E+01</rscale>
<asrwt>0</asrwt>
<pdfrwt beam="1">0</pdfrwt>
<pdfrwt beam="2">0</pdfrwt>
<totfact> 0.20489408E+12</totfact>
</mgrwt>
</event>
<event>
 4    2  0.1993797E+006  0.2315638E+01  0.7546771E-02  0.2795847E+00
         22   -1    0    0    0    0  0.00000000000E+00  0.00000000000E+00  0.57196729917E+02  0.57196729917E+02  0.00000000000E+00 0. -1.
         22   -1    0    0    0    0 -0.00000000000E+00 -0.00000000000E+00 -0.72980190037E+00  0.72980190037E+00  0.00000000000E+00 0.  1.
          4    1    1    2  501    0  0.19683727672E+01  0.12197081604E+01  0.55272512077E+02  0.55320997557E+02  0.00000000000E+00 0. -1.
         -4    1    1    2    0  501 -0.19683727672E+01 -0.12197081604E+01  0.11944159396E+01  0.26055342608E+01  0.00000000000E+00 0.  1.
<mgrwt>
<rscale>  0 0.23156380E+01</rscale>
<asrwt>0</asrwt>
<pdfrwt beam="1">0</pdfrwt>
<pdfrwt beam="2">0</pdfrwt>
<totfact> 0.25111504E+11</totfact>
</mgrwt>
</event>
<event>
 4    2  0.1993797E+006  0.2592712E+01  0.7546771E-02  0.2669016E+00
         22   -1    0    0    0    0  0.00000000000E+00  0.00000000000E+00  0.49580202240E+01  0.49580202240E+01  0.00000000000E+00 0.  1.
         22   -1    0    0    0    0 -0.00000000000E+00 -0.00000000000E+00 -0.17342391688E+01  0.17342391688E+01  0.00000000000E+00 0. -1.
          4    1    1    2  501    0  0.10684956840E+00 -0.25905088836E+01  0.31749600536E+01  0.40990882460E+01  0.00000000000E+00 0.  1.
         -4    1    1    2    0  501 -0.10684956840E+00  0.25905088836E+01  0.48821001617E-01  0.25931711468E+01  0.00000000000E+00 0. -1.
<mgrwt>
<rscale>  0 0.25927115E+01</rscale>
<asrwt>0</asrwt>
<pdfrwt beam="1">0</pdfrwt>
<pdfrwt beam="2">0</pdfrwt>
<totfact> 0.19529412E+12</totfact>
</mgrwt>
</event>
<event>
 4    2  0.1993797E+006  0.2374727E+01  0.7546771E-02  0.2766475E+00
         22   -1    0    0    0    0  0.00000000000E+00  0.00000000000E+00  0.17696955978E+01  0.17696955978E+01  0.00000000000E+00 0.  1.
         22   -1    0    0    0    0 -0.00000000000E+00 -0.00000000000E+00 -0.10240500456E+02  0.10240500456E+02  0.00000000000E+00 0. -1.
          4    1    1    2  501    0  0.63954642938E+00 -0.22869863076E+01  0.74855047859E+00  0.24899104051E+01  0.00000000000E+00 0. -1.
         -4    1    1    2    0  501 -0.63954642938E+00  0.22869863076E+01 -0.92193553368E+01  0.95202856487E+01  0.00000000000E+00 0.  1.
<mgrwt>
<rscale>  0 0.23747265E+01</rscale>
<asrwt>0</asrwt>
<pdfrwt beam="1">0</pdfrwt>
<pdfrwt beam="2">0</pdfrwt>
<totfact> 0.80059455E+11</totfact>
</mgrwt>
</event>
<event>
 4    2  0.1993797E+006  0.2731166E+01  0.7546771E-02  0.2614630E+00
         22   -1    0    0    0    0  0.00000000000E+00  0.00000000000E+00  0.13480213180E+01  0.13480213180E+01  0.00000000000E+00 0. -1.
         22   -1    0    0    0    0 -0.00000000000E+00 -0.00000000000E+00 -0.67553088238E+01  0.67553088238E+01  0.00000000000E+00 0.  1.
          4    1    1    2  501    0  0.10763565600E+01  0.25101238410E+01 -0.98052984088E+00  0.29018449149E+01  0.00000000000E+00 0.  1.
         -4    1    1    2    0  501 -0.10763565600E+01 -0.25101238410E+01 -0.44267576650E+01  0.52014852269E+01  0.00000000000E+00 0. -1.
<mgrwt>
<rscale>  0 0.27311655E+01</rscale>
<asrwt>0</asrwt>
<pdfrwt beam="1">0</pdfrwt>
<pdfrwt beam="2">0</pdfrwt>
<totfact> 0.18067121E+12</totfact>
</mgrwt>
</event>
<event>
 4    2  0.1993797E+006  0.3648483E+01  0.7546771E-02  0.2349985E+00
         22   -1    0    0    0    0  0.00000000000E+00  0.00000000000E+00  0.61666125269E+01  0.61666125269E+01  0.00000000000E+00 0. -1.
         22   -1    0    0    0    0 -0.00000000000E+00 -0.00000000000E+00 -0.22225315044E+01  0.22225315044E+01  0.00000000000E+00 0.  1.
          4    1    1    2  501    0 -0.32035885044E+01  0.17459813712E+01  0.12607913980E+01  0.38601846074E+01  0.00000000000E+00 0.  1.
         -4    1    1    2    0  501  0.32035885044E+01 -0.17459813712E+01  0.26832896245E+01  0.45289594239E+01  0.00000000000E+00 0. -1.
<mgrwt>
<rscale>  0 0.36484833E+01</rscale>
<asrwt>0</asrwt>
<pdfrwt beam="1">0</pdfrwt>
<pdfrwt beam="2">0</pdfrwt>
<totfact> 0.11312050E+12</totfact>
</mgrwt>
</event>
<event>
 4    2  0.1993797E+006  0.2110673E+01  0.7546771E-02  0.2909828E+00
         22   -1    0    0    0    0  0.00000000000E+00  0.00000000000E+00  0.69248405262E+00  0.69248405262E+00  0.00000000000E+00 0.  1.
         22   -1    0    0    0    0 -0.00000000000E+00 -0.00000000000E+00 -0.65027006604E+01  0.65027006604E+01  0.00000000000E+00 0. -1.
          4    1    1    2  501    0  0.10565814426E+01  0.18271770484E+01 -0.25333803450E+01  0.32974166075E+01  0.00000000000E+00 0.  1.
         -4    1    1    2    0  501 -0.10565814426E+01 -0.18271770484E+01 -0.32768362628E+01  0.38977681055E+01  0.00000000000E+00 0. -1.
<mgrwt>
<rscale>  0 0.21106730E+01</rscale>
<asrwt>0</asrwt>
<pdfrwt beam="1">0</pdfrwt>
<pdfrwt beam="2">0</pdfrwt>
<totfact> 0.40439458E+12</totfact>
</mgrwt>
</event>
<event>
 4    2  0.1993797E+006  0.2050066E+01  0.7546771E-02  0.2947730E+00
         22   -1    0    0    0    0  0.00000000000E+00  0.00000000000E+00  0.21784727854E+01  0.21784727854E+01  0.00000000000E+00 0.  1.
         22   -1    0    0    0    0 -0.00000000000E+00 -0.00000000000E+00 -0.22472525065E+01  0.22472525065E+01  0.00000000000E+00 0. -1.
          4    1    1    2  501    0  0.15264342094E+01  0.13684921758E+01  0.79806047616E+00  0.21999256248E+01  0.00000000000E+00 0.  1.
         -4    1    1    2    0  501 -0.15264342094E+01 -0.13684921758E+01 -0.86684019719E+00  0.22257996672E+01  0.00000000000E+00 0. -1.
<mgrwt>
<rscale>  0 0.20500664E+01</rscale>
<asrwt>0</asrwt>
<pdfrwt beam="1">0</pdfrwt>
<pdfrwt beam="2">0</pdfrwt>
<totfact> 0.37904232E+12</totfact>
</mgrwt>
</event>
<event>
 4    2  0.1993797E+006  0.2871834E+01  0.7546771E-02  0.2564301E+00
         22   -1    0    0    0    0  0.00000000000E+00  0.00000000000E+00  0.75602447959E+01  0.75602447959E+01  0.00000000000E+00 0.  1.
         22   -1    0    0    0    0 -0.00000000000E+00 -0.00000000000E+00 -0.48080959039E+01  0.48080959039E+01  0.00000000000E+00 0. -1.
          4    1    1    2  501    0 -0.17249376548E+01  0.22960886631E+01  0.68136199184E+01  0.73941091049E+01  0.00000000000E+00 0.  1.
         -4    1    1    2    0  501  0.17249376548E+01 -0.22960886631E+01 -0.40614710265E+01  0.49742315950E+01  0.00000000000E+00 0. -1.
<mgrwt>
<rscale>  0 0.28718344E+01</rscale>
<asrwt>0</asrwt>
<pdfrwt beam="1">0</pdfrwt>
<pdfrwt beam="2">0</pdfrwt>
<totfact> 0.35923180E+11</totfact>
</mgrwt>
</event>
<event>
 4    2  0.1993797E+006  0.2211711E+01  0.7546771E-02  0.2851113E+00
         22   -1    0    0    0    0  0.00000000000E+00  0.00000000000E+00  0.15226363544E+02  0.15226363544E+02  0.00000000000E+00 0. -1.
         22   -1    0    0    0    0 -0.00000000000E+00 -0.00000000000E+00 -0.61506510172E+00  0.61506510172E+00  0.00000000000E+00 0.  1.
          4    1    1    2  501    0  0.95976121705E+00  0.19926168721E+01  0.12779985004E+02  0.12969952979E+02  0.00000000000E+00 0. -1.
         -4    1    1    2    0  501 -0.95976121705E+00 -0.19926168721E+01  0.18313134390E+01  0.28714756667E+01  0.00000000000E+00 0.  1.
<mgrwt>
<rscale>  0 0.22117106E+01</rscale>
<asrwt>0</asrwt>
<pdfrwt beam="1">0</pdfrwt>
<pdfrwt beam="2">0</pdfrwt>
<totfact> 0.16505808E+12</totfact>
</mgrwt>
</event>
<event>
 4    2  0.1993797E+006  0.2748288E+01  0.7546771E-02  0.2608253E+00
         22   -1    0    0    0    0  0.00000000000E+00  0.00000000000E+00  0.10822637212E+01  0.10822637212E+01  0.00000000000E+00 0.  1.
         22   -1    0    0    0    0 -0.00000000000E+00 -0.00000000000E+00 -0.89451547030E+01  0.89451547030E+01  0.00000000000E+00 0. -1.
          4    1    1    2  501    0 -0.26854318639E+01 -0.58441575080E+00 -0.15808528721E+01  0.31705176026E+01  0.00000000000E+00 0.  1.
         -4    1    1    2    0  501  0.26854318639E+01  0.58441575080E+00 -0.62820381097E+01  0.68569008216E+01  0.00000000000E+00 0. -1.
<mgrwt>
<rscale>  0 0.27482878E+01</rscale>
<asrwt>0</asrwt>
<pdfrwt beam="1">0</pdfrwt>
<pdfrwt beam="2">0</pdfrwt>
<totfact> 0.16588048E+12</totfact>
</mgrwt>
</event>
<event>
 4    2  0.1993797E+006  0.2205908E+01  0.7546771E-02  0.2854345E+00
         22   -1    0    0    0    0  0.00000000000E+00  0.00000000000E+00  0.11374217297E+01  0.11374217297E+01  0.00000000000E+00 0.  1.
         22   -1    0    0    0    0 -0.00000000000E+00 -0.00000000000E+00 -0.57118709812E+01  0.57118709812E+01  0.00000000000E+00 0. -1.
          4    1    1    2  501    0  0.53883902497E+00  0.21390846580E+01 -0.57143963151E+00  0.22787219930E+01  0.00000000000E+00 0. -1.
         -4    1    1    2    0  501 -0.53883902497E+00 -0.21390846580E+01 -0.40030096200E+01  0.45705707178E+01  0.00000000000E+00 0.  1.
<mgrwt>
<rscale>  0 0.22059081E+01</rscale>
<asrwt>0</asrwt>
<pdfrwt beam="1">0</pdfrwt>
<pdfrwt beam="2">0</pdfrwt>
<totfact> 0.26808748E+12</totfact>
</mgrwt>
</event>
<event>
 4    2  0.1993797E+006  0.2043767E+01  0.7546771E-02  0.2951795E+00
         22   -1    0    0    0    0  0.00000000000E+00  0.00000000000E+00  0.11449946967E+02  0.11449946967E+02  0.00000000000E+00 0.  1.
         22   -1    0    0    0    0 -0.00000000000E+00 -0.00000000000E+00 -0.36700360381E+00  0.36700360381E+00  0.00000000000E+00 0. -1.
          4    1    1    2  501    0 -0.20142506596E+01  0.34608801456E+00  0.50840197952E+01  0.54794379193E+01  0.00000000000E+00 0. -1.
         -4    1    1    2    0  501  0.20142506596E+01 -0.34608801456E+00  0.59989235678E+01  0.63375126513E+01  0.00000000000E+00 0.  1.
<mgrwt>
<rscale>  0 0.20437668E+01</rscale>
<asrwt>0</asrwt>
<pdfrwt beam="1">0</pdfrwt>
<pdfrwt beam="2">0</pdfrwt>
<totfact> 0.41899306E+12</totfact>
</mgrwt>
</event>
<event>
 4    2  0.1993797E+006  0.2804421E+01  0.7546771E-02  0.2587848E+00
         22   -1    0    0    0    0  0.00000000000E+00  0.00000000000E+00  0.16277024090E+01  0.16277024090E+01  0.00000000000E+00 0. -1.
         22   -1    0    0    0    0 -0.00000000000E+00 -0.00000000000E+00 -0.51191129009E+01  0.51191129009E+01  0.00000000000E+00 0.  1.
          4    1    1    2  501    0  0.25969565189E+01 -0.10585813752E+01 -0.94655570876E+00  0.29598556381E+01  0.00000000000E+00 0. -1.
         -4    1    1    2    0  501 -0.25969565189E+01  0.10585813752E+01 -0.25448547831E+01  0.37869596718E+01  0.00000000000E+00 0.  1.
<mgrwt>
<rscale>  0 0.28044211E+01</rscale>
<asrwt>0</asrwt>
<pdfrwt beam="1">0</pdfrwt>
<pdfrwt beam="2">0</pdfrwt>
<totfact> 0.20230271E+12</totfact>
</mgrwt>
</event>
<event>
 4    2  0.1993797E+006  0.3202032E+01  0.7546771E-02  0.2461950E+00
         22   -1    0    0    0    0  0.00000000000E+00  0.00000000000E+00  0.15776736129E+02  0.15776736129E+02  0.00000000000E+00 0. -1.
         22   -1    0    0    0    0 -0.00000000000E+00 -0.00000000000E+00 -0.65686199136E+00  0.65686199136E+00  0.00000000000E+00 0.  1.
          4    1    1    2  501    0  0.76576190444E+00 -0.31091183893E+01  0.84069880688E+01  0.89961356616E+01  0.00000000000E+00 0. -1.
         -4    1    1    2    0  501 -0.76576190444E+00  0.31091183893E+01  0.67128860692E+01  0.74374624591E+01  0.00000000000E+00 0.  1.
<mgrwt>
<rscale>  0 0.32020319E+01</rscale>
<asrwt>0</asrwt>
<pdfrwt beam="1">0</pdfrwt>
<pdfrwt beam="2">0</pdfrwt>
<totfact> 0.14665595E+12</totfact>
</mgrwt>
</event>
<event>
 4    2  0.1993797E+006  0.2130270E+01  0.7546771E-02  0.2898020E+00
         22   -1    0    0    0    0  0.00000000000E+00  0.00000000000E+00  0.50549499056E+01  0.50549499056E+01  0.00000000000E+00 0.  1.
         22   -1    0    0    0    0 -0.00000000000E+00 -0.00000000000E+00 -0.11151398877E+01  0.11151398877E+01  0.00000000000E+00 0. -1.
          4    1    1    2  501    0  0.21257337312E+01 -0.13894024995E+00  0.33320489444E+01  0.39548196491E+01  0.00000000000E+00 0.  1.
         -4    1    1    2    0  501 -0.21257337312E+01  0.13894024995E+00  0.60776107351E+00  0.22152701441E+01  0.00000000000E+00 0. -1.
<mgrwt>
<rscale>  0 0.21302695E+01</rscale>
<asrwt>0</asrwt>
<pdfrwt beam="1">0</pdfrwt>
<pdfrwt beam="2">0</pdfrwt>
<totfact> 0.31699964E+12</totfact>
</mgrwt>
</event>
<event>
 4    2  0.1993797E+006  0.2337509E+01  0.7546771E-02  0.2784812E+00
         22   -1    0    0    0    0  0.00000000000E+00  0.00000000000E+00  0.19280360373E+01  0.19280360373E+01  0.00000000000E+00 0. -1.
         22   -1    0    0    0    0 -0.00000000000E+00 -0.00000000000E+00 -0.60040765613E+01  0.60040765613E+01  0.00000000000E+00 0.  1.
          4    1    1    2  501    0 -0.22841111834E+01 -0.49677196682E+00  0.84385030204E+00  0.24851618896E+01  0.00000000000E+00 0. -1.
         -4    1    1    2    0  501  0.22841111834E+01  0.49677196682E+00 -0.49198908261E+01  0.54469507090E+01  0.00000000000E+00 0.  1.
<mgrwt>
<rscale>  0 0.23375086E+01</rscale>
<asrwt>0</asrwt>
<pdfrwt beam="1">0</pdfrwt>
<pdfrwt beam="2">0</pdfrwt>
<totfact> 0.13767111E+12</totfact>
</mgrwt>
</event>
<event>
 4    2  0.1993797E+006  0.2776629E+01  0.7546771E-02  0.2597857E+00
         22   -1    0    0    0    0  0.00000000000E+00  0.00000000000E+00  0.22631695377E+01  0.22631695377E+01  0.00000000000E+00 0.  1.
         22   -1    0    0    0    0 -0.00000000000E+00 -0.00000000000E+00 -0.34077692888E+01  0.34077692888E+01  0.00000000000E+00 0. -1.
          4    1    1    2  501    0 -0.36331347630E+00  0.27527575968E+01 -0.51935882245E+00  0.28247840015E+01  0.00000000000E+00 0. -1.
         -4    1    1    2    0  501  0.36331347630E+00 -0.27527575968E+01 -0.62524092874E+00  0.28461548250E+01  0.00000000000E+00 0.  1.
<mgrwt>
<rscale>  0 0.27766294E+01</rscale>
<asrwt>0</asrwt>
<pdfrwt beam="1">0</pdfrwt>
<pdfrwt beam="2">0</pdfrwt>
<totfact> 0.22319014E+12</totfact>
</mgrwt>
</event>
<event>
 4    2  0.1993797E+006  0.2023255E+01  0.7546771E-02  0.2965203E+00
         22   -1    0    0    0    0  0.00000000000E+00  0.00000000000E+00  0.31190363464E+00  0.31190363464E+00  0.00000000000E+00 0.  1.
         22   -1    0    0    0    0 -0.00000000000E+00 -0.00000000000E+00 -0.13801217871E+02  0.13801217871E+02  0.00000000000E+00 0. -1.
          4    1    1    2  501    0  0.18894158260E+01 -0.72364839820E+00 -0.51820173806E+01  0.55629904998E+01  0.00000000000E+00 0. -1.
         -4    1    1    2    0  501 -0.18894158260E+01  0.72364839820E+00 -0.83072968562E+01  0.85501310063E+01  0.00000000000E+00 0.  1.
<mgrwt>
<rscale>  0 0.20232546E+01</rscale>
<asrwt>0</asrwt>
<pdfrwt beam="1">0</pdfrwt>
<pdfrwt beam="2">0</pdfrwt>
<totfact> 0.40036375E+12</totfact>
</mgrwt>
</event>
<event>
 4    2  0.1993797E+006  0.2099953E+01  0.7546771E-02  0.2916377E+00
         22   -1    0    0    0    0  0.00000000000E+00  0.00000000000E+00  0.74122682964E+00  0.74122682964E+00  0.00000000000E+00 0. -1.
         22   -1    0    0    0    0 -0.00000000000E+00 -0.00000000000E+00 -0.15763287804E+02  0.15763287804E+02  0.00000000000E+00 0.  1.
          4    1    1    2  501    0 -0.19547142386E+01 -0.76739554536E+00 -0.99967460933E+00  0.23257585864E+01  0.00000000000E+00 0. -1.
         -4    1    1    2    0  501  0.19547142386E+01  0.76739554536E+00 -0.14022386365E+02  0.14178756047E+02  0.00000000000E+00 0.  1.
<mgrwt>
<rscale>  0 0.20999533E+01</rscale>
<asrwt>0</asrwt>
<pdfrwt beam="1">0</pdfrwt>
<pdfrwt beam="2">0</pdfrwt>
<totfact> 0.12798241E+12</totfact>
</mgrwt>
</event>
<event>
 4    2  0.1993797E+006  0.2084683E+01  0.7546771E-02  0.2925819E+00
         22   -1    0    0    0    0  0.00000000000E+00  0.00000000000E+00  0.13625786346E+02  0.13625786346E+02  0.00000000000E+00 0.  1.
         22   -1    0    0    0    0 -0.00000000000E+00 -0.00000000000E+00 -0.32572609678E+00  0.32572609678E+00  0.00000000000E+00 0. -1.
          4    1    1    2  501    0  0.20512792524E+01 -0.37169373907E+00  0.76563892338E+01  0.79351243788E+01  0.00000000000E+00 0.  1.
         -4    1    1    2    0  501 -0.20512792524E+01  0.37169373907E+00  0.56436710159E+01  0.60163880645E+01  0.00000000000E+00 0. -1.
<mgrwt>
<rscale>  0 0.20846829E+01</rscale>
<asrwt>0</asrwt>
<pdfrwt beam="1">0</pdfrwt>
<pdfrwt beam="2">0</pdfrwt>
<totfact> 0.38738521E+12</totfact>
</mgrwt>
</event>
<event>
 4    2  0.1993797E+006  0.2155354E+01  0.7546771E-02  0.2883209E+00
         22   -1    0    0    0    0  0.00000000000E+00  0.00000000000E+00  0.26650427580E+01  0.26650427580E+01  0.00000000000E+00 0.  1.
         22   -1    0    0    0    0 -0.00000000000E+00 -0.00000000000E+00 -0.30314408982E+01  0.30314408982E+01  0.00000000000E+00 0. -1.
          4    1    1    2  501    0  0.15956993912E+00  0.21494391479E+01  0.16735808002E+01  0.27288136453E+01  0.00000000000E+00 0.  1.
         -4    1    1    2    0  501 -0.15956993912E+00 -0.21494391479E+01 -0.20399789404E+01  0.29676700109E+01  0.00000000000E+00 0. -1.
<mgrwt>
<rscale>  0 0.21553541E+01</rscale>
<asrwt>0</asrwt>
<pdfrwt beam="1">0</pdfrwt>
<pdfrwt beam="2">0</pdfrwt>
<totfact> 0.21163059E+12</totfact>
</mgrwt>
</event>
<event>
 4    2  0.1993797E+006  0.3739467E+01  0.7546771E-02  0.2330045E+00
         22   -1    0    0    0    0  0.00000000000E+00  0.00000000000E+00  0.61801759014E+02  0.61801759014E+02  0.00000000000E+00 0. -1.
         22   -1    0    0    0    0 -0.00000000000E+00 -0.00000000000E+00 -0.39446869217E+00  0.39446869217E+00  0.00000000000E+00 0.  1.
          4    1    1    2  501    0  0.12436307749E+01 -0.35266125676E+01  0.51010596724E+02  0.51147478842E+02  0.00000000000E+00 0. -1.
         -4    1    1    2    0  501 -0.12436307749E+01  0.35266125676E+01  0.10396693597E+02  0.11048748864E+02  0.00000000000E+00 0.  1.
<mgrwt>
<rscale>  0 0.37394670E+01</rscale>
<asrwt>0</asrwt>
<pdfrwt beam="1">0</pdfrwt>
<pdfrwt beam="2">0</pdfrwt>
<totfact> 0.45392712E+11</totfact>
</mgrwt>
</event>
<event>
 4    2  0.1993797E+006  0.2078035E+01  0.7546771E-02  0.2929972E+00
         22   -1    0    0    0    0  0.00000000000E+00  0.00000000000E+00  0.21061303952E+01  0.21061303952E+01  0.00000000000E+00 0. -1.
         22   -1    0    0    0    0 -0.00000000000E+00 -0.00000000000E+00 -0.25229437746E+01  0.25229437746E+01  0.00000000000E+00 0.  1.
          4    1    1    2  501    0 -0.80790059693E+00  0.19145560174E+01  0.79337020160E+00  0.22243345960E+01  0.00000000000E+00 0. -1.
         -4    1    1    2    0  501  0.80790059693E+00 -0.19145560174E+01 -0.12101835810E+01  0.24047395738E+01  0.00000000000E+00 0.  1.
<mgrwt>
<rscale>  0 0.20780347E+01</rscale>
<asrwt>0</asrwt>
<pdfrwt beam="1">0</pdfrwt>
<pdfrwt beam="2">0</pdfrwt>
<totfact> 0.34458818E+12</totfact>
</mgrwt>
</event>
<event>
 4    2  0.1993797E+006  0.2571734E+01  0.7546771E-02  0.2677726E+00
         22   -1    0    0    0    0  0.00000000000E+00  0.00000000000E+00  0.51469682869E+01  0.51469682869E+01  0.00000000000E+00 0. -1.
         22   -1    0    0    0    0 -0.00000000000E+00 -0.00000000000E+00 -0.49733675812E+01  0.49733675812E+01  0.00000000000E+00 0.  1.
          4    1    1    2  501    0  0.55844578089E+00 -0.25103688269E+01  0.44444992309E+01  0.51349183782E+01  0.00000000000E+00 0. -1.
         -4    1    1    2    0  501 -0.55844578089E+00  0.25103688269E+01 -0.42708985251E+01  0.49854174900E+01  0.00000000000E+00 0.  1.
<mgrwt>
<rscale>  0 0.25717335E+01</rscale>
<asrwt>0</asrwt>
<pdfrwt beam="1">0</pdfrwt>
<pdfrwt beam="2">0</pdfrwt>
<totfact> 0.54579471E+11</totfact>
</mgrwt>
</event>
<event>
 4    2  0.1993797E+006  0.2041541E+01  0.7546771E-02  0.2953237E+00
         22   -1    0    0    0    0  0.00000000000E+00  0.00000000000E+00  0.71075239171E+01  0.71075239171E+01  0.00000000000E+00 0.  1.
         22   -1    0    0    0    0 -0.00000000000E+00 -0.00000000000E+00 -0.70202311594E+00  0.70202311594E+00  0.00000000000E+00 0. -1.
          4    1    1    2  501    0 -0.18843895170E+01 -0.78547265078E+00  0.47873959759E+01  0.52045222035E+01  0.00000000000E+00 0.  1.
         -4    1    1    2    0  501  0.18843895170E+01  0.78547265078E+00  0.16181048253E+01  0.26050248296E+01  0.00000000000E+00 0. -1.
<mgrwt>
<rscale>  0 0.20415414E+01</rscale>
<asrwt>0</asrwt>
<pdfrwt beam="1">0</pdfrwt>
<pdfrwt beam="2">0</pdfrwt>
<totfact> 0.35800922E+12</totfact>
</mgrwt>
</event>
<event>
 4    2  0.1993797E+006  0.2767909E+01  0.7546771E-02  0.2601035E+00
         22   -1    0    0    0    0  0.00000000000E+00  0.00000000000E+00  0.22442325677E+00  0.22442325677E+00  0.00000000000E+00 0.  1.
         22   -1    0    0    0    0 -0.00000000000E+00 -0.00000000000E+00 -0.34329681876E+02  0.34329681876E+02  0.00000000000E+00 0. -1.
          4    1    1    2  501    0 -0.26832674303E+00  0.27548725551E+01 -0.15761045503E+02  0.16002246011E+02  0.00000000000E+00 0. -1.
         -4    1    1    2    0  501  0.26832674303E+00 -0.27548725551E+01 -0.18344213116E+02  0.18551859122E+02  0.00000000000E+00 0.  1.
<mgrwt>
<rscale>  0 0.27679093E+01</rscale>
<asrwt>0</asrwt>
<pdfrwt beam="1">0</pdfrwt>
<pdfrwt beam="2">0</pdfrwt>
<totfact> 0.18471782E+12</totfact>
</mgrwt>
</event>
<event>
 4    2  0.1993797E+006  0.2713891E+01  0.7546771E-02  0.2621137E+00
         22   -1    0    0    0    0  0.00000000000E+00  0.00000000000E+00  0.14032377072E+02  0.14032377072E+02  0.00000000000E+00 0. -1.
         22   -1    0    0    0    0 -0.00000000000E+00 -0.00000000000E+00 -0.58091634239E+00  0.58091634239E+00  0.00000000000E+00 0.  1.
          4    1    1    2  501    0 -0.27057218503E+01  0.21040657131E+00  0.89952149907E+01  0.93956955243E+01  0.00000000000E+00 0. -1.
         -4    1    1    2    0  501  0.27057218503E+01 -0.21040657131E+00  0.44562457387E+01  0.52175978899E+01  0.00000000000E+00 0.  1.
<mgrwt>
<rscale>  0 0.27138905E+01</rscale>
<asrwt>0</asrwt>
<pdfrwt beam="1">0</pdfrwt>
<pdfrwt beam="2">0</pdfrwt>
<totfact> 0.19469045E+12</totfact>
</mgrwt>
</event>
<event>
 4    2  0.1993797E+006  0.2477512E+01  0.7546771E-02  0.2718528E+00
         22   -1    0    0    0    0  0.00000000000E+00  0.00000000000E+00  0.15839272238E+01  0.15839272238E+01  0.00000000000E+00 0.  1.
         22   -1    0    0    0    0 -0.00000000000E+00 -0.00000000000E+00 -0.39832261317E+01  0.39832261317E+01  0.00000000000E+00 0. -1.
          4    1    1    2  501    0  0.15854159057E+01  0.19038180081E+01 -0.74128626850E+00  0.25860340164E+01  0.00000000000E+00 0. -1.
         -4    1    1    2    0  501 -0.15854159057E+01 -0.19038180081E+01 -0.16580126394E+01  0.29811193391E+01  0.00000000000E+00 0.  1.
<mgrwt>
<rscale>  0 0.24775122E+01</rscale>
<asrwt>0</asrwt>
<pdfrwt beam="1">0</pdfrwt>
<pdfrwt beam="2">0</pdfrwt>
<totfact> 0.28072337E+12</totfact>
</mgrwt>
</event>
<event>
 4    2  0.1993797E+006  0.2015296E+01  0.7546771E-02  0.2970477E+00
         22   -1    0    0    0    0  0.00000000000E+00  0.00000000000E+00  0.35400007684E+01  0.35400007684E+01  0.00000000000E+00 0. -1.
         22   -1    0    0    0    0 -0.00000000000E+00 -0.00000000000E+00 -0.11472990663E+01  0.11472990663E+01  0.00000000000E+00 0.  1.
          4    1    1    2  501    0 -0.18013309152E+01 -0.90367280971E+00  0.12018008683E+01  0.23464319594E+01  0.00000000000E+00 0. -1.
         -4    1    1    2    0  501  0.18013309152E+01  0.90367280971E+00  0.11909008338E+01  0.23408678752E+01  0.00000000000E+00 0.  1.
<mgrwt>
<rscale>  0 0.20152959E+01</rscale>
<asrwt>0</asrwt>
<pdfrwt beam="1">0</pdfrwt>
<pdfrwt beam="2">0</pdfrwt>
<totfact> 0.46693234E+12</totfact>
</mgrwt>
</event>
<event>
 4    2  0.1993797E+006  0.3569588E+01  0.7546771E-02  0.2367986E+00
         22   -1    0    0    0    0  0.00000000000E+00  0.00000000000E+00  0.46287302968E+02  0.46287302968E+02  0.00000000000E+00 0. -1.
         22   -1    0    0    0    0 -0.00000000000E+00 -0.00000000000E+00 -0.32178716517E+00  0.32178716517E+00  0.00000000000E+00 0.  1.
          4    1    1    2  501    0  0.29335969554E+01  0.20337070654E+01  0.31842427777E+02  0.32041881378E+02  0.00000000000E+00 0. -1.
         -4    1    1    2    0  501 -0.29335969554E+01 -0.20337070654E+01  0.14123088027E+02  0.14567208756E+02  0.00000000000E+00 0.  1.
<mgrwt>
<rscale>  0 0.35695876E+01</rscale>
<asrwt>0</asrwt>
<pdfrwt beam="1">0</pdfrwt>
<pdfrwt beam="2">0</pdfrwt>
<totfact> 0.83724943E+11</totfact>
</mgrwt>
</event>
<event>
 4    2  0.1993797E+006  0.2121073E+01  0.7546771E-02  0.2903535E+00
         22   -1    0    0    0    0  0.00000000000E+00  0.00000000000E+00  0.83099464766E+01  0.83099464766E+01  0.00000000000E+00 0.  1.
         22   -1    0    0    0    0 -0.00000000000E+00 -0.00000000000E+00 -0.61944539018E+00  0.61944539018E+00  0.00000000000E+00 0. -1.
          4    1    1    2  501    0  0.20304575617E+01 -0.61334660938E+00  0.22604239013E+01  0.30997529234E+01  0.00000000000E+00 0. -1.
         -4    1    1    2    0  501 -0.20304575617E+01  0.61334660938E+00  0.54300771852E+01  0.58296389434E+01  0.00000000000E+00 0.  1.
<mgrwt>
<rscale>  0 0.21210733E+01</rscale>
<asrwt>0</asrwt>
<pdfrwt beam="1">0</pdfrwt>
<pdfrwt beam="2">0</pdfrwt>
<totfact> 0.34205329E+12</totfact>
</mgrwt>
</event>
<event>
 4    2  0.1993797E+006  0.2771213E+01  0.7546771E-02  0.2599829E+00
         22   -1    0    0    0    0  0.00000000000E+00  0.00000000000E+00  0.71551988894E+00  0.71551988894E+00  0.00000000000E+00 0.  1.
         22   -1    0    0    0    0 -0.00000000000E+00 -0.00000000000E+00 -0.12294506838E+02  0.12294506838E+02  0.00000000000E+00 0. -1.
          4    1    1    2  501    0  0.18751208977E+01 -0.20404763050E+01 -0.34711654282E+01  0.44416901471E+01  0.00000000000E+00 0. -1.
         -4    1    1    2    0  501 -0.18751208977E+01  0.20404763050E+01 -0.81078215207E+01  0.85683365798E+01  0.00000000000E+00 0.  1.
<mgrwt>
<rscale>  0 0.27712131E+01</rscale>
<asrwt>0</asrwt>
<pdfrwt beam="1">0</pdfrwt>
<pdfrwt beam="2">0</pdfrwt>
<totfact> 0.18072219E+12</totfact>
</mgrwt>
</event>
<event>
 4    2  0.1993797E+006  0.2464333E+01  0.7546771E-02  0.2724466E+00
         22   -1    0    0    0    0  0.00000000000E+00  0.00000000000E+00  0.45380042635E+01  0.45380042635E+01  0.00000000000E+00 0.  1.
         22   -1    0    0    0    0 -0.00000000000E+00 -0.00000000000E+00 -0.32347785016E+02  0.32347785016E+02  0.00000000000E+00 0. -1.
          4    1    1    2  501    0 -0.20620369790E+01  0.13494228038E+01  0.41524801209E+01  0.48286674726E+01  0.00000000000E+00 0.  1.
         -4    1    1    2    0  501  0.20620369790E+01 -0.13494228038E+01 -0.31962260874E+02  0.32057121807E+02  0.00000000000E+00 0. -1.
<mgrwt>
<rscale>  0 0.24643333E+01</rscale>
<asrwt>0</asrwt>
<pdfrwt beam="1">0</pdfrwt>
<pdfrwt beam="2">0</pdfrwt>
<totfact> 0.63871700E+10</totfact>
</mgrwt>
</event>
<event>
 4    2  0.1993797E+006  0.2111268E+01  0.7546771E-02  0.2909466E+00
         22   -1    0    0    0    0  0.00000000000E+00  0.00000000000E+00  0.40428027231E+00  0.40428027231E+00  0.00000000000E+00 0. -1.
         22   -1    0    0    0    0 -0.00000000000E+00 -0.00000000000E+00 -0.12248373331E+02  0.12248373331E+02  0.00000000000E+00 0.  1.
          4    1    1    2  501    0  0.15103969197E+01  0.14751796437E+01 -0.39232156382E+01  0.44552300480E+01  0.00000000000E+00 0.  1.
         -4    1    1    2    0  501 -0.15103969197E+01 -0.14751796437E+01 -0.79208774207E+01  0.81974235556E+01  0.00000000000E+00 0. -1.
<mgrwt>
<rscale>  0 0.21112683E+01</rscale>
<asrwt>0</asrwt>
<pdfrwt beam="1">0</pdfrwt>
<pdfrwt beam="2">0</pdfrwt>
<totfact> 0.34615721E+12</totfact>
</mgrwt>
</event>
<event>
 4    2  0.1993797E+006  0.2029078E+01  0.7546771E-02  0.2961369E+00
         22   -1    0    0    0    0  0.00000000000E+00  0.00000000000E+00  0.84641689795E+00  0.84641689795E+00  0.00000000000E+00 0. -1.
         22   -1    0    0    0    0 -0.00000000000E+00 -0.00000000000E+00 -0.50451258286E+01  0.50451258286E+01  0.00000000000E+00 0.  1.
          4    1    1    2  501    0 -0.20237785113E+01 -0.14655276469E+00 -0.15415390799E+01  0.25482346654E+01  0.00000000000E+00 0. -1.
         -4    1    1    2    0  501  0.20237785113E+01  0.14655276469E+00 -0.26571698508E+01  0.33433080611E+01  0.00000000000E+00 0.  1.
<mgrwt>
<rscale>  0 0.20290779E+01</rscale>
<asrwt>0</asrwt>
<pdfrwt beam="1">0</pdfrwt>
<pdfrwt beam="2">0</pdfrwt>
<totfact> 0.43523454E+12</totfact>
</mgrwt>
</event>
<event>
 4    2  0.1993797E+006  0.3175168E+01  0.7546771E-02  0.2469565E+00
         22   -1    0    0    0    0  0.00000000000E+00  0.00000000000E+00  0.17466132109E+01  0.17466132109E+01  0.00000000000E+00 0. -1.
         22   -1    0    0    0    0 -0.00000000000E+00 -0.00000000000E+00 -0.78895035660E+01  0.78895035660E+01  0.00000000000E+00 0.  1.
          4    1    1    2  501    0 -0.11623031101E+01  0.29547828284E+01 -0.57544113438E+00  0.32268905438E+01  0.00000000000E+00 0. -1.
         -4    1    1    2    0  501  0.11623031101E+01 -0.29547828284E+01 -0.55674492207E+01  0.64092262332E+01  0.00000000000E+00 0.  1.
<mgrwt>
<rscale>  0 0.31751677E+01</rscale>
<asrwt>0</asrwt>
<pdfrwt beam="1">0</pdfrwt>
<pdfrwt beam="2">0</pdfrwt>
<totfact> 0.11134002E+12</totfact>
</mgrwt>
</event>
<event>
 4    2  0.1993797E+006  0.2479122E+01  0.7546771E-02  0.2717806E+00
         22   -1    0    0    0    0  0.00000000000E+00  0.00000000000E+00  0.28326626973E+01  0.28326626973E+01  0.00000000000E+00 0. -1.
         22   -1    0    0    0    0 -0.00000000000E+00 -0.00000000000E+00 -0.24278557594E+01  0.24278557594E+01  0.00000000000E+00 0.  1.
          4    1    1    2  501    0  0.14452343019E+01  0.20142854361E+01 -0.65527035647E+00  0.25642595901E+01  0.00000000000E+00 0. -1.
         -4    1    1    2    0  501 -0.14452343019E+01 -0.20142854361E+01  0.10600772944E+01  0.26962588666E+01  0.00000000000E+00 0.  1.
<mgrwt>
<rscale>  0 0.24791224E+01</rscale>
<asrwt>0</asrwt>
<pdfrwt beam="1">0</pdfrwt>
<pdfrwt beam="2">0</pdfrwt>
<totfact> 0.25532525E+12</totfact>
</mgrwt>
</event>
<event>
 4    2  0.1993797E+006  0.3019480E+01  0.7546771E-02  0.2516060E+00
         22   -1    0    0    0    0  0.00000000000E+00  0.00000000000E+00  0.20213489236E+01  0.20213489236E+01  0.00000000000E+00 0. -1.
         22   -1    0    0    0    0 -0.00000000000E+00 -0.00000000000E+00 -0.57120400029E+01  0.57120400029E+01  0.00000000000E+00 0.  1.
          4    1    1    2  501    0  0.29223572787E+01 -0.75966127848E+00 -0.36187861997E+01  0.47130532441E+01  0.00000000000E+00 0.  1.
         -4    1    1    2    0  501 -0.29223572787E+01  0.75966127848E+00 -0.71904879629E-01  0.30203356824E+01  0.00000000000E+00 0. -1.
<mgrwt>
<rscale>  0 0.30194796E+01</rscale>
<asrwt>0</asrwt>
<pdfrwt beam="1">0</pdfrwt>
<pdfrwt beam="2">0</pdfrwt>
<totfact> 0.13831433E+12</totfact>
</mgrwt>
</event>
<event>
 4    2  0.1993797E+006  0.3388572E+01  0.7546771E-02  0.2412027E+00
         22   -1    0    0    0    0  0.00000000000E+00  0.00000000000E+00  0.58183781873E+01  0.58183781873E+01  0.00000000000E+00 0.  1.
         22   -1    0    0    0    0 -0.00000000000E+00 -0.00000000000E+00 -0.21651371240E+01  0.21651371240E+01  0.00000000000E+00 0. -1.
          4    1    1    2  501    0  0.52440840120E+00  0.33477478906E+01  0.30142756603E+01  0.45352263302E+01  0.00000000000E+00 0.  1.
         -4    1    1    2    0  501 -0.52440840120E+00 -0.33477478906E+01  0.63896540306E+00  0.34482889810E+01  0.00000000000E+00 0. -1.
<mgrwt>
<rscale>  0 0.33885720E+01</rscale>
<asrwt>0</asrwt>
<pdfrwt beam="1">0</pdfrwt>
<pdfrwt beam="2">0</pdfrwt>
<totfact> 0.12495917E+12</totfact>
</mgrwt>
</event>
<event>
 4    2  0.1993797E+006  0.3284105E+01  0.7546771E-02  0.2439370E+00
         22   -1    0    0    0    0  0.00000000000E+00  0.00000000000E+00  0.20334509909E+02  0.20334509909E+02  0.00000000000E+00 0. -1.
         22   -1    0    0    0    0 -0.00000000000E+00 -0.00000000000E+00 -0.57746087950E+00  0.57746087950E+00  0.00000000000E+00 0.  1.
          4    1    1    2  501    0  0.24902193975E+01  0.21410633161E+01  0.12863575089E+02  0.13276178247E+02  0.00000000000E+00 0. -1.
         -4    1    1    2    0  501 -0.24902193975E+01 -0.21410633161E+01  0.68934739405E+01  0.76357925417E+01  0.00000000000E+00 0.  1.
<mgrwt>
<rscale>  0 0.32841049E+01</rscale>
<asrwt>0</asrwt>
<pdfrwt beam="1">0</pdfrwt>
<pdfrwt beam="2">0</pdfrwt>
<totfact> 0.12386788E+12</totfact>
</mgrwt>
</event>
<event>
 4    2  0.1993797E+006  0.2021222E+01  0.7546771E-02  0.2966546E+00
         22   -1    0    0    0    0  0.00000000000E+00  0.00000000000E+00  0.54482581262E+01  0.54482581262E+01  0.00000000000E+00 0. -1.
         22   -1    0    0    0    0 -0.00000000000E+00 -0.00000000000E+00 -0.17316418331E+01  0.17316418331E+01  0.00000000000E+00 0.  1.
          4    1    1    2  501    0 -0.20154829841E+01 -0.15220476431E+00  0.45614611585E+01  0.49892149532E+01  0.00000000000E+00 0. -1.
         -4    1    1    2    0  501  0.20154829841E+01  0.15220476431E+00 -0.84484486531E+00  0.21906850061E+01  0.00000000000E+00 0.  1.
<mgrwt>
<rscale>  0 0.20212219E+01</rscale>
<asrwt>0</asrwt>
<pdfrwt beam="1">0</pdfrwt>
<pdfrwt beam="2">0</pdfrwt>
<totfact> 0.17492820E+12</totfact>
</mgrwt>
</event>
<event>
 4    2  0.1993797E+006  0.2038145E+01  0.7546771E-02  0.2955443E+00
         22   -1    0    0    0    0  0.00000000000E+00  0.00000000000E+00  0.18832482913E+01  0.18832482913E+01  0.00000000000E+00 0.  1.
         22   -1    0    0    0    0 -0.00000000000E+00 -0.00000000000E+00 -0.22166419096E+01  0.22166419096E+01  0.00000000000E+00 0. -1.
          4    1    1    2  501    0 -0.15674646038E+01  0.13027243739E+01 -0.23214600624E-01  0.20382774581E+01  0.00000000000E+00 0. -1.
         -4    1    1    2    0  501  0.15674646038E+01 -0.13027243739E+01 -0.31017901774E+00  0.20616127428E+01  0.00000000000E+00 0.  1.
<mgrwt>
<rscale>  0 0.20381453E+01</rscale>
<asrwt>0</asrwt>
<pdfrwt beam="1">0</pdfrwt>
<pdfrwt beam="2">0</pdfrwt>
<totfact> 0.45584795E+12</totfact>
</mgrwt>
</event>
<event>
 4    2  0.1993797E+006  0.2131497E+01  0.7546771E-02  0.2897288E+00
         22   -1    0    0    0    0  0.00000000000E+00  0.00000000000E+00  0.68338753757E+01  0.68338753757E+01  0.00000000000E+00 0. -1.
         22   -1    0    0    0    0 -0.00000000000E+00 -0.00000000000E+00 -0.66485889027E+00  0.66485889027E+00  0.00000000000E+00 0.  1.
          4    1    1    2  501    0 -0.20763363247E+01  0.48177268449E+00  0.31142211616E+01  0.37738111898E+01  0.00000000000E+00 0. -1.
         -4    1    1    2    0  501  0.20763363247E+01 -0.48177268449E+00  0.30547953238E+01  0.37249230761E+01  0.00000000000E+00 0.  1.
<mgrwt>
<rscale>  0 0.21314965E+01</rscale>
<asrwt>0</asrwt>
<pdfrwt beam="1">0</pdfrwt>
<pdfrwt beam="2">0</pdfrwt>
<totfact> 0.39911876E+12</totfact>
</mgrwt>
</event>
<event>
 4    2  0.1993797E+006  0.2356281E+01  0.7546771E-02  0.2775494E+00
         22   -1    0    0    0    0  0.00000000000E+00  0.00000000000E+00  0.10591190333E+01  0.10591190333E+01  0.00000000000E+00 0. -1.
         22   -1    0    0    0    0 -0.00000000000E+00 -0.00000000000E+00 -0.65987528711E+01  0.65987528711E+01  0.00000000000E+00 0.  1.
          4    1    1    2  501    0 -0.20351862391E+01  0.11874671732E+01 -0.10337220082E+01  0.25730609215E+01  0.00000000000E+00 0.  1.
         -4    1    1    2    0  501  0.20351862391E+01 -0.11874671732E+01 -0.45059118297E+01  0.50848109830E+01  0.00000000000E+00 0. -1.
<mgrwt>
<rscale>  0 0.23562812E+01</rscale>
<asrwt>0</asrwt>
<pdfrwt beam="1">0</pdfrwt>
<pdfrwt beam="2">0</pdfrwt>
<totfact> 0.24493393E+12</totfact>
</mgrwt>
</event>
<event>
 4    2  0.1993797E+006  0.2067013E+01  0.7546771E-02  0.2936914E+00
         22   -1    0    0    0    0  0.00000000000E+00  0.00000000000E+00  0.68437596451E+01  0.68437596451E+01  0.00000000000E+00 0. -1.
         22   -1    0    0    0    0 -0.00000000000E+00 -0.00000000000E+00 -0.12088671221E+01  0.12088671221E+01  0.00000000000E+00 0.  1.
          4    1    1    2  501    0  0.95874236501E+00  0.18312165519E+01  0.56173072560E+01  0.59855393902E+01  0.00000000000E+00 0. -1.
         -4    1    1    2    0  501 -0.95874236501E+00 -0.18312165519E+01  0.17585266988E-01  0.20670873770E+01  0.00000000000E+00 0.  1.
<mgrwt>
<rscale>  0 0.20670126E+01</rscale>
<asrwt>0</asrwt>
<pdfrwt beam="1">0</pdfrwt>
<pdfrwt beam="2">0</pdfrwt>
<totfact> 0.20154692E+12</totfact>
</mgrwt>
</event>
<event>
 4    2  0.1993797E+006  0.2475765E+01  0.7546771E-02  0.2719312E+00
         22   -1    0    0    0    0  0.00000000000E+00  0.00000000000E+00  0.11471788882E+00  0.11471788882E+00  0.00000000000E+00 0.  1.
         22   -1    0    0    0    0 -0.00000000000E+00 -0.00000000000E+00 -0.61251791281E+02  0.61251791281E+02  0.00000000000E+00 0. -1.
          4    1    1    2  501    0  0.93592003463E+00 -0.22920436027E+01 -0.19604081485E+02  0.19759793042E+02  0.00000000000E+00 0.  1.
         -4    1    1    2    0  501 -0.93592003463E+00  0.22920436027E+01 -0.41532991907E+02  0.41606716128E+02  0.00000000000E+00 0. -1.
<mgrwt>
<rscale>  0 0.24757646E+01</rscale>
<asrwt>0</asrwt>
<pdfrwt beam="1">0</pdfrwt>
<pdfrwt beam="2">0</pdfrwt>
<totfact> 0.18242799E+12</totfact>
</mgrwt>
</event>
<event>
 4    2  0.1993797E+006  0.3156207E+01  0.7546771E-02  0.2475009E+00
         22   -1    0    0    0    0  0.00000000000E+00  0.00000000000E+00  0.17032342784E+01  0.17032342784E+01  0.00000000000E+00 0.  1.
         22   -1    0    0    0    0 -0.00000000000E+00 -0.00000000000E+00 -0.21055124246E+02  0.21055124246E+02  0.00000000000E+00 0. -1.
          4    1    1    2  501    0  0.31488616845E+01  0.21520077353E+00 -0.55072800153E-02  0.31562115916E+01  0.00000000000E+00 0.  1.
         -4    1    1    2    0  501 -0.31488616845E+01 -0.21520077353E+00 -0.19346382688E+02  0.19602146933E+02  0.00000000000E+00 0. -1.
<mgrwt>
<rscale>  0 0.31562068E+01</rscale>
<asrwt>0</asrwt>
<pdfrwt beam="1">0</pdfrwt>
<pdfrwt beam="2">0</pdfrwt>
<totfact> 0.34480837E+11</totfact>
</mgrwt>
</event>
<event>
 4    2  0.1993797E+006  0.2332888E+01  0.7546771E-02  0.2787127E+00
         22   -1    0    0    0    0  0.00000000000E+00  0.00000000000E+00  0.85628294443E+00  0.85628294443E+00  0.00000000000E+00 0.  1.
         22   -1    0    0    0    0 -0.00000000000E+00 -0.00000000000E+00 -0.84379615303E+01  0.84379615303E+01  0.00000000000E+00 0. -1.
          4    1    1    2  501    0 -0.18829896309E+01 -0.13772126509E+01 -0.14823792993E+01  0.27640211690E+01  0.00000000000E+00 0.  1.
         -4    1    1    2    0  501  0.18829896309E+01  0.13772126509E+01 -0.60992992865E+01  0.65302233057E+01  0.00000000000E+00 0. -1.
<mgrwt>
<rscale>  0 0.23328876E+01</rscale>
<asrwt>0</asrwt>
<pdfrwt beam="1">0</pdfrwt>
<pdfrwt beam="2">0</pdfrwt>
<totfact> 0.23248938E+12</totfact>
</mgrwt>
</event>
<event>
 4    2  0.1993797E+006  0.4357184E+01  0.7546771E-02  0.2213809E+00
         22   -1    0    0    0    0  0.00000000000E+00  0.00000000000E+00  0.84516528529E+01  0.84516528529E+01  0.00000000000E+00 0. -1.
         22   -1    0    0    0    0 -0.00000000000E+00 -0.00000000000E+00 -0.65447051821E+01  0.65447051821E+01  0.00000000000E+00 0.  1.
          4    1    1    2  501    0 -0.37157197371E+01 -0.22756265527E+01  0.70301183324E+01  0.82708895011E+01  0.00000000000E+00 0. -1.
         -4    1    1    2    0  501  0.37157197371E+01  0.22756265527E+01 -0.51231706616E+01  0.67254685339E+01  0.00000000000E+00 0.  1.
<mgrwt>
<rscale>  0 0.43571837E+01</rscale>
<asrwt>0</asrwt>
<pdfrwt beam="1">0</pdfrwt>
<pdfrwt beam="2">0</pdfrwt>
<totfact> 0.21783523E+11</totfact>
</mgrwt>
</event>
<event>
 4    2  0.1993797E+006  0.2335572E+01  0.7546771E-02  0.2785781E+00
         22   -1    0    0    0    0  0.00000000000E+00  0.00000000000E+00  0.13751708484E+00  0.13751708484E+00  0.00000000000E+00 0. -1.
         22   -1    0    0    0    0 -0.00000000000E+00 -0.00000000000E+00 -0.56583276308E+02  0.56583276308E+02  0.00000000000E+00 0.  1.
          4    1    1    2  501    0 -0.35979868439E+00  0.23076919409E+01 -0.12716158030E+02  0.12928865853E+02  0.00000000000E+00 0. -1.
         -4    1    1    2    0  501  0.35979868439E+00 -0.23076919409E+01 -0.43729601193E+02  0.43791927540E+02  0.00000000000E+00 0.  1.
<mgrwt>
<rscale>  0 0.23355721E+01</rscale>
<asrwt>0</asrwt>
<pdfrwt beam="1">0</pdfrwt>
<pdfrwt beam="2">0</pdfrwt>
<totfact> 0.16585688E+12</totfact>
</mgrwt>
</event>
<event>
 4    2  0.1993797E+006  0.2461725E+01  0.7546771E-02  0.2725648E+00
         22   -1    0    0    0    0  0.00000000000E+00  0.00000000000E+00  0.24704002095E+00  0.24704002095E+00  0.00000000000E+00 0.  1.
         22   -1    0    0    0    0 -0.00000000000E+00 -0.00000000000E+00 -0.73801556681E+02  0.73801556681E+02  0.00000000000E+00 0. -1.
          4    1    1    2  501    0 -0.24466895662E+01  0.27166540803E+00 -0.65256376849E+01  0.69745278781E+01  0.00000000000E+00 0.  1.
         -4    1    1    2    0  501  0.24466895662E+01 -0.27166540803E+00 -0.67028878975E+02  0.67074068824E+02  0.00000000000E+00 0. -1.
<mgrwt>
<rscale>  0 0.24617254E+01</rscale>
<asrwt>0</asrwt>
<pdfrwt beam="1">0</pdfrwt>
<pdfrwt beam="2">0</pdfrwt>
<totfact> 0.60360293E+11</totfact>
</mgrwt>
</event>
<event>
 4    2  0.1993797E+006  0.2858497E+01  0.7546771E-02  0.2568880E+00
         22   -1    0    0    0    0  0.00000000000E+00  0.00000000000E+00  0.96968051017E+01  0.96968051017E+01  0.00000000000E+00 0.  1.
         22   -1    0    0    0    0 -0.00000000000E+00 -0.00000000000E+00 -0.13388879742E+01  0.13388879742E+01  0.00000000000E+00 0. -1.
          4    1    1    2  501    0  0.15784263777E+01 -0.23831859583E+01  0.75382125517E+01  0.80619881925E+01  0.00000000000E+00 0.  1.
         -4    1    1    2    0  501 -0.15784263777E+01  0.23831859583E+01  0.81970457579E+00  0.29737048834E+01  0.00000000000E+00 0. -1.
<mgrwt>
<rscale>  0 0.28584970E+01</rscale>
<asrwt>0</asrwt>
<pdfrwt beam="1">0</pdfrwt>
<pdfrwt beam="2">0</pdfrwt>
<totfact> 0.11792063E+12</totfact>
</mgrwt>
</event>
<event>
 4    2  0.1993797E+006  0.2045526E+01  0.7546771E-02  0.2950657E+00
         22   -1    0    0    0    0  0.00000000000E+00  0.00000000000E+00  0.55350944439E+00  0.55350944439E+00  0.00000000000E+00 0.  1.
         22   -1    0    0    0    0 -0.00000000000E+00 -0.00000000000E+00 -0.80322655076E+01  0.80322655076E+01  0.00000000000E+00 0. -1.
          4    1    1    2  501    0  0.13021072869E+01 -0.15775597419E+01 -0.26977399321E+01  0.33855544401E+01  0.00000000000E+00 0.  1.
         -4    1    1    2    0  501 -0.13021072869E+01  0.15775597419E+01 -0.47810161312E+01  0.52002205119E+01  0.00000000000E+00 0. -1.
<mgrwt>
<rscale>  0 0.20455264E+01</rscale>
<asrwt>0</asrwt>
<pdfrwt beam="1">0</pdfrwt>
<pdfrwt beam="2">0</pdfrwt>
<totfact> 0.40472196E+12</totfact>
</mgrwt>
</event>
<event>
 4    2  0.1993797E+006  0.2557581E+01  0.7546771E-02  0.2683676E+00
         22   -1    0    0    0    0  0.00000000000E+00  0.00000000000E+00  0.25830425167E+02  0.25830425167E+02  0.00000000000E+00 0. -1.
         22   -1    0    0    0    0 -0.00000000000E+00 -0.00000000000E+00 -0.60181553255E+01  0.60181553255E+01  0.00000000000E+00 0.  1.
          4    1    1    2  501    0  0.30588982525E+00  0.25392230298E+01  0.25491786519E+02  0.25619765848E+02  0.00000000000E+00 0. -1.
         -4    1    1    2    0  501 -0.30588982525E+00 -0.25392230298E+01 -0.56795166777E+01  0.62288146443E+01  0.00000000000E+00 0.  1.
<mgrwt>
<rscale>  0 0.25575813E+01</rscale>
<asrwt>0</asrwt>
<pdfrwt beam="1">0</pdfrwt>
<pdfrwt beam="2">0</pdfrwt>
<totfact> 0.60845767E+10</totfact>
</mgrwt>
</event>
<event>
 4    2  0.1993797E+006  0.4946436E+01  0.7546771E-02  0.2129452E+00
         22   -1    0    0    0    0  0.00000000000E+00  0.00000000000E+00  0.21257454424E+02  0.21257454424E+02  0.00000000000E+00 0. -1.
         22   -1    0    0    0    0 -0.00000000000E+00 -0.00000000000E+00 -0.12333482886E+01  0.12333482886E+01  0.00000000000E+00 0.  1.
          4    1    1    2  501    0  0.13628928315E+01  0.47549709435E+01  0.12917897392E+02  0.13832544906E+02  0.00000000000E+00 0. -1.
         -4    1    1    2    0  501 -0.13628928315E+01 -0.47549709435E+01  0.71062087436E+01  0.86582578070E+01  0.00000000000E+00 0.  1.
<mgrwt>
<rscale>  0 0.49464356E+01</rscale>
<asrwt>0</asrwt>
<pdfrwt beam="1">0</pdfrwt>
<pdfrwt beam="2">0</pdfrwt>
<totfact> 0.49384118E+11</totfact>
</mgrwt>
</event>
<event>
 4    2  0.1993797E+006  0.2164139E+01  0.7546771E-02  0.2878100E+00
         22   -1    0    0    0    0  0.00000000000E+00  0.00000000000E+00  0.94704317514E+01  0.94704317514E+01  0.00000000000E+00 0. -1.
         22   -1    0    0    0    0 -0.00000000000E+00 -0.00000000000E+00 -0.51600248825E+01  0.51600248825E+01  0.00000000000E+00 0.  1.
          4    1    1    2  501    0 -0.13128200466E+01 -0.17204653549E+01  0.91110569738E+01  0.93645532031E+01  0.00000000000E+00 0. -1.
         -4    1    1    2    0  501  0.13128200466E+01  0.17204653549E+01 -0.48006501050E+01  0.52659034309E+01  0.00000000000E+00 0.  1.
<mgrwt>
<rscale>  0 0.21641390E+01</rscale>
<asrwt>0</asrwt>
<pdfrwt beam="1">0</pdfrwt>
<pdfrwt beam="2">0</pdfrwt>
<totfact> 0.25191501E+11</totfact>
</mgrwt>
</event>
<event>
 4    2  0.1993797E+006  0.2807898E+01  0.7546771E-02  0.2586608E+00
         22   -1    0    0    0    0  0.00000000000E+00  0.00000000000E+00  0.28088235732E+01  0.28088235732E+01  0.00000000000E+00 0. -1.
         22   -1    0    0    0    0 -0.00000000000E+00 -0.00000000000E+00 -0.40326228249E+01  0.40326228249E+01  0.00000000000E+00 0.  1.
          4    1    1    2  501    0  0.21723148277E+01 -0.17791396136E+01  0.12739518663E+01  0.30833817202E+01  0.00000000000E+00 0. -1.
         -4    1    1    2    0  501 -0.21723148277E+01  0.17791396136E+01 -0.24977511180E+01  0.37580646778E+01  0.00000000000E+00 0.  1.
<mgrwt>
<rscale>  0 0.28078977E+01</rscale>
<asrwt>0</asrwt>
<pdfrwt beam="1">0</pdfrwt>
<pdfrwt beam="2">0</pdfrwt>
<totfact> 0.14245163E+12</totfact>
</mgrwt>
</event>
<event>
 4    2  0.1993797E+006  0.3224411E+01  0.7546771E-02  0.2455692E+00
         22   -1    0    0    0    0  0.00000000000E+00  0.00000000000E+00  0.75862427841E+01  0.75862427841E+01  0.00000000000E+00 0.  1.
         22   -1    0    0    0    0 -0.00000000000E+00 -0.00000000000E+00 -0.20257883075E+01  0.20257883075E+01  0.00000000000E+00 0. -1.
          4    1    1    2  501    0  0.59490705114E+00  0.31690550780E+01  0.55136678765E+01  0.63872809504E+01  0.00000000000E+00 0.  1.
         -4    1    1    2    0  501 -0.59490705114E+00 -0.31690550780E+01  0.46786599972E-01  0.32247501412E+01  0.00000000000E+00 0. -1.
<mgrwt>
<rscale>  0 0.32244107E+01</rscale>
<asrwt>0</asrwt>
<pdfrwt beam="1">0</pdfrwt>
<pdfrwt beam="2">0</pdfrwt>
<totfact> 0.98319587E+11</totfact>
</mgrwt>
</event>
<event>
 4    2  0.1993797E+006  0.2071028E+01  0.7546771E-02  0.2934377E+00
         22   -1    0    0    0    0  0.00000000000E+00  0.00000000000E+00  0.59721192743E+01  0.59721192743E+01  0.00000000000E+00 0.  1.
         22   -1    0    0    0    0 -0.00000000000E+00 -0.00000000000E+00 -0.16578417422E+01  0.16578417422E+01  0.00000000000E+00 0. -1.
          4    1    1    2  501    0  0.20546564755E+01  0.25989397065E+00  0.50292591130E+01  0.54389893670E+01  0.00000000000E+00 0.  1.
         -4    1    1    2    0  501 -0.20546564755E+01 -0.25989397065E+00 -0.71498158083E+00  0.21909716495E+01  0.00000000000E+00 0. -1.
<mgrwt>
<rscale>  0 0.20710283E+01</rscale>
<asrwt>0</asrwt>
<pdfrwt beam="1">0</pdfrwt>
<pdfrwt beam="2">0</pdfrwt>
<totfact> 0.16492825E+12</totfact>
</mgrwt>
</event>
<event>
 4    2  0.1993797E+006  0.2691502E+01  0.7546771E-02  0.2629685E+00
         22   -1    0    0    0    0  0.00000000000E+00  0.00000000000E+00  0.99531348190E+01  0.99531348190E+01  0.00000000000E+00 0. -1.
         22   -1    0    0    0    0 -0.00000000000E+00 -0.00000000000E+00 -0.11886966815E+01  0.11886966815E+01  0.00000000000E+00 0.  1.
          4    1    1    2  501    0  0.26622427391E+01  0.39578887871E+00  0.78510166064E+01  0.82995570359E+01  0.00000000000E+00 0. -1.
         -4    1    1    2    0  501 -0.26622427391E+01 -0.39578887871E+00  0.91342153109E+00  0.28422744645E+01  0.00000000000E+00 0.  1.
<mgrwt>
<rscale>  0 0.26915024E+01</rscale>
<asrwt>0</asrwt>
<pdfrwt beam="1">0</pdfrwt>
<pdfrwt beam="2">0</pdfrwt>
<totfact> 0.13095860E+12</totfact>
</mgrwt>
</event>
<event>
 4    2  0.1993797E+006  0.2473368E+01  0.7546771E-02  0.2720389E+00
         22   -1    0    0    0    0  0.00000000000E+00  0.00000000000E+00  0.83855879610E+01  0.83855879610E+01  0.00000000000E+00 0. -1.
         22   -1    0    0    0    0 -0.00000000000E+00 -0.00000000000E+00 -0.11372815091E+01  0.11372815091E+01  0.00000000000E+00 0.  1.
          4    1    1    2  501    0  0.71417417827E+00 -0.23680168527E+01  0.64751778153E+01  0.69314844234E+01  0.00000000000E+00 0. -1.
         -4    1    1    2    0  501 -0.71417417827E+00  0.23680168527E+01  0.77312863659E+00  0.25913850467E+01  0.00000000000E+00 0.  1.
<mgrwt>
<rscale>  0 0.24733679E+01</rscale>
<asrwt>0</asrwt>
<pdfrwt beam="1">0</pdfrwt>
<pdfrwt beam="2">0</pdfrwt>
<totfact> 0.16941323E+12</totfact>
</mgrwt>
</event>
<event>
 4    2  0.1993797E+006  0.2384949E+01  0.7546771E-02  0.2761533E+00
         22   -1    0    0    0    0  0.00000000000E+00  0.00000000000E+00  0.38803444217E+01  0.38803444217E+01  0.00000000000E+00 0. -1.
         22   -1    0    0    0    0 -0.00000000000E+00 -0.00000000000E+00 -0.14677973854E+01  0.14677973854E+01  0.00000000000E+00 0.  1.
          4    1    1    2  501    0  0.23809997694E+01  0.13719297497E+00  0.11087363693E+01  0.26300718908E+01  0.00000000000E+00 0.  1.
         -4    1    1    2    0  501 -0.23809997694E+01 -0.13719297497E+00  0.13038106671E+01  0.27180699163E+01  0.00000000000E+00 0. -1.
<mgrwt>
<rscale>  0 0.23849490E+01</rscale>
<asrwt>0</asrwt>
<pdfrwt beam="1">0</pdfrwt>
<pdfrwt beam="2">0</pdfrwt>
<totfact> 0.31601278E+12</totfact>
</mgrwt>
</event>
<event>
 4    2  0.1993797E+006  0.2010643E+01  0.7546771E-02  0.2973579E+00
         22   -1    0    0    0    0  0.00000000000E+00  0.00000000000E+00  0.84482719625E+01  0.84482719625E+01  0.00000000000E+00 0. -1.
         22   -1    0    0    0    0 -0.00000000000E+00 -0.00000000000E+00 -0.23285857948E+01  0.23285857948E+01  0.00000000000E+00 0.  1.
          4    1    1    2  501    0 -0.71114186419E+00  0.18806818858E+01  0.78628072007E+01  0.81158132176E+01  0.00000000000E+00 0. -1.
         -4    1    1    2    0  501  0.71114186419E+00 -0.18806818858E+01 -0.17431210330E+01  0.26610445397E+01  0.00000000000E+00 0.  1.
<mgrwt>
<rscale>  0 0.20106435E+01</rscale>
<asrwt>0</asrwt>
<pdfrwt beam="1">0</pdfrwt>
<pdfrwt beam="2">0</pdfrwt>
<totfact> 0.73498417E+11</totfact>
</mgrwt>
</event>
<event>
 4    2  0.1993797E+006  0.2682869E+01  0.7546771E-02  0.2633015E+00
         22   -1    0    0    0    0  0.00000000000E+00  0.00000000000E+00  0.84327085083E+00  0.84327085083E+00  0.00000000000E+00 0.  1.
         22   -1    0    0    0    0 -0.00000000000E+00 -0.00000000000E+00 -0.89186093944E+01  0.89186093944E+01  0.00000000000E+00 0. -1.
          4    1    1    2  501    0 -0.25497124248E+01  0.83471841129E+00 -0.30261300027E+01  0.40441625918E+01  0.00000000000E+00 0.  1.
         -4    1    1    2    0  501  0.25497124248E+01 -0.83471841129E+00 -0.50492085408E+01  0.57177176534E+01  0.00000000000E+00 0. -1.
<mgrwt>
<rscale>  0 0.26828694E+01</rscale>
<asrwt>0</asrwt>
<pdfrwt beam="1">0</pdfrwt>
<pdfrwt beam="2">0</pdfrwt>
<totfact> 0.22131074E+12</totfact>
</mgrwt>
</event>
<event>
 4    2  0.1993797E+006  0.3642984E+01  0.7546771E-02  0.2351218E+00
         22   -1    0    0    0    0  0.00000000000E+00  0.00000000000E+00  0.28124144106E+01  0.28124144106E+01  0.00000000000E+00 0.  1.
         22   -1    0    0    0    0 -0.00000000000E+00 -0.00000000000E+00 -0.62575123557E+01  0.62575123557E+01  0.00000000000E+00 0. -1.
          4    1    1    2  501    0  0.27807853888E+01 -0.23534157286E+01  0.52622618490E+00  0.36807943393E+01  0.00000000000E+00 0.  1.
         -4    1    1    2    0  501 -0.27807853888E+01  0.23534157286E+01 -0.39713241301E+01  0.53891324271E+01  0.00000000000E+00 0. -1.
<mgrwt>
<rscale>  0 0.36429841E+01</rscale>
<asrwt>0</asrwt>
<pdfrwt beam="1">0</pdfrwt>
<pdfrwt beam="2">0</pdfrwt>
<totfact> 0.84538022E+11</totfact>
</mgrwt>
</event>
<event>
 4    2  0.1993797E+006  0.2079370E+01  0.7546771E-02  0.2929135E+00
         22   -1    0    0    0    0  0.00000000000E+00  0.00000000000E+00  0.18170867892E+02  0.18170867892E+02  0.00000000000E+00 0.  1.
         22   -1    0    0    0    0 -0.00000000000E+00 -0.00000000000E+00 -0.26962546226E+00  0.26962546226E+00  0.00000000000E+00 0. -1.
          4    1    1    2  501    0 -0.52469348544E+00 -0.20120828782E+01  0.12110824261E+02  0.12288036664E+02  0.00000000000E+00 0.  1.
         -4    1    1    2    0  501  0.52469348544E+00  0.20120828782E+01  0.57904181685E+01  0.61524566905E+01  0.00000000000E+00 0. -1.
<mgrwt>
<rscale>  0 0.20793703E+01</rscale>
<asrwt>0</asrwt>
<pdfrwt beam="1">0</pdfrwt>
<pdfrwt beam="2">0</pdfrwt>
<totfact> 0.33573380E+12</totfact>
</mgrwt>
</event>
<event>
 4    2  0.1993797E+006  0.2236942E+01  0.7546771E-02  0.2837246E+00
         22   -1    0    0    0    0  0.00000000000E+00  0.00000000000E+00  0.83406011874E+01  0.83406011874E+01  0.00000000000E+00 0. -1.
         22   -1    0    0    0    0 -0.00000000000E+00 -0.00000000000E+00 -0.74799201457E+00  0.74799201457E+00  0.00000000000E+00 0.  1.
          4    1    1    2  501    0  0.10157974630E+01  0.19930041901E+01  0.58180039409E+01  0.62332238885E+01  0.00000000000E+00 0. -1.
         -4    1    1    2    0  501 -0.10157974630E+01 -0.19930041901E+01  0.17746052320E+01  0.28553693135E+01  0.00000000000E+00 0.  1.
<mgrwt>
<rscale>  0 0.22369422E+01</rscale>
<asrwt>0</asrwt>
<pdfrwt beam="1">0</pdfrwt>
<pdfrwt beam="2">0</pdfrwt>
<totfact> 0.27495571E+12</totfact>
</mgrwt>
</event>
<event>
 4    2  0.1993797E+006  0.2056183E+01  0.7546771E-02  0.2943806E+00
         22   -1    0    0    0    0  0.00000000000E+00  0.00000000000E+00  0.15160601086E+00  0.15160601086E+00  0.00000000000E+00 0. -1.
         22   -1    0    0    0    0 -0.00000000000E+00 -0.00000000000E+00 -0.28264406506E+02  0.28264406506E+02  0.00000000000E+00 0.  1.
          4    1    1    2  501    0  0.89212142503E+00  0.18525678329E+01 -0.15697453916E+02  0.15831549124E+02  0.00000000000E+00 0. -1.
         -4    1    1    2    0  501 -0.89212142503E+00 -0.18525678329E+01 -0.12415346579E+02  0.12584463393E+02  0.00000000000E+00 0.  1.
<mgrwt>
<rscale>  0 0.20561829E+01</rscale>
<asrwt>0</asrwt>
<pdfrwt beam="1">0</pdfrwt>
<pdfrwt beam="2">0</pdfrwt>
<totfact> 0.36657726E+12</totfact>
</mgrwt>
</event>
<event>
 4    2  0.1993797E+006  0.3223138E+01  0.7546771E-02  0.2456046E+00
         22   -1    0    0    0    0  0.00000000000E+00  0.00000000000E+00  0.91974412122E+01  0.91974412122E+01  0.00000000000E+00 0.  1.
         22   -1    0    0    0    0 -0.00000000000E+00 -0.00000000000E+00 -0.11296287251E+01  0.11296287251E+01  0.00000000000E+00 0. -1.
          4    1    1    2  501    0 -0.17481113125E+01 -0.27079008790E+01  0.39814208234E+01  0.51225318061E+01  0.00000000000E+00 0. -1.
         -4    1    1    2    0  501  0.17481113125E+01  0.27079008790E+01  0.40863916637E+01  0.52045381313E+01  0.00000000000E+00 0.  1.
<mgrwt>
<rscale>  0 0.32231383E+01</rscale>
<asrwt>0</asrwt>
<pdfrwt beam="1">0</pdfrwt>
<pdfrwt beam="2">0</pdfrwt>
<totfact> 0.15273655E+12</totfact>
</mgrwt>
</event>
<event>
 4    2  0.1993797E+006  0.2218809E+01  0.7546771E-02  0.2847181E+00
         22   -1    0    0    0    0  0.00000000000E+00  0.00000000000E+00  0.26297479708E+01  0.26297479708E+01  0.00000000000E+00 0.  1.
         22   -1    0    0    0    0 -0.00000000000E+00 -0.00000000000E+00 -0.32784583339E+01  0.32784583339E+01  0.00000000000E+00 0. -1.
          4    1    1    2  501    0  0.21587343687E+01  0.51281557947E+00  0.16104667715E+01  0.27416632024E+01  0.00000000000E+00 0.  1.
         -4    1    1    2    0  501 -0.21587343687E+01 -0.51281557947E+00 -0.22591771346E+01  0.31665431023E+01  0.00000000000E+00 0. -1.
<mgrwt>
<rscale>  0 0.22188091E+01</rscale>
<asrwt>0</asrwt>
<pdfrwt beam="1">0</pdfrwt>
<pdfrwt beam="2">0</pdfrwt>
<totfact> 0.19612695E+12</totfact>
</mgrwt>
</event>
<event>
 4    2  0.1993797E+006  0.2751184E+01  0.7546771E-02  0.2607182E+00
         22   -1    0    0    0    0  0.00000000000E+00  0.00000000000E+00  0.65575656394E+01  0.65575656394E+01  0.00000000000E+00 0.  1.
         22   -1    0    0    0    0 -0.00000000000E+00 -0.00000000000E+00 -0.11687165933E+01  0.11687165933E+01  0.00000000000E+00 0. -1.
          4    1    1    2  501    0  0.17767481495E+01 -0.21005182156E+01  0.22644873676E+01  0.35632729055E+01  0.00000000000E+00 0. -1.
         -4    1    1    2    0  501 -0.17767481495E+01  0.21005182156E+01  0.31243616784E+01  0.41630093272E+01  0.00000000000E+00 0.  1.
<mgrwt>
<rscale>  0 0.27511835E+01</rscale>
<asrwt>0</asrwt>
<pdfrwt beam="1">0</pdfrwt>
<pdfrwt beam="2">0</pdfrwt>
<totfact> 0.22048484E+12</totfact>
</mgrwt>
</event>
<event>
 4    2  0.1993797E+006  0.4087634E+01  0.7546771E-02  0.2260850E+00
         22   -1    0    0    0    0  0.00000000000E+00  0.00000000000E+00  0.35982557133E+01  0.35982557133E+01  0.00000000000E+00 0. -1.
         22   -1    0    0    0    0 -0.00000000000E+00 -0.00000000000E+00 -0.99577518701E+01  0.99577518701E+01  0.00000000000E+00 0.  1.
          4    1    1    2  501    0 -0.38936450549E+01 -0.12443002294E+01  0.17717810089E+01  0.44551052533E+01  0.00000000000E+00 0. -1.
         -4    1    1    2    0  501  0.38936450549E+01  0.12443002294E+01 -0.81312771657E+01  0.91009023300E+01  0.00000000000E+00 0.  1.
<mgrwt>
<rscale>  0 0.40876344E+01</rscale>
<asrwt>0</asrwt>
<pdfrwt beam="1">0</pdfrwt>
<pdfrwt beam="2">0</pdfrwt>
<totfact> 0.36269528E+11</totfact>
</mgrwt>
</event>
<event>
 4    2  0.1993797E+006  0.2599019E+01  0.7546771E-02  0.2666422E+00
         22   -1    0    0    0    0  0.00000000000E+00  0.00000000000E+00  0.13606596087E+01  0.13606596087E+01  0.00000000000E+00 0. -1.
         22   -1    0    0    0    0 -0.00000000000E+00 -0.00000000000E+00 -0.97022394016E+01  0.97022394016E+01  0.00000000000E+00 0.  1.
          4    1    1    2  501    0 -0.18813214002E+01  0.17931901488E+01 -0.30541436627E+00  0.26169025690E+01  0.00000000000E+00 0. -1.
         -4    1    1    2    0  501  0.18813214002E+01 -0.17931901488E+01 -0.80361654267E+01  0.84459964413E+01  0.00000000000E+00 0.  1.
<mgrwt>
<rscale>  0 0.25990193E+01</rscale>
<asrwt>0</asrwt>
<pdfrwt beam="1">0</pdfrwt>
<pdfrwt beam="2">0</pdfrwt>
<totfact> 0.11567689E+12</totfact>
</mgrwt>
</event>
<event>
 4    2  0.1993797E+006  0.2562373E+01  0.7546771E-02  0.2681654E+00
         22   -1    0    0    0    0  0.00000000000E+00  0.00000000000E+00  0.53327431130E+02  0.53327431130E+02  0.00000000000E+00 0.  1.
         22   -1    0    0    0    0 -0.00000000000E+00 -0.00000000000E+00 -0.17982010557E+00  0.17982010557E+00  0.00000000000E+00 0. -1.
          4    1    1    2  501    0 -0.21650568706E+01 -0.13705059786E+01  0.11551057538E+02  0.11831850579E+02  0.00000000000E+00 0. -1.
         -4    1    1    2    0  501  0.21650568706E+01  0.13705059786E+01  0.41596553487E+02  0.41675400656E+02  0.00000000000E+00 0.  1.
<mgrwt>
<rscale>  0 0.25623735E+01</rscale>
<asrwt>0</asrwt>
<pdfrwt beam="1">0</pdfrwt>
<pdfrwt beam="2">0</pdfrwt>
<totfact> 0.13315729E+12</totfact>
</mgrwt>
</event>
<event>
 4    2  0.1993797E+006  0.5915049E+01  0.7546771E-02  0.2027391E+00
         22   -1    0    0    0    0  0.00000000000E+00  0.00000000000E+00  0.33444878588E+01  0.33444878588E+01  0.00000000000E+00 0.  1.
         22   -1    0    0    0    0 -0.00000000000E+00 -0.00000000000E+00 -0.10499649696E+02  0.10499649696E+02  0.00000000000E+00 0. -1.
          4    1    1    2  501    0 -0.97478565750E+00  0.58341749158E+01 -0.39957363583E+01  0.71381869597E+01  0.00000000000E+00 0.  1.
         -4    1    1    2    0  501  0.97478565750E+00 -0.58341749158E+01 -0.31594254788E+01  0.67059505949E+01  0.00000000000E+00 0. -1.
<mgrwt>
<rscale>  0 0.59150489E+01</rscale>
<asrwt>0</asrwt>
<pdfrwt beam="1">0</pdfrwt>
<pdfrwt beam="2">0</pdfrwt>
<totfact> 0.37058751E+11</totfact>
</mgrwt>
</event>
<event>
 4    2  0.1993797E+006  0.3374210E+01  0.7546771E-02  0.2415698E+00
         22   -1    0    0    0    0  0.00000000000E+00  0.00000000000E+00  0.12130039879E+01  0.12130039879E+01  0.00000000000E+00 0. -1.
         22   -1    0    0    0    0 -0.00000000000E+00 -0.00000000000E+00 -0.10364788809E+02  0.10364788809E+02  0.00000000000E+00 0.  1.
          4    1    1    2  501    0 -0.87939753699E+00 -0.32575989339E+01 -0.27969840781E+01  0.43827400990E+01  0.00000000000E+00 0. -1.
         -4    1    1    2    0  501  0.87939753699E+00  0.32575989339E+01 -0.63548007428E+01  0.71950526978E+01  0.00000000000E+00 0.  1.
<mgrwt>
<rscale>  0 0.33742097E+01</rscale>
<asrwt>0</asrwt>
<pdfrwt beam="1">0</pdfrwt>
<pdfrwt beam="2">0</pdfrwt>
<totfact> 0.12182691E+12</totfact>
</mgrwt>
</event>
<event>
 4    2  0.1993797E+006  0.3764506E+01  0.7546771E-02  0.2324704E+00
         22   -1    0    0    0    0  0.00000000000E+00  0.00000000000E+00  0.90606247595E+01  0.90606247595E+01  0.00000000000E+00 0. -1.
         22   -1    0    0    0    0 -0.00000000000E+00 -0.00000000000E+00 -0.16592193413E+01  0.16592193413E+01  0.00000000000E+00 0.  1.
          4    1    1    2  501    0  0.51923630126E+00  0.37285253991E+01  0.49842007320E+01  0.62460999772E+01  0.00000000000E+00 0.  1.
         -4    1    1    2    0  501 -0.51923630126E+00 -0.37285253991E+01  0.24172046863E+01  0.44737441236E+01  0.00000000000E+00 0. -1.
<mgrwt>
<rscale>  0 0.37645063E+01</rscale>
<asrwt>0</asrwt>
<pdfrwt beam="1">0</pdfrwt>
<pdfrwt beam="2">0</pdfrwt>
<totfact> 0.10000384E+12</totfact>
</mgrwt>
</event>
<event>
 4    2  0.1993797E+006  0.2824231E+01  0.7546771E-02  0.2580823E+00
         22   -1    0    0    0    0  0.00000000000E+00  0.00000000000E+00  0.77321990926E+00  0.77321990926E+00  0.00000000000E+00 0.  1.
         22   -1    0    0    0    0 -0.00000000000E+00 -0.00000000000E+00 -0.10812973276E+02  0.10812973276E+02  0.00000000000E+00 0. -1.
          4    1    1    2  501    0  0.34427529675E+00  0.28031691109E+01 -0.37775144784E+01  0.47165557538E+01  0.00000000000E+00 0.  1.
         -4    1    1    2    0  501 -0.34427529675E+00 -0.28031691109E+01 -0.62622388882E+01  0.68696374313E+01  0.00000000000E+00 0. -1.
<mgrwt>
<rscale>  0 0.28242313E+01</rscale>
<asrwt>0</asrwt>
<pdfrwt beam="1">0</pdfrwt>
<pdfrwt beam="2">0</pdfrwt>
<totfact> 0.19347906E+12</totfact>
</mgrwt>
</event>
<event>
 4    2  0.1993797E+006  0.2530326E+01  0.7546771E-02  0.2695309E+00
         22   -1    0    0    0    0  0.00000000000E+00  0.00000000000E+00  0.35421191069E+01  0.35421191069E+01  0.00000000000E+00 0.  1.
         22   -1    0    0    0    0 -0.00000000000E+00 -0.00000000000E+00 -0.21128855828E+01  0.21128855828E+01  0.00000000000E+00 0. -1.
          4    1    1    2  501    0  0.24275151706E+01 -0.71394803601E+00  0.17894840244E+01  0.30991619472E+01  0.00000000000E+00 0.  1.
         -4    1    1    2    0  501 -0.24275151706E+01  0.71394803601E+00 -0.36025050021E+00  0.25558427425E+01  0.00000000000E+00 0. -1.
<mgrwt>
<rscale>  0 0.25303264E+01</rscale>
<asrwt>0</asrwt>
<pdfrwt beam="1">0</pdfrwt>
<pdfrwt beam="2">0</pdfrwt>
<totfact> 0.23098693E+12</totfact>
</mgrwt>
</event>
<event>
 4    2  0.1993797E+006  0.2167922E+01  0.7546771E-02  0.2875912E+00
         22   -1    0    0    0    0  0.00000000000E+00  0.00000000000E+00  0.40110390934E+01  0.40110390934E+01  0.00000000000E+00 0. -1.
         22   -1    0    0    0    0 -0.00000000000E+00 -0.00000000000E+00 -0.16657517043E+01  0.16657517043E+01  0.00000000000E+00 0.  1.
          4    1    1    2  501    0  0.14115511657E+01 -0.16454201018E+01 -0.37310034102E+00  0.21997926878E+01  0.00000000000E+00 0.  1.
         -4    1    1    2    0  501 -0.14115511657E+01  0.16454201018E+01  0.27183877301E+01  0.34769981099E+01  0.00000000000E+00 0. -1.
<mgrwt>
<rscale>  0 0.21679216E+01</rscale>
<asrwt>0</asrwt>
<pdfrwt beam="1">0</pdfrwt>
<pdfrwt beam="2">0</pdfrwt>
<totfact> 0.26272030E+12</totfact>
</mgrwt>
</event>
<event>
 4    2  0.1993797E+006  0.2511507E+01  0.7546771E-02  0.2703478E+00
         22   -1    0    0    0    0  0.00000000000E+00  0.00000000000E+00  0.70297570384E+00  0.70297570384E+00  0.00000000000E+00 0. -1.
         22   -1    0    0    0    0 -0.00000000000E+00 -0.00000000000E+00 -0.10449787445E+02  0.10449787445E+02  0.00000000000E+00 0.  1.
          4    1    1    2  501    0 -0.57791475597E+00 -0.24441121979E+01 -0.27769526849E+01  0.37442136845E+01  0.00000000000E+00 0. -1.
         -4    1    1    2    0  501  0.57791475597E+00  0.24441121979E+01 -0.69698590562E+01  0.74085494643E+01  0.00000000000E+00 0.  1.
<mgrwt>
<rscale>  0 0.25115075E+01</rscale>
<asrwt>0</asrwt>
<pdfrwt beam="1">0</pdfrwt>
<pdfrwt beam="2">0</pdfrwt>
<totfact> 0.22471171E+12</totfact>
</mgrwt>
</event>
<event>
 4    2  0.1993797E+006  0.2760685E+01  0.7546771E-02  0.2603682E+00
         22   -1    0    0    0    0  0.00000000000E+00  0.00000000000E+00  0.11804721222E+02  0.11804721222E+02  0.00000000000E+00 0.  1.
         22   -1    0    0    0    0 -0.00000000000E+00 -0.00000000000E+00 -0.13154389715E+01  0.13154389715E+01  0.00000000000E+00 0. -1.
          4    1    1    2  501    0 -0.27272500943E+01  0.42835536838E+00  0.99257855172E+01  0.10302553059E+02  0.00000000000E+00 0.  1.
         -4    1    1    2    0  501  0.27272500943E+01 -0.42835536838E+00  0.56349673373E+00  0.28176071350E+01  0.00000000000E+00 0. -1.
<mgrwt>
<rscale>  0 0.27606850E+01</rscale>
<asrwt>0</asrwt>
<pdfrwt beam="1">0</pdfrwt>
<pdfrwt beam="2">0</pdfrwt>
<totfact> 0.94774258E+11</totfact>
</mgrwt>
</event>
<event>
 4    2  0.1993797E+006  0.2474590E+01  0.7546771E-02  0.2719840E+00
         22   -1    0    0    0    0  0.00000000000E+00  0.00000000000E+00  0.29994704636E+01  0.29994704636E+01  0.00000000000E+00 0.  1.
         22   -1    0    0    0    0 -0.00000000000E+00 -0.00000000000E+00 -0.20694693854E+01  0.20694693854E+01  0.00000000000E+00 0. -1.
          4    1    1    2  501    0  0.23316947522E+01 -0.82872987735E+00  0.17066242375E+00  0.24804675547E+01  0.00000000000E+00 0. -1.
         -4    1    1    2    0  501 -0.23316947522E+01  0.82872987735E+00  0.75933865445E+00  0.25884722944E+01  0.00000000000E+00 0.  1.
<mgrwt>
<rscale>  0 0.24745896E+01</rscale>
<asrwt>0</asrwt>
<pdfrwt beam="1">0</pdfrwt>
<pdfrwt beam="2">0</pdfrwt>
<totfact> 0.28745519E+12</totfact>
</mgrwt>
</event>
<event>
 4    2  0.1993797E+006  0.2953738E+01  0.7546771E-02  0.2537004E+00
         22   -1    0    0    0    0  0.00000000000E+00  0.00000000000E+00  0.19510779980E+02  0.19510779980E+02  0.00000000000E+00 0.  1.
         22   -1    0    0    0    0 -0.00000000000E+00 -0.00000000000E+00 -0.59254370389E+00  0.59254370389E+00  0.00000000000E+00 0. -1.
          4    1    1    2  501    0  0.95892080256E+00  0.27937498545E+01  0.14437931190E+02  0.14736974737E+02  0.00000000000E+00 0.  1.
         -4    1    1    2    0  501 -0.95892080256E+00 -0.27937498545E+01  0.44803050866E+01  0.53663489473E+01  0.00000000000E+00 0. -1.
<mgrwt>
<rscale>  0 0.29537379E+01</rscale>
<asrwt>0</asrwt>
<pdfrwt beam="1">0</pdfrwt>
<pdfrwt beam="2">0</pdfrwt>
<totfact> 0.12666934E+12</totfact>
</mgrwt>
</event>
<event>
 4    2  0.1993797E+006  0.2039833E+01  0.7546771E-02  0.2954346E+00
         22   -1    0    0    0    0  0.00000000000E+00  0.00000000000E+00  0.17217855396E+02  0.17217855396E+02  0.00000000000E+00 0.  1.
         22   -1    0    0    0    0 -0.00000000000E+00 -0.00000000000E+00 -0.32762455252E+00  0.32762455252E+00  0.00000000000E+00 0. -1.
          4    1    1    2  501    0 -0.14778821009E+00  0.20344717469E+01  0.12938767532E+02  0.13098573277E+02  0.00000000000E+00 0.  1.
         -4    1    1    2    0  501  0.14778821009E+00 -0.20344717469E+01  0.39514633116E+01  0.44469066717E+01  0.00000000000E+00 0. -1.
<mgrwt>
<rscale>  0 0.20398325E+01</rscale>
<asrwt>0</asrwt>
<pdfrwt beam="1">0</pdfrwt>
<pdfrwt beam="2">0</pdfrwt>
<totfact> 0.28849036E+12</totfact>
</mgrwt>
</event>
<event>
 4    2  0.1993797E+006  0.2574423E+01  0.7546771E-02  0.2676601E+00
         22   -1    0    0    0    0  0.00000000000E+00  0.00000000000E+00  0.65943421250E-01  0.65943421250E-01  0.00000000000E+00 0.  1.
         22   -1    0    0    0    0 -0.00000000000E+00 -0.00000000000E+00 -0.11001871961E+03  0.11001871961E+03  0.00000000000E+00 0. -1.
          4    1    1    2  501    0  0.25363066552E+01  0.44136686743E+00 -0.38790581810E+02  0.38875916624E+02  0.00000000000E+00 0.  1.
         -4    1    1    2    0  501 -0.25363066552E+01 -0.44136686743E+00 -0.71162194380E+02  0.71208746408E+02  0.00000000000E+00 0. -1.
<mgrwt>
<rscale>  0 0.25744235E+01</rscale>
<asrwt>0</asrwt>
<pdfrwt beam="1">0</pdfrwt>
<pdfrwt beam="2">0</pdfrwt>
<totfact> 0.14998794E+12</totfact>
</mgrwt>
</event>
<event>
 4    2  0.1993797E+006  0.3371071E+01  0.7546771E-02  0.2416504E+00
         22   -1    0    0    0    0  0.00000000000E+00  0.00000000000E+00  0.42918532178E+01  0.42918532178E+01  0.00000000000E+00 0.  1.
         22   -1    0    0    0    0 -0.00000000000E+00 -0.00000000000E+00 -0.45177985646E+01  0.45177985646E+01  0.00000000000E+00 0. -1.
          4    1    1    2  501    0  0.30260622069E+01 -0.14856199950E+01  0.27209101262E+01  0.43321439455E+01  0.00000000000E+00 0.  1.
         -4    1    1    2    0  501 -0.30260622069E+01  0.14856199950E+01 -0.29468554730E+01  0.44775078368E+01  0.00000000000E+00 0. -1.
<mgrwt>
<rscale>  0 0.33710709E+01</rscale>
<asrwt>0</asrwt>
<pdfrwt beam="1">0</pdfrwt>
<pdfrwt beam="2">0</pdfrwt>
<totfact> 0.75792894E+11</totfact>
</mgrwt>
</event>
<event>
 4    2  0.1993797E+006  0.3733906E+01  0.7546771E-02  0.2331240E+00
         22   -1    0    0    0    0  0.00000000000E+00  0.00000000000E+00  0.79273759313E+01  0.79273759313E+01  0.00000000000E+00 0. -1.
         22   -1    0    0    0    0 -0.00000000000E+00 -0.00000000000E+00 -0.17590633782E+01  0.17590633782E+01  0.00000000000E+00 0.  1.
          4    1    1    2  501    0 -0.25507592028E+01  0.27268449775E+01  0.30167558887E+01  0.48002991713E+01  0.00000000000E+00 0.  1.
         -4    1    1    2    0  501  0.25507592028E+01 -0.27268449775E+01  0.31515566643E+01  0.48861401382E+01  0.00000000000E+00 0. -1.
<mgrwt>
<rscale>  0 0.37339063E+01</rscale>
<asrwt>0</asrwt>
<pdfrwt beam="1">0</pdfrwt>
<pdfrwt beam="2">0</pdfrwt>
<totfact> 0.10979808E+12</totfact>
</mgrwt>
</event>
<event>
 4    2  0.1993797E+006  0.2028725E+01  0.7546771E-02  0.2961601E+00
         22   -1    0    0    0    0  0.00000000000E+00  0.00000000000E+00  0.16537092493E+01  0.16537092493E+01  0.00000000000E+00 0.  1.
         22   -1    0    0    0    0 -0.00000000000E+00 -0.00000000000E+00 -0.26814222792E+01  0.26814222792E+01  0.00000000000E+00 0. -1.
          4    1    1    2  501    0  0.17868504005E+01 -0.96067269886E+00  0.67122046740E-01  0.20298354015E+01  0.00000000000E+00 0. -1.
         -4    1    1    2    0  501 -0.17868504005E+01  0.96067269886E+00 -0.10948350767E+01  0.23052961270E+01  0.00000000000E+00 0.  1.
<mgrwt>
<rscale>  0 0.20287253E+01</rscale>
<asrwt>0</asrwt>
<pdfrwt beam="1">0</pdfrwt>
<pdfrwt beam="2">0</pdfrwt>
<totfact> 0.42449939E+12</totfact>
</mgrwt>
</event>
<event>
 4    2  0.1993797E+006  0.2128648E+01  0.7546771E-02  0.2898989E+00
         22   -1    0    0    0    0  0.00000000000E+00  0.00000000000E+00  0.18789503839E+01  0.18789503839E+01  0.00000000000E+00 0. -1.
         22   -1    0    0    0    0 -0.00000000000E+00 -0.00000000000E+00 -0.22871197720E+02  0.22871197720E+02  0.00000000000E+00 0.  1.
          4    1    1    2  501    0  0.20687117674E+01 -0.50157042379E+00  0.12083708523E+01  0.24477135011E+01  0.00000000000E+00 0. -1.
         -4    1    1    2    0  501 -0.20687117674E+01  0.50157042379E+00 -0.22200618189E+02  0.22302434603E+02  0.00000000000E+00 0.  1.
<mgrwt>
<rscale>  0 0.21286478E+01</rscale>
<asrwt>0</asrwt>
<pdfrwt beam="1">0</pdfrwt>
<pdfrwt beam="2">0</pdfrwt>
<totfact> 0.27751308E+11</totfact>
</mgrwt>
</event>
<event>
 4    2  0.1993797E+006  0.2149052E+01  0.7546771E-02  0.2886898E+00
         22   -1    0    0    0    0  0.00000000000E+00  0.00000000000E+00  0.66516722762E+02  0.66516722762E+02  0.00000000000E+00 0.  1.
         22   -1    0    0    0    0 -0.00000000000E+00 -0.00000000000E+00 -0.42563577311E+00  0.42563577311E+00  0.00000000000E+00 0. -1.
          4    1    1    2  501    0  0.76349173685E+00  0.20088566332E+01  0.63665240247E+02  0.63701501084E+02  0.00000000000E+00 0.  1.
         -4    1    1    2    0  501 -0.76349173685E+00 -0.20088566332E+01  0.24258467417E+01  0.32408574513E+01  0.00000000000E+00 0. -1.
<mgrwt>
<rscale>  0 0.21490520E+01</rscale>
<asrwt>0</asrwt>
<pdfrwt beam="1">0</pdfrwt>
<pdfrwt beam="2">0</pdfrwt>
<totfact> 0.37737242E+11</totfact>
</mgrwt>
</event>
<event>
 4    2  0.1993797E+006  0.3183978E+01  0.7546771E-02  0.2467055E+00
         22   -1    0    0    0    0  0.00000000000E+00  0.00000000000E+00  0.30186947574E+02  0.30186947574E+02  0.00000000000E+00 0. -1.
         22   -1    0    0    0    0 -0.00000000000E+00 -0.00000000000E+00 -0.33818088976E+00  0.33818088976E+00  0.00000000000E+00 0.  1.
          4    1    1    2  501    0  0.12442472077E+01 -0.29307954205E+01  0.16196644742E+02  0.16506635448E+02  0.00000000000E+00 0. -1.
         -4    1    1    2    0  501 -0.12442472077E+01  0.29307954205E+01  0.13652121942E+02  0.14018493016E+02  0.00000000000E+00 0.  1.
<mgrwt>
<rscale>  0 0.31839775E+01</rscale>
<asrwt>0</asrwt>
<pdfrwt beam="1">0</pdfrwt>
<pdfrwt beam="2">0</pdfrwt>
<totfact> 0.13757466E+12</totfact>
</mgrwt>
</event>
<event>
 4    2  0.1993797E+006  0.2850530E+01  0.7546771E-02  0.2571633E+00
         22   -1    0    0    0    0  0.00000000000E+00  0.00000000000E+00  0.70403133108E+02  0.70403133108E+02  0.00000000000E+00 0.  1.
         22   -1    0    0    0    0 -0.00000000000E+00 -0.00000000000E+00 -0.12011701933E+00  0.12011701933E+00  0.00000000000E+00 0. -1.
          4    1    1    2  501    0 -0.11559815487E+01  0.26056151814E+01  0.42118649666E+02  0.42214999390E+02  0.00000000000E+00 0.  1.
         -4    1    1    2    0  501  0.11559815487E+01 -0.26056151814E+01  0.28164366423E+02  0.28308250737E+02  0.00000000000E+00 0. -1.
<mgrwt>
<rscale>  0 0.28505304E+01</rscale>
<asrwt>0</asrwt>
<pdfrwt beam="1">0</pdfrwt>
<pdfrwt beam="2">0</pdfrwt>
<totfact> 0.14367385E+12</totfact>
</mgrwt>
</event>
<event>
 4    2  0.1993797E+006  0.2638225E+01  0.7546771E-02  0.2650559E+00
         22   -1    0    0    0    0  0.00000000000E+00  0.00000000000E+00  0.58888497343E+01  0.58888497343E+01  0.00000000000E+00 0. -1.
         22   -1    0    0    0    0 -0.00000000000E+00 -0.00000000000E+00 -0.15752588608E+01  0.15752588608E+01  0.00000000000E+00 0.  1.
          4    1    1    2  501    0  0.17021845244E+01  0.20156383457E+01  0.40216623312E+01  0.48097814921E+01  0.00000000000E+00 0.  1.
         -4    1    1    2    0  501 -0.17021845244E+01 -0.20156383457E+01  0.29192854226E+00  0.26543271029E+01  0.00000000000E+00 0. -1.
<mgrwt>
<rscale>  0 0.26382248E+01</rscale>
<asrwt>0</asrwt>
<pdfrwt beam="1">0</pdfrwt>
<pdfrwt beam="2">0</pdfrwt>
<totfact> 0.17789310E+12</totfact>
</mgrwt>
</event>
<event>
 4    2  0.1993797E+006  0.3702066E+01  0.7546771E-02  0.2338140E+00
         22   -1    0    0    0    0  0.00000000000E+00  0.00000000000E+00  0.98896068623E+01  0.98896068623E+01  0.00000000000E+00 0.  1.
         22   -1    0    0    0    0 -0.00000000000E+00 -0.00000000000E+00 -0.14050957059E+01  0.14050957059E+01  0.00000000000E+00 0. -1.
          4    1    1    2  501    0  0.16007870071E+01  0.33380796688E+01  0.49035668452E+01  0.61441242438E+01  0.00000000000E+00 0. -1.
         -4    1    1    2    0  501 -0.16007870071E+01 -0.33380796688E+01  0.35809443112E+01  0.51505783245E+01  0.00000000000E+00 0.  1.
<mgrwt>
<rscale>  0 0.37020663E+01</rscale>
<asrwt>0</asrwt>
<pdfrwt beam="1">0</pdfrwt>
<pdfrwt beam="2">0</pdfrwt>
<totfact> 0.10893600E+12</totfact>
</mgrwt>
</event>
<event>
 4    2  0.1993797E+006  0.2221765E+01  0.7546771E-02  0.2845551E+00
         22   -1    0    0    0    0  0.00000000000E+00  0.00000000000E+00  0.50276166641E+01  0.50276166641E+01  0.00000000000E+00 0. -1.
         22   -1    0    0    0    0 -0.00000000000E+00 -0.00000000000E+00 -0.10737232456E+01  0.10737232456E+01  0.00000000000E+00 0.  1.
          4    1    1    2  501    0 -0.14855385225E+01 -0.16520938251E+01  0.28694362555E+01  0.36290361163E+01  0.00000000000E+00 0. -1.
         -4    1    1    2    0  501  0.14855385225E+01  0.16520938251E+01  0.10844571630E+01  0.24723037935E+01  0.00000000000E+00 0.  1.
<mgrwt>
<rscale>  0 0.22217648E+01</rscale>
<asrwt>0</asrwt>
<pdfrwt beam="1">0</pdfrwt>
<pdfrwt beam="2">0</pdfrwt>
<totfact> 0.33316291E+12</totfact>
</mgrwt>
</event>
<event>
 4    2  0.1993797E+006  0.2262727E+01  0.7546771E-02  0.2823379E+00
         22   -1    0    0    0    0  0.00000000000E+00  0.00000000000E+00  0.22377466754E+01  0.22377466754E+01  0.00000000000E+00 0.  1.
         22   -1    0    0    0    0 -0.00000000000E+00 -0.00000000000E+00 -0.35592455776E+01  0.35592455776E+01  0.00000000000E+00 0. -1.
          4    1    1    2  501    0  0.19616188053E+01 -0.11278239527E+01  0.10715010787E+01  0.25036073508E+01  0.00000000000E+00 0.  1.
         -4    1    1    2    0  501 -0.19616188053E+01  0.11278239527E+01 -0.23929999809E+01  0.32933849022E+01  0.00000000000E+00 0. -1.
<mgrwt>
<rscale>  0 0.22627274E+01</rscale>
<asrwt>0</asrwt>
<pdfrwt beam="1">0</pdfrwt>
<pdfrwt beam="2">0</pdfrwt>
<totfact> 0.21488381E+12</totfact>
</mgrwt>
</event>
<event>
 4    2  0.1993797E+006  0.4158368E+01  0.7546771E-02  0.2248007E+00
         22   -1    0    0    0    0  0.00000000000E+00  0.00000000000E+00  0.16795985232E+02  0.16795985232E+02  0.00000000000E+00 0. -1.
         22   -1    0    0    0    0 -0.00000000000E+00 -0.00000000000E+00 -0.10328561043E+01  0.10328561043E+01  0.00000000000E+00 0.  1.
          4    1    1    2  501    0  0.63187789867E+00  0.41100792732E+01  0.73759212854E+01  0.84673629967E+01  0.00000000000E+00 0. -1.
         -4    1    1    2    0  501 -0.63187789867E+00 -0.41100792732E+01  0.83872078419E+01  0.93614783391E+01  0.00000000000E+00 0.  1.
<mgrwt>
<rscale>  0 0.41583676E+01</rscale>
<asrwt>0</asrwt>
<pdfrwt beam="1">0</pdfrwt>
<pdfrwt beam="2">0</pdfrwt>
<totfact> 0.81094694E+11</totfact>
</mgrwt>
</event>
<event>
 4    2  0.1993797E+006  0.2291104E+01  0.7546771E-02  0.2808463E+00
         22   -1    0    0    0    0  0.00000000000E+00  0.00000000000E+00  0.38319379627E+02  0.38319379627E+02  0.00000000000E+00 0.  1.
         22   -1    0    0    0    0 -0.00000000000E+00 -0.00000000000E+00 -0.13711566716E+00  0.13711566716E+00  0.00000000000E+00 0. -1.
          4    1    1    2  501    0 -0.22143578345E+01 -0.58802667300E+00  0.18496117270E+02  0.18637475957E+02  0.00000000000E+00 0. -1.
         -4    1    1    2    0  501  0.22143578345E+01  0.58802667300E+00  0.19686146690E+02  0.19819019337E+02  0.00000000000E+00 0.  1.
<mgrwt>
<rscale>  0 0.22911037E+01</rscale>
<asrwt>0</asrwt>
<pdfrwt beam="1">0</pdfrwt>
<pdfrwt beam="2">0</pdfrwt>
<totfact> 0.27750121E+12</totfact>
</mgrwt>
</event>
<event>
 4    2  0.1993797E+006  0.2086652E+01  0.7546771E-02  0.2924594E+00
         22   -1    0    0    0    0  0.00000000000E+00  0.00000000000E+00  0.99628044792E+01  0.99628044792E+01  0.00000000000E+00 0.  1.
         22   -1    0    0    0    0 -0.00000000000E+00 -0.00000000000E+00 -0.59235952717E+00  0.59235952717E+00  0.00000000000E+00 0. -1.
          4    1    1    2  501    0  0.85917696738E-01 -0.20848826039E+01  0.73876812931E+01  0.76767149362E+01  0.00000000000E+00 0.  1.
         -4    1    1    2    0  501 -0.85917696738E-01  0.20848826039E+01  0.19827636589E+01  0.28784490702E+01  0.00000000000E+00 0. -1.
<mgrwt>
<rscale>  0 0.20866522E+01</rscale>
<asrwt>0</asrwt>
<pdfrwt beam="1">0</pdfrwt>
<pdfrwt beam="2">0</pdfrwt>
<totfact> 0.28907051E+12</totfact>
</mgrwt>
</event>
<event>
 4    2  0.1993797E+006  0.8660346E+01  0.7546771E-02  0.1840367E+00
         22   -1    0    0    0    0  0.00000000000E+00  0.00000000000E+00  0.67026899709E+02  0.67026899709E+02  0.00000000000E+00 0.  1.
         22   -1    0    0    0    0 -0.00000000000E+00 -0.00000000000E+00 -0.32989956987E+01  0.32989956987E+01  0.00000000000E+00 0. -1.
          4    1    1    2  501    0  0.45875137736E+01 -0.73454953588E+01  0.60448048645E+02  0.61065277939E+02  0.00000000000E+00 0.  1.
         -4    1    1    2    0  501 -0.45875137736E+01  0.73454953588E+01  0.32798553646E+01  0.92606174687E+01  0.00000000000E+00 0. -1.
<mgrwt>
<rscale>  0 0.86603455E+01</rscale>
<asrwt>0</asrwt>
<pdfrwt beam="1">0</pdfrwt>
<pdfrwt beam="2">0</pdfrwt>
<totfact> 0.35699061E+10</totfact>
</mgrwt>
</event>
<event>
 4    2  0.1993797E+006  0.2193692E+01  0.7546771E-02  0.2861202E+00
         22   -1    0    0    0    0  0.00000000000E+00  0.00000000000E+00  0.72815382032E+00  0.72815382032E+00  0.00000000000E+00 0. -1.
         22   -1    0    0    0    0 -0.00000000000E+00 -0.00000000000E+00 -0.71331388296E+01  0.71331388296E+01  0.00000000000E+00 0.  1.
          4    1    1    2  501    0 -0.80142064834E+00 -0.20420605955E+01 -0.21368942869E+01  0.30624506077E+01  0.00000000000E+00 0. -1.
         -4    1    1    2    0  501  0.80142064834E+00  0.20420605955E+01 -0.42680907224E+01  0.47988420422E+01  0.00000000000E+00 0.  1.
<mgrwt>
<rscale>  0 0.21936924E+01</rscale>
<asrwt>0</asrwt>
<pdfrwt beam="1">0</pdfrwt>
<pdfrwt beam="2">0</pdfrwt>
<totfact> 0.34199495E+12</totfact>
</mgrwt>
</event>
<event>
 4    2  0.1993797E+006  0.2677387E+01  0.7546771E-02  0.2635141E+00
         22   -1    0    0    0    0  0.00000000000E+00  0.00000000000E+00  0.21242500337E+02  0.21242500337E+02  0.00000000000E+00 0. -1.
         22   -1    0    0    0    0 -0.00000000000E+00 -0.00000000000E+00 -0.88353024285E+00  0.88353024285E+00  0.00000000000E+00 0.  1.
          4    1    1    2  501    0  0.28464240958E+00  0.26622131093E+01  0.18876872591E+02  0.19065799715E+02  0.00000000000E+00 0. -1.
         -4    1    1    2    0  501 -0.28464240958E+00 -0.26622131093E+01  0.14820975034E+01  0.30602308655E+01  0.00000000000E+00 0.  1.
<mgrwt>
<rscale>  0 0.26773868E+01</rscale>
<asrwt>0</asrwt>
<pdfrwt beam="1">0</pdfrwt>
<pdfrwt beam="2">0</pdfrwt>
<totfact> 0.72363498E+11</totfact>
</mgrwt>
</event>
<event>
 4    2  0.1993797E+006  0.3004664E+01  0.7546771E-02  0.2520708E+00
         22   -1    0    0    0    0  0.00000000000E+00  0.00000000000E+00  0.17604386016E+01  0.17604386016E+01  0.00000000000E+00 0. -1.
         22   -1    0    0    0    0 -0.00000000000E+00 -0.00000000000E+00 -0.19296132721E+02  0.19296132721E+02  0.00000000000E+00 0.  1.
          4    1    1    2  501    0 -0.20555972876E+01  0.21914664815E+01  0.25356836281E+00  0.30153445015E+01  0.00000000000E+00 0. -1.
         -4    1    1    2    0  501  0.20555972876E+01 -0.21914664815E+01 -0.17789262483E+02  0.18041226821E+02  0.00000000000E+00 0.  1.
<mgrwt>
<rscale>  0 0.30046640E+01</rscale>
<asrwt>0</asrwt>
<pdfrwt beam="1">0</pdfrwt>
<pdfrwt beam="2">0</pdfrwt>
<totfact> 0.37007061E+11</totfact>
</mgrwt>
</event>
<event>
 4    2  0.1993797E+006  0.2960217E+01  0.7546771E-02  0.2534903E+00
         22   -1    0    0    0    0  0.00000000000E+00  0.00000000000E+00  0.16447463756E+01  0.16447463756E+01  0.00000000000E+00 0.  1.
         22   -1    0    0    0    0 -0.00000000000E+00 -0.00000000000E+00 -0.74791243793E+01  0.74791243793E+01  0.00000000000E+00 0. -1.
          4    1    1    2  501    0  0.22388636136E+01  0.19365882978E+01 -0.47051330881E+00  0.29973767346E+01  0.00000000000E+00 0.  1.
         -4    1    1    2    0  501 -0.22388636136E+01 -0.19365882978E+01 -0.53638646949E+01  0.61264940203E+01  0.00000000000E+00 0. -1.
<mgrwt>
<rscale>  0 0.29602170E+01</rscale>
<asrwt>0</asrwt>
<pdfrwt beam="1">0</pdfrwt>
<pdfrwt beam="2">0</pdfrwt>
<totfact> 0.12722898E+12</totfact>
</mgrwt>
</event>
<event>
 4    2  0.1993797E+006  0.2234882E+01  0.7546771E-02  0.2838367E+00
         22   -1    0    0    0    0  0.00000000000E+00  0.00000000000E+00  0.96303124851E+01  0.96303124851E+01  0.00000000000E+00 0. -1.
         22   -1    0    0    0    0 -0.00000000000E+00 -0.00000000000E+00 -0.66707807055E+00  0.66707807055E+00  0.00000000000E+00 0.  1.
          4    1    1    2  501    0 -0.20255706236E+01  0.94433123558E+00  0.69103322375E+01  0.72627398044E+01  0.00000000000E+00 0. -1.
         -4    1    1    2    0  501  0.20255706236E+01 -0.94433123558E+00  0.20529021771E+01  0.30346507513E+01  0.00000000000E+00 0.  1.
<mgrwt>
<rscale>  0 0.22348821E+01</rscale>
<asrwt>0</asrwt>
<pdfrwt beam="1">0</pdfrwt>
<pdfrwt beam="2">0</pdfrwt>
<totfact> 0.26326518E+12</totfact>
</mgrwt>
</event>
<event>
 4    2  0.1993797E+006  0.2073799E+01  0.7546771E-02  0.2932631E+00
         22   -1    0    0    0    0  0.00000000000E+00  0.00000000000E+00  0.23314111450E+01  0.23314111450E+01  0.00000000000E+00 0. -1.
         22   -1    0    0    0    0 -0.00000000000E+00 -0.00000000000E+00 -0.21670346250E+01  0.21670346250E+01  0.00000000000E+00 0.  1.
          4    1    1    2  501    0  0.15224331811E+01 -0.14081329917E+01  0.94972054777E+00  0.22809231534E+01  0.00000000000E+00 0.  1.
         -4    1    1    2    0  501 -0.15224331811E+01  0.14081329917E+01 -0.78534402772E+00  0.22175226165E+01  0.00000000000E+00 0. -1.
<mgrwt>
<rscale>  0 0.20737988E+01</rscale>
<asrwt>0</asrwt>
<pdfrwt beam="1">0</pdfrwt>
<pdfrwt beam="2">0</pdfrwt>
<totfact> 0.36543170E+12</totfact>
</mgrwt>
</event>
<event>
 4    2  0.1993797E+006  0.2679063E+01  0.7546771E-02  0.2634490E+00
         22   -1    0    0    0    0  0.00000000000E+00  0.00000000000E+00  0.69694776404E+01  0.69694776404E+01  0.00000000000E+00 0.  1.
         22   -1    0    0    0    0 -0.00000000000E+00 -0.00000000000E+00 -0.11145224937E+01  0.11145224937E+01  0.00000000000E+00 0. -1.
          4    1    1    2  501    0 -0.18080650912E+01  0.19769368469E+01  0.40417048897E+01  0.48489954719E+01  0.00000000000E+00 0. -1.
         -4    1    1    2    0  501  0.18080650912E+01 -0.19769368469E+01  0.18132502569E+01  0.32350046623E+01  0.00000000000E+00 0.  1.
<mgrwt>
<rscale>  0 0.26790630E+01</rscale>
<asrwt>0</asrwt>
<pdfrwt beam="1">0</pdfrwt>
<pdfrwt beam="2">0</pdfrwt>
<totfact> 0.21645572E+12</totfact>
</mgrwt>
</event>
<event>
 4    2  0.1993797E+006  0.2812807E+01  0.7546771E-02  0.2584863E+00
         22   -1    0    0    0    0  0.00000000000E+00  0.00000000000E+00  0.15904782594E+02  0.15904782594E+02  0.00000000000E+00 0.  1.
         22   -1    0    0    0    0 -0.00000000000E+00 -0.00000000000E+00 -0.13675908510E+01  0.13675908510E+01  0.00000000000E+00 0. -1.
          4    1    1    2  501    0  0.88655067705E+00 -0.26694403976E+01  0.14157306219E+02  0.14434029359E+02  0.00000000000E+00 0.  1.
         -4    1    1    2    0  501 -0.88655067705E+00  0.26694403976E+01  0.37988552322E+00  0.28383440860E+01  0.00000000000E+00 0. -1.
<mgrwt>
<rscale>  0 0.28128072E+01</rscale>
<asrwt>0</asrwt>
<pdfrwt beam="1">0</pdfrwt>
<pdfrwt beam="2">0</pdfrwt>
<totfact> 0.62888917E+11</totfact>
</mgrwt>
</event>
<event>
 4    2  0.1993797E+006  0.4985609E+01  0.7546771E-02  0.2124725E+00
         22   -1    0    0    0    0  0.00000000000E+00  0.00000000000E+00  0.13426638028E+02  0.13426638028E+02  0.00000000000E+00 0.  1.
         22   -1    0    0    0    0 -0.00000000000E+00 -0.00000000000E+00 -0.19736446601E+01  0.19736446601E+01  0.00000000000E+00 0. -1.
          4    1    1    2  501    0  0.49698568800E+01  0.39600583609E+00  0.38090889361E+01  0.62741897129E+01  0.00000000000E+00 0.  1.
         -4    1    1    2    0  501 -0.49698568800E+01 -0.39600583609E+00  0.76439044318E+01  0.91260929752E+01  0.00000000000E+00 0. -1.
<mgrwt>
<rscale>  0 0.49856091E+01</rscale>
<asrwt>0</asrwt>
<pdfrwt beam="1">0</pdfrwt>
<pdfrwt beam="2">0</pdfrwt>
<totfact> 0.50740562E+11</totfact>
</mgrwt>
</event>
<event>
 4    2  0.1993797E+006  0.2798359E+01  0.7546771E-02  0.2590016E+00
         22   -1    0    0    0    0  0.00000000000E+00  0.00000000000E+00  0.41076121647E+00  0.41076121647E+00  0.00000000000E+00 0.  1.
         22   -1    0    0    0    0 -0.00000000000E+00 -0.00000000000E+00 -0.29492536161E+02  0.29492536161E+02  0.00000000000E+00 0. -1.
          4    1    1    2  501    0 -0.27810199277E+01  0.31103603865E+00 -0.56500742987E+01  0.63050895978E+01  0.00000000000E+00 0.  1.
         -4    1    1    2    0  501  0.27810199277E+01 -0.31103603865E+00 -0.23431700645E+02  0.23598207779E+02  0.00000000000E+00 0. -1.
<mgrwt>
<rscale>  0 0.27983594E+01</rscale>
<asrwt>0</asrwt>
<pdfrwt beam="1">0</pdfrwt>
<pdfrwt beam="2">0</pdfrwt>
<totfact> 0.11388221E+12</totfact>
</mgrwt>
</event>
<event>
 4    2  0.1993797E+006  0.4664779E+01  0.7546771E-02  0.2165775E+00
         22   -1    0    0    0    0  0.00000000000E+00  0.00000000000E+00  0.51568022368E+01  0.51568022368E+01  0.00000000000E+00 0. -1.
         22   -1    0    0    0    0 -0.00000000000E+00 -0.00000000000E+00 -0.42215608753E+01  0.42215608753E+01  0.00000000000E+00 0.  1.
          4    1    1    2  501    0  0.22145714017E+01  0.41055865647E+01  0.36921677458E+00  0.46793683933E+01  0.00000000000E+00 0.  1.
         -4    1    1    2    0  501 -0.22145714017E+01 -0.41055865647E+01  0.56602458692E+00  0.46989947187E+01  0.00000000000E+00 0. -1.
<mgrwt>
<rscale>  0 0.46647795E+01</rscale>
<asrwt>0</asrwt>
<pdfrwt beam="1">0</pdfrwt>
<pdfrwt beam="2">0</pdfrwt>
<totfact> 0.66088524E+11</totfact>
</mgrwt>
</event>
<event>
 4    2  0.1993797E+006  0.3365872E+01  0.7546771E-02  0.2417841E+00
         22   -1    0    0    0    0  0.00000000000E+00  0.00000000000E+00  0.35328092227E+01  0.35328092227E+01  0.00000000000E+00 0.  1.
         22   -1    0    0    0    0 -0.00000000000E+00 -0.00000000000E+00 -0.44234519842E+02  0.44234519842E+02  0.00000000000E+00 0. -1.
          4    1    1    2  501    0 -0.28598357923E+01 -0.17749467116E+01  0.26507882180E+01  0.42843639860E+01  0.00000000000E+00 0.  1.
         -4    1    1    2    0  501  0.28598357923E+01  0.17749467116E+01 -0.43352498838E+02  0.43482965079E+02  0.00000000000E+00 0. -1.
<mgrwt>
<rscale>  0 0.33658723E+01</rscale>
<asrwt>0</asrwt>
<pdfrwt beam="1">0</pdfrwt>
<pdfrwt beam="2">0</pdfrwt>
<totfact> 0.57217887E+10</totfact>
</mgrwt>
</event>
<event>
 4    2  0.1993797E+006  0.3954096E+01  0.7546771E-02  0.2286156E+00
         22   -1    0    0    0    0  0.00000000000E+00  0.00000000000E+00  0.12833386492E+01  0.12833386492E+01  0.00000000000E+00 0. -1.
         22   -1    0    0    0    0 -0.00000000000E+00 -0.00000000000E+00 -0.25686562312E+02  0.25686562312E+02  0.00000000000E+00 0.  1.
          4    1    1    2  501    0 -0.38935821238E+01 -0.68912724718E+00 -0.24242655044E+01  0.46380967382E+01  0.00000000000E+00 0. -1.
         -4    1    1    2    0  501  0.38935821238E+01  0.68912724718E+00 -0.21978958158E+02  0.22331804223E+02  0.00000000000E+00 0.  1.
<mgrwt>
<rscale>  0 0.39540964E+01</rscale>
<asrwt>0</asrwt>
<pdfrwt beam="1">0</pdfrwt>
<pdfrwt beam="2">0</pdfrwt>
<totfact> 0.37195472E+11</totfact>
</mgrwt>
</event>
<event>
 4    2  0.1993797E+006  0.2484997E+01  0.7546771E-02  0.2715182E+00
         22   -1    0    0    0    0  0.00000000000E+00  0.00000000000E+00  0.60026464646E+01  0.60026464646E+01  0.00000000000E+00 0.  1.
         22   -1    0    0    0    0 -0.00000000000E+00 -0.00000000000E+00 -0.19776358121E+01  0.19776358121E+01  0.00000000000E+00 0. -1.
          4    1    1    2  501    0 -0.23569401610E+01 -0.78742766758E+00  0.47764069575E+01  0.53841687081E+01  0.00000000000E+00 0.  1.
         -4    1    1    2    0  501  0.23569401610E+01  0.78742766758E+00 -0.75139630497E+00  0.25961135687E+01  0.00000000000E+00 0. -1.
<mgrwt>
<rscale>  0 0.24849968E+01</rscale>
<asrwt>0</asrwt>
<pdfrwt beam="1">0</pdfrwt>
<pdfrwt beam="2">0</pdfrwt>
<totfact> 0.13372461E+12</totfact>
</mgrwt>
</event>
<event>
 4    2  0.1993797E+006  0.2496228E+01  0.7546771E-02  0.2710196E+00
         22   -1    0    0    0    0  0.00000000000E+00  0.00000000000E+00  0.84029123482E+01  0.84029123482E+01  0.00000000000E+00 0.  1.
         22   -1    0    0    0    0 -0.00000000000E+00 -0.00000000000E+00 -0.82948980761E+00  0.82948980761E+00  0.00000000000E+00 0. -1.
          4    1    1    2  501    0  0.69432530002E+00 -0.23977206344E+01  0.52897844054E+01  0.58491854918E+01  0.00000000000E+00 0.  1.
         -4    1    1    2    0  501 -0.69432530002E+00  0.23977206344E+01  0.22836381352E+01  0.33832166640E+01  0.00000000000E+00 0. -1.
<mgrwt>
<rscale>  0 0.24962275E+01</rscale>
<asrwt>0</asrwt>
<pdfrwt beam="1">0</pdfrwt>
<pdfrwt beam="2">0</pdfrwt>
<totfact> 0.24227350E+12</totfact>
</mgrwt>
</event>
<event>
 4    2  0.1993797E+006  0.4570780E+01  0.7546771E-02  0.2179880E+00
         22   -1    0    0    0    0  0.00000000000E+00  0.00000000000E+00  0.74518327046E+01  0.74518327046E+01  0.00000000000E+00 0.  1.
         22   -1    0    0    0    0 -0.00000000000E+00 -0.00000000000E+00 -0.34731195430E+01  0.34731195430E+01  0.00000000000E+00 0. -1.
          4    1    1    2  501    0  0.41190861565E+01 -0.19812007091E+01  0.43876831497E+01  0.63359127549E+01  0.00000000000E+00 0.  1.
         -4    1    1    2    0  501 -0.41190861565E+01  0.19812007091E+01 -0.40896998808E+00  0.45890394928E+01  0.00000000000E+00 0. -1.
<mgrwt>
<rscale>  0 0.45707797E+01</rscale>
<asrwt>0</asrwt>
<pdfrwt beam="1">0</pdfrwt>
<pdfrwt beam="2">0</pdfrwt>
<totfact> 0.53606882E+11</totfact>
</mgrwt>
</event>
<event>
 4    2  0.1993797E+006  0.2208217E+01  0.7546771E-02  0.2853057E+00
         22   -1    0    0    0    0  0.00000000000E+00  0.00000000000E+00  0.11932129898E+01  0.11932129898E+01  0.00000000000E+00 0. -1.
         22   -1    0    0    0    0 -0.00000000000E+00 -0.00000000000E+00 -0.54519597667E+01  0.54519597667E+01  0.00000000000E+00 0.  1.
          4    1    1    2  501    0 -0.11889583386E+01 -0.18608066659E+01 -0.46665657575E+00  0.22569873147E+01  0.00000000000E+00 0. -1.
         -4    1    1    2    0  501  0.11889583386E+01  0.18608066659E+01 -0.37920902011E+01  0.43881854419E+01  0.00000000000E+00 0.  1.
<mgrwt>
<rscale>  0 0.22082172E+01</rscale>
<asrwt>0</asrwt>
<pdfrwt beam="1">0</pdfrwt>
<pdfrwt beam="2">0</pdfrwt>
<totfact> 0.26821726E+12</totfact>
</mgrwt>
</event>
<event>
 4    2  0.1993797E+006  0.5003378E+01  0.7546771E-02  0.2122601E+00
         22   -1    0    0    0    0  0.00000000000E+00  0.00000000000E+00  0.26177214656E+02  0.26177214656E+02  0.00000000000E+00 0.  1.
         22   -1    0    0    0    0 -0.00000000000E+00 -0.00000000000E+00 -0.11720941280E+01  0.11720941280E+01  0.00000000000E+00 0. -1.
          4    1    1    2  501    0  0.32815984617E+01 -0.37768905797E+01  0.18369814599E+02  0.19039009410E+02  0.00000000000E+00 0.  1.
         -4    1    1    2    0  501 -0.32815984617E+01  0.37768905797E+01  0.66353059296E+01  0.83102993745E+01  0.00000000000E+00 0. -1.
<mgrwt>
<rscale>  0 0.50033780E+01</rscale>
<asrwt>0</asrwt>
<pdfrwt beam="1">0</pdfrwt>
<pdfrwt beam="2">0</pdfrwt>
<totfact> 0.40294016E+11</totfact>
</mgrwt>
</event>
<event>
 4    2  0.1993797E+006  0.2187588E+01  0.7546771E-02  0.2864656E+00
         22   -1    0    0    0    0  0.00000000000E+00  0.00000000000E+00  0.24763654639E+02  0.24763654639E+02  0.00000000000E+00 0.  1.
         22   -1    0    0    0    0 -0.00000000000E+00 -0.00000000000E+00 -0.19461650902E+00  0.19461650902E+00  0.00000000000E+00 0. -1.
          4    1    1    2  501    0 -0.60556592450E+00  0.21021019856E+01  0.13330720266E+02  0.13509020900E+02  0.00000000000E+00 0. -1.
         -4    1    1    2    0  501  0.60556592450E+00 -0.21021019856E+01  0.11238317864E+02  0.11449250249E+02  0.00000000000E+00 0.  1.
<mgrwt>
<rscale>  0 0.21875884E+01</rscale>
<asrwt>0</asrwt>
<pdfrwt beam="1">0</pdfrwt>
<pdfrwt beam="2">0</pdfrwt>
<totfact> 0.32814276E+12</totfact>
</mgrwt>
</event>
<event>
 4    2  0.1993797E+006  0.2829973E+01  0.7546771E-02  0.2578803E+00
         22   -1    0    0    0    0  0.00000000000E+00  0.00000000000E+00  0.14427315751E+02  0.14427315751E+02  0.00000000000E+00 0.  1.
         22   -1    0    0    0    0 -0.00000000000E+00 -0.00000000000E+00 -0.75656414806E+00  0.75656414806E+00  0.00000000000E+00 0. -1.
          4    1    1    2  501    0 -0.14488412210E+01 -0.24309680486E+01  0.10752957353E+02  0.11119120395E+02  0.00000000000E+00 0.  1.
         -4    1    1    2    0  501  0.14488412210E+01  0.24309680486E+01  0.29177942504E+01  0.40647595039E+01  0.00000000000E+00 0. -1.
<mgrwt>
<rscale>  0 0.28299729E+01</rscale>
<asrwt>0</asrwt>
<pdfrwt beam="1">0</pdfrwt>
<pdfrwt beam="2">0</pdfrwt>
<totfact> 0.13945145E+12</totfact>
</mgrwt>
</event>
<event>
 4    2  0.1993797E+006  0.2520876E+01  0.7546771E-02  0.2699398E+00
         22   -1    0    0    0    0  0.00000000000E+00  0.00000000000E+00  0.12826748133E+02  0.12826748133E+02  0.00000000000E+00 0.  1.
         22   -1    0    0    0    0 -0.00000000000E+00 -0.00000000000E+00 -0.97841821791E+00  0.97841821791E+00  0.00000000000E+00 0. -1.
          4    1    1    2  501    0  0.24474974900E+01  0.60379712814E+00  0.10773872837E+02  0.11064861085E+02  0.00000000000E+00 0.  1.
         -4    1    1    2    0  501 -0.24474974900E+01 -0.60379712814E+00  0.10744570784E+01  0.27403052656E+01  0.00000000000E+00 0. -1.
<mgrwt>
<rscale>  0 0.25208758E+01</rscale>
<asrwt>0</asrwt>
<pdfrwt beam="1">0</pdfrwt>
<pdfrwt beam="2">0</pdfrwt>
<totfact> 0.12017121E+12</totfact>
</mgrwt>
</event>
<event>
 4    2  0.1993797E+006  0.2480700E+01  0.7546771E-02  0.2717101E+00
         22   -1    0    0    0    0  0.00000000000E+00  0.00000000000E+00  0.57502033029E+01  0.57502033029E+01  0.00000000000E+00 0. -1.
         22   -1    0    0    0    0 -0.00000000000E+00 -0.00000000000E+00 -0.37384653824E+02  0.37384653824E+02  0.00000000000E+00 0.  1.
          4    1    1    2  501    0 -0.21616214979E+01  0.12170720346E+01  0.54392592380E+01  0.59782449678E+01  0.00000000000E+00 0. -1.
         -4    1    1    2    0  501  0.21616214979E+01 -0.12170720346E+01 -0.37073709759E+02  0.37156612159E+02  0.00000000000E+00 0.  1.
<mgrwt>
<rscale>  0 0.24806999E+01</rscale>
<asrwt>0</asrwt>
<pdfrwt beam="1">0</pdfrwt>
<pdfrwt beam="2">0</pdfrwt>
<totfact> 0.40056281E+10</totfact>
</mgrwt>
</event>
<event>
 4    2  0.1993797E+006  0.5877299E+01  0.7546771E-02  0.2030870E+00
         22   -1    0    0    0    0  0.00000000000E+00  0.00000000000E+00  0.44225495742E+01  0.44225495742E+01  0.00000000000E+00 0. -1.
         22   -1    0    0    0    0 -0.00000000000E+00 -0.00000000000E+00 -0.10888403488E+02  0.10888403488E+02  0.00000000000E+00 0.  1.
          4    1    1    2  501    0  0.15791700473E+01  0.56611713092E+01  0.83724349718E+00  0.59366333308E+01  0.00000000000E+00 0.  1.
         -4    1    1    2    0  501 -0.15791700473E+01 -0.56611713092E+01 -0.73030974107E+01  0.93743197311E+01  0.00000000000E+00 0. -1.
<mgrwt>
<rscale>  0 0.58772986E+01</rscale>
<asrwt>0</asrwt>
<pdfrwt beam="1">0</pdfrwt>
<pdfrwt beam="2">0</pdfrwt>
<totfact> 0.25531597E+11</totfact>
</mgrwt>
</event>
<event>
 4    2  0.1993797E+006  0.2602780E+01  0.7546771E-02  0.2664882E+00
         22   -1    0    0    0    0  0.00000000000E+00  0.00000000000E+00  0.10699951435E+01  0.10699951435E+01  0.00000000000E+00 0.  1.
         22   -1    0    0    0    0 -0.00000000000E+00 -0.00000000000E+00 -0.94350549287E+01  0.94350549287E+01  0.00000000000E+00 0. -1.
          4    1    1    2  501    0  0.18698612905E+00  0.25960542020E+01 -0.11699431421E+01  0.28536342070E+01  0.00000000000E+00 0.  1.
         -4    1    1    2    0  501 -0.18698612905E+00 -0.25960542020E+01 -0.71951166432E+01  0.76514158651E+01  0.00000000000E+00 0. -1.
<mgrwt>
<rscale>  0 0.26027795E+01</rscale>
<asrwt>0</asrwt>
<pdfrwt beam="1">0</pdfrwt>
<pdfrwt beam="2">0</pdfrwt>
<totfact> 0.15757934E+12</totfact>
</mgrwt>
</event>
<event>
 4    2  0.1993797E+006  0.2806040E+01  0.7546771E-02  0.2587270E+00
         22   -1    0    0    0    0  0.00000000000E+00  0.00000000000E+00  0.77217253151E+00  0.77217253151E+00  0.00000000000E+00 0. -1.
         22   -1    0    0    0    0 -0.00000000000E+00 -0.00000000000E+00 -0.49015103155E+02  0.49015103155E+02  0.00000000000E+00 0.  1.
          4    1    1    2  501    0  0.24108963199E+01  0.14357720878E+01 -0.19680636350E+01  0.34274096669E+01  0.00000000000E+00 0. -1.
         -4    1    1    2    0  501 -0.24108963199E+01 -0.14357720878E+01 -0.46274866989E+02  0.46359866020E+02  0.00000000000E+00 0.  1.
<mgrwt>
<rscale>  0 0.28060404E+01</rscale>
<asrwt>0</asrwt>
<pdfrwt beam="1">0</pdfrwt>
<pdfrwt beam="2">0</pdfrwt>
<totfact> 0.28897562E+11</totfact>
</mgrwt>
</event>
<event>
 4    2  0.1993797E+006  0.4319664E+01  0.7546771E-02  0.2220059E+00
         22   -1    0    0    0    0  0.00000000000E+00  0.00000000000E+00  0.24793584002E+00  0.24793584002E+00  0.00000000000E+00 0.  1.
         22   -1    0    0    0    0 -0.00000000000E+00 -0.00000000000E+00 -0.84702754360E+02  0.84702754360E+02  0.00000000000E+00 0. -1.
          4    1    1    2  501    0 -0.11910950828E+01 -0.41522026810E+01 -0.28044934116E+02  0.28375655485E+02  0.00000000000E+00 0.  1.
         -4    1    1    2    0  501  0.11910950828E+01  0.41522026810E+01 -0.56409884404E+02  0.56575034715E+02  0.00000000000E+00 0. -1.
<mgrwt>
<rscale>  0 0.43196637E+01</rscale>
<asrwt>0</asrwt>
<pdfrwt beam="1">0</pdfrwt>
<pdfrwt beam="2">0</pdfrwt>
<totfact> 0.49759110E+11</totfact>
</mgrwt>
</event>
<event>
 4    2  0.1993797E+006  0.2606729E+01  0.7546771E-02  0.2663268E+00
         22   -1    0    0    0    0  0.00000000000E+00  0.00000000000E+00  0.24254512660E+01  0.24254512660E+01  0.00000000000E+00 0.  1.
         22   -1    0    0    0    0 -0.00000000000E+00 -0.00000000000E+00 -0.33062242378E+02  0.33062242378E+02  0.00000000000E+00 0. -1.
          4    1    1    2  501    0 -0.46206447831E+00  0.25654501775E+01  0.16570433660E+01  0.30888235482E+01  0.00000000000E+00 0.  1.
         -4    1    1    2    0  501  0.46206447831E+00 -0.25654501775E+01 -0.32293834478E+02  0.32398870096E+02  0.00000000000E+00 0. -1.
<mgrwt>
<rscale>  0 0.26067294E+01</rscale>
<asrwt>0</asrwt>
<pdfrwt beam="1">0</pdfrwt>
<pdfrwt beam="2">0</pdfrwt>
<totfact> 0.12936755E+11</totfact>
</mgrwt>
</event>
<event>
 4    2  0.1993797E+006  0.2635933E+01  0.7546771E-02  0.2651475E+00
         22   -1    0    0    0    0  0.00000000000E+00  0.00000000000E+00  0.11968541873E+01  0.11968541873E+01  0.00000000000E+00 0. -1.
         22   -1    0    0    0    0 -0.00000000000E+00 -0.00000000000E+00 -0.74260681133E+01  0.74260681133E+01  0.00000000000E+00 0.  1.
          4    1    1    2  501    0  0.16299137783E+01 -0.20715987341E+01 -0.11004158140E+01  0.28564059941E+01  0.00000000000E+00 0. -1.
         -4    1    1    2    0  501 -0.16299137783E+01  0.20715987341E+01 -0.51287981120E+01  0.57665163065E+01  0.00000000000E+00 0.  1.
<mgrwt>
<rscale>  0 0.26359325E+01</rscale>
<asrwt>0</asrwt>
<pdfrwt beam="1">0</pdfrwt>
<pdfrwt beam="2">0</pdfrwt>
<totfact> 0.18489986E+12</totfact>
</mgrwt>
</event>
<event>
 4    2  0.1993797E+006  0.2297452E+01  0.7546771E-02  0.2805174E+00
         22   -1    0    0    0    0  0.00000000000E+00  0.00000000000E+00  0.83620381809E+00  0.83620381809E+00  0.00000000000E+00 0.  1.
         22   -1    0    0    0    0 -0.00000000000E+00 -0.00000000000E+00 -0.80226667140E+01  0.80226667140E+01  0.00000000000E+00 0. -1.
          4    1    1    2  501    0  0.22497266957E+01 -0.46584989433E+00 -0.15479823587E+01  0.27702952392E+01  0.00000000000E+00 0.  1.
         -4    1    1    2    0  501 -0.22497266957E+01  0.46584989433E+00 -0.56384805373E+01  0.60885752930E+01  0.00000000000E+00 0. -1.
<mgrwt>
<rscale>  0 0.22974521E+01</rscale>
<asrwt>0</asrwt>
<pdfrwt beam="1">0</pdfrwt>
<pdfrwt beam="2">0</pdfrwt>
<totfact> 0.25380138E+12</totfact>
</mgrwt>
</event>
<event>
 4    2  0.1993797E+006  0.2133795E+01  0.7546771E-02  0.2895918E+00
         22   -1    0    0    0    0  0.00000000000E+00  0.00000000000E+00  0.37420184364E+02  0.37420184364E+02  0.00000000000E+00 0. -1.
         22   -1    0    0    0    0 -0.00000000000E+00 -0.00000000000E+00 -0.12879262016E+00  0.12879262016E+00  0.00000000000E+00 0.  1.
          4    1    1    2  501    0 -0.15501134743E+01 -0.14663655253E+01  0.23059442403E+02  0.23157956809E+02  0.00000000000E+00 0.  1.
         -4    1    1    2    0  501  0.15501134743E+01  0.14663655253E+01  0.14231949341E+02  0.14391020175E+02  0.00000000000E+00 0. -1.
<mgrwt>
<rscale>  0 0.21337947E+01</rscale>
<asrwt>0</asrwt>
<pdfrwt beam="1">0</pdfrwt>
<pdfrwt beam="2">0</pdfrwt>
<totfact> 0.30674727E+12</totfact>
</mgrwt>
</event>
<event>
 4    2  0.1993797E+006  0.2314555E+01  0.7546771E-02  0.2796398E+00
         22   -1    0    0    0    0  0.00000000000E+00  0.00000000000E+00  0.42906793302E+01  0.42906793302E+01  0.00000000000E+00 0.  1.
         22   -1    0    0    0    0 -0.00000000000E+00 -0.00000000000E+00 -0.14181099965E+01  0.14181099965E+01  0.00000000000E+00 0. -1.
          4    1    1    2  501    0  0.16666692978E+01  0.16060449456E+01  0.24232662506E+01  0.33510276390E+01  0.00000000000E+00 0.  1.
         -4    1    1    2    0  501 -0.16666692978E+01 -0.16060449456E+01  0.44930308305E+00  0.23577616877E+01  0.00000000000E+00 0. -1.
<mgrwt>
<rscale>  0 0.23145554E+01</rscale>
<asrwt>0</asrwt>
<pdfrwt beam="1">0</pdfrwt>
<pdfrwt beam="2">0</pdfrwt>
<totfact> 0.29207720E+12</totfact>
</mgrwt>
</event>
<event>
 4    2  0.1993797E+006  0.2717091E+01  0.7546771E-02  0.2619926E+00
         22   -1    0    0    0    0  0.00000000000E+00  0.00000000000E+00  0.12904889804E+01  0.12904889804E+01  0.00000000000E+00 0. -1.
         22   -1    0    0    0    0 -0.00000000000E+00 -0.00000000000E+00 -0.87328248317E+01  0.87328248317E+01  0.00000000000E+00 0.  1.
          4    1    1    2  501    0 -0.19299126703E+01 -0.19125948661E+01 -0.77785881279E+00  0.28262424470E+01  0.00000000000E+00 0. -1.
         -4    1    1    2    0  501  0.19299126703E+01  0.19125948661E+01 -0.66644770385E+01  0.71970713650E+01  0.00000000000E+00 0.  1.
<mgrwt>
<rscale>  0 0.27170907E+01</rscale>
<asrwt>0</asrwt>
<pdfrwt beam="1">0</pdfrwt>
<pdfrwt beam="2">0</pdfrwt>
<totfact> 0.13958489E+12</totfact>
</mgrwt>
</event>
<event>
 4    2  0.1993797E+006  0.2461008E+01  0.7546771E-02  0.2725974E+00
         22   -1    0    0    0    0  0.00000000000E+00  0.00000000000E+00  0.77680908847E-01  0.77680908847E-01  0.00000000000E+00 0.  1.
         22   -1    0    0    0    0 -0.00000000000E+00 -0.00000000000E+00 -0.12117726022E+03  0.12117726022E+03  0.00000000000E+00 0. -1.
          4    1    1    2  501    0 -0.14287913914E+01 -0.20037758535E+01 -0.24346223700E+02  0.24470291599E+02  0.00000000000E+00 0. -1.
         -4    1    1    2    0  501  0.14287913914E+01  0.20037758535E+01 -0.96753355614E+02  0.96784649533E+02  0.00000000000E+00 0.  1.
<mgrwt>
<rscale>  0 0.24610084E+01</rscale>
<asrwt>0</asrwt>
<pdfrwt beam="1">0</pdfrwt>
<pdfrwt beam="2">0</pdfrwt>
<totfact> 0.10900781E+12</totfact>
</mgrwt>
</event>
<event>
 4    2  0.1993797E+006  0.2337064E+01  0.7546771E-02  0.2785034E+00
         22   -1    0    0    0    0  0.00000000000E+00  0.00000000000E+00  0.63799711122E+01  0.63799711122E+01  0.00000000000E+00 0. -1.
         22   -1    0    0    0    0 -0.00000000000E+00 -0.00000000000E+00 -0.77092427506E+01  0.77092427506E+01  0.00000000000E+00 0.  1.
          4    1    1    2  501    0  0.36514489915E+00  0.23083622565E+01  0.59773191106E+01  0.64179600228E+01  0.00000000000E+00 0. -1.
         -4    1    1    2    0  501 -0.36514489915E+00 -0.23083622565E+01 -0.73065907490E+01  0.76712538400E+01  0.00000000000E+00 0.  1.
<mgrwt>
<rscale>  0 0.23370638E+01</rscale>
<asrwt>0</asrwt>
<pdfrwt beam="1">0</pdfrwt>
<pdfrwt beam="2">0</pdfrwt>
<totfact> 0.25078527E+11</totfact>
</mgrwt>
</event>
<event>
 4    2  0.1993797E+006  0.2517918E+01  0.7546771E-02  0.2700683E+00
         22   -1    0    0    0    0  0.00000000000E+00  0.00000000000E+00  0.41110884454E+00  0.41110884454E+00  0.00000000000E+00 0. -1.
         22   -1    0    0    0    0 -0.00000000000E+00 -0.00000000000E+00 -0.25756974609E+02  0.25756974609E+02  0.00000000000E+00 0.  1.
          4    1    1    2  501    0  0.14356993702E+01  0.20684964515E+01 -0.43847380267E+01  0.50562671818E+01  0.00000000000E+00 0. -1.
         -4    1    1    2    0  501 -0.14356993702E+01 -0.20684964515E+01 -0.20961127737E+02  0.21111816271E+02  0.00000000000E+00 0.  1.
<mgrwt>
<rscale>  0 0.25179178E+01</rscale>
<asrwt>0</asrwt>
<pdfrwt beam="1">0</pdfrwt>
<pdfrwt beam="2">0</pdfrwt>
<totfact> 0.13509144E+12</totfact>
</mgrwt>
</event>
<event>
 4    2  0.1993797E+006  0.2184885E+01  0.7546771E-02  0.2866192E+00
         22   -1    0    0    0    0  0.00000000000E+00  0.00000000000E+00  0.13625516700E+02  0.13625516700E+02  0.00000000000E+00 0. -1.
         22   -1    0    0    0    0 -0.00000000000E+00 -0.00000000000E+00 -0.38721528710E+00  0.38721528710E+00  0.00000000000E+00 0.  1.
          4    1    1    2  501    0  0.16203621588E+01  0.14656565189E+01  0.87809508147E+01  0.90486916052E+01  0.00000000000E+00 0.  1.
         -4    1    1    2    0  501 -0.16203621588E+01 -0.14656565189E+01  0.44573505980E+01  0.49640403816E+01  0.00000000000E+00 0. -1.
<mgrwt>
<rscale>  0 0.21848850E+01</rscale>
<asrwt>0</asrwt>
<pdfrwt beam="1">0</pdfrwt>
<pdfrwt beam="2">0</pdfrwt>
<totfact> 0.31898451E+12</totfact>
</mgrwt>
</event>
<event>
 4    2  0.1993797E+006  0.2311578E+01  0.7546771E-02  0.2797917E+00
         22   -1    0    0    0    0  0.00000000000E+00  0.00000000000E+00  0.39044237794E+00  0.39044237794E+00  0.00000000000E+00 0. -1.
         22   -1    0    0    0    0 -0.00000000000E+00 -0.00000000000E+00 -0.20606593570E+02  0.20606593570E+02  0.00000000000E+00 0.  1.
          4    1    1    2  501    0 -0.17467660208E+00  0.23049686264E+01 -0.40237449603E+01  0.46404650403E+01  0.00000000000E+00 0. -1.
         -4    1    1    2    0  501  0.17467660208E+00 -0.23049686264E+01 -0.16192406232E+02  0.16356570908E+02  0.00000000000E+00 0.  1.
<mgrwt>
<rscale>  0 0.23115779E+01</rscale>
<asrwt>0</asrwt>
<pdfrwt beam="1">0</pdfrwt>
<pdfrwt beam="2">0</pdfrwt>
<totfact> 0.18946175E+12</totfact>
</mgrwt>
</event>
<event>
 4    2  0.1993797E+006  0.2368399E+01  0.7546771E-02  0.2769554E+00
         22   -1    0    0    0    0  0.00000000000E+00  0.00000000000E+00  0.46489549639E+00  0.46489549639E+00  0.00000000000E+00 0.  1.
         22   -1    0    0    0    0 -0.00000000000E+00 -0.00000000000E+00 -0.12913230484E+02  0.12913230484E+02  0.00000000000E+00 0. -1.
          4    1    1    2  501    0 -0.23624896251E+01  0.16719892164E+00 -0.79377805296E+01  0.82835784806E+01  0.00000000000E+00 0. -1.
         -4    1    1    2    0  501  0.23624896251E+01 -0.16719892164E+00 -0.45105544576E+01  0.50945474994E+01  0.00000000000E+00 0.  1.
<mgrwt>
<rscale>  0 0.23683988E+01</rscale>
<asrwt>0</asrwt>
<pdfrwt beam="1">0</pdfrwt>
<pdfrwt beam="2">0</pdfrwt>
<totfact> 0.27725423E+12</totfact>
</mgrwt>
</event>
<event>
 4    2  0.1993797E+006  0.2519238E+01  0.7546771E-02  0.2700109E+00
         22   -1    0    0    0    0  0.00000000000E+00  0.00000000000E+00  0.70738691374E+00  0.70738691374E+00  0.00000000000E+00 0.  1.
         22   -1    0    0    0    0 -0.00000000000E+00 -0.00000000000E+00 -0.21109871845E+02  0.21109871845E+02  0.00000000000E+00 0. -1.
          4    1    1    2  501    0 -0.23629076189E+01 -0.87362862034E+00 -0.19294125445E+01  0.31731990402E+01  0.00000000000E+00 0.  1.
         -4    1    1    2    0  501  0.23629076189E+01  0.87362862034E+00 -0.18473072387E+02  0.18644059718E+02  0.00000000000E+00 0. -1.
<mgrwt>
<rscale>  0 0.25192379E+01</rscale>
<asrwt>0</asrwt>
<pdfrwt beam="1">0</pdfrwt>
<pdfrwt beam="2">0</pdfrwt>
<totfact> 0.93917654E+11</totfact>
</mgrwt>
</event>
<event>
 4    2  0.1993797E+006  0.2064555E+01  0.7546771E-02  0.2938472E+00
         22   -1    0    0    0    0  0.00000000000E+00  0.00000000000E+00  0.67610065510E+00  0.67610065510E+00  0.00000000000E+00 0. -1.
         22   -1    0    0    0    0 -0.00000000000E+00 -0.00000000000E+00 -0.94653043190E+01  0.94653043190E+01  0.00000000000E+00 0.  1.
          4    1    1    2  501    0  0.20202343357E+01 -0.42548945582E+00 -0.14643250769E+01  0.25311333388E+01  0.00000000000E+00 0. -1.
         -4    1    1    2    0  501 -0.20202343357E+01  0.42548945582E+00 -0.73248785870E+01  0.76102716353E+01  0.00000000000E+00 0.  1.
<mgrwt>
<rscale>  0 0.20645552E+01</rscale>
<asrwt>0</asrwt>
<pdfrwt beam="1">0</pdfrwt>
<pdfrwt beam="2">0</pdfrwt>
<totfact> 0.26474619E+12</totfact>
</mgrwt>
</event>
<event>
 4    2  0.1993797E+006  0.2541929E+01  0.7546771E-02  0.2690329E+00
         22   -1    0    0    0    0  0.00000000000E+00  0.00000000000E+00  0.42610739912E+01  0.42610739912E+01  0.00000000000E+00 0. -1.
         22   -1    0    0    0    0 -0.00000000000E+00 -0.00000000000E+00 -0.16779429068E+01  0.16779429068E+01  0.00000000000E+00 0.  1.
          4    1    1    2  501    0 -0.24514336216E+01  0.67221808716E+00  0.22130072872E+01  0.33702826604E+01  0.00000000000E+00 0. -1.
         -4    1    1    2    0  501  0.24514336216E+01 -0.67221808716E+00  0.37012379717E+00  0.25687342376E+01  0.00000000000E+00 0.  1.
<mgrwt>
<rscale>  0 0.25419292E+01</rscale>
<asrwt>0</asrwt>
<pdfrwt beam="1">0</pdfrwt>
<pdfrwt beam="2">0</pdfrwt>
<totfact> 0.24262280E+12</totfact>
</mgrwt>
</event>
<event>
 4    2  0.1993797E+006  0.2034141E+01  0.7546771E-02  0.2958054E+00
         22   -1    0    0    0    0  0.00000000000E+00  0.00000000000E+00  0.13194663601E+01  0.13194663601E+01  0.00000000000E+00 0.  1.
         22   -1    0    0    0    0 -0.00000000000E+00 -0.00000000000E+00 -0.56781546759E+01  0.56781546759E+01  0.00000000000E+00 0. -1.
          4    1    1    2  501    0  0.32368855741E+00  0.20082219232E+01  0.16178497517E+00  0.20405646162E+01  0.00000000000E+00 0.  1.
         -4    1    1    2    0  501 -0.32368855741E+00 -0.20082219232E+01 -0.45204732909E+01  0.49570564198E+01  0.00000000000E+00 0. -1.
<mgrwt>
<rscale>  0 0.20341410E+01</rscale>
<asrwt>0</asrwt>
<pdfrwt beam="1">0</pdfrwt>
<pdfrwt beam="2">0</pdfrwt>
<totfact> 0.22772474E+12</totfact>
</mgrwt>
</event>
<event>
 4    2  0.1993797E+006  0.3068041E+01  0.7546771E-02  0.2501106E+00
         22   -1    0    0    0    0  0.00000000000E+00  0.00000000000E+00  0.16513996116E+02  0.16513996116E+02  0.00000000000E+00 0.  1.
         22   -1    0    0    0    0 -0.00000000000E+00 -0.00000000000E+00 -0.37035205263E+01  0.37035205263E+01  0.00000000000E+00 0. -1.
          4    1    1    2  501    0  0.30456297351E+01  0.37015889796E+00  0.15703614267E+02  0.16000511840E+02  0.00000000000E+00 0.  1.
         -4    1    1    2    0  501 -0.30456297351E+01 -0.37015889796E+00 -0.28931386776E+01  0.42170048021E+01  0.00000000000E+00 0. -1.
<mgrwt>
<rscale>  0 0.30680414E+01</rscale>
<asrwt>0</asrwt>
<pdfrwt beam="1">0</pdfrwt>
<pdfrwt beam="2">0</pdfrwt>
<totfact> 0.18888615E+11</totfact>
</mgrwt>
</event>
<event>
 4    2  0.1993797E+006  0.2555082E+01  0.7546771E-02  0.2684733E+00
         22   -1    0    0    0    0  0.00000000000E+00  0.00000000000E+00  0.41513668652E+01  0.41513668652E+01  0.00000000000E+00 0. -1.
         22   -1    0    0    0    0 -0.00000000000E+00 -0.00000000000E+00 -0.18988400110E+01  0.18988400110E+01  0.00000000000E+00 0.  1.
          4    1    1    2  501    0 -0.16920984973E+01  0.19144831994E+01  0.23801667643E+01  0.34919388699E+01  0.00000000000E+00 0. -1.
         -4    1    1    2    0  501  0.16920984973E+01 -0.19144831994E+01 -0.12763991005E+00  0.25582680063E+01  0.00000000000E+00 0.  1.
<mgrwt>
<rscale>  0 0.25550818E+01</rscale>
<asrwt>0</asrwt>
<pdfrwt beam="1">0</pdfrwt>
<pdfrwt beam="2">0</pdfrwt>
<totfact> 0.21690043E+12</totfact>
</mgrwt>
</event>
<event>
 4    2  0.1993797E+006  0.2264247E+01  0.7546771E-02  0.2822571E+00
         22   -1    0    0    0    0  0.00000000000E+00  0.00000000000E+00  0.37840312037E+01  0.37840312037E+01  0.00000000000E+00 0. -1.
         22   -1    0    0    0    0 -0.00000000000E+00 -0.00000000000E+00 -0.14283149913E+01  0.14283149913E+01  0.00000000000E+00 0.  1.
          4    1    1    2  501    0  0.20282457163E+01 -0.10064963896E+01  0.17688956627E+01  0.28732921072E+01  0.00000000000E+00 0. -1.
         -4    1    1    2    0  501 -0.20282457163E+01  0.10064963896E+01  0.58682054968E+00  0.23390540877E+01  0.00000000000E+00 0.  1.
<mgrwt>
<rscale>  0 0.22642473E+01</rscale>
<asrwt>0</asrwt>
<pdfrwt beam="1">0</pdfrwt>
<pdfrwt beam="2">0</pdfrwt>
<totfact> 0.33584932E+12</totfact>
</mgrwt>
</event>
<event>
 4    2  0.1993797E+006  0.3547788E+01  0.7546771E-02  0.2373082E+00
         22   -1    0    0    0    0  0.00000000000E+00  0.00000000000E+00  0.18344807559E+01  0.18344807559E+01  0.00000000000E+00 0.  1.
         22   -1    0    0    0    0 -0.00000000000E+00 -0.00000000000E+00 -0.10005235333E+02  0.10005235333E+02  0.00000000000E+00 0. -1.
          4    1    1    2  501    0 -0.27329256510E+01  0.22622811994E+01 -0.76689802347E+00  0.36297288353E+01  0.00000000000E+00 0.  1.
         -4    1    1    2    0  501  0.27329256510E+01 -0.22622811994E+01 -0.74038565531E+01  0.82099872533E+01  0.00000000000E+00 0. -1.
<mgrwt>
<rscale>  0 0.35477879E+01</rscale>
<asrwt>0</asrwt>
<pdfrwt beam="1">0</pdfrwt>
<pdfrwt beam="2">0</pdfrwt>
<totfact> 0.78999710E+11</totfact>
</mgrwt>
</event>
<event>
 4    2  0.1993797E+006  0.9522126E+01  0.7546771E-02  0.1799239E+00
         22   -1    0    0    0    0  0.00000000000E+00  0.00000000000E+00  0.65479092036E+01  0.65479092036E+01  0.00000000000E+00 0.  1.
         22   -1    0    0    0    0 -0.00000000000E+00 -0.00000000000E+00 -0.14168486130E+02  0.14168486130E+02  0.00000000000E+00 0. -1.
          4    1    1    2  501    0  0.81505895519E+01 -0.49232893391E+01 -0.53698348450E+01  0.10931880635E+02  0.00000000000E+00 0. -1.
         -4    1    1    2    0  501 -0.81505895519E+01  0.49232893391E+01 -0.22507420809E+01  0.97845146980E+01  0.00000000000E+00 0.  1.
<mgrwt>
<rscale>  0 0.95221262E+01</rscale>
<asrwt>0</asrwt>
<pdfrwt beam="1">0</pdfrwt>
<pdfrwt beam="2">0</pdfrwt>
<totfact> 0.11619996E+11</totfact>
</mgrwt>
</event>
<event>
 4    2  0.1993797E+006  0.2304323E+01  0.7546771E-02  0.2801634E+00
         22   -1    0    0    0    0  0.00000000000E+00  0.00000000000E+00  0.10965975116E+01  0.10965975116E+01  0.00000000000E+00 0. -1.
         22   -1    0    0    0    0 -0.00000000000E+00 -0.00000000000E+00 -0.66430641546E+01  0.66430641546E+01  0.00000000000E+00 0.  1.
          4    1    1    2  501    0 -0.18084371913E+01  0.14280964120E+01 -0.47881293279E+01  0.53137639106E+01  0.00000000000E+00 0.  1.
         -4    1    1    2    0  501  0.18084371913E+01 -0.14280964120E+01 -0.75833731508E+00  0.24258977556E+01  0.00000000000E+00 0. -1.
<mgrwt>
<rscale>  0 0.23043230E+01</rscale>
<asrwt>0</asrwt>
<pdfrwt beam="1">0</pdfrwt>
<pdfrwt beam="2">0</pdfrwt>
<totfact> 0.23351024E+12</totfact>
</mgrwt>
</event>
<event>
 4    2  0.1993797E+006  0.2566797E+01  0.7546771E-02  0.2679794E+00
         22   -1    0    0    0    0  0.00000000000E+00  0.00000000000E+00  0.22254202575E+00  0.22254202575E+00  0.00000000000E+00 0.  1.
         22   -1    0    0    0    0 -0.00000000000E+00 -0.00000000000E+00 -0.54282383823E+02  0.54282383823E+02  0.00000000000E+00 0. -1.
          4    1    1    2  501    0  0.21691701924E+01  0.13722782977E+01 -0.86551350560E+01  0.90277245133E+01  0.00000000000E+00 0.  1.
         -4    1    1    2    0  501 -0.21691701924E+01 -0.13722782977E+01 -0.45404706741E+02  0.45477201335E+02  0.00000000000E+00 0. -1.
<mgrwt>
<rscale>  0 0.25667970E+01</rscale>
<asrwt>0</asrwt>
<pdfrwt beam="1">0</pdfrwt>
<pdfrwt beam="2">0</pdfrwt>
<totfact> 0.10253387E+12</totfact>
</mgrwt>
</event>
<event>
 4    2  0.1993797E+006  0.2058651E+01  0.7546771E-02  0.2942229E+00
         22   -1    0    0    0    0  0.00000000000E+00  0.00000000000E+00  0.28965384750E+00  0.28965384750E+00  0.00000000000E+00 0.  1.
         22   -1    0    0    0    0 -0.00000000000E+00 -0.00000000000E+00 -0.20189933654E+02  0.20189933654E+02  0.00000000000E+00 0. -1.
          4    1    1    2  501    0 -0.20388936204E+01 -0.28453065231E+00 -0.45773061880E+01  0.50189418034E+01  0.00000000000E+00 0.  1.
         -4    1    1    2    0  501  0.20388936204E+01  0.28453065231E+00 -0.15322973619E+02  0.15460645699E+02  0.00000000000E+00 0. -1.
<mgrwt>
<rscale>  0 0.20586512E+01</rscale>
<asrwt>0</asrwt>
<pdfrwt beam="1">0</pdfrwt>
<pdfrwt beam="2">0</pdfrwt>
<totfact> 0.27176276E+12</totfact>
</mgrwt>
</event>
<event>
 4    2  0.1993797E+006  0.4231603E+01  0.7546771E-02  0.2235095E+00
         22   -1    0    0    0    0  0.00000000000E+00  0.00000000000E+00  0.20813282134E+01  0.20813282134E+01  0.00000000000E+00 0. -1.
         22   -1    0    0    0    0 -0.00000000000E+00 -0.00000000000E+00 -0.92148680956E+01  0.92148680956E+01  0.00000000000E+00 0.  1.
          4    1    1    2  501    0  0.29228293449E+01  0.30599885523E+01 -0.21118100217E+01  0.47292920070E+01  0.00000000000E+00 0. -1.
         -4    1    1    2    0  501 -0.29228293449E+01 -0.30599885523E+01 -0.50217298605E+01  0.65669043019E+01  0.00000000000E+00 0.  1.
<mgrwt>
<rscale>  0 0.42316027E+01</rscale>
<asrwt>0</asrwt>
<pdfrwt beam="1">0</pdfrwt>
<pdfrwt beam="2">0</pdfrwt>
<totfact> 0.75406514E+11</totfact>
</mgrwt>
</event>
<event>
 4    2  0.1993797E+006  0.2222711E+01  0.7546771E-02  0.2845030E+00
         22   -1    0    0    0    0  0.00000000000E+00  0.00000000000E+00  0.16141903799E+02  0.16141903799E+02  0.00000000000E+00 0. -1.
         22   -1    0    0    0    0 -0.00000000000E+00 -0.00000000000E+00 -0.40218965760E+00  0.40218965760E+00  0.00000000000E+00 0.  1.
          4    1    1    2  501    0  0.22134398790E+01 -0.20279887449E+00  0.11913929208E+02  0.12119494736E+02  0.00000000000E+00 0. -1.
         -4    1    1    2    0  501 -0.22134398790E+01  0.20279887449E+00  0.38257849329E+01  0.44245987201E+01  0.00000000000E+00 0.  1.
<mgrwt>
<rscale>  0 0.22227108E+01</rscale>
<asrwt>0</asrwt>
<pdfrwt beam="1">0</pdfrwt>
<pdfrwt beam="2">0</pdfrwt>
<totfact> 0.24813889E+12</totfact>
</mgrwt>
</event>
<event>
 4    2  0.1993797E+006  0.2620239E+01  0.7546771E-02  0.2657782E+00
         22   -1    0    0    0    0  0.00000000000E+00  0.00000000000E+00  0.75089983674E+01  0.75089983674E+01  0.00000000000E+00 0.  1.
         22   -1    0    0    0    0 -0.00000000000E+00 -0.00000000000E+00 -0.95608630578E+00  0.95608630578E+00  0.00000000000E+00 0. -1.
          4    1    1    2  501    0  0.11416021724E+01  0.23584738175E+01  0.23918555292E+01  0.35477636816E+01  0.00000000000E+00 0. -1.
         -4    1    1    2    0  501 -0.11416021724E+01 -0.23584738175E+01  0.41610565324E+01  0.49173209916E+01  0.00000000000E+00 0.  1.
<mgrwt>
<rscale>  0 0.26202394E+01</rscale>
<asrwt>0</asrwt>
<pdfrwt beam="1">0</pdfrwt>
<pdfrwt beam="2">0</pdfrwt>
<totfact> 0.23587465E+12</totfact>
</mgrwt>
</event>
<event>
 4    2  0.1993797E+006  0.2134772E+01  0.7546771E-02  0.2895337E+00
         22   -1    0    0    0    0  0.00000000000E+00  0.00000000000E+00  0.29139568173E+02  0.29139568173E+02  0.00000000000E+00 0.  1.
         22   -1    0    0    0    0 -0.00000000000E+00 -0.00000000000E+00 -0.25915113037E+00  0.25915113037E+00  0.00000000000E+00 0. -1.
          4    1    1    2  501    0 -0.11674052112E+01  0.17872936139E+01  0.23696304794E+02  0.23792270053E+02  0.00000000000E+00 0.  1.
         -4    1    1    2    0  501  0.11674052112E+01 -0.17872936139E+01  0.51841122488E+01  0.56064492504E+01  0.00000000000E+00 0. -1.
<mgrwt>
<rscale>  0 0.21347724E+01</rscale>
<asrwt>0</asrwt>
<pdfrwt beam="1">0</pdfrwt>
<pdfrwt beam="2">0</pdfrwt>
<totfact> 0.19391863E+12</totfact>
</mgrwt>
</event>
<event>
 4    2  0.1993797E+006  0.3379371E+01  0.7546771E-02  0.2414376E+00
         22   -1    0    0    0    0  0.00000000000E+00  0.00000000000E+00  0.29628609176E+01  0.29628609176E+01  0.00000000000E+00 0. -1.
         22   -1    0    0    0    0 -0.00000000000E+00 -0.00000000000E+00 -0.31414074764E+02  0.31414074764E+02  0.00000000000E+00 0.  1.
          4    1    1    2  501    0  0.29003726752E+00 -0.33669018032E+01  0.18738717162E+01  0.38641356832E+01  0.00000000000E+00 0. -1.
         -4    1    1    2    0  501 -0.29003726752E+00  0.33669018032E+01 -0.30325085563E+02  0.30512799999E+02  0.00000000000E+00 0.  1.
<mgrwt>
<rscale>  0 0.33793711E+01</rscale>
<asrwt>0</asrwt>
<pdfrwt beam="1">0</pdfrwt>
<pdfrwt beam="2">0</pdfrwt>
<totfact> 0.10939372E+11</totfact>
</mgrwt>
</event>
<event>
 4    2  0.1993797E+006  0.2197445E+01  0.7546771E-02  0.2859088E+00
         22   -1    0    0    0    0  0.00000000000E+00  0.00000000000E+00  0.33587155001E+02  0.33587155001E+02  0.00000000000E+00 0. -1.
         22   -1    0    0    0    0 -0.00000000000E+00 -0.00000000000E+00 -0.44931686847E+01  0.44931686847E+01  0.00000000000E+00 0.  1.
          4    1    1    2  501    0  0.17953966206E+01 -0.12670105516E+01  0.33280063905E+02  0.33352532411E+02  0.00000000000E+00 0. -1.
         -4    1    1    2    0  501 -0.17953966206E+01  0.12670105516E+01 -0.41860775879E+01  0.47277912745E+01  0.00000000000E+00 0.  1.
<mgrwt>
<rscale>  0 0.21974451E+01</rscale>
<asrwt>0</asrwt>
<pdfrwt beam="1">0</pdfrwt>
<pdfrwt beam="2">0</pdfrwt>
<totfact> 0.61581401E+10</totfact>
</mgrwt>
</event>
<event>
 4    2  0.1993797E+006  0.2357803E+01  0.7546771E-02  0.2774745E+00
         22   -1    0    0    0    0  0.00000000000E+00  0.00000000000E+00  0.10331299419E+00  0.10331299419E+00  0.00000000000E+00 0. -1.
         22   -1    0    0    0    0 -0.00000000000E+00 -0.00000000000E+00 -0.54704129512E+02  0.54704129512E+02  0.00000000000E+00 0.  1.
          4    1    1    2  501    0  0.60004843240E+00  0.22801700721E+01 -0.23796197054E+02  0.23912721047E+02  0.00000000000E+00 0.  1.
         -4    1    1    2    0  501 -0.60004843240E+00 -0.22801700721E+01 -0.30804619464E+02  0.30894721459E+02  0.00000000000E+00 0. -1.
<mgrwt>
<rscale>  0 0.23578027E+01</rscale>
<asrwt>0</asrwt>
<pdfrwt beam="1">0</pdfrwt>
<pdfrwt beam="2">0</pdfrwt>
<totfact> 0.23822627E+12</totfact>
</mgrwt>
</event>
<event>
 4    2  0.1993797E+006  0.2893666E+01  0.7546771E-02  0.2556889E+00
         22   -1    0    0    0    0  0.00000000000E+00  0.00000000000E+00  0.34081640399E+01  0.34081640399E+01  0.00000000000E+00 0. -1.
         22   -1    0    0    0    0 -0.00000000000E+00 -0.00000000000E+00 -0.25565227765E+01  0.25565227765E+01  0.00000000000E+00 0.  1.
          4    1    1    2  501    0  0.14220359100E+01 -0.25201424767E+01  0.10147306690E+01  0.30664283072E+01  0.00000000000E+00 0.  1.
         -4    1    1    2    0  501 -0.14220359100E+01  0.25201424767E+01 -0.16308940565E+00  0.28982585093E+01  0.00000000000E+00 0. -1.
<mgrwt>
<rscale>  0 0.28936662E+01</rscale>
<asrwt>0</asrwt>
<pdfrwt beam="1">0</pdfrwt>
<pdfrwt beam="2">0</pdfrwt>
<totfact> 0.19368721E+12</totfact>
</mgrwt>
</event>
<event>
 4    2  0.1993797E+006  0.2299519E+01  0.7546771E-02  0.2804107E+00
         22   -1    0    0    0    0  0.00000000000E+00  0.00000000000E+00  0.61820247132E+01  0.61820247132E+01  0.00000000000E+00 0. -1.
         22   -1    0    0    0    0 -0.00000000000E+00 -0.00000000000E+00 -0.91103136693E+00  0.91103136693E+00  0.00000000000E+00 0.  1.
          4    1    1    2  501    0 -0.21099277869E+01  0.91432633924E+00  0.35122875877E+01  0.41980890914E+01  0.00000000000E+00 0. -1.
         -4    1    1    2    0  501  0.21099277869E+01 -0.91432633924E+00  0.17587057585E+01  0.28949669887E+01  0.00000000000E+00 0.  1.
<mgrwt>
<rscale>  0 0.22995191E+01</rscale>
<asrwt>0</asrwt>
<pdfrwt beam="1">0</pdfrwt>
<pdfrwt beam="2">0</pdfrwt>
<totfact> 0.31441980E+12</totfact>
</mgrwt>
</event>
<event>
 4    2  0.1993797E+006  0.4765122E+01  0.7546771E-02  0.2152129E+00
         22   -1    0    0    0    0  0.00000000000E+00  0.00000000000E+00  0.19895638688E+01  0.19895638688E+01  0.00000000000E+00 0. -1.
         22   -1    0    0    0    0 -0.00000000000E+00 -0.00000000000E+00 -0.12145108177E+02  0.12145108177E+02  0.00000000000E+00 0.  1.
          4    1    1    2  501    0  0.34379647663E+00 -0.47527035021E+01 -0.68132460004E+01  0.83142472695E+01  0.00000000000E+00 0. -1.
         -4    1    1    2    0  501 -0.34379647663E+00  0.47527035021E+01 -0.33422983075E+01  0.58204247760E+01  0.00000000000E+00 0.  1.
<mgrwt>
<rscale>  0 0.47651219E+01</rscale>
<asrwt>0</asrwt>
<pdfrwt beam="1">0</pdfrwt>
<pdfrwt beam="2">0</pdfrwt>
<totfact> 0.56829160E+11</totfact>
</mgrwt>
</event>
<event>
 4    2  0.1993797E+006  0.3370090E+01  0.7546771E-02  0.2416756E+00
         22   -1    0    0    0    0  0.00000000000E+00  0.00000000000E+00  0.37580158925E+01  0.37580158925E+01  0.00000000000E+00 0.  1.
         22   -1    0    0    0    0 -0.00000000000E+00 -0.00000000000E+00 -0.99777162196E+01  0.99777162196E+01  0.00000000000E+00 0. -1.
          4    1    1    2  501    0 -0.33366102385E+01  0.47385511514E+00  0.26243212268E+01  0.42713661111E+01  0.00000000000E+00 0.  1.
         -4    1    1    2    0  501  0.33366102385E+01 -0.47385511514E+00 -0.88440215539E+01  0.94643660009E+01  0.00000000000E+00 0. -1.
<mgrwt>
<rscale>  0 0.33700900E+01</rscale>
<asrwt>0</asrwt>
<pdfrwt beam="1">0</pdfrwt>
<pdfrwt beam="2">0</pdfrwt>
<totfact> 0.34382320E+11</totfact>
</mgrwt>
</event>
<event>
 4    2  0.1993797E+006  0.3887037E+01  0.7546771E-02  0.2299422E+00
         22   -1    0    0    0    0  0.00000000000E+00  0.00000000000E+00  0.23953871006E+02  0.23953871006E+02  0.00000000000E+00 0.  1.
         22   -1    0    0    0    0 -0.00000000000E+00 -0.00000000000E+00 -0.11126996895E+01  0.11126996895E+01  0.00000000000E+00 0. -1.
          4    1    1    2  501    0  0.19089560007E+01  0.33859920483E+01  0.19669066227E+02  0.20049469355E+02  0.00000000000E+00 0.  1.
         -4    1    1    2    0  501 -0.19089560007E+01 -0.33859920483E+01  0.31721050892E+01  0.50171013405E+01  0.00000000000E+00 0. -1.
<mgrwt>
<rscale>  0 0.38870368E+01</rscale>
<asrwt>0</asrwt>
<pdfrwt beam="1">0</pdfrwt>
<pdfrwt beam="2">0</pdfrwt>
<totfact> 0.47832095E+11</totfact>
</mgrwt>
</event>
<event>
 4    2  0.1993797E+006  0.2004802E+01  0.7546771E-02  0.2977494E+00
         22   -1    0    0    0    0  0.00000000000E+00  0.00000000000E+00  0.40335950588E+00  0.40335950588E+00  0.00000000000E+00 0. -1.
         22   -1    0    0    0    0 -0.00000000000E+00 -0.00000000000E+00 -0.17243532313E+02  0.17243532313E+02  0.00000000000E+00 0.  1.
          4    1    1    2  501    0 -0.11406567112E+01 -0.16486760591E+01 -0.26873062785E+01  0.33527370185E+01  0.00000000000E+00 0. -1.
         -4    1    1    2    0  501  0.11406567112E+01  0.16486760591E+01 -0.14152866529E+02  0.14294154800E+02  0.00000000000E+00 0.  1.
<mgrwt>
<rscale>  0 0.20048019E+01</rscale>
<asrwt>0</asrwt>
<pdfrwt beam="1">0</pdfrwt>
<pdfrwt beam="2">0</pdfrwt>
<totfact> 0.22792724E+12</totfact>
</mgrwt>
</event>
<event>
 4    2  0.1993797E+006  0.2132812E+01  0.7546771E-02  0.2896504E+00
         22   -1    0    0    0    0  0.00000000000E+00  0.00000000000E+00  0.74060091045E+00  0.74060091045E+00  0.00000000000E+00 0.  1.
         22   -1    0    0    0    0 -0.00000000000E+00 -0.00000000000E+00 -0.89313576332E+01  0.89313576332E+01  0.00000000000E+00 0. -1.
          4    1    1    2  501    0  0.20932808597E+01 -0.40873121192E+00 -0.13928784742E+01  0.25473508602E+01  0.00000000000E+00 0.  1.
         -4    1    1    2    0  501 -0.20932808597E+01  0.40873121192E+00 -0.67978782485E+01  0.71246076834E+01  0.00000000000E+00 0. -1.
<mgrwt>
<rscale>  0 0.21328118E+01</rscale>
<asrwt>0</asrwt>
<pdfrwt beam="1">0</pdfrwt>
<pdfrwt beam="2">0</pdfrwt>
<totfact> 0.25606699E+12</totfact>
</mgrwt>
</event>
<event>
 4    2  0.1993797E+006  0.2368774E+01  0.7546771E-02  0.2769371E+00
         22   -1    0    0    0    0  0.00000000000E+00  0.00000000000E+00  0.19686155296E+02  0.19686155296E+02  0.00000000000E+00 0.  1.
         22   -1    0    0    0    0 -0.00000000000E+00 -0.00000000000E+00 -0.69029294352E+00  0.69029294352E+00  0.00000000000E+00 0. -1.
          4    1    1    2  501    0 -0.16281309156E+01  0.17205460362E+01  0.17304348092E+02  0.17465725059E+02  0.00000000000E+00 0.  1.
         -4    1    1    2    0  501  0.16281309156E+01 -0.17205460362E+01  0.16915142603E+01  0.29107231806E+01  0.00000000000E+00 0. -1.
<mgrwt>
<rscale>  0 0.23687737E+01</rscale>
<asrwt>0</asrwt>
<pdfrwt beam="1">0</pdfrwt>
<pdfrwt beam="2">0</pdfrwt>
<totfact> 0.10535349E+12</totfact>
</mgrwt>
</event>
<event>
 4    2  0.1993797E+006  0.2210704E+01  0.7546771E-02  0.2851672E+00
         22   -1    0    0    0    0  0.00000000000E+00  0.00000000000E+00  0.11646771586E+02  0.11646771586E+02  0.00000000000E+00 0. -1.
         22   -1    0    0    0    0 -0.00000000000E+00 -0.00000000000E+00 -0.61652528709E+00  0.61652528709E+00  0.00000000000E+00 0.  1.
          4    1    1    2  501    0  0.21989603565E+01  0.22756180751E+00  0.89803460515E+01  0.92484499366E+01  0.00000000000E+00 0. -1.
         -4    1    1    2    0  501 -0.21989603565E+01 -0.22756180751E+00  0.20499002472E+01  0.30148469363E+01  0.00000000000E+00 0.  1.
<mgrwt>
<rscale>  0 0.22107037E+01</rscale>
<asrwt>0</asrwt>
<pdfrwt beam="1">0</pdfrwt>
<pdfrwt beam="2">0</pdfrwt>
<totfact> 0.22855647E+12</totfact>
</mgrwt>
</event>
<event>
 4    2  0.1993797E+006  0.4068741E+01  0.7546771E-02  0.2264344E+00
         22   -1    0    0    0    0  0.00000000000E+00  0.00000000000E+00  0.16654190606E+02  0.16654190606E+02  0.00000000000E+00 0.  1.
         22   -1    0    0    0    0 -0.00000000000E+00 -0.00000000000E+00 -0.13190679790E+01  0.13190679790E+01  0.00000000000E+00 0. -1.
          4    1    1    2  501    0  0.22969838667E+01  0.33583501991E+01  0.32065341127E+01  0.51803968921E+01  0.00000000000E+00 0.  1.
         -4    1    1    2    0  501 -0.22969838667E+01 -0.33583501991E+01  0.12128588515E+02  0.12792861693E+02  0.00000000000E+00 0. -1.
<mgrwt>
<rscale>  0 0.40687407E+01</rscale>
<asrwt>0</asrwt>
<pdfrwt beam="1">0</pdfrwt>
<pdfrwt beam="2">0</pdfrwt>
<totfact> 0.61929576E+11</totfact>
</mgrwt>
</event>
<event>
 4    2  0.1993797E+006  0.2090700E+01  0.7546771E-02  0.2922082E+00
         22   -1    0    0    0    0  0.00000000000E+00  0.00000000000E+00  0.33162432494E+01  0.33162432494E+01  0.00000000000E+00 0.  1.
         22   -1    0    0    0    0 -0.00000000000E+00 -0.00000000000E+00 -0.13294555149E+01  0.13294555149E+01  0.00000000000E+00 0. -1.
          4    1    1    2  501    0  0.20127084928E+01 -0.56571219482E+00  0.77838984137E+00  0.22309003809E+01  0.00000000000E+00 0. -1.
         -4    1    1    2    0  501 -0.20127084928E+01  0.56571219482E+00  0.12083978932E+01  0.24147983834E+01  0.00000000000E+00 0.  1.
<mgrwt>
<rscale>  0 0.20906998E+01</rscale>
<asrwt>0</asrwt>
<pdfrwt beam="1">0</pdfrwt>
<pdfrwt beam="2">0</pdfrwt>
<totfact> 0.42573229E+12</totfact>
</mgrwt>
</event>
<event>
 4    2  0.1993797E+006  0.2092982E+01  0.7546771E-02  0.2920670E+00
         22   -1    0    0    0    0  0.00000000000E+00  0.00000000000E+00  0.20217766337E+02  0.20217766337E+02  0.00000000000E+00 0.  1.
         22   -1    0    0    0    0 -0.00000000000E+00 -0.00000000000E+00 -0.22875216358E+00  0.22875216358E+00  0.00000000000E+00 0. -1.
          4    1    1    2  501    0 -0.17264326571E+01 -0.11832181977E+01  0.12344067412E+02  0.12520246615E+02  0.00000000000E+00 0. -1.
         -4    1    1    2    0  501  0.17264326571E+01  0.11832181977E+01  0.76449467619E+01  0.79262718863E+01  0.00000000000E+00 0.  1.
<mgrwt>
<rscale>  0 0.20929823E+01</rscale>
<asrwt>0</asrwt>
<pdfrwt beam="1">0</pdfrwt>
<pdfrwt beam="2">0</pdfrwt>
<totfact> 0.35331810E+12</totfact>
</mgrwt>
</event>
<event>
 4    2  0.1993797E+006  0.2908386E+01  0.7546771E-02  0.2551948E+00
         22   -1    0    0    0    0  0.00000000000E+00  0.00000000000E+00  0.10384247143E+02  0.10384247143E+02  0.00000000000E+00 0.  1.
         22   -1    0    0    0    0 -0.00000000000E+00 -0.00000000000E+00 -0.95022739562E+00  0.95022739562E+00  0.00000000000E+00 0. -1.
          4    1    1    2  501    0  0.21655812309E+01 -0.19413826982E+01  0.25757104059E+01  0.38849701342E+01  0.00000000000E+00 0. -1.
         -4    1    1    2    0  501 -0.21655812309E+01  0.19413826982E+01  0.68583093414E+01  0.74495044044E+01  0.00000000000E+00 0.  1.
<mgrwt>
<rscale>  0 0.29083860E+01</rscale>
<asrwt>0</asrwt>
<pdfrwt beam="1">0</pdfrwt>
<pdfrwt beam="2">0</pdfrwt>
<totfact> 0.16069209E+12</totfact>
</mgrwt>
</event>
<event>
 4    2  0.1993797E+006  0.2283721E+01  0.7546771E-02  0.2812310E+00
         22   -1    0    0    0    0  0.00000000000E+00  0.00000000000E+00  0.53161795393E+00  0.53161795393E+00  0.00000000000E+00 0.  1.
         22   -1    0    0    0    0 -0.00000000000E+00 -0.00000000000E+00 -0.13763545202E+02  0.13763545202E+02  0.00000000000E+00 0. -1.
          4    1    1    2  501    0  0.14106062457E+01  0.17959878661E+01 -0.10446552942E+02  0.10693261933E+02  0.00000000000E+00 0. -1.
         -4    1    1    2    0  501 -0.14106062457E+01 -0.17959878661E+01 -0.27853743059E+01  0.36019012228E+01  0.00000000000E+00 0.  1.
<mgrwt>
<rscale>  0 0.22837212E+01</rscale>
<asrwt>0</asrwt>
<pdfrwt beam="1">0</pdfrwt>
<pdfrwt beam="2">0</pdfrwt>
<totfact> 0.22039054E+12</totfact>
</mgrwt>
</event>
<event>
 4    2  0.1993797E+006  0.5619810E+01  0.7546771E-02  0.2055561E+00
         22   -1    0    0    0    0  0.00000000000E+00  0.00000000000E+00  0.52804302993E+02  0.52804302993E+02  0.00000000000E+00 0. -1.
         22   -1    0    0    0    0 -0.00000000000E+00 -0.00000000000E+00 -0.80224746811E+00  0.80224746811E+00  0.00000000000E+00 0.  1.
          4    1    1    2  501    0 -0.14449852427E+01  0.54308638498E+01  0.39521923633E+02  0.39919477854E+02  0.00000000000E+00 0. -1.
         -4    1    1    2    0  501  0.14449852427E+01 -0.54308638498E+01  0.12480131893E+02  0.13687072608E+02  0.00000000000E+00 0.  1.
<mgrwt>
<rscale>  0 0.56198100E+01</rscale>
<asrwt>0</asrwt>
<pdfrwt beam="1">0</pdfrwt>
<pdfrwt beam="2">0</pdfrwt>
<totfact> 0.25077662E+11</totfact>
</mgrwt>
</event>
<event>
 4    2  0.1993797E+006  0.2401299E+01  0.7546771E-02  0.2753711E+00
         22   -1    0    0    0    0  0.00000000000E+00  0.00000000000E+00  0.38062025210E+01  0.38062025210E+01  0.00000000000E+00 0. -1.
         22   -1    0    0    0    0 -0.00000000000E+00 -0.00000000000E+00 -0.28947180702E+01  0.28947180702E+01  0.00000000000E+00 0.  1.
          4    1    1    2  501    0  0.22289072920E+01 -0.89342432361E+00  0.27688891438E+01  0.36651032495E+01  0.00000000000E+00 0. -1.
         -4    1    1    2    0  501 -0.22289072920E+01  0.89342432361E+00 -0.18574046930E+01  0.30358173417E+01  0.00000000000E+00 0.  1.
<mgrwt>
<rscale>  0 0.24012986E+01</rscale>
<asrwt>0</asrwt>
<pdfrwt beam="1">0</pdfrwt>
<pdfrwt beam="2">0</pdfrwt>
<totfact> 0.14720005E+12</totfact>
</mgrwt>
</event>
<event>
 4    2  0.1993797E+006  0.3660058E+01  0.7546771E-02  0.2347401E+00
         22   -1    0    0    0    0  0.00000000000E+00  0.00000000000E+00  0.13179484561E+01  0.13179484561E+01  0.00000000000E+00 0. -1.
         22   -1    0    0    0    0 -0.00000000000E+00 -0.00000000000E+00 -0.11288219926E+02  0.11288219926E+02  0.00000000000E+00 0.  1.
          4    1    1    2  501    0  0.47128311824E+00 -0.36295893258E+01 -0.29962600938E+01  0.47300741010E+01  0.00000000000E+00 0. -1.
         -4    1    1    2    0  501 -0.47128311824E+00  0.36295893258E+01 -0.69740113766E+01  0.78760942816E+01  0.00000000000E+00 0.  1.
<mgrwt>
<rscale>  0 0.36600583E+01</rscale>
<asrwt>0</asrwt>
<pdfrwt beam="1">0</pdfrwt>
<pdfrwt beam="2">0</pdfrwt>
<totfact> 0.99862459E+11</totfact>
</mgrwt>
</event>
<event>
 4    2  0.1993797E+006  0.3026224E+01  0.7546771E-02  0.2513957E+00
         22   -1    0    0    0    0  0.00000000000E+00  0.00000000000E+00  0.64292796359E+01  0.64292796359E+01  0.00000000000E+00 0.  1.
         22   -1    0    0    0    0 -0.00000000000E+00 -0.00000000000E+00 -0.81893672187E+01  0.81893672187E+01  0.00000000000E+00 0. -1.
          4    1    1    2  501    0  0.93004725515E+00  0.28797648859E+01  0.57632585346E+01  0.65094686904E+01  0.00000000000E+00 0.  1.
         -4    1    1    2    0  501 -0.93004725515E+00 -0.28797648859E+01 -0.75233461174E+01  0.81091781641E+01  0.00000000000E+00 0. -1.
<mgrwt>
<rscale>  0 0.30262243E+01</rscale>
<asrwt>0</asrwt>
<pdfrwt beam="1">0</pdfrwt>
<pdfrwt beam="2">0</pdfrwt>
<totfact> 0.23110889E+11</totfact>
</mgrwt>
</event>
<event>
 4    2  0.1993797E+006  0.3575806E+01  0.7546771E-02  0.2366542E+00
         22   -1    0    0    0    0  0.00000000000E+00  0.00000000000E+00  0.65660926962E+00  0.65660926962E+00  0.00000000000E+00 0.  1.
         22   -1    0    0    0    0 -0.00000000000E+00 -0.00000000000E+00 -0.36597379005E+02  0.36597379005E+02  0.00000000000E+00 0. -1.
          4    1    1    2  501    0 -0.32187667737E+01  0.15575397179E+01 -0.52288830471E+01  0.63346355409E+01  0.00000000000E+00 0.  1.
         -4    1    1    2    0  501  0.32187667737E+01 -0.15575397179E+01 -0.30711886688E+02  0.30919352733E+02  0.00000000000E+00 0. -1.
<mgrwt>
<rscale>  0 0.35758061E+01</rscale>
<asrwt>0</asrwt>
<pdfrwt beam="1">0</pdfrwt>
<pdfrwt beam="2">0</pdfrwt>
<totfact> 0.50833984E+11</totfact>
</mgrwt>
</event>
<event>
 4    2  0.1993797E+006  0.2444376E+01  0.7546771E-02  0.2733572E+00
         22   -1    0    0    0    0  0.00000000000E+00  0.00000000000E+00  0.53317220204E+00  0.53317220204E+00  0.00000000000E+00 0. -1.
         22   -1    0    0    0    0 -0.00000000000E+00 -0.00000000000E+00 -0.17411764743E+02  0.17411764743E+02  0.00000000000E+00 0.  1.
          4    1    1    2  501    0  0.24189246768E+01  0.35182218740E+00 -0.30829093651E+01  0.39343748674E+01  0.00000000000E+00 0. -1.
         -4    1    1    2    0  501 -0.24189246768E+01 -0.35182218740E+00 -0.13795683176E+02  0.14010562077E+02  0.00000000000E+00 0.  1.
<mgrwt>
<rscale>  0 0.24443763E+01</rscale>
<asrwt>0</asrwt>
<pdfrwt beam="1">0</pdfrwt>
<pdfrwt beam="2">0</pdfrwt>
<totfact> 0.16441060E+12</totfact>
</mgrwt>
</event>
<event>
 4    2  0.1993797E+006  0.3003965E+01  0.7546771E-02  0.2520929E+00
         22   -1    0    0    0    0  0.00000000000E+00  0.00000000000E+00  0.36338308223E+01  0.36338308223E+01  0.00000000000E+00 0.  1.
         22   -1    0    0    0    0 -0.00000000000E+00 -0.00000000000E+00 -0.40717038679E+01  0.40717038679E+01  0.00000000000E+00 0. -1.
          4    1    1    2  501    0  0.84820776965E+00  0.28817262990E+01  0.21874673379E+01  0.37160215604E+01  0.00000000000E+00 0.  1.
         -4    1    1    2    0  501 -0.84820776965E+00 -0.28817262990E+01 -0.26253403835E+01  0.39895131297E+01  0.00000000000E+00 0. -1.
<mgrwt>
<rscale>  0 0.30039645E+01</rscale>
<asrwt>0</asrwt>
<pdfrwt beam="1">0</pdfrwt>
<pdfrwt beam="2">0</pdfrwt>
<totfact> 0.10420394E+12</totfact>
</mgrwt>
</event>
<event>
 4    2  0.1993797E+006  0.2027217E+01  0.7546771E-02  0.2962592E+00
         22   -1    0    0    0    0  0.00000000000E+00  0.00000000000E+00  0.15772413523E+00  0.15772413523E+00  0.00000000000E+00 0. -1.
         22   -1    0    0    0    0 -0.00000000000E+00 -0.00000000000E+00 -0.29376340529E+02  0.29376340529E+02  0.00000000000E+00 0.  1.
          4    1    1    2  501    0 -0.20097309863E+01 -0.26568709005E+00 -0.96444463336E+01  0.98551993053E+01  0.00000000000E+00 0. -1.
         -4    1    1    2    0  501  0.20097309863E+01  0.26568709005E+00 -0.19574170060E+02  0.19678865359E+02  0.00000000000E+00 0.  1.
<mgrwt>
<rscale>  0 0.20272169E+01</rscale>
<asrwt>0</asrwt>
<pdfrwt beam="1">0</pdfrwt>
<pdfrwt beam="2">0</pdfrwt>
<totfact> 0.33399816E+12</totfact>
</mgrwt>
</event>
<event>
 4    2  0.1993797E+006  0.5005176E+01  0.7546771E-02  0.2122386E+00
         22   -1    0    0    0    0  0.00000000000E+00  0.00000000000E+00  0.86941323575E+01  0.86941323575E+01  0.00000000000E+00 0.  1.
         22   -1    0    0    0    0 -0.00000000000E+00 -0.00000000000E+00 -0.29569378732E+01  0.29569378732E+01  0.00000000000E+00 0. -1.
          4    1    1    2  501    0  0.48390991754E+01  0.12786358799E+01  0.37993319331E+01  0.62838454533E+01  0.00000000000E+00 0.  1.
         -4    1    1    2    0  501 -0.48390991754E+01 -0.12786358799E+01  0.19378625512E+01  0.53672247774E+01  0.00000000000E+00 0. -1.
<mgrwt>
<rscale>  0 0.50051764E+01</rscale>
<asrwt>0</asrwt>
<pdfrwt beam="1">0</pdfrwt>
<pdfrwt beam="2">0</pdfrwt>
<totfact> 0.53766909E+11</totfact>
</mgrwt>
</event>
<event>
 4    2  0.1993797E+006  0.2879176E+01  0.7546771E-02  0.2561797E+00
         22   -1    0    0    0    0  0.00000000000E+00  0.00000000000E+00  0.13486843317E+02  0.13486843317E+02  0.00000000000E+00 0. -1.
         22   -1    0    0    0    0 -0.00000000000E+00 -0.00000000000E+00 -0.17978143579E+01  0.17978143579E+01  0.00000000000E+00 0.  1.
          4    1    1    2  501    0  0.22728043129E+01 -0.17674883308E+01  0.12044294748E+02  0.12383646088E+02  0.00000000000E+00 0. -1.
         -4    1    1    2    0  501 -0.22728043129E+01  0.17674883308E+01 -0.35526578971E+00  0.29010115866E+01  0.00000000000E+00 0.  1.
<mgrwt>
<rscale>  0 0.28791760E+01</rscale>
<asrwt>0</asrwt>
<pdfrwt beam="1">0</pdfrwt>
<pdfrwt beam="2">0</pdfrwt>
<totfact> 0.56210193E+11</totfact>
</mgrwt>
</event>
<event>
 4    2  0.1993797E+006  0.2860738E+01  0.7546771E-02  0.2568108E+00
         22   -1    0    0    0    0  0.00000000000E+00  0.00000000000E+00  0.27062935603E+02  0.27062935603E+02  0.00000000000E+00 0. -1.
         22   -1    0    0    0    0 -0.00000000000E+00 -0.00000000000E+00 -0.32216552883E+00  0.32216552883E+00  0.00000000000E+00 0.  1.
          4    1    1    2  501    0 -0.14011253059E+00 -0.28573051057E+01  0.16761965922E+02  0.17004332553E+02  0.00000000000E+00 0. -1.
         -4    1    1    2    0  501  0.14011253059E+00  0.28573051057E+01  0.99788041514E+01  0.10380768579E+02  0.00000000000E+00 0.  1.
<mgrwt>
<rscale>  0 0.28607384E+01</rscale>
<asrwt>0</asrwt>
<pdfrwt beam="1">0</pdfrwt>
<pdfrwt beam="2">0</pdfrwt>
<totfact> 0.16691051E+12</totfact>
</mgrwt>
</event>
<event>
 4    2  0.1993797E+006  0.3032204E+01  0.7546771E-02  0.2512100E+00
         22   -1    0    0    0    0  0.00000000000E+00  0.00000000000E+00  0.28233930195E+01  0.28233930195E+01  0.00000000000E+00 0. -1.
         22   -1    0    0    0    0 -0.00000000000E+00 -0.00000000000E+00 -0.10069708128E+02  0.10069708128E+02  0.00000000000E+00 0.  1.
          4    1    1    2  501    0 -0.13093866006E+01 -0.27349166475E+01  0.16795307748E+01  0.34662784022E+01  0.00000000000E+00 0. -1.
         -4    1    1    2    0  501  0.13093866006E+01  0.27349166475E+01 -0.89258458837E+01  0.94268227456E+01  0.00000000000E+00 0.  1.
<mgrwt>
<rscale>  0 0.30322042E+01</rscale>
<asrwt>0</asrwt>
<pdfrwt beam="1">0</pdfrwt>
<pdfrwt beam="2">0</pdfrwt>
<totfact> 0.47520191E+11</totfact>
</mgrwt>
</event>
<event>
 4    2  0.1993797E+006  0.2246292E+01  0.7546771E-02  0.2832183E+00
         22   -1    0    0    0    0  0.00000000000E+00  0.00000000000E+00  0.75660392507E+01  0.75660392507E+01  0.00000000000E+00 0. -1.
         22   -1    0    0    0    0 -0.00000000000E+00 -0.00000000000E+00 -0.68496286568E+00  0.68496286568E+00  0.00000000000E+00 0.  1.
          4    1    1    2  501    0  0.22459098561E+01  0.41426871994E-01  0.41103916417E+01  0.46841377771E+01  0.00000000000E+00 0.  1.
         -4    1    1    2    0  501 -0.22459098561E+01 -0.41426871994E-01  0.27706847434E+01  0.35668643392E+01  0.00000000000E+00 0. -1.
<mgrwt>
<rscale>  0 0.22462919E+01</rscale>
<asrwt>0</asrwt>
<pdfrwt beam="1">0</pdfrwt>
<pdfrwt beam="2">0</pdfrwt>
<totfact> 0.34159985E+12</totfact>
</mgrwt>
</event>
<event>
 4    2  0.1993797E+006  0.2627991E+01  0.7546771E-02  0.2654658E+00
         22   -1    0    0    0    0  0.00000000000E+00  0.00000000000E+00  0.54040655837E+00  0.54040655837E+00  0.00000000000E+00 0.  1.
         22   -1    0    0    0    0 -0.00000000000E+00 -0.00000000000E+00 -0.12817662749E+02  0.12817662749E+02  0.00000000000E+00 0. -1.
          4    1    1    2  501    0 -0.15160403329E+01 -0.21466150753E+01 -0.65012196680E+01  0.70122886238E+01  0.00000000000E+00 0.  1.
         -4    1    1    2    0  501  0.15160403329E+01  0.21466150753E+01 -0.57760365226E+01  0.63457806835E+01  0.00000000000E+00 0. -1.
<mgrwt>
<rscale>  0 0.26279906E+01</rscale>
<asrwt>0</asrwt>
<pdfrwt beam="1">0</pdfrwt>
<pdfrwt beam="2">0</pdfrwt>
<totfact> 0.23605668E+12</totfact>
</mgrwt>
</event>
<event>
 4    2  0.1993797E+006  0.5852955E+01  0.7546771E-02  0.2033131E+00
         22   -1    0    0    0    0  0.00000000000E+00  0.00000000000E+00  0.17430527024E+02  0.17430527024E+02  0.00000000000E+00 0. -1.
         22   -1    0    0    0    0 -0.00000000000E+00 -0.00000000000E+00 -0.43892420231E+01  0.43892420231E+01  0.00000000000E+00 0.  1.
          4    1    1    2  501    0 -0.86852120742E+00 -0.57881561312E+01  0.14628050965E+02  0.15755537298E+02  0.00000000000E+00 0. -1.
         -4    1    1    2    0  501  0.86852120742E+00  0.57881561312E+01 -0.15867659644E+01  0.60642317496E+01  0.00000000000E+00 0.  1.
<mgrwt>
<rscale>  0 0.58529549E+01</rscale>
<asrwt>0</asrwt>
<pdfrwt beam="1">0</pdfrwt>
<pdfrwt beam="2">0</pdfrwt>
<totfact> 0.14465868E+11</totfact>
</mgrwt>
</event>
<event>
 4    2  0.1993797E+006  0.2613303E+01  0.7546771E-02  0.2660592E+00
         22   -1    0    0    0    0  0.00000000000E+00  0.00000000000E+00  0.10637700401E+02  0.10637700401E+02  0.00000000000E+00 0.  1.
         22   -1    0    0    0    0 -0.00000000000E+00 -0.00000000000E+00 -0.10698190632E+01  0.10698190632E+01  0.00000000000E+00 0. -1.
          4    1    1    2  501    0  0.25590354056E+01 -0.52980080484E+00  0.84857351240E+01  0.88790231273E+01  0.00000000000E+00 0.  1.
         -4    1    1    2    0  501 -0.25590354056E+01  0.52980080484E+00  0.10821462137E+01  0.28284963369E+01  0.00000000000E+00 0. -1.
<mgrwt>
<rscale>  0 0.26133027E+01</rscale>
<asrwt>0</asrwt>
<pdfrwt beam="1">0</pdfrwt>
<pdfrwt beam="2">0</pdfrwt>
<totfact> 0.13629649E+12</totfact>
</mgrwt>
</event>
<event>
 4    2  0.1993797E+006  0.2050470E+01  0.7546771E-02  0.2947470E+00
         22   -1    0    0    0    0  0.00000000000E+00  0.00000000000E+00  0.31303545828E+01  0.31303545828E+01  0.00000000000E+00 0.  1.
         22   -1    0    0    0    0 -0.00000000000E+00 -0.00000000000E+00 -0.23538222118E+01  0.23538222118E+01  0.00000000000E+00 0. -1.
          4    1    1    2  501    0 -0.12113182322E+01  0.16544290150E+01  0.21850971965E+01  0.29965108015E+01  0.00000000000E+00 0.  1.
         -4    1    1    2    0  501  0.12113182322E+01 -0.16544290150E+01 -0.14085648255E+01  0.24876659930E+01  0.00000000000E+00 0. -1.
<mgrwt>
<rscale>  0 0.20504700E+01</rscale>
<asrwt>0</asrwt>
<pdfrwt beam="1">0</pdfrwt>
<pdfrwt beam="2">0</pdfrwt>
<totfact> 0.23550482E+12</totfact>
</mgrwt>
</event>
<event>
 4    2  0.1993797E+006  0.2046819E+01  0.7546771E-02  0.2949822E+00
         22   -1    0    0    0    0  0.00000000000E+00  0.00000000000E+00  0.32505992933E+01  0.32505992933E+01  0.00000000000E+00 0. -1.
         22   -1    0    0    0    0 -0.00000000000E+00 -0.00000000000E+00 -0.13430642482E+01  0.13430642482E+01  0.00000000000E+00 0.  1.
          4    1    1    2  501    0  0.18338884265E+01  0.90902193664E+00  0.14153192387E+01  0.24884927546E+01  0.00000000000E+00 0. -1.
         -4    1    1    2    0  501 -0.18338884265E+01 -0.90902193664E+00  0.49221580649E+00  0.21051707870E+01  0.00000000000E+00 0.  1.
<mgrwt>
<rscale>  0 0.20468189E+01</rscale>
<asrwt>0</asrwt>
<pdfrwt beam="1">0</pdfrwt>
<pdfrwt beam="2">0</pdfrwt>
<totfact> 0.43074367E+12</totfact>
</mgrwt>
</event>
<event>
 4    2  0.1993797E+006  0.2325912E+01  0.7546771E-02  0.2790639E+00
         22   -1    0    0    0    0  0.00000000000E+00  0.00000000000E+00  0.69010710699E+00  0.69010710699E+00  0.00000000000E+00 0.  1.
         22   -1    0    0    0    0 -0.00000000000E+00 -0.00000000000E+00 -0.11670941634E+02  0.11670941634E+02  0.00000000000E+00 0. -1.
          4    1    1    2  501    0 -0.19982389905E+01 -0.11903387416E+01 -0.19490390537E+01  0.30345705817E+01  0.00000000000E+00 0.  1.
         -4    1    1    2    0  501  0.19982389905E+01  0.11903387416E+01 -0.90317954730E+01  0.93264781590E+01  0.00000000000E+00 0. -1.
<mgrwt>
<rscale>  0 0.23259117E+01</rscale>
<asrwt>0</asrwt>
<pdfrwt beam="1">0</pdfrwt>
<pdfrwt beam="2">0</pdfrwt>
<totfact> 0.20062551E+12</totfact>
</mgrwt>
</event>
<event>
 4    2  0.1993797E+006  0.2276172E+01  0.7546771E-02  0.2816268E+00
         22   -1    0    0    0    0  0.00000000000E+00  0.00000000000E+00  0.13304284947E+01  0.13304284947E+01  0.00000000000E+00 0.  1.
         22   -1    0    0    0    0 -0.00000000000E+00 -0.00000000000E+00 -0.46253825072E+01  0.46253825072E+01  0.00000000000E+00 0. -1.
          4    1    1    2  501    0 -0.17043084276E+01 -0.15087382808E+01 -0.46348399320E+00  0.23228809329E+01  0.00000000000E+00 0.  1.
         -4    1    1    2    0  501  0.17043084276E+01  0.15087382808E+01 -0.28314700192E+01  0.36329300690E+01  0.00000000000E+00 0. -1.
<mgrwt>
<rscale>  0 0.22761719E+01</rscale>
<asrwt>0</asrwt>
<pdfrwt beam="1">0</pdfrwt>
<pdfrwt beam="2">0</pdfrwt>
<totfact> 0.28763047E+12</totfact>
</mgrwt>
</event>
<event>
 4    2  0.1993797E+006  0.3022954E+01  0.7546771E-02  0.2514976E+00
         22   -1    0    0    0    0  0.00000000000E+00  0.00000000000E+00  0.29956724285E+01  0.29956724285E+01  0.00000000000E+00 0. -1.
         22   -1    0    0    0    0 -0.00000000000E+00 -0.00000000000E+00 -0.39687246595E+01  0.39687246595E+01  0.00000000000E+00 0.  1.
          4    1    1    2  501    0  0.30162299221E+01 -0.20150895088E+00  0.11884416877E+01  0.32481752485E+01  0.00000000000E+00 0.  1.
         -4    1    1    2    0  501 -0.30162299221E+01  0.20150895088E+00 -0.21614939187E+01  0.37162218395E+01  0.00000000000E+00 0. -1.
<mgrwt>
<rscale>  0 0.30229537E+01</rscale>
<asrwt>0</asrwt>
<pdfrwt beam="1">0</pdfrwt>
<pdfrwt beam="2">0</pdfrwt>
<totfact> 0.13464329E+12</totfact>
</mgrwt>
</event>
<event>
 4    2  0.1993797E+006  0.2139860E+01  0.7546771E-02  0.2892317E+00
         22   -1    0    0    0    0  0.00000000000E+00  0.00000000000E+00  0.11699361409E+03  0.11699361409E+03  0.00000000000E+00 0.  1.
         22   -1    0    0    0    0 -0.00000000000E+00 -0.00000000000E+00 -0.41476153626E-01  0.41476153626E-01  0.00000000000E+00 0. -1.
          4    1    1    2  501    0  0.18865788254E+01  0.10098628095E+01  0.72367239181E+02  0.72398869531E+02  0.00000000000E+00 0. -1.
         -4    1    1    2    0  501 -0.18865788254E+01 -0.10098628095E+01  0.44584898759E+02  0.44636220717E+02  0.00000000000E+00 0.  1.
<mgrwt>
<rscale>  0 0.21398604E+01</rscale>
<asrwt>0</asrwt>
<pdfrwt beam="1">0</pdfrwt>
<pdfrwt beam="2">0</pdfrwt>
<totfact> 0.22876863E+12</totfact>
</mgrwt>
</event>
<event>
 4    2  0.1993797E+006  0.3148408E+01  0.7546771E-02  0.2477265E+00
         22   -1    0    0    0    0  0.00000000000E+00  0.00000000000E+00  0.34162320265E+02  0.34162320265E+02  0.00000000000E+00 0. -1.
         22   -1    0    0    0    0 -0.00000000000E+00 -0.00000000000E+00 -0.66764436565E+00  0.66764436565E+00  0.00000000000E+00 0.  1.
          4    1    1    2  501    0 -0.27713840910E+01  0.14939557703E+01  0.29842202980E+02  0.30007824851E+02  0.00000000000E+00 0. -1.
         -4    1    1    2    0  501  0.27713840910E+01 -0.14939557703E+01  0.36524729199E+01  0.48221397796E+01  0.00000000000E+00 0.  1.
<mgrwt>
<rscale>  0 0.31484081E+01</rscale>
<asrwt>0</asrwt>
<pdfrwt beam="1">0</pdfrwt>
<pdfrwt beam="2">0</pdfrwt>
<totfact> 0.54505210E+11</totfact>
</mgrwt>
</event>
<event>
 4    2  0.1993797E+006  0.2647416E+01  0.7546771E-02  0.2646903E+00
         22   -1    0    0    0    0  0.00000000000E+00  0.00000000000E+00  0.73460048937E+01  0.73460048937E+01  0.00000000000E+00 0.  1.
         22   -1    0    0    0    0 -0.00000000000E+00 -0.00000000000E+00 -0.17025271509E+01  0.17025271509E+01  0.00000000000E+00 0. -1.
          4    1    1    2  501    0 -0.94512505946E+00  0.24729634679E+01  0.58214291327E+01  0.63951424408E+01  0.00000000000E+00 0.  1.
         -4    1    1    2    0  501  0.94512505946E+00 -0.24729634679E+01 -0.17795138986E+00  0.26533896037E+01  0.00000000000E+00 0. -1.
<mgrwt>
<rscale>  0 0.26474157E+01</rscale>
<asrwt>0</asrwt>
<pdfrwt beam="1">0</pdfrwt>
<pdfrwt beam="2">0</pdfrwt>
<totfact> 0.12492126E+12</totfact>
</mgrwt>
</event>
<event>
 4    2  0.1993797E+006  0.2141143E+01  0.7546771E-02  0.2891559E+00
         22   -1    0    0    0    0  0.00000000000E+00  0.00000000000E+00  0.58158096164E+01  0.58158096164E+01  0.00000000000E+00 0. -1.
         22   -1    0    0    0    0 -0.00000000000E+00 -0.00000000000E+00 -0.11173275081E+01  0.11173275081E+01  0.00000000000E+00 0.  1.
          4    1    1    2  501    0 -0.11138844267E+01  0.18285933767E+01  0.42304549933E+01  0.47414387799E+01  0.00000000000E+00 0.  1.
         -4    1    1    2    0  501  0.11138844267E+01 -0.18285933767E+01  0.46802711509E+00  0.21916983446E+01  0.00000000000E+00 0. -1.
<mgrwt>
<rscale>  0 0.21411427E+01</rscale>
<asrwt>0</asrwt>
<pdfrwt beam="1">0</pdfrwt>
<pdfrwt beam="2">0</pdfrwt>
<totfact> 0.26780439E+12</totfact>
</mgrwt>
</event>
<event>
 4    2  0.1993797E+006  0.2762983E+01  0.7546771E-02  0.2602839E+00
         22   -1    0    0    0    0  0.00000000000E+00  0.00000000000E+00  0.35266843058E+02  0.35266843058E+02  0.00000000000E+00 0. -1.
         22   -1    0    0    0    0 -0.00000000000E+00 -0.00000000000E+00 -0.22023843433E+00  0.22023843433E+00  0.00000000000E+00 0.  1.
          4    1    1    2  501    0 -0.54907801200E+00 -0.27078751211E+01  0.19845512356E+02  0.20036926786E+02  0.00000000000E+00 0. -1.
         -4    1    1    2    0  501  0.54907801200E+00  0.27078751211E+01  0.15201092267E+02  0.15450154706E+02  0.00000000000E+00 0.  1.
<mgrwt>
<rscale>  0 0.27629829E+01</rscale>
<asrwt>0</asrwt>
<pdfrwt beam="1">0</pdfrwt>
<pdfrwt beam="2">0</pdfrwt>
<totfact> 0.18222082E+12</totfact>
</mgrwt>
</event>
<event>
 4    2  0.1993797E+006  0.2424957E+01  0.7546771E-02  0.2742568E+00
         22   -1    0    0    0    0  0.00000000000E+00  0.00000000000E+00  0.83870084958E+01  0.83870084958E+01  0.00000000000E+00 0.  1.
         22   -1    0    0    0    0 -0.00000000000E+00 -0.00000000000E+00 -0.15331741411E+01  0.15331741411E+01  0.00000000000E+00 0. -1.
          4    1    1    2  501    0 -0.47006092640E+00 -0.23789622907E+01  0.70808958263E+01  0.74846178632E+01  0.00000000000E+00 0.  1.
         -4    1    1    2    0  501  0.47006092640E+00  0.23789622907E+01 -0.22706147162E+00  0.24355647737E+01  0.00000000000E+00 0. -1.
<mgrwt>
<rscale>  0 0.24249575E+01</rscale>
<asrwt>0</asrwt>
<pdfrwt beam="1">0</pdfrwt>
<pdfrwt beam="2">0</pdfrwt>
<totfact> 0.12021484E+12</totfact>
</mgrwt>
</event>
<event>
 4    2  0.1993797E+006  0.3971921E+01  0.7546771E-02  0.2282694E+00
         22   -1    0    0    0    0  0.00000000000E+00  0.00000000000E+00  0.39806730788E+01  0.39806730788E+01  0.00000000000E+00 0. -1.
         22   -1    0    0    0    0 -0.00000000000E+00 -0.00000000000E+00 -0.55538587640E+01  0.55538587640E+01  0.00000000000E+00 0.  1.
          4    1    1    2  501    0  0.37806398692E+01 -0.12177504688E+01  0.17647109331E+01  0.43463040278E+01  0.00000000000E+00 0. -1.
         -4    1    1    2    0  501 -0.37806398692E+01  0.12177504688E+01 -0.33378966184E+01  0.51882278150E+01  0.00000000000E+00 0.  1.
<mgrwt>
<rscale>  0 0.39719207E+01</rscale>
<asrwt>0</asrwt>
<pdfrwt beam="1">0</pdfrwt>
<pdfrwt beam="2">0</pdfrwt>
<totfact> 0.64856701E+11</totfact>
</mgrwt>
</event>
<event>
 4    2  0.1993797E+006  0.2648021E+01  0.7546771E-02  0.2646663E+00
         22   -1    0    0    0    0  0.00000000000E+00  0.00000000000E+00  0.25533480038E+01  0.25533480038E+01  0.00000000000E+00 0. -1.
         22   -1    0    0    0    0 -0.00000000000E+00 -0.00000000000E+00 -0.37685215306E+01  0.37685215306E+01  0.00000000000E+00 0.  1.
          4    1    1    2  501    0 -0.23573480678E+01  0.12062031000E+01  0.10387657322E+01  0.28444771185E+01  0.00000000000E+00 0. -1.
         -4    1    1    2    0  501  0.23573480678E+01 -0.12062031000E+01 -0.22539392589E+01  0.34773924159E+01  0.00000000000E+00 0.  1.
<mgrwt>
<rscale>  0 0.26480211E+01</rscale>
<asrwt>0</asrwt>
<pdfrwt beam="1">0</pdfrwt>
<pdfrwt beam="2">0</pdfrwt>
<totfact> 0.17238776E+12</totfact>
</mgrwt>
</event>
<event>
 4    2  0.1993797E+006  0.2903445E+01  0.7546771E-02  0.2553601E+00
         22   -1    0    0    0    0  0.00000000000E+00  0.00000000000E+00  0.25267511746E+00  0.25267511746E+00  0.00000000000E+00 0.  1.
         22   -1    0    0    0    0 -0.00000000000E+00 -0.00000000000E+00 -0.39882132428E+02  0.39882132428E+02  0.00000000000E+00 0. -1.
          4    1    1    2  501    0  0.28746244883E+01  0.40808026769E+00 -0.27928027949E+02  0.28078545913E+02  0.00000000000E+00 0. -1.
         -4    1    1    2    0  501 -0.28746244883E+01 -0.40808026769E+00 -0.11701429361E+02  0.12056261632E+02  0.00000000000E+00 0.  1.
<mgrwt>
<rscale>  0 0.29034454E+01</rscale>
<asrwt>0</asrwt>
<pdfrwt beam="1">0</pdfrwt>
<pdfrwt beam="2">0</pdfrwt>
<totfact> 0.13331479E+12</totfact>
</mgrwt>
</event>
<event>
 4    2  0.1993797E+006  0.2437836E+01  0.7546771E-02  0.2736587E+00
         22   -1    0    0    0    0  0.00000000000E+00  0.00000000000E+00  0.30327180247E+01  0.30327180247E+01  0.00000000000E+00 0. -1.
         22   -1    0    0    0    0 -0.00000000000E+00 -0.00000000000E+00 -0.25662382644E+01  0.25662382644E+01  0.00000000000E+00 0.  1.
          4    1    1    2  501    0  0.22146128959E+01  0.10190860614E+01  0.15943017306E+01  0.29128756731E+01  0.00000000000E+00 0. -1.
         -4    1    1    2    0  501 -0.22146128959E+01 -0.10190860614E+01 -0.11278219702E+01  0.26860806160E+01  0.00000000000E+00 0.  1.
<mgrwt>
<rscale>  0 0.24378365E+01</rscale>
<asrwt>0</asrwt>
<pdfrwt beam="1">0</pdfrwt>
<pdfrwt beam="2">0</pdfrwt>
<totfact> 0.22104871E+12</totfact>
</mgrwt>
</event>
<event>
 4    2  0.1993797E+006  0.2439747E+01  0.7546771E-02  0.2735705E+00
         22   -1    0    0    0    0  0.00000000000E+00  0.00000000000E+00  0.43240407469E+02  0.43240407469E+02  0.00000000000E+00 0.  1.
         22   -1    0    0    0    0 -0.00000000000E+00 -0.00000000000E+00 -0.53807726538E+00  0.53807726538E+00  0.00000000000E+00 0. -1.
          4    1    1    2  501    0  0.57167531278E+00  0.23718251115E+01  0.40233954702E+02  0.40307858762E+02  0.00000000000E+00 0.  1.
         -4    1    1    2    0  501 -0.57167531278E+00 -0.23718251115E+01  0.24683755018E+01  0.34706259725E+01  0.00000000000E+00 0. -1.
<mgrwt>
<rscale>  0 0.24397473E+01</rscale>
<asrwt>0</asrwt>
<pdfrwt beam="1">0</pdfrwt>
<pdfrwt beam="2">0</pdfrwt>
<totfact> 0.51291560E+11</totfact>
</mgrwt>
</event>
<event>
 4    2  0.1993797E+006  0.2445691E+01  0.7546771E-02  0.2732968E+00
         22   -1    0    0    0    0  0.00000000000E+00  0.00000000000E+00  0.17255990359E+02  0.17255990359E+02  0.00000000000E+00 0. -1.
         22   -1    0    0    0    0 -0.00000000000E+00 -0.00000000000E+00 -0.40266058428E+00  0.40266058428E+00  0.00000000000E+00 0.  1.
          4    1    1    2  501    0 -0.24100402841E+01 -0.41606664075E+00  0.11720327787E+02  0.11972781174E+02  0.00000000000E+00 0. -1.
         -4    1    1    2    0  501  0.24100402841E+01  0.41606664075E+00  0.51330019882E+01  0.56858697691E+01  0.00000000000E+00 0.  1.
<mgrwt>
<rscale>  0 0.24456912E+01</rscale>
<asrwt>0</asrwt>
<pdfrwt beam="1">0</pdfrwt>
<pdfrwt beam="2">0</pdfrwt>
<totfact> 0.22819104E+12</totfact>
</mgrwt>
</event>
<event>
 4    2  0.1993797E+006  0.3469153E+01  0.7546771E-02  0.2391926E+00
         22   -1    0    0    0    0  0.00000000000E+00  0.00000000000E+00  0.29841809120E+02  0.29841809120E+02  0.00000000000E+00 0.  1.
         22   -1    0    0    0    0 -0.00000000000E+00 -0.00000000000E+00 -0.12635175788E+01  0.12635175788E+01  0.00000000000E+00 0. -1.
          4    1    1    2  501    0  0.24969584770E+01 -0.24083646630E+01  0.27121897829E+02  0.27342866782E+02  0.00000000000E+00 0.  1.
         -4    1    1    2    0  501 -0.24969584770E+01  0.24083646630E+01  0.14563937126E+01  0.37624599177E+01  0.00000000000E+00 0. -1.
<mgrwt>
<rscale>  0 0.34691529E+01</rscale>
<asrwt>0</asrwt>
<pdfrwt beam="1">0</pdfrwt>
<pdfrwt beam="2">0</pdfrwt>
<totfact> 0.31306648E+11</totfact>
</mgrwt>
</event>
<event>
 4    2  0.1993797E+006  0.2231878E+01  0.7546771E-02  0.2840005E+00
         22   -1    0    0    0    0  0.00000000000E+00  0.00000000000E+00  0.47556221102E+01  0.47556221102E+01  0.00000000000E+00 0.  1.
         22   -1    0    0    0    0 -0.00000000000E+00 -0.00000000000E+00 -0.10487516335E+01  0.10487516335E+01  0.00000000000E+00 0. -1.
          4    1    1    2  501    0  0.19524877643E+00  0.22233211024E+01  0.19556581298E+01  0.29674698869E+01  0.00000000000E+00 0. -1.
         -4    1    1    2    0  501 -0.19524877643E+00 -0.22233211024E+01  0.17512123469E+01  0.28369038568E+01  0.00000000000E+00 0.  1.
<mgrwt>
<rscale>  0 0.22318779E+01</rscale>
<asrwt>0</asrwt>
<pdfrwt beam="1">0</pdfrwt>
<pdfrwt beam="2">0</pdfrwt>
<totfact> 0.36552878E+12</totfact>
</mgrwt>
</event>
<event>
 4    2  0.1993797E+006  0.2928240E+01  0.7546771E-02  0.2545355E+00
         22   -1    0    0    0    0  0.00000000000E+00  0.00000000000E+00  0.24360193976E+01  0.24360193976E+01  0.00000000000E+00 0. -1.
         22   -1    0    0    0    0 -0.00000000000E+00 -0.00000000000E+00 -0.35504862468E+01  0.35504862468E+01  0.00000000000E+00 0.  1.
          4    1    1    2  501    0  0.17711840239E+01  0.23318443440E+01 -0.83496665830E+00  0.30449565205E+01  0.00000000000E+00 0.  1.
         -4    1    1    2    0  501 -0.17711840239E+01 -0.23318443440E+01 -0.27950019086E+00  0.29415491239E+01  0.00000000000E+00 0. -1.
<mgrwt>
<rscale>  0 0.29282402E+01</rscale>
<asrwt>0</asrwt>
<pdfrwt beam="1">0</pdfrwt>
<pdfrwt beam="2">0</pdfrwt>
<totfact> 0.19528061E+12</totfact>
</mgrwt>
</event>
<event>
 4    2  0.1993797E+006  0.2277279E+01  0.7546771E-02  0.2815686E+00
         22   -1    0    0    0    0  0.00000000000E+00  0.00000000000E+00  0.30632976838E+00  0.30632976838E+00  0.00000000000E+00 0. -1.
         22   -1    0    0    0    0 -0.00000000000E+00 -0.00000000000E+00 -0.19975865239E+02  0.19975865239E+02  0.00000000000E+00 0.  1.
          4    1    1    2  501    0 -0.53309158672E+00 -0.22140040712E+01 -0.58744933888E+01  0.63004502413E+01  0.00000000000E+00 0.  1.
         -4    1    1    2    0  501  0.53309158672E+00  0.22140040712E+01 -0.13795042082E+02  0.13981744766E+02  0.00000000000E+00 0. -1.
<mgrwt>
<rscale>  0 0.22772792E+01</rscale>
<asrwt>0</asrwt>
<pdfrwt beam="1">0</pdfrwt>
<pdfrwt beam="2">0</pdfrwt>
<totfact> 0.25866242E+12</totfact>
</mgrwt>
</event>
<event>
 4    2  0.1993797E+006  0.3142027E+01  0.7546771E-02  0.2479118E+00
         22   -1    0    0    0    0  0.00000000000E+00  0.00000000000E+00  0.97832238943E+01  0.97832238943E+01  0.00000000000E+00 0.  1.
         22   -1    0    0    0    0 -0.00000000000E+00 -0.00000000000E+00 -0.14297120771E+01  0.14297120771E+01  0.00000000000E+00 0. -1.
          4    1    1    2  501    0  0.17642344296E+01  0.25999630610E+01  0.72176529168E+01  0.78719022268E+01  0.00000000000E+00 0.  1.
         -4    1    1    2    0  501 -0.17642344296E+01 -0.25999630610E+01  0.11358589003E+01  0.33410337446E+01  0.00000000000E+00 0. -1.
<mgrwt>
<rscale>  0 0.31420266E+01</rscale>
<asrwt>0</asrwt>
<pdfrwt beam="1">0</pdfrwt>
<pdfrwt beam="2">0</pdfrwt>
<totfact> 0.10818936E+12</totfact>
</mgrwt>
</event>
<event>
 4    2  0.1993797E+006  0.1408717E+02  0.7546771E-02  0.1647773E+00
         22   -1    0    0    0    0  0.00000000000E+00  0.00000000000E+00  0.26209365382E+02  0.26209365382E+02  0.00000000000E+00 0. -1.
         22   -1    0    0    0    0 -0.00000000000E+00 -0.00000000000E+00 -0.94172559922E+01  0.94172559922E+01  0.00000000000E+00 0.  1.
          4    1    1    2  501    0 -0.45534203926E+01 -0.13330972676E+02  0.16281940364E+02  0.21530212534E+02  0.00000000000E+00 0. -1.
         -4    1    1    2    0  501  0.45534203926E+01  0.13330972676E+02  0.51016902582E+00  0.14096408840E+02  0.00000000000E+00 0.  1.
<mgrwt>
<rscale>  0 0.14087174E+02</rscale>
<asrwt>0</asrwt>
<pdfrwt beam="1">0</pdfrwt>
<pdfrwt beam="2">0</pdfrwt>
<totfact> 0.34919550E+10</totfact>
</mgrwt>
</event>
<event>
 4    2  0.1993797E+006  0.2353385E+01  0.7546771E-02  0.2776923E+00
         22   -1    0    0    0    0  0.00000000000E+00  0.00000000000E+00  0.12416197838E+01  0.12416197838E+01  0.00000000000E+00 0. -1.
         22   -1    0    0    0    0 -0.00000000000E+00 -0.00000000000E+00 -0.45823632278E+01  0.45823632278E+01  0.00000000000E+00 0.  1.
          4    1    1    2  501    0  0.98627944785E+00  0.21367440607E+01 -0.11957724037E+01  0.26397526346E+01  0.00000000000E+00 0. -1.
         -4    1    1    2    0  501 -0.98627944785E+00 -0.21367440607E+01 -0.21449710402E+01  0.31842303770E+01  0.00000000000E+00 0.  1.
<mgrwt>
<rscale>  0 0.23533853E+01</rscale>
<asrwt>0</asrwt>
<pdfrwt beam="1">0</pdfrwt>
<pdfrwt beam="2">0</pdfrwt>
<totfact> 0.31481303E+12</totfact>
</mgrwt>
</event>
<event>
 4    2  0.1993797E+006  0.2344827E+01  0.7546771E-02  0.2781163E+00
         22   -1    0    0    0    0  0.00000000000E+00  0.00000000000E+00  0.10408222355E+01  0.10408222355E+01  0.00000000000E+00 0. -1.
         22   -1    0    0    0    0 -0.00000000000E+00 -0.00000000000E+00 -0.56215601160E+01  0.56215601160E+01  0.00000000000E+00 0.  1.
          4    1    1    2  501    0  0.17313175709E+01 -0.15813774185E+01 -0.31083917471E+01  0.38936248310E+01  0.00000000000E+00 0.  1.
         -4    1    1    2    0  501 -0.17313175709E+01  0.15813774185E+01 -0.14723461334E+01  0.27687575205E+01  0.00000000000E+00 0. -1.
<mgrwt>
<rscale>  0 0.23448273E+01</rscale>
<asrwt>0</asrwt>
<pdfrwt beam="1">0</pdfrwt>
<pdfrwt beam="2">0</pdfrwt>
<totfact> 0.30240884E+12</totfact>
</mgrwt>
</event>
<event>
 4    2  0.1993797E+006  0.8320385E+01  0.7546771E-02  0.1858318E+00
         22   -1    0    0    0    0  0.00000000000E+00  0.00000000000E+00  0.48293897355E+01  0.48293897355E+01  0.00000000000E+00 0.  1.
         22   -1    0    0    0    0 -0.00000000000E+00 -0.00000000000E+00 -0.18557317558E+02  0.18557317558E+02  0.00000000000E+00 0. -1.
          4    1    1    2  501    0  0.26978958154E+01  0.78708424130E+01 -0.12861727094E+01  0.84192067536E+01  0.00000000000E+00 0.  1.
         -4    1    1    2    0  501 -0.26978958154E+01 -0.78708424130E+01 -0.12441755113E+02  0.14967500540E+02  0.00000000000E+00 0. -1.
<mgrwt>
<rscale>  0 0.83203847E+01</rscale>
<asrwt>0</asrwt>
<pdfrwt beam="1">0</pdfrwt>
<pdfrwt beam="2">0</pdfrwt>
<totfact> 0.11955485E+11</totfact>
</mgrwt>
</event>
<event>
 4    2  0.1993797E+006  0.3099447E+01  0.7546771E-02  0.2491658E+00
         22   -1    0    0    0    0  0.00000000000E+00  0.00000000000E+00  0.67926639929E+02  0.67926639929E+02  0.00000000000E+00 0.  1.
         22   -1    0    0    0    0 -0.00000000000E+00 -0.00000000000E+00 -0.20535614672E+00  0.20535614672E+00  0.00000000000E+00 0. -1.
          4    1    1    2  501    0 -0.13215215339E+01  0.28035966611E+01  0.52867970941E+02  0.52958747387E+02  0.00000000000E+00 0.  1.
         -4    1    1    2    0  501  0.13215215339E+01 -0.28035966611E+01  0.14853312842E+02  0.15173248689E+02  0.00000000000E+00 0. -1.
<mgrwt>
<rscale>  0 0.30994473E+01</rscale>
<asrwt>0</asrwt>
<pdfrwt beam="1">0</pdfrwt>
<pdfrwt beam="2">0</pdfrwt>
<totfact> 0.83054694E+11</totfact>
</mgrwt>
</event>
<event>
 4    2  0.1993797E+006  0.2662004E+01  0.7546771E-02  0.2641148E+00
         22   -1    0    0    0    0  0.00000000000E+00  0.00000000000E+00  0.40072912667E+00  0.40072912667E+00  0.00000000000E+00 0.  1.
         22   -1    0    0    0    0 -0.00000000000E+00 -0.00000000000E+00 -0.17975592450E+02  0.17975592450E+02  0.00000000000E+00 0. -1.
          4    1    1    2  501    0 -0.23411542714E+01 -0.12669887892E+01 -0.99588231022E+01  0.10308463586E+02  0.00000000000E+00 0. -1.
         -4    1    1    2    0  501  0.23411542714E+01  0.12669887892E+01 -0.76160402209E+01  0.80678579909E+01  0.00000000000E+00 0.  1.
<mgrwt>
<rscale>  0 0.26620037E+01</rscale>
<asrwt>0</asrwt>
<pdfrwt beam="1">0</pdfrwt>
<pdfrwt beam="2">0</pdfrwt>
<totfact> 0.21810409E+12</totfact>
</mgrwt>
</event>
<event>
 4    2  0.1993797E+006  0.4035708E+01  0.7546771E-02  0.2270520E+00
         22   -1    0    0    0    0  0.00000000000E+00  0.00000000000E+00  0.11531272927E+02  0.11531272927E+02  0.00000000000E+00 0.  1.
         22   -1    0    0    0    0 -0.00000000000E+00 -0.00000000000E+00 -0.16842624487E+01  0.16842624487E+01  0.00000000000E+00 0. -1.
          4    1    1    2  501    0  0.17066739367E+01  0.36570755795E+01  0.75781894636E+01  0.85857960183E+01  0.00000000000E+00 0.  1.
         -4    1    1    2    0  501 -0.17066739367E+01 -0.36570755795E+01  0.22688210145E+01  0.46297393573E+01  0.00000000000E+00 0. -1.
<mgrwt>
<rscale>  0 0.40357078E+01</rscale>
<asrwt>0</asrwt>
<pdfrwt beam="1">0</pdfrwt>
<pdfrwt beam="2">0</pdfrwt>
<totfact> 0.73384379E+11</totfact>
</mgrwt>
</event>
<event>
 4    2  0.1993797E+006  0.2302523E+01  0.7546771E-02  0.2802559E+00
         22   -1    0    0    0    0  0.00000000000E+00  0.00000000000E+00  0.13673782666E+01  0.13673782666E+01  0.00000000000E+00 0.  1.
         22   -1    0    0    0    0 -0.00000000000E+00 -0.00000000000E+00 -0.52139973980E+01  0.52139973980E+01  0.00000000000E+00 0. -1.
          4    1    1    2  501    0 -0.22161774265E+01  0.62463678313E+00 -0.25708951725E+00  0.23168315685E+01  0.00000000000E+00 0.  1.
         -4    1    1    2    0  501  0.22161774265E+01 -0.62463678313E+00 -0.35895296142E+01  0.42645440961E+01  0.00000000000E+00 0. -1.
<mgrwt>
<rscale>  0 0.23025233E+01</rscale>
<asrwt>0</asrwt>
<pdfrwt beam="1">0</pdfrwt>
<pdfrwt beam="2">0</pdfrwt>
<totfact> 0.24188627E+12</totfact>
</mgrwt>
</event>
<event>
 4    2  0.1993797E+006  0.2694619E+01  0.7546771E-02  0.2628487E+00
         22   -1    0    0    0    0  0.00000000000E+00  0.00000000000E+00  0.25583463223E+02  0.25583463223E+02  0.00000000000E+00 0. -1.
         22   -1    0    0    0    0 -0.00000000000E+00 -0.00000000000E+00 -0.33067989017E+00  0.33067989017E+00  0.00000000000E+00 0.  1.
          4    1    1    2  501    0  0.13536903110E+01 -0.23299129292E+01  0.17504220620E+02  0.17710412509E+02  0.00000000000E+00 0. -1.
         -4    1    1    2    0  501 -0.13536903110E+01  0.23299129292E+01  0.77485627126E+01  0.82037306042E+01  0.00000000000E+00 0.  1.
<mgrwt>
<rscale>  0 0.26946190E+01</rscale>
<asrwt>0</asrwt>
<pdfrwt beam="1">0</pdfrwt>
<pdfrwt beam="2">0</pdfrwt>
<totfact> 0.17403944E+12</totfact>
</mgrwt>
</event>
<event>
 4    2  0.1993797E+006  0.2320641E+01  0.7546771E-02  0.2793305E+00
         22   -1    0    0    0    0  0.00000000000E+00  0.00000000000E+00  0.11381522202E+02  0.11381522202E+02  0.00000000000E+00 0. -1.
         22   -1    0    0    0    0 -0.00000000000E+00 -0.00000000000E+00 -0.62300363041E+00  0.62300363041E+00  0.00000000000E+00 0.  1.
          4    1    1    2  501    0  0.12554318251E+01 -0.19517340312E+01  0.83228466652E+01  0.86403212561E+01  0.00000000000E+00 0.  1.
         -4    1    1    2    0  501 -0.12554318251E+01  0.19517340312E+01  0.24356719066E+01  0.33642045766E+01  0.00000000000E+00 0. -1.
<mgrwt>
<rscale>  0 0.23206410E+01</rscale>
<asrwt>0</asrwt>
<pdfrwt beam="1">0</pdfrwt>
<pdfrwt beam="2">0</pdfrwt>
<totfact> 0.23229430E+12</totfact>
</mgrwt>
</event>
<event>
 4    2  0.1993797E+006  0.4347986E+01  0.7546771E-02  0.2215333E+00
         22   -1    0    0    0    0  0.00000000000E+00  0.00000000000E+00  0.69481140334E+00  0.69481140334E+00  0.00000000000E+00 0. -1.
         22   -1    0    0    0    0 -0.00000000000E+00 -0.00000000000E+00 -0.27881032913E+02  0.27881032913E+02  0.00000000000E+00 0.  1.
          4    1    1    2  501    0  0.41983268740E+01 -0.11309418330E+01 -0.11374518090E+02  0.12177218063E+02  0.00000000000E+00 0. -1.
         -4    1    1    2    0  501 -0.41983268740E+01  0.11309418330E+01 -0.15811703420E+02  0.16398626254E+02  0.00000000000E+00 0.  1.
<mgrwt>
<rscale>  0 0.43479855E+01</rscale>
<asrwt>0</asrwt>
<pdfrwt beam="1">0</pdfrwt>
<pdfrwt beam="2">0</pdfrwt>
<totfact> 0.67520252E+11</totfact>
</mgrwt>
</event>
<event>
 4    2  0.1993797E+006  0.2037600E+01  0.7546771E-02  0.2955798E+00
         22   -1    0    0    0    0  0.00000000000E+00  0.00000000000E+00  0.92675094433E+00  0.92675094433E+00  0.00000000000E+00 0. -1.
         22   -1    0    0    0    0 -0.00000000000E+00 -0.00000000000E+00 -0.13801865165E+02  0.13801865165E+02  0.00000000000E+00 0.  1.
          4    1    1    2  501    0  0.52702654641E+00  0.19682624837E+01 -0.38532994501E+00  0.20737148676E+01  0.00000000000E+00 0. -1.
         -4    1    1    2    0  501 -0.52702654641E+00 -0.19682624837E+01 -0.12489784276E+02  0.12654901242E+02  0.00000000000E+00 0.  1.
<mgrwt>
<rscale>  0 0.20376001E+01</rscale>
<asrwt>0</asrwt>
<pdfrwt beam="1">0</pdfrwt>
<pdfrwt beam="2">0</pdfrwt>
<totfact> 0.11686407E+12</totfact>
</mgrwt>
</event>
<event>
 4    2  0.1993797E+006  0.2279832E+01  0.7546771E-02  0.2814346E+00
         22   -1    0    0    0    0  0.00000000000E+00  0.00000000000E+00  0.90001654846E+00  0.90001654846E+00  0.00000000000E+00 0.  1.
         22   -1    0    0    0    0 -0.00000000000E+00 -0.00000000000E+00 -0.58067331500E+01  0.58067331500E+01  0.00000000000E+00 0. -1.
          4    1    1    2  501    0  0.19273942243E+01  0.12176964154E+01 -0.22056231999E+01  0.31721296878E+01  0.00000000000E+00 0.  1.
         -4    1    1    2    0  501 -0.19273942243E+01 -0.12176964154E+01 -0.27010934016E+01  0.35346200107E+01  0.00000000000E+00 0. -1.
<mgrwt>
<rscale>  0 0.22798318E+01</rscale>
<asrwt>0</asrwt>
<pdfrwt beam="1">0</pdfrwt>
<pdfrwt beam="2">0</pdfrwt>
<totfact> 0.34348432E+12</totfact>
</mgrwt>
</event>
<event>
 4    2  0.1993797E+006  0.4772328E+01  0.7546771E-02  0.2151202E+00
         22   -1    0    0    0    0  0.00000000000E+00  0.00000000000E+00  0.11259356722E+03  0.11259356722E+03  0.00000000000E+00 0.  1.
         22   -1    0    0    0    0 -0.00000000000E+00 -0.00000000000E+00 -0.20294904743E+00  0.20294904743E+00  0.00000000000E+00 0. -1.
          4    1    1    2  501    0 -0.31341103431E+01 -0.35989536348E+01  0.52950435585E+02  0.53165061305E+02  0.00000000000E+00 0.  1.
         -4    1    1    2    0  501  0.31341103431E+01  0.35989536348E+01  0.59440182584E+02  0.59631454959E+02  0.00000000000E+00 0. -1.
<mgrwt>
<rscale>  0 0.47723280E+01</rscale>
<asrwt>0</asrwt>
<pdfrwt beam="1">0</pdfrwt>
<pdfrwt beam="2">0</pdfrwt>
<totfact> 0.41726101E+11</totfact>
</mgrwt>
</event>
<event>
 4    2  0.1993797E+006  0.4201609E+01  0.7546771E-02  0.2240337E+00
         22   -1    0    0    0    0  0.00000000000E+00  0.00000000000E+00  0.29071199075E+01  0.29071199075E+01  0.00000000000E+00 0.  1.
         22   -1    0    0    0    0 -0.00000000000E+00 -0.00000000000E+00 -0.11665514012E+02  0.11665514012E+02  0.00000000000E+00 0. -1.
          4    1    1    2  501    0 -0.49214771843E+00  0.41726859434E+01  0.66600599806E+00  0.42540664485E+01  0.00000000000E+00 0.  1.
         -4    1    1    2    0  501  0.49214771843E+00 -0.41726859434E+01 -0.94244001024E+01  0.10318567471E+02  0.00000000000E+00 0. -1.
<mgrwt>
<rscale>  0 0.42016089E+01</rscale>
<asrwt>0</asrwt>
<pdfrwt beam="1">0</pdfrwt>
<pdfrwt beam="2">0</pdfrwt>
<totfact> 0.38412934E+11</totfact>
</mgrwt>
</event>
<event>
 4    2  0.1993797E+006  0.5326111E+01  0.7546771E-02  0.2085978E+00
         22   -1    0    0    0    0  0.00000000000E+00  0.00000000000E+00  0.47175916256E+01  0.47175916256E+01  0.00000000000E+00 0. -1.
         22   -1    0    0    0    0 -0.00000000000E+00 -0.00000000000E+00 -0.98569465553E+01  0.98569465553E+01  0.00000000000E+00 0.  1.
          4    1    1    2  501    0 -0.28021065421E+01  0.45294212699E+01  0.19809924488E+01  0.56825864882E+01  0.00000000000E+00 0. -1.
         -4    1    1    2    0  501  0.28021065421E+01 -0.45294212699E+01 -0.71203473785E+01  0.88919516927E+01  0.00000000000E+00 0.  1.
<mgrwt>
<rscale>  0 0.53261110E+01</rscale>
<asrwt>0</asrwt>
<pdfrwt beam="1">0</pdfrwt>
<pdfrwt beam="2">0</pdfrwt>
<totfact> 0.26690693E+11</totfact>
</mgrwt>
</event>
<event>
 4    2  0.1993797E+006  0.3463638E+01  0.7546771E-02  0.2393276E+00
         22   -1    0    0    0    0  0.00000000000E+00  0.00000000000E+00  0.31808947836E+01  0.31808947836E+01  0.00000000000E+00 0. -1.
         22   -1    0    0    0    0 -0.00000000000E+00 -0.00000000000E+00 -0.65429898336E+01  0.65429898336E+01  0.00000000000E+00 0.  1.
          4    1    1    2  501    0  0.24510855337E+01 -0.24472372990E+01  0.14832491143E+01  0.37678665882E+01  0.00000000000E+00 0. -1.
         -4    1    1    2    0  501 -0.24510855337E+01  0.24472372990E+01 -0.48453441643E+01  0.59560180290E+01  0.00000000000E+00 0.  1.
<mgrwt>
<rscale>  0 0.34636384E+01</rscale>
<asrwt>0</asrwt>
<pdfrwt beam="1">0</pdfrwt>
<pdfrwt beam="2">0</pdfrwt>
<totfact> 0.69419888E+11</totfact>
</mgrwt>
</event>
<event>
 4    2  0.1993797E+006  0.3048851E+01  0.7546771E-02  0.2506965E+00
         22   -1    0    0    0    0  0.00000000000E+00  0.00000000000E+00  0.10714107592E+02  0.10714107592E+02  0.00000000000E+00 0.  1.
         22   -1    0    0    0    0 -0.00000000000E+00 -0.00000000000E+00 -0.19293098920E+01  0.19293098920E+01  0.00000000000E+00 0. -1.
          4    1    1    2  501    0 -0.18611331867E+01 -0.24148864186E+01  0.90820192513E+01  0.95801130909E+01  0.00000000000E+00 0.  1.
         -4    1    1    2    0  501  0.18611331867E+01  0.24148864186E+01 -0.29722155149E+00  0.30633043930E+01  0.00000000000E+00 0. -1.
<mgrwt>
<rscale>  0 0.30488511E+01</rscale>
<asrwt>0</asrwt>
<pdfrwt beam="1">0</pdfrwt>
<pdfrwt beam="2">0</pdfrwt>
<totfact> 0.68592421E+11</totfact>
</mgrwt>
</event>
<event>
 4    2  0.1993797E+006  0.2540748E+01  0.7546771E-02  0.2690834E+00
         22   -1    0    0    0    0  0.00000000000E+00  0.00000000000E+00  0.11672317229E+01  0.11672317229E+01  0.00000000000E+00 0.  1.
         22   -1    0    0    0    0 -0.00000000000E+00 -0.00000000000E+00 -0.11899309513E+02  0.11899309513E+02  0.00000000000E+00 0. -1.
          4    1    1    2  501    0 -0.15500388037E+01 -0.20131523055E+01 -0.58636689116E+00  0.26075330542E+01  0.00000000000E+00 0.  1.
         -4    1    1    2    0  501  0.15500388037E+01  0.20131523055E+01 -0.10145710899E+02  0.10459008182E+02  0.00000000000E+00 0. -1.
<mgrwt>
<rscale>  0 0.25407484E+01</rscale>
<asrwt>0</asrwt>
<pdfrwt beam="1">0</pdfrwt>
<pdfrwt beam="2">0</pdfrwt>
<totfact> 0.10764049E+12</totfact>
</mgrwt>
</event>
<event>
 4    2  0.1993797E+006  0.3398833E+01  0.7546771E-02  0.2409421E+00
         22   -1    0    0    0    0  0.00000000000E+00  0.00000000000E+00  0.21146081361E+02  0.21146081361E+02  0.00000000000E+00 0.  1.
         22   -1    0    0    0    0 -0.00000000000E+00 -0.00000000000E+00 -0.31333556520E+01  0.31333556520E+01  0.00000000000E+00 0. -1.
          4    1    1    2  501    0  0.40513808176E+00 -0.33746005228E+01  0.20037157752E+02  0.20323379550E+02  0.00000000000E+00 0.  1.
         -4    1    1    2    0  501 -0.40513808176E+00  0.33746005228E+01 -0.20244320430E+01  0.39560574630E+01  0.00000000000E+00 0. -1.
<mgrwt>
<rscale>  0 0.33988330E+01</rscale>
<asrwt>0</asrwt>
<pdfrwt beam="1">0</pdfrwt>
<pdfrwt beam="2">0</pdfrwt>
<totfact> 0.16897312E+11</totfact>
</mgrwt>
</event>
<event>
 4    2  0.1993797E+006  0.2317581E+01  0.7546771E-02  0.2794858E+00
         22   -1    0    0    0    0  0.00000000000E+00  0.00000000000E+00  0.18619856034E+01  0.18619856034E+01  0.00000000000E+00 0. -1.
         22   -1    0    0    0    0 -0.00000000000E+00 -0.00000000000E+00 -0.31232790316E+01  0.31232790316E+01  0.00000000000E+00 0.  1.
          4    1    1    2  501    0 -0.17832197785E+01 -0.14803074273E+01  0.58341024818E-01  0.23183154515E+01  0.00000000000E+00 0. -1.
         -4    1    1    2    0  501  0.17832197785E+01  0.14803074273E+01 -0.13196344531E+01  0.26669491835E+01  0.00000000000E+00 0.  1.
<mgrwt>
<rscale>  0 0.23175813E+01</rscale>
<asrwt>0</asrwt>
<pdfrwt beam="1">0</pdfrwt>
<pdfrwt beam="2">0</pdfrwt>
<totfact> 0.30982629E+12</totfact>
</mgrwt>
</event>
<event>
 4    2  0.1993797E+006  0.2573215E+01  0.7546771E-02  0.2677106E+00
         22   -1    0    0    0    0  0.00000000000E+00  0.00000000000E+00  0.62053898479E-01  0.62053898479E-01  0.00000000000E+00 0. -1.
         22   -1    0    0    0    0 -0.00000000000E+00 -0.00000000000E+00 -0.12461367541E+03  0.12461367541E+03  0.00000000000E+00 0.  1.
          4    1    1    2  501    0  0.36770003057E+00  0.25468084857E+01 -0.38643533059E+02  0.38729111583E+02  0.00000000000E+00 0. -1.
         -4    1    1    2    0  501 -0.36770003057E+00 -0.25468084857E+01 -0.85908088450E+02  0.85946617723E+02  0.00000000000E+00 0.  1.
<mgrwt>
<rscale>  0 0.25732153E+01</rscale>
<asrwt>0</asrwt>
<pdfrwt beam="1">0</pdfrwt>
<pdfrwt beam="2">0</pdfrwt>
<totfact> 0.13412671E+12</totfact>
</mgrwt>
</event>
<event>
 4    2  0.1993797E+006  0.2084364E+01  0.7546771E-02  0.2926018E+00
         22   -1    0    0    0    0  0.00000000000E+00  0.00000000000E+00  0.12158777879E+02  0.12158777879E+02  0.00000000000E+00 0. -1.
         22   -1    0    0    0    0 -0.00000000000E+00 -0.00000000000E+00 -0.37229340573E+00  0.37229340573E+00  0.00000000000E+00 0.  1.
          4    1    1    2  501    0 -0.14284768126E+01 -0.15179016578E+01  0.71497913989E+01  0.74474216005E+01  0.00000000000E+00 0. -1.
         -4    1    1    2    0  501  0.14284768126E+01  0.15179016578E+01  0.46366930746E+01  0.50836496845E+01  0.00000000000E+00 0.  1.
<mgrwt>
<rscale>  0 0.20843636E+01</rscale>
<asrwt>0</asrwt>
<pdfrwt beam="1">0</pdfrwt>
<pdfrwt beam="2">0</pdfrwt>
<totfact> 0.38321044E+12</totfact>
</mgrwt>
</event>
<event>
 4    2  0.1993797E+006  0.2659626E+01  0.7546771E-02  0.2642082E+00
         22   -1    0    0    0    0  0.00000000000E+00  0.00000000000E+00  0.10301213702E+02  0.10301213702E+02  0.00000000000E+00 0. -1.
         22   -1    0    0    0    0 -0.00000000000E+00 -0.00000000000E+00 -0.92403652080E+00  0.92403652080E+00  0.00000000000E+00 0.  1.
          4    1    1    2  501    0 -0.25956354273E+01  0.57990089806E+00  0.75332110534E+01  0.79889221487E+01  0.00000000000E+00 0. -1.
         -4    1    1    2    0  501  0.25956354273E+01 -0.57990089806E+00  0.18439661281E+01  0.32363280743E+01  0.00000000000E+00 0.  1.
<mgrwt>
<rscale>  0 0.26596256E+01</rscale>
<asrwt>0</asrwt>
<pdfrwt beam="1">0</pdfrwt>
<pdfrwt beam="2">0</pdfrwt>
<totfact> 0.16751878E+12</totfact>
</mgrwt>
</event>
<event>
 4    2  0.1993797E+006  0.3087084E+01  0.7546771E-02  0.2495357E+00
         22   -1    0    0    0    0  0.00000000000E+00  0.00000000000E+00  0.27814334363E+01  0.27814334363E+01  0.00000000000E+00 0.  1.
         22   -1    0    0    0    0 -0.00000000000E+00 -0.00000000000E+00 -0.41939606362E+01  0.41939606362E+01  0.00000000000E+00 0. -1.
          4    1    1    2  501    0 -0.25803146397E+01 -0.16947171138E+01  0.78585955014E+00  0.31855399806E+01  0.00000000000E+00 0.  1.
         -4    1    1    2    0  501  0.25803146397E+01  0.16947171138E+01 -0.21983867500E+01  0.37898540919E+01  0.00000000000E+00 0. -1.
<mgrwt>
<rscale>  0 0.30870843E+01</rscale>
<asrwt>0</asrwt>
<pdfrwt beam="1">0</pdfrwt>
<pdfrwt beam="2">0</pdfrwt>
<totfact> 0.13758486E+12</totfact>
</mgrwt>
</event>
<event>
 4    2  0.1993797E+006  0.4149347E+01  0.7546771E-02  0.2249624E+00
         22   -1    0    0    0    0  0.00000000000E+00  0.00000000000E+00  0.46548555376E+00  0.46548555376E+00  0.00000000000E+00 0. -1.
         22   -1    0    0    0    0 -0.00000000000E+00 -0.00000000000E+00 -0.53444281200E+02  0.53444281200E+02  0.00000000000E+00 0.  1.
          4    1    1    2  501    0  0.31210133596E+01 -0.27342929945E+01 -0.41446970047E+02  0.41654152358E+02  0.00000000000E+00 0.  1.
         -4    1    1    2    0  501 -0.31210133596E+01  0.27342929945E+01 -0.11531825599E+02  0.12255614396E+02  0.00000000000E+00 0. -1.
<mgrwt>
<rscale>  0 0.41493472E+01</rscale>
<asrwt>0</asrwt>
<pdfrwt beam="1">0</pdfrwt>
<pdfrwt beam="2">0</pdfrwt>
<totfact> 0.45723049E+11</totfact>
</mgrwt>
</event>
<event>
 4    2  0.1993797E+006  0.1268864E+02  0.7546771E-02  0.1685577E+00
         22   -1    0    0    0    0  0.00000000000E+00  0.00000000000E+00  0.13021596831E+02  0.13021596831E+02  0.00000000000E+00 0. -1.
         22   -1    0    0    0    0 -0.00000000000E+00 -0.00000000000E+00 -0.16710902279E+02  0.16710902279E+02  0.00000000000E+00 0.  1.
          4    1    1    2  501    0  0.12657255151E+02 -0.89187884778E+00  0.57373108143E+01  0.13925454794E+02  0.00000000000E+00 0. -1.
         -4    1    1    2    0  501 -0.12657255151E+02  0.89187884778E+00 -0.94266162628E+01  0.15807044316E+02  0.00000000000E+00 0.  1.
<mgrwt>
<rscale>  0 0.12688639E+02</rscale>
<asrwt>0</asrwt>
<pdfrwt beam="1">0</pdfrwt>
<pdfrwt beam="2">0</pdfrwt>
<totfact> 0.41334233E+10</totfact>
</mgrwt>
</event>
<event>
 4    2  0.1993797E+006  0.5199806E+01  0.7546771E-02  0.2099883E+00
         22   -1    0    0    0    0  0.00000000000E+00  0.00000000000E+00  0.59246055176E+02  0.59246055176E+02  0.00000000000E+00 0. -1.
         22   -1    0    0    0    0 -0.00000000000E+00 -0.00000000000E+00 -0.32126410910E+01  0.32126410910E+01  0.00000000000E+00 0.  1.
          4    1    1    2  501    0 -0.40423887784E+01 -0.32706385665E+01  0.56943012194E+02  0.57179931981E+02  0.00000000000E+00 0. -1.
         -4    1    1    2    0  501  0.40423887784E+01  0.32706385665E+01 -0.90959810856E+00  0.52787642860E+01  0.00000000000E+00 0.  1.
<mgrwt>
<rscale>  0 0.51998061E+01</rscale>
<asrwt>0</asrwt>
<pdfrwt beam="1">0</pdfrwt>
<pdfrwt beam="2">0</pdfrwt>
<totfact> 0.43468118E+10</totfact>
</mgrwt>
</event>
<event>
 4    2  0.1993797E+006  0.2855609E+01  0.7546771E-02  0.2569877E+00
         22   -1    0    0    0    0  0.00000000000E+00  0.00000000000E+00  0.13866349164E+01  0.13866349164E+01  0.00000000000E+00 0. -1.
         22   -1    0    0    0    0 -0.00000000000E+00 -0.00000000000E+00 -0.68316204724E+01  0.68316204724E+01  0.00000000000E+00 0.  1.
          4    1    1    2  501    0  0.66780402648E+00  0.27764257175E+01 -0.11894988586E+01  0.30934462202E+01  0.00000000000E+00 0. -1.
         -4    1    1    2    0  501 -0.66780402648E+00 -0.27764257175E+01 -0.42554866974E+01  0.51248091686E+01  0.00000000000E+00 0.  1.
<mgrwt>
<rscale>  0 0.28556089E+01</rscale>
<asrwt>0</asrwt>
<pdfrwt beam="1">0</pdfrwt>
<pdfrwt beam="2">0</pdfrwt>
<totfact> 0.17257328E+12</totfact>
</mgrwt>
</event>
<event>
 4    2  0.1993797E+006  0.2080658E+01  0.7546771E-02  0.2928330E+00
         22   -1    0    0    0    0  0.00000000000E+00  0.00000000000E+00  0.12758296706E+01  0.12758296706E+01  0.00000000000E+00 0. -1.
         22   -1    0    0    0    0 -0.00000000000E+00 -0.00000000000E+00 -0.36379766840E+01  0.36379766840E+01  0.00000000000E+00 0.  1.
          4    1    1    2  501    0 -0.12750946871E+01  0.16441629298E+01 -0.54376751229E+00  0.21505397713E+01  0.00000000000E+00 0. -1.
         -4    1    1    2    0  501  0.12750946871E+01 -0.16441629298E+01 -0.18183795011E+01  0.27632665833E+01  0.00000000000E+00 0.  1.
<mgrwt>
<rscale>  0 0.20806581E+01</rscale>
<asrwt>0</asrwt>
<pdfrwt beam="1">0</pdfrwt>
<pdfrwt beam="2">0</pdfrwt>
<totfact> 0.40041049E+12</totfact>
</mgrwt>
</event>
<event>
 4    2  0.1993797E+006  0.2688898E+01  0.7546771E-02  0.2630687E+00
         22   -1    0    0    0    0  0.00000000000E+00  0.00000000000E+00  0.24361212526E+01  0.24361212526E+01  0.00000000000E+00 0.  1.
         22   -1    0    0    0    0 -0.00000000000E+00 -0.00000000000E+00 -0.29818032034E+01  0.29818032034E+01  0.00000000000E+00 0. -1.
          4    1    1    2  501    0 -0.25809733555E+01 -0.75415438285E+00 -0.87884554189E-01  0.26903338064E+01  0.00000000000E+00 0. -1.
         -4    1    1    2    0  501  0.25809733555E+01  0.75415438285E+00 -0.45779739663E+00  0.27275906495E+01  0.00000000000E+00 0.  1.
<mgrwt>
<rscale>  0 0.26888980E+01</rscale>
<asrwt>0</asrwt>
<pdfrwt beam="1">0</pdfrwt>
<pdfrwt beam="2">0</pdfrwt>
<totfact> 0.23953628E+12</totfact>
</mgrwt>
</event>
<event>
 4    2  0.1993797E+006  0.2551804E+01  0.7546771E-02  0.2686123E+00
         22   -1    0    0    0    0  0.00000000000E+00  0.00000000000E+00  0.80967515634E+01  0.80967515634E+01  0.00000000000E+00 0.  1.
         22   -1    0    0    0    0 -0.00000000000E+00 -0.00000000000E+00 -0.32925211218E+01  0.32925211218E+01  0.00000000000E+00 0. -1.
          4    1    1    2  501    0  0.27397526914E+00 -0.25370534766E+01  0.73526457386E+01  0.77828723584E+01  0.00000000000E+00 0.  1.
         -4    1    1    2    0  501 -0.27397526914E+00  0.25370534766E+01 -0.25484152969E+01  0.36064003267E+01  0.00000000000E+00 0. -1.
<mgrwt>
<rscale>  0 0.25518038E+01</rscale>
<asrwt>0</asrwt>
<pdfrwt beam="1">0</pdfrwt>
<pdfrwt beam="2">0</pdfrwt>
<totfact> 0.51655304E+11</totfact>
</mgrwt>
</event>
<event>
 4    2  0.1993797E+006  0.2236551E+01  0.7546771E-02  0.2837459E+00
         22   -1    0    0    0    0  0.00000000000E+00  0.00000000000E+00  0.14523018401E+02  0.14523018401E+02  0.00000000000E+00 0.  1.
         22   -1    0    0    0    0 -0.00000000000E+00 -0.00000000000E+00 -0.35265540627E+00  0.35265540627E+00  0.00000000000E+00 0. -1.
          4    1    1    2  501    0 -0.40448657974E+00  0.21996703969E+01  0.82211264627E+01  0.85199225092E+01  0.00000000000E+00 0. -1.
         -4    1    1    2    0  501  0.40448657974E+00 -0.21996703969E+01  0.59492365325E+01  0.63557512984E+01  0.00000000000E+00 0.  1.
<mgrwt>
<rscale>  0 0.22365507E+01</rscale>
<asrwt>0</asrwt>
<pdfrwt beam="1">0</pdfrwt>
<pdfrwt beam="2">0</pdfrwt>
<totfact> 0.32766237E+12</totfact>
</mgrwt>
</event>
<event>
 4    2  0.1993797E+006  0.2701003E+01  0.7546771E-02  0.2626042E+00
         22   -1    0    0    0    0  0.00000000000E+00  0.00000000000E+00  0.54816130104E+01  0.54816130104E+01  0.00000000000E+00 0. -1.
         22   -1    0    0    0    0 -0.00000000000E+00 -0.00000000000E+00 -0.22010066186E+01  0.22010066186E+01  0.00000000000E+00 0.  1.
          4    1    1    2  501    0  0.56109682684E+00 -0.26420804027E+01  0.40555284485E+01  0.48726511777E+01  0.00000000000E+00 0. -1.
         -4    1    1    2    0  501 -0.56109682684E+00  0.26420804027E+01 -0.77492205664E+00  0.28099684513E+01  0.00000000000E+00 0.  1.
<mgrwt>
<rscale>  0 0.27010032E+01</rscale>
<asrwt>0</asrwt>
<pdfrwt beam="1">0</pdfrwt>
<pdfrwt beam="2">0</pdfrwt>
<totfact> 0.13159945E+12</totfact>
</mgrwt>
</event>
<event>
 4    2  0.1993797E+006  0.5455598E+01  0.7546771E-02  0.2072251E+00
         22   -1    0    0    0    0  0.00000000000E+00  0.00000000000E+00  0.40179391286E+01  0.40179391286E+01  0.00000000000E+00 0. -1.
         22   -1    0    0    0    0 -0.00000000000E+00 -0.00000000000E+00 -0.19221331235E+02  0.19221331235E+02  0.00000000000E+00 0.  1.
          4    1    1    2  501    0  0.27776253153E+01  0.46955667629E+01  0.15077736991E+01  0.56601175911E+01  0.00000000000E+00 0. -1.
         -4    1    1    2    0  501 -0.27776253153E+01 -0.46955667629E+01 -0.16711165805E+02  0.17579152772E+02  0.00000000000E+00 0.  1.
<mgrwt>
<rscale>  0 0.54555980E+01</rscale>
<asrwt>0</asrwt>
<pdfrwt beam="1">0</pdfrwt>
<pdfrwt beam="2">0</pdfrwt>
<totfact> 0.14217894E+11</totfact>
</mgrwt>
</event>
<event>
 4    2  0.1993797E+006  0.2282685E+01  0.7546771E-02  0.2812851E+00
         22   -1    0    0    0    0  0.00000000000E+00  0.00000000000E+00  0.10441920361E+00  0.10441920361E+00  0.00000000000E+00 0. -1.
         22   -1    0    0    0    0 -0.00000000000E+00 -0.00000000000E+00 -0.56956554020E+02  0.56956554020E+02  0.00000000000E+00 0.  1.
          4    1    1    2  501    0  0.15675047840E+01  0.16593913801E+01 -0.18384661125E+02  0.18525831039E+02  0.00000000000E+00 0.  1.
         -4    1    1    2    0  501 -0.15675047840E+01 -0.16593913801E+01 -0.38467473691E+02  0.38535142184E+02  0.00000000000E+00 0. -1.
<mgrwt>
<rscale>  0 0.22826850E+01</rscale>
<asrwt>0</asrwt>
<pdfrwt beam="1">0</pdfrwt>
<pdfrwt beam="2">0</pdfrwt>
<totfact> 0.22312473E+12</totfact>
</mgrwt>
</event>
<event>
 4    2  0.1993797E+006  0.2148818E+01  0.7546771E-02  0.2887036E+00
         22   -1    0    0    0    0  0.00000000000E+00  0.00000000000E+00  0.60645399405E-01  0.60645399405E-01  0.00000000000E+00 0.  1.
         22   -1    0    0    0    0 -0.00000000000E+00 -0.00000000000E+00 -0.80445661286E+02  0.80445661286E+02  0.00000000000E+00 0. -1.
          4    1    1    2  501    0  0.23727923377E+00  0.21356777581E+01 -0.49507191821E+02  0.49553803718E+02  0.00000000000E+00 0.  1.
         -4    1    1    2    0  501 -0.23727923377E+00 -0.21356777581E+01 -0.30877824066E+02  0.30952502968E+02  0.00000000000E+00 0. -1.
<mgrwt>
<rscale>  0 0.21488185E+01</rscale>
<asrwt>0</asrwt>
<pdfrwt beam="1">0</pdfrwt>
<pdfrwt beam="2">0</pdfrwt>
<totfact> 0.25483612E+12</totfact>
</mgrwt>
</event>
<event>
 4    2  0.1993797E+006  0.2006544E+01  0.7546771E-02  0.2976324E+00
         22   -1    0    0    0    0  0.00000000000E+00  0.00000000000E+00  0.79089696468E+00  0.79089696468E+00  0.00000000000E+00 0. -1.
         22   -1    0    0    0    0 -0.00000000000E+00 -0.00000000000E+00 -0.14484663626E+02  0.14484663626E+02  0.00000000000E+00 0.  1.
          4    1    1    2  501    0 -0.20060835831E+01  0.43003266625E-01 -0.69600198459E+00  0.21238265904E+01  0.00000000000E+00 0. -1.
         -4    1    1    2    0  501  0.20060835831E+01 -0.43003266625E-01 -0.12997764676E+02  0.13151734000E+02  0.00000000000E+00 0.  1.
<mgrwt>
<rscale>  0 0.20065444E+01</rscale>
<asrwt>0</asrwt>
<pdfrwt beam="1">0</pdfrwt>
<pdfrwt beam="2">0</pdfrwt>
<totfact> 0.13192872E+12</totfact>
</mgrwt>
</event>
<event>
 4    2  0.1993797E+006  0.2350871E+01  0.7546771E-02  0.2778165E+00
         22   -1    0    0    0    0  0.00000000000E+00  0.00000000000E+00  0.60170728983E+01  0.60170728983E+01  0.00000000000E+00 0. -1.
         22   -1    0    0    0    0 -0.00000000000E+00 -0.00000000000E+00 -0.39032213019E+01  0.39032213019E+01  0.00000000000E+00 0.  1.
          4    1    1    2  501    0 -0.15475751171E+01 -0.17696341107E+01  0.53943901967E+01  0.58843894520E+01  0.00000000000E+00 0. -1.
         -4    1    1    2    0  501  0.15475751171E+01  0.17696341107E+01 -0.32805386003E+01  0.40359047483E+01  0.00000000000E+00 0.  1.
<mgrwt>
<rscale>  0 0.23508708E+01</rscale>
<asrwt>0</asrwt>
<pdfrwt beam="1">0</pdfrwt>
<pdfrwt beam="2">0</pdfrwt>
<totfact> 0.60339924E+11</totfact>
</mgrwt>
</event>
<event>
 4    2  0.1993797E+006  0.2581714E+01  0.7546771E-02  0.2673565E+00
         22   -1    0    0    0    0  0.00000000000E+00  0.00000000000E+00  0.46241935772E+01  0.46241935772E+01  0.00000000000E+00 0. -1.
         22   -1    0    0    0    0 -0.00000000000E+00 -0.00000000000E+00 -0.14884379697E+01  0.14884379697E+01  0.00000000000E+00 0.  1.
          4    1    1    2  501    0  0.22255187708E+01  0.13085548899E+01  0.21112781930E+01  0.33350780061E+01  0.00000000000E+00 0. -1.
         -4    1    1    2    0  501 -0.22255187708E+01 -0.13085548899E+01  0.10244774146E+01  0.27775535408E+01  0.00000000000E+00 0.  1.
<mgrwt>
<rscale>  0 0.25817145E+01</rscale>
<asrwt>0</asrwt>
<pdfrwt beam="1">0</pdfrwt>
<pdfrwt beam="2">0</pdfrwt>
<totfact> 0.25291179E+12</totfact>
</mgrwt>
</event>
<event>
 4    2  0.1993797E+006  0.2259387E+01  0.7546771E-02  0.2825158E+00
         22   -1    0    0    0    0  0.00000000000E+00  0.00000000000E+00  0.14017788700E+02  0.14017788700E+02  0.00000000000E+00 0.  1.
         22   -1    0    0    0    0 -0.00000000000E+00 -0.00000000000E+00 -0.97338677726E+00  0.97338677726E+00  0.00000000000E+00 0. -1.
          4    1    1    2  501    0  0.20999542627E+01  0.83368068788E+00  0.12452131111E+02  0.12655449442E+02  0.00000000000E+00 0.  1.
         -4    1    1    2    0  501 -0.20999542627E+01 -0.83368068788E+00  0.59227081219E+00  0.23357260348E+01  0.00000000000E+00 0. -1.
<mgrwt>
<rscale>  0 0.22593874E+01</rscale>
<asrwt>0</asrwt>
<pdfrwt beam="1">0</pdfrwt>
<pdfrwt beam="2">0</pdfrwt>
<totfact> 0.10842012E+12</totfact>
</mgrwt>
</event>
<event>
 4    2  0.1993797E+006  0.2115334E+01  0.7546771E-02  0.2907000E+00
         22   -1    0    0    0    0  0.00000000000E+00  0.00000000000E+00  0.43247836193E+00  0.43247836193E+00  0.00000000000E+00 0.  1.
         22   -1    0    0    0    0 -0.00000000000E+00 -0.00000000000E+00 -0.10382490514E+02  0.10382490514E+02  0.00000000000E+00 0. -1.
          4    1    1    2  501    0  0.14818883803E+01  0.15095184754E+01 -0.46566500830E+01  0.51145898364E+01  0.00000000000E+00 0.  1.
         -4    1    1    2    0  501 -0.14818883803E+01 -0.15095184754E+01 -0.52933620690E+01  0.57003790395E+01  0.00000000000E+00 0. -1.
<mgrwt>
<rscale>  0 0.21153343E+01</rscale>
<asrwt>0</asrwt>
<pdfrwt beam="1">0</pdfrwt>
<pdfrwt beam="2">0</pdfrwt>
<totfact> 0.39228642E+12</totfact>
</mgrwt>
</event>
<event>
 4    2  0.1993797E+006  0.2033616E+01  0.7546771E-02  0.2958397E+00
         22   -1    0    0    0    0  0.00000000000E+00  0.00000000000E+00  0.76595444668E+01  0.76595444668E+01  0.00000000000E+00 0.  1.
         22   -1    0    0    0    0 -0.00000000000E+00 -0.00000000000E+00 -0.18906489314E+01  0.18906489314E+01  0.00000000000E+00 0. -1.
          4    1    1    2  501    0 -0.16500935691E+01 -0.11886061066E+01  0.69205274654E+01  0.72131334150E+01  0.00000000000E+00 0.  1.
         -4    1    1    2    0  501  0.16500935691E+01  0.11886061066E+01 -0.11516319300E+01  0.23370599833E+01  0.00000000000E+00 0. -1.
<mgrwt>
<rscale>  0 0.20336158E+01</rscale>
<asrwt>0</asrwt>
<pdfrwt beam="1">0</pdfrwt>
<pdfrwt beam="2">0</pdfrwt>
<totfact> 0.10526133E+12</totfact>
</mgrwt>
</event>
<event>
 4    2  0.1993797E+006  0.2155992E+01  0.7546771E-02  0.2882836E+00
         22   -1    0    0    0    0  0.00000000000E+00  0.00000000000E+00  0.98339801698E-01  0.98339801698E-01  0.00000000000E+00 0.  1.
         22   -1    0    0    0    0 -0.00000000000E+00 -0.00000000000E+00 -0.55918319699E+02  0.55918319699E+02  0.00000000000E+00 0. -1.
          4    1    1    2  501    0  0.14079950008E+01  0.16327435059E+01 -0.38926206882E+02  0.38985867741E+02  0.00000000000E+00 0. -1.
         -4    1    1    2    0  501 -0.14079950008E+01 -0.16327435059E+01 -0.16893773015E+02  0.17030791760E+02  0.00000000000E+00 0.  1.
<mgrwt>
<rscale>  0 0.21559919E+01</rscale>
<asrwt>0</asrwt>
<pdfrwt beam="1">0</pdfrwt>
<pdfrwt beam="2">0</pdfrwt>
<totfact> 0.24435154E+12</totfact>
</mgrwt>
</event>
<event>
 4    2  0.1993797E+006  0.2345159E+01  0.7546771E-02  0.2780998E+00
         22   -1    0    0    0    0  0.00000000000E+00  0.00000000000E+00  0.73360611276E+00  0.73360611276E+00  0.00000000000E+00 0. -1.
         22   -1    0    0    0    0 -0.00000000000E+00 -0.00000000000E+00 -0.76116639878E+01  0.76116639878E+01  0.00000000000E+00 0.  1.
          4    1    1    2  501    0 -0.43486358185E-01 -0.23447561682E+01 -0.29266737583E+01  0.37503588947E+01  0.00000000000E+00 0.  1.
         -4    1    1    2    0  501  0.43486358185E-01  0.23447561682E+01 -0.39513841167E+01  0.45949112058E+01  0.00000000000E+00 0. -1.
<mgrwt>
<rscale>  0 0.23451594E+01</rscale>
<asrwt>0</asrwt>
<pdfrwt beam="1">0</pdfrwt>
<pdfrwt beam="2">0</pdfrwt>
<totfact> 0.31373566E+12</totfact>
</mgrwt>
</event>
<event>
 4    2  0.1993797E+006  0.2659013E+01  0.7546771E-02  0.2642323E+00
         22   -1    0    0    0    0  0.00000000000E+00  0.00000000000E+00  0.42350581676E+00  0.42350581676E+00  0.00000000000E+00 0. -1.
         22   -1    0    0    0    0 -0.00000000000E+00 -0.00000000000E+00 -0.24556889039E+02  0.24556889039E+02  0.00000000000E+00 0.  1.
          4    1    1    2  501    0 -0.25835641736E+01 -0.62892428010E+00 -0.49994278032E+01  0.56625637258E+01  0.00000000000E+00 0. -1.
         -4    1    1    2    0  501  0.25835641736E+01  0.62892428010E+00 -0.19133955419E+02  0.19317831130E+02  0.00000000000E+00 0.  1.
<mgrwt>
<rscale>  0 0.26590129E+01</rscale>
<asrwt>0</asrwt>
<pdfrwt beam="1">0</pdfrwt>
<pdfrwt beam="2">0</pdfrwt>
<totfact> 0.13875415E+12</totfact>
</mgrwt>
</event>
<event>
 4    2  0.1993797E+006  0.2562962E+01  0.7546771E-02  0.2681407E+00
         22   -1    0    0    0    0  0.00000000000E+00  0.00000000000E+00  0.34012967605E+01  0.34012967605E+01  0.00000000000E+00 0.  1.
         22   -1    0    0    0    0 -0.00000000000E+00 -0.00000000000E+00 -0.26837728470E+01  0.26837728470E+01  0.00000000000E+00 0. -1.
          4    1    1    2  501    0 -0.24718573426E+01  0.67726906069E+00  0.19698564675E+01  0.32325077889E+01  0.00000000000E+00 0.  1.
         -4    1    1    2    0  501  0.24718573426E+01 -0.67726906069E+00 -0.12523325540E+01  0.28525618185E+01  0.00000000000E+00 0. -1.
<mgrwt>
<rscale>  0 0.25629616E+01</rscale>
<asrwt>0</asrwt>
<pdfrwt beam="1">0</pdfrwt>
<pdfrwt beam="2">0</pdfrwt>
<totfact> 0.18346631E+12</totfact>
</mgrwt>
</event>
<event>
 4    2  0.1993797E+006  0.2099481E+01  0.7546771E-02  0.2916666E+00
         22   -1    0    0    0    0  0.00000000000E+00  0.00000000000E+00  0.83096517662E-01  0.83096517662E-01  0.00000000000E+00 0.  1.
         22   -1    0    0    0    0 -0.00000000000E+00 -0.00000000000E+00 -0.10568521582E+03  0.10568521582E+03  0.00000000000E+00 0. -1.
          4    1    1    2  501    0  0.63346959758E+00 -0.20016338514E+01 -0.15477854909E+02  0.15619597126E+02  0.00000000000E+00 0.  1.
         -4    1    1    2    0  501 -0.63346959758E+00  0.20016338514E+01 -0.90124264390E+02  0.90148715208E+02  0.00000000000E+00 0. -1.
<mgrwt>
<rscale>  0 0.20994813E+01</rscale>
<asrwt>0</asrwt>
<pdfrwt beam="1">0</pdfrwt>
<pdfrwt beam="2">0</pdfrwt>
<totfact> 0.12302108E+12</totfact>
</mgrwt>
</event>
<event>
 4    2  0.1993797E+006  0.6086498E+01  0.7546771E-02  0.2012016E+00
         22   -1    0    0    0    0  0.00000000000E+00  0.00000000000E+00  0.29775210595E+02  0.29775210595E+02  0.00000000000E+00 0. -1.
         22   -1    0    0    0    0 -0.00000000000E+00 -0.00000000000E+00 -0.12698779173E+01  0.12698779173E+01  0.00000000000E+00 0.  1.
          4    1    1    2  501    0  0.33735093190E+01  0.50660535301E+01  0.16461200381E+02  0.17550401177E+02  0.00000000000E+00 0.  1.
         -4    1    1    2    0  501 -0.33735093190E+01 -0.50660535301E+01  0.12044132297E+02  0.13494687335E+02  0.00000000000E+00 0. -1.
<mgrwt>
<rscale>  0 0.60864985E+01</rscale>
<asrwt>0</asrwt>
<pdfrwt beam="1">0</pdfrwt>
<pdfrwt beam="2">0</pdfrwt>
<totfact> 0.31215707E+11</totfact>
</mgrwt>
</event>
<event>
 4    2  0.1993797E+006  0.4743243E+01  0.7546771E-02  0.2154958E+00
         22   -1    0    0    0    0  0.00000000000E+00  0.00000000000E+00  0.44624801625E+01  0.44624801625E+01  0.00000000000E+00 0.  1.
         22   -1    0    0    0    0 -0.00000000000E+00 -0.00000000000E+00 -0.52025982508E+01  0.52025982508E+01  0.00000000000E+00 0. -1.
          4    1    1    2  501    0 -0.30598770008E+01 -0.36242945192E+01 -0.12199822254E+01  0.48976233677E+01  0.00000000000E+00 0. -1.
         -4    1    1    2    0  501  0.30598770008E+01  0.36242945192E+01  0.47986413704E+00  0.47674550456E+01  0.00000000000E+00 0.  1.
<mgrwt>
<rscale>  0 0.47432434E+01</rscale>
<asrwt>0</asrwt>
<pdfrwt beam="1">0</pdfrwt>
<pdfrwt beam="2">0</pdfrwt>
<totfact> 0.61256109E+11</totfact>
</mgrwt>
</event>
<event>
 4    2  0.1993797E+006  0.4223366E+01  0.7546771E-02  0.2236528E+00
         22   -1    0    0    0    0  0.00000000000E+00  0.00000000000E+00  0.18268287389E+02  0.18268287389E+02  0.00000000000E+00 0. -1.
         22   -1    0    0    0    0 -0.00000000000E+00 -0.00000000000E+00 -0.53708177653E+01  0.53708177653E+01  0.00000000000E+00 0.  1.
          4    1    1    2  501    0 -0.24660936720E+01 -0.34285861665E+01  0.17140081304E+02  0.17652739397E+02  0.00000000000E+00 0. -1.
         -4    1    1    2    0  501  0.24660936720E+01  0.34285861665E+01 -0.42426116810E+01  0.59863657569E+01  0.00000000000E+00 0.  1.
<mgrwt>
<rscale>  0 0.42233661E+01</rscale>
<asrwt>0</asrwt>
<pdfrwt beam="1">0</pdfrwt>
<pdfrwt beam="2">0</pdfrwt>
<totfact> 0.10748943E+11</totfact>
</mgrwt>
</event>
<event>
 4    2  0.1993797E+006  0.4013542E+01  0.7546771E-02  0.2274713E+00
         22   -1    0    0    0    0  0.00000000000E+00  0.00000000000E+00  0.24837413070E+02  0.24837413070E+02  0.00000000000E+00 0.  1.
         22   -1    0    0    0    0 -0.00000000000E+00 -0.00000000000E+00 -0.29627487759E+01  0.29627487759E+01  0.00000000000E+00 0. -1.
          4    1    1    2  501    0 -0.12186797335E+01 -0.38240475717E+01  0.23222170015E+02  0.23566452859E+02  0.00000000000E+00 0.  1.
         -4    1    1    2    0  501  0.12186797335E+01  0.38240475717E+01 -0.13475057207E+01  0.42337089876E+01  0.00000000000E+00 0. -1.
<mgrwt>
<rscale>  0 0.40135421E+01</rscale>
<asrwt>0</asrwt>
<pdfrwt beam="1">0</pdfrwt>
<pdfrwt beam="2">0</pdfrwt>
<totfact> 0.14739999E+11</totfact>
</mgrwt>
</event>
<event>
 4    2  0.1993797E+006  0.3787900E+01  0.7546771E-02  0.2319769E+00
         22   -1    0    0    0    0  0.00000000000E+00  0.00000000000E+00  0.37088683287E+02  0.37088683287E+02  0.00000000000E+00 0. -1.
         22   -1    0    0    0    0 -0.00000000000E+00 -0.00000000000E+00 -0.73989794359E+00  0.73989794359E+00  0.00000000000E+00 0.  1.
          4    1    1    2  501    0  0.22755677136E+01 -0.30281975750E+01  0.31239525487E+02  0.31468335539E+02  0.00000000000E+00 0. -1.
         -4    1    1    2    0  501 -0.22755677136E+01  0.30281975750E+01  0.51092598569E+01  0.63602456916E+01  0.00000000000E+00 0.  1.
<mgrwt>
<rscale>  0 0.37879003E+01</rscale>
<asrwt>0</asrwt>
<pdfrwt beam="1">0</pdfrwt>
<pdfrwt beam="2">0</pdfrwt>
<totfact> 0.43632572E+11</totfact>
</mgrwt>
</event>
<event>
 4    2  0.1993797E+006  0.3140778E+01  0.7546771E-02  0.2479482E+00
         22   -1    0    0    0    0  0.00000000000E+00  0.00000000000E+00  0.71983816075E+00  0.71983816075E+00  0.00000000000E+00 0.  1.
         22   -1    0    0    0    0 -0.00000000000E+00 -0.00000000000E+00 -0.16135482613E+02  0.16135482613E+02  0.00000000000E+00 0. -1.
          4    1    1    2  501    0 -0.22189964072E+01 -0.22227328697E+01 -0.10979521868E+02  0.11419911861E+02  0.00000000000E+00 0. -1.
         -4    1    1    2    0  501  0.22189964072E+01  0.22227328697E+01 -0.44361225843E+01  0.54354089127E+01  0.00000000000E+00 0.  1.
<mgrwt>
<rscale>  0 0.31407780E+01</rscale>
<asrwt>0</asrwt>
<pdfrwt beam="1">0</pdfrwt>
<pdfrwt beam="2">0</pdfrwt>
<totfact> 0.12856714E+12</totfact>
</mgrwt>
</event>
<event>
 4    2  0.1993797E+006  0.3330022E+01  0.7546771E-02  0.2427166E+00
         22   -1    0    0    0    0  0.00000000000E+00  0.00000000000E+00  0.19593588239E+01  0.19593588239E+01  0.00000000000E+00 0. -1.
         22   -1    0    0    0    0 -0.00000000000E+00 -0.00000000000E+00 -0.59609039490E+01  0.59609039490E+01  0.00000000000E+00 0.  1.
          4    1    1    2  501    0 -0.27048746915E+01  0.19423437351E+01 -0.11103261857E+01  0.35102522018E+01  0.00000000000E+00 0.  1.
         -4    1    1    2    0  501  0.27048746915E+01 -0.19423437351E+01 -0.28912189393E+01  0.44100105711E+01  0.00000000000E+00 0. -1.
<mgrwt>
<rscale>  0 0.33300220E+01</rscale>
<asrwt>0</asrwt>
<pdfrwt beam="1">0</pdfrwt>
<pdfrwt beam="2">0</pdfrwt>
<totfact> 0.13630006E+12</totfact>
</mgrwt>
</event>
<event>
 4    2  0.1993797E+006  0.2110867E+01  0.7546771E-02  0.2909710E+00
         22   -1    0    0    0    0  0.00000000000E+00  0.00000000000E+00  0.10887323216E+01  0.10887323216E+01  0.00000000000E+00 0.  1.
         22   -1    0    0    0    0 -0.00000000000E+00 -0.00000000000E+00 -0.57408023313E+01  0.57408023313E+01  0.00000000000E+00 0. -1.
          4    1    1    2  501    0  0.12478706272E+01  0.17025212086E+01 -0.49634115375E+00  0.21684358669E+01  0.00000000000E+00 0.  1.
         -4    1    1    2    0  501 -0.12478706272E+01 -0.17025212086E+01 -0.41557288559E+01  0.46610987859E+01  0.00000000000E+00 0. -1.
<mgrwt>
<rscale>  0 0.21108670E+01</rscale>
<asrwt>0</asrwt>
<pdfrwt beam="1">0</pdfrwt>
<pdfrwt beam="2">0</pdfrwt>
<totfact> 0.28015470E+12</totfact>
</mgrwt>
</event>
<event>
 4    2  0.1993797E+006  0.3415974E+01  0.7546771E-02  0.2405099E+00
         22   -1    0    0    0    0  0.00000000000E+00  0.00000000000E+00  0.12651243054E+01  0.12651243054E+01  0.00000000000E+00 0.  1.
         22   -1    0    0    0    0 -0.00000000000E+00 -0.00000000000E+00 -0.11194082185E+02  0.11194082185E+02  0.00000000000E+00 0. -1.
          4    1    1    2  501    0 -0.32004395643E+01 -0.11941794984E+01 -0.23507348374E+01  0.41466652089E+01  0.00000000000E+00 0.  1.
         -4    1    1    2    0  501  0.32004395643E+01  0.11941794984E+01 -0.75782230418E+01  0.83125412812E+01  0.00000000000E+00 0. -1.
<mgrwt>
<rscale>  0 0.34159740E+01</rscale>
<asrwt>0</asrwt>
<pdfrwt beam="1">0</pdfrwt>
<pdfrwt beam="2">0</pdfrwt>
<totfact> 0.10573217E+12</totfact>
</mgrwt>
</event>
<event>
 4    2  0.1993797E+006  0.2066352E+01  0.7546771E-02  0.2937333E+00
         22   -1    0    0    0    0  0.00000000000E+00  0.00000000000E+00  0.12005732392E+02  0.12005732392E+02  0.00000000000E+00 0. -1.
         22   -1    0    0    0    0 -0.00000000000E+00 -0.00000000000E+00 -0.40430067165E+00  0.40430067165E+00  0.00000000000E+00 0.  1.
          4    1    1    2  501    0  0.28454243197E+00 -0.20466668698E+01  0.79532296022E+01  0.82172787939E+01  0.00000000000E+00 0. -1.
         -4    1    1    2    0  501 -0.28454243197E+00  0.20466668698E+01  0.36482021183E+01  0.41927542699E+01  0.00000000000E+00 0.  1.
<mgrwt>
<rscale>  0 0.20663518E+01</rscale>
<asrwt>0</asrwt>
<pdfrwt beam="1">0</pdfrwt>
<pdfrwt beam="2">0</pdfrwt>
<totfact> 0.35468510E+12</totfact>
</mgrwt>
</event>
<event>
 4    2  0.1993797E+006  0.3735349E+01  0.7546771E-02  0.2330930E+00
         22   -1    0    0    0    0  0.00000000000E+00  0.00000000000E+00  0.10806334068E+01  0.10806334068E+01  0.00000000000E+00 0. -1.
         22   -1    0    0    0    0 -0.00000000000E+00 -0.00000000000E+00 -0.13032718546E+02  0.13032718546E+02  0.00000000000E+00 0.  1.
          4    1    1    2  501    0  0.36742493437E+01  0.67284589225E+00 -0.52960832405E+01  0.64808431183E+01  0.00000000000E+00 0. -1.
         -4    1    1    2    0  501 -0.36742493437E+01 -0.67284589225E+00 -0.66560018992E+01  0.76325088350E+01  0.00000000000E+00 0.  1.
<mgrwt>
<rscale>  0 0.37353487E+01</rscale>
<asrwt>0</asrwt>
<pdfrwt beam="1">0</pdfrwt>
<pdfrwt beam="2">0</pdfrwt>
<totfact> 0.10520759E+12</totfact>
</mgrwt>
</event>
<event>
 4    2  0.1993797E+006  0.2167627E+01  0.7546771E-02  0.2876083E+00
         22   -1    0    0    0    0  0.00000000000E+00  0.00000000000E+00  0.50218700545E+02  0.50218700545E+02  0.00000000000E+00 0.  1.
         22   -1    0    0    0    0 -0.00000000000E+00 -0.00000000000E+00 -0.32126682983E+00  0.32126682983E+00  0.00000000000E+00 0. -1.
          4    1    1    2  501    0 -0.26660336324E+00 -0.21511689365E+01  0.46223116865E+02  0.46273914227E+02  0.00000000000E+00 0.  1.
         -4    1    1    2    0  501  0.26660336324E+00  0.21511689365E+01  0.36743168497E+01  0.42660531476E+01  0.00000000000E+00 0. -1.
<mgrwt>
<rscale>  0 0.21676266E+01</rscale>
<asrwt>0</asrwt>
<pdfrwt beam="1">0</pdfrwt>
<pdfrwt beam="2">0</pdfrwt>
<totfact> 0.75341915E+11</totfact>
</mgrwt>
</event>
<event>
 4    2  0.1993797E+006  0.2229154E+01  0.7546771E-02  0.2841494E+00
         22   -1    0    0    0    0  0.00000000000E+00  0.00000000000E+00  0.56475453974E-01  0.56475453974E-01  0.00000000000E+00 0.  1.
         22   -1    0    0    0    0 -0.00000000000E+00 -0.00000000000E+00 -0.88204540103E+02  0.88204540103E+02  0.00000000000E+00 0. -1.
          4    1    1    2  501    0 -0.11263869636E+00  0.22263063970E+01 -0.41884375547E+02  0.41943653186E+02  0.00000000000E+00 0.  1.
         -4    1    1    2    0  501  0.11263869636E+00 -0.22263063970E+01 -0.46263689102E+02  0.46317362371E+02  0.00000000000E+00 0. -1.
<mgrwt>
<rscale>  0 0.22291540E+01</rscale>
<asrwt>0</asrwt>
<pdfrwt beam="1">0</pdfrwt>
<pdfrwt beam="2">0</pdfrwt>
<totfact> 0.24271053E+12</totfact>
</mgrwt>
</event>
<event>
 4    2  0.1993797E+006  0.2262159E+01  0.7546771E-02  0.2823681E+00
         22   -1    0    0    0    0  0.00000000000E+00  0.00000000000E+00  0.93400930243E+01  0.93400930243E+01  0.00000000000E+00 0. -1.
         22   -1    0    0    0    0 -0.00000000000E+00 -0.00000000000E+00 -0.74656100235E+00  0.74656100235E+00  0.00000000000E+00 0.  1.
          4    1    1    2  501    0 -0.15844174144E+01  0.16146166894E+01  0.68984176402E+01  0.72598575423E+01  0.00000000000E+00 0. -1.
         -4    1    1    2    0  501  0.15844174144E+01 -0.16146166894E+01  0.16951143818E+01  0.28267964843E+01  0.00000000000E+00 0.  1.
<mgrwt>
<rscale>  0 0.22621595E+01</rscale>
<asrwt>0</asrwt>
<pdfrwt beam="1">0</pdfrwt>
<pdfrwt beam="2">0</pdfrwt>
<totfact> 0.24041120E+12</totfact>
</mgrwt>
</event>
<event>
 4    2  0.1993797E+006  0.7266393E+01  0.7546771E-02  0.1921820E+00
         22   -1    0    0    0    0  0.00000000000E+00  0.00000000000E+00  0.42584537672E+01  0.42584537672E+01  0.00000000000E+00 0.  1.
         22   -1    0    0    0    0 -0.00000000000E+00 -0.00000000000E+00 -0.23242128728E+02  0.23242128728E+02  0.00000000000E+00 0. -1.
          4    1    1    2  501    0  0.70928118455E+01 -0.15787595726E+01 -0.99974365788E-01  0.72670803311E+01  0.00000000000E+00 0.  1.
         -4    1    1    2    0  501 -0.70928118455E+01  0.15787595726E+01 -0.18883700595E+02  0.20233502164E+02  0.00000000000E+00 0. -1.
<mgrwt>
<rscale>  0 0.72663926E+01</rscale>
<asrwt>0</asrwt>
<pdfrwt beam="1">0</pdfrwt>
<pdfrwt beam="2">0</pdfrwt>
<totfact> 0.10469986E+11</totfact>
</mgrwt>
</event>
<event>
 4    2  0.1993797E+006  0.2166265E+01  0.7546771E-02  0.2876869E+00
         22   -1    0    0    0    0  0.00000000000E+00  0.00000000000E+00  0.41554324134E+02  0.41554324134E+02  0.00000000000E+00 0.  1.
         22   -1    0    0    0    0 -0.00000000000E+00 -0.00000000000E+00 -0.87379733741E+01  0.87379733741E+01  0.00000000000E+00 0. -1.
          4    1    1    2  501    0 -0.27272755923E+00 -0.21490287154E+01  0.41391301530E+02  0.41447949853E+02  0.00000000000E+00 0.  1.
         -4    1    1    2    0  501  0.27272755923E+00  0.21490287154E+01 -0.85749507694E+01  0.88443476548E+01  0.00000000000E+00 0. -1.
<mgrwt>
<rscale>  0 0.21662652E+01</rscale>
<asrwt>0</asrwt>
<pdfrwt beam="1">0</pdfrwt>
<pdfrwt beam="2">0</pdfrwt>
<totfact> 0.21165025E+10</totfact>
</mgrwt>
</event>
<event>
 4    2  0.1993797E+006  0.2389506E+01  0.7546771E-02  0.2759343E+00
         22   -1    0    0    0    0  0.00000000000E+00  0.00000000000E+00  0.31187314838E+00  0.31187314838E+00  0.00000000000E+00 0. -1.
         22   -1    0    0    0    0 -0.00000000000E+00 -0.00000000000E+00 -0.18370843299E+02  0.18370843299E+02  0.00000000000E+00 0.  1.
          4    1    1    2  501    0  0.23085485935E+01 -0.61671802716E+00 -0.95763398288E+01  0.98699555344E+01  0.00000000000E+00 0. -1.
         -4    1    1    2    0  501 -0.23085485935E+01  0.61671802716E+00 -0.84826303223E+01  0.88127609135E+01  0.00000000000E+00 0.  1.
<mgrwt>
<rscale>  0 0.23895058E+01</rscale>
<asrwt>0</asrwt>
<pdfrwt beam="1">0</pdfrwt>
<pdfrwt beam="2">0</pdfrwt>
<totfact> 0.28136537E+12</totfact>
</mgrwt>
</event>
<event>
 4    2  0.1993797E+006  0.2613441E+01  0.7546771E-02  0.2660536E+00
         22   -1    0    0    0    0  0.00000000000E+00  0.00000000000E+00  0.25054821462E+00  0.25054821462E+00  0.00000000000E+00 0. -1.
         22   -1    0    0    0    0 -0.00000000000E+00 -0.00000000000E+00 -0.27294803215E+02  0.27294803215E+02  0.00000000000E+00 0.  1.
          4    1    1    2  501    0 -0.11258742174E+01 -0.23584910063E+01 -0.14010296900E+02  0.14251964489E+02  0.00000000000E+00 0.  1.
         -4    1    1    2    0  501  0.11258742174E+01  0.23584910063E+01 -0.13033958101E+02  0.13293386941E+02  0.00000000000E+00 0. -1.
<mgrwt>
<rscale>  0 0.26134408E+01</rscale>
<asrwt>0</asrwt>
<pdfrwt beam="1">0</pdfrwt>
<pdfrwt beam="2">0</pdfrwt>
<totfact> 0.21883815E+12</totfact>
</mgrwt>
</event>
<event>
 4    2  0.1993797E+006  0.2010238E+01  0.7546771E-02  0.2973850E+00
         22   -1    0    0    0    0  0.00000000000E+00  0.00000000000E+00  0.51266177477E+00  0.51266177477E+00  0.00000000000E+00 0.  1.
         22   -1    0    0    0    0 -0.00000000000E+00 -0.00000000000E+00 -0.48699691107E+02  0.48699691107E+02  0.00000000000E+00 0. -1.
          4    1    1    2  501    0  0.17326581541E+01  0.10192899322E+01 -0.15665545582E+01  0.25485583040E+01  0.00000000000E+00 0.  1.
         -4    1    1    2    0  501 -0.17326581541E+01 -0.10192899322E+01 -0.46620474774E+02  0.46663794578E+02  0.00000000000E+00 0. -1.
<mgrwt>
<rscale>  0 0.20102379E+01</rscale>
<asrwt>0</asrwt>
<pdfrwt beam="1">0</pdfrwt>
<pdfrwt beam="2">0</pdfrwt>
<totfact> 0.46352395E+11</totfact>
</mgrwt>
</event>
<event>
 4    2  0.1993797E+006  0.2056426E+01  0.7546771E-02  0.2943651E+00
         22   -1    0    0    0    0  0.00000000000E+00  0.00000000000E+00  0.18428041195E+02  0.18428041195E+02  0.00000000000E+00 0. -1.
         22   -1    0    0    0    0 -0.00000000000E+00 -0.00000000000E+00 -0.34913131130E+00  0.34913131130E+00  0.00000000000E+00 0.  1.
          4    1    1    2  501    0  0.19710847061E+01 -0.58626896021E+00  0.14535656228E+02  0.14680401499E+02  0.00000000000E+00 0. -1.
         -4    1    1    2    0  501 -0.19710847061E+01  0.58626896021E+00  0.35432536558E+01  0.40967710068E+01  0.00000000000E+00 0.  1.
<mgrwt>
<rscale>  0 0.20564256E+01</rscale>
<asrwt>0</asrwt>
<pdfrwt beam="1">0</pdfrwt>
<pdfrwt beam="2">0</pdfrwt>
<totfact> 0.24691089E+12</totfact>
</mgrwt>
</event>
<event>
 4    2  0.1993797E+006  0.2631942E+01  0.7546771E-02  0.2653072E+00
         22   -1    0    0    0    0  0.00000000000E+00  0.00000000000E+00  0.13446543803E+01  0.13446543803E+01  0.00000000000E+00 0.  1.
         22   -1    0    0    0    0 -0.00000000000E+00 -0.00000000000E+00 -0.18382792557E+02  0.18382792557E+02  0.00000000000E+00 0. -1.
          4    1    1    2  501    0 -0.20199829740E+01 -0.16872424948E+01 -0.15081848972E+00  0.26362595981E+01  0.00000000000E+00 0.  1.
         -4    1    1    2    0  501  0.20199829740E+01  0.16872424948E+01 -0.16887319687E+02  0.17091187339E+02  0.00000000000E+00 0. -1.
<mgrwt>
<rscale>  0 0.26319420E+01</rscale>
<asrwt>0</asrwt>
<pdfrwt beam="1">0</pdfrwt>
<pdfrwt beam="2">0</pdfrwt>
<totfact> 0.53600362E+11</totfact>
</mgrwt>
</event>
<event>
 4    2  0.1993797E+006  0.4410344E+01  0.7546771E-02  0.2205108E+00
         22   -1    0    0    0    0  0.00000000000E+00  0.00000000000E+00  0.11932236964E+02  0.11932236964E+02  0.00000000000E+00 0.  1.
         22   -1    0    0    0    0 -0.00000000000E+00 -0.00000000000E+00 -0.16976828913E+01  0.16976828913E+01  0.00000000000E+00 0. -1.
          4    1    1    2  501    0 -0.41567143018E+01  0.14740614785E+01  0.64766791571E+01  0.78357197457E+01  0.00000000000E+00 0.  1.
         -4    1    1    2    0  501  0.41567143018E+01 -0.14740614785E+01  0.37578749155E+01  0.57942001095E+01  0.00000000000E+00 0. -1.
<mgrwt>
<rscale>  0 0.44103436E+01</rscale>
<asrwt>0</asrwt>
<pdfrwt beam="1">0</pdfrwt>
<pdfrwt beam="2">0</pdfrwt>
<totfact> 0.69749970E+11</totfact>
</mgrwt>
</event>
<event>
 4    2  0.1993797E+006  0.2634503E+01  0.7546771E-02  0.2652046E+00
         22   -1    0    0    0    0  0.00000000000E+00  0.00000000000E+00  0.37259061717E+01  0.37259061717E+01  0.00000000000E+00 0. -1.
         22   -1    0    0    0    0 -0.00000000000E+00 -0.00000000000E+00 -0.21134149515E+01  0.21134149515E+01  0.00000000000E+00 0.  1.
          4    1    1    2  501    0 -0.48326549847E+00 -0.25897998172E+01  0.18116612712E+01  0.31972996727E+01  0.00000000000E+00 0. -1.
         -4    1    1    2    0  501  0.48326549847E+00  0.25897998172E+01 -0.19917005105E+00  0.26420214504E+01  0.00000000000E+00 0.  1.
<mgrwt>
<rscale>  0 0.26345035E+01</rscale>
<asrwt>0</asrwt>
<pdfrwt beam="1">0</pdfrwt>
<pdfrwt beam="2">0</pdfrwt>
<totfact> 0.21760930E+12</totfact>
</mgrwt>
</event>
<event>
 4    2  0.1993797E+006  0.2219509E+01  0.7546771E-02  0.2846794E+00
         22   -1    0    0    0    0  0.00000000000E+00  0.00000000000E+00  0.24519861664E+01  0.24519861664E+01  0.00000000000E+00 0. -1.
         22   -1    0    0    0    0 -0.00000000000E+00 -0.00000000000E+00 -0.32458030167E+01  0.32458030167E+01  0.00000000000E+00 0.  1.
          4    1    1    2  501    0  0.16706254478E+00  0.22132129554E+01  0.13616329415E+01  0.26038943426E+01  0.00000000000E+00 0. -1.
         -4    1    1    2    0  501 -0.16706254478E+00 -0.22132129554E+01 -0.21554497918E+01  0.30938948406E+01  0.00000000000E+00 0.  1.
<mgrwt>
<rscale>  0 0.22195093E+01</rscale>
<asrwt>0</asrwt>
<pdfrwt beam="1">0</pdfrwt>
<pdfrwt beam="2">0</pdfrwt>
<totfact> 0.21527603E+12</totfact>
</mgrwt>
</event>
<event>
 4    2  0.1993797E+006  0.2772733E+01  0.7546771E-02  0.2599275E+00
         22   -1    0    0    0    0  0.00000000000E+00  0.00000000000E+00  0.11780715663E+02  0.11780715663E+02  0.00000000000E+00 0. -1.
         22   -1    0    0    0    0 -0.00000000000E+00 -0.00000000000E+00 -0.11489309470E+01  0.11489309470E+01  0.00000000000E+00 0.  1.
          4    1    1    2  501    0  0.20823230701E+01  0.18308403044E+01  0.95649948780E+01  0.99587736496E+01  0.00000000000E+00 0. -1.
         -4    1    1    2    0  501 -0.20823230701E+01 -0.18308403044E+01  0.10667898379E+01  0.29708729604E+01  0.00000000000E+00 0.  1.
<mgrwt>
<rscale>  0 0.27727325E+01</rscale>
<asrwt>0</asrwt>
<pdfrwt beam="1">0</pdfrwt>
<pdfrwt beam="2">0</pdfrwt>
<totfact> 0.11095342E+12</totfact>
</mgrwt>
</event>
<event>
 4    2  0.1993797E+006  0.2003257E+01  0.7546771E-02  0.2978533E+00
         22   -1    0    0    0    0  0.00000000000E+00  0.00000000000E+00  0.74752399484E-01  0.74752399484E-01  0.00000000000E+00 0.  1.
         22   -1    0    0    0    0 -0.00000000000E+00 -0.00000000000E+00 -0.55521641995E+02  0.55521641995E+02  0.00000000000E+00 0. -1.
          4    1    1    2  501    0  0.91806873983E+00 -0.17805022058E+01 -0.22666738706E+02  0.22755089142E+02  0.00000000000E+00 0.  1.
         -4    1    1    2    0  501 -0.91806873983E+00  0.17805022058E+01 -0.32780150890E+02  0.32841305252E+02  0.00000000000E+00 0. -1.
<mgrwt>
<rscale>  0 0.20032569E+01</rscale>
<asrwt>0</asrwt>
<pdfrwt beam="1">0</pdfrwt>
<pdfrwt beam="2">0</pdfrwt>
<totfact> 0.33399719E+12</totfact>
</mgrwt>
</event>
<event>
 4    2  0.1993797E+006  0.2487141E+01  0.7546771E-02  0.2714226E+00
         22   -1    0    0    0    0  0.00000000000E+00  0.00000000000E+00  0.41062409023E+01  0.41062409023E+01  0.00000000000E+00 0.  1.
         22   -1    0    0    0    0 -0.00000000000E+00 -0.00000000000E+00 -0.31626489009E+01  0.31626489009E+01  0.00000000000E+00 0. -1.
          4    1    1    2  501    0  0.16134988441E+01  0.18927473752E+01 -0.21582785622E+01  0.32930286210E+01  0.00000000000E+00 0. -1.
         -4    1    1    2    0  501 -0.16134988441E+01 -0.18927473752E+01  0.31018705637E+01  0.39758611822E+01  0.00000000000E+00 0.  1.
<mgrwt>
<rscale>  0 0.24871412E+01</rscale>
<asrwt>0</asrwt>
<pdfrwt beam="1">0</pdfrwt>
<pdfrwt beam="2">0</pdfrwt>
<totfact> 0.12140221E+12</totfact>
</mgrwt>
</event>
<event>
 4    2  0.1993797E+006  0.2076442E+01  0.7546771E-02  0.2930971E+00
         22   -1    0    0    0    0  0.00000000000E+00  0.00000000000E+00  0.12417168109E+02  0.12417168109E+02  0.00000000000E+00 0. -1.
         22   -1    0    0    0    0 -0.00000000000E+00 -0.00000000000E+00 -0.54218422399E+00  0.54218422399E+00  0.00000000000E+00 0.  1.
          4    1    1    2  501    0  0.50701903550E-01 -0.20758228947E+01  0.98229869861E+01  0.10040054019E+02  0.00000000000E+00 0. -1.
         -4    1    1    2    0  501 -0.50701903550E-01  0.20758228947E+01  0.20519968988E+01  0.29192983140E+01  0.00000000000E+00 0.  1.
<mgrwt>
<rscale>  0 0.20764420E+01</rscale>
<asrwt>0</asrwt>
<pdfrwt beam="1">0</pdfrwt>
<pdfrwt beam="2">0</pdfrwt>
<totfact> 0.24446212E+12</totfact>
</mgrwt>
</event>
<event>
 4    2  0.1993797E+006  0.2709885E+01  0.7546771E-02  0.2622657E+00
         22   -1    0    0    0    0  0.00000000000E+00  0.00000000000E+00  0.80860073428E+00  0.80860073428E+00  0.00000000000E+00 0.  1.
         22   -1    0    0    0    0 -0.00000000000E+00 -0.00000000000E+00 -0.20791332874E+02  0.20791332874E+02  0.00000000000E+00 0. -1.
          4    1    1    2  501    0  0.24493508252E+01 -0.11593783252E+01 -0.18863719428E+01  0.33017990054E+01  0.00000000000E+00 0.  1.
         -4    1    1    2    0  501 -0.24493508252E+01  0.11593783252E+01 -0.18096360197E+02  0.18298134603E+02  0.00000000000E+00 0. -1.
<mgrwt>
<rscale>  0 0.27098852E+01</rscale>
<asrwt>0</asrwt>
<pdfrwt beam="1">0</pdfrwt>
<pdfrwt beam="2">0</pdfrwt>
<totfact> 0.82223934E+11</totfact>
</mgrwt>
</event>
<event>
 4    2  0.1993797E+006  0.3408944E+01  0.7546771E-02  0.2406867E+00
         22   -1    0    0    0    0  0.00000000000E+00  0.00000000000E+00  0.11601835257E+01  0.11601835257E+01  0.00000000000E+00 0. -1.
         22   -1    0    0    0    0 -0.00000000000E+00 -0.00000000000E+00 -0.10514256378E+02  0.10514256378E+02  0.00000000000E+00 0.  1.
          4    1    1    2  501    0 -0.34057706291E+01  0.14705013509E+00 -0.59471882497E+01  0.68549212539E+01  0.00000000000E+00 0.  1.
         -4    1    1    2    0  501  0.34057706291E+01 -0.14705013509E+00 -0.34068846024E+01  0.48195186496E+01  0.00000000000E+00 0. -1.
<mgrwt>
<rscale>  0 0.34089437E+01</rscale>
<asrwt>0</asrwt>
<pdfrwt beam="1">0</pdfrwt>
<pdfrwt beam="2">0</pdfrwt>
<totfact> 0.12599418E+12</totfact>
</mgrwt>
</event>
<event>
 4    2  0.1993797E+006  0.2426987E+01  0.7546771E-02  0.2741621E+00
         22   -1    0    0    0    0  0.00000000000E+00  0.00000000000E+00  0.57556694066E+00  0.57556694066E+00  0.00000000000E+00 0. -1.
         22   -1    0    0    0    0 -0.00000000000E+00 -0.00000000000E+00 -0.21384651529E+02  0.21384651529E+02  0.00000000000E+00 0.  1.
          4    1    1    2  501    0  0.93060694486E+00  0.22414813031E+01 -0.24757224922E+01  0.34669106675E+01  0.00000000000E+00 0. -1.
         -4    1    1    2    0  501 -0.93060694486E+00 -0.22414813031E+01 -0.18333362096E+02  0.18493307802E+02  0.00000000000E+00 0.  1.
<mgrwt>
<rscale>  0 0.24269874E+01</rscale>
<asrwt>0</asrwt>
<pdfrwt beam="1">0</pdfrwt>
<pdfrwt beam="2">0</pdfrwt>
<totfact> 0.11674335E+12</totfact>
</mgrwt>
</event>
<event>
 4    2  0.1993797E+006  0.3564452E+01  0.7546771E-02  0.2369181E+00
         22   -1    0    0    0    0  0.00000000000E+00  0.00000000000E+00  0.11090626626E+01  0.11090626626E+01  0.00000000000E+00 0. -1.
         22   -1    0    0    0    0 -0.00000000000E+00 -0.00000000000E+00 -0.11565605163E+02  0.11565605163E+02  0.00000000000E+00 0.  1.
          4    1    1    2  501    0 -0.14546881333E+01 -0.32541052939E+01 -0.46110769711E+01  0.58281514790E+01  0.00000000000E+00 0.  1.
         -4    1    1    2    0  501  0.14546881333E+01  0.32541052939E+01 -0.58454655295E+01  0.68465163467E+01  0.00000000000E+00 0. -1.
<mgrwt>
<rscale>  0 0.35644521E+01</rscale>
<asrwt>0</asrwt>
<pdfrwt beam="1">0</pdfrwt>
<pdfrwt beam="2">0</pdfrwt>
<totfact> 0.11815375E+12</totfact>
</mgrwt>
</event>
<event>
 4    2  0.1993797E+006  0.2272200E+01  0.7546771E-02  0.2818360E+00
         22   -1    0    0    0    0  0.00000000000E+00  0.00000000000E+00  0.27849414248E+01  0.27849414248E+01  0.00000000000E+00 0. -1.
         22   -1    0    0    0    0 -0.00000000000E+00 -0.00000000000E+00 -0.24140733509E+01  0.24140733509E+01  0.00000000000E+00 0.  1.
          4    1    1    2  501    0 -0.10840129190E+01  0.19969504446E+01  0.14376869614E+01  0.26888359722E+01  0.00000000000E+00 0. -1.
         -4    1    1    2    0  501  0.10840129190E+01 -0.19969504446E+01 -0.10668188874E+01  0.25101788034E+01  0.00000000000E+00 0.  1.
<mgrwt>
<rscale>  0 0.22722005E+01</rscale>
<asrwt>0</asrwt>
<pdfrwt beam="1">0</pdfrwt>
<pdfrwt beam="2">0</pdfrwt>
<totfact> 0.26215820E+12</totfact>
</mgrwt>
</event>
<event>
 4    2  0.1993797E+006  0.3236605E+01  0.7546771E-02  0.2452315E+00
         22   -1    0    0    0    0  0.00000000000E+00  0.00000000000E+00  0.35118451209E+01  0.35118451209E+01  0.00000000000E+00 0. -1.
         22   -1    0    0    0    0 -0.00000000000E+00 -0.00000000000E+00 -0.43537227144E+01  0.43537227144E+01  0.00000000000E+00 0.  1.
          4    1    1    2  501    0  0.23931568828E+01  0.21790849110E+01  0.17858184938E+01  0.36965874273E+01  0.00000000000E+00 0. -1.
         -4    1    1    2    0  501 -0.23931568828E+01 -0.21790849110E+01 -0.26276960873E+01  0.41689804080E+01  0.00000000000E+00 0.  1.
<mgrwt>
<rscale>  0 0.32366048E+01</rscale>
<asrwt>0</asrwt>
<pdfrwt beam="1">0</pdfrwt>
<pdfrwt beam="2">0</pdfrwt>
<totfact> 0.10023341E+12</totfact>
</mgrwt>
</event>
<event>
 4    2  0.1993797E+006  0.2119314E+01  0.7546771E-02  0.2904595E+00
         22   -1    0    0    0    0  0.00000000000E+00  0.00000000000E+00  0.79884338000E+00  0.79884338000E+00  0.00000000000E+00 0. -1.
         22   -1    0    0    0    0 -0.00000000000E+00 -0.00000000000E+00 -0.82132050545E+01  0.82132050545E+01  0.00000000000E+00 0.  1.
          4    1    1    2  501    0  0.50503033306E+00 -0.20582608128E+01 -0.11764464729E+01  0.24239470939E+01  0.00000000000E+00 0. -1.
         -4    1    1    2    0  501 -0.50503033306E+00  0.20582608128E+01 -0.62379152016E+01  0.65881013405E+01  0.00000000000E+00 0.  1.
<mgrwt>
<rscale>  0 0.21193143E+01</rscale>
<asrwt>0</asrwt>
<pdfrwt beam="1">0</pdfrwt>
<pdfrwt beam="2">0</pdfrwt>
<totfact> 0.25990521E+12</totfact>
</mgrwt>
</event>
<event>
 4    2  0.1993797E+006  0.2120474E+01  0.7546771E-02  0.2903896E+00
         22   -1    0    0    0    0  0.00000000000E+00  0.00000000000E+00  0.21933988032E+01  0.21933988032E+01  0.00000000000E+00 0. -1.
         22   -1    0    0    0    0 -0.00000000000E+00 -0.00000000000E+00 -0.54113144008E+01  0.54113144008E+01  0.00000000000E+00 0.  1.
          4    1    1    2  501    0 -0.21056623164E+01  0.25018879286E+00  0.13878423121E+01  0.25342680415E+01  0.00000000000E+00 0. -1.
         -4    1    1    2    0  501  0.21056623164E+01 -0.25018879286E+00 -0.46057579097E+01  0.50704451625E+01  0.00000000000E+00 0.  1.
<mgrwt>
<rscale>  0 0.21204736E+01</rscale>
<asrwt>0</asrwt>
<pdfrwt beam="1">0</pdfrwt>
<pdfrwt beam="2">0</pdfrwt>
<totfact> 0.13415921E+12</totfact>
</mgrwt>
</event>
<event>
 4    2  0.1993797E+006  0.2205953E+01  0.7546771E-02  0.2854319E+00
         22   -1    0    0    0    0  0.00000000000E+00  0.00000000000E+00  0.30762949676E+01  0.30762949676E+01  0.00000000000E+00 0.  1.
         22   -1    0    0    0    0 -0.00000000000E+00 -0.00000000000E+00 -0.25236009121E+01  0.25236009121E+01  0.00000000000E+00 0. -1.
          4    1    1    2  501    0  0.17713019370E+01 -0.13148077381E+01  0.19867883779E+01  0.29687637155E+01  0.00000000000E+00 0.  1.
         -4    1    1    2    0  501 -0.17713019370E+01  0.13148077381E+01 -0.14340943224E+01  0.26311321642E+01  0.00000000000E+00 0. -1.
<mgrwt>
<rscale>  0 0.22059533E+01</rscale>
<asrwt>0</asrwt>
<pdfrwt beam="1">0</pdfrwt>
<pdfrwt beam="2">0</pdfrwt>
<totfact> 0.22166643E+12</totfact>
</mgrwt>
</event>
<event>
 4    2  0.1993797E+006  0.3813825E+01  0.7546771E-02  0.2314360E+00
         22   -1    0    0    0    0  0.00000000000E+00  0.00000000000E+00  0.19648611870E+01  0.19648611870E+01  0.00000000000E+00 0. -1.
         22   -1    0    0    0    0 -0.00000000000E+00 -0.00000000000E+00 -0.79879564149E+01  0.79879564149E+01  0.00000000000E+00 0.  1.
          4    1    1    2  501    0  0.82332716764E+00  0.37238950660E+01 -0.16645268664E+01  0.41612392116E+01  0.00000000000E+00 0. -1.
         -4    1    1    2    0  501 -0.82332716764E+00 -0.37238950660E+01 -0.43585683615E+01  0.57915783902E+01  0.00000000000E+00 0.  1.
<mgrwt>
<rscale>  0 0.38138251E+01</rscale>
<asrwt>0</asrwt>
<pdfrwt beam="1">0</pdfrwt>
<pdfrwt beam="2">0</pdfrwt>
<totfact> 0.95739967E+11</totfact>
</mgrwt>
</event>
<event>
 4    2  0.1993797E+006  0.2669488E+01  0.7546771E-02  0.2638217E+00
         22   -1    0    0    0    0  0.00000000000E+00  0.00000000000E+00  0.36388793915E+01  0.36388793915E+01  0.00000000000E+00 0. -1.
         22   -1    0    0    0    0 -0.00000000000E+00 -0.00000000000E+00 -0.28946292406E+01  0.28946292406E+01  0.00000000000E+00 0.  1.
          4    1    1    2  501    0 -0.91199628776E-01  0.26679291954E+01  0.22300364168E+01  0.34783941675E+01  0.00000000000E+00 0. -1.
         -4    1    1    2    0  501  0.91199628776E-01 -0.26679291954E+01 -0.14857862660E+01  0.30551144647E+01  0.00000000000E+00 0.  1.
<mgrwt>
<rscale>  0 0.26694875E+01</rscale>
<asrwt>0</asrwt>
<pdfrwt beam="1">0</pdfrwt>
<pdfrwt beam="2">0</pdfrwt>
<totfact> 0.15519000E+12</totfact>
</mgrwt>
</event>
<event>
 4    2  0.1993797E+006  0.2242945E+01  0.7546771E-02  0.2833991E+00
         22   -1    0    0    0    0  0.00000000000E+00  0.00000000000E+00  0.82137595848E+01  0.82137595848E+01  0.00000000000E+00 0. -1.
         22   -1    0    0    0    0 -0.00000000000E+00 -0.00000000000E+00 -0.27998120564E+01  0.27998120564E+01  0.00000000000E+00 0.  1.
          4    1    1    2  501    0 -0.13444220931E+01 -0.17953636614E+01  0.75743021258E+01  0.78994211265E+01  0.00000000000E+00 0. -1.
         -4    1    1    2    0  501  0.13444220931E+01  0.17953636614E+01 -0.21603545975E+01  0.31141505147E+01  0.00000000000E+00 0.  1.
<mgrwt>
<rscale>  0 0.22429448E+01</rscale>
<asrwt>0</asrwt>
<pdfrwt beam="1">0</pdfrwt>
<pdfrwt beam="2">0</pdfrwt>
<totfact> 0.61358139E+11</totfact>
</mgrwt>
</event>
<event>
 4    2  0.1993797E+006  0.8080423E+01  0.7546771E-02  0.1871668E+00
         22   -1    0    0    0    0  0.00000000000E+00  0.00000000000E+00  0.58192729850E+02  0.58192729850E+02  0.00000000000E+00 0.  1.
         22   -1    0    0    0    0 -0.00000000000E+00 -0.00000000000E+00 -0.36988700081E+01  0.36988700081E+01  0.00000000000E+00 0. -1.
          4    1    1    2  501    0 -0.34300518679E+01  0.73162814202E+01  0.53076192391E+02  0.53687758645E+02  0.00000000000E+00 0.  1.
         -4    1    1    2    0  501  0.34300518679E+01 -0.73162814202E+01  0.14176674504E+01  0.82038412123E+01  0.00000000000E+00 0. -1.
<mgrwt>
<rscale>  0 0.80804226E+01</rscale>
<asrwt>0</asrwt>
<pdfrwt beam="1">0</pdfrwt>
<pdfrwt beam="2">0</pdfrwt>
<totfact> 0.37742531E+10</totfact>
</mgrwt>
</event>
<event>
 4    2  0.1993797E+006  0.2708982E+01  0.7546771E-02  0.2623000E+00
         22   -1    0    0    0    0  0.00000000000E+00  0.00000000000E+00  0.76420424231E+00  0.76420424231E+00  0.00000000000E+00 0. -1.
         22   -1    0    0    0    0 -0.00000000000E+00 -0.00000000000E+00 -0.28225837470E+02  0.28225837470E+02  0.00000000000E+00 0.  1.
          4    1    1    2  501    0  0.26047775493E+01 -0.74412240289E+00 -0.19569419779E+01  0.33418866134E+01  0.00000000000E+00 0. -1.
         -4    1    1    2    0  501 -0.26047775493E+01  0.74412240289E+00 -0.25504691250E+02  0.25648155099E+02  0.00000000000E+00 0.  1.
<mgrwt>
<rscale>  0 0.27089821E+01</rscale>
<asrwt>0</asrwt>
<pdfrwt beam="1">0</pdfrwt>
<pdfrwt beam="2">0</pdfrwt>
<totfact> 0.59660968E+11</totfact>
</mgrwt>
</event>
<event>
 4    2  0.1993797E+006  0.2227802E+01  0.7546771E-02  0.2842234E+00
         22   -1    0    0    0    0  0.00000000000E+00  0.00000000000E+00  0.17861560442E+01  0.17861560442E+01  0.00000000000E+00 0. -1.
         22   -1    0    0    0    0 -0.00000000000E+00 -0.00000000000E+00 -0.29122496294E+01  0.29122496294E+01  0.00000000000E+00 0.  1.
          4    1    1    2  501    0  0.13931872821E+01 -0.17384282305E+01 -0.10662088826E+01  0.24697985540E+01  0.00000000000E+00 0.  1.
         -4    1    1    2    0  501 -0.13931872821E+01  0.17384282305E+01 -0.59884702594E-01  0.22286071196E+01  0.00000000000E+00 0. -1.
<mgrwt>
<rscale>  0 0.22278024E+01</rscale>
<asrwt>0</asrwt>
<pdfrwt beam="1">0</pdfrwt>
<pdfrwt beam="2">0</pdfrwt>
<totfact> 0.35275116E+12</totfact>
</mgrwt>
</event>
<event>
 4    2  0.1993797E+006  0.9152376E+01  0.7546771E-02  0.1816176E+00
         22   -1    0    0    0    0  0.00000000000E+00  0.00000000000E+00  0.49683425831E+01  0.49683425831E+01  0.00000000000E+00 0.  1.
         22   -1    0    0    0    0 -0.00000000000E+00 -0.00000000000E+00 -0.16875495017E+02  0.16875495017E+02  0.00000000000E+00 0. -1.
          4    1    1    2  501    0 -0.54045372179E+01 -0.73862691761E+01 -0.62850902007E+01  0.11102628234E+02  0.00000000000E+00 0.  1.
         -4    1    1    2    0  501  0.54045372179E+01  0.73862691761E+01 -0.56220622331E+01  0.10741209366E+02  0.00000000000E+00 0. -1.
<mgrwt>
<rscale>  0 0.91523765E+01</rscale>
<asrwt>0</asrwt>
<pdfrwt beam="1">0</pdfrwt>
<pdfrwt beam="2">0</pdfrwt>
<totfact> 0.13005891E+11</totfact>
</mgrwt>
</event>
<event>
 4    2  0.1993797E+006  0.2387416E+01  0.7546771E-02  0.2760346E+00
         22   -1    0    0    0    0  0.00000000000E+00  0.00000000000E+00  0.10700844418E+02  0.10700844418E+02  0.00000000000E+00 0. -1.
         22   -1    0    0    0    0 -0.00000000000E+00 -0.00000000000E+00 -0.60142365614E+00  0.60142365614E+00  0.00000000000E+00 0.  1.
          4    1    1    2  501    0 -0.21716877103E+01 -0.99172933794E+00  0.69607567277E+01  0.73587966960E+01  0.00000000000E+00 0. -1.
         -4    1    1    2    0  501  0.21716877103E+01  0.99172933794E+00  0.31386640343E+01  0.39434713782E+01  0.00000000000E+00 0.  1.
<mgrwt>
<rscale>  0 0.23874159E+01</rscale>
<asrwt>0</asrwt>
<pdfrwt beam="1">0</pdfrwt>
<pdfrwt beam="2">0</pdfrwt>
<totfact> 0.26057626E+12</totfact>
</mgrwt>
</event>
<event>
 4    2  0.1993797E+006  0.5924648E+01  0.7546771E-02  0.2026512E+00
         22   -1    0    0    0    0  0.00000000000E+00  0.00000000000E+00  0.39571949337E+02  0.39571949337E+02  0.00000000000E+00 0. -1.
         22   -1    0    0    0    0 -0.00000000000E+00 -0.00000000000E+00 -0.10503865242E+01  0.10503865242E+01  0.00000000000E+00 0.  1.
          4    1    1    2  501    0 -0.56893696277E+01 -0.16530350092E+01  0.27270742494E+02  0.27906896060E+02  0.00000000000E+00 0. -1.
         -4    1    1    2    0  501  0.56893696277E+01  0.16530350092E+01  0.11250820319E+02  0.12715439801E+02  0.00000000000E+00 0.  1.
<mgrwt>
<rscale>  0 0.59246478E+01</rscale>
<asrwt>0</asrwt>
<pdfrwt beam="1">0</pdfrwt>
<pdfrwt beam="2">0</pdfrwt>
<totfact> 0.26914366E+11</totfact>
</mgrwt>
</event>
<event>
 4    2  0.1993797E+006  0.2691090E+01  0.7546771E-02  0.2629843E+00
         22   -1    0    0    0    0  0.00000000000E+00  0.00000000000E+00  0.19021459544E+03  0.19021459544E+03  0.00000000000E+00 0. -1.
         22   -1    0    0    0    0 -0.00000000000E+00 -0.00000000000E+00 -0.39088613241E-01  0.39088613241E-01  0.00000000000E+00 0.  1.
          4    1    1    2  501    0 -0.32325302555E+00  0.26716046647E+01  0.11042430997E+03  0.11045709663E+03  0.00000000000E+00 0.  1.
         -4    1    1    2    0  501  0.32325302555E+00 -0.26716046647E+01  0.79751196861E+02  0.79796587426E+02  0.00000000000E+00 0. -1.
<mgrwt>
<rscale>  0 0.26910897E+01</rscale>
<asrwt>0</asrwt>
<pdfrwt beam="1">0</pdfrwt>
<pdfrwt beam="2">0</pdfrwt>
<totfact> 0.11858721E+12</totfact>
</mgrwt>
</event>
<event>
 4    2  0.1993797E+006  0.4166315E+01  0.7546771E-02  0.2246587E+00
         22   -1    0    0    0    0  0.00000000000E+00  0.00000000000E+00  0.31667914569E+02  0.31667914569E+02  0.00000000000E+00 0. -1.
         22   -1    0    0    0    0 -0.00000000000E+00 -0.00000000000E+00 -0.56920268807E+00  0.56920268807E+00  0.00000000000E+00 0.  1.
          4    1    1    2  501    0  0.29756602147E-01 -0.41662089479E+01  0.18650607091E+02  0.19110293753E+02  0.00000000000E+00 0. -1.
         -4    1    1    2    0  501 -0.29756602147E-01  0.41662089479E+01  0.12448104790E+02  0.13126823504E+02  0.00000000000E+00 0.  1.
<mgrwt>
<rscale>  0 0.41663152E+01</rscale>
<asrwt>0</asrwt>
<pdfrwt beam="1">0</pdfrwt>
<pdfrwt beam="2">0</pdfrwt>
<totfact> 0.71964597E+11</totfact>
</mgrwt>
</event>
<event>
 4    2  0.1993797E+006  0.2062907E+01  0.7546771E-02  0.2939518E+00
         22   -1    0    0    0    0  0.00000000000E+00  0.00000000000E+00  0.15802189447E+02  0.15802189447E+02  0.00000000000E+00 0.  1.
         22   -1    0    0    0    0 -0.00000000000E+00 -0.00000000000E+00 -0.30073129672E+00  0.30073129672E+00  0.00000000000E+00 0. -1.
          4    1    1    2  501    0 -0.39421523026E+00  0.20248905013E+01  0.10353532227E+02  0.10557045835E+02  0.00000000000E+00 0.  1.
         -4    1    1    2    0  501  0.39421523026E+00 -0.20248905013E+01  0.51479259239E+01  0.55458749092E+01  0.00000000000E+00 0. -1.
<mgrwt>
<rscale>  0 0.20629075E+01</rscale>
<asrwt>0</asrwt>
<pdfrwt beam="1">0</pdfrwt>
<pdfrwt beam="2">0</pdfrwt>
<totfact> 0.35311437E+12</totfact>
</mgrwt>
</event>
<event>
 4    2  0.1993797E+006  0.3560493E+01  0.7546771E-02  0.2370105E+00
         22   -1    0    0    0    0  0.00000000000E+00  0.00000000000E+00  0.66202859965E+00  0.66202859965E+00  0.00000000000E+00 0. -1.
         22   -1    0    0    0    0 -0.00000000000E+00 -0.00000000000E+00 -0.46973280232E+02  0.46973280232E+02  0.00000000000E+00 0.  1.
          4    1    1    2  501    0 -0.32552222287E+00 -0.35455806818E+01 -0.48246138625E+01  0.59961659426E+01  0.00000000000E+00 0. -1.
         -4    1    1    2    0  501  0.32552222287E+00  0.35455806818E+01 -0.41486637770E+02  0.41639142889E+02  0.00000000000E+00 0.  1.
<mgrwt>
<rscale>  0 0.35604925E+01</rscale>
<asrwt>0</asrwt>
<pdfrwt beam="1">0</pdfrwt>
<pdfrwt beam="2">0</pdfrwt>
<totfact> 0.36396378E+11</totfact>
</mgrwt>
</event>
<event>
 4    2  0.1993797E+006  0.2469461E+01  0.7546771E-02  0.2722149E+00
         22   -1    0    0    0    0  0.00000000000E+00  0.00000000000E+00  0.36728349699E+00  0.36728349699E+00  0.00000000000E+00 0.  1.
         22   -1    0    0    0    0 -0.00000000000E+00 -0.00000000000E+00 -0.23706333548E+02  0.23706333548E+02  0.00000000000E+00 0. -1.
          4    1    1    2  501    0 -0.24303738070E+01 -0.43763327790E+00 -0.50809580599E+01  0.56492808865E+01  0.00000000000E+00 0.  1.
         -4    1    1    2    0  501  0.24303738070E+01  0.43763327790E+00 -0.18258091991E+02  0.18424336158E+02  0.00000000000E+00 0. -1.
<mgrwt>
<rscale>  0 0.24694614E+01</rscale>
<asrwt>0</asrwt>
<pdfrwt beam="1">0</pdfrwt>
<pdfrwt beam="2">0</pdfrwt>
<totfact> 0.17026607E+12</totfact>
</mgrwt>
</event>
<event>
 4    2  0.1993797E+006  0.2116194E+01  0.7546771E-02  0.2906479E+00
         22   -1    0    0    0    0  0.00000000000E+00  0.00000000000E+00  0.12523937719E+02  0.12523937719E+02  0.00000000000E+00 0.  1.
         22   -1    0    0    0    0 -0.00000000000E+00 -0.00000000000E+00 -0.71543610483E+01  0.71543610483E+01  0.00000000000E+00 0. -1.
          4    1    1    2  501    0 -0.20253091989E+01 -0.61351533567E+00  0.12274904047E+02  0.12455984417E+02  0.00000000000E+00 0.  1.
         -4    1    1    2    0  501  0.20253091989E+01  0.61351533567E+00 -0.69053273760E+01  0.72223143512E+01  0.00000000000E+00 0. -1.
<mgrwt>
<rscale>  0 0.21161943E+01</rscale>
<asrwt>0</asrwt>
<pdfrwt beam="1">0</pdfrwt>
<pdfrwt beam="2">0</pdfrwt>
<totfact> 0.12155947E+11</totfact>
</mgrwt>
</event>
<event>
 4    2  0.1993797E+006  0.3906470E+01  0.7546771E-02  0.2295537E+00
         22   -1    0    0    0    0  0.00000000000E+00  0.00000000000E+00  0.14237593683E+01  0.14237593683E+01  0.00000000000E+00 0.  1.
         22   -1    0    0    0    0 -0.00000000000E+00 -0.00000000000E+00 -0.10932110959E+02  0.10932110959E+02  0.00000000000E+00 0. -1.
          4    1    1    2  501    0 -0.38750632910E+01  0.49436110029E+00 -0.38905147151E+01  0.55133123578E+01  0.00000000000E+00 0.  1.
         -4    1    1    2    0  501  0.38750632910E+01 -0.49436110029E+00 -0.56178368759E+01  0.68425579699E+01  0.00000000000E+00 0. -1.
<mgrwt>
<rscale>  0 0.39064701E+01</rscale>
<asrwt>0</asrwt>
<pdfrwt beam="1">0</pdfrwt>
<pdfrwt beam="2">0</pdfrwt>
<totfact> 0.95017744E+11</totfact>
</mgrwt>
</event>
<event>
 4    2  0.1993797E+006  0.2919024E+01  0.7546771E-02  0.2548405E+00
         22   -1    0    0    0    0  0.00000000000E+00  0.00000000000E+00  0.10390995987E+03  0.10390995987E+03  0.00000000000E+00 0.  1.
         22   -1    0    0    0    0 -0.00000000000E+00 -0.00000000000E+00 -0.86301183947E-01  0.86301183947E-01  0.00000000000E+00 0. -1.
          4    1    1    2  501    0 -0.27953078840E+01 -0.84080754023E+00  0.63519128986E+02  0.63586165560E+02  0.00000000000E+00 0.  1.
         -4    1    1    2    0  501  0.27953078840E+01  0.84080754023E+00  0.40304529702E+02  0.40410095496E+02  0.00000000000E+00 0. -1.
<mgrwt>
<rscale>  0 0.29190244E+01</rscale>
<asrwt>0</asrwt>
<pdfrwt beam="1">0</pdfrwt>
<pdfrwt beam="2">0</pdfrwt>
<totfact> 0.12086305E+12</totfact>
</mgrwt>
</event>
<event>
 4    2  0.1993797E+006  0.3909798E+01  0.7546771E-02  0.2294876E+00
         22   -1    0    0    0    0  0.00000000000E+00  0.00000000000E+00  0.39063194768E+02  0.39063194768E+02  0.00000000000E+00 0.  1.
         22   -1    0    0    0    0 -0.00000000000E+00 -0.00000000000E+00 -0.48089924620E+00  0.48089924620E+00  0.00000000000E+00 0. -1.
          4    1    1    2  501    0  0.25697594076E+01 -0.29466682441E+01  0.27824293987E+02  0.28097648532E+02  0.00000000000E+00 0.  1.
         -4    1    1    2    0  501 -0.25697594076E+01  0.29466682441E+01  0.10758001535E+02  0.11446445482E+02  0.00000000000E+00 0. -1.
<mgrwt>
<rscale>  0 0.39097976E+01</rscale>
<asrwt>0</asrwt>
<pdfrwt beam="1">0</pdfrwt>
<pdfrwt beam="2">0</pdfrwt>
<totfact> 0.66457629E+11</totfact>
</mgrwt>
</event>
<event>
 4    2  0.1993797E+006  0.5726455E+01  0.7546771E-02  0.2045124E+00
         22   -1    0    0    0    0  0.00000000000E+00  0.00000000000E+00  0.15364320031E+01  0.15364320031E+01  0.00000000000E+00 0.  1.
         22   -1    0    0    0    0 -0.00000000000E+00 -0.00000000000E+00 -0.41259413767E+02  0.41259413767E+02  0.00000000000E+00 0. -1.
          4    1    1    2  501    0 -0.15760217169E+01 -0.55053106724E+01 -0.49948076595E+01  0.75987099963E+01  0.00000000000E+00 0.  1.
         -4    1    1    2    0  501  0.15760217169E+01  0.55053106724E+01 -0.34728174105E+02  0.35197135774E+02  0.00000000000E+00 0. -1.
<mgrwt>
<rscale>  0 0.57264553E+01</rscale>
<asrwt>0</asrwt>
<pdfrwt beam="1">0</pdfrwt>
<pdfrwt beam="2">0</pdfrwt>
<totfact> 0.16481228E+11</totfact>
</mgrwt>
</event>
<event>
 4    2  0.1993797E+006  0.2537865E+01  0.7546771E-02  0.2692068E+00
         22   -1    0    0    0    0  0.00000000000E+00  0.00000000000E+00  0.13298038547E+00  0.13298038547E+00  0.00000000000E+00 0.  1.
         22   -1    0    0    0    0 -0.00000000000E+00 -0.00000000000E+00 -0.48601199732E+02  0.48601199732E+02  0.00000000000E+00 0. -1.
          4    1    1    2  501    0 -0.13054786987E+01  0.21763464250E+01 -0.22804456477E+02  0.22945239018E+02  0.00000000000E+00 0.  1.
         -4    1    1    2    0  501  0.13054786987E+01 -0.21763464250E+01 -0.25663762870E+02  0.25788941100E+02  0.00000000000E+00 0. -1.
<mgrwt>
<rscale>  0 0.25378649E+01</rscale>
<asrwt>0</asrwt>
<pdfrwt beam="1">0</pdfrwt>
<pdfrwt beam="2">0</pdfrwt>
<totfact> 0.21054892E+12</totfact>
</mgrwt>
</event>
<event>
 4    2  0.1993797E+006  0.5324521E+01  0.7546771E-02  0.2086150E+00
         22   -1    0    0    0    0  0.00000000000E+00  0.00000000000E+00  0.15214588040E+01  0.15214588040E+01  0.00000000000E+00 0.  1.
         22   -1    0    0    0    0 -0.00000000000E+00 -0.00000000000E+00 -0.29832071575E+02  0.29832071575E+02  0.00000000000E+00 0. -1.
          4    1    1    2  501    0 -0.51961377748E+01 -0.11621881401E+01 -0.45504554845E+01  0.70040826783E+01  0.00000000000E+00 0.  1.
         -4    1    1    2    0  501  0.51961377748E+01  0.11621881401E+01 -0.23760157286E+02  0.24349447700E+02  0.00000000000E+00 0. -1.
<mgrwt>
<rscale>  0 0.53245215E+01</rscale>
<asrwt>0</asrwt>
<pdfrwt beam="1">0</pdfrwt>
<pdfrwt beam="2">0</pdfrwt>
<totfact> 0.25300481E+11</totfact>
</mgrwt>
</event>
<event>
 4    2  0.1993797E+006  0.3451611E+01  0.7546771E-02  0.2396232E+00
         22   -1    0    0    0    0  0.00000000000E+00  0.00000000000E+00  0.60625390361E+01  0.60625390361E+01  0.00000000000E+00 0.  1.
         22   -1    0    0    0    0 -0.00000000000E+00 -0.00000000000E+00 -0.42457678579E+01  0.42457678579E+01  0.00000000000E+00 0. -1.
          4    1    1    2  501    0 -0.32710790425E+01  0.11016621909E+01  0.46859190762E+01  0.58199188374E+01  0.00000000000E+00 0.  1.
         -4    1    1    2    0  501  0.32710790425E+01 -0.11016621909E+01 -0.28691478980E+01  0.44883880565E+01  0.00000000000E+00 0. -1.
<mgrwt>
<rscale>  0 0.34516109E+01</rscale>
<asrwt>0</asrwt>
<pdfrwt beam="1">0</pdfrwt>
<pdfrwt beam="2">0</pdfrwt>
<totfact> 0.54165322E+11</totfact>
</mgrwt>
</event>
<event>
 4    2  0.1993797E+006  0.3113352E+01  0.7546771E-02  0.2487530E+00
         22   -1    0    0    0    0  0.00000000000E+00  0.00000000000E+00  0.10560035440E+02  0.10560035440E+02  0.00000000000E+00 0.  1.
         22   -1    0    0    0    0 -0.00000000000E+00 -0.00000000000E+00 -0.73402252177E+01  0.73402252177E+01  0.00000000000E+00 0. -1.
          4    1    1    2  501    0  0.59369303644E+00 -0.30562210036E+01  0.99817491338E+01  0.10456016164E+02  0.00000000000E+00 0.  1.
         -4    1    1    2    0  501 -0.59369303644E+00  0.30562210036E+01 -0.67619389115E+01  0.74442444941E+01  0.00000000000E+00 0. -1.
<mgrwt>
<rscale>  0 0.31133516E+01</rscale>
<asrwt>0</asrwt>
<pdfrwt beam="1">0</pdfrwt>
<pdfrwt beam="2">0</pdfrwt>
<totfact> 0.14510037E+11</totfact>
</mgrwt>
</event>
<event>
 4    2  0.1993797E+006  0.2250224E+01  0.7546771E-02  0.2830065E+00
         22   -1    0    0    0    0  0.00000000000E+00  0.00000000000E+00  0.50634659441E+00  0.50634659441E+00  0.00000000000E+00 0.  1.
         22   -1    0    0    0    0 -0.00000000000E+00 -0.00000000000E+00 -0.14330022938E+02  0.14330022938E+02  0.00000000000E+00 0. -1.
          4    1    1    2  501    0  0.10375002926E+01 -0.19967729433E+01 -0.10989535937E+02  0.11217549160E+02  0.00000000000E+00 0. -1.
         -4    1    1    2    0  501 -0.10375002926E+01  0.19967729433E+01 -0.28341404068E+01  0.36188203727E+01  0.00000000000E+00 0.  1.
<mgrwt>
<rscale>  0 0.22502242E+01</rscale>
<asrwt>0</asrwt>
<pdfrwt beam="1">0</pdfrwt>
<pdfrwt beam="2">0</pdfrwt>
<totfact> 0.22161197E+12</totfact>
</mgrwt>
</event>
<event>
 4    2  0.1993797E+006  0.2158498E+01  0.7546771E-02  0.2881376E+00
         22   -1    0    0    0    0  0.00000000000E+00  0.00000000000E+00  0.39130502198E+01  0.39130502198E+01  0.00000000000E+00 0. -1.
         22   -1    0    0    0    0 -0.00000000000E+00 -0.00000000000E+00 -0.13422108970E+01  0.13422108970E+01  0.00000000000E+00 0.  1.
          4    1    1    2  501    0 -0.16022236928E+01  0.14463719399E+01  0.21683635707E+01  0.30595609367E+01  0.00000000000E+00 0. -1.
         -4    1    1    2    0  501  0.16022236928E+01 -0.14463719399E+01  0.40247575201E+00  0.21957001802E+01  0.00000000000E+00 0.  1.
<mgrwt>
<rscale>  0 0.21584978E+01</rscale>
<asrwt>0</asrwt>
<pdfrwt beam="1">0</pdfrwt>
<pdfrwt beam="2">0</pdfrwt>
<totfact> 0.34676981E+12</totfact>
</mgrwt>
</event>
<event>
 4    2  0.1993797E+006  0.2544664E+01  0.7546771E-02  0.2689161E+00
         22   -1    0    0    0    0  0.00000000000E+00  0.00000000000E+00  0.86138063665E+02  0.86138063665E+02  0.00000000000E+00 0. -1.
         22   -1    0    0    0    0 -0.00000000000E+00 -0.00000000000E+00 -0.76065651837E-01  0.76065651837E-01  0.00000000000E+00 0.  1.
          4    1    1    2  501    0  0.25434573850E+01  0.78368974595E-01  0.47698928273E+02  0.47766757013E+02  0.00000000000E+00 0. -1.
         -4    1    1    2    0  501 -0.25434573850E+01 -0.78368974595E-01  0.38363069740E+02  0.38447372303E+02  0.00000000000E+00 0.  1.
<mgrwt>
<rscale>  0 0.25446645E+01</rscale>
<asrwt>0</asrwt>
<pdfrwt beam="1">0</pdfrwt>
<pdfrwt beam="2">0</pdfrwt>
<totfact> 0.18064448E+12</totfact>
</mgrwt>
</event>
<event>
 4    2  0.1993797E+006  0.2342738E+01  0.7546771E-02  0.2782202E+00
         22   -1    0    0    0    0  0.00000000000E+00  0.00000000000E+00  0.77104131872E+00  0.77104131872E+00  0.00000000000E+00 0. -1.
         22   -1    0    0    0    0 -0.00000000000E+00 -0.00000000000E+00 -0.71803959069E+01  0.71803959069E+01  0.00000000000E+00 0.  1.
          4    1    1    2  501    0  0.88434396825E+00  0.21694137793E+01 -0.35747176818E+01  0.42739942565E+01  0.00000000000E+00 0.  1.
         -4    1    1    2    0  501 -0.88434396825E+00 -0.21694137793E+01 -0.28346369064E+01  0.36774429691E+01  0.00000000000E+00 0. -1.
<mgrwt>
<rscale>  0 0.23427378E+01</rscale>
<asrwt>0</asrwt>
<pdfrwt beam="1">0</pdfrwt>
<pdfrwt beam="2">0</pdfrwt>
<totfact> 0.31794618E+12</totfact>
</mgrwt>
</event>
<event>
 4    2  0.1993797E+006  0.2102020E+01  0.7546771E-02  0.2915109E+00
         22   -1    0    0    0    0  0.00000000000E+00  0.00000000000E+00  0.18799966682E+01  0.18799966682E+01  0.00000000000E+00 0. -1.
         22   -1    0    0    0    0 -0.00000000000E+00 -0.00000000000E+00 -0.20981134684E+02  0.20981134684E+02  0.00000000000E+00 0.  1.
          4    1    1    2  501    0 -0.20991484693E+01  0.10983385584E+00  0.12207730488E+01  0.24307971139E+01  0.00000000000E+00 0. -1.
         -4    1    1    2    0  501  0.20991484693E+01 -0.10983385584E+00 -0.20321911065E+02  0.20430334239E+02  0.00000000000E+00 0.  1.
<mgrwt>
<rscale>  0 0.21020199E+01</rscale>
<asrwt>0</asrwt>
<pdfrwt beam="1">0</pdfrwt>
<pdfrwt beam="2">0</pdfrwt>
<totfact> 0.30897639E+11</totfact>
</mgrwt>
</event>
<event>
 4    2  0.1993797E+006  0.3435080E+01  0.7546771E-02  0.2400325E+00
         22   -1    0    0    0    0  0.00000000000E+00  0.00000000000E+00  0.36378022753E+01  0.36378022753E+01  0.00000000000E+00 0.  1.
         22   -1    0    0    0    0 -0.00000000000E+00 -0.00000000000E+00 -0.77301502469E+01  0.77301502469E+01  0.00000000000E+00 0. -1.
          4    1    1    2  501    0 -0.16000202727E+01  0.30396887037E+01  0.22840657119E+01  0.41251337511E+01  0.00000000000E+00 0.  1.
         -4    1    1    2    0  501  0.16000202727E+01 -0.30396887037E+01 -0.63764136835E+01  0.72428187711E+01  0.00000000000E+00 0. -1.
<mgrwt>
<rscale>  0 0.34350797E+01</rscale>
<asrwt>0</asrwt>
<pdfrwt beam="1">0</pdfrwt>
<pdfrwt beam="2">0</pdfrwt>
<totfact> 0.48586759E+11</totfact>
</mgrwt>
</event>
<event>
 4    2  0.1993797E+006  0.8673187E+01  0.7546771E-02  0.1839709E+00
         22   -1    0    0    0    0  0.00000000000E+00  0.00000000000E+00  0.12225988047E+02  0.12225988047E+02  0.00000000000E+00 0. -1.
         22   -1    0    0    0    0 -0.00000000000E+00 -0.00000000000E+00 -0.19489157400E+02  0.19489157400E+02  0.00000000000E+00 0.  1.
          4    1    1    2  501    0 -0.54813210647E+01  0.67215542850E+01  0.94861439463E+01  0.12853446993E+02  0.00000000000E+00 0. -1.
         -4    1    1    2    0  501  0.54813210647E+01 -0.67215542850E+01 -0.16749313299E+02  0.18861698455E+02  0.00000000000E+00 0.  1.
<mgrwt>
<rscale>  0 0.86731870E+01</rscale>
<asrwt>0</asrwt>
<pdfrwt beam="1">0</pdfrwt>
<pdfrwt beam="2">0</pdfrwt>
<totfact> 0.36887469E+10</totfact>
</mgrwt>
</event>
<event>
 4    2  0.1993797E+006  0.2120201E+01  0.7546771E-02  0.2904060E+00
         22   -1    0    0    0    0  0.00000000000E+00  0.00000000000E+00  0.55169083370E+02  0.55169083370E+02  0.00000000000E+00 0.  1.
         22   -1    0    0    0    0 -0.00000000000E+00 -0.00000000000E+00 -0.12763287719E+00  0.12763287719E+00  0.00000000000E+00 0. -1.
          4    1    1    2  501    0 -0.20290948793E+01  0.61483854732E+00  0.44146466331E+02  0.44197349943E+02  0.00000000000E+00 0.  1.
         -4    1    1    2    0  501  0.20290948793E+01 -0.61483854732E+00  0.10894984161E+02  0.11099366303E+02  0.00000000000E+00 0. -1.
<mgrwt>
<rscale>  0 0.21202010E+01</rscale>
<asrwt>0</asrwt>
<pdfrwt beam="1">0</pdfrwt>
<pdfrwt beam="2">0</pdfrwt>
<totfact> 0.18633932E+12</totfact>
</mgrwt>
</event>
<event>
 4    2  0.1993797E+006  0.2135981E+01  0.7546771E-02  0.2894618E+00
         22   -1    0    0    0    0  0.00000000000E+00  0.00000000000E+00  0.38759236780E+00  0.38759236780E+00  0.00000000000E+00 0.  1.
         22   -1    0    0    0    0 -0.00000000000E+00 -0.00000000000E+00 -0.12205553875E+02  0.12205553875E+02  0.00000000000E+00 0. -1.
          4    1    1    2  501    0 -0.14207434772E+01 -0.15949610720E+01 -0.47211188130E+01  0.51818313071E+01  0.00000000000E+00 0.  1.
         -4    1    1    2    0  501  0.14207434772E+01  0.15949610720E+01 -0.70968426941E+01  0.74113149355E+01  0.00000000000E+00 0. -1.
<mgrwt>
<rscale>  0 0.21359805E+01</rscale>
<asrwt>0</asrwt>
<pdfrwt beam="1">0</pdfrwt>
<pdfrwt beam="2">0</pdfrwt>
<totfact> 0.36453254E+12</totfact>
</mgrwt>
</event>
<event>
 4    2  0.1993797E+006  0.5572466E+01  0.7546771E-02  0.2060294E+00
         22   -1    0    0    0    0  0.00000000000E+00  0.00000000000E+00  0.35423545520E+02  0.35423545520E+02  0.00000000000E+00 0.  1.
         22   -1    0    0    0    0 -0.00000000000E+00 -0.00000000000E+00 -0.10321603130E+01  0.10321603130E+01  0.00000000000E+00 0. -1.
          4    1    1    2  501    0 -0.24264594882E+01 -0.50164397322E+01  0.10119369286E+02  0.11552229568E+02  0.00000000000E+00 0. -1.
         -4    1    1    2    0  501  0.24264594882E+01  0.50164397322E+01  0.24272015921E+02  0.24903476265E+02  0.00000000000E+00 0.  1.
<mgrwt>
<rscale>  0 0.55724656E+01</rscale>
<asrwt>0</asrwt>
<pdfrwt beam="1">0</pdfrwt>
<pdfrwt beam="2">0</pdfrwt>
<totfact> 0.31682303E+11</totfact>
</mgrwt>
</event>
<event>
 4    2  0.1993797E+006  0.2494176E+01  0.7546771E-02  0.2711103E+00
         22   -1    0    0    0    0  0.00000000000E+00  0.00000000000E+00  0.29385182616E+01  0.29385182616E+01  0.00000000000E+00 0.  1.
         22   -1    0    0    0    0 -0.00000000000E+00 -0.00000000000E+00 -0.27340715369E+01  0.27340715369E+01  0.00000000000E+00 0. -1.
          4    1    1    2  501    0  0.95517123489E+00 -0.23040317668E+01  0.14496516619E+01  0.28848577801E+01  0.00000000000E+00 0.  1.
         -4    1    1    2    0  501 -0.95517123489E+00  0.23040317668E+01 -0.12452049373E+01  0.27877320184E+01  0.00000000000E+00 0. -1.
<mgrwt>
<rscale>  0 0.24941761E+01</rscale>
<asrwt>0</asrwt>
<pdfrwt beam="1">0</pdfrwt>
<pdfrwt beam="2">0</pdfrwt>
<totfact> 0.21303512E+12</totfact>
</mgrwt>
</event>
<event>
 4    2  0.1993797E+006  0.2066624E+01  0.7546771E-02  0.2937160E+00
         22   -1    0    0    0    0  0.00000000000E+00  0.00000000000E+00  0.20380347021E+02  0.20380347021E+02  0.00000000000E+00 0.  1.
         22   -1    0    0    0    0 -0.00000000000E+00 -0.00000000000E+00 -0.23895175442E+00  0.23895175442E+00  0.00000000000E+00 0. -1.
          4    1    1    2  501    0 -0.18311937875E+01  0.95794828932E+00  0.13686382994E+02  0.13841532251E+02  0.00000000000E+00 0.  1.
         -4    1    1    2    0  501  0.18311937875E+01 -0.95794828932E+00  0.64550122723E+01  0.67777665236E+01  0.00000000000E+00 0. -1.
<mgrwt>
<rscale>  0 0.20666242E+01</rscale>
<asrwt>0</asrwt>
<pdfrwt beam="1">0</pdfrwt>
<pdfrwt beam="2">0</pdfrwt>
<totfact> 0.33315540E+12</totfact>
</mgrwt>
</event>
<event>
 4    2  0.1993797E+006  0.3459386E+01  0.7546771E-02  0.2394319E+00
         22   -1    0    0    0    0  0.00000000000E+00  0.00000000000E+00  0.13173414660E+01  0.13173414660E+01  0.00000000000E+00 0.  1.
         22   -1    0    0    0    0 -0.00000000000E+00 -0.00000000000E+00 -0.94004862485E+01  0.94004862485E+01  0.00000000000E+00 0. -1.
          4    1    1    2  501    0  0.31389134142E+01 -0.14541572348E+01 -0.30590205847E+01  0.46178953673E+01  0.00000000000E+00 0.  1.
         -4    1    1    2    0  501 -0.31389134142E+01  0.14541572348E+01 -0.50241241978E+01  0.60999323472E+01  0.00000000000E+00 0. -1.
<mgrwt>
<rscale>  0 0.34593859E+01</rscale>
<asrwt>0</asrwt>
<pdfrwt beam="1">0</pdfrwt>
<pdfrwt beam="2">0</pdfrwt>
<totfact> 0.12473121E+12</totfact>
</mgrwt>
</event>
<event>
 4    2  0.1993797E+006  0.2069765E+01  0.7546771E-02  0.2935173E+00
         22   -1    0    0    0    0  0.00000000000E+00  0.00000000000E+00  0.16927244364E+02  0.16927244364E+02  0.00000000000E+00 0. -1.
         22   -1    0    0    0    0 -0.00000000000E+00 -0.00000000000E+00 -0.19434146300E+01  0.19434146300E+01  0.00000000000E+00 0.  1.
          4    1    1    2  501    0 -0.19627778024E+01  0.65683518928E+00  0.16291472032E+02  0.16422423394E+02  0.00000000000E+00 0. -1.
         -4    1    1    2    0  501  0.19627778024E+01 -0.65683518928E+00 -0.13076422986E+01  0.24482355991E+01  0.00000000000E+00 0.  1.
<mgrwt>
<rscale>  0 0.20697655E+01</rscale>
<asrwt>0</asrwt>
<pdfrwt beam="1">0</pdfrwt>
<pdfrwt beam="2">0</pdfrwt>
<totfact> 0.38833320E+11</totfact>
</mgrwt>
</event>
<event>
 4    2  0.1993797E+006  0.2196674E+01  0.7546771E-02  0.2859522E+00
         22   -1    0    0    0    0  0.00000000000E+00  0.00000000000E+00  0.20065424039E+01  0.20065424039E+01  0.00000000000E+00 0.  1.
         22   -1    0    0    0    0 -0.00000000000E+00 -0.00000000000E+00 -0.32565606640E+01  0.32565606640E+01  0.00000000000E+00 0. -1.
          4    1    1    2  501    0  0.20444959934E+01  0.80337638634E+00  0.72080614301E+00  0.23119124077E+01  0.00000000000E+00 0.  1.
         -4    1    1    2    0  501 -0.20444959934E+01 -0.80337638634E+00 -0.19708244031E+01  0.29511906602E+01  0.00000000000E+00 0. -1.
<mgrwt>
<rscale>  0 0.21966742E+01</rscale>
<asrwt>0</asrwt>
<pdfrwt beam="1">0</pdfrwt>
<pdfrwt beam="2">0</pdfrwt>
<totfact> 0.27059475E+12</totfact>
</mgrwt>
</event>
<event>
 4    2  0.1993797E+006  0.2425028E+01  0.7546771E-02  0.2742535E+00
         22   -1    0    0    0    0  0.00000000000E+00  0.00000000000E+00  0.14339293811E+02  0.14339293811E+02  0.00000000000E+00 0. -1.
         22   -1    0    0    0    0 -0.00000000000E+00 -0.00000000000E+00 -0.43282537642E+00  0.43282537642E+00  0.00000000000E+00 0.  1.
          4    1    1    2  501    0 -0.11244880710E+01  0.21485544396E+01  0.86451102410E+01  0.89787911592E+01  0.00000000000E+00 0. -1.
         -4    1    1    2    0  501  0.11244880710E+01 -0.21485544396E+01  0.52613581939E+01  0.57933280286E+01  0.00000000000E+00 0.  1.
<mgrwt>
<rscale>  0 0.24250278E+01</rscale>
<asrwt>0</asrwt>
<pdfrwt beam="1">0</pdfrwt>
<pdfrwt beam="2">0</pdfrwt>
<totfact> 0.26431756E+12</totfact>
</mgrwt>
</event>
<event>
 4    2  0.1993797E+006  0.2012588E+01  0.7546771E-02  0.2972281E+00
         22   -1    0    0    0    0  0.00000000000E+00  0.00000000000E+00  0.38112627008E+01  0.38112627008E+01  0.00000000000E+00 0. -1.
         22   -1    0    0    0    0 -0.00000000000E+00 -0.00000000000E+00 -0.16851789621E+01  0.16851789621E+01  0.00000000000E+00 0.  1.
          4    1    1    2  501    0 -0.18292683279E+01 -0.83921924775E+00  0.27332287811E+01  0.33942673924E+01  0.00000000000E+00 0. -1.
         -4    1    1    2    0  501  0.18292683279E+01  0.83921924775E+00 -0.60714504236E+00  0.21021742705E+01  0.00000000000E+00 0.  1.
<mgrwt>
<rscale>  0 0.20125883E+01</rscale>
<asrwt>0</asrwt>
<pdfrwt beam="1">0</pdfrwt>
<pdfrwt beam="2">0</pdfrwt>
<totfact> 0.27527117E+12</totfact>
</mgrwt>
</event>
<event>
 4    2  0.1993797E+006  0.2198846E+01  0.7546771E-02  0.2858300E+00
         22   -1    0    0    0    0  0.00000000000E+00  0.00000000000E+00  0.70444428675E+00  0.70444428675E+00  0.00000000000E+00 0.  1.
         22   -1    0    0    0    0 -0.00000000000E+00 -0.00000000000E+00 -0.77597800330E+01  0.77597800330E+01  0.00000000000E+00 0. -1.
          4    1    1    2  501    0 -0.60609882527E-01  0.21980104344E+01 -0.20893177351E+01  0.30331785352E+01  0.00000000000E+00 0.  1.
         -4    1    1    2    0  501  0.60609882527E-01 -0.21980104344E+01 -0.49660180111E+01  0.54310457846E+01  0.00000000000E+00 0. -1.
<mgrwt>
<rscale>  0 0.21988459E+01</rscale>
<asrwt>0</asrwt>
<pdfrwt beam="1">0</pdfrwt>
<pdfrwt beam="2">0</pdfrwt>
<totfact> 0.32100853E+12</totfact>
</mgrwt>
</event>
<event>
 4    2  0.1993797E+006  0.4140293E+01  0.7546771E-02  0.2251253E+00
         22   -1    0    0    0    0  0.00000000000E+00  0.00000000000E+00  0.99509774523E+01  0.99509774523E+01  0.00000000000E+00 0. -1.
         22   -1    0    0    0    0 -0.00000000000E+00 -0.00000000000E+00 -0.72235361014E+01  0.72235361014E+01  0.00000000000E+00 0.  1.
          4    1    1    2  501    0  0.36030958543E+01  0.20395399645E+01  0.88574148353E+01  0.97773115204E+01  0.00000000000E+00 0. -1.
         -4    1    1    2    0  501 -0.36030958543E+01 -0.20395399645E+01 -0.61299734844E+01  0.73972020334E+01  0.00000000000E+00 0.  1.
<mgrwt>
<rscale>  0 0.41402926E+01</rscale>
<asrwt>0</asrwt>
<pdfrwt beam="1">0</pdfrwt>
<pdfrwt beam="2">0</pdfrwt>
<totfact> 0.15895564E+11</totfact>
</mgrwt>
</event>
<event>
 4    2  0.1993797E+006  0.2692784E+01  0.7546771E-02  0.2629192E+00
         22   -1    0    0    0    0  0.00000000000E+00  0.00000000000E+00  0.65536817238E+01  0.65536817238E+01  0.00000000000E+00 0. -1.
         22   -1    0    0    0    0 -0.00000000000E+00 -0.00000000000E+00 -0.11324097631E+01  0.11324097631E+01  0.00000000000E+00 0.  1.
          4    1    1    2  501    0  0.25031266680E+01 -0.99269548057E+00  0.32929030168E+01  0.42537392623E+01  0.00000000000E+00 0. -1.
         -4    1    1    2    0  501 -0.25031266680E+01  0.99269548057E+00  0.21283689439E+01  0.34323522247E+01  0.00000000000E+00 0.  1.
<mgrwt>
<rscale>  0 0.26927843E+01</rscale>
<asrwt>0</asrwt>
<pdfrwt beam="1">0</pdfrwt>
<pdfrwt beam="2">0</pdfrwt>
<totfact> 0.22875760E+12</totfact>
</mgrwt>
</event>
<event>
 4    2  0.1993797E+006  0.2341025E+01  0.7546771E-02  0.2783056E+00
         22   -1    0    0    0    0  0.00000000000E+00  0.00000000000E+00  0.42743919479E+00  0.42743919479E+00  0.00000000000E+00 0. -1.
         22   -1    0    0    0    0 -0.00000000000E+00 -0.00000000000E+00 -0.14725545931E+02  0.14725545931E+02  0.00000000000E+00 0.  1.
          4    1    1    2  501    0 -0.18017374753E+01  0.14947042008E+01 -0.44246293944E+01  0.50057710551E+01  0.00000000000E+00 0. -1.
         -4    1    1    2    0  501  0.18017374753E+01 -0.14947042008E+01 -0.98734773414E+01  0.10147214070E+02  0.00000000000E+00 0.  1.
<mgrwt>
<rscale>  0 0.23410251E+01</rscale>
<asrwt>0</asrwt>
<pdfrwt beam="1">0</pdfrwt>
<pdfrwt beam="2">0</pdfrwt>
<totfact> 0.25945558E+12</totfact>
</mgrwt>
</event>
<event>
 4    2  0.1993797E+006  0.2299630E+01  0.7546771E-02  0.2804050E+00
         22   -1    0    0    0    0  0.00000000000E+00  0.00000000000E+00  0.52216601209E+02  0.52216601209E+02  0.00000000000E+00 0. -1.
         22   -1    0    0    0    0 -0.00000000000E+00 -0.00000000000E+00 -0.17606769454E+00  0.17606769454E+00  0.00000000000E+00 0.  1.
          4    1    1    2  501    0  0.21923805904E+01  0.69409189783E+00  0.43093939208E+02  0.43155253361E+02  0.00000000000E+00 0. -1.
         -4    1    1    2    0  501 -0.21923805904E+01 -0.69409189783E+00  0.89465943064E+01  0.92374155422E+01  0.00000000000E+00 0.  1.
<mgrwt>
<rscale>  0 0.22996296E+01</rscale>
<asrwt>0</asrwt>
<pdfrwt beam="1">0</pdfrwt>
<pdfrwt beam="2">0</pdfrwt>
<totfact> 0.14017190E+12</totfact>
</mgrwt>
</event>
<event>
 4    2  0.1993797E+006  0.2570503E+01  0.7546771E-02  0.2678241E+00
         22   -1    0    0    0    0  0.00000000000E+00  0.00000000000E+00  0.31845122681E+01  0.31845122681E+01  0.00000000000E+00 0. -1.
         22   -1    0    0    0    0 -0.00000000000E+00 -0.00000000000E+00 -0.20926200721E+01  0.20926200721E+01  0.00000000000E+00 0.  1.
          4    1    1    2  501    0 -0.20652747113E+01 -0.15304007513E+01  0.78887556566E+00  0.26888307405E+01  0.00000000000E+00 0.  1.
         -4    1    1    2    0  501  0.20652747113E+01  0.15304007513E+01  0.30301663036E+00  0.25883015997E+01  0.00000000000E+00 0. -1.
<mgrwt>
<rscale>  0 0.25705031E+01</rscale>
<asrwt>0</asrwt>
<pdfrwt beam="1">0</pdfrwt>
<pdfrwt beam="2">0</pdfrwt>
<totfact> 0.26459596E+12</totfact>
</mgrwt>
</event>
<event>
 4    2  0.1993797E+006  0.3580476E+01  0.7546771E-02  0.2365461E+00
         22   -1    0    0    0    0  0.00000000000E+00  0.00000000000E+00  0.82947779619E+01  0.82947779619E+01  0.00000000000E+00 0. -1.
         22   -1    0    0    0    0 -0.00000000000E+00 -0.00000000000E+00 -0.11239434734E+02  0.11239434734E+02  0.00000000000E+00 0.  1.
          4    1    1    2  501    0 -0.15110076047E+01  0.32460229176E+01  0.75984197407E+01  0.83997494795E+01  0.00000000000E+00 0. -1.
         -4    1    1    2    0  501  0.15110076047E+01 -0.32460229176E+01 -0.10543076513E+02  0.11134463216E+02  0.00000000000E+00 0.  1.
<mgrwt>
<rscale>  0 0.35804761E+01</rscale>
<asrwt>0</asrwt>
<pdfrwt beam="1">0</pdfrwt>
<pdfrwt beam="2">0</pdfrwt>
<totfact> 0.11615523E+11</totfact>
</mgrwt>
</event>
<event>
 4    2  0.1993797E+006  0.2303508E+01  0.7546771E-02  0.2802053E+00
         22   -1    0    0    0    0  0.00000000000E+00  0.00000000000E+00  0.11801846833E+02  0.11801846833E+02  0.00000000000E+00 0. -1.
         22   -1    0    0    0    0 -0.00000000000E+00 -0.00000000000E+00 -0.20621733203E+01  0.20621733203E+01  0.00000000000E+00 0.  1.
          4    1    1    2  501    0 -0.74463086900E+00 -0.21798332107E+01  0.10999772319E+02  0.11238377953E+02  0.00000000000E+00 0. -1.
         -4    1    1    2    0  501  0.74463086900E+00  0.21798332107E+01 -0.12600988066E+01  0.26256421995E+01  0.00000000000E+00 0.  1.
<mgrwt>
<rscale>  0 0.23035078E+01</rscale>
<asrwt>0</asrwt>
<pdfrwt beam="1">0</pdfrwt>
<pdfrwt beam="2">0</pdfrwt>
<totfact> 0.56455299E+11</totfact>
</mgrwt>
</event>
<event>
 4    2  0.1993797E+006  0.2719333E+01  0.7546771E-02  0.2619079E+00
         22   -1    0    0    0    0  0.00000000000E+00  0.00000000000E+00  0.26426508672E+01  0.26426508672E+01  0.00000000000E+00 0. -1.
         22   -1    0    0    0    0 -0.00000000000E+00 -0.00000000000E+00 -0.54743197617E+01  0.54743197617E+01  0.00000000000E+00 0.  1.
          4    1    1    2  501    0  0.26392403484E+01  0.65512026053E+00  0.14217474186E+01  0.30685726152E+01  0.00000000000E+00 0. -1.
         -4    1    1    2    0  501 -0.26392403484E+01 -0.65512026053E+00 -0.42534163131E+01  0.50483980137E+01  0.00000000000E+00 0.  1.
<mgrwt>
<rscale>  0 0.27193330E+01</rscale>
<asrwt>0</asrwt>
<pdfrwt beam="1">0</pdfrwt>
<pdfrwt beam="2">0</pdfrwt>
<totfact> 0.10657052E+12</totfact>
</mgrwt>
</event>
<event>
 4    2  0.1993797E+006  0.2603635E+01  0.7546771E-02  0.2664532E+00
         22   -1    0    0    0    0  0.00000000000E+00  0.00000000000E+00  0.24568858691E+00  0.24568858691E+00  0.00000000000E+00 0. -1.
         22   -1    0    0    0    0 -0.00000000000E+00 -0.00000000000E+00 -0.28060959569E+02  0.28060959569E+02  0.00000000000E+00 0.  1.
          4    1    1    2  501    0  0.10507741061E+01  0.23821814981E+01 -0.12076967643E+02  0.12354434927E+02  0.00000000000E+00 0.  1.
         -4    1    1    2    0  501 -0.10507741061E+01 -0.23821814981E+01 -0.15738303338E+02  0.15952213228E+02  0.00000000000E+00 0. -1.
<mgrwt>
<rscale>  0 0.26036349E+01</rscale>
<asrwt>0</asrwt>
<pdfrwt beam="1">0</pdfrwt>
<pdfrwt beam="2">0</pdfrwt>
<totfact> 0.21596669E+12</totfact>
</mgrwt>
</event>
<event>
 4    2  0.1993797E+006  0.2120254E+01  0.7546771E-02  0.2904028E+00
         22   -1    0    0    0    0  0.00000000000E+00  0.00000000000E+00  0.59853446600E+02  0.59853446600E+02  0.00000000000E+00 0. -1.
         22   -1    0    0    0    0 -0.00000000000E+00 -0.00000000000E+00 -0.17083058766E+00  0.17083058766E+00  0.00000000000E+00 0.  1.
          4    1    1    2  501    0  0.10531357084E+01  0.18402125906E+01  0.52307070814E+02  0.52350025161E+02  0.00000000000E+00 0. -1.
         -4    1    1    2    0  501 -0.10531357084E+01 -0.18402125906E+01  0.73755451990E+01  0.76742520275E+01  0.00000000000E+00 0.  1.
<mgrwt>
<rscale>  0 0.21202540E+01</rscale>
<asrwt>0</asrwt>
<pdfrwt beam="1">0</pdfrwt>
<pdfrwt beam="2">0</pdfrwt>
<totfact> 0.12088268E+12</totfact>
</mgrwt>
</event>
<event>
 4    2  0.1993797E+006  0.3412560E+01  0.7546771E-02  0.2405957E+00
         22   -1    0    0    0    0  0.00000000000E+00  0.00000000000E+00  0.31424621005E+01  0.31424621005E+01  0.00000000000E+00 0. -1.
         22   -1    0    0    0    0 -0.00000000000E+00 -0.00000000000E+00 -0.49703454448E+01  0.49703454448E+01  0.00000000000E+00 0.  1.
          4    1    1    2  501    0 -0.36893193311E+00  0.33925586200E+01  0.11320441206E+01  0.35954260738E+01  0.00000000000E+00 0.  1.
         -4    1    1    2    0  501  0.36893193311E+00 -0.33925586200E+01 -0.29599274649E+01  0.45173814715E+01  0.00000000000E+00 0. -1.
<mgrwt>
<rscale>  0 0.34125599E+01</rscale>
<asrwt>0</asrwt>
<pdfrwt beam="1">0</pdfrwt>
<pdfrwt beam="2">0</pdfrwt>
<totfact> 0.97626079E+11</totfact>
</mgrwt>
</event>
<event>
 4    2  0.1993797E+006  0.2188465E+01  0.7546771E-02  0.2864159E+00
         22   -1    0    0    0    0  0.00000000000E+00  0.00000000000E+00  0.64914581644E-01  0.64914581644E-01  0.00000000000E+00 0.  1.
         22   -1    0    0    0    0 -0.00000000000E+00 -0.00000000000E+00 -0.77812352900E+02  0.77812352900E+02  0.00000000000E+00 0. -1.
          4    1    1    2  501    0  0.12600891484E+01  0.17892889256E+01 -0.30009287564E+02  0.30088980036E+02  0.00000000000E+00 0.  1.
         -4    1    1    2    0  501 -0.12600891484E+01 -0.17892889256E+01 -0.47738150754E+02  0.47788287445E+02  0.00000000000E+00 0. -1.
<mgrwt>
<rscale>  0 0.21884651E+01</rscale>
<asrwt>0</asrwt>
<pdfrwt beam="1">0</pdfrwt>
<pdfrwt beam="2">0</pdfrwt>
<totfact> 0.24748864E+12</totfact>
</mgrwt>
</event>
<event>
 4    2  0.1993797E+006  0.2011199E+01  0.7546771E-02  0.2973208E+00
         22   -1    0    0    0    0  0.00000000000E+00  0.00000000000E+00  0.27328603889E+00  0.27328603889E+00  0.00000000000E+00 0.  1.
         22   -1    0    0    0    0 -0.00000000000E+00 -0.00000000000E+00 -0.37026350671E+02  0.37026350671E+02  0.00000000000E+00 0. -1.
          4    1    1    2  501    0  0.14611160300E+01 -0.13820493130E+01 -0.39273599241E+01  0.44123776278E+01  0.00000000000E+00 0.  1.
         -4    1    1    2    0  501 -0.14611160300E+01  0.13820493130E+01 -0.32825704707E+02  0.32887259082E+02  0.00000000000E+00 0. -1.
<mgrwt>
<rscale>  0 0.20111987E+01</rscale>
<asrwt>0</asrwt>
<pdfrwt beam="1">0</pdfrwt>
<pdfrwt beam="2">0</pdfrwt>
<totfact> 0.13442055E+12</totfact>
</mgrwt>
</event>
<event>
 4    2  0.1993797E+006  0.2632330E+01  0.7546771E-02  0.2652917E+00
         22   -1    0    0    0    0  0.00000000000E+00  0.00000000000E+00  0.29413512699E+00  0.29413512699E+00  0.00000000000E+00 0.  1.
         22   -1    0    0    0    0 -0.00000000000E+00 -0.00000000000E+00 -0.48106779130E+02  0.48106779130E+02  0.00000000000E+00 0. -1.
          4    1    1    2  501    0 -0.22985684072E+01  0.12828649539E+01 -0.66186040981E+01  0.71228561280E+01  0.00000000000E+00 0.  1.
         -4    1    1    2    0  501  0.22985684072E+01 -0.12828649539E+01 -0.41194039905E+02  0.41278058129E+02  0.00000000000E+00 0. -1.
<mgrwt>
<rscale>  0 0.26323296E+01</rscale>
<asrwt>0</asrwt>
<pdfrwt beam="1">0</pdfrwt>
<pdfrwt beam="2">0</pdfrwt>
<totfact> 0.88028553E+11</totfact>
</mgrwt>
</event>
<event>
 4    2  0.1993797E+006  0.2567025E+01  0.7546771E-02  0.2679699E+00
         22   -1    0    0    0    0  0.00000000000E+00  0.00000000000E+00  0.38102454711E+02  0.38102454711E+02  0.00000000000E+00 0. -1.
         22   -1    0    0    0    0 -0.00000000000E+00 -0.00000000000E+00 -0.17509260900E+00  0.17509260900E+00  0.00000000000E+00 0.  1.
          4    1    1    2  501    0  0.23228093365E+01  0.10927816269E+01  0.21083483091E+02  0.21239182521E+02  0.00000000000E+00 0.  1.
         -4    1    1    2    0  501 -0.23228093365E+01 -0.10927816269E+01  0.16843879010E+02  0.17038364799E+02  0.00000000000E+00 0. -1.
<mgrwt>
<rscale>  0 0.25670245E+01</rscale>
<asrwt>0</asrwt>
<pdfrwt beam="1">0</pdfrwt>
<pdfrwt beam="2">0</pdfrwt>
<totfact> 0.21299507E+12</totfact>
</mgrwt>
</event>
<event>
 4    2  0.1993797E+006  0.2013256E+01  0.7546771E-02  0.2971836E+00
         22   -1    0    0    0    0  0.00000000000E+00  0.00000000000E+00  0.67845624903E+01  0.67845624903E+01  0.00000000000E+00 0. -1.
         22   -1    0    0    0    0 -0.00000000000E+00 -0.00000000000E+00 -0.19778914775E+01  0.19778914775E+01  0.00000000000E+00 0.  1.
          4    1    1    2  501    0 -0.21749005570E+00 -0.20014734922E+01  0.60635712746E+01  0.63890605465E+01  0.00000000000E+00 0. -1.
         -4    1    1    2    0  501  0.21749005570E+00  0.20014734922E+01 -0.12569002618E+01  0.23733934214E+01  0.00000000000E+00 0.  1.
<mgrwt>
<rscale>  0 0.20132556E+01</rscale>
<asrwt>0</asrwt>
<pdfrwt beam="1">0</pdfrwt>
<pdfrwt beam="2">0</pdfrwt>
<totfact> 0.11552617E+12</totfact>
</mgrwt>
</event>
<event>
 4    2  0.1993797E+006  0.2146127E+01  0.7546771E-02  0.2888618E+00
         22   -1    0    0    0    0  0.00000000000E+00  0.00000000000E+00  0.16533916143E+00  0.16533916143E+00  0.00000000000E+00 0. -1.
         22   -1    0    0    0    0 -0.00000000000E+00 -0.00000000000E+00 -0.38477589496E+02  0.38477589496E+02  0.00000000000E+00 0.  1.
          4    1    1    2  501    0 -0.18393064043E+01 -0.11058089502E+01 -0.90051124024E+01  0.92573166124E+01  0.00000000000E+00 0. -1.
         -4    1    1    2    0  501  0.18393064043E+01  0.11058089502E+01 -0.29307137932E+02  0.29385612045E+02  0.00000000000E+00 0.  1.
<mgrwt>
<rscale>  0 0.21461271E+01</rscale>
<asrwt>0</asrwt>
<pdfrwt beam="1">0</pdfrwt>
<pdfrwt beam="2">0</pdfrwt>
<totfact> 0.22415545E+12</totfact>
</mgrwt>
</event>
<event>
 4    2  0.1993797E+006  0.2138336E+01  0.7546771E-02  0.2893220E+00
         22   -1    0    0    0    0  0.00000000000E+00  0.00000000000E+00  0.14423338561E+01  0.14423338561E+01  0.00000000000E+00 0.  1.
         22   -1    0    0    0    0 -0.00000000000E+00 -0.00000000000E+00 -0.31732015446E+01  0.31732015446E+01  0.00000000000E+00 0. -1.
          4    1    1    2  501    0 -0.22641290514E+00  0.21263158121E+01 -0.79441574892E+00  0.22811352697E+01  0.00000000000E+00 0.  1.
         -4    1    1    2    0  501  0.22641290514E+00 -0.21263158121E+01 -0.93645193960E+00  0.23344001310E+01  0.00000000000E+00 0. -1.
<mgrwt>
<rscale>  0 0.21383362E+01</rscale>
<asrwt>0</asrwt>
<pdfrwt beam="1">0</pdfrwt>
<pdfrwt beam="2">0</pdfrwt>
<totfact> 0.40822023E+12</totfact>
</mgrwt>
</event>
<event>
 4    2  0.1993797E+006  0.4517887E+01  0.7546771E-02  0.2188031E+00
         22   -1    0    0    0    0  0.00000000000E+00  0.00000000000E+00  0.54968832408E+02  0.54968832408E+02  0.00000000000E+00 0.  1.
         22   -1    0    0    0    0 -0.00000000000E+00 -0.00000000000E+00 -0.52472955026E+00  0.52472955026E+00  0.00000000000E+00 0. -1.
          4    1    1    2  501    0 -0.45146699660E+01 -0.17045703517E+00  0.42224563901E+02  0.42465575436E+02  0.00000000000E+00 0.  1.
         -4    1    1    2    0  501  0.45146699660E+01  0.17045703517E+00  0.12219538957E+02  0.13027986523E+02  0.00000000000E+00 0. -1.
<mgrwt>
<rscale>  0 0.45178867E+01</rscale>
<asrwt>0</asrwt>
<pdfrwt beam="1">0</pdfrwt>
<pdfrwt beam="2">0</pdfrwt>
<totfact> 0.38475063E+11</totfact>
</mgrwt>
</event>
<event>
 4    2  0.1993797E+006  0.2161323E+01  0.7546771E-02  0.2879733E+00
         22   -1    0    0    0    0  0.00000000000E+00  0.00000000000E+00  0.68972480382E+01  0.68972480382E+01  0.00000000000E+00 0. -1.
         22   -1    0    0    0    0 -0.00000000000E+00 -0.00000000000E+00 -0.72474084623E+00  0.72474084623E+00  0.00000000000E+00 0.  1.
          4    1    1    2  501    0  0.21523921526E+01 -0.19627525282E+00  0.40615784860E+01  0.46008407657E+01  0.00000000000E+00 0. -1.
         -4    1    1    2    0  501 -0.21523921526E+01  0.19627525282E+00  0.21109287060E+01  0.30211481187E+01  0.00000000000E+00 0.  1.
<mgrwt>
<rscale>  0 0.21613227E+01</rscale>
<asrwt>0</asrwt>
<pdfrwt beam="1">0</pdfrwt>
<pdfrwt beam="2">0</pdfrwt>
<totfact> 0.35793557E+12</totfact>
</mgrwt>
</event>
<event>
 4    2  0.1993797E+006  0.2484472E+01  0.7546771E-02  0.2715416E+00
         22   -1    0    0    0    0  0.00000000000E+00  0.00000000000E+00  0.18544961775E+01  0.18544961775E+01  0.00000000000E+00 0. -1.
         22   -1    0    0    0    0 -0.00000000000E+00 -0.00000000000E+00 -0.34270665535E+01  0.34270665535E+01  0.00000000000E+00 0.  1.
          4    1    1    2  501    0  0.28174223262E+00  0.24684450853E+01 -0.33832059800E+00  0.25074011749E+01  0.00000000000E+00 0. -1.
         -4    1    1    2    0  501 -0.28174223262E+00 -0.24684450853E+01 -0.12342497780E+01  0.27741615561E+01  0.00000000000E+00 0.  1.
<mgrwt>
<rscale>  0 0.24844717E+01</rscale>
<asrwt>0</asrwt>
<pdfrwt beam="1">0</pdfrwt>
<pdfrwt beam="2">0</pdfrwt>
<totfact> 0.27922632E+12</totfact>
</mgrwt>
</event>
<event>
 4    2  0.1993797E+006  0.2333004E+01  0.7546771E-02  0.2787068E+00
         22   -1    0    0    0    0  0.00000000000E+00  0.00000000000E+00  0.80696417670E+00  0.80696417670E+00  0.00000000000E+00 0. -1.
         22   -1    0    0    0    0 -0.00000000000E+00 -0.00000000000E+00 -0.20824830764E+02  0.20824830764E+02  0.00000000000E+00 0.  1.
          4    1    1    2  501    0 -0.19160702320E+01  0.13310088865E+01 -0.11154528611E+01  0.25859514449E+01  0.00000000000E+00 0. -1.
         -4    1    1    2    0  501  0.19160702320E+01 -0.13310088865E+01 -0.18902413726E+02  0.19045843495E+02  0.00000000000E+00 0.  1.
<mgrwt>
<rscale>  0 0.23330045E+01</rscale>
<asrwt>0</asrwt>
<pdfrwt beam="1">0</pdfrwt>
<pdfrwt beam="2">0</pdfrwt>
<totfact> 0.82245300E+11</totfact>
</mgrwt>
</event>
<event>
 4    2  0.1993797E+006  0.2014395E+01  0.7546771E-02  0.2971076E+00
         22   -1    0    0    0    0  0.00000000000E+00  0.00000000000E+00  0.34825566490E+02  0.34825566490E+02  0.00000000000E+00 0. -1.
         22   -1    0    0    0    0 -0.00000000000E+00 -0.00000000000E+00 -0.12164201529E+01  0.12164201529E+01  0.00000000000E+00 0.  1.
          4    1    1    2  501    0 -0.19648433930E+01 -0.44404821018E+00  0.33940754327E+02  0.34000479300E+02  0.00000000000E+00 0. -1.
         -4    1    1    2    0  501  0.19648433930E+01  0.44404821018E+00 -0.33160798960E+00  0.20415073428E+01  0.00000000000E+00 0.  1.
<mgrwt>
<rscale>  0 0.20143953E+01</rscale>
<asrwt>0</asrwt>
<pdfrwt beam="1">0</pdfrwt>
<pdfrwt beam="2">0</pdfrwt>
<totfact> 0.26830804E+11</totfact>
</mgrwt>
</event>
<event>
 4    2  0.1993797E+006  0.2273950E+01  0.7546771E-02  0.2817438E+00
         22   -1    0    0    0    0  0.00000000000E+00  0.00000000000E+00  0.14551268669E+01  0.14551268669E+01  0.00000000000E+00 0.  1.
         22   -1    0    0    0    0 -0.00000000000E+00 -0.00000000000E+00 -0.40178509998E+01  0.40178509998E+01  0.00000000000E+00 0. -1.
          4    1    1    2  501    0 -0.21983141264E+01 -0.58160388765E+00 -0.35110628767E+00  0.23008962831E+01  0.00000000000E+00 0.  1.
         -4    1    1    2    0  501  0.21983141264E+01  0.58160388765E+00 -0.22116178452E+01  0.31720815837E+01  0.00000000000E+00 0. -1.
<mgrwt>
<rscale>  0 0.22739499E+01</rscale>
<asrwt>0</asrwt>
<pdfrwt beam="1">0</pdfrwt>
<pdfrwt beam="2">0</pdfrwt>
<totfact> 0.30636423E+12</totfact>
</mgrwt>
</event>
<event>
 4    2  0.1993797E+006  0.3340032E+01  0.7546771E-02  0.2424545E+00
         22   -1    0    0    0    0  0.00000000000E+00  0.00000000000E+00  0.10135713854E+02  0.10135713854E+02  0.00000000000E+00 0.  1.
         22   -1    0    0    0    0 -0.00000000000E+00 -0.00000000000E+00 -0.65960452036E+01  0.65960452036E+01  0.00000000000E+00 0. -1.
          4    1    1    2  501    0  0.32695382322E+01 -0.68259135444E+00  0.94058973207E+01  0.99813183306E+01  0.00000000000E+00 0.  1.
         -4    1    1    2    0  501 -0.32695382322E+01  0.68259135444E+00 -0.58662286698E+01  0.67504407275E+01  0.00000000000E+00 0. -1.
<mgrwt>
<rscale>  0 0.33400316E+01</rscale>
<asrwt>0</asrwt>
<pdfrwt beam="1">0</pdfrwt>
<pdfrwt beam="2">0</pdfrwt>
<totfact> 0.17329488E+11</totfact>
</mgrwt>
</event>
<event>
 4    2  0.1993797E+006  0.2972302E+01  0.7546771E-02  0.2531006E+00
         22   -1    0    0    0    0  0.00000000000E+00  0.00000000000E+00  0.31308956808E+00  0.31308956808E+00  0.00000000000E+00 0.  1.
         22   -1    0    0    0    0 -0.00000000000E+00 -0.00000000000E+00 -0.96693547169E+02  0.96693547169E+02  0.00000000000E+00 0. -1.
          4    1    1    2  501    0  0.29454048292E+01 -0.39896235908E+00 -0.73731149075E+01  0.79496794911E+01  0.00000000000E+00 0.  1.
         -4    1    1    2    0  501 -0.29454048292E+01  0.39896235908E+00 -0.89007342694E+02  0.89056957246E+02  0.00000000000E+00 0. -1.
<mgrwt>
<rscale>  0 0.29723022E+01</rscale>
<asrwt>0</asrwt>
<pdfrwt beam="1">0</pdfrwt>
<pdfrwt beam="2">0</pdfrwt>
<totfact> 0.31864531E+11</totfact>
</mgrwt>
</event>
<event>
 4    2  0.1993797E+006  0.2403993E+01  0.7546771E-02  0.2752432E+00
         22   -1    0    0    0    0  0.00000000000E+00  0.00000000000E+00  0.46386735141E+01  0.46386735141E+01  0.00000000000E+00 0. -1.
         22   -1    0    0    0    0 -0.00000000000E+00 -0.00000000000E+00 -0.17493769784E+01  0.17493769784E+01  0.00000000000E+00 0.  1.
          4    1    1    2  501    0 -0.23191503427E+01 -0.63302598842E+00  0.31582100048E+01  0.39690642032E+01  0.00000000000E+00 0. -1.
         -4    1    1    2    0  501  0.23191503427E+01  0.63302598842E+00 -0.26891346916E+00  0.24189862894E+01  0.00000000000E+00 0.  1.
<mgrwt>
<rscale>  0 0.24039926E+01</rscale>
<asrwt>0</asrwt>
<pdfrwt beam="1">0</pdfrwt>
<pdfrwt beam="2">0</pdfrwt>
<totfact> 0.20918034E+12</totfact>
</mgrwt>
</event>
<event>
 4    2  0.1993797E+006  0.2059828E+01  0.7546771E-02  0.2941478E+00
         22   -1    0    0    0    0  0.00000000000E+00  0.00000000000E+00  0.31074629198E+02  0.31074629198E+02  0.00000000000E+00 0.  1.
         22   -1    0    0    0    0 -0.00000000000E+00 -0.00000000000E+00 -0.27677420373E+00  0.27677420373E+00  0.00000000000E+00 0. -1.
          4    1    1    2  501    0 -0.43780769757E+00  0.20127631797E+01  0.26557100457E+02  0.26636863102E+02  0.00000000000E+00 0.  1.
         -4    1    1    2    0  501  0.43780769757E+00 -0.20127631797E+01  0.42407545366E+01  0.47145402997E+01  0.00000000000E+00 0. -1.
<mgrwt>
<rscale>  0 0.20598280E+01</rscale>
<asrwt>0</asrwt>
<pdfrwt beam="1">0</pdfrwt>
<pdfrwt beam="2">0</pdfrwt>
<totfact> 0.16596891E+12</totfact>
</mgrwt>
</event>
<event>
 4    2  0.1993797E+006  0.2307058E+01  0.7546771E-02  0.2800230E+00
         22   -1    0    0    0    0  0.00000000000E+00  0.00000000000E+00  0.55368866036E+00  0.55368866036E+00  0.00000000000E+00 0. -1.
         22   -1    0    0    0    0 -0.00000000000E+00 -0.00000000000E+00 -0.13130240477E+02  0.13130240477E+02  0.00000000000E+00 0.  1.
          4    1    1    2  501    0  0.16680133777E+01 -0.15938156645E+01 -0.27470324912E+01  0.35872976609E+01  0.00000000000E+00 0. -1.
         -4    1    1    2    0  501 -0.16680133777E+01  0.15938156645E+01 -0.98295193252E+01  0.10096631476E+02  0.00000000000E+00 0.  1.
<mgrwt>
<rscale>  0 0.23070581E+01</rscale>
<asrwt>0</asrwt>
<pdfrwt beam="1">0</pdfrwt>
<pdfrwt beam="2">0</pdfrwt>
<totfact> 0.22298739E+12</totfact>
</mgrwt>
</event>
<event>
 4    2  0.1993797E+006  0.2314996E+01  0.7546771E-02  0.2796174E+00
         22   -1    0    0    0    0  0.00000000000E+00  0.00000000000E+00  0.18758881379E+02  0.18758881379E+02  0.00000000000E+00 0.  1.
         22   -1    0    0    0    0 -0.00000000000E+00 -0.00000000000E+00 -0.29517068408E+00  0.29517068408E+00  0.00000000000E+00 0. -1.
          4    1    1    2  501    0 -0.20992452391E+01 -0.97589794222E+00  0.10939359969E+02  0.11181627963E+02  0.00000000000E+00 0.  1.
         -4    1    1    2    0  501  0.20992452391E+01  0.97589794222E+00  0.75243507258E+01  0.78724241001E+01  0.00000000000E+00 0. -1.
<mgrwt>
<rscale>  0 0.23149962E+01</rscale>
<asrwt>0</asrwt>
<pdfrwt beam="1">0</pdfrwt>
<pdfrwt beam="2">0</pdfrwt>
<totfact> 0.29160423E+12</totfact>
</mgrwt>
</event>
<event>
 4    2  0.1993797E+006  0.2103273E+01  0.7546771E-02  0.2914341E+00
         22   -1    0    0    0    0  0.00000000000E+00  0.00000000000E+00  0.11211521966E+01  0.11211521966E+01  0.00000000000E+00 0.  1.
         22   -1    0    0    0    0 -0.00000000000E+00 -0.00000000000E+00 -0.51900691224E+01  0.51900691224E+01  0.00000000000E+00 0. -1.
          4    1    1    2  501    0 -0.17133461871E+01 -0.12199193299E+01 -0.35795957812E+01  0.41517784485E+01  0.00000000000E+00 0. -1.
         -4    1    1    2    0  501  0.17133461871E+01  0.12199193299E+01 -0.48932114458E+00  0.21594428705E+01  0.00000000000E+00 0.  1.
<mgrwt>
<rscale>  0 0.21032732E+01</rscale>
<asrwt>0</asrwt>
<pdfrwt beam="1">0</pdfrwt>
<pdfrwt beam="2">0</pdfrwt>
<totfact> 0.30535840E+12</totfact>
</mgrwt>
</event>
<event>
 4    2  0.1993797E+006  0.3829713E+01  0.7546771E-02  0.2311077E+00
         22   -1    0    0    0    0  0.00000000000E+00  0.00000000000E+00  0.53773872885E+01  0.53773872885E+01  0.00000000000E+00 0. -1.
         22   -1    0    0    0    0 -0.00000000000E+00 -0.00000000000E+00 -0.12239299429E+02  0.12239299429E+02  0.00000000000E+00 0.  1.
          4    1    1    2  501    0  0.36080295534E+00 -0.38126793201E+01  0.43341575238E+01  0.57837378755E+01  0.00000000000E+00 0. -1.
         -4    1    1    2    0  501 -0.36080295534E+00  0.38126793201E+01 -0.11196069665E+02  0.11832948842E+02  0.00000000000E+00 0.  1.
<mgrwt>
<rscale>  0 0.38297131E+01</rscale>
<asrwt>0</asrwt>
<pdfrwt beam="1">0</pdfrwt>
<pdfrwt beam="2">0</pdfrwt>
<totfact> 0.17570660E+11</totfact>
</mgrwt>
</event>
<event>
 4    2  0.1993797E+006  0.2142144E+01  0.7546771E-02  0.2890967E+00
         22   -1    0    0    0    0  0.00000000000E+00  0.00000000000E+00  0.98572117664E+01  0.98572117664E+01  0.00000000000E+00 0.  1.
         22   -1    0    0    0    0 -0.00000000000E+00 -0.00000000000E+00 -0.20178806763E+01  0.20178806763E+01  0.00000000000E+00 0. -1.
          4    1    1    2  501    0  0.27636268389E+00 -0.21242418597E+01  0.91274723079E+01  0.93754749503E+01  0.00000000000E+00 0.  1.
         -4    1    1    2    0  501 -0.27636268389E+00  0.21242418597E+01 -0.12881412179E+01  0.24996174924E+01  0.00000000000E+00 0. -1.
<mgrwt>
<rscale>  0 0.21421437E+01</rscale>
<asrwt>0</asrwt>
<pdfrwt beam="1">0</pdfrwt>
<pdfrwt beam="2">0</pdfrwt>
<totfact> 0.72038713E+11</totfact>
</mgrwt>
</event>
<event>
 4    2  0.1993797E+006  0.2999170E+01  0.7546771E-02  0.2522442E+00
         22   -1    0    0    0    0  0.00000000000E+00  0.00000000000E+00  0.13293855142E+02  0.13293855142E+02  0.00000000000E+00 0. -1.
         22   -1    0    0    0    0 -0.00000000000E+00 -0.00000000000E+00 -0.69137623721E+00  0.69137623721E+00  0.00000000000E+00 0.  1.
          4    1    1    2  501    0  0.29150100549E+01  0.70550305767E+00  0.52800028095E+01  0.60723510977E+01  0.00000000000E+00 0. -1.
         -4    1    1    2    0  501 -0.29150100549E+01 -0.70550305767E+00  0.73224760953E+01  0.79128802816E+01  0.00000000000E+00 0.  1.
<mgrwt>
<rscale>  0 0.29991696E+01</rscale>
<asrwt>0</asrwt>
<pdfrwt beam="1">0</pdfrwt>
<pdfrwt beam="2">0</pdfrwt>
<totfact> 0.17078445E+12</totfact>
</mgrwt>
</event>
<event>
 4    2  0.1993797E+006  0.2100892E+01  0.7546771E-02  0.2915801E+00
         22   -1    0    0    0    0  0.00000000000E+00  0.00000000000E+00  0.16208764049E+01  0.16208764049E+01  0.00000000000E+00 0.  1.
         22   -1    0    0    0    0 -0.00000000000E+00 -0.00000000000E+00 -0.64454064108E+01  0.64454064108E+01  0.00000000000E+00 0. -1.
          4    1    1    2  501    0  0.28770957703E+00 -0.20810978767E+01  0.65270788100E+00  0.21999483519E+01  0.00000000000E+00 0.  1.
         -4    1    1    2    0  501 -0.28770957703E+00  0.20810978767E+01 -0.54772378869E+01  0.58663344639E+01  0.00000000000E+00 0. -1.
<mgrwt>
<rscale>  0 0.21008915E+01</rscale>
<asrwt>0</asrwt>
<pdfrwt beam="1">0</pdfrwt>
<pdfrwt beam="2">0</pdfrwt>
<totfact> 0.15456769E+12</totfact>
</mgrwt>
</event>
<event>
 4    2  0.1993797E+006  0.2533290E+01  0.7546771E-02  0.2694033E+00
         22   -1    0    0    0    0  0.00000000000E+00  0.00000000000E+00  0.50514009418E+01  0.50514009418E+01  0.00000000000E+00 0.  1.
         22   -1    0    0    0    0 -0.00000000000E+00 -0.00000000000E+00 -0.12853183093E+01  0.12853183093E+01  0.00000000000E+00 0. -1.
          4    1    1    2  501    0 -0.24940224827E+01  0.44430801734E+00  0.15422847675E+01  0.29658388464E+01  0.00000000000E+00 0. -1.
         -4    1    1    2    0  501  0.24940224827E+01 -0.44430801734E+00  0.22237978650E+01  0.33708804047E+01  0.00000000000E+00 0.  1.
<mgrwt>
<rscale>  0 0.25332899E+01</rscale>
<asrwt>0</asrwt>
<pdfrwt beam="1">0</pdfrwt>
<pdfrwt beam="2">0</pdfrwt>
<totfact> 0.26963548E+12</totfact>
</mgrwt>
</event>
<event>
 4    2  0.1993797E+006  0.3778499E+01  0.7546771E-02  0.2321746E+00
         22   -1    0    0    0    0  0.00000000000E+00  0.00000000000E+00  0.39651181520E+01  0.39651181520E+01  0.00000000000E+00 0. -1.
         22   -1    0    0    0    0 -0.00000000000E+00 -0.00000000000E+00 -0.63928596037E+01  0.63928596037E+01  0.00000000000E+00 0.  1.
          4    1    1    2  501    0  0.27619665520E+01 -0.25784869202E+01  0.22088415768E+01  0.43767608049E+01  0.00000000000E+00 0. -1.
         -4    1    1    2    0  501 -0.27619665520E+01  0.25784869202E+01 -0.46365830285E+01  0.59812169508E+01  0.00000000000E+00 0.  1.
<mgrwt>
<rscale>  0 0.37784989E+01</rscale>
<asrwt>0</asrwt>
<pdfrwt beam="1">0</pdfrwt>
<pdfrwt beam="2">0</pdfrwt>
<totfact> 0.55110815E+11</totfact>
</mgrwt>
</event>
<event>
 4    2  0.1993797E+006  0.2817385E+01  0.7546771E-02  0.2583240E+00
         22   -1    0    0    0    0  0.00000000000E+00  0.00000000000E+00  0.22997752986E+02  0.22997752986E+02  0.00000000000E+00 0. -1.
         22   -1    0    0    0    0 -0.00000000000E+00 -0.00000000000E+00 -0.48436287015E+01  0.48436287015E+01  0.00000000000E+00 0.  1.
          4    1    1    2  501    0  0.27560830208E+01 -0.58452228150E+00  0.22492604393E+02  0.22668368100E+02  0.00000000000E+00 0. -1.
         -4    1    1    2    0  501 -0.27560830208E+01  0.58452228150E+00 -0.43384801093E+01  0.51730135873E+01  0.00000000000E+00 0.  1.
<mgrwt>
<rscale>  0 0.28173853E+01</rscale>
<asrwt>0</asrwt>
<pdfrwt beam="1">0</pdfrwt>
<pdfrwt beam="2">0</pdfrwt>
<totfact> 0.91133029E+10</totfact>
</mgrwt>
</event>
<event>
 4    2  0.1993797E+006  0.3884454E+01  0.7546771E-02  0.2299941E+00
         22   -1    0    0    0    0  0.00000000000E+00  0.00000000000E+00  0.26351904252E+00  0.26351904252E+00  0.00000000000E+00 0. -1.
         22   -1    0    0    0    0 -0.00000000000E+00 -0.00000000000E+00 -0.60169643168E+02  0.60169643168E+02  0.00000000000E+00 0.  1.
          4    1    1    2  501    0 -0.38087783235E+01 -0.76301397166E+00 -0.23307835188E+02  0.23629307306E+02  0.00000000000E+00 0. -1.
         -4    1    1    2    0  501  0.38087783235E+01  0.76301397166E+00 -0.36598288938E+02  0.36803854904E+02  0.00000000000E+00 0.  1.
<mgrwt>
<rscale>  0 0.38844540E+01</rscale>
<asrwt>0</asrwt>
<pdfrwt beam="1">0</pdfrwt>
<pdfrwt beam="2">0</pdfrwt>
<totfact> 0.73994047E+11</totfact>
</mgrwt>
</event>
<event>
 4    2  0.1993797E+006  0.2744745E+01  0.7546771E-02  0.2609567E+00
         22   -1    0    0    0    0  0.00000000000E+00  0.00000000000E+00  0.47112510562E+01  0.47112510562E+01  0.00000000000E+00 0. -1.
         22   -1    0    0    0    0 -0.00000000000E+00 -0.00000000000E+00 -0.16634612574E+01  0.16634612574E+01  0.00000000000E+00 0.  1.
          4    1    1    2  501    0 -0.25446058749E+01 -0.10288868586E+01  0.21509889657E+01  0.34871737492E+01  0.00000000000E+00 0. -1.
         -4    1    1    2    0  501  0.25446058749E+01  0.10288868586E+01  0.89680083313E+00  0.28875385644E+01  0.00000000000E+00 0.  1.
<mgrwt>
<rscale>  0 0.27447454E+01</rscale>
<asrwt>0</asrwt>
<pdfrwt beam="1">0</pdfrwt>
<pdfrwt beam="2">0</pdfrwt>
<totfact> 0.21766715E+12</totfact>
</mgrwt>
</event>
<event>
 4    2  0.1993797E+006  0.2764768E+01  0.7546771E-02  0.2602184E+00
         22   -1    0    0    0    0  0.00000000000E+00  0.00000000000E+00  0.80676666827E+01  0.80676666827E+01  0.00000000000E+00 0. -1.
         22   -1    0    0    0    0 -0.00000000000E+00 -0.00000000000E+00 -0.10804939468E+01  0.10804939468E+01  0.00000000000E+00 0.  1.
          4    1    1    2  501    0  0.11999420495E+01 -0.24907991398E+01  0.18887027480E+01  0.33483039508E+01  0.00000000000E+00 0.  1.
         -4    1    1    2    0  501 -0.11999420495E+01  0.24907991398E+01  0.50984699879E+01  0.57998566788E+01  0.00000000000E+00 0. -1.
<mgrwt>
<rscale>  0 0.27647679E+01</rscale>
<asrwt>0</asrwt>
<pdfrwt beam="1">0</pdfrwt>
<pdfrwt beam="2">0</pdfrwt>
<totfact> 0.18818750E+12</totfact>
</mgrwt>
</event>
<event>
 4    2  0.1993797E+006  0.4976801E+01  0.7546771E-02  0.2125783E+00
         22   -1    0    0    0    0  0.00000000000E+00  0.00000000000E+00  0.16139969158E+01  0.16139969158E+01  0.00000000000E+00 0. -1.
         22   -1    0    0    0    0 -0.00000000000E+00 -0.00000000000E+00 -0.15437986243E+02  0.15437986243E+02  0.00000000000E+00 0.  1.
          4    1    1    2  501    0  0.40409499691E+01 -0.29050427397E+01 -0.62542055568E+01  0.79927240112E+01  0.00000000000E+00 0. -1.
         -4    1    1    2    0  501 -0.40409499691E+01  0.29050427397E+01 -0.75697837700E+01  0.90592591472E+01  0.00000000000E+00 0.  1.
<mgrwt>
<rscale>  0 0.49768012E+01</rscale>
<asrwt>0</asrwt>
<pdfrwt beam="1">0</pdfrwt>
<pdfrwt beam="2">0</pdfrwt>
<totfact> 0.53921565E+11</totfact>
</mgrwt>
</event>
<event>
 4    2  0.1993797E+006  0.2051474E+01  0.7546771E-02  0.2946825E+00
         22   -1    0    0    0    0  0.00000000000E+00  0.00000000000E+00  0.37917805924E+01  0.37917805924E+01  0.00000000000E+00 0.  1.
         22   -1    0    0    0    0 -0.00000000000E+00 -0.00000000000E+00 -0.11228519340E+01  0.11228519340E+01  0.00000000000E+00 0. -1.
          4    1    1    2  501    0  0.14880819380E+01 -0.14121461958E+01  0.10706750125E+01  0.23140634639E+01  0.00000000000E+00 0. -1.
         -4    1    1    2    0  501 -0.14880819380E+01  0.14121461958E+01  0.15982536458E+01  0.26005690625E+01  0.00000000000E+00 0.  1.
<mgrwt>
<rscale>  0 0.20514738E+01</rscale>
<asrwt>0</asrwt>
<pdfrwt beam="1">0</pdfrwt>
<pdfrwt beam="2">0</pdfrwt>
<totfact> 0.44150151E+12</totfact>
</mgrwt>
</event>
<event>
 4    2  0.1993797E+006  0.3637418E+01  0.7546771E-02  0.2352469E+00
         22   -1    0    0    0    0  0.00000000000E+00  0.00000000000E+00  0.53011170735E+01  0.53011170735E+01  0.00000000000E+00 0. -1.
         22   -1    0    0    0    0 -0.00000000000E+00 -0.00000000000E+00 -0.26760411003E+01  0.26760411003E+01  0.00000000000E+00 0.  1.
          4    1    1    2  501    0 -0.34416374615E+01  0.11772603311E+01  0.23475241983E+01  0.43291662205E+01  0.00000000000E+00 0. -1.
         -4    1    1    2    0  501  0.34416374615E+01 -0.11772603311E+01  0.27755177500E+00  0.36479919533E+01  0.00000000000E+00 0.  1.
<mgrwt>
<rscale>  0 0.36374181E+01</rscale>
<asrwt>0</asrwt>
<pdfrwt beam="1">0</pdfrwt>
<pdfrwt beam="2">0</pdfrwt>
<totfact> 0.10910865E+12</totfact>
</mgrwt>
</event>
<event>
 4    2  0.1993797E+006  0.2021398E+01  0.7546771E-02  0.2966429E+00
         22   -1    0    0    0    0  0.00000000000E+00  0.00000000000E+00  0.90985073349E+01  0.90985073349E+01  0.00000000000E+00 0.  1.
         22   -1    0    0    0    0 -0.00000000000E+00 -0.00000000000E+00 -0.50128659136E+00  0.50128659136E+00  0.00000000000E+00 0. -1.
          4    1    1    2  501    0 -0.41061890583E+00  0.19792532138E+01  0.27497623913E+01  0.34128059392E+01  0.00000000000E+00 0.  1.
         -4    1    1    2    0  501  0.41061890583E+00 -0.19792532138E+01  0.58474583523E+01  0.61869879871E+01  0.00000000000E+00 0. -1.
<mgrwt>
<rscale>  0 0.20213983E+01</rscale>
<asrwt>0</asrwt>
<pdfrwt beam="1">0</pdfrwt>
<pdfrwt beam="2">0</pdfrwt>
<totfact> 0.38959028E+12</totfact>
</mgrwt>
</event>
<event>
 4    2  0.1993797E+006  0.4255038E+01  0.7546771E-02  0.2231042E+00
         22   -1    0    0    0    0  0.00000000000E+00  0.00000000000E+00  0.18820783333E+02  0.18820783333E+02  0.00000000000E+00 0. -1.
         22   -1    0    0    0    0 -0.00000000000E+00 -0.00000000000E+00 -0.12397416774E+01  0.12397416774E+01  0.00000000000E+00 0.  1.
          4    1    1    2  501    0  0.32628448263E+01 -0.27311521434E+01  0.13538156782E+02  0.14191090072E+02  0.00000000000E+00 0. -1.
         -4    1    1    2    0  501 -0.32628448263E+01  0.27311521434E+01  0.40428848739E+01  0.58694349383E+01  0.00000000000E+00 0.  1.
<mgrwt>
<rscale>  0 0.42550380E+01</rscale>
<asrwt>0</asrwt>
<pdfrwt beam="1">0</pdfrwt>
<pdfrwt beam="2">0</pdfrwt>
<totfact> 0.57140804E+11</totfact>
</mgrwt>
</event>
<event>
 4    2  0.1993797E+006  0.3722662E+01  0.7546771E-02  0.2333665E+00
         22   -1    0    0    0    0  0.00000000000E+00  0.00000000000E+00  0.45491087869E+02  0.45491087869E+02  0.00000000000E+00 0.  1.
         22   -1    0    0    0    0 -0.00000000000E+00 -0.00000000000E+00 -0.43852132220E+00  0.43852132220E+00  0.00000000000E+00 0. -1.
          4    1    1    2  501    0 -0.19866419311E+01  0.31482477099E+01  0.35215486501E+02  0.35411702858E+02  0.00000000000E+00 0.  1.
         -4    1    1    2    0  501  0.19866419311E+01 -0.31482477099E+01  0.98370800460E+01  0.10517906333E+02  0.00000000000E+00 0. -1.
<mgrwt>
<rscale>  0 0.37226617E+01</rscale>
<asrwt>0</asrwt>
<pdfrwt beam="1">0</pdfrwt>
<pdfrwt beam="2">0</pdfrwt>
<totfact> 0.60471751E+11</totfact>
</mgrwt>
</event>
<event>
 4    2  0.1993797E+006  0.8958118E+01  0.7546771E-02  0.1825489E+00
         22   -1    0    0    0    0  0.00000000000E+00  0.00000000000E+00  0.18291530041E+01  0.18291530041E+01  0.00000000000E+00 0. -1.
         22   -1    0    0    0    0 -0.00000000000E+00 -0.00000000000E+00 -0.49524174227E+02  0.49524174227E+02  0.00000000000E+00 0.  1.
          4    1    1    2  501    0 -0.19603371289E+01 -0.87409932045E+01 -0.15172843982E+02  0.17619962496E+02  0.00000000000E+00 0. -1.
         -4    1    1    2    0  501  0.19603371289E+01  0.87409932045E+01 -0.32522177241E+02  0.33733364735E+02  0.00000000000E+00 0.  1.
<mgrwt>
<rscale>  0 0.89581183E+01</rscale>
<asrwt>0</asrwt>
<pdfrwt beam="1">0</pdfrwt>
<pdfrwt beam="2">0</pdfrwt>
<totfact> 0.10613187E+11</totfact>
</mgrwt>
</event>
<event>
 4    2  0.1993797E+006  0.2732887E+01  0.7546771E-02  0.2613985E+00
         22   -1    0    0    0    0  0.00000000000E+00  0.00000000000E+00  0.32310078772E+00  0.32310078772E+00  0.00000000000E+00 0.  1.
         22   -1    0    0    0    0 -0.00000000000E+00 -0.00000000000E+00 -0.25352638657E+02  0.25352638657E+02  0.00000000000E+00 0. -1.
          4    1    1    2  501    0 -0.71520948277E+00 -0.26376404861E+01 -0.16328210650E+02  0.16555335544E+02  0.00000000000E+00 0. -1.
         -4    1    1    2    0  501  0.71520948277E+00  0.26376404861E+01 -0.87013272194E+01  0.91204039010E+01  0.00000000000E+00 0.  1.
<mgrwt>
<rscale>  0 0.27328871E+01</rscale>
<asrwt>0</asrwt>
<pdfrwt beam="1">0</pdfrwt>
<pdfrwt beam="2">0</pdfrwt>
<totfact> 0.18068481E+12</totfact>
</mgrwt>
</event>
<event>
 4    2  0.1993797E+006  0.2477832E+01  0.7546771E-02  0.2718385E+00
         22   -1    0    0    0    0  0.00000000000E+00  0.00000000000E+00  0.38431880886E+00  0.38431880886E+00  0.00000000000E+00 0.  1.
         22   -1    0    0    0    0 -0.00000000000E+00 -0.00000000000E+00 -0.17665620350E+02  0.17665620350E+02  0.00000000000E+00 0. -1.
          4    1    1    2  501    0  0.16743175694E+01  0.18265572340E+01 -0.58490607192E+01  0.63522564455E+01  0.00000000000E+00 0.  1.
         -4    1    1    2    0  501 -0.16743175694E+01 -0.18265572340E+01 -0.11432240822E+02  0.11697682714E+02  0.00000000000E+00 0. -1.
<mgrwt>
<rscale>  0 0.24778318E+01</rscale>
<asrwt>0</asrwt>
<pdfrwt beam="1">0</pdfrwt>
<pdfrwt beam="2">0</pdfrwt>
<totfact> 0.23359394E+12</totfact>
</mgrwt>
</event>
<event>
 4    2  0.1993797E+006  0.2289779E+01  0.7546771E-02  0.2809152E+00
         22   -1    0    0    0    0  0.00000000000E+00  0.00000000000E+00  0.54406318623E+01  0.54406318623E+01  0.00000000000E+00 0. -1.
         22   -1    0    0    0    0 -0.00000000000E+00 -0.00000000000E+00 -0.23925229545E+01  0.23925229545E+01  0.00000000000E+00 0.  1.
          4    1    1    2  501    0 -0.22877256678E+01 -0.96951277444E-01  0.45507534035E+01  0.50943542104E+01  0.00000000000E+00 0. -1.
         -4    1    1    2    0  501  0.22877256678E+01  0.96951277444E-01 -0.15026444957E+01  0.27388006064E+01  0.00000000000E+00 0.  1.
<mgrwt>
<rscale>  0 0.22897791E+01</rscale>
<asrwt>0</asrwt>
<pdfrwt beam="1">0</pdfrwt>
<pdfrwt beam="2">0</pdfrwt>
<totfact> 0.12051482E+12</totfact>
</mgrwt>
</event>
<event>
 4    2  0.1993797E+006  0.2132253E+01  0.7546771E-02  0.2896837E+00
         22   -1    0    0    0    0  0.00000000000E+00  0.00000000000E+00  0.13097463901E+00  0.13097463901E+00  0.00000000000E+00 0. -1.
         22   -1    0    0    0    0 -0.00000000000E+00 -0.00000000000E+00 -0.34808290836E+02  0.34808290836E+02  0.00000000000E+00 0.  1.
          4    1    1    2  501    0 -0.71794436776E+00 -0.20077498384E+01 -0.16423912517E+02  0.16561745255E+02  0.00000000000E+00 0.  1.
         -4    1    1    2    0  501  0.71794436776E+00  0.20077498384E+01 -0.18253403680E+02  0.18377520220E+02  0.00000000000E+00 0. -1.
<mgrwt>
<rscale>  0 0.21322532E+01</rscale>
<asrwt>0</asrwt>
<pdfrwt beam="1">0</pdfrwt>
<pdfrwt beam="2">0</pdfrwt>
<totfact> 0.33051133E+12</totfact>
</mgrwt>
</event>
<event>
 4    2  0.1993797E+006  0.2104057E+01  0.7546771E-02  0.2913862E+00
         22   -1    0    0    0    0  0.00000000000E+00  0.00000000000E+00  0.32891512858E+00  0.32891512858E+00  0.00000000000E+00 0. -1.
         22   -1    0    0    0    0 -0.00000000000E+00 -0.00000000000E+00 -0.13612824457E+02  0.13612824457E+02  0.00000000000E+00 0.  1.
          4    1    1    2  501    0 -0.21039043659E+01  0.25307304641E-01 -0.73816088102E+01  0.76756239269E+01  0.00000000000E+00 0.  1.
         -4    1    1    2    0  501  0.21039043659E+01 -0.25307304641E-01 -0.59023005183E+01  0.62661156587E+01  0.00000000000E+00 0. -1.
<mgrwt>
<rscale>  0 0.21040566E+01</rscale>
<asrwt>0</asrwt>
<pdfrwt beam="1">0</pdfrwt>
<pdfrwt beam="2">0</pdfrwt>
<totfact> 0.38362095E+12</totfact>
</mgrwt>
</event>
<event>
 4    2  0.1993797E+006  0.2276068E+01  0.7546771E-02  0.2816322E+00
         22   -1    0    0    0    0  0.00000000000E+00  0.00000000000E+00  0.14217501796E+00  0.14217501796E+00  0.00000000000E+00 0. -1.
         22   -1    0    0    0    0 -0.00000000000E+00 -0.00000000000E+00 -0.36494957944E+02  0.36494957944E+02  0.00000000000E+00 0.  1.
          4    1    1    2  501    0  0.16182103916E+01  0.16005881836E+01 -0.18903908996E+02  0.19040437567E+02  0.00000000000E+00 0.  1.
         -4    1    1    2    0  501 -0.16182103916E+01 -0.16005881836E+01 -0.17448873930E+02  0.17596695395E+02  0.00000000000E+00 0. -1.
<mgrwt>
<rscale>  0 0.22760684E+01</rscale>
<asrwt>0</asrwt>
<pdfrwt beam="1">0</pdfrwt>
<pdfrwt beam="2">0</pdfrwt>
<totfact> 0.28389188E+12</totfact>
</mgrwt>
</event>
<event>
 4    2  0.1993797E+006  0.5920707E+01  0.7546771E-02  0.2026873E+00
         22   -1    0    0    0    0  0.00000000000E+00  0.00000000000E+00  0.23445515605E+01  0.23445515605E+01  0.00000000000E+00 0. -1.
         22   -1    0    0    0    0 -0.00000000000E+00 -0.00000000000E+00 -0.16356150364E+02  0.16356150364E+02  0.00000000000E+00 0.  1.
          4    1    1    2  501    0  0.44261531318E+01 -0.39324212080E+01 -0.42657528821E+01  0.72973567650E+01  0.00000000000E+00 0. -1.
         -4    1    1    2    0  501 -0.44261531318E+01  0.39324212080E+01 -0.97458459210E+01  0.11403345159E+02  0.00000000000E+00 0.  1.
<mgrwt>
<rscale>  0 0.59207067E+01</rscale>
<asrwt>0</asrwt>
<pdfrwt beam="1">0</pdfrwt>
<pdfrwt beam="2">0</pdfrwt>
<totfact> 0.32600407E+11</totfact>
</mgrwt>
</event>
<event>
 4    2  0.1993797E+006  0.2150752E+01  0.7546771E-02  0.2885901E+00
         22   -1    0    0    0    0  0.00000000000E+00  0.00000000000E+00  0.72536314205E+01  0.72536314205E+01  0.00000000000E+00 0.  1.
         22   -1    0    0    0    0 -0.00000000000E+00 -0.00000000000E+00 -0.85684590240E+00  0.85684590240E+00  0.00000000000E+00 0. -1.
          4    1    1    2  501    0  0.18728115410E+01 -0.10575017840E+01  0.52491729801E+01  0.56727021839E+01  0.00000000000E+00 0.  1.
         -4    1    1    2    0  501 -0.18728115410E+01  0.10575017840E+01  0.11476125379E+01  0.24377751390E+01  0.00000000000E+00 0. -1.
<mgrwt>
<rscale>  0 0.21507518E+01</rscale>
<asrwt>0</asrwt>
<pdfrwt beam="1">0</pdfrwt>
<pdfrwt beam="2">0</pdfrwt>
<totfact> 0.27855917E+12</totfact>
</mgrwt>
</event>
<event>
 4    2  0.1993797E+006  0.3020104E+01  0.7546771E-02  0.2515865E+00
         22   -1    0    0    0    0  0.00000000000E+00  0.00000000000E+00  0.10941135299E+02  0.10941135299E+02  0.00000000000E+00 0.  1.
         22   -1    0    0    0    0 -0.00000000000E+00 -0.00000000000E+00 -0.16916590006E+01  0.16916590006E+01  0.00000000000E+00 0. -1.
          4    1    1    2  501    0  0.19938694351E+01 -0.22683721464E+01  0.91231591046E+01  0.96100499253E+01  0.00000000000E+00 0.  1.
         -4    1    1    2    0  501 -0.19938694351E+01  0.22683721464E+01  0.12631719382E+00  0.30227443742E+01  0.00000000000E+00 0. -1.
<mgrwt>
<rscale>  0 0.30201039E+01</rscale>
<asrwt>0</asrwt>
<pdfrwt beam="1">0</pdfrwt>
<pdfrwt beam="2">0</pdfrwt>
<totfact> 0.77831039E+11</totfact>
</mgrwt>
</event>
<event>
 4    2  0.1993797E+006  0.2242583E+01  0.7546771E-02  0.2834187E+00
         22   -1    0    0    0    0  0.00000000000E+00  0.00000000000E+00  0.29633672237E+02  0.29633672237E+02  0.00000000000E+00 0.  1.
         22   -1    0    0    0    0 -0.00000000000E+00 -0.00000000000E+00 -0.17934162061E+00  0.17934162061E+00  0.00000000000E+00 0. -1.
          4    1    1    2  501    0  0.20891124842E+01 -0.81534370974E+00  0.18181386637E+02  0.18319170188E+02  0.00000000000E+00 0.  1.
         -4    1    1    2    0  501 -0.20891124842E+01  0.81534370974E+00  0.11272943979E+02  0.11493843670E+02  0.00000000000E+00 0. -1.
<mgrwt>
<rscale>  0 0.22425825E+01</rscale>
<asrwt>0</asrwt>
<pdfrwt beam="1">0</pdfrwt>
<pdfrwt beam="2">0</pdfrwt>
<totfact> 0.28631703E+12</totfact>
</mgrwt>
</event>
<event>
 4    2  0.1993797E+006  0.2535795E+01  0.7546771E-02  0.2692957E+00
         22   -1    0    0    0    0  0.00000000000E+00  0.00000000000E+00  0.18755794004E+02  0.18755794004E+02  0.00000000000E+00 0. -1.
         22   -1    0    0    0    0 -0.00000000000E+00 -0.00000000000E+00 -0.10877787858E+01  0.10877787858E+01  0.00000000000E+00 0.  1.
          4    1    1    2  501    0 -0.16334111359E+01  0.19396454952E+01  0.17044695814E+02  0.17232292708E+02  0.00000000000E+00 0. -1.
         -4    1    1    2    0  501  0.16334111359E+01 -0.19396454952E+01  0.62331940429E+00  0.26112800818E+01  0.00000000000E+00 0.  1.
<mgrwt>
<rscale>  0 0.25357951E+01</rscale>
<asrwt>0</asrwt>
<pdfrwt beam="1">0</pdfrwt>
<pdfrwt beam="2">0</pdfrwt>
<totfact> 0.66654396E+11</totfact>
</mgrwt>
</event>
<event>
 4    2  0.1993797E+006  0.5484270E+01  0.7546771E-02  0.2069280E+00
         22   -1    0    0    0    0  0.00000000000E+00  0.00000000000E+00  0.44046562738E+01  0.44046562738E+01  0.00000000000E+00 0.  1.
         22   -1    0    0    0    0 -0.00000000000E+00 -0.00000000000E+00 -0.19773711122E+02  0.19773711122E+02  0.00000000000E+00 0. -1.
          4    1    1    2  501    0 -0.54840304875E+01 -0.51258483176E-01  0.20970155565E+01  0.58715153124E+01  0.00000000000E+00 0.  1.
         -4    1    1    2    0  501  0.54840304875E+01  0.51258483176E-01 -0.17466070404E+02  0.18306852083E+02  0.00000000000E+00 0. -1.
<mgrwt>
<rscale>  0 0.54842700E+01</rscale>
<asrwt>0</asrwt>
<pdfrwt beam="1">0</pdfrwt>
<pdfrwt beam="2">0</pdfrwt>
<totfact> 0.12316430E+11</totfact>
</mgrwt>
</event>
<event>
 4    2  0.1993797E+006  0.2033555E+01  0.7546771E-02  0.2958437E+00
         22   -1    0    0    0    0  0.00000000000E+00  0.00000000000E+00  0.30809947789E+01  0.30809947789E+01  0.00000000000E+00 0.  1.
         22   -1    0    0    0    0 -0.00000000000E+00 -0.00000000000E+00 -0.13531515234E+01  0.13531515234E+01  0.00000000000E+00 0. -1.
          4    1    1    2  501    0  0.15435856942E+01  0.13238918925E+01  0.66457151659E+00  0.21393928669E+01  0.00000000000E+00 0. -1.
         -4    1    1    2    0  501 -0.15435856942E+01 -0.13238918925E+01  0.10632717390E+01  0.22947534354E+01  0.00000000000E+00 0.  1.
<mgrwt>
<rscale>  0 0.20335551E+01</rscale>
<asrwt>0</asrwt>
<pdfrwt beam="1">0</pdfrwt>
<pdfrwt beam="2">0</pdfrwt>
<totfact> 0.45468224E+12</totfact>
</mgrwt>
</event>
<event>
 4    2  0.1993797E+006  0.2948537E+01  0.7546771E-02  0.2538697E+00
         22   -1    0    0    0    0  0.00000000000E+00  0.00000000000E+00  0.62030418872E+01  0.62030418872E+01  0.00000000000E+00 0.  1.
         22   -1    0    0    0    0 -0.00000000000E+00 -0.00000000000E+00 -0.16002148410E+01  0.16002148410E+01  0.00000000000E+00 0. -1.
          4    1    1    2  501    0  0.21180570292E+01 -0.20512693058E+01  0.36761441702E+01  0.47125266370E+01  0.00000000000E+00 0.  1.
         -4    1    1    2    0  501 -0.21180570292E+01  0.20512693058E+01  0.92668287603E+00  0.30907300912E+01  0.00000000000E+00 0. -1.
<mgrwt>
<rscale>  0 0.29485372E+01</rscale>
<asrwt>0</asrwt>
<pdfrwt beam="1">0</pdfrwt>
<pdfrwt beam="2">0</pdfrwt>
<totfact> 0.16421858E+12</totfact>
</mgrwt>
</event>
<event>
 4    2  0.1993797E+006  0.2883817E+01  0.7546771E-02  0.2560221E+00
         22   -1    0    0    0    0  0.00000000000E+00  0.00000000000E+00  0.39746209910E+01  0.39746209910E+01  0.00000000000E+00 0. -1.
         22   -1    0    0    0    0 -0.00000000000E+00 -0.00000000000E+00 -0.30204368738E+01  0.30204368738E+01  0.00000000000E+00 0.  1.
          4    1    1    2  501    0  0.86097538216E+00  0.27522938899E+01 -0.14616263883E+01  0.32330715990E+01  0.00000000000E+00 0. -1.
         -4    1    1    2    0  501 -0.86097538216E+00 -0.27522938899E+01  0.24158105056E+01  0.37619862658E+01  0.00000000000E+00 0.  1.
<mgrwt>
<rscale>  0 0.28838170E+01</rscale>
<asrwt>0</asrwt>
<pdfrwt beam="1">0</pdfrwt>
<pdfrwt beam="2">0</pdfrwt>
<totfact> 0.13312136E+12</totfact>
</mgrwt>
</event>
<event>
 4    2  0.1993797E+006  0.2283428E+01  0.7546771E-02  0.2812463E+00
         22   -1    0    0    0    0  0.00000000000E+00  0.00000000000E+00  0.41310829716E+00  0.41310829716E+00  0.00000000000E+00 0.  1.
         22   -1    0    0    0    0 -0.00000000000E+00 -0.00000000000E+00 -0.14737212518E+02  0.14737212518E+02  0.00000000000E+00 0. -1.
          4    1    1    2  501    0  0.57848288323E+00  0.22089365077E+01 -0.42918443073E+01  0.48614782217E+01  0.00000000000E+00 0.  1.
         -4    1    1    2    0  501 -0.57848288323E+00 -0.22089365077E+01 -0.10032259913E+02  0.10288842593E+02  0.00000000000E+00 0. -1.
<mgrwt>
<rscale>  0 0.22834279E+01</rscale>
<asrwt>0</asrwt>
<pdfrwt beam="1">0</pdfrwt>
<pdfrwt beam="2">0</pdfrwt>
<totfact> 0.26935114E+12</totfact>
</mgrwt>
</event>
<event>
 4    2  0.1993797E+006  0.2393610E+01  0.7546771E-02  0.2757377E+00
         22   -1    0    0    0    0  0.00000000000E+00  0.00000000000E+00  0.14065993488E+02  0.14065993488E+02  0.00000000000E+00 0.  1.
         22   -1    0    0    0    0 -0.00000000000E+00 -0.00000000000E+00 -0.58810724160E+00  0.58810724160E+00  0.00000000000E+00 0. -1.
          4    1    1    2  501    0 -0.22844714640E+01 -0.71453521253E+00  0.26765312675E+01  0.35907088528E+01  0.00000000000E+00 0. -1.
         -4    1    1    2    0  501  0.22844714640E+01  0.71453521253E+00  0.10801354979E+02  0.11063391877E+02  0.00000000000E+00 0.  1.
<mgrwt>
<rscale>  0 0.23936103E+01</rscale>
<asrwt>0</asrwt>
<pdfrwt beam="1">0</pdfrwt>
<pdfrwt beam="2">0</pdfrwt>
<totfact> 0.19143059E+12</totfact>
</mgrwt>
</event>
<event>
 4    2  0.1993797E+006  0.2064237E+01  0.7546771E-02  0.2938674E+00
         22   -1    0    0    0    0  0.00000000000E+00  0.00000000000E+00  0.15132259072E+02  0.15132259072E+02  0.00000000000E+00 0.  1.
         22   -1    0    0    0    0 -0.00000000000E+00 -0.00000000000E+00 -0.47163927166E+00  0.47163927166E+00  0.00000000000E+00 0. -1.
          4    1    1    2  501    0 -0.20438935993E+01 -0.28908702045E+00  0.12282904592E+02  0.12455152250E+02  0.00000000000E+00 0.  1.
         -4    1    1    2    0  501  0.20438935993E+01  0.28908702045E+00  0.23777152079E+01  0.31487460934E+01  0.00000000000E+00 0. -1.
<mgrwt>
<rscale>  0 0.20642365E+01</rscale>
<asrwt>0</asrwt>
<pdfrwt beam="1">0</pdfrwt>
<pdfrwt beam="2">0</pdfrwt>
<totfact> 0.22454059E+12</totfact>
</mgrwt>
</event>
<event>
 4    2  0.1993797E+006  0.2270925E+01  0.7546771E-02  0.2819034E+00
         22   -1    0    0    0    0  0.00000000000E+00  0.00000000000E+00  0.37191953646E+01  0.37191953646E+01  0.00000000000E+00 0.  1.
         22   -1    0    0    0    0 -0.00000000000E+00 -0.00000000000E+00 -0.19073751750E+01  0.19073751750E+01  0.00000000000E+00 0. -1.
          4    1    1    2  501    0  0.97989916440E+00 -0.20486327940E+01  0.23758982985E+01  0.32866383162E+01  0.00000000000E+00 0.  1.
         -4    1    1    2    0  501 -0.97989916440E+00  0.20486327940E+01 -0.56407810892E+00  0.23399322234E+01  0.00000000000E+00 0. -1.
<mgrwt>
<rscale>  0 0.22709246E+01</rscale>
<asrwt>0</asrwt>
<pdfrwt beam="1">0</pdfrwt>
<pdfrwt beam="2">0</pdfrwt>
<totfact> 0.24555536E+12</totfact>
</mgrwt>
</event>
<event>
 4    2  0.1993797E+006  0.2003531E+01  0.7546771E-02  0.2978348E+00
         22   -1    0    0    0    0  0.00000000000E+00  0.00000000000E+00  0.23735733785E+01  0.23735733785E+01  0.00000000000E+00 0.  1.
         22   -1    0    0    0    0 -0.00000000000E+00 -0.00000000000E+00 -0.27848745124E+01  0.27848745124E+01  0.00000000000E+00 0. -1.
          4    1    1    2  501    0  0.20035240218E+01  0.54323951553E-02 -0.18219968348E+01  0.27081008997E+01  0.00000000000E+00 0. -1.
         -4    1    1    2    0  501 -0.20035240218E+01 -0.54323951553E-02  0.14106957009E+01  0.24503469912E+01  0.00000000000E+00 0.  1.
<mgrwt>
<rscale>  0 0.20035314E+01</rscale>
<asrwt>0</asrwt>
<pdfrwt beam="1">0</pdfrwt>
<pdfrwt beam="2">0</pdfrwt>
<totfact> 0.26735257E+12</totfact>
</mgrwt>
</event>
<event>
 4    2  0.1993797E+006  0.3177851E+01  0.7546771E-02  0.2468799E+00
         22   -1    0    0    0    0  0.00000000000E+00  0.00000000000E+00  0.63697042936E+01  0.63697042936E+01  0.00000000000E+00 0.  1.
         22   -1    0    0    0    0 -0.00000000000E+00 -0.00000000000E+00 -0.22994290229E+01  0.22994290229E+01  0.00000000000E+00 0. -1.
          4    1    1    2  501    0 -0.91344474129E+00  0.30437404026E+01  0.44505077874E+01  0.54686155926E+01  0.00000000000E+00 0.  1.
         -4    1    1    2    0  501  0.91344474129E+00 -0.30437404026E+01 -0.38023251667E+00  0.32005177239E+01  0.00000000000E+00 0. -1.
<mgrwt>
<rscale>  0 0.31778510E+01</rscale>
<asrwt>0</asrwt>
<pdfrwt beam="1">0</pdfrwt>
<pdfrwt beam="2">0</pdfrwt>
<totfact> 0.10462170E+12</totfact>
</mgrwt>
</event>
<event>
 4    2  0.1993797E+006  0.2641498E+01  0.7546771E-02  0.2649254E+00
         22   -1    0    0    0    0  0.00000000000E+00  0.00000000000E+00  0.39089097115E+02  0.39089097115E+02  0.00000000000E+00 0.  1.
         22   -1    0    0    0    0 -0.00000000000E+00 -0.00000000000E+00 -0.21898163295E+00  0.21898163295E+00  0.00000000000E+00 0. -1.
          4    1    1    2  501    0  0.15617867634E+01 -0.21303370407E+01  0.27885158688E+02  0.28009990876E+02  0.00000000000E+00 0.  1.
         -4    1    1    2    0  501 -0.15617867634E+01  0.21303370407E+01  0.10984956793E+02  0.11298087871E+02  0.00000000000E+00 0. -1.
<mgrwt>
<rscale>  0 0.26414984E+01</rscale>
<asrwt>0</asrwt>
<pdfrwt beam="1">0</pdfrwt>
<pdfrwt beam="2">0</pdfrwt>
<totfact> 0.16056795E+12</totfact>
</mgrwt>
</event>
<event>
 4    2  0.1993797E+006  0.2372787E+01  0.7546771E-02  0.2767417E+00
         22   -1    0    0    0    0  0.00000000000E+00  0.00000000000E+00  0.17284665882E+02  0.17284665882E+02  0.00000000000E+00 0.  1.
         22   -1    0    0    0    0 -0.00000000000E+00 -0.00000000000E+00 -0.35108579069E+00  0.35108579069E+00  0.00000000000E+00 0. -1.
          4    1    1    2  501    0  0.15980296797E+01 -0.17539726910E+01  0.10836545016E+02  0.11093278458E+02  0.00000000000E+00 0.  1.
         -4    1    1    2    0  501 -0.15980296797E+01  0.17539726910E+01  0.60970350750E+01  0.65424732146E+01  0.00000000000E+00 0. -1.
<mgrwt>
<rscale>  0 0.23727872E+01</rscale>
<asrwt>0</asrwt>
<pdfrwt beam="1">0</pdfrwt>
<pdfrwt beam="2">0</pdfrwt>
<totfact> 0.26567332E+12</totfact>
</mgrwt>
</event>
<event>
 4    2  0.1993797E+006  0.4266305E+01  0.7546771E-02  0.2229107E+00
         22   -1    0    0    0    0  0.00000000000E+00  0.00000000000E+00  0.31890639654E+02  0.31890639654E+02  0.00000000000E+00 0. -1.
         22   -1    0    0    0    0 -0.00000000000E+00 -0.00000000000E+00 -0.63816067992E+00  0.63816067992E+00  0.00000000000E+00 0.  1.
          4    1    1    2  501    0 -0.42019988760E+01  0.73794427755E+00  0.20912642129E+02  0.21343382045E+02  0.00000000000E+00 0. -1.
         -4    1    1    2    0  501  0.42019988760E+01 -0.73794427755E+00  0.10339836845E+02  0.11185418288E+02  0.00000000000E+00 0.  1.
<mgrwt>
<rscale>  0 0.42663048E+01</rscale>
<asrwt>0</asrwt>
<pdfrwt beam="1">0</pdfrwt>
<pdfrwt beam="2">0</pdfrwt>
<totfact> 0.62659384E+11</totfact>
</mgrwt>
</event>
<event>
 4    2  0.1993797E+006  0.5546440E+01  0.7546771E-02  0.2062922E+00
         22   -1    0    0    0    0  0.00000000000E+00  0.00000000000E+00  0.49590297854E+01  0.49590297854E+01  0.00000000000E+00 0.  1.
         22   -1    0    0    0    0 -0.00000000000E+00 -0.00000000000E+00 -0.83457561156E+01  0.83457561156E+01  0.00000000000E+00 0. -1.
          4    1    1    2  501    0  0.54833454467E+01  0.83421945689E+00 -0.50638119611E+01  0.75103389382E+01  0.00000000000E+00 0. -1.
         -4    1    1    2    0  501 -0.54833454467E+01 -0.83421945689E+00  0.16770856308E+01  0.57944469627E+01  0.00000000000E+00 0.  1.
<mgrwt>
<rscale>  0 0.55464402E+01</rscale>
<asrwt>0</asrwt>
<pdfrwt beam="1">0</pdfrwt>
<pdfrwt beam="2">0</pdfrwt>
<totfact> 0.30756206E+11</totfact>
</mgrwt>
</event>
<event>
 4    2  0.1993797E+006  0.2227121E+01  0.7546771E-02  0.2842608E+00
         22   -1    0    0    0    0  0.00000000000E+00  0.00000000000E+00  0.43518864986E+01  0.43518864986E+01  0.00000000000E+00 0. -1.
         22   -1    0    0    0    0 -0.00000000000E+00 -0.00000000000E+00 -0.11814197966E+01  0.11814197966E+01  0.00000000000E+00 0.  1.
          4    1    1    2  501    0  0.12311108085E+01  0.18559182371E+01  0.21048210572E+01  0.30643658412E+01  0.00000000000E+00 0. -1.
         -4    1    1    2    0  501 -0.12311108085E+01 -0.18559182371E+01  0.10656456448E+01  0.24689404541E+01  0.00000000000E+00 0.  1.
<mgrwt>
<rscale>  0 0.22271206E+01</rscale>
<asrwt>0</asrwt>
<pdfrwt beam="1">0</pdfrwt>
<pdfrwt beam="2">0</pdfrwt>
<totfact> 0.35418534E+12</totfact>
</mgrwt>
</event>
<event>
 4    2  0.1993797E+006  0.2057827E+01  0.7546771E-02  0.2942755E+00
         22   -1    0    0    0    0  0.00000000000E+00  0.00000000000E+00  0.24325394321E+00  0.24325394321E+00  0.00000000000E+00 0.  1.
         22   -1    0    0    0    0 -0.00000000000E+00 -0.00000000000E+00 -0.21219968355E+02  0.21219968355E+02  0.00000000000E+00 0. -1.
          4    1    1    2  501    0 -0.12998970943E+01  0.15952802966E+01 -0.59400810851E+01  0.62864310207E+01  0.00000000000E+00 0.  1.
         -4    1    1    2    0  501  0.12998970943E+01 -0.15952802966E+01 -0.15036633327E+02  0.15176791278E+02  0.00000000000E+00 0. -1.
<mgrwt>
<rscale>  0 0.20578269E+01</rscale>
<asrwt>0</asrwt>
<pdfrwt beam="1">0</pdfrwt>
<pdfrwt beam="2">0</pdfrwt>
<totfact> 0.31050920E+12</totfact>
</mgrwt>
</event>
<event>
 4    2  0.1993797E+006  0.2162726E+01  0.7546771E-02  0.2878919E+00
         22   -1    0    0    0    0  0.00000000000E+00  0.00000000000E+00  0.54826470375E+00  0.54826470375E+00  0.00000000000E+00 0.  1.
         22   -1    0    0    0    0 -0.00000000000E+00 -0.00000000000E+00 -0.14275130608E+02  0.14275130608E+02  0.00000000000E+00 0. -1.
          4    1    1    2  501    0  0.58975831837E+00 -0.20807616877E+01 -0.21619994784E+01  0.30580428087E+01  0.00000000000E+00 0.  1.
         -4    1    1    2    0  501 -0.58975831837E+00  0.20807616877E+01 -0.11564866426E+02  0.11765352503E+02  0.00000000000E+00 0. -1.
<mgrwt>
<rscale>  0 0.21627261E+01</rscale>
<asrwt>0</asrwt>
<pdfrwt beam="1">0</pdfrwt>
<pdfrwt beam="2">0</pdfrwt>
<totfact> 0.20351428E+12</totfact>
</mgrwt>
</event>
<event>
 4    2  0.1993797E+006  0.2260270E+01  0.7546771E-02  0.2824687E+00
         22   -1    0    0    0    0  0.00000000000E+00  0.00000000000E+00  0.24848866840E+00  0.24848866840E+00  0.00000000000E+00 0.  1.
         22   -1    0    0    0    0 -0.00000000000E+00 -0.00000000000E+00 -0.21056713164E+02  0.21056713164E+02  0.00000000000E+00 0. -1.
          4    1    1    2  501    0  0.14460100764E+01 -0.17372031263E+01 -0.12040935104E+02  0.12251242305E+02  0.00000000000E+00 0.  1.
         -4    1    1    2    0  501 -0.14460100764E+01  0.17372031263E+01 -0.87672893918E+01  0.90539595273E+01  0.00000000000E+00 0. -1.
<mgrwt>
<rscale>  0 0.22602699E+01</rscale>
<asrwt>0</asrwt>
<pdfrwt beam="1">0</pdfrwt>
<pdfrwt beam="2">0</pdfrwt>
<totfact> 0.30616126E+12</totfact>
</mgrwt>
</event>
<event>
 4    2  0.1993797E+006  0.2810342E+01  0.7546771E-02  0.2585739E+00
         22   -1    0    0    0    0  0.00000000000E+00  0.00000000000E+00  0.21466568814E+01  0.21466568814E+01  0.00000000000E+00 0. -1.
         22   -1    0    0    0    0 -0.00000000000E+00 -0.00000000000E+00 -0.40133513897E+01  0.40133513897E+01  0.00000000000E+00 0.  1.
          4    1    1    2  501    0  0.23937260782E+01 -0.14724469183E+01 -0.44645820372E-01  0.28106970157E+01  0.00000000000E+00 0.  1.
         -4    1    1    2    0  501 -0.23937260782E+01  0.14724469183E+01 -0.18220486878E+01  0.33493112554E+01  0.00000000000E+00 0. -1.
<mgrwt>
<rscale>  0 0.28103424E+01</rscale>
<asrwt>0</asrwt>
<pdfrwt beam="1">0</pdfrwt>
<pdfrwt beam="2">0</pdfrwt>
<totfact> 0.19582989E+12</totfact>
</mgrwt>
</event>
<event>
 4    2  0.1993797E+006  0.2678535E+01  0.7546771E-02  0.2634695E+00
         22   -1    0    0    0    0  0.00000000000E+00  0.00000000000E+00  0.10918682376E+01  0.10918682376E+01  0.00000000000E+00 0. -1.
         22   -1    0    0    0    0 -0.00000000000E+00 -0.00000000000E+00 -0.67567151512E+01  0.67567151512E+01  0.00000000000E+00 0.  1.
          4    1    1    2  501    0  0.65034522827E+00 -0.25983847134E+01 -0.21816357294E+01  0.34545747192E+01  0.00000000000E+00 0.  1.
         -4    1    1    2    0  501 -0.65034522827E+00  0.25983847134E+01 -0.34832111841E+01  0.43940086696E+01  0.00000000000E+00 0. -1.
<mgrwt>
<rscale>  0 0.26785354E+01</rscale>
<asrwt>0</asrwt>
<pdfrwt beam="1">0</pdfrwt>
<pdfrwt beam="2">0</pdfrwt>
<totfact> 0.22996778E+12</totfact>
</mgrwt>
</event>
<event>
 4    2  0.1993797E+006  0.4461678E+01  0.7546771E-02  0.2196870E+00
         22   -1    0    0    0    0  0.00000000000E+00  0.00000000000E+00  0.34992334546E+01  0.34992334546E+01  0.00000000000E+00 0. -1.
         22   -1    0    0    0    0 -0.00000000000E+00 -0.00000000000E+00 -0.11954339007E+02  0.11954339007E+02  0.00000000000E+00 0.  1.
          4    1    1    2  501    0 -0.72299711734E+00 -0.44027090212E+01  0.13663385157E+01  0.46662032207E+01  0.00000000000E+00 0. -1.
         -4    1    1    2    0  501  0.72299711734E+00  0.44027090212E+01 -0.98214440685E+01  0.10787369241E+02  0.00000000000E+00 0.  1.
<mgrwt>
<rscale>  0 0.44616781E+01</rscale>
<asrwt>0</asrwt>
<pdfrwt beam="1">0</pdfrwt>
<pdfrwt beam="2">0</pdfrwt>
<totfact> 0.30015220E+11</totfact>
</mgrwt>
</event>
<event>
 4    2  0.1993797E+006  0.3718330E+01  0.7546771E-02  0.2334603E+00
         22   -1    0    0    0    0  0.00000000000E+00  0.00000000000E+00  0.11400698793E+01  0.11400698793E+01  0.00000000000E+00 0.  1.
         22   -1    0    0    0    0 -0.00000000000E+00 -0.00000000000E+00 -0.16379871763E+02  0.16379871763E+02  0.00000000000E+00 0. -1.
          4    1    1    2  501    0 -0.31404883678E+01 -0.19908061486E+01 -0.31564277661E+01  0.48773981335E+01  0.00000000000E+00 0.  1.
         -4    1    1    2    0  501  0.31404883678E+01  0.19908061486E+01 -0.12083374118E+02  0.12642543509E+02  0.00000000000E+00 0. -1.
<mgrwt>
<rscale>  0 0.37183298E+01</rscale>
<asrwt>0</asrwt>
<pdfrwt beam="1">0</pdfrwt>
<pdfrwt beam="2">0</pdfrwt>
<totfact> 0.74714865E+11</totfact>
</mgrwt>
</event>
<event>
 4    2  0.1993797E+006  0.2105569E+01  0.7546771E-02  0.2912938E+00
         22   -1    0    0    0    0  0.00000000000E+00  0.00000000000E+00  0.21857503407E+01  0.21857503407E+01  0.00000000000E+00 0.  1.
         22   -1    0    0    0    0 -0.00000000000E+00 -0.00000000000E+00 -0.19146247709E+02  0.19146247709E+02  0.00000000000E+00 0. -1.
          4    1    1    2  501    0 -0.19036022256E+01  0.89984457244E+00  0.16049666999E+01  0.26475157782E+01  0.00000000000E+00 0.  1.
         -4    1    1    2    0  501  0.19036022256E+01 -0.89984457244E+00 -0.18565464068E+02  0.18684482271E+02  0.00000000000E+00 0. -1.
<mgrwt>
<rscale>  0 0.21055692E+01</rscale>
<asrwt>0</asrwt>
<pdfrwt beam="1">0</pdfrwt>
<pdfrwt beam="2">0</pdfrwt>
<totfact> 0.29088617E+11</totfact>
</mgrwt>
</event>
<event>
 4    2  0.1993797E+006  0.2029303E+01  0.7546771E-02  0.2961222E+00
         22   -1    0    0    0    0  0.00000000000E+00  0.00000000000E+00  0.13936185918E+02  0.13936185918E+02  0.00000000000E+00 0.  1.
         22   -1    0    0    0    0 -0.00000000000E+00 -0.00000000000E+00 -0.96631236526E+00  0.96631236526E+00  0.00000000000E+00 0. -1.
          4    1    1    2  501    0 -0.19656123278E+01 -0.50441761938E+00  0.12693234911E+02  0.12854426532E+02  0.00000000000E+00 0.  1.
         -4    1    1    2    0  501  0.19656123278E+01  0.50441761938E+00  0.27663864093E+00  0.20480717506E+01  0.00000000000E+00 0. -1.
<mgrwt>
<rscale>  0 0.20293026E+01</rscale>
<asrwt>0</asrwt>
<pdfrwt beam="1">0</pdfrwt>
<pdfrwt beam="2">0</pdfrwt>
<totfact> 0.11010547E+12</totfact>
</mgrwt>
</event>
<event>
 4    2  0.1993797E+006  0.2407280E+01  0.7546771E-02  0.2750874E+00
         22   -1    0    0    0    0  0.00000000000E+00  0.00000000000E+00  0.15115011370E+01  0.15115011370E+01  0.00000000000E+00 0. -1.
         22   -1    0    0    0    0 -0.00000000000E+00 -0.00000000000E+00 -0.38440002958E+01  0.38440002958E+01  0.00000000000E+00 0.  1.
          4    1    1    2  501    0 -0.20744561321E+01  0.12213229484E+01 -0.13032680764E+01  0.27374268332E+01  0.00000000000E+00 0. -1.
         -4    1    1    2    0  501  0.20744561321E+01 -0.12213229484E+01 -0.10292310823E+01  0.26180745996E+01  0.00000000000E+00 0.  1.
<mgrwt>
<rscale>  0 0.24072802E+01</rscale>
<asrwt>0</asrwt>
<pdfrwt beam="1">0</pdfrwt>
<pdfrwt beam="2">0</pdfrwt>
<totfact> 0.30892331E+12</totfact>
</mgrwt>
</event>
<event>
 4    2  0.1993797E+006  0.2301198E+01  0.7546771E-02  0.2803241E+00
         22   -1    0    0    0    0  0.00000000000E+00  0.00000000000E+00  0.25944125061E+00  0.25944125061E+00  0.00000000000E+00 0. -1.
         22   -1    0    0    0    0 -0.00000000000E+00 -0.00000000000E+00 -0.20446836702E+02  0.20446836702E+02  0.00000000000E+00 0.  1.
          4    1    1    2  501    0  0.55140497580E+00 -0.22341591380E+01 -0.10525751159E+02  0.10774365501E+02  0.00000000000E+00 0. -1.
         -4    1    1    2    0  501 -0.55140497580E+00  0.22341591380E+01 -0.96616442926E+01  0.99319124512E+01  0.00000000000E+00 0.  1.
<mgrwt>
<rscale>  0 0.23011985E+01</rscale>
<asrwt>0</asrwt>
<pdfrwt beam="1">0</pdfrwt>
<pdfrwt beam="2">0</pdfrwt>
<totfact> 0.30265006E+12</totfact>
</mgrwt>
</event>
<event>
 4    2  0.1993797E+006  0.2246027E+01  0.7546771E-02  0.2832325E+00
         22   -1    0    0    0    0  0.00000000000E+00  0.00000000000E+00  0.12931354192E+02  0.12931354192E+02  0.00000000000E+00 0.  1.
         22   -1    0    0    0    0 -0.00000000000E+00 -0.00000000000E+00 -0.95396983153E+01  0.95396983153E+01  0.00000000000E+00 0. -1.
          4    1    1    2  501    0 -0.70912587057E+00  0.21311450117E+01  0.12699227848E+02  0.12896318331E+02  0.00000000000E+00 0.  1.
         -4    1    1    2    0  501  0.70912587057E+00 -0.21311450117E+01 -0.93075719709E+01  0.95747341767E+01  0.00000000000E+00 0. -1.
<mgrwt>
<rscale>  0 0.22460273E+01</rscale>
<asrwt>0</asrwt>
<pdfrwt beam="1">0</pdfrwt>
<pdfrwt beam="2">0</pdfrwt>
<totfact> 0.82700107E+10</totfact>
</mgrwt>
</event>
<event>
 4    2  0.1993797E+006  0.2276679E+01  0.7546771E-02  0.2816001E+00
         22   -1    0    0    0    0  0.00000000000E+00  0.00000000000E+00  0.14501316124E+01  0.14501316124E+01  0.00000000000E+00 0. -1.
         22   -1    0    0    0    0 -0.00000000000E+00 -0.00000000000E+00 -0.16545988525E+02  0.16545988525E+02  0.00000000000E+00 0.  1.
          4    1    1    2  501    0  0.33360272564E-01 -0.22764347066E+01  0.41916778864E+00  0.23149448192E+01  0.00000000000E+00 0. -1.
         -4    1    1    2    0  501 -0.33360272564E-01  0.22764347066E+01 -0.15515024702E+02  0.15681175319E+02  0.00000000000E+00 0.  1.
<mgrwt>
<rscale>  0 0.22766791E+01</rscale>
<asrwt>0</asrwt>
<pdfrwt beam="1">0</pdfrwt>
<pdfrwt beam="2">0</pdfrwt>
<totfact> 0.55989741E+11</totfact>
</mgrwt>
</event>
<event>
 4    2  0.1993797E+006  0.2416777E+01  0.7546771E-02  0.2746397E+00
         22   -1    0    0    0    0  0.00000000000E+00  0.00000000000E+00  0.25419769238E+00  0.25419769238E+00  0.00000000000E+00 0.  1.
         22   -1    0    0    0    0 -0.00000000000E+00 -0.00000000000E+00 -0.23800604047E+02  0.23800604047E+02  0.00000000000E+00 0. -1.
          4    1    1    2  501    0 -0.58030308158E+00  0.23460735319E+01 -0.95364373581E+01  0.98379088311E+01  0.00000000000E+00 0.  1.
         -4    1    1    2    0  501  0.58030308158E+00 -0.23460735319E+01 -0.14009968997E+02  0.14216892909E+02  0.00000000000E+00 0. -1.
<mgrwt>
<rscale>  0 0.24167773E+01</rscale>
<asrwt>0</asrwt>
<pdfrwt beam="1">0</pdfrwt>
<pdfrwt beam="2">0</pdfrwt>
<totfact> 0.25598296E+12</totfact>
</mgrwt>
</event>
<event>
 4    2  0.1993797E+006  0.3571452E+01  0.7546771E-02  0.2367552E+00
         22   -1    0    0    0    0  0.00000000000E+00  0.00000000000E+00  0.17200399424E+02  0.17200399424E+02  0.00000000000E+00 0.  1.
         22   -1    0    0    0    0 -0.00000000000E+00 -0.00000000000E+00 -0.74886101451E+00  0.74886101451E+00  0.00000000000E+00 0. -1.
          4    1    1    2  501    0 -0.30753044684E+00  0.35581868358E+01  0.73401138393E+01  0.81628757009E+01  0.00000000000E+00 0. -1.
         -4    1    1    2    0  501  0.30753044684E+00 -0.35581868358E+01  0.91114245700E+01  0.97863847374E+01  0.00000000000E+00 0.  1.
<mgrwt>
<rscale>  0 0.35714519E+01</rscale>
<asrwt>0</asrwt>
<pdfrwt beam="1">0</pdfrwt>
<pdfrwt beam="2">0</pdfrwt>
<totfact> 0.11358336E+12</totfact>
</mgrwt>
</event>
<event>
 4    2  0.1993797E+006  0.2545386E+01  0.7546771E-02  0.2688853E+00
         22   -1    0    0    0    0  0.00000000000E+00  0.00000000000E+00  0.84602942146E+01  0.84602942146E+01  0.00000000000E+00 0.  1.
         22   -1    0    0    0    0 -0.00000000000E+00 -0.00000000000E+00 -0.15734218879E+01  0.15734218879E+01  0.00000000000E+00 0. -1.
          4    1    1    2  501    0 -0.25327894840E+01  0.25292017492E+00  0.70377016209E+01  0.74838649968E+01  0.00000000000E+00 0.  1.
         -4    1    1    2    0  501  0.25327894840E+01 -0.25292017492E+00 -0.15082929420E+00  0.25498511056E+01  0.00000000000E+00 0. -1.
<mgrwt>
<rscale>  0 0.25453863E+01</rscale>
<asrwt>0</asrwt>
<pdfrwt beam="1">0</pdfrwt>
<pdfrwt beam="2">0</pdfrwt>
<totfact> 0.11546689E+12</totfact>
</mgrwt>
</event>
<event>
 4    2  0.1993797E+006  0.2278059E+01  0.7546771E-02  0.2815276E+00
         22   -1    0    0    0    0  0.00000000000E+00  0.00000000000E+00  0.49907317443E+02  0.49907317443E+02  0.00000000000E+00 0.  1.
         22   -1    0    0    0    0 -0.00000000000E+00 -0.00000000000E+00 -0.11610669702E+00  0.11610669702E+00  0.00000000000E+00 0. -1.
          4    1    1    2  501    0 -0.21781315168E+01  0.66730557149E+00  0.32977582056E+02  0.33056171465E+02  0.00000000000E+00 0. -1.
         -4    1    1    2    0  501  0.21781315168E+01 -0.66730557149E+00  0.16813628690E+02  0.16967252675E+02  0.00000000000E+00 0.  1.
<mgrwt>
<rscale>  0 0.22780592E+01</rscale>
<asrwt>0</asrwt>
<pdfrwt beam="1">0</pdfrwt>
<pdfrwt beam="2">0</pdfrwt>
<totfact> 0.23634770E+12</totfact>
</mgrwt>
</event>
<event>
 4    2  0.1993797E+006  0.2698218E+01  0.7546771E-02  0.2627107E+00
         22   -1    0    0    0    0  0.00000000000E+00  0.00000000000E+00  0.35459134131E+01  0.35459134131E+01  0.00000000000E+00 0. -1.
         22   -1    0    0    0    0 -0.00000000000E+00 -0.00000000000E+00 -0.93490699482E+01  0.93490699482E+01  0.00000000000E+00 0.  1.
          4    1    1    2  501    0 -0.26598937392E+01 -0.45315323407E+00  0.27941053462E+01  0.38842511817E+01  0.00000000000E+00 0. -1.
         -4    1    1    2    0  501  0.26598937392E+01  0.45315323407E+00 -0.85972618813E+01  0.90107321796E+01  0.00000000000E+00 0.  1.
<mgrwt>
<rscale>  0 0.26982184E+01</rscale>
<asrwt>0</asrwt>
<pdfrwt beam="1">0</pdfrwt>
<pdfrwt beam="2">0</pdfrwt>
<totfact> 0.39822391E+11</totfact>
</mgrwt>
</event>
<event>
 4    2  0.1993797E+006  0.2464950E+01  0.7546771E-02  0.2724187E+00
         22   -1    0    0    0    0  0.00000000000E+00  0.00000000000E+00  0.27841014057E+00  0.27841014057E+00  0.00000000000E+00 0.  1.
         22   -1    0    0    0    0 -0.00000000000E+00 -0.00000000000E+00 -0.45318374118E+02  0.45318374118E+02  0.00000000000E+00 0. -1.
          4    1    1    2  501    0  0.24523588035E+01  0.24882450299E+00 -0.61046181928E+01  0.65834900026E+01  0.00000000000E+00 0.  1.
         -4    1    1    2    0  501 -0.24523588035E+01 -0.24882450299E+00 -0.38935345785E+02  0.39013294256E+02  0.00000000000E+00 0. -1.
<mgrwt>
<rscale>  0 0.24649498E+01</rscale>
<asrwt>0</asrwt>
<pdfrwt beam="1">0</pdfrwt>
<pdfrwt beam="2">0</pdfrwt>
<totfact> 0.10124693E+12</totfact>
</mgrwt>
</event>
<event>
 4    2  0.1993797E+006  0.4355355E+01  0.7546771E-02  0.2214112E+00
         22   -1    0    0    0    0  0.00000000000E+00  0.00000000000E+00  0.15992624613E+03  0.15992624613E+03  0.00000000000E+00 0.  1.
         22   -1    0    0    0    0 -0.00000000000E+00 -0.00000000000E+00 -0.13814526347E+01  0.13814526347E+01  0.00000000000E+00 0. -1.
          4    1    1    2  501    0  0.38286723821E+01  0.20761456868E+01  0.15638607827E+03  0.15644671486E+03  0.00000000000E+00 0.  1.
         -4    1    1    2    0  501 -0.38286723821E+01 -0.20761456868E+01  0.21587152257E+01  0.48609839073E+01  0.00000000000E+00 0. -1.
<mgrwt>
<rscale>  0 0.43553545E+01</rscale>
<asrwt>0</asrwt>
<pdfrwt beam="1">0</pdfrwt>
<pdfrwt beam="2">0</pdfrwt>
<totfact> 0.28547338E+10</totfact>
</mgrwt>
</event>
<event>
 4    2  0.1993797E+006  0.2017730E+01  0.7546771E-02  0.2968860E+00
         22   -1    0    0    0    0  0.00000000000E+00  0.00000000000E+00  0.16785881951E+01  0.16785881951E+01  0.00000000000E+00 0. -1.
         22   -1    0    0    0    0 -0.00000000000E+00 -0.00000000000E+00 -0.58380317982E+01  0.58380317982E+01  0.00000000000E+00 0.  1.
          4    1    1    2  501    0 -0.85209670210E+00 -0.18289789738E+01  0.79373487530E+00  0.21682361331E+01  0.00000000000E+00 0.  1.
         -4    1    1    2    0  501  0.85209670210E+00  0.18289789738E+01 -0.49531784785E+01  0.53483838602E+01  0.00000000000E+00 0. -1.
<mgrwt>
<rscale>  0 0.20177296E+01</rscale>
<asrwt>0</asrwt>
<pdfrwt beam="1">0</pdfrwt>
<pdfrwt beam="2">0</pdfrwt>
<totfact> 0.16702941E+12</totfact>
</mgrwt>
</event>
<event>
 4    2  0.1993797E+006  0.2031346E+01  0.7546771E-02  0.2959882E+00
         22   -1    0    0    0    0  0.00000000000E+00  0.00000000000E+00  0.51048038711E+01  0.51048038711E+01  0.00000000000E+00 0.  1.
         22   -1    0    0    0    0 -0.00000000000E+00 -0.00000000000E+00 -0.20257832343E+01  0.20257832343E+01  0.00000000000E+00 0. -1.
          4    1    1    2  501    0 -0.18413536484E+01 -0.85777705708E+00  0.43034273336E+01  0.47587657595E+01  0.00000000000E+00 0.  1.
         -4    1    1    2    0  501  0.18413536484E+01  0.85777705708E+00 -0.12244066967E+01  0.23718213459E+01  0.00000000000E+00 0. -1.
<mgrwt>
<rscale>  0 0.20313455E+01</rscale>
<asrwt>0</asrwt>
<pdfrwt beam="1">0</pdfrwt>
<pdfrwt beam="2">0</pdfrwt>
<totfact> 0.15763080E+12</totfact>
</mgrwt>
</event>
<event>
 4    2  0.1993797E+006  0.2437079E+01  0.7546771E-02  0.2736937E+00
         22   -1    0    0    0    0  0.00000000000E+00  0.00000000000E+00  0.36279858971E+02  0.36279858971E+02  0.00000000000E+00 0. -1.
         22   -1    0    0    0    0 -0.00000000000E+00 -0.00000000000E+00 -0.16421064346E+00  0.16421064346E+00  0.00000000000E+00 0.  1.
          4    1    1    2  501    0 -0.16774298109E+01 -0.17679317222E+01  0.19064588295E+02  0.19219726330E+02  0.00000000000E+00 0. -1.
         -4    1    1    2    0  501  0.16774298109E+01  0.17679317222E+01  0.17051060032E+02  0.17224343284E+02  0.00000000000E+00 0.  1.
<mgrwt>
<rscale>  0 0.24370789E+01</rscale>
<asrwt>0</asrwt>
<pdfrwt beam="1">0</pdfrwt>
<pdfrwt beam="2">0</pdfrwt>
<totfact> 0.24371578E+12</totfact>
</mgrwt>
</event>
<event>
 4    2  0.1993797E+006  0.2048138E+01  0.7546771E-02  0.2948972E+00
         22   -1    0    0    0    0  0.00000000000E+00  0.00000000000E+00  0.82431208879E+01  0.82431208879E+01  0.00000000000E+00 0. -1.
         22   -1    0    0    0    0 -0.00000000000E+00 -0.00000000000E+00 -0.50985168923E+00  0.50985168923E+00  0.00000000000E+00 0.  1.
          4    1    1    2  501    0 -0.18233241040E+01  0.93292928887E+00  0.40563952064E+01  0.45441401736E+01  0.00000000000E+00 0. -1.
         -4    1    1    2    0  501  0.18233241040E+01 -0.93292928887E+00  0.36768739923E+01  0.42088324036E+01  0.00000000000E+00 0.  1.
<mgrwt>
<rscale>  0 0.20481377E+01</rscale>
<asrwt>0</asrwt>
<pdfrwt beam="1">0</pdfrwt>
<pdfrwt beam="2">0</pdfrwt>
<totfact> 0.43048516E+12</totfact>
</mgrwt>
</event>
<event>
 4    2  0.1993797E+006  0.3308785E+01  0.7546771E-02  0.2432773E+00
         22   -1    0    0    0    0  0.00000000000E+00  0.00000000000E+00  0.56724207640E+01  0.56724207640E+01  0.00000000000E+00 0.  1.
         22   -1    0    0    0    0 -0.00000000000E+00 -0.00000000000E+00 -0.19961543445E+01  0.19961543445E+01  0.00000000000E+00 0. -1.
          4    1    1    2  501    0  0.16574847745E+01 -0.28637042590E+01  0.25358856569E+01  0.41687856656E+01  0.00000000000E+00 0.  1.
         -4    1    1    2    0  501 -0.16574847745E+01  0.28637042590E+01  0.11403807626E+01  0.34997894429E+01  0.00000000000E+00 0. -1.
<mgrwt>
<rscale>  0 0.33087850E+01</rscale>
<asrwt>0</asrwt>
<pdfrwt beam="1">0</pdfrwt>
<pdfrwt beam="2">0</pdfrwt>
<totfact> 0.14150339E+12</totfact>
</mgrwt>
</event>
<event>
 4    2  0.1993797E+006  0.3257845E+01  0.7546771E-02  0.2446485E+00
         22   -1    0    0    0    0  0.00000000000E+00  0.00000000000E+00  0.58929342172E+01  0.58929342172E+01  0.00000000000E+00 0. -1.
         22   -1    0    0    0    0 -0.00000000000E+00 -0.00000000000E+00 -0.18381843264E+01  0.18381843264E+01  0.00000000000E+00 0.  1.
          4    1    1    2  501    0 -0.94251557566E+00  0.31185283977E+01  0.14780612588E+01  0.35774600016E+01  0.00000000000E+00 0. -1.
         -4    1    1    2    0  501  0.94251557566E+00 -0.31185283977E+01  0.25766886320E+01  0.41536585421E+01  0.00000000000E+00 0.  1.
<mgrwt>
<rscale>  0 0.32578451E+01</rscale>
<asrwt>0</asrwt>
<pdfrwt beam="1">0</pdfrwt>
<pdfrwt beam="2">0</pdfrwt>
<totfact> 0.14875679E+12</totfact>
</mgrwt>
</event>
<event>
 4    2  0.1993797E+006  0.3093125E+01  0.7546771E-02  0.2493546E+00
         22   -1    0    0    0    0  0.00000000000E+00  0.00000000000E+00  0.68999099704E+01  0.68999099704E+01  0.00000000000E+00 0. -1.
         22   -1    0    0    0    0 -0.00000000000E+00 -0.00000000000E+00 -0.13866083552E+01  0.13866083552E+01  0.00000000000E+00 0.  1.
          4    1    1    2  501    0  0.81047224384E+00 -0.29850558607E+01  0.27660335780E+01  0.41495018381E+01  0.00000000000E+00 0.  1.
         -4    1    1    2    0  501 -0.81047224384E+00  0.29850558607E+01  0.27472680372E+01  0.41370164875E+01  0.00000000000E+00 0. -1.
<mgrwt>
<rscale>  0 0.30931252E+01</rscale>
<asrwt>0</asrwt>
<pdfrwt beam="1">0</pdfrwt>
<pdfrwt beam="2">0</pdfrwt>
<totfact> 0.17053815E+12</totfact>
</mgrwt>
</event>
<event>
 4    2  0.1993797E+006  0.2765707E+01  0.7546771E-02  0.2601841E+00
         22   -1    0    0    0    0  0.00000000000E+00  0.00000000000E+00  0.99841970947E+01  0.99841970947E+01  0.00000000000E+00 0.  1.
         22   -1    0    0    0    0 -0.00000000000E+00 -0.00000000000E+00 -0.91541232040E+00  0.91541232040E+00  0.00000000000E+00 0. -1.
          4    1    1    2  501    0  0.24179986924E+01 -0.13425409768E+01  0.67352165361E+01  0.72809529417E+01  0.00000000000E+00 0.  1.
         -4    1    1    2    0  501 -0.24179986924E+01  0.13425409768E+01  0.23335682383E+01  0.36186564735E+01  0.00000000000E+00 0. -1.
<mgrwt>
<rscale>  0 0.27657068E+01</rscale>
<asrwt>0</asrwt>
<pdfrwt beam="1">0</pdfrwt>
<pdfrwt beam="2">0</pdfrwt>
<totfact> 0.17585551E+12</totfact>
</mgrwt>
</event>
<event>
 4    2  0.1993797E+006  0.2187753E+01  0.7546771E-02  0.2864563E+00
         22   -1    0    0    0    0  0.00000000000E+00  0.00000000000E+00  0.35569401717E+02  0.35569401717E+02  0.00000000000E+00 0.  1.
         22   -1    0    0    0    0 -0.00000000000E+00 -0.00000000000E+00 -0.42208192694E+00  0.42208192694E+00  0.00000000000E+00 0. -1.
          4    1    1    2  501    0 -0.21527830393E+01  0.38960248384E+00  0.32426375982E+02  0.32500094219E+02  0.00000000000E+00 0.  1.
         -4    1    1    2    0  501  0.21527830393E+01 -0.38960248384E+00  0.27209438073E+01  0.34913894243E+01  0.00000000000E+00 0. -1.
<mgrwt>
<rscale>  0 0.21877534E+01</rscale>
<asrwt>0</asrwt>
<pdfrwt beam="1">0</pdfrwt>
<pdfrwt beam="2">0</pdfrwt>
<totfact> 0.86886619E+11</totfact>
</mgrwt>
</event>
<event>
 4    2  0.1993797E+006  0.2428154E+01  0.7546771E-02  0.2741078E+00
         22   -1    0    0    0    0  0.00000000000E+00  0.00000000000E+00  0.49314889179E+01  0.49314889179E+01  0.00000000000E+00 0. -1.
         22   -1    0    0    0    0 -0.00000000000E+00 -0.00000000000E+00 -0.11957619461E+01  0.11957619461E+01  0.00000000000E+00 0.  1.
          4    1    1    2  501    0  0.20004129490E+01 -0.13763280983E+01  0.18288599153E+01  0.30398453235E+01  0.00000000000E+00 0.  1.
         -4    1    1    2    0  501 -0.20004129490E+01  0.13763280983E+01  0.19068670564E+01  0.30874055405E+01  0.00000000000E+00 0. -1.
<mgrwt>
<rscale>  0 0.24281538E+01</rscale>
<asrwt>0</asrwt>
<pdfrwt beam="1">0</pdfrwt>
<pdfrwt beam="2">0</pdfrwt>
<totfact> 0.30135962E+12</totfact>
</mgrwt>
</event>
<event>
 4    2  0.1993797E+006  0.2315432E+01  0.7546771E-02  0.2795952E+00
         22   -1    0    0    0    0  0.00000000000E+00  0.00000000000E+00  0.64084095098E+01  0.64084095098E+01  0.00000000000E+00 0.  1.
         22   -1    0    0    0    0 -0.00000000000E+00 -0.00000000000E+00 -0.87473752598E+00  0.87473752598E+00  0.00000000000E+00 0. -1.
          4    1    1    2  501    0 -0.43300960706E+00  0.22745829158E+01  0.35272873597E+01  0.42193578751E+01  0.00000000000E+00 0. -1.
         -4    1    1    2    0  501  0.43300960706E+00 -0.22745829158E+01  0.20063846242E+01  0.30637891607E+01  0.00000000000E+00 0.  1.
<mgrwt>
<rscale>  0 0.23154319E+01</rscale>
<asrwt>0</asrwt>
<pdfrwt beam="1">0</pdfrwt>
<pdfrwt beam="2">0</pdfrwt>
<totfact> 0.31550946E+12</totfact>
</mgrwt>
</event>
<event>
 4    2  0.1993797E+006  0.2498681E+01  0.7546771E-02  0.2709112E+00
         22   -1    0    0    0    0  0.00000000000E+00  0.00000000000E+00  0.14480349794E+01  0.14480349794E+01  0.00000000000E+00 0. -1.
         22   -1    0    0    0    0 -0.00000000000E+00 -0.00000000000E+00 -0.52084417491E+01  0.52084417491E+01  0.00000000000E+00 0.  1.
          4    1    1    2  501    0 -0.87255233143E+00  0.23413798937E+01 -0.49915646888E+00  0.25480511294E+01  0.00000000000E+00 0. -1.
         -4    1    1    2    0  501  0.87255233143E+00 -0.23413798937E+01 -0.32612503009E+01  0.41084255990E+01  0.00000000000E+00 0.  1.
<mgrwt>
<rscale>  0 0.24986811E+01</rscale>
<asrwt>0</asrwt>
<pdfrwt beam="1">0</pdfrwt>
<pdfrwt beam="2">0</pdfrwt>
<totfact> 0.22675945E+12</totfact>
</mgrwt>
</event>
<event>
 4    2  0.1993797E+006  0.2273248E+01  0.7546771E-02  0.2817807E+00
         22   -1    0    0    0    0  0.00000000000E+00  0.00000000000E+00  0.40420560612E+02  0.40420560612E+02  0.00000000000E+00 0. -1.
         22   -1    0    0    0    0 -0.00000000000E+00 -0.00000000000E+00 -0.45149022161E+00  0.45149022161E+00  0.00000000000E+00 0.  1.
          4    1    1    2  501    0 -0.17447784810E+01 -0.14571908241E+01  0.37286895743E+02  0.37356127359E+02  0.00000000000E+00 0. -1.
         -4    1    1    2    0  501  0.17447784810E+01  0.14571908241E+01  0.26821746467E+01  0.35159234748E+01  0.00000000000E+00 0.  1.
<mgrwt>
<rscale>  0 0.22732481E+01</rscale>
<asrwt>0</asrwt>
<pdfrwt beam="1">0</pdfrwt>
<pdfrwt beam="2">0</pdfrwt>
<totfact> 0.68263258E+11</totfact>
</mgrwt>
</event>
<event>
 4    2  0.1993797E+006  0.2043227E+01  0.7546771E-02  0.2952145E+00
         22   -1    0    0    0    0  0.00000000000E+00  0.00000000000E+00  0.37458150789E+02  0.37458150789E+02  0.00000000000E+00 0.  1.
         22   -1    0    0    0    0 -0.00000000000E+00 -0.00000000000E+00 -0.13458282895E+00  0.13458282895E+00  0.00000000000E+00 0. -1.
          4    1    1    2  501    0  0.89049571873E+00 -0.18389650574E+01  0.26454293991E+02  0.26533082099E+02  0.00000000000E+00 0.  1.
         -4    1    1    2    0  501 -0.89049571873E+00  0.18389650574E+01  0.10869273969E+02  0.11059651519E+02  0.00000000000E+00 0. -1.
<mgrwt>
<rscale>  0 0.20432266E+01</rscale>
<asrwt>0</asrwt>
<pdfrwt beam="1">0</pdfrwt>
<pdfrwt beam="2">0</pdfrwt>
<totfact> 0.29173838E+12</totfact>
</mgrwt>
</event>
<event>
 4    2  0.1993797E+006  0.2147183E+01  0.7546771E-02  0.2887997E+00
         22   -1    0    0    0    0  0.00000000000E+00  0.00000000000E+00  0.12402564379E+01  0.12402564379E+01  0.00000000000E+00 0.  1.
         22   -1    0    0    0    0 -0.00000000000E+00 -0.00000000000E+00 -0.13466268183E+02  0.13466268183E+02  0.00000000000E+00 0. -1.
          4    1    1    2  501    0 -0.21267150577E+01 -0.29576478117E+00  0.14355914907E+00  0.21519765267E+01  0.00000000000E+00 0.  1.
         -4    1    1    2    0  501  0.21267150577E+01  0.29576478117E+00 -0.12369570894E+02  0.12554548094E+02  0.00000000000E+00 0. -1.
<mgrwt>
<rscale>  0 0.21471827E+01</rscale>
<asrwt>0</asrwt>
<pdfrwt beam="1">0</pdfrwt>
<pdfrwt beam="2">0</pdfrwt>
<totfact> 0.86318462E+11</totfact>
</mgrwt>
</event>
<event>
 4    2  0.1993797E+006  0.2271707E+01  0.7546771E-02  0.2818621E+00
         22   -1    0    0    0    0  0.00000000000E+00  0.00000000000E+00  0.41559511607E+01  0.41559511607E+01  0.00000000000E+00 0.  1.
         22   -1    0    0    0    0 -0.00000000000E+00 -0.00000000000E+00 -0.15734637715E+01  0.15734637715E+01  0.00000000000E+00 0. -1.
          4    1    1    2  501    0  0.33772128211E+00  0.22464630546E+01  0.26065706652E+01  0.34575804478E+01  0.00000000000E+00 0.  1.
         -4    1    1    2    0  501 -0.33772128211E+00 -0.22464630546E+01 -0.24083275984E-01  0.22718344844E+01  0.00000000000E+00 0. -1.
<mgrwt>
<rscale>  0 0.22717068E+01</rscale>
<asrwt>0</asrwt>
<pdfrwt beam="1">0</pdfrwt>
<pdfrwt beam="2">0</pdfrwt>
<totfact> 0.26907908E+12</totfact>
</mgrwt>
</event>
<event>
 4    2  0.1993797E+006  0.2942475E+01  0.7546771E-02  0.2540677E+00
         22   -1    0    0    0    0  0.00000000000E+00  0.00000000000E+00  0.25233625983E+02  0.25233625983E+02  0.00000000000E+00 0.  1.
         22   -1    0    0    0    0 -0.00000000000E+00 -0.00000000000E+00 -0.47680937159E+00  0.47680937159E+00  0.00000000000E+00 0. -1.
          4    1    1    2  501    0 -0.17748061137E+01  0.23469606435E+01  0.19185404885E+02  0.19409737804E+02  0.00000000000E+00 0.  1.
         -4    1    1    2    0  501  0.17748061137E+01 -0.23469606435E+01  0.55714117259E+01  0.63006975505E+01  0.00000000000E+00 0. -1.
<mgrwt>
<rscale>  0 0.29424753E+01</rscale>
<asrwt>0</asrwt>
<pdfrwt beam="1">0</pdfrwt>
<pdfrwt beam="2">0</pdfrwt>
<totfact> 0.11730414E+12</totfact>
</mgrwt>
</event>
<event>
 4    2  0.1993797E+006  0.2800444E+01  0.7546771E-02  0.2589269E+00
         22   -1    0    0    0    0  0.00000000000E+00  0.00000000000E+00  0.73996173431E+00  0.73996173431E+00  0.00000000000E+00 0. -1.
         22   -1    0    0    0    0 -0.00000000000E+00 -0.00000000000E+00 -0.10704889995E+02  0.10704889995E+02  0.00000000000E+00 0.  1.
          4    1    1    2  501    0  0.27004733567E+01  0.74157196332E+00 -0.44119885985E+01  0.52257180101E+01  0.00000000000E+00 0. -1.
         -4    1    1    2    0  501 -0.27004733567E+01 -0.74157196332E+00 -0.55529396625E+01  0.62191337196E+01  0.00000000000E+00 0.  1.
<mgrwt>
<rscale>  0 0.28004438E+01</rscale>
<asrwt>0</asrwt>
<pdfrwt beam="1">0</pdfrwt>
<pdfrwt beam="2">0</pdfrwt>
<totfact> 0.20588847E+12</totfact>
</mgrwt>
</event>
<event>
 4    2  0.1993797E+006  0.1159686E+02  0.7546771E-02  0.1719572E+00
         22   -1    0    0    0    0  0.00000000000E+00  0.00000000000E+00  0.12997084325E+03  0.12997084325E+03  0.00000000000E+00 0. -1.
         22   -1    0    0    0    0 -0.00000000000E+00 -0.00000000000E+00 -0.12859942882E+01  0.12859942882E+01  0.00000000000E+00 0.  1.
          4    1    1    2  501    0 -0.75081071510E+01 -0.88382971688E+01  0.93350678174E+02  0.94068253334E+02  0.00000000000E+00 0. -1.
         -4    1    1    2    0  501  0.75081071510E+01  0.88382971688E+01  0.35334170790E+02  0.37188584206E+02  0.00000000000E+00 0.  1.
<mgrwt>
<rscale>  0 0.11596860E+02</rscale>
<asrwt>0</asrwt>
<pdfrwt beam="1">0</pdfrwt>
<pdfrwt beam="2">0</pdfrwt>
<totfact> 0.42101681E+10</totfact>
</mgrwt>
</event>
<event>
 4    2  0.1993797E+006  0.2711128E+01  0.7546771E-02  0.2622185E+00
         22   -1    0    0    0    0  0.00000000000E+00  0.00000000000E+00  0.44752286763E+01  0.44752286763E+01  0.00000000000E+00 0. -1.
         22   -1    0    0    0    0 -0.00000000000E+00 -0.00000000000E+00 -0.16738708103E+01  0.16738708103E+01  0.00000000000E+00 0.  1.
          4    1    1    2  501    0  0.16145950032E+01 -0.21779119781E+01  0.97925698588E+00  0.28825616824E+01  0.00000000000E+00 0.  1.
         -4    1    1    2    0  501 -0.16145950032E+01  0.21779119781E+01  0.18221008802E+01  0.32665378042E+01  0.00000000000E+00 0. -1.
<mgrwt>
<rscale>  0 0.27111285E+01</rscale>
<asrwt>0</asrwt>
<pdfrwt beam="1">0</pdfrwt>
<pdfrwt beam="2">0</pdfrwt>
<totfact> 0.22963233E+12</totfact>
</mgrwt>
</event>
<event>
 4    2  0.1993797E+006  0.8521409E+01  0.7546771E-02  0.1847573E+00
         22   -1    0    0    0    0  0.00000000000E+00  0.00000000000E+00  0.45188822224E+02  0.45188822224E+02  0.00000000000E+00 0.  1.
         22   -1    0    0    0    0 -0.00000000000E+00 -0.00000000000E+00 -0.19629317878E+01  0.19629317878E+01  0.00000000000E+00 0. -1.
          4    1    1    2  501    0  0.43163746611E+01  0.73473337658E+01  0.31653393216E+02  0.32780355486E+02  0.00000000000E+00 0.  1.
         -4    1    1    2    0  501 -0.43163746611E+01 -0.73473337658E+01  0.11572497220E+02  0.14371398526E+02  0.00000000000E+00 0. -1.
<mgrwt>
<rscale>  0 0.85214086E+01</rscale>
<asrwt>0</asrwt>
<pdfrwt beam="1">0</pdfrwt>
<pdfrwt beam="2">0</pdfrwt>
<totfact> 0.11032162E+11</totfact>
</mgrwt>
</event>
<event>
 4    2  0.1993797E+006  0.2605164E+01  0.7546771E-02  0.2663907E+00
         22   -1    0    0    0    0  0.00000000000E+00  0.00000000000E+00  0.11739102507E+02  0.11739102507E+02  0.00000000000E+00 0. -1.
         22   -1    0    0    0    0 -0.00000000000E+00 -0.00000000000E+00 -0.77018326073E+00  0.77018326073E+00  0.00000000000E+00 0.  1.
          4    1    1    2  501    0  0.20060866695E+01 -0.16620751043E+01  0.86076745447E+01  0.89932718432E+01  0.00000000000E+00 0. -1.
         -4    1    1    2    0  501 -0.20060866695E+01  0.16620751043E+01  0.23612447020E+01  0.35160139250E+01  0.00000000000E+00 0.  1.
<mgrwt>
<rscale>  0 0.26051636E+01</rscale>
<asrwt>0</asrwt>
<pdfrwt beam="1">0</pdfrwt>
<pdfrwt beam="2">0</pdfrwt>
<totfact> 0.17585783E+12</totfact>
</mgrwt>
</event>
<event>
 4    2  0.1993797E+006  0.2829559E+01  0.7546771E-02  0.2578949E+00
         22   -1    0    0    0    0  0.00000000000E+00  0.00000000000E+00  0.64857428646E+01  0.64857428646E+01  0.00000000000E+00 0.  1.
         22   -1    0    0    0    0 -0.00000000000E+00 -0.00000000000E+00 -0.90476966810E+01  0.90476966810E+01  0.00000000000E+00 0. -1.
          4    1    1    2  501    0 -0.28186369000E+01 -0.24837273680E+00  0.59364775901E+01  0.65763340220E+01  0.00000000000E+00 0.  1.
         -4    1    1    2    0  501  0.28186369000E+01  0.24837273680E+00 -0.84984314065E+01  0.89571055237E+01  0.00000000000E+00 0. -1.
<mgrwt>
<rscale>  0 0.28295588E+01</rscale>
<asrwt>0</asrwt>
<pdfrwt beam="1">0</pdfrwt>
<pdfrwt beam="2">0</pdfrwt>
<totfact> 0.20283654E+11</totfact>
</mgrwt>
</event>
<event>
 4    2  0.1993797E+006  0.3063466E+01  0.7546771E-02  0.2502497E+00
         22   -1    0    0    0    0  0.00000000000E+00  0.00000000000E+00  0.99884580749E+01  0.99884580749E+01  0.00000000000E+00 0. -1.
         22   -1    0    0    0    0 -0.00000000000E+00 -0.00000000000E+00 -0.28471068078E+01  0.28471068078E+01  0.00000000000E+00 0.  1.
          4    1    1    2  501    0 -0.20392889703E+01  0.22860713960E+01  0.88238275139E+01  0.93404900261E+01  0.00000000000E+00 0. -1.
         -4    1    1    2    0  501  0.20392889703E+01 -0.22860713960E+01 -0.16824762469E+01  0.34950748566E+01  0.00000000000E+00 0.  1.
<mgrwt>
<rscale>  0 0.30634657E+01</rscale>
<asrwt>0</asrwt>
<pdfrwt beam="1">0</pdfrwt>
<pdfrwt beam="2">0</pdfrwt>
<totfact> 0.47522768E+11</totfact>
</mgrwt>
</event>
<event>
 4    2  0.1993797E+006  0.4633304E+01  0.7546771E-02  0.2170445E+00
         22   -1    0    0    0    0  0.00000000000E+00  0.00000000000E+00  0.92783535947E+01  0.92783535947E+01  0.00000000000E+00 0. -1.
         22   -1    0    0    0    0 -0.00000000000E+00 -0.00000000000E+00 -0.84011535917E+01  0.84011535917E+01  0.00000000000E+00 0.  1.
          4    1    1    2  501    0 -0.17545135870E+01 -0.42882612249E+01  0.79632768515E+01  0.92131037372E+01  0.00000000000E+00 0. -1.
         -4    1    1    2    0  501  0.17545135870E+01  0.42882612249E+01 -0.70860768485E+01  0.84664034491E+01  0.00000000000E+00 0.  1.
<mgrwt>
<rscale>  0 0.46333036E+01</rscale>
<asrwt>0</asrwt>
<pdfrwt beam="1">0</pdfrwt>
<pdfrwt beam="2">0</pdfrwt>
<totfact> 0.14431026E+11</totfact>
</mgrwt>
</event>
<event>
 4    2  0.1993797E+006  0.2751423E+01  0.7546771E-02  0.2607094E+00
         22   -1    0    0    0    0  0.00000000000E+00  0.00000000000E+00  0.45144804331E+01  0.45144804331E+01  0.00000000000E+00 0. -1.
         22   -1    0    0    0    0 -0.00000000000E+00 -0.00000000000E+00 -0.98177634741E+01  0.98177634741E+01  0.00000000000E+00 0.  1.
          4    1    1    2  501    0  0.54905045248E+00 -0.26960843312E+01  0.38738492269E+01  0.47515297488E+01  0.00000000000E+00 0. -1.
         -4    1    1    2    0  501 -0.54905045248E+00  0.26960843312E+01 -0.91771322680E+01  0.95807141584E+01  0.00000000000E+00 0.  1.
<mgrwt>
<rscale>  0 0.27514227E+01</rscale>
<asrwt>0</asrwt>
<pdfrwt beam="1">0</pdfrwt>
<pdfrwt beam="2">0</pdfrwt>
<totfact> 0.28250361E+11</totfact>
</mgrwt>
</event>
<event>
 4    2  0.1993797E+006  0.2307203E+01  0.7546771E-02  0.2800155E+00
         22   -1    0    0    0    0  0.00000000000E+00  0.00000000000E+00  0.19130880871E+02  0.19130880871E+02  0.00000000000E+00 0. -1.
         22   -1    0    0    0    0 -0.00000000000E+00 -0.00000000000E+00 -0.87749283156E+00  0.87749283156E+00  0.00000000000E+00 0.  1.
          4    1    1    2  501    0  0.18049757648E+01  0.14370977591E+01  0.17393943684E+02  0.17546294890E+02  0.00000000000E+00 0. -1.
         -4    1    1    2    0  501 -0.18049757648E+01 -0.14370977591E+01  0.85944435570E+00  0.24620788129E+01  0.00000000000E+00 0.  1.
<mgrwt>
<rscale>  0 0.23072034E+01</rscale>
<asrwt>0</asrwt>
<pdfrwt beam="1">0</pdfrwt>
<pdfrwt beam="2">0</pdfrwt>
<totfact> 0.83103738E+11</totfact>
</mgrwt>
</event>
<event>
 4    2  0.1993797E+006  0.2318690E+01  0.7546771E-02  0.2794295E+00
         22   -1    0    0    0    0  0.00000000000E+00  0.00000000000E+00  0.38629920482E+01  0.38629920482E+01  0.00000000000E+00 0. -1.
         22   -1    0    0    0    0 -0.00000000000E+00 -0.00000000000E+00 -0.18482395889E+01  0.18482395889E+01  0.00000000000E+00 0.  1.
          4    1    1    2  501    0 -0.17362541619E+01  0.15367963396E+01  0.24265507245E+01  0.33562583218E+01  0.00000000000E+00 0. -1.
         -4    1    1    2    0  501  0.17362541619E+01 -0.15367963396E+01 -0.41179826523E+00  0.23549733152E+01  0.00000000000E+00 0.  1.
<mgrwt>
<rscale>  0 0.23186896E+01</rscale>
<asrwt>0</asrwt>
<pdfrwt beam="1">0</pdfrwt>
<pdfrwt beam="2">0</pdfrwt>
<totfact> 0.24355863E+12</totfact>
</mgrwt>
</event>
<event>
 4    2  0.1993797E+006  0.8240347E+01  0.7546771E-02  0.1862706E+00
         22   -1    0    0    0    0  0.00000000000E+00  0.00000000000E+00  0.28070138616E+02  0.28070138616E+02  0.00000000000E+00 0.  1.
         22   -1    0    0    0    0 -0.00000000000E+00 -0.00000000000E+00 -0.76258853791E+01  0.76258853791E+01  0.00000000000E+00 0. -1.
          4    1    1    2  501    0  0.29623610907E+01  0.76894564997E+01  0.24970063024E+02  0.26294626294E+02  0.00000000000E+00 0.  1.
         -4    1    1    2    0  501 -0.29623610907E+01 -0.76894564997E+01 -0.45258097879E+01  0.94013977008E+01  0.00000000000E+00 0. -1.
<mgrwt>
<rscale>  0 0.82403474E+01</rscale>
<asrwt>0</asrwt>
<pdfrwt beam="1">0</pdfrwt>
<pdfrwt beam="2">0</pdfrwt>
<totfact> 0.41270162E+10</totfact>
</mgrwt>
</event>
<event>
 4    2  0.1993797E+006  0.2517689E+01  0.7546771E-02  0.2700783E+00
         22   -1    0    0    0    0  0.00000000000E+00  0.00000000000E+00  0.38346903821E+00  0.38346903821E+00  0.00000000000E+00 0. -1.
         22   -1    0    0    0    0 -0.00000000000E+00 -0.00000000000E+00 -0.17225584791E+02  0.17225584791E+02  0.00000000000E+00 0.  1.
          4    1    1    2  501    0 -0.52016856310E+00  0.24633679385E+01 -0.66518335719E+01  0.71123587369E+01  0.00000000000E+00 0. -1.
         -4    1    1    2    0  501  0.52016856310E+00 -0.24633679385E+01 -0.10190282181E+02  0.10496695092E+02  0.00000000000E+00 0.  1.
<mgrwt>
<rscale>  0 0.25176888E+01</rscale>
<asrwt>0</asrwt>
<pdfrwt beam="1">0</pdfrwt>
<pdfrwt beam="2">0</pdfrwt>
<totfact> 0.24161107E+12</totfact>
</mgrwt>
</event>
<event>
 4    2  0.1993797E+006  0.2129270E+01  0.7546771E-02  0.2898617E+00
         22   -1    0    0    0    0  0.00000000000E+00  0.00000000000E+00  0.43485971237E+01  0.43485971237E+01  0.00000000000E+00 0.  1.
         22   -1    0    0    0    0 -0.00000000000E+00 -0.00000000000E+00 -0.10581087113E+01  0.10581087113E+01  0.00000000000E+00 0. -1.
          4    1    1    2  501    0 -0.21015965467E+01  0.34217587947E+00  0.19726621073E+01  0.29026174683E+01  0.00000000000E+00 0. -1.
         -4    1    1    2    0  501  0.21015965467E+01 -0.34217587947E+00  0.13178263051E+01  0.25040883667E+01  0.00000000000E+00 0.  1.
<mgrwt>
<rscale>  0 0.21292704E+01</rscale>
<asrwt>0</asrwt>
<pdfrwt beam="1">0</pdfrwt>
<pdfrwt beam="2">0</pdfrwt>
<totfact> 0.40215051E+12</totfact>
</mgrwt>
</event>
<event>
 4    2  0.1993797E+006  0.2551133E+01  0.7546771E-02  0.2686408E+00
         22   -1    0    0    0    0  0.00000000000E+00  0.00000000000E+00  0.22121932697E+00  0.22121932697E+00  0.00000000000E+00 0. -1.
         22   -1    0    0    0    0 -0.00000000000E+00 -0.00000000000E+00 -0.52045263703E+02  0.52045263703E+02  0.00000000000E+00 0.  1.
          4    1    1    2  501    0 -0.22487903906E+01 -0.12046666934E+01 -0.86814707557E+01  0.90485476484E+01  0.00000000000E+00 0. -1.
         -4    1    1    2    0  501  0.22487903906E+01  0.12046666934E+01 -0.43142573620E+02  0.43217935382E+02  0.00000000000E+00 0.  1.
<mgrwt>
<rscale>  0 0.25511331E+01</rscale>
<asrwt>0</asrwt>
<pdfrwt beam="1">0</pdfrwt>
<pdfrwt beam="2">0</pdfrwt>
<totfact> 0.10913904E+12</totfact>
</mgrwt>
</event>
