<event>
 4    2  0.2027839E+006  0.2911796E+01  0.7546771E-02  0.2550810E+00
         22   -1    0    0    0    0  0.00000000000E+00  0.00000000000E+00  0.20064263584E+02  0.20064263584E+02  0.00000000000E+00 0.  1.
         22   -1    0    0    0    0 -0.00000000000E+00 -0.00000000000E+00 -0.11792184417E+01  0.11792184417E+01  0.00000000000E+00 0. -1.
          4    1    1    2  501    0 -0.27899471564E+01 -0.83351572427E+00  0.17950879101E+02  0.18185505605E+02  0.00000000000E+00 0.  1.
         -4    1    1    2    0  501  0.27899471564E+01  0.83351572427E+00  0.93416604100E+00  0.30579764208E+01  0.00000000000E+00 0. -1.
<mgrwt>
<rscale>  0 0.29117956E+01</rscale>
<asrwt>0</asrwt>
<pdfrwt beam="1">0</pdfrwt>
<pdfrwt beam="2">0</pdfrwt>
<totfact> 0.55879193E+11</totfact>
</mgrwt>
</event>
<event>
 4    2  0.2027839E+006  0.2041011E+01  0.7546771E-02  0.2953581E+00
         22   -1    0    0    0    0  0.00000000000E+00  0.00000000000E+00  0.97047908418E+01  0.97047908418E+01  0.00000000000E+00 0. -1.
         22   -1    0    0    0    0 -0.00000000000E+00 -0.00000000000E+00 -0.35914786531E+01  0.35914786531E+01  0.00000000000E+00 0.  1.
          4    1    1    2  501    0  0.58826822359E+00 -0.19543961642E+01  0.92948692603E+01  0.95163185337E+01  0.00000000000E+00 0. -1.
         -4    1    1    2    0  501 -0.58826822359E+00  0.19543961642E+01 -0.31815570715E+01  0.37799509612E+01  0.00000000000E+00 0.  1.
<mgrwt>
<rscale>  0 0.20410105E+01</rscale>
<asrwt>0</asrwt>
<pdfrwt beam="1">0</pdfrwt>
<pdfrwt beam="2">0</pdfrwt>
<totfact> 0.37494854E+11</totfact>
</mgrwt>
</event>
<event>
 4    2  0.2027839E+006  0.2391722E+01  0.7546771E-02  0.2758281E+00
         22   -1    0    0    0    0  0.00000000000E+00  0.00000000000E+00  0.52668506191E+00  0.52668506191E+00  0.00000000000E+00 0.  1.
         22   -1    0    0    0    0 -0.00000000000E+00 -0.00000000000E+00 -0.16497816323E+02  0.16497816323E+02  0.00000000000E+00 0. -1.
          4    1    1    2  501    0 -0.14693802468E+01  0.18871284169E+01 -0.30099398225E+01  0.38444856232E+01  0.00000000000E+00 0.  1.
         -4    1    1    2    0  501  0.14693802468E+01 -0.18871284169E+01 -0.12961191439E+02  0.13180015762E+02  0.00000000000E+00 0. -1.
<mgrwt>
<rscale>  0 0.23917215E+01</rscale>
<asrwt>0</asrwt>
<pdfrwt beam="1">0</pdfrwt>
<pdfrwt beam="2">0</pdfrwt>
<totfact> 0.17820052E+12</totfact>
</mgrwt>
</event>
<event>
 4    2  0.2027839E+006  0.2513838E+01  0.7546771E-02  0.2702461E+00
         22   -1    0    0    0    0  0.00000000000E+00  0.00000000000E+00  0.98957745371E+01  0.98957745371E+01  0.00000000000E+00 0. -1.
         22   -1    0    0    0    0 -0.00000000000E+00 -0.00000000000E+00 -0.10866699168E+01  0.10866699168E+01  0.00000000000E+00 0.  1.
          4    1    1    2  501    0 -0.21990572300E+01  0.12180010154E+01  0.79306646860E+01  0.83195445510E+01  0.00000000000E+00 0. -1.
         -4    1    1    2    0  501  0.21990572300E+01 -0.12180010154E+01  0.87843993431E+00  0.26628999028E+01  0.00000000000E+00 0.  1.
<mgrwt>
<rscale>  0 0.25138375E+01</rscale>
<asrwt>0</asrwt>
<pdfrwt beam="1">0</pdfrwt>
<pdfrwt beam="2">0</pdfrwt>
<totfact> 0.14614243E+12</totfact>
</mgrwt>
</event>
<event>
 4    2  0.2027839E+006  0.2172360E+01  0.7546771E-02  0.2873355E+00
         22   -1    0    0    0    0  0.00000000000E+00  0.00000000000E+00  0.18849443714E+02  0.18849443714E+02  0.00000000000E+00 0.  1.
         22   -1    0    0    0    0 -0.00000000000E+00 -0.00000000000E+00 -0.32685348337E+01  0.32685348337E+01  0.00000000000E+00 0. -1.
          4    1    1    2  501    0  0.85273597528E+00  0.19979966940E+01  0.18417463832E+02  0.18545137461E+02  0.00000000000E+00 0.  1.
         -4    1    1    2    0  501 -0.85273597528E+00 -0.19979966940E+01 -0.28365549522E+01  0.35728410865E+01  0.00000000000E+00 0. -1.
<mgrwt>
<rscale>  0 0.21723603E+01</rscale>
<asrwt>0</asrwt>
<pdfrwt beam="1">0</pdfrwt>
<pdfrwt beam="2">0</pdfrwt>
<totfact> 0.18559920E+11</totfact>
</mgrwt>
</event>
<event>
 4    2  0.2027839E+006  0.3098732E+01  0.7546771E-02  0.2491872E+00
         22   -1    0    0    0    0  0.00000000000E+00  0.00000000000E+00  0.31918374943E+02  0.31918374943E+02  0.00000000000E+00 0. -1.
         22   -1    0    0    0    0 -0.00000000000E+00 -0.00000000000E+00 -0.48399246612E+00  0.48399246612E+00  0.00000000000E+00 0.  1.
          4    1    1    2  501    0  0.46519873633E+00  0.30636137647E+01  0.25683645861E+02  0.25869901505E+02  0.00000000000E+00 0.  1.
         -4    1    1    2    0  501 -0.46519873633E+00 -0.30636137647E+01  0.57507366157E+01  0.65324659040E+01  0.00000000000E+00 0. -1.
<mgrwt>
<rscale>  0 0.30987319E+01</rscale>
<asrwt>0</asrwt>
<pdfrwt beam="1">0</pdfrwt>
<pdfrwt beam="2">0</pdfrwt>
<totfact> 0.85571463E+11</totfact>
</mgrwt>
</event>
<event>
 4    2  0.2027839E+006  0.2108636E+01  0.7546771E-02  0.2911067E+00
         22   -1    0    0    0    0  0.00000000000E+00  0.00000000000E+00  0.76068000852E-01  0.76068000852E-01  0.00000000000E+00 0.  1.
         22   -1    0    0    0    0 -0.00000000000E+00 -0.00000000000E+00 -0.59518126227E+02  0.59518126227E+02  0.00000000000E+00 0. -1.
          4    1    1    2  501    0 -0.97674638110E+00 -0.18687724544E+01 -0.25733465700E+02  0.25819713417E+02  0.00000000000E+00 0. -1.
         -4    1    1    2    0  501  0.97674638110E+00  0.18687724544E+01 -0.33708592525E+02  0.33774480811E+02  0.00000000000E+00 0.  1.
<mgrwt>
<rscale>  0 0.21086356E+01</rscale>
<asrwt>0</asrwt>
<pdfrwt beam="1">0</pdfrwt>
<pdfrwt beam="2">0</pdfrwt>
<totfact> 0.29863430E+12</totfact>
</mgrwt>
</event>
<event>
 4    2  0.2027839E+006  0.2475094E+01  0.7546771E-02  0.2719613E+00
         22   -1    0    0    0    0  0.00000000000E+00  0.00000000000E+00  0.84086115401E+01  0.84086115401E+01  0.00000000000E+00 0.  1.
         22   -1    0    0    0    0 -0.00000000000E+00 -0.00000000000E+00 -0.76576905479E+00  0.76576905479E+00  0.00000000000E+00 0. -1.
          4    1    1    2  501    0  0.15543757779E+01  0.19261375874E+01  0.48327286958E+01  0.54296737206E+01  0.00000000000E+00 0.  1.
         -4    1    1    2    0  501 -0.15543757779E+01 -0.19261375874E+01  0.28101137895E+01  0.37447068743E+01  0.00000000000E+00 0. -1.
<mgrwt>
<rscale>  0 0.24750940E+01</rscale>
<asrwt>0</asrwt>
<pdfrwt beam="1">0</pdfrwt>
<pdfrwt beam="2">0</pdfrwt>
<totfact> 0.26511734E+12</totfact>
</mgrwt>
</event>
<event>
 4    2  0.2027839E+006  0.2523178E+01  0.7546771E-02  0.2698399E+00
         22   -1    0    0    0    0  0.00000000000E+00  0.00000000000E+00  0.35755843724E+02  0.35755843724E+02  0.00000000000E+00 0.  1.
         22   -1    0    0    0    0 -0.00000000000E+00 -0.00000000000E+00 -0.49724351497E+00  0.49724351497E+00  0.00000000000E+00 0. -1.
          4    1    1    2  501    0 -0.29131665849E+00  0.25063040882E+01  0.32152275753E+02  0.32251128068E+02  0.00000000000E+00 0.  1.
         -4    1    1    2    0  501  0.29131665849E+00 -0.25063040882E+01  0.31063244560E+01  0.40019591707E+01  0.00000000000E+00 0. -1.
<mgrwt>
<rscale>  0 0.25231777E+01</rscale>
<asrwt>0</asrwt>
<pdfrwt beam="1">0</pdfrwt>
<pdfrwt beam="2">0</pdfrwt>
<totfact> 0.71743650E+11</totfact>
</mgrwt>
</event>
<event>
 4    2  0.2027839E+006  0.2059196E+01  0.7546771E-02  0.2941881E+00
         22   -1    0    0    0    0  0.00000000000E+00  0.00000000000E+00  0.14991455728E+02  0.14991455728E+02  0.00000000000E+00 0. -1.
         22   -1    0    0    0    0 -0.00000000000E+00 -0.00000000000E+00 -0.46056687584E+00  0.46056687584E+00  0.00000000000E+00 0.  1.
          4    1    1    2  501    0 -0.20453322669E+01  0.23854575662E+00  0.12064734493E+02  0.12239203673E+02  0.00000000000E+00 0. -1.
         -4    1    1    2    0  501  0.20453322669E+01 -0.23854575662E+00  0.24661543593E+01  0.32128189311E+01  0.00000000000E+00 0.  1.
<mgrwt>
<rscale>  0 0.20591960E+01</rscale>
<asrwt>0</asrwt>
<pdfrwt beam="1">0</pdfrwt>
<pdfrwt beam="2">0</pdfrwt>
<totfact> 0.23330819E+12</totfact>
</mgrwt>
</event>
<event>
 4    2  0.2027839E+006  0.2984392E+01  0.7546771E-02  0.2527135E+00
         22   -1    0    0    0    0  0.00000000000E+00  0.00000000000E+00  0.78116951847E+01  0.78116951847E+01  0.00000000000E+00 0. -1.
         22   -1    0    0    0    0 -0.00000000000E+00 -0.00000000000E+00 -0.11793102074E+01  0.11793102074E+01  0.00000000000E+00 0.  1.
          4    1    1    2  501    0 -0.29324046447E+01 -0.55461691923E+00  0.41352623377E+01  0.50997050433E+01  0.00000000000E+00 0. -1.
         -4    1    1    2    0  501  0.29324046447E+01  0.55461691923E+00  0.24971226396E+01  0.38913003488E+01  0.00000000000E+00 0.  1.
<mgrwt>
<rscale>  0 0.29843922E+01</rscale>
<asrwt>0</asrwt>
<pdfrwt beam="1">0</pdfrwt>
<pdfrwt beam="2">0</pdfrwt>
<totfact> 0.17697695E+12</totfact>
</mgrwt>
</event>
<event>
 4    2  0.2027839E+006  0.2782717E+01  0.7546771E-02  0.2595649E+00
         22   -1    0    0    0    0  0.00000000000E+00  0.00000000000E+00  0.80925398701E+00  0.80925398701E+00  0.00000000000E+00 0.  1.
         22   -1    0    0    0    0 -0.00000000000E+00 -0.00000000000E+00 -0.11687596021E+02  0.11687596021E+02  0.00000000000E+00 0. -1.
          4    1    1    2  501    0 -0.13994695148E+01 -0.24052024045E+01 -0.27786777306E+01  0.39325009167E+01  0.00000000000E+00 0.  1.
         -4    1    1    2    0  501  0.13994695148E+01  0.24052024045E+01 -0.80996643030E+01  0.85643490909E+01  0.00000000000E+00 0. -1.
<mgrwt>
<rscale>  0 0.27827169E+01</rscale>
<asrwt>0</asrwt>
<pdfrwt beam="1">0</pdfrwt>
<pdfrwt beam="2">0</pdfrwt>
<totfact> 0.16712799E+12</totfact>
</mgrwt>
</event>
<event>
 4    2  0.2027839E+006  0.3201401E+01  0.7546771E-02  0.2462127E+00
         22   -1    0    0    0    0  0.00000000000E+00  0.00000000000E+00  0.75744670070E+01  0.75744670070E+01  0.00000000000E+00 0. -1.
         22   -1    0    0    0    0 -0.00000000000E+00 -0.00000000000E+00 -0.34314051924E+01  0.34314051924E+01  0.00000000000E+00 0.  1.
          4    1    1    2  501    0 -0.12310447082E+01 -0.29552494857E+01  0.63541918290E+01  0.71151053679E+01  0.00000000000E+00 0. -1.
         -4    1    1    2    0  501  0.12310447082E+01  0.29552494857E+01 -0.22111300144E+01  0.38907668315E+01  0.00000000000E+00 0.  1.
<mgrwt>
<rscale>  0 0.32014013E+01</rscale>
<asrwt>0</asrwt>
<pdfrwt beam="1">0</pdfrwt>
<pdfrwt beam="2">0</pdfrwt>
<totfact> 0.53317652E+11</totfact>
</mgrwt>
</event>
<event>
 4    2  0.2027839E+006  0.2606331E+01  0.7546771E-02  0.2663431E+00
         22   -1    0    0    0    0  0.00000000000E+00  0.00000000000E+00  0.32804326170E+01  0.32804326170E+01  0.00000000000E+00 0. -1.
         22   -1    0    0    0    0 -0.00000000000E+00 -0.00000000000E+00 -0.35172746640E+01  0.35172746640E+01  0.00000000000E+00 0.  1.
          4    1    1    2  501    0  0.33191715174E+00 -0.25851093187E+01  0.20612557194E+01  0.33229105203E+01  0.00000000000E+00 0. -1.
         -4    1    1    2    0  501 -0.33191715174E+00  0.25851093187E+01 -0.22980977664E+01  0.34747967608E+01  0.00000000000E+00 0.  1.
<mgrwt>
<rscale>  0 0.26063306E+01</rscale>
<asrwt>0</asrwt>
<pdfrwt beam="1">0</pdfrwt>
<pdfrwt beam="2">0</pdfrwt>
<totfact> 0.13952855E+12</totfact>
</mgrwt>
</event>
<event>
 4    2  0.2027839E+006  0.3009162E+01  0.7546771E-02  0.2519293E+00
         22   -1    0    0    0    0  0.00000000000E+00  0.00000000000E+00  0.14440924004E+01  0.14440924004E+01  0.00000000000E+00 0. -1.
         22   -1    0    0    0    0 -0.00000000000E+00 -0.00000000000E+00 -0.15231944137E+02  0.15231944137E+02  0.00000000000E+00 0.  1.
          4    1    1    2  501    0  0.18958890975E+01  0.23368058225E+01 -0.49839995787E+00  0.30501572812E+01  0.00000000000E+00 0. -1.
         -4    1    1    2    0  501 -0.18958890975E+01 -0.23368058225E+01 -0.13289451778E+02  0.13625879256E+02  0.00000000000E+00 0.  1.
<mgrwt>
<rscale>  0 0.30091622E+01</rscale>
<asrwt>0</asrwt>
<pdfrwt beam="1">0</pdfrwt>
<pdfrwt beam="2">0</pdfrwt>
<totfact> 0.62308932E+11</totfact>
</mgrwt>
</event>
<event>
 4    2  0.2027839E+006  0.2504329E+01  0.7546771E-02  0.2706625E+00
         22   -1    0    0    0    0  0.00000000000E+00  0.00000000000E+00  0.29865533358E+02  0.29865533358E+02  0.00000000000E+00 0. -1.
         22   -1    0    0    0    0 -0.00000000000E+00 -0.00000000000E+00 -0.21191617884E+00  0.21191617884E+00  0.00000000000E+00 0.  1.
          4    1    1    2  501    0  0.17615232559E+01 -0.17800836335E+01  0.16258094504E+02  0.16449841908E+02  0.00000000000E+00 0. -1.
         -4    1    1    2    0  501 -0.17615232559E+01  0.17800836335E+01  0.13395522676E+02  0.13627607628E+02  0.00000000000E+00 0.  1.
<mgrwt>
<rscale>  0 0.25043286E+01</rscale>
<asrwt>0</asrwt>
<pdfrwt beam="1">0</pdfrwt>
<pdfrwt beam="2">0</pdfrwt>
<totfact> 0.23535147E+12</totfact>
</mgrwt>
</event>
<event>
 4    2  0.2027839E+006  0.2060521E+01  0.7546771E-02  0.2941037E+00
         22   -1    0    0    0    0  0.00000000000E+00  0.00000000000E+00  0.34099950962E+01  0.34099950962E+01  0.00000000000E+00 0. -1.
         22   -1    0    0    0    0 -0.00000000000E+00 -0.00000000000E+00 -0.15572468919E+01  0.15572468919E+01  0.00000000000E+00 0.  1.
          4    1    1    2  501    0 -0.11118830978E+01 -0.17347807359E+01  0.20383453912E+01  0.28983788846E+01  0.00000000000E+00 0. -1.
         -4    1    1    2    0  501  0.11118830978E+01  0.17347807359E+01 -0.18559718695E+00  0.20688631034E+01  0.00000000000E+00 0.  1.
<mgrwt>
<rscale>  0 0.20605213E+01</rscale>
<asrwt>0</asrwt>
<pdfrwt beam="1">0</pdfrwt>
<pdfrwt beam="2">0</pdfrwt>
<totfact> 0.34354469E+12</totfact>
</mgrwt>
</event>
<event>
 4    2  0.2027839E+006  0.2094856E+01  0.7546771E-02  0.2919513E+00
         22   -1    0    0    0    0  0.00000000000E+00  0.00000000000E+00  0.10870343075E+01  0.10870343075E+01  0.00000000000E+00 0.  1.
         22   -1    0    0    0    0 -0.00000000000E+00 -0.00000000000E+00 -0.47592982203E+01  0.47592982203E+01  0.00000000000E+00 0. -1.
          4    1    1    2  501    0 -0.20165051115E+01 -0.56756502872E+00 -0.69739809418E+00  0.22078919875E+01  0.00000000000E+00 0.  1.
         -4    1    1    2    0  501  0.20165051115E+01  0.56756502872E+00 -0.29748658187E+01  0.36384405404E+01  0.00000000000E+00 0. -1.
<mgrwt>
<rscale>  0 0.20948563E+01</rscale>
<asrwt>0</asrwt>
<pdfrwt beam="1">0</pdfrwt>
<pdfrwt beam="2">0</pdfrwt>
<totfact> 0.35051741E+12</totfact>
</mgrwt>
</event>
<event>
 4    2  0.2027839E+006  0.2034326E+01  0.7546771E-02  0.2957933E+00
         22   -1    0    0    0    0  0.00000000000E+00  0.00000000000E+00  0.83572516741E+02  0.83572516741E+02  0.00000000000E+00 0. -1.
         22   -1    0    0    0    0 -0.00000000000E+00 -0.00000000000E+00 -0.23581111222E+00  0.23581111222E+00  0.00000000000E+00 0.  1.
          4    1    1    2  501    0  0.77242394175E+00  0.18819785227E+01  0.78913656583E+02  0.78939873810E+02  0.00000000000E+00 0. -1.
         -4    1    1    2    0  501 -0.77242394175E+00 -0.18819785227E+01  0.44230490462E+01  0.48684540432E+01  0.00000000000E+00 0.  1.
<mgrwt>
<rscale>  0 0.20343259E+01</rscale>
<asrwt>0</asrwt>
<pdfrwt beam="1">0</pdfrwt>
<pdfrwt beam="2">0</pdfrwt>
<totfact> 0.53605390E+11</totfact>
</mgrwt>
</event>
<event>
 4    2  0.2027839E+006  0.3006735E+01  0.7546771E-02  0.2520056E+00
         22   -1    0    0    0    0  0.00000000000E+00  0.00000000000E+00  0.13982816989E+02  0.13982816989E+02  0.00000000000E+00 0.  1.
         22   -1    0    0    0    0 -0.00000000000E+00 -0.00000000000E+00 -0.19602647661E+01  0.19602647661E+01  0.00000000000E+00 0. -1.
          4    1    1    2  501    0  0.27370868618E+01 -0.12445125284E+01  0.12537125404E+02  0.12892632366E+02  0.00000000000E+00 0.  1.
         -4    1    1    2    0  501 -0.27370868618E+01  0.12445125284E+01 -0.51457318055E+00  0.30504493899E+01  0.00000000000E+00 0. -1.
<mgrwt>
<rscale>  0 0.30067351E+01</rscale>
<asrwt>0</asrwt>
<pdfrwt beam="1">0</pdfrwt>
<pdfrwt beam="2">0</pdfrwt>
<totfact> 0.48658675E+11</totfact>
</mgrwt>
</event>
<event>
 4    2  0.2027839E+006  0.2058532E+01  0.7546771E-02  0.2942305E+00
         22   -1    0    0    0    0  0.00000000000E+00  0.00000000000E+00  0.78773201149E+01  0.78773201149E+01  0.00000000000E+00 0.  1.
         22   -1    0    0    0    0 -0.00000000000E+00 -0.00000000000E+00 -0.78328456981E+00  0.78328456981E+00  0.00000000000E+00 0. -1.
          4    1    1    2  501    0 -0.10179098812E+01 -0.17892490389E+01  0.59705210880E+01  0.63154314747E+01  0.00000000000E+00 0.  1.
         -4    1    1    2    0  501  0.10179098812E+01  0.17892490389E+01  0.11235144571E+01  0.23451732100E+01  0.00000000000E+00 0. -1.
<mgrwt>
<rscale>  0 0.20585317E+01</rscale>
<asrwt>0</asrwt>
<pdfrwt beam="1">0</pdfrwt>
<pdfrwt beam="2">0</pdfrwt>
<totfact> 0.27945615E+12</totfact>
</mgrwt>
</event>
<event>
 4    2  0.2027839E+006  0.2315187E+01  0.7546771E-02  0.2796076E+00
         22   -1    0    0    0    0  0.00000000000E+00  0.00000000000E+00  0.85479786903E+01  0.85479786903E+01  0.00000000000E+00 0. -1.
         22   -1    0    0    0    0 -0.00000000000E+00 -0.00000000000E+00 -0.43694969206E+01  0.43694969206E+01  0.00000000000E+00 0.  1.
          4    1    1    2  501    0  0.23119820920E+01 -0.12178148848E+00  0.80665980173E+01  0.83922640269E+01  0.00000000000E+00 0. -1.
         -4    1    1    2    0  501 -0.23119820920E+01  0.12178148848E+00 -0.38881162476E+01  0.45252115839E+01  0.00000000000E+00 0.  1.
<mgrwt>
<rscale>  0 0.23151872E+01</rscale>
<asrwt>0</asrwt>
<pdfrwt beam="1">0</pdfrwt>
<pdfrwt beam="2">0</pdfrwt>
<totfact> 0.34700966E+11</totfact>
</mgrwt>
</event>
<event>
 4    2  0.2027839E+006  0.2701137E+01  0.7546771E-02  0.2625990E+00
         22   -1    0    0    0    0  0.00000000000E+00  0.00000000000E+00  0.82638274184E+01  0.82638274184E+01  0.00000000000E+00 0.  1.
         22   -1    0    0    0    0 -0.00000000000E+00 -0.00000000000E+00 -0.12175721888E+01  0.12175721888E+01  0.00000000000E+00 0. -1.
          4    1    1    2  501    0 -0.16828160425E+01  0.21128827853E+01  0.60085722944E+01  0.65877981537E+01  0.00000000000E+00 0.  1.
         -4    1    1    2    0  501  0.16828160425E+01 -0.21128827853E+01  0.10376829352E+01  0.28936014534E+01  0.00000000000E+00 0. -1.
<mgrwt>
<rscale>  0 0.27011374E+01</rscale>
<asrwt>0</asrwt>
<pdfrwt beam="1">0</pdfrwt>
<pdfrwt beam="2">0</pdfrwt>
<totfact> 0.15946439E+12</totfact>
</mgrwt>
</event>
<event>
 4    2  0.2027839E+006  0.2149389E+01  0.7546771E-02  0.2886701E+00
         22   -1    0    0    0    0  0.00000000000E+00  0.00000000000E+00  0.70528751241E+00  0.70528751241E+00  0.00000000000E+00 0. -1.
         22   -1    0    0    0    0 -0.00000000000E+00 -0.00000000000E+00 -0.86400087861E+01  0.86400087861E+01  0.00000000000E+00 0.  1.
          4    1    1    2  501    0  0.98752234776E+00  0.19091023796E+01 -0.16693881652E+01  0.27215306593E+01  0.00000000000E+00 0. -1.
         -4    1    1    2    0  501 -0.98752234776E+00 -0.19091023796E+01 -0.62653331085E+01  0.66237656393E+01  0.00000000000E+00 0.  1.
<mgrwt>
<rscale>  0 0.21493888E+01</rscale>
<asrwt>0</asrwt>
<pdfrwt beam="1">0</pdfrwt>
<pdfrwt beam="2">0</pdfrwt>
<totfact> 0.28171704E+12</totfact>
</mgrwt>
</event>
<event>
 4    2  0.2027839E+006  0.2324980E+01  0.7546771E-02  0.2791109E+00
         22   -1    0    0    0    0  0.00000000000E+00  0.00000000000E+00  0.98884179126E+00  0.98884179126E+00  0.00000000000E+00 0.  1.
         22   -1    0    0    0    0 -0.00000000000E+00 -0.00000000000E+00 -0.60090544131E+01  0.60090544131E+01  0.00000000000E+00 0. -1.
          4    1    1    2  501    0  0.13314308107E+00 -0.23211647063E+01 -0.35614490894E+01  0.42531696757E+01  0.00000000000E+00 0. -1.
         -4    1    1    2    0  501 -0.13314308107E+00  0.23211647063E+01 -0.14587635324E+01  0.27447265287E+01  0.00000000000E+00 0.  1.
<mgrwt>
<rscale>  0 0.23249801E+01</rscale>
<asrwt>0</asrwt>
<pdfrwt beam="1">0</pdfrwt>
<pdfrwt beam="2">0</pdfrwt>
<totfact> 0.29619678E+12</totfact>
</mgrwt>
</event>
<event>
 4    2  0.2027839E+006  0.2362643E+01  0.7546771E-02  0.2772369E+00
         22   -1    0    0    0    0  0.00000000000E+00  0.00000000000E+00  0.23725825044E+01  0.23725825044E+01  0.00000000000E+00 0. -1.
         22   -1    0    0    0    0 -0.00000000000E+00 -0.00000000000E+00 -0.83379820465E+01  0.83379820465E+01  0.00000000000E+00 0.  1.
          4    1    1    2  501    0  0.20384785299E+01  0.11944407126E+01  0.15545484711E+01  0.28281980627E+01  0.00000000000E+00 0. -1.
         -4    1    1    2    0  501 -0.20384785299E+01 -0.11944407126E+01 -0.75199480132E+01  0.78823664882E+01  0.00000000000E+00 0.  1.
<mgrwt>
<rscale>  0 0.23626433E+01</rscale>
<asrwt>0</asrwt>
<pdfrwt beam="1">0</pdfrwt>
<pdfrwt beam="2">0</pdfrwt>
<totfact> 0.73070297E+11</totfact>
</mgrwt>
</event>
<event>
 4    2  0.2027839E+006  0.3864836E+01  0.7546771E-02  0.2303901E+00
         22   -1    0    0    0    0  0.00000000000E+00  0.00000000000E+00  0.30885561221E+00  0.30885561221E+00  0.00000000000E+00 0.  1.
         22   -1    0    0    0    0 -0.00000000000E+00 -0.00000000000E+00 -0.64954914982E+02  0.64954914982E+02  0.00000000000E+00 0. -1.
          4    1    1    2  501    0  0.36175270128E+01 -0.13603143425E+01 -0.15830243095E+02  0.16295200314E+02  0.00000000000E+00 0.  1.
         -4    1    1    2    0  501 -0.36175270128E+01  0.13603143425E+01 -0.48815816275E+02  0.48968570281E+02  0.00000000000E+00 0. -1.
<mgrwt>
<rscale>  0 0.38648359E+01</rscale>
<asrwt>0</asrwt>
<pdfrwt beam="1">0</pdfrwt>
<pdfrwt beam="2">0</pdfrwt>
<totfact> 0.55886439E+11</totfact>
</mgrwt>
</event>
<event>
 4    2  0.2027839E+006  0.2327631E+01  0.7546771E-02  0.2789771E+00
         22   -1    0    0    0    0  0.00000000000E+00  0.00000000000E+00  0.12149750270E+00  0.12149750270E+00  0.00000000000E+00 0. -1.
         22   -1    0    0    0    0 -0.00000000000E+00 -0.00000000000E+00 -0.50637746672E+02  0.50637746672E+02  0.00000000000E+00 0.  1.
          4    1    1    2  501    0 -0.39773456911E+00 -0.22933982123E+01 -0.16488970311E+02  0.16652447570E+02  0.00000000000E+00 0. -1.
         -4    1    1    2    0  501  0.39773456911E+00  0.22933982123E+01 -0.34027278858E+02  0.34106796605E+02  0.00000000000E+00 0.  1.
<mgrwt>
<rscale>  0 0.23276314E+01</rscale>
<asrwt>0</asrwt>
<pdfrwt beam="1">0</pdfrwt>
<pdfrwt beam="2">0</pdfrwt>
<totfact> 0.22048031E+12</totfact>
</mgrwt>
</event>
<event>
 4    2  0.2027839E+006  0.2782921E+01  0.7546771E-02  0.2595575E+00
         22   -1    0    0    0    0  0.00000000000E+00  0.00000000000E+00  0.44390848757E+00  0.44390848757E+00  0.00000000000E+00 0.  1.
         22   -1    0    0    0    0 -0.00000000000E+00 -0.00000000000E+00 -0.17576275298E+02  0.17576275298E+02  0.00000000000E+00 0. -1.
          4    1    1    2  501    0 -0.27699674750E+01  0.26819182289E+00 -0.77919494296E+01  0.82740028148E+01  0.00000000000E+00 0.  1.
         -4    1    1    2    0  501  0.27699674750E+01 -0.26819182289E+00 -0.93404173814E+01  0.97461809713E+01  0.00000000000E+00 0. -1.
<mgrwt>
<rscale>  0 0.27829205E+01</rscale>
<asrwt>0</asrwt>
<pdfrwt beam="1">0</pdfrwt>
<pdfrwt beam="2">0</pdfrwt>
<totfact> 0.19984865E+12</totfact>
</mgrwt>
</event>
<event>
 4    2  0.2027839E+006  0.2060153E+01  0.7546771E-02  0.2941271E+00
         22   -1    0    0    0    0  0.00000000000E+00  0.00000000000E+00  0.95924806634E+00  0.95924806634E+00  0.00000000000E+00 0.  1.
         22   -1    0    0    0    0 -0.00000000000E+00 -0.00000000000E+00 -0.11154243138E+02  0.11154243138E+02  0.00000000000E+00 0. -1.
          4    1    1    2  501    0  0.43544091330E+00 -0.20136095872E+01 -0.39295714266E+00  0.20972953237E+01  0.00000000000E+00 0.  1.
         -4    1    1    2    0  501 -0.43544091330E+00  0.20136095872E+01 -0.98020379289E+01  0.10016195881E+02  0.00000000000E+00 0. -1.
<mgrwt>
<rscale>  0 0.20601535E+01</rscale>
<asrwt>0</asrwt>
<pdfrwt beam="1">0</pdfrwt>
<pdfrwt beam="2">0</pdfrwt>
<totfact> 0.14573004E+12</totfact>
</mgrwt>
</event>
<event>
 4    2  0.2027839E+006  0.3244710E+01  0.7546771E-02  0.2450082E+00
         22   -1    0    0    0    0  0.00000000000E+00  0.00000000000E+00  0.73250882988E+00  0.73250882988E+00  0.00000000000E+00 0.  1.
         22   -1    0    0    0    0 -0.00000000000E+00 -0.00000000000E+00 -0.15598815056E+02  0.15598815056E+02  0.00000000000E+00 0. -1.
          4    1    1    2  501    0 -0.15502234216E+01  0.28504299715E+01 -0.51438261959E+01  0.60817013748E+01  0.00000000000E+00 0.  1.
         -4    1    1    2    0  501  0.15502234216E+01 -0.28504299715E+01 -0.97224800298E+01  0.10249622511E+02  0.00000000000E+00 0. -1.
<mgrwt>
<rscale>  0 0.32447101E+01</rscale>
<asrwt>0</asrwt>
<pdfrwt beam="1">0</pdfrwt>
<pdfrwt beam="2">0</pdfrwt>
<totfact> 0.13141531E+12</totfact>
</mgrwt>
</event>
<event>
 4    2  0.2027839E+006  0.2286502E+01  0.7546771E-02  0.2810858E+00
         22   -1    0    0    0    0  0.00000000000E+00  0.00000000000E+00  0.13222963012E+02  0.13222963012E+02  0.00000000000E+00 0.  1.
         22   -1    0    0    0    0 -0.00000000000E+00 -0.00000000000E+00 -0.50703014528E+00  0.50703014528E+00  0.00000000000E+00 0. -1.
          4    1    1    2  501    0 -0.37786390407E+00 -0.22550636787E+01  0.95794308924E+01  0.98485323550E+01  0.00000000000E+00 0.  1.
         -4    1    1    2    0  501  0.37786390407E+00  0.22550636787E+01  0.31365019743E+01  0.38814608023E+01  0.00000000000E+00 0. -1.
<mgrwt>
<rscale>  0 0.22865024E+01</rscale>
<asrwt>0</asrwt>
<pdfrwt beam="1">0</pdfrwt>
<pdfrwt beam="2">0</pdfrwt>
<totfact> 0.24420180E+12</totfact>
</mgrwt>
</event>
<event>
 4    2  0.2027839E+006  0.2249912E+01  0.7546771E-02  0.2830232E+00
         22   -1    0    0    0    0  0.00000000000E+00  0.00000000000E+00  0.13101318840E+02  0.13101318840E+02  0.00000000000E+00 0. -1.
         22   -1    0    0    0    0 -0.00000000000E+00 -0.00000000000E+00 -0.52110115115E+01  0.52110115115E+01  0.00000000000E+00 0.  1.
          4    1    1    2  501    0 -0.86483555964E+00  0.20770568936E+01  0.12755330266E+02  0.12952241354E+02  0.00000000000E+00 0. -1.
         -4    1    1    2    0  501  0.86483555964E+00 -0.20770568936E+01 -0.48650229375E+01  0.53600889980E+01  0.00000000000E+00 0.  1.
<mgrwt>
<rscale>  0 0.22499124E+01</rscale>
<asrwt>0</asrwt>
<pdfrwt beam="1">0</pdfrwt>
<pdfrwt beam="2">0</pdfrwt>
<totfact> 0.16781331E+11</totfact>
</mgrwt>
</event>
<event>
 4    2  0.2027839E+006  0.2181200E+01  0.7546771E-02  0.2868292E+00
         22   -1    0    0    0    0  0.00000000000E+00  0.00000000000E+00  0.71819446430E+01  0.71819446430E+01  0.00000000000E+00 0.  1.
         22   -1    0    0    0    0 -0.00000000000E+00 -0.00000000000E+00 -0.11108879365E+01  0.11108879365E+01  0.00000000000E+00 0. -1.
          4    1    1    2  501    0 -0.18793719063E+01  0.11070648938E+01  0.56699917654E+01  0.60750669182E+01  0.00000000000E+00 0.  1.
         -4    1    1    2    0  501  0.18793719063E+01 -0.11070648938E+01  0.40106494110E+00  0.22177656613E+01  0.00000000000E+00 0. -1.
<mgrwt>
<rscale>  0 0.21811995E+01</rscale>
<asrwt>0</asrwt>
<pdfrwt beam="1">0</pdfrwt>
<pdfrwt beam="2">0</pdfrwt>
<totfact> 0.20958637E+12</totfact>
</mgrwt>
</event>
<event>
 4    2  0.2027839E+006  0.2646189E+01  0.7546771E-02  0.2647390E+00
         22   -1    0    0    0    0  0.00000000000E+00  0.00000000000E+00  0.41878738160E+01  0.41878738160E+01  0.00000000000E+00 0.  1.
         22   -1    0    0    0    0 -0.00000000000E+00 -0.00000000000E+00 -0.42649934555E+01  0.42649934555E+01  0.00000000000E+00 0. -1.
          4    1    1    2  501    0 -0.23044191459E+01 -0.13007564357E+01  0.32568678407E+01  0.41963678386E+01  0.00000000000E+00 0.  1.
         -4    1    1    2    0  501  0.23044191459E+01  0.13007564357E+01 -0.33339874802E+01  0.42564994330E+01  0.00000000000E+00 0. -1.
<mgrwt>
<rscale>  0 0.26461888E+01</rscale>
<asrwt>0</asrwt>
<pdfrwt beam="1">0</pdfrwt>
<pdfrwt beam="2">0</pdfrwt>
<totfact> 0.83498158E+11</totfact>
</mgrwt>
</event>
<event>
 4    2  0.2027839E+006  0.3048270E+01  0.7546771E-02  0.2507143E+00
         22   -1    0    0    0    0  0.00000000000E+00  0.00000000000E+00  0.86401608283E+01  0.86401608283E+01  0.00000000000E+00 0. -1.
         22   -1    0    0    0    0 -0.00000000000E+00 -0.00000000000E+00 -0.18479433787E+01  0.18479433787E+01  0.00000000000E+00 0.  1.
          4    1    1    2  501    0 -0.30435553609E+01  0.16948061444E+00  0.67866853685E+01  0.74398287080E+01  0.00000000000E+00 0. -1.
         -4    1    1    2    0  501  0.30435553609E+01 -0.16948061444E+00  0.55320811100E-02  0.30482754989E+01  0.00000000000E+00 0.  1.
<mgrwt>
<rscale>  0 0.30482705E+01</rscale>
<asrwt>0</asrwt>
<pdfrwt beam="1">0</pdfrwt>
<pdfrwt beam="2">0</pdfrwt>
<totfact> 0.93517462E+11</totfact>
</mgrwt>
</event>
<event>
 4    2  0.2027839E+006  0.2085635E+01  0.7546771E-02  0.2925226E+00
         22   -1    0    0    0    0  0.00000000000E+00  0.00000000000E+00  0.69383523334E+01  0.69383523334E+01  0.00000000000E+00 0. -1.
         22   -1    0    0    0    0 -0.00000000000E+00 -0.00000000000E+00 -0.63189132699E+00  0.63189132699E+00  0.00000000000E+00 0.  1.
          4    1    1    2  501    0 -0.20632497806E+01 -0.30475126264E+00  0.34885689823E+01  0.40644786300E+01  0.00000000000E+00 0. -1.
         -4    1    1    2    0  501  0.20632497806E+01  0.30475126264E+00  0.28178920241E+01  0.35057650304E+01  0.00000000000E+00 0.  1.
<mgrwt>
<rscale>  0 0.20856349E+01</rscale>
<asrwt>0</asrwt>
<pdfrwt beam="1">0</pdfrwt>
<pdfrwt beam="2">0</pdfrwt>
<totfact> 0.41520242E+12</totfact>
</mgrwt>
</event>
<event>
 4    2  0.2027839E+006  0.3559675E+01  0.7546771E-02  0.2370296E+00
         22   -1    0    0    0    0  0.00000000000E+00  0.00000000000E+00  0.75646326463E+00  0.75646326463E+00  0.00000000000E+00 0. -1.
         22   -1    0    0    0    0 -0.00000000000E+00 -0.00000000000E+00 -0.17939955281E+02  0.17939955281E+02  0.00000000000E+00 0.  1.
          4    1    1    2  501    0 -0.59147442708E+00  0.35101913292E+01 -0.61848558677E+01  0.71360862712E+01  0.00000000000E+00 0. -1.
         -4    1    1    2    0  501  0.59147442708E+00 -0.35101913292E+01 -0.10998636148E+02  0.11560332274E+02  0.00000000000E+00 0.  1.
<mgrwt>
<rscale>  0 0.35596749E+01</rscale>
<asrwt>0</asrwt>
<pdfrwt beam="1">0</pdfrwt>
<pdfrwt beam="2">0</pdfrwt>
<totfact> 0.10657890E+12</totfact>
</mgrwt>
</event>
<event>
 4    2  0.2027839E+006  0.2376229E+01  0.7546771E-02  0.2765746E+00
         22   -1    0    0    0    0  0.00000000000E+00  0.00000000000E+00  0.41056202014E+00  0.41056202014E+00  0.00000000000E+00 0. -1.
         22   -1    0    0    0    0 -0.00000000000E+00 -0.00000000000E+00 -0.14028276169E+02  0.14028276169E+02  0.00000000000E+00 0.  1.
          4    1    1    2  501    0 -0.10607076102E+01  0.21263499616E+01 -0.78201434720E+01  0.81731945233E+01  0.00000000000E+00 0.  1.
         -4    1    1    2    0  501  0.10607076102E+01 -0.21263499616E+01 -0.57975706764E+01  0.62656436654E+01  0.00000000000E+00 0. -1.
<mgrwt>
<rscale>  0 0.23762291E+01</rscale>
<asrwt>0</asrwt>
<pdfrwt beam="1">0</pdfrwt>
<pdfrwt beam="2">0</pdfrwt>
<totfact> 0.28817034E+12</totfact>
</mgrwt>
</event>
<event>
 4    2  0.2027839E+006  0.2612195E+01  0.7546771E-02  0.2661042E+00
         22   -1    0    0    0    0  0.00000000000E+00  0.00000000000E+00  0.13424541485E+02  0.13424541485E+02  0.00000000000E+00 0.  1.
         22   -1    0    0    0    0 -0.00000000000E+00 -0.00000000000E+00 -0.53718430979E+00  0.53718430979E+00  0.00000000000E+00 0. -1.
          4    1    1    2  501    0  0.20560869342E+00 -0.26040905585E+01  0.80626988313E+01  0.84752979308E+01  0.00000000000E+00 0.  1.
         -4    1    1    2    0  501 -0.20560869342E+00  0.26040905585E+01  0.48246583439E+01  0.54864278640E+01  0.00000000000E+00 0. -1.
<mgrwt>
<rscale>  0 0.26121950E+01</rscale>
<asrwt>0</asrwt>
<pdfrwt beam="1">0</pdfrwt>
<pdfrwt beam="2">0</pdfrwt>
<totfact> 0.22457806E+12</totfact>
</mgrwt>
</event>
<event>
 4    2  0.2027839E+006  0.2116908E+01  0.7546771E-02  0.2906048E+00
         22   -1    0    0    0    0  0.00000000000E+00  0.00000000000E+00  0.10134899287E+02  0.10134899287E+02  0.00000000000E+00 0.  1.
         22   -1    0    0    0    0 -0.00000000000E+00 -0.00000000000E+00 -0.54287433419E+00  0.54287433419E+00  0.00000000000E+00 0. -1.
          4    1    1    2  501    0  0.37633062917E+00  0.20831883487E+01  0.70955249682E+01  0.74045778416E+01  0.00000000000E+00 0.  1.
         -4    1    1    2    0  501 -0.37633062917E+00 -0.20831883487E+01  0.24964999849E+01  0.32731957799E+01  0.00000000000E+00 0. -1.
<mgrwt>
<rscale>  0 0.21169078E+01</rscale>
<asrwt>0</asrwt>
<pdfrwt beam="1">0</pdfrwt>
<pdfrwt beam="2">0</pdfrwt>
<totfact> 0.31250944E+12</totfact>
</mgrwt>
</event>
<event>
 4    2  0.2027839E+006  0.2217596E+01  0.7546771E-02  0.2847851E+00
         22   -1    0    0    0    0  0.00000000000E+00  0.00000000000E+00  0.34972779849E+01  0.34972779849E+01  0.00000000000E+00 0.  1.
         22   -1    0    0    0    0 -0.00000000000E+00 -0.00000000000E+00 -0.14225924013E+01  0.14225924013E+01  0.00000000000E+00 0. -1.
          4    1    1    2  501    0 -0.15704023545E+00  0.22120286111E+01  0.77295908185E+00  0.23484458593E+01  0.00000000000E+00 0.  1.
         -4    1    1    2    0  501  0.15704023545E+00 -0.22120286111E+01  0.13017265017E+01  0.25714245269E+01  0.00000000000E+00 0. -1.
<mgrwt>
<rscale>  0 0.22175960E+01</rscale>
<asrwt>0</asrwt>
<pdfrwt beam="1">0</pdfrwt>
<pdfrwt beam="2">0</pdfrwt>
<totfact> 0.37009998E+12</totfact>
</mgrwt>
</event>
<event>
 4    2  0.2027839E+006  0.2393332E+01  0.7546771E-02  0.2757510E+00
         22   -1    0    0    0    0  0.00000000000E+00  0.00000000000E+00  0.92288703263E+02  0.92288703263E+02  0.00000000000E+00 0.  1.
         22   -1    0    0    0    0 -0.00000000000E+00 -0.00000000000E+00 -0.71567782342E-01  0.71567782342E-01  0.00000000000E+00 0. -1.
          4    1    1    2  501    0  0.16927193194E+01  0.16919635228E+01  0.62934801841E+02  0.62980293125E+02  0.00000000000E+00 0.  1.
         -4    1    1    2    0  501 -0.16927193194E+01 -0.16919635228E+01  0.29282333639E+02  0.29379977921E+02  0.00000000000E+00 0. -1.
<mgrwt>
<rscale>  0 0.23933322E+01</rscale>
<asrwt>0</asrwt>
<pdfrwt beam="1">0</pdfrwt>
<pdfrwt beam="2">0</pdfrwt>
<totfact> 0.17554833E+12</totfact>
</mgrwt>
</event>
<event>
 4    2  0.2027839E+006  0.2202451E+01  0.7546771E-02  0.2856278E+00
         22   -1    0    0    0    0  0.00000000000E+00  0.00000000000E+00  0.33533050639E+00  0.33533050639E+00  0.00000000000E+00 0. -1.
         22   -1    0    0    0    0 -0.00000000000E+00 -0.00000000000E+00 -0.15091842135E+02  0.15091842135E+02  0.00000000000E+00 0.  1.
          4    1    1    2  501    0  0.16944540169E+01  0.14069880946E+01 -0.58070890095E+01  0.62107223959E+01  0.00000000000E+00 0.  1.
         -4    1    1    2    0  501 -0.16944540169E+01 -0.14069880946E+01 -0.89494226193E+01  0.92164502458E+01  0.00000000000E+00 0. -1.
<mgrwt>
<rscale>  0 0.22024509E+01</rscale>
<asrwt>0</asrwt>
<pdfrwt beam="1">0</pdfrwt>
<pdfrwt beam="2">0</pdfrwt>
<totfact> 0.33073208E+12</totfact>
</mgrwt>
</event>
<event>
 4    2  0.2027839E+006  0.3148791E+01  0.7546771E-02  0.2477154E+00
         22   -1    0    0    0    0  0.00000000000E+00  0.00000000000E+00  0.69203595192E+01  0.69203595192E+01  0.00000000000E+00 0. -1.
         22   -1    0    0    0    0 -0.00000000000E+00 -0.00000000000E+00 -0.14498840833E+01  0.14498840833E+01  0.00000000000E+00 0.  1.
          4    1    1    2  501    0 -0.14923760862E+00 -0.31452523898E+01  0.22797793421E+01  0.38874513898E+01  0.00000000000E+00 0. -1.
         -4    1    1    2    0  501  0.14923760862E+00  0.31452523898E+01  0.31906960939E+01  0.44827922128E+01  0.00000000000E+00 0.  1.
<mgrwt>
<rscale>  0 0.31487910E+01</rscale>
<asrwt>0</asrwt>
<pdfrwt beam="1">0</pdfrwt>
<pdfrwt beam="2">0</pdfrwt>
<totfact> 0.16144001E+12</totfact>
</mgrwt>
</event>
<event>
 4    2  0.2027839E+006  0.2201922E+01  0.7546771E-02  0.2856575E+00
         22   -1    0    0    0    0  0.00000000000E+00  0.00000000000E+00  0.36176139226E+00  0.36176139226E+00  0.00000000000E+00 0.  1.
         22   -1    0    0    0    0 -0.00000000000E+00 -0.00000000000E+00 -0.13403982404E+02  0.13403982404E+02  0.00000000000E+00 0. -1.
          4    1    1    2  501    0 -0.76353316512E+00  0.20653028209E+01 -0.64455302797E+01  0.68112641428E+01  0.00000000000E+00 0.  1.
         -4    1    1    2    0  501  0.76353316512E+00 -0.20653028209E+01 -0.65966907317E+01  0.69544796531E+01  0.00000000000E+00 0. -1.
<mgrwt>
<rscale>  0 0.22019216E+01</rscale>
<asrwt>0</asrwt>
<pdfrwt beam="1">0</pdfrwt>
<pdfrwt beam="2">0</pdfrwt>
<totfact> 0.35131987E+12</totfact>
</mgrwt>
</event>
<event>
 4    2  0.2027839E+006  0.2889762E+01  0.7546771E-02  0.2558207E+00
         22   -1    0    0    0    0  0.00000000000E+00  0.00000000000E+00  0.57712080787E+01  0.57712080787E+01  0.00000000000E+00 0. -1.
         22   -1    0    0    0    0 -0.00000000000E+00 -0.00000000000E+00 -0.15173813739E+01  0.15173813739E+01  0.00000000000E+00 0.  1.
          4    1    1    2  501    0  0.26009959134E+01  0.12591838969E+01  0.13418413264E+01  0.31861045139E+01  0.00000000000E+00 0.  1.
         -4    1    1    2    0  501 -0.26009959134E+01 -0.12591838969E+01  0.29119853785E+01  0.41024849387E+01  0.00000000000E+00 0. -1.
<mgrwt>
<rscale>  0 0.28897619E+01</rscale>
<asrwt>0</asrwt>
<pdfrwt beam="1">0</pdfrwt>
<pdfrwt beam="2">0</pdfrwt>
<totfact> 0.19024076E+12</totfact>
</mgrwt>
</event>
<event>
 4    2  0.2027839E+006  0.2297849E+01  0.7546771E-02  0.2804969E+00
         22   -1    0    0    0    0  0.00000000000E+00  0.00000000000E+00  0.48003947095E+02  0.48003947095E+02  0.00000000000E+00 0.  1.
         22   -1    0    0    0    0 -0.00000000000E+00 -0.00000000000E+00 -0.11617744397E+00  0.11617744397E+00  0.00000000000E+00 0. -1.
          4    1    1    2  501    0 -0.22685467946E+01 -0.36579428400E+00  0.29494964866E+02  0.29584338128E+02  0.00000000000E+00 0. -1.
         -4    1    1    2    0  501  0.22685467946E+01  0.36579428400E+00  0.18392804785E+02  0.18535786411E+02  0.00000000000E+00 0.  1.
<mgrwt>
<rscale>  0 0.22978490E+01</rscale>
<asrwt>0</asrwt>
<pdfrwt beam="1">0</pdfrwt>
<pdfrwt beam="2">0</pdfrwt>
<totfact> 0.24859732E+12</totfact>
</mgrwt>
</event>
<event>
 4    2  0.2027839E+006  0.2145014E+01  0.7546771E-02  0.2889274E+00
         22   -1    0    0    0    0  0.00000000000E+00  0.00000000000E+00  0.11543322268E+02  0.11543322268E+02  0.00000000000E+00 0. -1.
         22   -1    0    0    0    0 -0.00000000000E+00 -0.00000000000E+00 -0.40143830060E+00  0.40143830060E+00  0.00000000000E+00 0.  1.
          4    1    1    2  501    0 -0.17213017591E+00  0.21380961545E+01  0.60737766332E+01  0.64414165021E+01  0.00000000000E+00 0.  1.
         -4    1    1    2    0  501  0.17213017591E+00 -0.21380961545E+01  0.50681073342E+01  0.55033440665E+01  0.00000000000E+00 0. -1.
<mgrwt>
<rscale>  0 0.21450137E+01</rscale>
<asrwt>0</asrwt>
<pdfrwt beam="1">0</pdfrwt>
<pdfrwt beam="2">0</pdfrwt>
<totfact> 0.37506804E+12</totfact>
</mgrwt>
</event>
<event>
 4    2  0.2027839E+006  0.2682083E+01  0.7546771E-02  0.2633320E+00
         22   -1    0    0    0    0  0.00000000000E+00  0.00000000000E+00  0.46956706746E+00  0.46956706746E+00  0.00000000000E+00 0.  1.
         22   -1    0    0    0    0 -0.00000000000E+00 -0.00000000000E+00 -0.18392787842E+02  0.18392787842E+02  0.00000000000E+00 0. -1.
          4    1    1    2  501    0 -0.17103777475E+01 -0.20659568140E+01 -0.51064877217E+01  0.57679967448E+01  0.00000000000E+00 0. -1.
         -4    1    1    2    0  501  0.17103777475E+01  0.20659568140E+01 -0.12816733053E+02  0.13094358165E+02  0.00000000000E+00 0.  1.
<mgrwt>
<rscale>  0 0.26820831E+01</rscale>
<asrwt>0</asrwt>
<pdfrwt beam="1">0</pdfrwt>
<pdfrwt beam="2">0</pdfrwt>
<totfact> 0.17730094E+12</totfact>
</mgrwt>
</event>
<event>
 4    2  0.2027839E+006  0.2232505E+01  0.7546771E-02  0.2839663E+00
         22   -1    0    0    0    0  0.00000000000E+00  0.00000000000E+00  0.90936720373E+00  0.90936720373E+00  0.00000000000E+00 0.  1.
         22   -1    0    0    0    0 -0.00000000000E+00 -0.00000000000E+00 -0.54808214734E+01  0.54808214734E+01  0.00000000000E+00 0. -1.
          4    1    1    2  501    0 -0.15660100165E+01 -0.15911290356E+01 -0.22865338839E+01  0.31956714759E+01  0.00000000000E+00 0.  1.
         -4    1    1    2    0  501  0.15660100165E+01  0.15911290356E+01 -0.22849203857E+01  0.31945172012E+01  0.00000000000E+00 0. -1.
<mgrwt>
<rscale>  0 0.22325051E+01</rscale>
<asrwt>0</asrwt>
<pdfrwt beam="1">0</pdfrwt>
<pdfrwt beam="2">0</pdfrwt>
<totfact> 0.36357457E+12</totfact>
</mgrwt>
</event>
<event>
 4    2  0.2027839E+006  0.2573451E+01  0.7546771E-02  0.2677008E+00
         22   -1    0    0    0    0  0.00000000000E+00  0.00000000000E+00  0.64117044674E+00  0.64117044674E+00  0.00000000000E+00 0. -1.
         22   -1    0    0    0    0 -0.00000000000E+00 -0.00000000000E+00 -0.10596534876E+02  0.10596534876E+02  0.00000000000E+00 0.  1.
          4    1    1    2  501    0 -0.17065258947E+01  0.19262442640E+01 -0.58704908437E+01  0.64097823941E+01  0.00000000000E+00 0.  1.
         -4    1    1    2    0  501  0.17065258947E+01 -0.19262442640E+01 -0.40848735852E+01  0.48279229283E+01  0.00000000000E+00 0. -1.
<mgrwt>
<rscale>  0 0.25734505E+01</rscale>
<asrwt>0</asrwt>
<pdfrwt beam="1">0</pdfrwt>
<pdfrwt beam="2">0</pdfrwt>
<totfact> 0.24525440E+12</totfact>
</mgrwt>
</event>
<event>
 4    2  0.2027839E+006  0.3047613E+01  0.7546771E-02  0.2507345E+00
         22   -1    0    0    0    0  0.00000000000E+00  0.00000000000E+00  0.55382281449E+02  0.55382281449E+02  0.00000000000E+00 0.  1.
         22   -1    0    0    0    0 -0.00000000000E+00 -0.00000000000E+00 -0.19177932043E+00  0.19177932043E+00  0.00000000000E+00 0. -1.
          4    1    1    2  501    0 -0.17715524057E+01 -0.24798283391E+01  0.37440083540E+02  0.37563916223E+02  0.00000000000E+00 0.  1.
         -4    1    1    2    0  501  0.17715524057E+01  0.24798283391E+01  0.17750418588E+02  0.18010144546E+02  0.00000000000E+00 0. -1.
<mgrwt>
<rscale>  0 0.30476132E+01</rscale>
<asrwt>0</asrwt>
<pdfrwt beam="1">0</pdfrwt>
<pdfrwt beam="2">0</pdfrwt>
<totfact> 0.11787151E+12</totfact>
</mgrwt>
</event>
<event>
 4    2  0.2027839E+006  0.2939600E+01  0.7546771E-02  0.2541618E+00
         22   -1    0    0    0    0  0.00000000000E+00  0.00000000000E+00  0.35283746497E+01  0.35283746497E+01  0.00000000000E+00 0. -1.
         22   -1    0    0    0    0 -0.00000000000E+00 -0.00000000000E+00 -0.27251221439E+01  0.27251221439E+01  0.00000000000E+00 0.  1.
          4    1    1    2  501    0 -0.91434354054E+00  0.27937833969E+01  0.13967854293E+01  0.32545751358E+01  0.00000000000E+00 0. -1.
         -4    1    1    2    0  501  0.91434354054E+00 -0.27937833969E+01 -0.59353292356E+00  0.29989216579E+01  0.00000000000E+00 0.  1.
<mgrwt>
<rscale>  0 0.29396003E+01</rscale>
<asrwt>0</asrwt>
<pdfrwt beam="1">0</pdfrwt>
<pdfrwt beam="2">0</pdfrwt>
<totfact> 0.17264302E+12</totfact>
</mgrwt>
</event>
<event>
 4    2  0.2027839E+006  0.2132877E+01  0.7546771E-02  0.2896465E+00
         22   -1    0    0    0    0  0.00000000000E+00  0.00000000000E+00  0.34283726774E+00  0.34283726774E+00  0.00000000000E+00 0.  1.
         22   -1    0    0    0    0 -0.00000000000E+00 -0.00000000000E+00 -0.21262414130E+02  0.21262414130E+02  0.00000000000E+00 0. -1.
          4    1    1    2  501    0 -0.18954644808E-01  0.21327923945E+01 -0.38363295703E+01  0.43893720791E+01  0.00000000000E+00 0.  1.
         -4    1    1    2    0  501  0.18954644808E-01 -0.21327923945E+01 -0.17083247291E+02  0.17215879318E+02  0.00000000000E+00 0. -1.
<mgrwt>
<rscale>  0 0.21328766E+01</rscale>
<asrwt>0</asrwt>
<pdfrwt beam="1">0</pdfrwt>
<pdfrwt beam="2">0</pdfrwt>
<totfact> 0.21085496E+12</totfact>
</mgrwt>
</event>
<event>
 4    2  0.2027839E+006  0.3033314E+01  0.7546771E-02  0.2511756E+00
         22   -1    0    0    0    0  0.00000000000E+00  0.00000000000E+00  0.12357722147E+01  0.12357722147E+01  0.00000000000E+00 0. -1.
         22   -1    0    0    0    0 -0.00000000000E+00 -0.00000000000E+00 -0.78203879209E+01  0.78203879209E+01  0.00000000000E+00 0.  1.
          4    1    1    2  501    0 -0.30318295877E+01 -0.94872262346E-01 -0.23009566662E+01  0.38072815729E+01  0.00000000000E+00 0. -1.
         -4    1    1    2    0  501  0.30318295877E+01  0.94872262346E-01 -0.42836590400E+01  0.52488785627E+01  0.00000000000E+00 0.  1.
<mgrwt>
<rscale>  0 0.30333136E+01</rscale>
<asrwt>0</asrwt>
<pdfrwt beam="1">0</pdfrwt>
<pdfrwt beam="2">0</pdfrwt>
<totfact> 0.16751916E+12</totfact>
</mgrwt>
</event>
<event>
 4    2  0.2027839E+006  0.4028332E+01  0.7546771E-02  0.2271911E+00
         22   -1    0    0    0    0  0.00000000000E+00  0.00000000000E+00  0.36920509945E+01  0.36920509945E+01  0.00000000000E+00 0.  1.
         22   -1    0    0    0    0 -0.00000000000E+00 -0.00000000000E+00 -0.57634273321E+01  0.57634273321E+01  0.00000000000E+00 0. -1.
          4    1    1    2  501    0 -0.34735454934E+01  0.20400827592E+01  0.12677981249E+01  0.42231230203E+01  0.00000000000E+00 0.  1.
         -4    1    1    2    0  501  0.34735454934E+01 -0.20400827592E+01 -0.33391744626E+01  0.52323553062E+01  0.00000000000E+00 0. -1.
<mgrwt>
<rscale>  0 0.40283317E+01</rscale>
<asrwt>0</asrwt>
<pdfrwt beam="1">0</pdfrwt>
<pdfrwt beam="2">0</pdfrwt>
<totfact> 0.67805286E+11</totfact>
</mgrwt>
</event>
<event>
 4    2  0.2027839E+006  0.6453276E+01  0.7546771E-02  0.1981273E+00
         22   -1    0    0    0    0  0.00000000000E+00  0.00000000000E+00  0.19613254444E+01  0.19613254444E+01  0.00000000000E+00 0. -1.
         22   -1    0    0    0    0 -0.00000000000E+00 -0.00000000000E+00 -0.24092420326E+02  0.24092420326E+02  0.00000000000E+00 0.  1.
          4    1    1    2  501    0 -0.37762927721E+01  0.52330096603E+01 -0.65776725759E+01  0.92146922749E+01  0.00000000000E+00 0. -1.
         -4    1    1    2    0  501  0.37762927721E+01 -0.52330096603E+01 -0.15553422306E+02  0.16839053496E+02  0.00000000000E+00 0.  1.
<mgrwt>
<rscale>  0 0.64532765E+01</rscale>
<asrwt>0</asrwt>
<pdfrwt beam="1">0</pdfrwt>
<pdfrwt beam="2">0</pdfrwt>
<totfact> 0.24738770E+11</totfact>
</mgrwt>
</event>
<event>
 4    2  0.2027839E+006  0.2641077E+01  0.7546771E-02  0.2649422E+00
         22   -1    0    0    0    0  0.00000000000E+00  0.00000000000E+00  0.12634187199E+02  0.12634187199E+02  0.00000000000E+00 0.  1.
         22   -1    0    0    0    0 -0.00000000000E+00 -0.00000000000E+00 -0.56639551996E+00  0.56639551996E+00  0.00000000000E+00 0. -1.
          4    1    1    2  501    0  0.85244010332E+00  0.24997271653E+01  0.70826095410E+01  0.75590110426E+01  0.00000000000E+00 0. -1.
         -4    1    1    2    0  501 -0.85244010332E+00 -0.24997271653E+01  0.49851821376E+01  0.56415716760E+01  0.00000000000E+00 0.  1.
<mgrwt>
<rscale>  0 0.26410774E+01</rscale>
<asrwt>0</asrwt>
<pdfrwt beam="1">0</pdfrwt>
<pdfrwt beam="2">0</pdfrwt>
<totfact> 0.22782368E+12</totfact>
</mgrwt>
</event>
<event>
 4    2  0.2027839E+006  0.2092252E+01  0.7546771E-02  0.2921122E+00
         22   -1    0    0    0    0  0.00000000000E+00  0.00000000000E+00  0.11225977522E+02  0.11225977522E+02  0.00000000000E+00 0.  1.
         22   -1    0    0    0    0 -0.00000000000E+00 -0.00000000000E+00 -0.21224128997E+01  0.21224128997E+01  0.00000000000E+00 0. -1.
          4    1    1    2  501    0 -0.20886929466E+01  0.12197875192E+00  0.10581771435E+02  0.10786630788E+02  0.00000000000E+00 0.  1.
         -4    1    1    2    0  501  0.20886929466E+01 -0.12197875192E+00 -0.14782068130E+01  0.25617596341E+01  0.00000000000E+00 0. -1.
<mgrwt>
<rscale>  0 0.20922517E+01</rscale>
<asrwt>0</asrwt>
<pdfrwt beam="1">0</pdfrwt>
<pdfrwt beam="2">0</pdfrwt>
<totfact> 0.58028775E+11</totfact>
</mgrwt>
</event>
<event>
 4    2  0.2027839E+006  0.2653804E+01  0.7546771E-02  0.2644376E+00
         22   -1    0    0    0    0  0.00000000000E+00  0.00000000000E+00  0.65771817890E+01  0.65771817890E+01  0.00000000000E+00 0.  1.
         22   -1    0    0    0    0 -0.00000000000E+00 -0.00000000000E+00 -0.12661629551E+01  0.12661629551E+01  0.00000000000E+00 0. -1.
          4    1    1    2  501    0  0.16413025821E+01  0.20853776920E+01  0.41960625303E+01  0.49648378667E+01  0.00000000000E+00 0.  1.
         -4    1    1    2    0  501 -0.16413025821E+01 -0.20853776920E+01  0.11149563036E+01  0.28785068774E+01  0.00000000000E+00 0. -1.
<mgrwt>
<rscale>  0 0.26538037E+01</rscale>
<asrwt>0</asrwt>
<pdfrwt beam="1">0</pdfrwt>
<pdfrwt beam="2">0</pdfrwt>
<totfact> 0.20043303E+12</totfact>
</mgrwt>
</event>
<event>
 4    2  0.2027839E+006  0.3640184E+01  0.7546771E-02  0.2351847E+00
         22   -1    0    0    0    0  0.00000000000E+00  0.00000000000E+00  0.15404491150E+02  0.15404491150E+02  0.00000000000E+00 0.  1.
         22   -1    0    0    0    0 -0.00000000000E+00 -0.00000000000E+00 -0.90940276557E+00  0.90940276557E+00  0.00000000000E+00 0. -1.
          4    1    1    2  501    0  0.17677782065E+00  0.36358893937E+01  0.91448817586E+01  0.98427539062E+01  0.00000000000E+00 0.  1.
         -4    1    1    2    0  501 -0.17677782065E+00 -0.36358893937E+01  0.53502066260E+01  0.64711400094E+01  0.00000000000E+00 0. -1.
<mgrwt>
<rscale>  0 0.36401843E+01</rscale>
<asrwt>0</asrwt>
<pdfrwt beam="1">0</pdfrwt>
<pdfrwt beam="2">0</pdfrwt>
<totfact> 0.10433981E+12</totfact>
</mgrwt>
</event>
<event>
 4    2  0.2027839E+006  0.3308587E+01  0.7546771E-02  0.2432826E+00
         22   -1    0    0    0    0  0.00000000000E+00  0.00000000000E+00  0.13079023384E+02  0.13079023384E+02  0.00000000000E+00 0. -1.
         22   -1    0    0    0    0 -0.00000000000E+00 -0.00000000000E+00 -0.16238714647E+01  0.16238714647E+01  0.00000000000E+00 0.  1.
          4    1    1    2  501    0 -0.15673401666E+01  0.29137930778E+01  0.61008232932E+00  0.33643640925E+01  0.00000000000E+00 0.  1.
         -4    1    1    2    0  501  0.15673401666E+01 -0.29137930778E+01  0.10845069590E+02  0.11338530757E+02  0.00000000000E+00 0. -1.
<mgrwt>
<rscale>  0 0.33085866E+01</rscale>
<asrwt>0</asrwt>
<pdfrwt beam="1">0</pdfrwt>
<pdfrwt beam="2">0</pdfrwt>
<totfact> 0.65633855E+11</totfact>
</mgrwt>
</event>
<event>
 4    2  0.2027839E+006  0.2433279E+01  0.7546771E-02  0.2738696E+00
         22   -1    0    0    0    0  0.00000000000E+00  0.00000000000E+00  0.12877242684E+01  0.12877242684E+01  0.00000000000E+00 0. -1.
         22   -1    0    0    0    0 -0.00000000000E+00 -0.00000000000E+00 -0.10988015680E+02  0.10988015680E+02  0.00000000000E+00 0.  1.
          4    1    1    2  501    0  0.69968782184E+00  0.23305115006E+01 -0.16943398174E+00  0.24391709200E+01  0.00000000000E+00 0. -1.
         -4    1    1    2    0  501 -0.69968782184E+00 -0.23305115006E+01 -0.95308574302E+01  0.98365690288E+01  0.00000000000E+00 0.  1.
<mgrwt>
<rscale>  0 0.24332790E+01</rscale>
<asrwt>0</asrwt>
<pdfrwt beam="1">0</pdfrwt>
<pdfrwt beam="2">0</pdfrwt>
<totfact> 0.10596952E+12</totfact>
</mgrwt>
</event>
<event>
 4    2  0.2027839E+006  0.2026570E+01  0.7546771E-02  0.2963018E+00
         22   -1    0    0    0    0  0.00000000000E+00  0.00000000000E+00  0.86691782216E+02  0.86691782216E+02  0.00000000000E+00 0.  1.
         22   -1    0    0    0    0 -0.00000000000E+00 -0.00000000000E+00 -0.17934502844E+00  0.17934502844E+00  0.00000000000E+00 0. -1.
          4    1    1    2  501    0 -0.14645841097E+01  0.14007068593E+01  0.80515900678E+02  0.80541400834E+02  0.00000000000E+00 0.  1.
         -4    1    1    2    0  501  0.14645841097E+01 -0.14007068593E+01  0.59965365098E+01  0.63297264107E+01  0.00000000000E+00 0. -1.
<mgrwt>
<rscale>  0 0.20265701E+01</rscale>
<asrwt>0</asrwt>
<pdfrwt beam="1">0</pdfrwt>
<pdfrwt beam="2">0</pdfrwt>
<totfact> 0.69159553E+11</totfact>
</mgrwt>
</event>
<event>
 4    2  0.2027839E+006  0.2252920E+01  0.7546771E-02  0.2828617E+00
         22   -1    0    0    0    0  0.00000000000E+00  0.00000000000E+00  0.19543588168E+02  0.19543588168E+02  0.00000000000E+00 0.  1.
         22   -1    0    0    0    0 -0.00000000000E+00 -0.00000000000E+00 -0.55238311792E+00  0.55238311792E+00  0.00000000000E+00 0. -1.
          4    1    1    2  501    0  0.22466656920E+01 -0.16775823314E+00  0.16809532895E+02  0.16959836253E+02  0.00000000000E+00 0.  1.
         -4    1    1    2    0  501 -0.22466656920E+01  0.16775823314E+00  0.21816721549E+01  0.31361350334E+01  0.00000000000E+00 0. -1.
<mgrwt>
<rscale>  0 0.22529202E+01</rscale>
<asrwt>0</asrwt>
<pdfrwt beam="1">0</pdfrwt>
<pdfrwt beam="2">0</pdfrwt>
<totfact> 0.13684467E+12</totfact>
</mgrwt>
</event>
<event>
 4    2  0.2027839E+006  0.3205869E+01  0.7546771E-02  0.2460871E+00
         22   -1    0    0    0    0  0.00000000000E+00  0.00000000000E+00  0.20642616105E+01  0.20642616105E+01  0.00000000000E+00 0.  1.
         22   -1    0    0    0    0 -0.00000000000E+00 -0.00000000000E+00 -0.17484153403E+02  0.17484153403E+02  0.00000000000E+00 0. -1.
          4    1    1    2  501    0 -0.23568947958E+01  0.21731649105E+01 -0.15976162646E+02  0.16294642423E+02  0.00000000000E+00 0. -1.
         -4    1    1    2    0  501  0.23568947958E+01 -0.21731649105E+01  0.55627085343E+00  0.32537725903E+01  0.00000000000E+00 0.  1.
<mgrwt>
<rscale>  0 0.32058694E+01</rscale>
<asrwt>0</asrwt>
<pdfrwt beam="1">0</pdfrwt>
<pdfrwt beam="2">0</pdfrwt>
<totfact> 0.34795423E+11</totfact>
</mgrwt>
</event>
<event>
 4    2  0.2027839E+006  0.2248074E+01  0.7546771E-02  0.2831222E+00
         22   -1    0    0    0    0  0.00000000000E+00  0.00000000000E+00  0.53345984962E+00  0.53345984962E+00  0.00000000000E+00 0. -1.
         22   -1    0    0    0    0 -0.00000000000E+00 -0.00000000000E+00 -0.12213089655E+02  0.12213089655E+02  0.00000000000E+00 0.  1.
          4    1    1    2  501    0 -0.22258466293E+01  0.31534452823E+00 -0.28214117330E+01  0.36075198621E+01  0.00000000000E+00 0. -1.
         -4    1    1    2    0  501  0.22258466293E+01 -0.31534452823E+00 -0.88582180727E+01  0.91390296428E+01  0.00000000000E+00 0.  1.
<mgrwt>
<rscale>  0 0.22480737E+01</rscale>
<asrwt>0</asrwt>
<pdfrwt beam="1">0</pdfrwt>
<pdfrwt beam="2">0</pdfrwt>
<totfact> 0.25408485E+12</totfact>
</mgrwt>
</event>
<event>
 4    2  0.2027839E+006  0.6072111E+01  0.7546771E-02  0.2013281E+00
         22   -1    0    0    0    0  0.00000000000E+00  0.00000000000E+00  0.56001287260E+01  0.56001287260E+01  0.00000000000E+00 0. -1.
         22   -1    0    0    0    0 -0.00000000000E+00 -0.00000000000E+00 -0.65864996478E+01  0.65864996478E+01  0.00000000000E+00 0.  1.
          4    1    1    2  501    0 -0.60268480245E+01  0.74001966011E+00 -0.37146143261E+00  0.60834619917E+01  0.00000000000E+00 0. -1.
         -4    1    1    2    0  501  0.60268480245E+01 -0.74001966011E+00 -0.61490948928E+00  0.61031663821E+01  0.00000000000E+00 0.  1.
<mgrwt>
<rscale>  0 0.60721105E+01</rscale>
<asrwt>0</asrwt>
<pdfrwt beam="1">0</pdfrwt>
<pdfrwt beam="2">0</pdfrwt>
<totfact> 0.35361533E+11</totfact>
</mgrwt>
</event>
<event>
 4    2  0.2027839E+006  0.4967687E+01  0.7546771E-02  0.2126881E+00
         22   -1    0    0    0    0  0.00000000000E+00  0.00000000000E+00  0.52301149423E+01  0.52301149423E+01  0.00000000000E+00 0.  1.
         22   -1    0    0    0    0 -0.00000000000E+00 -0.00000000000E+00 -0.48620903963E+01  0.48620903963E+01  0.00000000000E+00 0. -1.
          4    1    1    2  501    0 -0.49219136641E+01 -0.67281156603E+00 -0.68338764557E+00  0.50144718760E+01  0.00000000000E+00 0. -1.
         -4    1    1    2    0  501  0.49219136641E+01  0.67281156603E+00  0.10514121915E+01  0.50777334626E+01  0.00000000000E+00 0.  1.
<mgrwt>
<rscale>  0 0.49676865E+01</rscale>
<asrwt>0</asrwt>
<pdfrwt beam="1">0</pdfrwt>
<pdfrwt beam="2">0</pdfrwt>
<totfact> 0.55007467E+11</totfact>
</mgrwt>
</event>
<event>
 4    2  0.2027839E+006  0.2661109E+01  0.7546771E-02  0.2641499E+00
         22   -1    0    0    0    0  0.00000000000E+00  0.00000000000E+00  0.20807681515E+01  0.20807681515E+01  0.00000000000E+00 0.  1.
         22   -1    0    0    0    0 -0.00000000000E+00 -0.00000000000E+00 -0.15437988179E+02  0.15437988179E+02  0.00000000000E+00 0. -1.
          4    1    1    2  501    0  0.26606447935E+01 -0.49724774541E-01  0.10552290143E+01  0.28626930578E+01  0.00000000000E+00 0.  1.
         -4    1    1    2    0  501 -0.26606447935E+01  0.49724774541E-01 -0.14412449041E+02  0.14656063272E+02  0.00000000000E+00 0. -1.
<mgrwt>
<rscale>  0 0.26611094E+01</rscale>
<asrwt>0</asrwt>
<pdfrwt beam="1">0</pdfrwt>
<pdfrwt beam="2">0</pdfrwt>
<totfact> 0.40206441E+11</totfact>
</mgrwt>
</event>
<event>
 4    2  0.2027839E+006  0.2671678E+01  0.7546771E-02  0.2637363E+00
         22   -1    0    0    0    0  0.00000000000E+00  0.00000000000E+00  0.15826258888E+01  0.15826258888E+01  0.00000000000E+00 0.  1.
         22   -1    0    0    0    0 -0.00000000000E+00 -0.00000000000E+00 -0.46357850071E+01  0.46357850071E+01  0.00000000000E+00 0. -1.
          4    1    1    2  501    0  0.26703069578E+01 -0.85594176630E-01 -0.10147103682E+01  0.28578843124E+01  0.00000000000E+00 0.  1.
         -4    1    1    2    0  501 -0.26703069578E+01  0.85594176630E-01 -0.20384487501E+01  0.33605265835E+01  0.00000000000E+00 0. -1.
<mgrwt>
<rscale>  0 0.26716784E+01</rscale>
<asrwt>0</asrwt>
<pdfrwt beam="1">0</pdfrwt>
<pdfrwt beam="2">0</pdfrwt>
<totfact> 0.23496937E+12</totfact>
</mgrwt>
</event>
<event>
 4    2  0.2027839E+006  0.2916344E+01  0.7546771E-02  0.2549296E+00
         22   -1    0    0    0    0  0.00000000000E+00  0.00000000000E+00  0.54182352127E+00  0.54182352127E+00  0.00000000000E+00 0. -1.
         22   -1    0    0    0    0 -0.00000000000E+00 -0.00000000000E+00 -0.24442688830E+02  0.24442688830E+02  0.00000000000E+00 0.  1.
          4    1    1    2  501    0 -0.23944982814E+01  0.16647637762E+01 -0.44780206865E+01  0.53439432743E+01  0.00000000000E+00 0. -1.
         -4    1    1    2    0  501  0.23944982814E+01 -0.16647637762E+01 -0.19422844622E+02  0.19640569077E+02  0.00000000000E+00 0.  1.
<mgrwt>
<rscale>  0 0.29163437E+01</rscale>
<asrwt>0</asrwt>
<pdfrwt beam="1">0</pdfrwt>
<pdfrwt beam="2">0</pdfrwt>
<totfact> 0.10569372E+12</totfact>
</mgrwt>
</event>
<event>
 4    2  0.2027839E+006  0.3053730E+01  0.7546771E-02  0.2505469E+00
         22   -1    0    0    0    0  0.00000000000E+00  0.00000000000E+00  0.51062922700E+02  0.51062922700E+02  0.00000000000E+00 0.  1.
         22   -1    0    0    0    0 -0.00000000000E+00 -0.00000000000E+00 -0.50056182112E+00  0.50056182112E+00  0.00000000000E+00 0. -1.
          4    1    1    2  501    0  0.20328170435E+01  0.22787989357E+01  0.45828496743E+02  0.45930125010E+02  0.00000000000E+00 0.  1.
         -4    1    1    2    0  501 -0.20328170435E+01 -0.22787989357E+01  0.47338641351E+01  0.56333595102E+01  0.00000000000E+00 0. -1.
<mgrwt>
<rscale>  0 0.30537305E+01</rscale>
<asrwt>0</asrwt>
<pdfrwt beam="1">0</pdfrwt>
<pdfrwt beam="2">0</pdfrwt>
<totfact> 0.44742287E+11</totfact>
</mgrwt>
</event>
<event>
 4    2  0.2027839E+006  0.2246317E+01  0.7546771E-02  0.2832169E+00
         22   -1    0    0    0    0  0.00000000000E+00  0.00000000000E+00  0.49263932961E+01  0.49263932961E+01  0.00000000000E+00 0.  1.
         22   -1    0    0    0    0 -0.00000000000E+00 -0.00000000000E+00 -0.17284220728E+02  0.17284220728E+02  0.00000000000E+00 0. -1.
          4    1    1    2  501    0  0.12318043871E+01 -0.18784567346E+01  0.45923168161E+01  0.51122710698E+01  0.00000000000E+00 0.  1.
         -4    1    1    2    0  501 -0.12318043871E+01  0.18784567346E+01 -0.16950144248E+02  0.17098342955E+02  0.00000000000E+00 0. -1.
<mgrwt>
<rscale>  0 0.22463174E+01</rscale>
<asrwt>0</asrwt>
<pdfrwt beam="1">0</pdfrwt>
<pdfrwt beam="2">0</pdfrwt>
<totfact> 0.12752715E+11</totfact>
</mgrwt>
</event>
<event>
 4    2  0.2027839E+006  0.2025015E+01  0.7546771E-02  0.2964042E+00
         22   -1    0    0    0    0  0.00000000000E+00  0.00000000000E+00  0.72823545381E+02  0.72823545381E+02  0.00000000000E+00 0.  1.
         22   -1    0    0    0    0 -0.00000000000E+00 -0.00000000000E+00 -0.12529948810E+00  0.12529948810E+00  0.00000000000E+00 0. -1.
          4    1    1    2  501    0 -0.99501514192E+00 -0.17636975514E+01  0.63413974777E+02  0.63446299192E+02  0.00000000000E+00 0.  1.
         -4    1    1    2    0  501  0.99501514192E+00  0.17636975514E+01  0.92842711157E+01  0.95025456765E+01  0.00000000000E+00 0. -1.
<mgrwt>
<rscale>  0 0.20250146E+01</rscale>
<asrwt>0</asrwt>
<pdfrwt beam="1">0</pdfrwt>
<pdfrwt beam="2">0</pdfrwt>
<totfact> 0.13091894E+12</totfact>
</mgrwt>
</event>
<event>
 4    2  0.2027839E+006  0.2967255E+01  0.7546771E-02  0.2532630E+00
         22   -1    0    0    0    0  0.00000000000E+00  0.00000000000E+00  0.11944182928E+02  0.11944182928E+02  0.00000000000E+00 0. -1.
         22   -1    0    0    0    0 -0.00000000000E+00 -0.00000000000E+00 -0.12246478106E+01  0.12246478106E+01  0.00000000000E+00 0.  1.
          4    1    1    2  501    0 -0.89740967904E+00 -0.28282959126E+01  0.95140872016E+01  0.99660652808E+01  0.00000000000E+00 0. -1.
         -4    1    1    2    0  501  0.89740967904E+00  0.28282959126E+01  0.12054479160E+01  0.32027654580E+01  0.00000000000E+00 0.  1.
<mgrwt>
<rscale>  0 0.29672549E+01</rscale>
<asrwt>0</asrwt>
<pdfrwt beam="1">0</pdfrwt>
<pdfrwt beam="2">0</pdfrwt>
<totfact> 0.10141434E+12</totfact>
</mgrwt>
</event>
<event>
 4    2  0.2027839E+006  0.2257786E+01  0.7546771E-02  0.2826013E+00
         22   -1    0    0    0    0  0.00000000000E+00  0.00000000000E+00  0.80676218523E+01  0.80676218523E+01  0.00000000000E+00 0. -1.
         22   -1    0    0    0    0 -0.00000000000E+00 -0.00000000000E+00 -0.47229692648E+01  0.47229692648E+01  0.00000000000E+00 0.  1.
          4    1    1    2  501    0  0.19909575591E+01  0.10647472354E+01  0.76244734278E+01  0.79517415532E+01  0.00000000000E+00 0. -1.
         -4    1    1    2    0  501 -0.19909575591E+01 -0.10647472354E+01 -0.42798208403E+01  0.48388495640E+01  0.00000000000E+00 0.  1.
<mgrwt>
<rscale>  0 0.22577862E+01</rscale>
<asrwt>0</asrwt>
<pdfrwt beam="1">0</pdfrwt>
<pdfrwt beam="2">0</pdfrwt>
<totfact> 0.33935988E+11</totfact>
</mgrwt>
</event>
<event>
 4    2  0.2027839E+006  0.2516458E+01  0.7546771E-02  0.2701318E+00
         22   -1    0    0    0    0  0.00000000000E+00  0.00000000000E+00  0.40606552373E+01  0.40606552373E+01  0.00000000000E+00 0.  1.
         22   -1    0    0    0    0 -0.00000000000E+00 -0.00000000000E+00 -0.71097914462E+01  0.71097914462E+01  0.00000000000E+00 0. -1.
          4    1    1    2  501    0 -0.21365520957E+01 -0.13295514088E+01  0.34102403171E+01  0.42381954682E+01  0.00000000000E+00 0.  1.
         -4    1    1    2    0  501  0.21365520957E+01  0.13295514088E+01 -0.64593765261E+01  0.69322512153E+01  0.00000000000E+00 0. -1.
<mgrwt>
<rscale>  0 0.25164582E+01</rscale>
<asrwt>0</asrwt>
<pdfrwt beam="1">0</pdfrwt>
<pdfrwt beam="2">0</pdfrwt>
<totfact> 0.47196063E+11</totfact>
</mgrwt>
</event>
<event>
 4    2  0.2027839E+006  0.2075963E+01  0.7546771E-02  0.2931271E+00
         22   -1    0    0    0    0  0.00000000000E+00  0.00000000000E+00  0.43680899472E+00  0.43680899472E+00  0.00000000000E+00 0.  1.
         22   -1    0    0    0    0 -0.00000000000E+00 -0.00000000000E+00 -0.10037446093E+02  0.10037446093E+02  0.00000000000E+00 0. -1.
          4    1    1    2  501    0 -0.10387710020E+01 -0.17973809146E+01 -0.41161636465E+01  0.46100354133E+01  0.00000000000E+00 0.  1.
         -4    1    1    2    0  501  0.10387710020E+01  0.17973809146E+01 -0.54844734516E+01  0.58642196742E+01  0.00000000000E+00 0. -1.
<mgrwt>
<rscale>  0 0.20759632E+01</rscale>
<asrwt>0</asrwt>
<pdfrwt beam="1">0</pdfrwt>
<pdfrwt beam="2">0</pdfrwt>
<totfact> 0.40411911E+12</totfact>
</mgrwt>
</event>
<event>
 4    2  0.2027839E+006  0.2182167E+01  0.7546771E-02  0.2867740E+00
         22   -1    0    0    0    0  0.00000000000E+00  0.00000000000E+00  0.26769096261E+01  0.26769096261E+01  0.00000000000E+00 0.  1.
         22   -1    0    0    0    0 -0.00000000000E+00 -0.00000000000E+00 -0.34127303507E+01  0.34127303507E+01  0.00000000000E+00 0. -1.
          4    1    1    2  501    0 -0.18716899269E+01 -0.11218868412E+01  0.17388694202E+01  0.27902544916E+01  0.00000000000E+00 0.  1.
         -4    1    1    2    0  501  0.18716899269E+01  0.11218868412E+01 -0.24746901448E+01  0.32993854852E+01  0.00000000000E+00 0. -1.
<mgrwt>
<rscale>  0 0.21821671E+01</rscale>
<asrwt>0</asrwt>
<pdfrwt beam="1">0</pdfrwt>
<pdfrwt beam="2">0</pdfrwt>
<totfact> 0.18328348E+12</totfact>
</mgrwt>
</event>
<event>
 4    2  0.2027839E+006  0.4896765E+01  0.7546771E-02  0.2135532E+00
         22   -1    0    0    0    0  0.00000000000E+00  0.00000000000E+00  0.48685924050E+01  0.48685924050E+01  0.00000000000E+00 0.  1.
         22   -1    0    0    0    0 -0.00000000000E+00 -0.00000000000E+00 -0.91855224576E+01  0.91855224576E+01  0.00000000000E+00 0. -1.
          4    1    1    2  501    0  0.24903403560E+01  0.42162205494E+01  0.26272610549E+01  0.55570506080E+01  0.00000000000E+00 0.  1.
         -4    1    1    2    0  501 -0.24903403560E+01 -0.42162205494E+01 -0.69441911074E+01  0.84970642546E+01  0.00000000000E+00 0. -1.
<mgrwt>
<rscale>  0 0.48967653E+01</rscale>
<asrwt>0</asrwt>
<pdfrwt beam="1">0</pdfrwt>
<pdfrwt beam="2">0</pdfrwt>
<totfact> 0.28003460E+11</totfact>
</mgrwt>
</event>
<event>
 4    2  0.2027839E+006  0.2005475E+01  0.7546771E-02  0.2977042E+00
         22   -1    0    0    0    0  0.00000000000E+00  0.00000000000E+00  0.92217139413E+00  0.92217139413E+00  0.00000000000E+00 0.  1.
         22   -1    0    0    0    0 -0.00000000000E+00 -0.00000000000E+00 -0.76382788544E+01  0.76382788544E+01  0.00000000000E+00 0. -1.
          4    1    1    2  501    0 -0.17088667170E+01 -0.10496211008E+01 -0.55455030219E+00  0.20807344736E+01  0.00000000000E+00 0.  1.
         -4    1    1    2    0  501  0.17088667170E+01  0.10496211008E+01 -0.61615571581E+01  0.64797157750E+01  0.00000000000E+00 0. -1.
<mgrwt>
<rscale>  0 0.20054750E+01</rscale>
<asrwt>0</asrwt>
<pdfrwt beam="1">0</pdfrwt>
<pdfrwt beam="2">0</pdfrwt>
<totfact> 0.24078968E+12</totfact>
</mgrwt>
</event>
<event>
 4    2  0.2027839E+006  0.2317262E+01  0.7546771E-02  0.2795020E+00
         22   -1    0    0    0    0  0.00000000000E+00  0.00000000000E+00  0.43989606586E+00  0.43989606586E+00  0.00000000000E+00 0. -1.
         22   -1    0    0    0    0 -0.00000000000E+00 -0.00000000000E+00 -0.27223728709E+02  0.27223728709E+02  0.00000000000E+00 0.  1.
          4    1    1    2  501    0  0.12007598931E+01 -0.19818881976E+01 -0.23664896296E+02  0.23778078599E+02  0.00000000000E+00 0.  1.
         -4    1    1    2    0  501 -0.12007598931E+01  0.19818881976E+01 -0.31189363467E+01  0.38855461757E+01  0.00000000000E+00 0. -1.
<mgrwt>
<rscale>  0 0.23172624E+01</rscale>
<asrwt>0</asrwt>
<pdfrwt beam="1">0</pdfrwt>
<pdfrwt beam="2">0</pdfrwt>
<totfact> 0.11669921E+12</totfact>
</mgrwt>
</event>
<event>
 4    2  0.2027839E+006  0.2282048E+01  0.7546771E-02  0.2813185E+00
         22   -1    0    0    0    0  0.00000000000E+00  0.00000000000E+00  0.75962910643E+01  0.75962910643E+01  0.00000000000E+00 0.  1.
         22   -1    0    0    0    0 -0.00000000000E+00 -0.00000000000E+00 -0.12691250300E+01  0.12691250300E+01  0.00000000000E+00 0. -1.
          4    1    1    2  501    0 -0.17537747265E+01  0.14601428309E+01  0.61693831836E+01  0.65779200165E+01  0.00000000000E+00 0.  1.
         -4    1    1    2    0  501  0.17537747265E+01 -0.14601428309E+01  0.15778285069E+00  0.22874960778E+01  0.00000000000E+00 0. -1.
<mgrwt>
<rscale>  0 0.22820480E+01</rscale>
<asrwt>0</asrwt>
<pdfrwt beam="1">0</pdfrwt>
<pdfrwt beam="2">0</pdfrwt>
<totfact> 0.16824143E+12</totfact>
</mgrwt>
</event>
<event>
 4    2  0.2027839E+006  0.2785964E+01  0.7546771E-02  0.2594475E+00
         22   -1    0    0    0    0  0.00000000000E+00  0.00000000000E+00  0.16110082794E+01  0.16110082794E+01  0.00000000000E+00 0.  1.
         22   -1    0    0    0    0 -0.00000000000E+00 -0.00000000000E+00 -0.54127393282E+01  0.54127393282E+01  0.00000000000E+00 0. -1.
          4    1    1    2  501    0  0.27841037980E+01  0.10178452815E+00 -0.73660832858E+00  0.28816984363E+01  0.00000000000E+00 0.  1.
         -4    1    1    2    0  501 -0.27841037980E+01 -0.10178452815E+00 -0.30651227202E+01  0.41420491713E+01  0.00000000000E+00 0. -1.
<mgrwt>
<rscale>  0 0.27859638E+01</rscale>
<asrwt>0</asrwt>
<pdfrwt beam="1">0</pdfrwt>
<pdfrwt beam="2">0</pdfrwt>
<totfact> 0.19161918E+12</totfact>
</mgrwt>
</event>
<event>
 4    2  0.2027839E+006  0.2193902E+01  0.7546771E-02  0.2861084E+00
         22   -1    0    0    0    0  0.00000000000E+00  0.00000000000E+00  0.15559611162E+02  0.15559611162E+02  0.00000000000E+00 0.  1.
         22   -1    0    0    0    0 -0.00000000000E+00 -0.00000000000E+00 -0.44981816004E+00  0.44981816004E+00  0.00000000000E+00 0. -1.
          4    1    1    2  501    0 -0.14341313751E+01 -0.16602625723E+01  0.12028240693E+02  0.12226683065E+02  0.00000000000E+00 0.  1.
         -4    1    1    2    0  501  0.14341313751E+01  0.16602625723E+01  0.30815523091E+01  0.37827462568E+01  0.00000000000E+00 0. -1.
<mgrwt>
<rscale>  0 0.21939017E+01</rscale>
<asrwt>0</asrwt>
<pdfrwt beam="1">0</pdfrwt>
<pdfrwt beam="2">0</pdfrwt>
<totfact> 0.22888409E+12</totfact>
</mgrwt>
</event>
<event>
 4    2  0.2027839E+006  0.2378882E+01  0.7546771E-02  0.2764461E+00
         22   -1    0    0    0    0  0.00000000000E+00  0.00000000000E+00  0.95120845487E+01  0.95120845487E+01  0.00000000000E+00 0. -1.
         22   -1    0    0    0    0 -0.00000000000E+00 -0.00000000000E+00 -0.11189772504E+01  0.11189772504E+01  0.00000000000E+00 0.  1.
          4    1    1    2  501    0 -0.23056889882E+01  0.58555971964E+00  0.78341854664E+01  0.81874015303E+01  0.00000000000E+00 0. -1.
         -4    1    1    2    0  501  0.23056889882E+01 -0.58555971964E+00  0.55892183192E+00  0.24436602689E+01  0.00000000000E+00 0.  1.
<mgrwt>
<rscale>  0 0.23788825E+01</rscale>
<asrwt>0</asrwt>
<pdfrwt beam="1">0</pdfrwt>
<pdfrwt beam="2">0</pdfrwt>
<totfact> 0.14824787E+12</totfact>
</mgrwt>
</event>
<event>
 4    2  0.2027839E+006  0.1604700E+02  0.7546771E-02  0.1603051E+00
         22   -1    0    0    0    0  0.00000000000E+00  0.00000000000E+00  0.87775109787E+02  0.87775109787E+02  0.00000000000E+00 0. -1.
         22   -1    0    0    0    0 -0.00000000000E+00 -0.00000000000E+00 -0.46686147202E+01  0.46686147202E+01  0.00000000000E+00 0.  1.
          4    1    1    2  501    0  0.13972816135E+02 -0.78909261684E+01  0.69730057410E+02  0.71552688370E+02  0.00000000000E+00 0. -1.
         -4    1    1    2    0  501 -0.13972816135E+02  0.78909261684E+01  0.13376437657E+02  0.20891036138E+02  0.00000000000E+00 0.  1.
<mgrwt>
<rscale>  0 0.16047003E+02</rscale>
<asrwt>0</asrwt>
<pdfrwt beam="1">0</pdfrwt>
<pdfrwt beam="2">0</pdfrwt>
<totfact> 0.16403767E+10</totfact>
</mgrwt>
</event>
<event>
 4    2  0.2027839E+006  0.2151729E+01  0.7546771E-02  0.2885328E+00
         22   -1    0    0    0    0  0.00000000000E+00  0.00000000000E+00  0.14457377735E+01  0.14457377735E+01  0.00000000000E+00 0.  1.
         22   -1    0    0    0    0 -0.00000000000E+00 -0.00000000000E+00 -0.52034317761E+01  0.52034317761E+01  0.00000000000E+00 0. -1.
          4    1    1    2  501    0  0.21515134921E+01  0.30467922593E-01  0.18278605263E+00  0.21594789515E+01  0.00000000000E+00 0.  1.
         -4    1    1    2    0  501 -0.21515134921E+01 -0.30467922593E-01 -0.39404800552E+01  0.44896905981E+01  0.00000000000E+00 0. -1.
<mgrwt>
<rscale>  0 0.21517292E+01</rscale>
<asrwt>0</asrwt>
<pdfrwt beam="1">0</pdfrwt>
<pdfrwt beam="2">0</pdfrwt>
<totfact> 0.22742180E+12</totfact>
</mgrwt>
</event>
<event>
 4    2  0.2027839E+006  0.2536789E+01  0.7546771E-02  0.2692530E+00
         22   -1    0    0    0    0  0.00000000000E+00  0.00000000000E+00  0.51866166480E+02  0.51866166480E+02  0.00000000000E+00 0.  1.
         22   -1    0    0    0    0 -0.00000000000E+00 -0.00000000000E+00 -0.32482616636E+00  0.32482616636E+00  0.00000000000E+00 0. -1.
          4    1    1    2  501    0  0.18395842156E+01 -0.17467759091E+01  0.46285554089E+02  0.46355019291E+02  0.00000000000E+00 0.  1.
         -4    1    1    2    0  501 -0.18395842156E+01  0.17467759091E+01  0.52557862246E+01  0.58359733551E+01  0.00000000000E+00 0. -1.
<mgrwt>
<rscale>  0 0.25367886E+01</rscale>
<asrwt>0</asrwt>
<pdfrwt beam="1">0</pdfrwt>
<pdfrwt beam="2">0</pdfrwt>
<totfact> 0.71314129E+11</totfact>
</mgrwt>
</event>
<event>
 4    2  0.2027839E+006  0.2942400E+01  0.7546771E-02  0.2540702E+00
         22   -1    0    0    0    0  0.00000000000E+00  0.00000000000E+00  0.56724917999E+01  0.56724917999E+01  0.00000000000E+00 0. -1.
         22   -1    0    0    0    0 -0.00000000000E+00 -0.00000000000E+00 -0.17914837977E+02  0.17914837977E+02  0.00000000000E+00 0.  1.
          4    1    1    2  501    0 -0.97917203559E+00 -0.27746958289E+01  0.51589265556E+01  0.59390435277E+01  0.00000000000E+00 0. -1.
         -4    1    1    2    0  501  0.97917203559E+00  0.27746958289E+01 -0.17401272733E+02  0.17648286250E+02  0.00000000000E+00 0.  1.
<mgrwt>
<rscale>  0 0.29423995E+01</rscale>
<asrwt>0</asrwt>
<pdfrwt beam="1">0</pdfrwt>
<pdfrwt beam="2">0</pdfrwt>
<totfact> 0.10320711E+11</totfact>
</mgrwt>
</event>
<event>
 4    2  0.2027839E+006  0.3244734E+01  0.7546771E-02  0.2450075E+00
         22   -1    0    0    0    0  0.00000000000E+00  0.00000000000E+00  0.10764851247E+02  0.10764851247E+02  0.00000000000E+00 0.  1.
         22   -1    0    0    0    0 -0.00000000000E+00 -0.00000000000E+00 -0.17075604893E+01  0.17075604893E+01  0.00000000000E+00 0. -1.
          4    1    1    2  501    0 -0.32418950244E+01 -0.13570828021E+00  0.86048448522E+01  0.91962848486E+01  0.00000000000E+00 0.  1.
         -4    1    1    2    0  501  0.32418950244E+01  0.13570828021E+00  0.45244590550E+00  0.32761268876E+01  0.00000000000E+00 0. -1.
<mgrwt>
<rscale>  0 0.32447342E+01</rscale>
<asrwt>0</asrwt>
<pdfrwt beam="1">0</pdfrwt>
<pdfrwt beam="2">0</pdfrwt>
<totfact> 0.78529972E+11</totfact>
</mgrwt>
</event>
<event>
 4    2  0.2027839E+006  0.2103949E+01  0.7546771E-02  0.2913928E+00
         22   -1    0    0    0    0  0.00000000000E+00  0.00000000000E+00  0.55353990299E+00  0.55353990299E+00  0.00000000000E+00 0. -1.
         22   -1    0    0    0    0 -0.00000000000E+00 -0.00000000000E+00 -0.17097470951E+02  0.17097470951E+02  0.00000000000E+00 0.  1.
          4    1    1    2  501    0 -0.19587213922E+01  0.76812345070E+00 -0.18331204691E+01  0.27905078001E+01  0.00000000000E+00 0. -1.
         -4    1    1    2    0  501  0.19587213922E+01 -0.76812345070E+00 -0.14710810579E+02  0.14860503054E+02  0.00000000000E+00 0.  1.
<mgrwt>
<rscale>  0 0.21039494E+01</rscale>
<asrwt>0</asrwt>
<pdfrwt beam="1">0</pdfrwt>
<pdfrwt beam="2">0</pdfrwt>
<totfact> 0.16117215E+12</totfact>
</mgrwt>
</event>
<event>
 4    2  0.2027839E+006  0.4212801E+01  0.7546771E-02  0.2238373E+00
         22   -1    0    0    0    0  0.00000000000E+00  0.00000000000E+00  0.59666000852E+01  0.59666000852E+01  0.00000000000E+00 0.  1.
         22   -1    0    0    0    0 -0.00000000000E+00 -0.00000000000E+00 -0.33676382094E+01  0.33676382094E+01  0.00000000000E+00 0. -1.
          4    1    1    2  501    0 -0.37152995128E+00  0.41963858037E+01  0.28940944330E+01  0.51111124919E+01  0.00000000000E+00 0.  1.
         -4    1    1    2    0  501  0.37152995128E+00 -0.41963858037E+01 -0.29513255717E+00  0.42231258026E+01  0.00000000000E+00 0. -1.
<mgrwt>
<rscale>  0 0.42128005E+01</rscale>
<asrwt>0</asrwt>
<pdfrwt beam="1">0</pdfrwt>
<pdfrwt beam="2">0</pdfrwt>
<totfact> 0.72479198E+11</totfact>
</mgrwt>
</event>
<event>
 4    2  0.2027839E+006  0.2760013E+01  0.7546771E-02  0.2603929E+00
         22   -1    0    0    0    0  0.00000000000E+00  0.00000000000E+00  0.10747183514E+01  0.10747183514E+01  0.00000000000E+00 0.  1.
         22   -1    0    0    0    0 -0.00000000000E+00 -0.00000000000E+00 -0.71389553453E+01  0.71389553453E+01  0.00000000000E+00 0. -1.
          4    1    1    2  501    0 -0.65993370197E+00  0.26799550646E+01 -0.26853694091E+01  0.38508285475E+01  0.00000000000E+00 0. -1.
         -4    1    1    2    0  501  0.65993370197E+00 -0.26799550646E+01 -0.33788675848E+01  0.43628451491E+01  0.00000000000E+00 0.  1.
<mgrwt>
<rscale>  0 0.27600130E+01</rscale>
<asrwt>0</asrwt>
<pdfrwt beam="1">0</pdfrwt>
<pdfrwt beam="2">0</pdfrwt>
<totfact> 0.21925613E+12</totfact>
</mgrwt>
</event>
<event>
 4    2  0.2027839E+006  0.2023904E+01  0.7546771E-02  0.2964774E+00
         22   -1    0    0    0    0  0.00000000000E+00  0.00000000000E+00  0.11883628602E+01  0.11883628602E+01  0.00000000000E+00 0. -1.
         22   -1    0    0    0    0 -0.00000000000E+00 -0.00000000000E+00 -0.37186358292E+01  0.37186358292E+01  0.00000000000E+00 0.  1.
          4    1    1    2  501    0  0.16654052601E+01 -0.11500484088E+01 -0.60191984172E+00  0.21115145083E+01  0.00000000000E+00 0. -1.
         -4    1    1    2    0  501 -0.16654052601E+01  0.11500484088E+01 -0.19283531272E+01  0.27954841810E+01  0.00000000000E+00 0.  1.
<mgrwt>
<rscale>  0 0.20239037E+01</rscale>
<asrwt>0</asrwt>
<pdfrwt beam="1">0</pdfrwt>
<pdfrwt beam="2">0</pdfrwt>
<totfact> 0.42332184E+12</totfact>
</mgrwt>
</event>
<event>
 4    2  0.2027839E+006  0.2400022E+01  0.7546771E-02  0.2754318E+00
         22   -1    0    0    0    0  0.00000000000E+00  0.00000000000E+00  0.41890688981E+01  0.41890688981E+01  0.00000000000E+00 0. -1.
         22   -1    0    0    0    0 -0.00000000000E+00 -0.00000000000E+00 -0.79876347306E+01  0.79876347306E+01  0.00000000000E+00 0.  1.
          4    1    1    2  501    0 -0.45042034996E+00  0.23573770936E+01  0.36402971822E+01  0.43602601789E+01  0.00000000000E+00 0. -1.
         -4    1    1    2    0  501  0.45042034996E+00 -0.23573770936E+01 -0.74388630147E+01  0.78164434499E+01  0.00000000000E+00 0.  1.
<mgrwt>
<rscale>  0 0.24000219E+01</rscale>
<asrwt>0</asrwt>
<pdfrwt beam="1">0</pdfrwt>
<pdfrwt beam="2">0</pdfrwt>
<totfact> 0.39568689E+11</totfact>
</mgrwt>
</event>
<event>
 4    2  0.2027839E+006  0.2513606E+01  0.7546771E-02  0.2702562E+00
         22   -1    0    0    0    0  0.00000000000E+00  0.00000000000E+00  0.18263984311E+01  0.18263984311E+01  0.00000000000E+00 0.  1.
         22   -1    0    0    0    0 -0.00000000000E+00 -0.00000000000E+00 -0.38607303481E+01  0.38607303481E+01  0.00000000000E+00 0. -1.
          4    1    1    2  501    0 -0.35332008539E+00  0.24886506552E+01 -0.10033998791E+00  0.25156083319E+01  0.00000000000E+00 0.  1.
         -4    1    1    2    0  501  0.35332008539E+00 -0.24886506552E+01 -0.19339919291E+01  0.31715204474E+01  0.00000000000E+00 0. -1.
<mgrwt>
<rscale>  0 0.25136064E+01</rscale>
<asrwt>0</asrwt>
<pdfrwt beam="1">0</pdfrwt>
<pdfrwt beam="2">0</pdfrwt>
<totfact> 0.24710190E+12</totfact>
</mgrwt>
</event>
<event>
 4    2  0.2027839E+006  0.3194712E+01  0.7546771E-02  0.2464014E+00
         22   -1    0    0    0    0  0.00000000000E+00  0.00000000000E+00  0.35045275541E+01  0.35045275541E+01  0.00000000000E+00 0.  1.
         22   -1    0    0    0    0 -0.00000000000E+00 -0.00000000000E+00 -0.19343063187E+02  0.19343063187E+02  0.00000000000E+00 0. -1.
          4    1    1    2  501    0 -0.16579280962E+01  0.27308348075E+01  0.26094830986E+01  0.41249953163E+01  0.00000000000E+00 0.  1.
         -4    1    1    2    0  501  0.16579280962E+01 -0.27308348075E+01 -0.18448018731E+02  0.18722595425E+02  0.00000000000E+00 0. -1.
<mgrwt>
<rscale>  0 0.31947119E+01</rscale>
<asrwt>0</asrwt>
<pdfrwt beam="1">0</pdfrwt>
<pdfrwt beam="2">0</pdfrwt>
<totfact> 0.16564209E+11</totfact>
</mgrwt>
</event>
<event>
 4    2  0.2027839E+006  0.2043422E+01  0.7546771E-02  0.2952018E+00
         22   -1    0    0    0    0  0.00000000000E+00  0.00000000000E+00  0.30937622060E+00  0.30937622060E+00  0.00000000000E+00 0. -1.
         22   -1    0    0    0    0 -0.00000000000E+00 -0.00000000000E+00 -0.13597560023E+02  0.13597560023E+02  0.00000000000E+00 0.  1.
          4    1    1    2  501    0  0.17805683647E+00  0.20356494629E+01 -0.72428157280E+01  0.75255533113E+01  0.00000000000E+00 0.  1.
         -4    1    1    2    0  501 -0.17805683647E+00 -0.20356494629E+01 -0.60453680746E+01  0.63813829324E+01  0.00000000000E+00 0. -1.
<mgrwt>
<rscale>  0 0.20434219E+01</rscale>
<asrwt>0</asrwt>
<pdfrwt beam="1">0</pdfrwt>
<pdfrwt beam="2">0</pdfrwt>
<totfact> 0.41146857E+12</totfact>
</mgrwt>
</event>
<event>
 4    2  0.2027839E+006  0.2587184E+01  0.7546771E-02  0.2671298E+00
         22   -1    0    0    0    0  0.00000000000E+00  0.00000000000E+00  0.54386944915E+01  0.54386944915E+01  0.00000000000E+00 0.  1.
         22   -1    0    0    0    0 -0.00000000000E+00 -0.00000000000E+00 -0.26781865663E+01  0.26781865663E+01  0.00000000000E+00 0. -1.
          4    1    1    2  501    0  0.21751318955E+01 -0.14008298583E+01 -0.16033603752E+01  0.30437292172E+01  0.00000000000E+00 0. -1.
         -4    1    1    2    0  501 -0.21751318955E+01  0.14008298583E+01  0.43638683004E+01  0.50731518406E+01  0.00000000000E+00 0.  1.
<mgrwt>
<rscale>  0 0.25871844E+01</rscale>
<asrwt>0</asrwt>
<pdfrwt beam="1">0</pdfrwt>
<pdfrwt beam="2">0</pdfrwt>
<totfact> 0.10574076E+12</totfact>
</mgrwt>
</event>
<event>
 4    2  0.2027839E+006  0.4349171E+01  0.7546771E-02  0.2215137E+00
         22   -1    0    0    0    0  0.00000000000E+00  0.00000000000E+00  0.28761898816E+01  0.28761898816E+01  0.00000000000E+00 0. -1.
         22   -1    0    0    0    0 -0.00000000000E+00 -0.00000000000E+00 -0.66063306682E+01  0.66063306682E+01  0.00000000000E+00 0.  1.
          4    1    1    2  501    0  0.39240665745E+01 -0.18753640402E+01 -0.15465191542E+01  0.46159517176E+01  0.00000000000E+00 0. -1.
         -4    1    1    2    0  501 -0.39240665745E+01  0.18753640402E+01 -0.21836216324E+01  0.48665688322E+01  0.00000000000E+00 0.  1.
<mgrwt>
<rscale>  0 0.43491710E+01</rscale>
<asrwt>0</asrwt>
<pdfrwt beam="1">0</pdfrwt>
<pdfrwt beam="2">0</pdfrwt>
<totfact> 0.77194706E+11</totfact>
</mgrwt>
</event>
<event>
 4    2  0.2027839E+006  0.2016911E+01  0.7546771E-02  0.2969403E+00
         22   -1    0    0    0    0  0.00000000000E+00  0.00000000000E+00  0.47207457157E+01  0.47207457157E+01  0.00000000000E+00 0.  1.
         22   -1    0    0    0    0 -0.00000000000E+00 -0.00000000000E+00 -0.12364542733E+01  0.12364542733E+01  0.00000000000E+00 0. -1.
          4    1    1    2  501    0  0.13644743540E+01  0.14853084375E+01  0.33819367015E+01  0.39376931407E+01  0.00000000000E+00 0.  1.
         -4    1    1    2    0  501 -0.13644743540E+01 -0.14853084375E+01  0.10235474087E+00  0.20195068483E+01  0.00000000000E+00 0. -1.
<mgrwt>
<rscale>  0 0.20169114E+01</rscale>
<asrwt>0</asrwt>
<pdfrwt beam="1">0</pdfrwt>
<pdfrwt beam="2">0</pdfrwt>
<totfact> 0.30537155E+12</totfact>
</mgrwt>
</event>
<event>
 4    2  0.2027839E+006  0.2326294E+01  0.7546771E-02  0.2790446E+00
         22   -1    0    0    0    0  0.00000000000E+00  0.00000000000E+00  0.56603699890E+01  0.56603699890E+01  0.00000000000E+00 0.  1.
         22   -1    0    0    0    0 -0.00000000000E+00 -0.00000000000E+00 -0.33117462381E+01  0.33117462381E+01  0.00000000000E+00 0. -1.
          4    1    1    2  501    0  0.18650125871E+01  0.13904579813E+01  0.49578247997E+01  0.54764652918E+01  0.00000000000E+00 0.  1.
         -4    1    1    2    0  501 -0.18650125871E+01 -0.13904579813E+01 -0.26092010488E+01  0.34956509352E+01  0.00000000000E+00 0. -1.
<mgrwt>
<rscale>  0 0.23262943E+01</rscale>
<asrwt>0</asrwt>
<pdfrwt beam="1">0</pdfrwt>
<pdfrwt beam="2">0</pdfrwt>
<totfact> 0.78689630E+11</totfact>
</mgrwt>
</event>
<event>
 4    2  0.2027839E+006  0.2717412E+01  0.7546771E-02  0.2619805E+00
         22   -1    0    0    0    0  0.00000000000E+00  0.00000000000E+00  0.63910095337E+01  0.63910095337E+01  0.00000000000E+00 0.  1.
         22   -1    0    0    0    0 -0.00000000000E+00 -0.00000000000E+00 -0.19182881742E+01  0.19182881742E+01  0.00000000000E+00 0. -1.
          4    1    1    2  501    0  0.10624649556E+01 -0.25010986677E+01  0.48563588339E+01  0.55649391237E+01  0.00000000000E+00 0.  1.
         -4    1    1    2    0  501 -0.10624649556E+01  0.25010986677E+01 -0.38363747438E+00  0.27443585842E+01  0.00000000000E+00 0. -1.
<mgrwt>
<rscale>  0 0.27174117E+01</rscale>
<asrwt>0</asrwt>
<pdfrwt beam="1">0</pdfrwt>
<pdfrwt beam="2">0</pdfrwt>
<totfact> 0.12855320E+12</totfact>
</mgrwt>
</event>
<event>
 4    2  0.2027839E+006  0.2102731E+01  0.7546771E-02  0.2914673E+00
         22   -1    0    0    0    0  0.00000000000E+00  0.00000000000E+00  0.43126627016E+00  0.43126627016E+00  0.00000000000E+00 0.  1.
         22   -1    0    0    0    0 -0.00000000000E+00 -0.00000000000E+00 -0.12281300176E+02  0.12281300176E+02  0.00000000000E+00 0. -1.
          4    1    1    2  501    0  0.15662079215E+01 -0.14030222497E+01 -0.85085870360E+01  0.87645611433E+01  0.00000000000E+00 0.  1.
         -4    1    1    2    0  501 -0.15662079215E+01  0.14030222497E+01 -0.33414468694E+01  0.39480053024E+01  0.00000000000E+00 0. -1.
<mgrwt>
<rscale>  0 0.21027312E+01</rscale>
<asrwt>0</asrwt>
<pdfrwt beam="1">0</pdfrwt>
<pdfrwt beam="2">0</pdfrwt>
<totfact> 0.32080568E+12</totfact>
</mgrwt>
</event>
<event>
 4    2  0.2027839E+006  0.3318322E+01  0.7546771E-02  0.2430247E+00
         22   -1    0    0    0    0  0.00000000000E+00  0.00000000000E+00  0.10334632973E+02  0.10334632973E+02  0.00000000000E+00 0. -1.
         22   -1    0    0    0    0 -0.00000000000E+00 -0.00000000000E+00 -0.28913337157E+01  0.28913337157E+01  0.00000000000E+00 0.  1.
          4    1    1    2  501    0  0.24904577545E+01 -0.21929164938E+01  0.89767649873E+01  0.95704530830E+01  0.00000000000E+00 0. -1.
         -4    1    1    2    0  501 -0.24904577545E+01  0.21929164938E+01 -0.15334657301E+01  0.36555136056E+01  0.00000000000E+00 0.  1.
<mgrwt>
<rscale>  0 0.33183223E+01</rscale>
<asrwt>0</asrwt>
<pdfrwt beam="1">0</pdfrwt>
<pdfrwt beam="2">0</pdfrwt>
<totfact> 0.44788195E+11</totfact>
</mgrwt>
</event>
<event>
 4    2  0.2027839E+006  0.5941755E+01  0.7546771E-02  0.2024951E+00
         22   -1    0    0    0    0  0.00000000000E+00  0.00000000000E+00  0.17803332484E+02  0.17803332484E+02  0.00000000000E+00 0. -1.
         22   -1    0    0    0    0 -0.00000000000E+00 -0.00000000000E+00 -0.21197361820E+01  0.21197361820E+01  0.00000000000E+00 0.  1.
          4    1    1    2  501    0  0.31924176928E+01 -0.50112797109E+01  0.10371604045E+02  0.11953017423E+02  0.00000000000E+00 0. -1.
         -4    1    1    2    0  501 -0.31924176928E+01  0.50112797109E+01  0.53119922572E+01  0.79700512424E+01  0.00000000000E+00 0.  1.
<mgrwt>
<rscale>  0 0.59417552E+01</rscale>
<asrwt>0</asrwt>
<pdfrwt beam="1">0</pdfrwt>
<pdfrwt beam="2">0</pdfrwt>
<totfact> 0.32994564E+11</totfact>
</mgrwt>
</event>
<event>
 4    2  0.2027839E+006  0.2860725E+01  0.7546771E-02  0.2568112E+00
         22   -1    0    0    0    0  0.00000000000E+00  0.00000000000E+00  0.13763544144E+02  0.13763544144E+02  0.00000000000E+00 0.  1.
         22   -1    0    0    0    0 -0.00000000000E+00 -0.00000000000E+00 -0.63115728668E+00  0.63115728668E+00  0.00000000000E+00 0. -1.
          4    1    1    2  501    0  0.74156271511E+00  0.27629393669E+01  0.48339289202E+01  0.56169936809E+01  0.00000000000E+00 0. -1.
         -4    1    1    2    0  501 -0.74156271511E+00 -0.27629393669E+01  0.82984579367E+01  0.87777077493E+01  0.00000000000E+00 0.  1.
<mgrwt>
<rscale>  0 0.28607253E+01</rscale>
<asrwt>0</asrwt>
<pdfrwt beam="1">0</pdfrwt>
<pdfrwt beam="2">0</pdfrwt>
<totfact> 0.18149047E+12</totfact>
</mgrwt>
</event>
<event>
 4    2  0.2027839E+006  0.2883244E+01  0.7546771E-02  0.2560415E+00
         22   -1    0    0    0    0  0.00000000000E+00  0.00000000000E+00  0.89502127431E+00  0.89502127431E+00  0.00000000000E+00 0.  1.
         22   -1    0    0    0    0 -0.00000000000E+00 -0.00000000000E+00 -0.21232531748E+02  0.21232531748E+02  0.00000000000E+00 0. -1.
          4    1    1    2  501    0 -0.28208741750E+01 -0.59646095962E+00 -0.18705486865E+01  0.34368661854E+01  0.00000000000E+00 0.  1.
         -4    1    1    2    0  501  0.28208741750E+01  0.59646095962E+00 -0.18466961787E+02  0.18690686837E+02  0.00000000000E+00 0. -1.
<mgrwt>
<rscale>  0 0.28832441E+01</rscale>
<asrwt>0</asrwt>
<pdfrwt beam="1">0</pdfrwt>
<pdfrwt beam="2">0</pdfrwt>
<totfact> 0.71348129E+11</totfact>
</mgrwt>
</event>
<event>
 4    2  0.2027839E+006  0.2625228E+01  0.7546771E-02  0.2655770E+00
         22   -1    0    0    0    0  0.00000000000E+00  0.00000000000E+00  0.20346924572E+02  0.20346924572E+02  0.00000000000E+00 0.  1.
         22   -1    0    0    0    0 -0.00000000000E+00 -0.00000000000E+00 -0.37924668017E+00  0.37924668017E+00  0.00000000000E+00 0. -1.
          4    1    1    2  501    0 -0.13492331226E+01 -0.22519747025E+01  0.13371675596E+02  0.13626941268E+02  0.00000000000E+00 0.  1.
         -4    1    1    2    0  501  0.13492331226E+01  0.22519747025E+01  0.65960022956E+01  0.70992299838E+01  0.00000000000E+00 0. -1.
<mgrwt>
<rscale>  0 0.26252276E+01</rscale>
<asrwt>0</asrwt>
<pdfrwt beam="1">0</pdfrwt>
<pdfrwt beam="2">0</pdfrwt>
<totfact> 0.19889580E+12</totfact>
</mgrwt>
</event>
<event>
 4    2  0.2027839E+006  0.2446305E+01  0.7546771E-02  0.2732686E+00
         22   -1    0    0    0    0  0.00000000000E+00  0.00000000000E+00  0.46503000964E+00  0.46503000964E+00  0.00000000000E+00 0.  1.
         22   -1    0    0    0    0 -0.00000000000E+00 -0.00000000000E+00 -0.25395268208E+02  0.25395268208E+02  0.00000000000E+00 0. -1.
          4    1    1    2  501    0  0.20431959096E+01  0.13452732764E+01 -0.33839810815E+01  0.41756122513E+01  0.00000000000E+00 0.  1.
         -4    1    1    2    0  501 -0.20431959096E+01 -0.13452732764E+01 -0.21546257117E+02  0.21684685966E+02  0.00000000000E+00 0. -1.
<mgrwt>
<rscale>  0 0.24463053E+01</rscale>
<asrwt>0</asrwt>
<pdfrwt beam="1">0</pdfrwt>
<pdfrwt beam="2">0</pdfrwt>
<totfact> 0.11968999E+12</totfact>
</mgrwt>
</event>
<event>
 4    2  0.2027839E+006  0.2910393E+01  0.7546771E-02  0.2551278E+00
         22   -1    0    0    0    0  0.00000000000E+00  0.00000000000E+00  0.21176483534E+01  0.21176483534E+01  0.00000000000E+00 0.  1.
         22   -1    0    0    0    0 -0.00000000000E+00 -0.00000000000E+00 -0.56835019323E+01  0.56835019323E+01  0.00000000000E+00 0. -1.
          4    1    1    2  501    0 -0.13981251232E+01  0.25525742129E+01 -0.39058774678E+01  0.48709616881E+01  0.00000000000E+00 0. -1.
         -4    1    1    2    0  501  0.13981251232E+01 -0.25525742129E+01  0.34002388899E+00  0.29301885977E+01  0.00000000000E+00 0.  1.
<mgrwt>
<rscale>  0 0.29103933E+01</rscale>
<asrwt>0</asrwt>
<pdfrwt beam="1">0</pdfrwt>
<pdfrwt beam="2">0</pdfrwt>
<totfact> 0.13183761E+12</totfact>
</mgrwt>
</event>
<event>
 4    2  0.2027839E+006  0.2662430E+01  0.7546771E-02  0.2640980E+00
         22   -1    0    0    0    0  0.00000000000E+00  0.00000000000E+00  0.23563766522E+01  0.23563766522E+01  0.00000000000E+00 0. -1.
         22   -1    0    0    0    0 -0.00000000000E+00 -0.00000000000E+00 -0.10818456292E+02  0.10818456292E+02  0.00000000000E+00 0.  1.
          4    1    1    2  501    0 -0.14974564187E+01 -0.22013991411E+01  0.13660741889E+01  0.29924392382E+01  0.00000000000E+00 0. -1.
         -4    1    1    2    0  501  0.14974564187E+01  0.22013991411E+01 -0.98281538284E+01  0.10182393706E+02  0.00000000000E+00 0.  1.
<mgrwt>
<rscale>  0 0.26624301E+01</rscale>
<asrwt>0</asrwt>
<pdfrwt beam="1">0</pdfrwt>
<pdfrwt beam="2">0</pdfrwt>
<totfact> 0.53765407E+11</totfact>
</mgrwt>
</event>
<event>
 4    2  0.2027839E+006  0.4172150E+01  0.7546771E-02  0.2245548E+00
         22   -1    0    0    0    0  0.00000000000E+00  0.00000000000E+00  0.10527094855E+01  0.10527094855E+01  0.00000000000E+00 0. -1.
         22   -1    0    0    0    0 -0.00000000000E+00 -0.00000000000E+00 -0.30546182218E+02  0.30546182218E+02  0.00000000000E+00 0.  1.
          4    1    1    2  501    0  0.16844183095E+01  0.38170108192E+01 -0.40464210366E+01  0.58120873910E+01  0.00000000000E+00 0. -1.
         -4    1    1    2    0  501 -0.16844183095E+01 -0.38170108192E+01 -0.25447051696E+02  0.25786804313E+02  0.00000000000E+00 0.  1.
<mgrwt>
<rscale>  0 0.41721501E+01</rscale>
<asrwt>0</asrwt>
<pdfrwt beam="1">0</pdfrwt>
<pdfrwt beam="2">0</pdfrwt>
<totfact> 0.37452442E+11</totfact>
</mgrwt>
</event>
<event>
 4    2  0.2027839E+006  0.2257892E+01  0.7546771E-02  0.2825956E+00
         22   -1    0    0    0    0  0.00000000000E+00  0.00000000000E+00  0.64645199580E+00  0.64645199580E+00  0.00000000000E+00 0.  1.
         22   -1    0    0    0    0 -0.00000000000E+00 -0.00000000000E+00 -0.78975837982E+01  0.78975837982E+01  0.00000000000E+00 0. -1.
          4    1    1    2  501    0  0.16485708463E+01 -0.15428197178E+01 -0.34636914081E+01  0.41346386405E+01  0.00000000000E+00 0.  1.
         -4    1    1    2    0  501 -0.16485708463E+01  0.15428197178E+01 -0.37874403943E+01  0.44093971535E+01  0.00000000000E+00 0. -1.
<mgrwt>
<rscale>  0 0.22578925E+01</rscale>
<asrwt>0</asrwt>
<pdfrwt beam="1">0</pdfrwt>
<pdfrwt beam="2">0</pdfrwt>
<totfact> 0.34647369E+12</totfact>
</mgrwt>
</event>
<event>
 4    2  0.2027839E+006  0.2060417E+01  0.7546771E-02  0.2941103E+00
         22   -1    0    0    0    0  0.00000000000E+00  0.00000000000E+00  0.10019266787E+01  0.10019266787E+01  0.00000000000E+00 0.  1.
         22   -1    0    0    0    0 -0.00000000000E+00 -0.00000000000E+00 -0.13441280300E+02  0.13441280300E+02  0.00000000000E+00 0. -1.
          4    1    1    2  501    0  0.83487678878E+00 -0.18836934446E+01 -0.24375999312E+00  0.20747865384E+01  0.00000000000E+00 0.  1.
         -4    1    1    2    0  501 -0.83487678878E+00  0.18836934446E+01 -0.12195593628E+02  0.12368420440E+02  0.00000000000E+00 0. -1.
<mgrwt>
<rscale>  0 0.20604175E+01</rscale>
<asrwt>0</asrwt>
<pdfrwt beam="1">0</pdfrwt>
<pdfrwt beam="2">0</pdfrwt>
<totfact> 0.11043817E+12</totfact>
</mgrwt>
</event>
<event>
 4    2  0.2027839E+006  0.2484903E+01  0.7546771E-02  0.2715224E+00
         22   -1    0    0    0    0  0.00000000000E+00  0.00000000000E+00  0.20912933088E+00  0.20912933088E+00  0.00000000000E+00 0.  1.
         22   -1    0    0    0    0 -0.00000000000E+00 -0.00000000000E+00 -0.29875612846E+02  0.29875612846E+02  0.00000000000E+00 0. -1.
          4    1    1    2  501    0 -0.11282041285E+01  0.22140229444E+01 -0.13205885380E+02  0.13437639333E+02  0.00000000000E+00 0.  1.
         -4    1    1    2    0  501  0.11282041285E+01 -0.22140229444E+01 -0.16460598135E+02  0.16647102844E+02  0.00000000000E+00 0. -1.
<mgrwt>
<rscale>  0 0.24849028E+01</rscale>
<asrwt>0</asrwt>
<pdfrwt beam="1">0</pdfrwt>
<pdfrwt beam="2">0</pdfrwt>
<totfact> 0.23875175E+12</totfact>
</mgrwt>
</event>
<event>
 4    2  0.2027839E+006  0.2210368E+01  0.7546771E-02  0.2851859E+00
         22   -1    0    0    0    0  0.00000000000E+00  0.00000000000E+00  0.36311455060E+01  0.36311455060E+01  0.00000000000E+00 0.  1.
         22   -1    0    0    0    0 -0.00000000000E+00 -0.00000000000E+00 -0.42207506797E+01  0.42207506797E+01  0.00000000000E+00 0. -1.
          4    1    1    2  501    0  0.18589694480E-01  0.22102896539E+01  0.29455118247E+01  0.36826302883E+01  0.00000000000E+00 0.  1.
         -4    1    1    2    0  501 -0.18589694480E-01 -0.22102896539E+01 -0.35351169984E+01  0.41692658974E+01  0.00000000000E+00 0. -1.
<mgrwt>
<rscale>  0 0.22103678E+01</rscale>
<asrwt>0</asrwt>
<pdfrwt beam="1">0</pdfrwt>
<pdfrwt beam="2">0</pdfrwt>
<totfact> 0.99964092E+11</totfact>
</mgrwt>
</event>
<event>
 4    2  0.2027839E+006  0.2859509E+01  0.7546771E-02  0.2568531E+00
         22   -1    0    0    0    0  0.00000000000E+00  0.00000000000E+00  0.45356254117E+01  0.45356254117E+01  0.00000000000E+00 0.  1.
         22   -1    0    0    0    0 -0.00000000000E+00 -0.00000000000E+00 -0.21027683974E+01  0.21027683974E+01  0.00000000000E+00 0. -1.
          4    1    1    2  501    0 -0.11795408790E+00  0.28570746968E+01  0.24700916944E+01  0.37786428739E+01  0.00000000000E+00 0.  1.
         -4    1    1    2    0  501  0.11795408790E+00 -0.28570746968E+01 -0.37234680069E-01  0.28597509352E+01  0.00000000000E+00 0. -1.
<mgrwt>
<rscale>  0 0.28595085E+01</rscale>
<asrwt>0</asrwt>
<pdfrwt beam="1">0</pdfrwt>
<pdfrwt beam="2">0</pdfrwt>
<totfact> 0.17363926E+12</totfact>
</mgrwt>
</event>
<event>
 4    2  0.2027839E+006  0.2097726E+01  0.7546771E-02  0.2917746E+00
         22   -1    0    0    0    0  0.00000000000E+00  0.00000000000E+00  0.15582211455E+01  0.15582211455E+01  0.00000000000E+00 0. -1.
         22   -1    0    0    0    0 -0.00000000000E+00 -0.00000000000E+00 -0.30164456326E+01  0.30164456326E+01  0.00000000000E+00 0.  1.
          4    1    1    2  501    0  0.16483804527E+01 -0.12974190504E+01 -0.15140424778E+00  0.21031827204E+01  0.00000000000E+00 0.  1.
         -4    1    1    2    0  501 -0.16483804527E+01  0.12974190504E+01 -0.13068202394E+01  0.24714840577E+01  0.00000000000E+00 0. -1.
<mgrwt>
<rscale>  0 0.20977260E+01</rscale>
<asrwt>0</asrwt>
<pdfrwt beam="1">0</pdfrwt>
<pdfrwt beam="2">0</pdfrwt>
<totfact> 0.39627207E+12</totfact>
</mgrwt>
</event>
<event>
 4    2  0.2027839E+006  0.2797473E+01  0.7546771E-02  0.2590333E+00
         22   -1    0    0    0    0  0.00000000000E+00  0.00000000000E+00  0.25694669528E+01  0.25694669528E+01  0.00000000000E+00 0.  1.
         22   -1    0    0    0    0 -0.00000000000E+00 -0.00000000000E+00 -0.31715782800E+01  0.31715782800E+01  0.00000000000E+00 0. -1.
          4    1    1    2  501    0 -0.12200426447E+01  0.25174091503E+01  0.27079189134E+00  0.28105481908E+01  0.00000000000E+00 0.  1.
         -4    1    1    2    0  501  0.12200426447E+01 -0.25174091503E+01 -0.87290321853E+00  0.29304970420E+01  0.00000000000E+00 0. -1.
<mgrwt>
<rscale>  0 0.27974726E+01</rscale>
<asrwt>0</asrwt>
<pdfrwt beam="1">0</pdfrwt>
<pdfrwt beam="2">0</pdfrwt>
<totfact> 0.20947366E+12</totfact>
</mgrwt>
</event>
<event>
 4    2  0.2027839E+006  0.2134994E+01  0.7546771E-02  0.2895205E+00
         22   -1    0    0    0    0  0.00000000000E+00  0.00000000000E+00  0.15225673951E+02  0.15225673951E+02  0.00000000000E+00 0.  1.
         22   -1    0    0    0    0 -0.00000000000E+00 -0.00000000000E+00 -0.34564229114E+00  0.34564229114E+00  0.00000000000E+00 0. -1.
          4    1    1    2  501    0 -0.19302670106E+01  0.91228656601E+00  0.45915210824E+01  0.50636215658E+01  0.00000000000E+00 0. -1.
         -4    1    1    2    0  501  0.19302670106E+01 -0.91228656601E+00  0.10288510578E+02  0.10507694677E+02  0.00000000000E+00 0.  1.
<mgrwt>
<rscale>  0 0.21349936E+01</rscale>
<asrwt>0</asrwt>
<pdfrwt beam="1">0</pdfrwt>
<pdfrwt beam="2">0</pdfrwt>
<totfact> 0.31620979E+12</totfact>
</mgrwt>
</event>
<event>
 4    2  0.2027839E+006  0.2100056E+01  0.7546771E-02  0.2916314E+00
         22   -1    0    0    0    0  0.00000000000E+00  0.00000000000E+00  0.41020388367E+01  0.41020388367E+01  0.00000000000E+00 0.  1.
         22   -1    0    0    0    0 -0.00000000000E+00 -0.00000000000E+00 -0.19760911188E+01  0.19760911188E+01  0.00000000000E+00 0. -1.
          4    1    1    2  501    0 -0.20846537758E+01 -0.25387623335E+00  0.31150287304E+01  0.37568122788E+01  0.00000000000E+00 0.  1.
         -4    1    1    2    0  501  0.20846537758E+01  0.25387623335E+00 -0.98908101247E+00  0.23213176767E+01  0.00000000000E+00 0. -1.
<mgrwt>
<rscale>  0 0.21000558E+01</rscale>
<asrwt>0</asrwt>
<pdfrwt beam="1">0</pdfrwt>
<pdfrwt beam="2">0</pdfrwt>
<totfact> 0.21004552E+12</totfact>
</mgrwt>
</event>
<event>
 4    2  0.2027839E+006  0.2477431E+01  0.7546771E-02  0.2718564E+00
         22   -1    0    0    0    0  0.00000000000E+00  0.00000000000E+00  0.38544676055E+01  0.38544676055E+01  0.00000000000E+00 0.  1.
         22   -1    0    0    0    0 -0.00000000000E+00 -0.00000000000E+00 -0.16541275211E+01  0.16541275211E+01  0.00000000000E+00 0. -1.
          4    1    1    2  501    0 -0.12250088910E+01 -0.21533733195E+01  0.56789043271E+00  0.25416850670E+01  0.00000000000E+00 0. -1.
         -4    1    1    2    0  501  0.12250088910E+01  0.21533733195E+01  0.16324496517E+01  0.29669100596E+01  0.00000000000E+00 0.  1.
<mgrwt>
<rscale>  0 0.24774308E+01</rscale>
<asrwt>0</asrwt>
<pdfrwt beam="1">0</pdfrwt>
<pdfrwt beam="2">0</pdfrwt>
<totfact> 0.27756110E+12</totfact>
</mgrwt>
</event>
<event>
 4    2  0.2027839E+006  0.2588737E+01  0.7546771E-02  0.2670656E+00
         22   -1    0    0    0    0  0.00000000000E+00  0.00000000000E+00  0.10594343359E+02  0.10594343359E+02  0.00000000000E+00 0. -1.
         22   -1    0    0    0    0 -0.00000000000E+00 -0.00000000000E+00 -0.18635684464E+02  0.18635684464E+02  0.00000000000E+00 0.  1.
          4    1    1    2  501    0 -0.28029348300E+00  0.25735182495E+01  0.10344159678E+02  0.10663170263E+02  0.00000000000E+00 0. -1.
         -4    1    1    2    0  501  0.28029348300E+00 -0.25735182495E+01 -0.18385500782E+02  0.18566857560E+02  0.00000000000E+00 0.  1.
<mgrwt>
<rscale>  0 0.25887373E+01</rscale>
<asrwt>0</asrwt>
<pdfrwt beam="1">0</pdfrwt>
<pdfrwt beam="2">0</pdfrwt>
<totfact> 0.46425707E+10</totfact>
</mgrwt>
</event>
<event>
 4    2  0.2027839E+006  0.2849481E+01  0.7546771E-02  0.2571997E+00
         22   -1    0    0    0    0  0.00000000000E+00  0.00000000000E+00  0.15375500745E+02  0.15375500745E+02  0.00000000000E+00 0. -1.
         22   -1    0    0    0    0 -0.00000000000E+00 -0.00000000000E+00 -0.14592666532E+01  0.14592666532E+01  0.00000000000E+00 0.  1.
          4    1    1    2  501    0  0.22635956850E+01 -0.17308024269E+01  0.13682112920E+02  0.13975684471E+02  0.00000000000E+00 0. -1.
         -4    1    1    2    0  501 -0.22635956850E+01  0.17308024269E+01  0.23412117222E+00  0.28590829280E+01  0.00000000000E+00 0.  1.
<mgrwt>
<rscale>  0 0.28494811E+01</rscale>
<asrwt>0</asrwt>
<pdfrwt beam="1">0</pdfrwt>
<pdfrwt beam="2">0</pdfrwt>
<totfact> 0.60857009E+11</totfact>
</mgrwt>
</event>
<event>
 4    2  0.2027839E+006  0.2429203E+01  0.7546771E-02  0.2740589E+00
         22   -1    0    0    0    0  0.00000000000E+00  0.00000000000E+00  0.24889690754E+01  0.24889690754E+01  0.00000000000E+00 0.  1.
         22   -1    0    0    0    0 -0.00000000000E+00 -0.00000000000E+00 -0.33859540174E+01  0.33859540174E+01  0.00000000000E+00 0. -1.
          4    1    1    2  501    0 -0.31843313356E+00  0.24082417609E+01  0.11598633957E+01  0.26918973116E+01  0.00000000000E+00 0.  1.
         -4    1    1    2    0  501  0.31843313356E+00 -0.24082417609E+01 -0.20568483377E+01  0.31830257812E+01  0.00000000000E+00 0. -1.
<mgrwt>
<rscale>  0 0.24292032E+01</rscale>
<asrwt>0</asrwt>
<pdfrwt beam="1">0</pdfrwt>
<pdfrwt beam="2">0</pdfrwt>
<totfact> 0.20134847E+12</totfact>
</mgrwt>
</event>
<event>
 4    2  0.2027839E+006  0.2039001E+01  0.7546771E-02  0.2954887E+00
         22   -1    0    0    0    0  0.00000000000E+00  0.00000000000E+00  0.18781961783E+02  0.18781961783E+02  0.00000000000E+00 0. -1.
         22   -1    0    0    0    0 -0.00000000000E+00 -0.00000000000E+00 -0.32284439190E+00  0.32284439190E+00  0.00000000000E+00 0.  1.
          4    1    1    2  501    0 -0.19537271513E+01  0.58350216673E+00  0.38737951250E+01  0.43776492814E+01  0.00000000000E+00 0.  1.
         -4    1    1    2    0  501  0.19537271513E+01 -0.58350216673E+00  0.14585322266E+02  0.14727156894E+02  0.00000000000E+00 0. -1.
<mgrwt>
<rscale>  0 0.20390009E+01</rscale>
<asrwt>0</asrwt>
<pdfrwt beam="1">0</pdfrwt>
<pdfrwt beam="2">0</pdfrwt>
<totfact> 0.26329647E+12</totfact>
</mgrwt>
</event>
<event>
 4    2  0.2027839E+006  0.2014105E+01  0.7546771E-02  0.2971270E+00
         22   -1    0    0    0    0  0.00000000000E+00  0.00000000000E+00  0.25355140677E+02  0.25355140677E+02  0.00000000000E+00 0.  1.
         22   -1    0    0    0    0 -0.00000000000E+00 -0.00000000000E+00 -0.20199587883E+00  0.20199587883E+00  0.00000000000E+00 0. -1.
          4    1    1    2  501    0  0.13194268380E+01 -0.15217524541E+01  0.18403720289E+02  0.18513604139E+02  0.00000000000E+00 0.  1.
         -4    1    1    2    0  501 -0.13194268380E+01  0.15217524541E+01  0.67494245088E+01  0.70435324172E+01  0.00000000000E+00 0. -1.
<mgrwt>
<rscale>  0 0.20141047E+01</rscale>
<asrwt>0</asrwt>
<pdfrwt beam="1">0</pdfrwt>
<pdfrwt beam="2">0</pdfrwt>
<totfact> 0.30554648E+12</totfact>
</mgrwt>
</event>
<event>
 4    2  0.2027839E+006  0.2038933E+01  0.7546771E-02  0.2954930E+00
         22   -1    0    0    0    0  0.00000000000E+00  0.00000000000E+00  0.70107653616E+01  0.70107653616E+01  0.00000000000E+00 0. -1.
         22   -1    0    0    0    0 -0.00000000000E+00 -0.00000000000E+00 -0.28624703277E+01  0.28624703277E+01  0.00000000000E+00 0.  1.
          4    1    1    2  501    0  0.19718349647E+01 -0.51876405811E+00  0.64697975012E+01  0.67834746983E+01  0.00000000000E+00 0. -1.
         -4    1    1    2    0  501 -0.19718349647E+01  0.51876405811E+00 -0.23215024673E+01  0.30897609910E+01  0.00000000000E+00 0.  1.
<mgrwt>
<rscale>  0 0.20389334E+01</rscale>
<asrwt>0</asrwt>
<pdfrwt beam="1">0</pdfrwt>
<pdfrwt beam="2">0</pdfrwt>
<totfact> 0.72296923E+11</totfact>
</mgrwt>
</event>
<event>
 4    2  0.2027839E+006  0.2307863E+01  0.7546771E-02  0.2799818E+00
         22   -1    0    0    0    0  0.00000000000E+00  0.00000000000E+00  0.33077870204E+01  0.33077870204E+01  0.00000000000E+00 0. -1.
         22   -1    0    0    0    0 -0.00000000000E+00 -0.00000000000E+00 -0.24527965065E+01  0.24527965065E+01  0.00000000000E+00 0.  1.
          4    1    1    2  501    0 -0.22827725825E+01  0.33938119839E+00  0.21156532448E+01  0.31308495514E+01  0.00000000000E+00 0. -1.
         -4    1    1    2    0  501  0.22827725825E+01 -0.33938119839E+00 -0.12606627309E+01  0.26297339756E+01  0.00000000000E+00 0.  1.
<mgrwt>
<rscale>  0 0.23078627E+01</rscale>
<asrwt>0</asrwt>
<pdfrwt beam="1">0</pdfrwt>
<pdfrwt beam="2">0</pdfrwt>
<totfact> 0.21048308E+12</totfact>
</mgrwt>
</event>
<event>
 4    2  0.2027839E+006  0.2236820E+01  0.7546771E-02  0.2837312E+00
         22   -1    0    0    0    0  0.00000000000E+00  0.00000000000E+00  0.75921015784E+01  0.75921015784E+01  0.00000000000E+00 0.  1.
         22   -1    0    0    0    0 -0.00000000000E+00 -0.00000000000E+00 -0.17954772763E+01  0.17954772763E+01  0.00000000000E+00 0. -1.
          4    1    1    2  501    0  0.50309949192E+00 -0.21795076162E+01  0.66326173210E+01  0.69996410675E+01  0.00000000000E+00 0.  1.
         -4    1    1    2    0  501 -0.50309949192E+00  0.21795076162E+01 -0.83599301886E+00  0.23879377872E+01  0.00000000000E+00 0. -1.
<mgrwt>
<rscale>  0 0.22368197E+01</rscale>
<asrwt>0</asrwt>
<pdfrwt beam="1">0</pdfrwt>
<pdfrwt beam="2">0</pdfrwt>
<totfact> 0.11293227E+12</totfact>
</mgrwt>
</event>
<event>
 4    2  0.2027839E+006  0.3310625E+01  0.7546771E-02  0.2432285E+00
         22   -1    0    0    0    0  0.00000000000E+00  0.00000000000E+00  0.67422365889E+01  0.67422365889E+01  0.00000000000E+00 0. -1.
         22   -1    0    0    0    0 -0.00000000000E+00 -0.00000000000E+00 -0.19036167124E+01  0.19036167124E+01  0.00000000000E+00 0.  1.
          4    1    1    2  501    0 -0.78424627035E+00 -0.32163952571E+01  0.40713345498E+01  0.52474761246E+01  0.00000000000E+00 0. -1.
         -4    1    1    2    0  501  0.78424627035E+00  0.32163952571E+01  0.76728532673E+00  0.33983771766E+01  0.00000000000E+00 0.  1.
<mgrwt>
<rscale>  0 0.33106254E+01</rscale>
<asrwt>0</asrwt>
<pdfrwt beam="1">0</pdfrwt>
<pdfrwt beam="2">0</pdfrwt>
<totfact> 0.12167711E+12</totfact>
</mgrwt>
</event>
<event>
 4    2  0.2027839E+006  0.5056120E+01  0.7546771E-02  0.2116364E+00
         22   -1    0    0    0    0  0.00000000000E+00  0.00000000000E+00  0.34556655786E+02  0.34556655786E+02  0.00000000000E+00 0. -1.
         22   -1    0    0    0    0 -0.00000000000E+00 -0.00000000000E+00 -0.96224015187E+00  0.96224015187E+00  0.00000000000E+00 0.  1.
          4    1    1    2  501    0  0.38884039457E+00 -0.50411456398E+01  0.25336329031E+02  0.25835903602E+02  0.00000000000E+00 0. -1.
         -4    1    1    2    0  501 -0.38884039457E+00  0.50411456398E+01  0.82580866033E+01  0.96829923351E+01  0.00000000000E+00 0.  1.
<mgrwt>
<rscale>  0 0.50561197E+01</rscale>
<asrwt>0</asrwt>
<pdfrwt beam="1">0</pdfrwt>
<pdfrwt beam="2">0</pdfrwt>
<totfact> 0.35436066E+11</totfact>
</mgrwt>
</event>
<event>
 4    2  0.2027839E+006  0.2159933E+01  0.7546771E-02  0.2880541E+00
         22   -1    0    0    0    0  0.00000000000E+00  0.00000000000E+00  0.63519961096E+00  0.63519961096E+00  0.00000000000E+00 0.  1.
         22   -1    0    0    0    0 -0.00000000000E+00 -0.00000000000E+00 -0.75091549150E+01  0.75091549150E+01  0.00000000000E+00 0. -1.
          4    1    1    2  501    0 -0.20749101746E+01 -0.60004710423E+00 -0.40397335824E+01  0.45809121555E+01  0.00000000000E+00 0.  1.
         -4    1    1    2    0  501  0.20749101746E+01  0.60004710423E+00 -0.28342217217E+01  0.35634423704E+01  0.00000000000E+00 0. -1.
<mgrwt>
<rscale>  0 0.21599326E+01</rscale>
<asrwt>0</asrwt>
<pdfrwt beam="1">0</pdfrwt>
<pdfrwt beam="2">0</pdfrwt>
<totfact> 0.37548073E+12</totfact>
</mgrwt>
</event>
<event>
 4    2  0.2027839E+006  0.2236730E+01  0.7546771E-02  0.2837361E+00
         22   -1    0    0    0    0  0.00000000000E+00  0.00000000000E+00  0.39036685347E+01  0.39036685347E+01  0.00000000000E+00 0. -1.
         22   -1    0    0    0    0 -0.00000000000E+00 -0.00000000000E+00 -0.13619180148E+01  0.13619180148E+01  0.00000000000E+00 0.  1.
          4    1    1    2  501    0  0.13642828911E+01 -0.17724824889E+01  0.19102178569E+01  0.29414102470E+01  0.00000000000E+00 0. -1.
         -4    1    1    2    0  501 -0.13642828911E+01  0.17724824889E+01  0.63153266304E+00  0.23241763025E+01  0.00000000000E+00 0.  1.
<mgrwt>
<rscale>  0 0.22367302E+01</rscale>
<asrwt>0</asrwt>
<pdfrwt beam="1">0</pdfrwt>
<pdfrwt beam="2">0</pdfrwt>
<totfact> 0.34198337E+12</totfact>
</mgrwt>
</event>
<event>
 4    2  0.2027839E+006  0.2027906E+01  0.7546771E-02  0.2962139E+00
         22   -1    0    0    0    0  0.00000000000E+00  0.00000000000E+00  0.33408259560E+01  0.33408259560E+01  0.00000000000E+00 0. -1.
         22   -1    0    0    0    0 -0.00000000000E+00 -0.00000000000E+00 -0.17610263216E+01  0.17610263216E+01  0.00000000000E+00 0.  1.
          4    1    1    2  501    0  0.10908082890E+01 -0.17095442989E+01  0.21894302847E+01  0.29842937866E+01  0.00000000000E+00 0. -1.
         -4    1    1    2    0  501 -0.10908082890E+01  0.17095442989E+01 -0.60963065030E+00  0.21175584910E+01  0.00000000000E+00 0.  1.
<mgrwt>
<rscale>  0 0.20279064E+01</rscale>
<asrwt>0</asrwt>
<pdfrwt beam="1">0</pdfrwt>
<pdfrwt beam="2">0</pdfrwt>
<totfact> 0.30537263E+12</totfact>
</mgrwt>
</event>
<event>
 4    2  0.2027839E+006  0.2763475E+01  0.7546771E-02  0.2602658E+00
         22   -1    0    0    0    0  0.00000000000E+00  0.00000000000E+00  0.66441524881E+00  0.66441524881E+00  0.00000000000E+00 0.  1.
         22   -1    0    0    0    0 -0.00000000000E+00 -0.00000000000E+00 -0.16448039225E+02  0.16448039225E+02  0.00000000000E+00 0. -1.
          4    1    1    2  501    0 -0.26427702468E+01 -0.80781301552E+00 -0.31960674257E+01  0.42251205231E+01  0.00000000000E+00 0.  1.
         -4    1    1    2    0  501  0.26427702468E+01  0.80781301552E+00 -0.12587556550E+02  0.12887333950E+02  0.00000000000E+00 0. -1.
<mgrwt>
<rscale>  0 0.27634754E+01</rscale>
<asrwt>0</asrwt>
<pdfrwt beam="1">0</pdfrwt>
<pdfrwt beam="2">0</pdfrwt>
<totfact> 0.13750675E+12</totfact>
</mgrwt>
</event>
<event>
 4    2  0.2027839E+006  0.3147879E+01  0.7546771E-02  0.2477418E+00
         22   -1    0    0    0    0  0.00000000000E+00  0.00000000000E+00  0.45188224340E+01  0.45188224340E+01  0.00000000000E+00 0. -1.
         22   -1    0    0    0    0 -0.00000000000E+00 -0.00000000000E+00 -0.30811373415E+01  0.30811373415E+01  0.00000000000E+00 0.  1.
          4    1    1    2  501    0  0.29993096395E+01 -0.95565963254E+00  0.27591712181E+01  0.41859490510E+01  0.00000000000E+00 0. -1.
         -4    1    1    2    0  501 -0.29993096395E+01  0.95565963254E+00 -0.13214861257E+01  0.34140107245E+01  0.00000000000E+00 0.  1.
<mgrwt>
<rscale>  0 0.31478792E+01</rscale>
<asrwt>0</asrwt>
<pdfrwt beam="1">0</pdfrwt>
<pdfrwt beam="2">0</pdfrwt>
<totfact> 0.11180720E+12</totfact>
</mgrwt>
</event>
<event>
 4    2  0.2027839E+006  0.2596517E+01  0.7546771E-02  0.2667450E+00
         22   -1    0    0    0    0  0.00000000000E+00  0.00000000000E+00  0.56926793445E+01  0.56926793445E+01  0.00000000000E+00 0.  1.
         22   -1    0    0    0    0 -0.00000000000E+00 -0.00000000000E+00 -0.11846797092E+01  0.11846797092E+01  0.00000000000E+00 0. -1.
          4    1    1    2  501    0 -0.25433082717E+01 -0.52295829062E+00  0.23146703141E+01  0.34784480738E+01  0.00000000000E+00 0. -1.
         -4    1    1    2    0  501  0.25433082717E+01  0.52295829062E+00  0.21933293212E+01  0.33989109800E+01  0.00000000000E+00 0.  1.
<mgrwt>
<rscale>  0 0.25965173E+01</rscale>
<asrwt>0</asrwt>
<pdfrwt beam="1">0</pdfrwt>
<pdfrwt beam="2">0</pdfrwt>
<totfact> 0.25691505E+12</totfact>
</mgrwt>
</event>
<event>
 4    2  0.2027839E+006  0.2099269E+01  0.7546771E-02  0.2916797E+00
         22   -1    0    0    0    0  0.00000000000E+00  0.00000000000E+00  0.36625451116E+00  0.36625451116E+00  0.00000000000E+00 0. -1.
         22   -1    0    0    0    0 -0.00000000000E+00 -0.00000000000E+00 -0.12501421687E+02  0.12501421687E+02  0.00000000000E+00 0.  1.
          4    1    1    2  501    0  0.12949717141E+01  0.16522644574E+01 -0.48214179636E+01  0.52586120561E+01  0.00000000000E+00 0. -1.
         -4    1    1    2    0  501 -0.12949717141E+01 -0.16522644574E+01 -0.73137492122E+01  0.76090641420E+01  0.00000000000E+00 0.  1.
<mgrwt>
<rscale>  0 0.20992688E+01</rscale>
<asrwt>0</asrwt>
<pdfrwt beam="1">0</pdfrwt>
<pdfrwt beam="2">0</pdfrwt>
<totfact> 0.37730482E+12</totfact>
</mgrwt>
</event>
<event>
 4    2  0.2027839E+006  0.2929156E+01  0.7546771E-02  0.2545053E+00
         22   -1    0    0    0    0  0.00000000000E+00  0.00000000000E+00  0.21484068818E+01  0.21484068818E+01  0.00000000000E+00 0.  1.
         22   -1    0    0    0    0 -0.00000000000E+00 -0.00000000000E+00 -0.44476691908E+01  0.44476691908E+01  0.00000000000E+00 0. -1.
          4    1    1    2  501    0 -0.18615343325E+01  0.22615579381E+01 -0.95891375305E-01  0.29307250867E+01  0.00000000000E+00 0.  1.
         -4    1    1    2    0  501  0.18615343325E+01 -0.22615579381E+01 -0.22033709336E+01  0.36653509858E+01  0.00000000000E+00 0. -1.
<mgrwt>
<rscale>  0 0.29291559E+01</rscale>
<asrwt>0</asrwt>
<pdfrwt beam="1">0</pdfrwt>
<pdfrwt beam="2">0</pdfrwt>
<totfact> 0.17333267E+12</totfact>
</mgrwt>
</event>
<event>
 4    2  0.2027839E+006  0.2109353E+01  0.7546771E-02  0.2910630E+00
         22   -1    0    0    0    0  0.00000000000E+00  0.00000000000E+00  0.81861038308E+00  0.81861038308E+00  0.00000000000E+00 0. -1.
         22   -1    0    0    0    0 -0.00000000000E+00 -0.00000000000E+00 -0.85133610564E+01  0.85133610564E+01  0.00000000000E+00 0.  1.
          4    1    1    2  501    0 -0.69059442908E+00 -0.19931008370E+01 -0.10417263309E+01  0.23525656974E+01  0.00000000000E+00 0. -1.
         -4    1    1    2    0  501  0.69059442908E+00  0.19931008370E+01 -0.66530243424E+01  0.69794057421E+01  0.00000000000E+00 0.  1.
<mgrwt>
<rscale>  0 0.21093534E+01</rscale>
<asrwt>0</asrwt>
<pdfrwt beam="1">0</pdfrwt>
<pdfrwt beam="2">0</pdfrwt>
<totfact> 0.24209103E+12</totfact>
</mgrwt>
</event>
<event>
 4    2  0.2027839E+006  0.2906653E+01  0.7546771E-02  0.2552527E+00
         22   -1    0    0    0    0  0.00000000000E+00  0.00000000000E+00  0.38279904037E+02  0.38279904037E+02  0.00000000000E+00 0.  1.
         22   -1    0    0    0    0 -0.00000000000E+00 -0.00000000000E+00 -0.22371568310E+00  0.22371568310E+00  0.00000000000E+00 0. -1.
          4    1    1    2  501    0  0.24784499714E+01  0.15185253345E+01  0.16795400417E+02  0.17045061121E+02  0.00000000000E+00 0. -1.
         -4    1    1    2    0  501 -0.24784499714E+01 -0.15185253345E+01  0.21260787938E+02  0.21458558600E+02  0.00000000000E+00 0.  1.
<mgrwt>
<rscale>  0 0.29066533E+01</rscale>
<asrwt>0</asrwt>
<pdfrwt beam="1">0</pdfrwt>
<pdfrwt beam="2">0</pdfrwt>
<totfact> 0.16108424E+12</totfact>
</mgrwt>
</event>
<event>
 4    2  0.2027839E+006  0.2697104E+01  0.7546771E-02  0.2627534E+00
         22   -1    0    0    0    0  0.00000000000E+00  0.00000000000E+00  0.51237362912E+00  0.51237362912E+00  0.00000000000E+00 0.  1.
         22   -1    0    0    0    0 -0.00000000000E+00 -0.00000000000E+00 -0.14224515515E+02  0.14224515515E+02  0.00000000000E+00 0. -1.
          4    1    1    2  501    0 -0.20217578857E+01 -0.17851787678E+01 -0.65342998929E+01  0.70690482578E+01  0.00000000000E+00 0. -1.
         -4    1    1    2    0  501  0.20217578857E+01  0.17851787678E+01 -0.71778419934E+01  0.76678408867E+01  0.00000000000E+00 0.  1.
<mgrwt>
<rscale>  0 0.26971037E+01</rscale>
<asrwt>0</asrwt>
<pdfrwt beam="1">0</pdfrwt>
<pdfrwt beam="2">0</pdfrwt>
<totfact> 0.22067287E+12</totfact>
</mgrwt>
</event>
<event>
 4    2  0.2027839E+006  0.6956995E+01  0.7546771E-02  0.1943185E+00
         22   -1    0    0    0    0  0.00000000000E+00  0.00000000000E+00  0.73577918403E+01  0.73577918403E+01  0.00000000000E+00 0. -1.
         22   -1    0    0    0    0 -0.00000000000E+00 -0.00000000000E+00 -0.21218537634E+02  0.21218537634E+02  0.00000000000E+00 0.  1.
          4    1    1    2  501    0  0.36823780310E+01  0.59025313064E+01  0.49381528172E+01  0.85314205753E+01  0.00000000000E+00 0. -1.
         -4    1    1    2    0  501 -0.36823780310E+01 -0.59025313064E+01 -0.18798898611E+02  0.20044908899E+02  0.00000000000E+00 0.  1.
<mgrwt>
<rscale>  0 0.69569953E+01</rscale>
<asrwt>0</asrwt>
<pdfrwt beam="1">0</pdfrwt>
<pdfrwt beam="2">0</pdfrwt>
<totfact> 0.61288037E+10</totfact>
</mgrwt>
</event>
<event>
 4    2  0.2027839E+006  0.2341677E+01  0.7546771E-02  0.2782731E+00
         22   -1    0    0    0    0  0.00000000000E+00  0.00000000000E+00  0.23177070564E+01  0.23177070564E+01  0.00000000000E+00 0. -1.
         22   -1    0    0    0    0 -0.00000000000E+00 -0.00000000000E+00 -0.35490933362E+01  0.35490933362E+01  0.00000000000E+00 0.  1.
          4    1    1    2  501    0 -0.50917347427E-01  0.23411234220E+01  0.10780259716E+01  0.25779044685E+01  0.00000000000E+00 0. -1.
         -4    1    1    2    0  501  0.50917347427E-01 -0.23411234220E+01 -0.23094122514E+01  0.32888959242E+01  0.00000000000E+00 0.  1.
<mgrwt>
<rscale>  0 0.23416771E+01</rscale>
<asrwt>0</asrwt>
<pdfrwt beam="1">0</pdfrwt>
<pdfrwt beam="2">0</pdfrwt>
<totfact> 0.20699766E+12</totfact>
</mgrwt>
</event>
<event>
 4    2  0.2027839E+006  0.5137512E+01  0.7546771E-02  0.2106939E+00
         22   -1    0    0    0    0  0.00000000000E+00  0.00000000000E+00  0.21393363065E+02  0.21393363065E+02  0.00000000000E+00 0. -1.
         22   -1    0    0    0    0 -0.00000000000E+00 -0.00000000000E+00 -0.25563425701E+01  0.25563425701E+01  0.00000000000E+00 0.  1.
          4    1    1    2  501    0 -0.21943977685E+00 -0.51328235402E+01  0.18031896651E+02  0.18749488744E+02  0.00000000000E+00 0. -1.
         -4    1    1    2    0  501  0.21943977685E+00  0.51328235402E+01  0.80512384341E+00  0.52002168910E+01  0.00000000000E+00 0.  1.
<mgrwt>
<rscale>  0 0.51375122E+01</rscale>
<asrwt>0</asrwt>
<pdfrwt beam="1">0</pdfrwt>
<pdfrwt beam="2">0</pdfrwt>
<totfact> 0.21116309E+11</totfact>
</mgrwt>
</event>
<event>
 4    2  0.2027839E+006  0.3219648E+01  0.7546771E-02  0.2457018E+00
         22   -1    0    0    0    0  0.00000000000E+00  0.00000000000E+00  0.94255052987E+01  0.94255052987E+01  0.00000000000E+00 0. -1.
         22   -1    0    0    0    0 -0.00000000000E+00 -0.00000000000E+00 -0.22810109195E+01  0.22810109195E+01  0.00000000000E+00 0.  1.
          4    1    1    2  501    0  0.20766698799E+01 -0.24604009650E+01  0.77843455145E+01  0.84239044266E+01  0.00000000000E+00 0. -1.
         -4    1    1    2    0  501 -0.20766698799E+01  0.24604009650E+01 -0.63985113532E+00  0.32826117916E+01  0.00000000000E+00 0.  1.
<mgrwt>
<rscale>  0 0.32196476E+01</rscale>
<asrwt>0</asrwt>
<pdfrwt beam="1">0</pdfrwt>
<pdfrwt beam="2">0</pdfrwt>
<totfact> 0.65980346E+11</totfact>
</mgrwt>
</event>
<event>
 4    2  0.2027839E+006  0.2337617E+01  0.7546771E-02  0.2784758E+00
         22   -1    0    0    0    0  0.00000000000E+00  0.00000000000E+00  0.31528248405E+02  0.31528248405E+02  0.00000000000E+00 0. -1.
         22   -1    0    0    0    0 -0.00000000000E+00 -0.00000000000E+00 -0.17538426544E+00  0.17538426544E+00  0.00000000000E+00 0.  1.
          4    1    1    2  501    0 -0.21728034228E+01  0.86219476199E+00  0.17396470632E+02  0.17552824416E+02  0.00000000000E+00 0. -1.
         -4    1    1    2    0  501  0.21728034228E+01 -0.86219476199E+00  0.13956393507E+02  0.14150808254E+02  0.00000000000E+00 0.  1.
<mgrwt>
<rscale>  0 0.23376173E+01</rscale>
<asrwt>0</asrwt>
<pdfrwt beam="1">0</pdfrwt>
<pdfrwt beam="2">0</pdfrwt>
<totfact> 0.27121345E+12</totfact>
</mgrwt>
</event>
<event>
 4    2  0.2027839E+006  0.2632725E+01  0.7546771E-02  0.2652758E+00
         22   -1    0    0    0    0  0.00000000000E+00  0.00000000000E+00  0.41474130513E+01  0.41474130513E+01  0.00000000000E+00 0. -1.
         22   -1    0    0    0    0 -0.00000000000E+00 -0.00000000000E+00 -0.16762229873E+01  0.16762229873E+01  0.00000000000E+00 0.  1.
          4    1    1    2  501    0 -0.26078153380E+01 -0.36130044140E+00  0.13946771412E+01  0.29793226032E+01  0.00000000000E+00 0. -1.
         -4    1    1    2    0  501  0.26078153380E+01  0.36130044140E+00  0.10765129228E+01  0.28443134354E+01  0.00000000000E+00 0.  1.
<mgrwt>
<rscale>  0 0.26327246E+01</rscale>
<asrwt>0</asrwt>
<pdfrwt beam="1">0</pdfrwt>
<pdfrwt beam="2">0</pdfrwt>
<totfact> 0.25077432E+12</totfact>
</mgrwt>
</event>
<event>
 4    2  0.2027839E+006  0.3391144E+01  0.7546771E-02  0.2411373E+00
         22   -1    0    0    0    0  0.00000000000E+00  0.00000000000E+00  0.69466360183E+01  0.69466360183E+01  0.00000000000E+00 0.  1.
         22   -1    0    0    0    0 -0.00000000000E+00 -0.00000000000E+00 -0.16678883347E+01  0.16678883347E+01  0.00000000000E+00 0. -1.
          4    1    1    2  501    0  0.15048690355E+01 -0.30389514869E+01  0.30112320546E+01  0.45351268384E+01  0.00000000000E+00 0. -1.
         -4    1    1    2    0  501 -0.15048690355E+01  0.30389514869E+01  0.22675156291E+01  0.40793975146E+01  0.00000000000E+00 0.  1.
<mgrwt>
<rscale>  0 0.33911439E+01</rscale>
<asrwt>0</asrwt>
<pdfrwt beam="1">0</pdfrwt>
<pdfrwt beam="2">0</pdfrwt>
<totfact> 0.13677188E+12</totfact>
</mgrwt>
</event>
<event>
 4    2  0.2027839E+006  0.2016439E+01  0.7546771E-02  0.2969717E+00
         22   -1    0    0    0    0  0.00000000000E+00  0.00000000000E+00  0.72659737571E+01  0.72659737571E+01  0.00000000000E+00 0.  1.
         22   -1    0    0    0    0 -0.00000000000E+00 -0.00000000000E+00 -0.71009719138E+00  0.71009719138E+00  0.00000000000E+00 0. -1.
          4    1    1    2  501    0  0.10796480796E+01  0.17030519137E+01  0.51139139362E+01  0.54971030138E+01  0.00000000000E+00 0.  1.
         -4    1    1    2    0  501 -0.10796480796E+01 -0.17030519137E+01  0.14419626294E+01  0.24789679347E+01  0.00000000000E+00 0. -1.
<mgrwt>
<rscale>  0 0.20164389E+01</rscale>
<asrwt>0</asrwt>
<pdfrwt beam="1">0</pdfrwt>
<pdfrwt beam="2">0</pdfrwt>
<totfact> 0.34418230E+12</totfact>
</mgrwt>
</event>
<event>
 4    2  0.2027839E+006  0.2562987E+01  0.7546771E-02  0.2681396E+00
         22   -1    0    0    0    0  0.00000000000E+00  0.00000000000E+00  0.63609764548E+00  0.63609764548E+00  0.00000000000E+00 0. -1.
         22   -1    0    0    0    0 -0.00000000000E+00 -0.00000000000E+00 -0.23801484212E+02  0.23801484212E+02  0.00000000000E+00 0.  1.
          4    1    1    2  501    0 -0.21882734205E+01 -0.13343018967E+01 -0.23891214890E+01  0.35038269940E+01  0.00000000000E+00 0. -1.
         -4    1    1    2    0  501  0.21882734205E+01  0.13343018967E+01 -0.20776265077E+02  0.20933754863E+02  0.00000000000E+00 0.  1.
<mgrwt>
<rscale>  0 0.25629870E+01</rscale>
<asrwt>0</asrwt>
<pdfrwt beam="1">0</pdfrwt>
<pdfrwt beam="2">0</pdfrwt>
<totfact> 0.91141384E+11</totfact>
</mgrwt>
</event>
<event>
 4    2  0.2027839E+006  0.3156930E+01  0.7546771E-02  0.2474800E+00
         22   -1    0    0    0    0  0.00000000000E+00  0.00000000000E+00  0.11199369466E+01  0.11199369466E+01  0.00000000000E+00 0. -1.
         22   -1    0    0    0    0 -0.00000000000E+00 -0.00000000000E+00 -0.51721424094E+02  0.51721424094E+02  0.00000000000E+00 0.  1.
          4    1    1    2  501    0 -0.21070038483E+01 -0.23509026818E+01 -0.12601666399E+01  0.33991511582E+01  0.00000000000E+00 0. -1.
         -4    1    1    2    0  501  0.21070038483E+01  0.23509026818E+01 -0.49341320508E+02  0.49442209883E+02  0.00000000000E+00 0.  1.
<mgrwt>
<rscale>  0 0.31569303E+01</rscale>
<asrwt>0</asrwt>
<pdfrwt beam="1">0</pdfrwt>
<pdfrwt beam="2">0</pdfrwt>
<totfact> 0.17615360E+11</totfact>
</mgrwt>
</event>
<event>
 4    2  0.2027839E+006  0.5491882E+01  0.7546771E-02  0.2068496E+00
         22   -1    0    0    0    0  0.00000000000E+00  0.00000000000E+00  0.49624912126E+01  0.49624912126E+01  0.00000000000E+00 0. -1.
         22   -1    0    0    0    0 -0.00000000000E+00 -0.00000000000E+00 -0.98433691799E+01  0.98433691799E+01  0.00000000000E+00 0.  1.
          4    1    1    2  501    0  0.45849339517E+01  0.30231031595E+01  0.21383441005E+01  0.58934953590E+01  0.00000000000E+00 0. -1.
         -4    1    1    2    0  501 -0.45849339517E+01 -0.30231031595E+01 -0.70192220678E+01  0.89123650335E+01  0.00000000000E+00 0.  1.
<mgrwt>
<rscale>  0 0.54918824E+01</rscale>
<asrwt>0</asrwt>
<pdfrwt beam="1">0</pdfrwt>
<pdfrwt beam="2">0</pdfrwt>
<totfact> 0.25181698E+11</totfact>
</mgrwt>
</event>
<event>
 4    2  0.2027839E+006  0.2712455E+01  0.7546771E-02  0.2621681E+00
         22   -1    0    0    0    0  0.00000000000E+00  0.00000000000E+00  0.10872014505E+01  0.10872014505E+01  0.00000000000E+00 0. -1.
         22   -1    0    0    0    0 -0.00000000000E+00 -0.00000000000E+00 -0.79703247958E+01  0.79703247958E+01  0.00000000000E+00 0.  1.
          4    1    1    2  501    0 -0.16466173233E+01  0.21554731195E+01 -0.52010232258E+01  0.58658380112E+01  0.00000000000E+00 0.  1.
         -4    1    1    2    0  501  0.16466173233E+01 -0.21554731195E+01 -0.16821001194E+01  0.31916882351E+01  0.00000000000E+00 0. -1.
<mgrwt>
<rscale>  0 0.27124552E+01</rscale>
<asrwt>0</asrwt>
<pdfrwt beam="1">0</pdfrwt>
<pdfrwt beam="2">0</pdfrwt>
<totfact> 0.18960532E+12</totfact>
</mgrwt>
</event>
<event>
 4    2  0.2027839E+006  0.2207951E+01  0.7546771E-02  0.2853205E+00
         22   -1    0    0    0    0  0.00000000000E+00  0.00000000000E+00  0.38124460947E+01  0.38124460947E+01  0.00000000000E+00 0. -1.
         22   -1    0    0    0    0 -0.00000000000E+00 -0.00000000000E+00 -0.18454492198E+01  0.18454492198E+01  0.00000000000E+00 0.  1.
          4    1    1    2  501    0  0.20902596896E+01  0.71124102684E+00  0.25511943850E+01  0.33739653464E+01  0.00000000000E+00 0. -1.
         -4    1    1    2    0  501 -0.20902596896E+01 -0.71124102684E+00 -0.58419751012E+00  0.22839299681E+01  0.00000000000E+00 0.  1.
<mgrwt>
<rscale>  0 0.22079514E+01</rscale>
<asrwt>0</asrwt>
<pdfrwt beam="1">0</pdfrwt>
<pdfrwt beam="2">0</pdfrwt>
<totfact> 0.24778647E+12</totfact>
</mgrwt>
</event>
<event>
 4    2  0.2027839E+006  0.3718009E+01  0.7546771E-02  0.2334672E+00
         22   -1    0    0    0    0  0.00000000000E+00  0.00000000000E+00  0.48862139892E+01  0.48862139892E+01  0.00000000000E+00 0.  1.
         22   -1    0    0    0    0 -0.00000000000E+00 -0.00000000000E+00 -0.29765730736E+01  0.29765730736E+01  0.00000000000E+00 0. -1.
          4    1    1    2  501    0  0.37142320787E+01 -0.16753623597E+00  0.79746999839E-01  0.37188637928E+01  0.00000000000E+00 0.  1.
         -4    1    1    2    0  501 -0.37142320787E+01  0.16753623597E+00  0.18298939157E+01  0.41439232700E+01  0.00000000000E+00 0. -1.
<mgrwt>
<rscale>  0 0.37180087E+01</rscale>
<asrwt>0</asrwt>
<pdfrwt beam="1">0</pdfrwt>
<pdfrwt beam="2">0</pdfrwt>
<totfact> 0.10613754E+12</totfact>
</mgrwt>
</event>
<event>
 4    2  0.2027839E+006  0.4027764E+01  0.7546771E-02  0.2272019E+00
         22   -1    0    0    0    0  0.00000000000E+00  0.00000000000E+00  0.11346797547E+03  0.11346797547E+03  0.00000000000E+00 0.  1.
         22   -1    0    0    0    0 -0.00000000000E+00 -0.00000000000E+00 -0.14453432144E+00  0.14453432144E+00  0.00000000000E+00 0. -1.
          4    1    1    2  501    0 -0.19273001593E+01 -0.35367213715E+01  0.62565411307E+02  0.62694924643E+02  0.00000000000E+00 0.  1.
         -4    1    1    2    0  501  0.19273001593E+01  0.35367213715E+01  0.50758029844E+02  0.50917585151E+02  0.00000000000E+00 0. -1.
<mgrwt>
<rscale>  0 0.40277641E+01</rscale>
<asrwt>0</asrwt>
<pdfrwt beam="1">0</pdfrwt>
<pdfrwt beam="2">0</pdfrwt>
<totfact> 0.60222872E+11</totfact>
</mgrwt>
</event>
<event>
 4    2  0.2027839E+006  0.4774951E+01  0.7546771E-02  0.2150865E+00
         22   -1    0    0    0    0  0.00000000000E+00  0.00000000000E+00  0.11214023372E+01  0.11214023372E+01  0.00000000000E+00 0. -1.
         22   -1    0    0    0    0 -0.00000000000E+00 -0.00000000000E+00 -0.25727129358E+02  0.25727129358E+02  0.00000000000E+00 0.  1.
          4    1    1    2  501    0 -0.11186748439E+01  0.46420598102E+01 -0.61553006940E+01  0.77902425714E+01  0.00000000000E+00 0. -1.
         -4    1    1    2    0  501  0.11186748439E+01 -0.46420598102E+01 -0.18450426327E+02  0.19058289124E+02  0.00000000000E+00 0.  1.
<mgrwt>
<rscale>  0 0.47749505E+01</rscale>
<asrwt>0</asrwt>
<pdfrwt beam="1">0</pdfrwt>
<pdfrwt beam="2">0</pdfrwt>
<totfact> 0.43325265E+11</totfact>
</mgrwt>
</event>
<event>
 4    2  0.2027839E+006  0.2895000E+01  0.7546771E-02  0.2556439E+00
         22   -1    0    0    0    0  0.00000000000E+00  0.00000000000E+00  0.52228498949E+02  0.52228498949E+02  0.00000000000E+00 0.  1.
         22   -1    0    0    0    0 -0.00000000000E+00 -0.00000000000E+00 -0.21525655689E+00  0.21525655689E+00  0.00000000000E+00 0. -1.
          4    1    1    2  501    0 -0.62447240185E+00 -0.28268462911E+01  0.39235674967E+02  0.39342333636E+02  0.00000000000E+00 0.  1.
         -4    1    1    2    0  501  0.62447240185E+00  0.28268462911E+01  0.12777567424E+02  0.13101421870E+02  0.00000000000E+00 0. -1.
<mgrwt>
<rscale>  0 0.28950001E+01</rscale>
<asrwt>0</asrwt>
<pdfrwt beam="1">0</pdfrwt>
<pdfrwt beam="2">0</pdfrwt>
<totfact> 0.11200089E+12</totfact>
</mgrwt>
</event>
<event>
 4    2  0.2027839E+006  0.4263283E+01  0.7546771E-02  0.2229625E+00
         22   -1    0    0    0    0  0.00000000000E+00  0.00000000000E+00  0.73315912911E+01  0.73315912911E+01  0.00000000000E+00 0.  1.
         22   -1    0    0    0    0 -0.00000000000E+00 -0.00000000000E+00 -0.39031696356E+01  0.39031696356E+01  0.00000000000E+00 0. -1.
          4    1    1    2  501    0  0.22997661487E+01  0.35897995036E+01  0.51072910888E+01  0.66528194836E+01  0.00000000000E+00 0.  1.
         -4    1    1    2    0  501 -0.22997661487E+01 -0.35897995036E+01 -0.16788694333E+01  0.45819414432E+01  0.00000000000E+00 0. -1.
<mgrwt>
<rscale>  0 0.42632833E+01</rscale>
<asrwt>0</asrwt>
<pdfrwt beam="1">0</pdfrwt>
<pdfrwt beam="2">0</pdfrwt>
<totfact> 0.47660316E+11</totfact>
</mgrwt>
</event>
<event>
 4    2  0.2027839E+006  0.3083622E+01  0.7546771E-02  0.2496397E+00
         22   -1    0    0    0    0  0.00000000000E+00  0.00000000000E+00  0.39002751096E+01  0.39002751096E+01  0.00000000000E+00 0. -1.
         22   -1    0    0    0    0 -0.00000000000E+00 -0.00000000000E+00 -0.35239750469E+01  0.35239750469E+01  0.00000000000E+00 0.  1.
          4    1    1    2  501    0  0.19442225684E+01  0.23934754399E+01  0.22488915789E+01  0.38165743031E+01  0.00000000000E+00 0. -1.
         -4    1    1    2    0  501 -0.19442225684E+01 -0.23934754399E+01 -0.18725915162E+01  0.36076758534E+01  0.00000000000E+00 0.  1.
<mgrwt>
<rscale>  0 0.30836222E+01</rscale>
<asrwt>0</asrwt>
<pdfrwt beam="1">0</pdfrwt>
<pdfrwt beam="2">0</pdfrwt>
<totfact> 0.11363391E+12</totfact>
</mgrwt>
</event>
<event>
 4    2  0.2027839E+006  0.3513375E+01  0.7546771E-02  0.2381238E+00
         22   -1    0    0    0    0  0.00000000000E+00  0.00000000000E+00  0.27379254907E+01  0.27379254907E+01  0.00000000000E+00 0. -1.
         22   -1    0    0    0    0 -0.00000000000E+00 -0.00000000000E+00 -0.46160969170E+01  0.46160969170E+01  0.00000000000E+00 0.  1.
          4    1    1    2  501    0  0.49477184697E+00 -0.34783627345E+01 -0.37758069781E+00  0.35336063273E+01  0.00000000000E+00 0. -1.
         -4    1    1    2    0  501 -0.49477184697E+00  0.34783627345E+01 -0.15005907285E+01  0.38204160804E+01  0.00000000000E+00 0.  1.
<mgrwt>
<rscale>  0 0.35133754E+01</rscale>
<asrwt>0</asrwt>
<pdfrwt beam="1">0</pdfrwt>
<pdfrwt beam="2">0</pdfrwt>
<totfact> 0.12514596E+12</totfact>
</mgrwt>
</event>
<event>
 4    2  0.2027839E+006  0.2242122E+01  0.7546771E-02  0.2834436E+00
         22   -1    0    0    0    0  0.00000000000E+00  0.00000000000E+00  0.23065703922E+01  0.23065703922E+01  0.00000000000E+00 0. -1.
         22   -1    0    0    0    0 -0.00000000000E+00 -0.00000000000E+00 -0.80262462149E+01  0.80262462149E+01  0.00000000000E+00 0.  1.
          4    1    1    2  501    0 -0.11106186856E+01  0.19477264601E+01  0.15496742139E+01  0.27255462567E+01  0.00000000000E+00 0. -1.
         -4    1    1    2    0  501  0.11106186856E+01 -0.19477264601E+01 -0.72693500366E+01  0.76072703504E+01  0.00000000000E+00 0.  1.
<mgrwt>
<rscale>  0 0.22421223E+01</rscale>
<asrwt>0</asrwt>
<pdfrwt beam="1">0</pdfrwt>
<pdfrwt beam="2">0</pdfrwt>
<totfact> 0.79042802E+11</totfact>
</mgrwt>
</event>
<event>
 4    2  0.2027839E+006  0.2241297E+01  0.7546771E-02  0.2834883E+00
         22   -1    0    0    0    0  0.00000000000E+00  0.00000000000E+00  0.83333113708E+01  0.83333113708E+01  0.00000000000E+00 0. -1.
         22   -1    0    0    0    0 -0.00000000000E+00 -0.00000000000E+00 -0.15307621976E+01  0.15307621976E+01  0.00000000000E+00 0.  1.
          4    1    1    2  501    0 -0.17161278907E+01  0.14416366553E+01  0.72413082107E+01  0.75802345469E+01  0.00000000000E+00 0. -1.
         -4    1    1    2    0  501  0.17161278907E+01 -0.14416366553E+01 -0.43875903751E+00  0.22838390215E+01  0.00000000000E+00 0.  1.
<mgrwt>
<rscale>  0 0.22412968E+01</rscale>
<asrwt>0</asrwt>
<pdfrwt beam="1">0</pdfrwt>
<pdfrwt beam="2">0</pdfrwt>
<totfact> 0.12136410E+12</totfact>
</mgrwt>
</event>
<event>
 4    2  0.2027839E+006  0.2688801E+01  0.7546771E-02  0.2630725E+00
         22   -1    0    0    0    0  0.00000000000E+00  0.00000000000E+00  0.39874286812E+01  0.39874286812E+01  0.00000000000E+00 0.  1.
         22   -1    0    0    0    0 -0.00000000000E+00 -0.00000000000E+00 -0.21173052312E+01  0.21173052312E+01  0.00000000000E+00 0. -1.
          4    1    1    2  501    0  0.23851951644E+01  0.12411656854E+01  0.20920286819E+01  0.34067920741E+01  0.00000000000E+00 0.  1.
         -4    1    1    2    0  501 -0.23851951644E+01 -0.12411656854E+01 -0.22190523188E+00  0.26979418383E+01  0.00000000000E+00 0. -1.
<mgrwt>
<rscale>  0 0.26888005E+01</rscale>
<asrwt>0</asrwt>
<pdfrwt beam="1">0</pdfrwt>
<pdfrwt beam="2">0</pdfrwt>
<totfact> 0.20050205E+12</totfact>
</mgrwt>
</event>
<event>
 4    2  0.2027839E+006  0.2625938E+01  0.7546771E-02  0.2655484E+00
         22   -1    0    0    0    0  0.00000000000E+00  0.00000000000E+00  0.60093466692E+00  0.60093466692E+00  0.00000000000E+00 0.  1.
         22   -1    0    0    0    0 -0.00000000000E+00 -0.00000000000E+00 -0.13652750009E+02  0.13652750009E+02  0.00000000000E+00 0. -1.
          4    1    1    2  501    0  0.25635118917E+01 -0.56917013536E+00 -0.36793464096E+01  0.45203028509E+01  0.00000000000E+00 0.  1.
         -4    1    1    2    0  501 -0.25635118917E+01  0.56917013536E+00 -0.93724689328E+01  0.97333818253E+01  0.00000000000E+00 0. -1.
<mgrwt>
<rscale>  0 0.26259375E+01</rscale>
<asrwt>0</asrwt>
<pdfrwt beam="1">0</pdfrwt>
<pdfrwt beam="2">0</pdfrwt>
<totfact> 0.19377307E+12</totfact>
</mgrwt>
</event>
<event>
 4    2  0.2027839E+006  0.2035764E+01  0.7546771E-02  0.2956995E+00
         22   -1    0    0    0    0  0.00000000000E+00  0.00000000000E+00  0.25321675250E+02  0.25321675250E+02  0.00000000000E+00 0. -1.
         22   -1    0    0    0    0 -0.00000000000E+00 -0.00000000000E+00 -0.27403214361E+00  0.27403214361E+00  0.00000000000E+00 0.  1.
          4    1    1    2  501    0 -0.81839442680E+00  0.18640186711E+01  0.20645604677E+02  0.20745730344E+02  0.00000000000E+00 0. -1.
         -4    1    1    2    0  501  0.81839442680E+00 -0.18640186711E+01  0.44020384297E+01  0.48499770495E+01  0.00000000000E+00 0.  1.
<mgrwt>
<rscale>  0 0.20357640E+01</rscale>
<asrwt>0</asrwt>
<pdfrwt beam="1">0</pdfrwt>
<pdfrwt beam="2">0</pdfrwt>
<totfact> 0.21764304E+12</totfact>
</mgrwt>
</event>
<event>
 4    2  0.2027839E+006  0.2083159E+01  0.7546771E-02  0.2926768E+00
         22   -1    0    0    0    0  0.00000000000E+00  0.00000000000E+00  0.28041837315E+01  0.28041837315E+01  0.00000000000E+00 0. -1.
         22   -1    0    0    0    0 -0.00000000000E+00 -0.00000000000E+00 -0.95101229948E+01  0.95101229948E+01  0.00000000000E+00 0.  1.
          4    1    1    2  501    0 -0.66137275604E+00 -0.19753830217E+01  0.22809964200E+01  0.30890931797E+01  0.00000000000E+00 0. -1.
         -4    1    1    2    0  501  0.66137275604E+00  0.19753830217E+01 -0.89869356833E+01  0.92252135466E+01  0.00000000000E+00 0.  1.
<mgrwt>
<rscale>  0 0.20831591E+01</rscale>
<asrwt>0</asrwt>
<pdfrwt beam="1">0</pdfrwt>
<pdfrwt beam="2">0</pdfrwt>
<totfact> 0.51325911E+11</totfact>
</mgrwt>
</event>
<event>
 4    2  0.2027839E+006  0.2536536E+01  0.7546771E-02  0.2692638E+00
         22   -1    0    0    0    0  0.00000000000E+00  0.00000000000E+00  0.37289221260E+00  0.37289221260E+00  0.00000000000E+00 0. -1.
         22   -1    0    0    0    0 -0.00000000000E+00 -0.00000000000E+00 -0.17254557807E+02  0.17254557807E+02  0.00000000000E+00 0.  1.
          4    1    1    2  501    0 -0.25199312601E+01 -0.28976105685E+00 -0.84709670439E+01  0.88425843329E+01  0.00000000000E+00 0. -1.
         -4    1    1    2    0  501  0.25199312601E+01  0.28976105685E+00 -0.84106985507E+01  0.87848656869E+01  0.00000000000E+00 0.  1.
<mgrwt>
<rscale>  0 0.25365360E+01</rscale>
<asrwt>0</asrwt>
<pdfrwt beam="1">0</pdfrwt>
<pdfrwt beam="2">0</pdfrwt>
<totfact> 0.24881462E+12</totfact>
</mgrwt>
</event>
<event>
 4    2  0.2027839E+006  0.2145304E+01  0.7546771E-02  0.2889103E+00
         22   -1    0    0    0    0  0.00000000000E+00  0.00000000000E+00  0.45497497844E+00  0.45497497844E+00  0.00000000000E+00 0.  1.
         22   -1    0    0    0    0 -0.00000000000E+00 -0.00000000000E+00 -0.11357659451E+02  0.11357659451E+02  0.00000000000E+00 0. -1.
          4    1    1    2  501    0  0.16469123939E+01 -0.13747752808E+01 -0.34981264784E+01  0.41035614245E+01  0.00000000000E+00 0. -1.
         -4    1    1    2    0  501 -0.16469123939E+01  0.13747752808E+01 -0.74045579940E+01  0.77090730048E+01  0.00000000000E+00 0.  1.
<mgrwt>
<rscale>  0 0.21453036E+01</rscale>
<asrwt>0</asrwt>
<pdfrwt beam="1">0</pdfrwt>
<pdfrwt beam="2">0</pdfrwt>
<totfact> 0.33221936E+12</totfact>
</mgrwt>
</event>
<event>
 4    2  0.2027839E+006  0.2105860E+01  0.7546771E-02  0.2912760E+00
         22   -1    0    0    0    0  0.00000000000E+00  0.00000000000E+00  0.29581536348E+01  0.29581536348E+01  0.00000000000E+00 0. -1.
         22   -1    0    0    0    0 -0.00000000000E+00 -0.00000000000E+00 -0.15154038073E+01  0.15154038073E+01  0.00000000000E+00 0.  1.
          4    1    1    2  501    0  0.92190525267E+00  0.18933397602E+01  0.95319873796E+00  0.23115433322E+01  0.00000000000E+00 0.  1.
         -4    1    1    2    0  501 -0.92190525267E+00 -0.18933397602E+01  0.48955108954E+00  0.21620141100E+01  0.00000000000E+00 0. -1.
<mgrwt>
<rscale>  0 0.21058596E+01</rscale>
<asrwt>0</asrwt>
<pdfrwt beam="1">0</pdfrwt>
<pdfrwt beam="2">0</pdfrwt>
<totfact> 0.41862364E+12</totfact>
</mgrwt>
</event>
<event>
 4    2  0.2027839E+006  0.2043691E+01  0.7546771E-02  0.2951844E+00
         22   -1    0    0    0    0  0.00000000000E+00  0.00000000000E+00  0.25960561779E+01  0.25960561779E+01  0.00000000000E+00 0. -1.
         22   -1    0    0    0    0 -0.00000000000E+00 -0.00000000000E+00 -0.28742722907E+01  0.28742722907E+01  0.00000000000E+00 0.  1.
          4    1    1    2  501    0  0.15346801261E+01  0.13496040805E+01  0.16757245835E+01  0.26428634363E+01  0.00000000000E+00 0. -1.
         -4    1    1    2    0  501 -0.15346801261E+01 -0.13496040805E+01 -0.19539406963E+01  0.28274650322E+01  0.00000000000E+00 0.  1.
<mgrwt>
<rscale>  0 0.20436913E+01</rscale>
<asrwt>0</asrwt>
<pdfrwt beam="1">0</pdfrwt>
<pdfrwt beam="2">0</pdfrwt>
<totfact> 0.23218204E+12</totfact>
</mgrwt>
</event>
<event>
 4    2  0.2027839E+006  0.4468538E+01  0.7546771E-02  0.2195781E+00
         22   -1    0    0    0    0  0.00000000000E+00  0.00000000000E+00  0.11215857012E+01  0.11215857012E+01  0.00000000000E+00 0.  1.
         22   -1    0    0    0    0 -0.00000000000E+00 -0.00000000000E+00 -0.19293667490E+02  0.19293667490E+02  0.00000000000E+00 0. -1.
          4    1    1    2  501    0 -0.44405235771E+01 -0.49958299263E+00 -0.62489303146E+01  0.76822498581E+01  0.00000000000E+00 0.  1.
         -4    1    1    2    0  501  0.44405235771E+01  0.49958299263E+00 -0.11923151474E+02  0.12733003333E+02  0.00000000000E+00 0. -1.
<mgrwt>
<rscale>  0 0.44685381E+01</rscale>
<asrwt>0</asrwt>
<pdfrwt beam="1">0</pdfrwt>
<pdfrwt beam="2">0</pdfrwt>
<totfact> 0.62138500E+11</totfact>
</mgrwt>
</event>
<event>
 4    2  0.2027839E+006  0.3139706E+01  0.7546771E-02  0.2479794E+00
         22   -1    0    0    0    0  0.00000000000E+00  0.00000000000E+00  0.61682575882E+00  0.61682575882E+00  0.00000000000E+00 0. -1.
         22   -1    0    0    0    0 -0.00000000000E+00 -0.00000000000E+00 -0.18686252140E+02  0.18686252140E+02  0.00000000000E+00 0.  1.
          4    1    1    2  501    0 -0.13155000170E+00  0.31369486790E+01 -0.53626892209E+01  0.62141924735E+01  0.00000000000E+00 0. -1.
         -4    1    1    2    0  501  0.13155000170E+00 -0.31369486790E+01 -0.12706737161E+02  0.13088885426E+02  0.00000000000E+00 0.  1.
<mgrwt>
<rscale>  0 0.31397058E+01</rscale>
<asrwt>0</asrwt>
<pdfrwt beam="1">0</pdfrwt>
<pdfrwt beam="2">0</pdfrwt>
<totfact> 0.12771782E+12</totfact>
</mgrwt>
</event>
<event>
 4    2  0.2027839E+006  0.5709476E+01  0.7546771E-02  0.2046765E+00
         22   -1    0    0    0    0  0.00000000000E+00  0.00000000000E+00  0.25730696596E+02  0.25730696596E+02  0.00000000000E+00 0. -1.
         22   -1    0    0    0    0 -0.00000000000E+00 -0.00000000000E+00 -0.20669322390E+01  0.20669322390E+01  0.00000000000E+00 0.  1.
          4    1    1    2  501    0  0.53930851610E+01  0.18742323403E+01  0.20478962422E+02  0.21259962754E+02  0.00000000000E+00 0. -1.
         -4    1    1    2    0  501 -0.53930851610E+01 -0.18742323403E+01  0.31848019345E+01  0.65376660806E+01  0.00000000000E+00 0.  1.
<mgrwt>
<rscale>  0 0.57094758E+01</rscale>
<asrwt>0</asrwt>
<pdfrwt beam="1">0</pdfrwt>
<pdfrwt beam="2">0</pdfrwt>
<totfact> 0.21427964E+11</totfact>
</mgrwt>
</event>
<event>
 4    2  0.2027839E+006  0.2179958E+01  0.7546771E-02  0.2869001E+00
         22   -1    0    0    0    0  0.00000000000E+00  0.00000000000E+00  0.72447699240E+00  0.72447699240E+00  0.00000000000E+00 0.  1.
         22   -1    0    0    0    0 -0.00000000000E+00 -0.00000000000E+00 -0.10474967678E+02  0.10474967678E+02  0.00000000000E+00 0. -1.
          4    1    1    2  501    0 -0.15722161593E+01  0.15100833515E+01 -0.14516587709E+01  0.26190701723E+01  0.00000000000E+00 0.  1.
         -4    1    1    2    0  501  0.15722161593E+01 -0.15100833515E+01 -0.82988319149E+01  0.85803744983E+01  0.00000000000E+00 0. -1.
<mgrwt>
<rscale>  0 0.21799577E+01</rscale>
<asrwt>0</asrwt>
<pdfrwt beam="1">0</pdfrwt>
<pdfrwt beam="2">0</pdfrwt>
<totfact> 0.21651158E+12</totfact>
</mgrwt>
</event>
<event>
 4    2  0.2027839E+006  0.2159992E+01  0.7546771E-02  0.2880507E+00
         22   -1    0    0    0    0  0.00000000000E+00  0.00000000000E+00  0.99415928204E+00  0.99415928204E+00  0.00000000000E+00 0. -1.
         22   -1    0    0    0    0 -0.00000000000E+00 -0.00000000000E+00 -0.47172349207E+01  0.47172349207E+01  0.00000000000E+00 0.  1.
          4    1    1    2  501    0  0.10882218112E+01  0.18658340844E+01 -0.16567410404E+01  0.27221966160E+01  0.00000000000E+00 0.  1.
         -4    1    1    2    0  501 -0.10882218112E+01 -0.18658340844E+01 -0.20663345982E+01  0.29891975868E+01  0.00000000000E+00 0. -1.
<mgrwt>
<rscale>  0 0.21599916E+01</rscale>
<asrwt>0</asrwt>
<pdfrwt beam="1">0</pdfrwt>
<pdfrwt beam="2">0</pdfrwt>
<totfact> 0.39228237E+12</totfact>
</mgrwt>
</event>
<event>
 4    2  0.2027839E+006  0.2292931E+01  0.7546771E-02  0.2807515E+00
         22   -1    0    0    0    0  0.00000000000E+00  0.00000000000E+00  0.67722456599E+01  0.67722456599E+01  0.00000000000E+00 0. -1.
         22   -1    0    0    0    0 -0.00000000000E+00 -0.00000000000E+00 -0.80395268282E+00  0.80395268282E+00  0.00000000000E+00 0.  1.
          4    1    1    2  501    0 -0.11225280645E+01  0.19993657727E+01  0.22820479439E+01  0.32350078156E+01  0.00000000000E+00 0.  1.
         -4    1    1    2    0  501  0.11225280645E+01 -0.19993657727E+01  0.36862450331E+01  0.43411905271E+01  0.00000000000E+00 0. -1.
<mgrwt>
<rscale>  0 0.22929310E+01</rscale>
<asrwt>0</asrwt>
<pdfrwt beam="1">0</pdfrwt>
<pdfrwt beam="2">0</pdfrwt>
<totfact> 0.32516415E+12</totfact>
</mgrwt>
</event>
<event>
 4    2  0.2027839E+006  0.3012231E+01  0.7546771E-02  0.2518329E+00
         22   -1    0    0    0    0  0.00000000000E+00  0.00000000000E+00  0.39911256882E+00  0.39911256882E+00  0.00000000000E+00 0.  1.
         22   -1    0    0    0    0 -0.00000000000E+00 -0.00000000000E+00 -0.24058873871E+02  0.24058873871E+02  0.00000000000E+00 0. -1.
          4    1    1    2  501    0 -0.98490305263E+00 -0.28466653184E+01 -0.14699301134E+02  0.15004765619E+02  0.00000000000E+00 0. -1.
         -4    1    1    2    0  501  0.98490305263E+00  0.28466653184E+01 -0.89604601681E+01  0.94532208205E+01  0.00000000000E+00 0.  1.
<mgrwt>
<rscale>  0 0.30122313E+01</rscale>
<asrwt>0</asrwt>
<pdfrwt beam="1">0</pdfrwt>
<pdfrwt beam="2">0</pdfrwt>
<totfact> 0.15221931E+12</totfact>
</mgrwt>
</event>
<event>
 4    2  0.2027839E+006  0.3099859E+01  0.7546771E-02  0.2491536E+00
         22   -1    0    0    0    0  0.00000000000E+00  0.00000000000E+00  0.25748005110E+02  0.25748005110E+02  0.00000000000E+00 0. -1.
         22   -1    0    0    0    0 -0.00000000000E+00 -0.00000000000E+00 -0.38199460678E+00  0.38199460678E+00  0.00000000000E+00 0.  1.
          4    1    1    2  501    0 -0.26875721699E+01  0.15446943379E+01  0.14665529391E+02  0.14989558936E+02  0.00000000000E+00 0.  1.
         -4    1    1    2    0  501  0.26875721699E+01 -0.15446943379E+01  0.10700481112E+02  0.11140440781E+02  0.00000000000E+00 0. -1.
<mgrwt>
<rscale>  0 0.30998588E+01</rscale>
<asrwt>0</asrwt>
<pdfrwt beam="1">0</pdfrwt>
<pdfrwt beam="2">0</pdfrwt>
<totfact> 0.14680190E+12</totfact>
</mgrwt>
</event>
<event>
 4    2  0.2027839E+006  0.2464067E+01  0.7546771E-02  0.2724587E+00
         22   -1    0    0    0    0  0.00000000000E+00  0.00000000000E+00  0.34248492298E+01  0.34248492298E+01  0.00000000000E+00 0. -1.
         22   -1    0    0    0    0 -0.00000000000E+00 -0.00000000000E+00 -0.19985842276E+01  0.19985842276E+01  0.00000000000E+00 0.  1.
          4    1    1    2  501    0  0.22590253226E+01 -0.98409000446E+00  0.16245433928E+01  0.29514013247E+01  0.00000000000E+00 0. -1.
         -4    1    1    2    0  501 -0.22590253226E+01  0.98409000446E+00 -0.19827839061E+00  0.24720321327E+01  0.00000000000E+00 0.  1.
<mgrwt>
<rscale>  0 0.24640675E+01</rscale>
<asrwt>0</asrwt>
<pdfrwt beam="1">0</pdfrwt>
<pdfrwt beam="2">0</pdfrwt>
<totfact> 0.25627270E+12</totfact>
</mgrwt>
</event>
<event>
 4    2  0.2027839E+006  0.2310712E+01  0.7546771E-02  0.2798360E+00
         22   -1    0    0    0    0  0.00000000000E+00  0.00000000000E+00  0.19127234541E+02  0.19127234541E+02  0.00000000000E+00 0.  1.
         22   -1    0    0    0    0 -0.00000000000E+00 -0.00000000000E+00 -0.45623474737E+00  0.45623474737E+00  0.00000000000E+00 0. -1.
          4    1    1    2  501    0 -0.15296545143E+01 -0.17319197154E+01  0.15435848707E+02  0.15607844635E+02  0.00000000000E+00 0.  1.
         -4    1    1    2    0  501  0.15296545143E+01  0.17319197154E+01  0.32351510862E+01  0.39756246533E+01  0.00000000000E+00 0. -1.
<mgrwt>
<rscale>  0 0.23107118E+01</rscale>
<asrwt>0</asrwt>
<pdfrwt beam="1">0</pdfrwt>
<pdfrwt beam="2">0</pdfrwt>
<totfact> 0.17444844E+12</totfact>
</mgrwt>
</event>
<event>
 4    2  0.2027839E+006  0.2312823E+01  0.7546771E-02  0.2797282E+00
         22   -1    0    0    0    0  0.00000000000E+00  0.00000000000E+00  0.35008715798E+01  0.35008715798E+01  0.00000000000E+00 0. -1.
         22   -1    0    0    0    0 -0.00000000000E+00 -0.00000000000E+00 -0.17458220750E+01  0.17458220750E+01  0.00000000000E+00 0.  1.
          4    1    1    2  501    0 -0.20815357882E+01 -0.10081452339E+01  0.18042670331E+01  0.29333475036E+01  0.00000000000E+00 0. -1.
         -4    1    1    2    0  501  0.20815357882E+01  0.10081452339E+01 -0.49217528276E-01  0.23133461512E+01  0.00000000000E+00 0.  1.
<mgrwt>
<rscale>  0 0.23128225E+01</rscale>
<asrwt>0</asrwt>
<pdfrwt beam="1">0</pdfrwt>
<pdfrwt beam="2">0</pdfrwt>
<totfact> 0.29200319E+12</totfact>
</mgrwt>
</event>
<event>
 4    2  0.2027839E+006  0.2647409E+01  0.7546771E-02  0.2646906E+00
         22   -1    0    0    0    0  0.00000000000E+00  0.00000000000E+00  0.10607297626E+02  0.10607297626E+02  0.00000000000E+00 0.  1.
         22   -1    0    0    0    0 -0.00000000000E+00 -0.00000000000E+00 -0.67596987064E+00  0.67596987064E+00  0.00000000000E+00 0. -1.
          4    1    1    2  501    0  0.12438804534E+01  0.23369930274E+01  0.58121942595E+01  0.63867344632E+01  0.00000000000E+00 0.  1.
         -4    1    1    2    0  501 -0.12438804534E+01 -0.23369930274E+01  0.41191334962E+01  0.48965330339E+01  0.00000000000E+00 0. -1.
<mgrwt>
<rscale>  0 0.26474091E+01</rscale>
<asrwt>0</asrwt>
<pdfrwt beam="1">0</pdfrwt>
<pdfrwt beam="2">0</pdfrwt>
<totfact> 0.23070334E+12</totfact>
</mgrwt>
</event>
<event>
 4    2  0.2027839E+006  0.2204178E+01  0.7546771E-02  0.2855312E+00
         22   -1    0    0    0    0  0.00000000000E+00  0.00000000000E+00  0.17922506965E+02  0.17922506965E+02  0.00000000000E+00 0. -1.
         22   -1    0    0    0    0 -0.00000000000E+00 -0.00000000000E+00 -0.33203793244E+00  0.33203793244E+00  0.00000000000E+00 0.  1.
          4    1    1    2  501    0 -0.18828356217E+01 -0.11460057532E+01  0.12706065439E+02  0.12895832587E+02  0.00000000000E+00 0. -1.
         -4    1    1    2    0  501  0.18828356217E+01  0.11460057532E+01  0.48844035939E+01  0.53587123110E+01  0.00000000000E+00 0.  1.
<mgrwt>
<rscale>  0 0.22041777E+01</rscale>
<asrwt>0</asrwt>
<pdfrwt beam="1">0</pdfrwt>
<pdfrwt beam="2">0</pdfrwt>
<totfact> 0.27042022E+12</totfact>
</mgrwt>
</event>
<event>
 4    2  0.2027839E+006  0.2434240E+01  0.7546771E-02  0.2738251E+00
         22   -1    0    0    0    0  0.00000000000E+00  0.00000000000E+00  0.46715483489E+01  0.46715483489E+01  0.00000000000E+00 0. -1.
         22   -1    0    0    0    0 -0.00000000000E+00 -0.00000000000E+00 -0.16381922760E+01  0.16381922760E+01  0.00000000000E+00 0.  1.
          4    1    1    2  501    0 -0.51505609960E+00 -0.23791261972E+01  0.30155390335E+01  0.38754354478E+01  0.00000000000E+00 0. -1.
         -4    1    1    2    0  501  0.51505609960E+00  0.23791261972E+01  0.17817039479E-01  0.24343051770E+01  0.00000000000E+00 0.  1.
<mgrwt>
<rscale>  0 0.24342400E+01</rscale>
<asrwt>0</asrwt>
<pdfrwt beam="1">0</pdfrwt>
<pdfrwt beam="2">0</pdfrwt>
<totfact> 0.22376500E+12</totfact>
</mgrwt>
</event>
<event>
 4    2  0.2027839E+006  0.2410746E+01  0.7546771E-02  0.2749236E+00
         22   -1    0    0    0    0  0.00000000000E+00  0.00000000000E+00  0.45858083240E+00  0.45858083240E+00  0.00000000000E+00 0.  1.
         22   -1    0    0    0    0 -0.00000000000E+00 -0.00000000000E+00 -0.19410970169E+02  0.19410970169E+02  0.00000000000E+00 0. -1.
          4    1    1    2  501    0 -0.21142590161E+01  0.11582775802E+01 -0.36230167932E+01  0.43517753646E+01  0.00000000000E+00 0.  1.
         -4    1    1    2    0  501  0.21142590161E+01 -0.11582775802E+01 -0.15329372543E+02  0.15517775636E+02  0.00000000000E+00 0. -1.
<mgrwt>
<rscale>  0 0.24107464E+01</rscale>
<asrwt>0</asrwt>
<pdfrwt beam="1">0</pdfrwt>
<pdfrwt beam="2">0</pdfrwt>
<totfact> 0.17029448E+12</totfact>
</mgrwt>
</event>
<event>
 4    2  0.2027839E+006  0.2470838E+01  0.7546771E-02  0.2721528E+00
         22   -1    0    0    0    0  0.00000000000E+00  0.00000000000E+00  0.77898680156E+00  0.77898680156E+00  0.00000000000E+00 0.  1.
         22   -1    0    0    0    0 -0.00000000000E+00 -0.00000000000E+00 -0.95622980396E+01  0.95622980396E+01  0.00000000000E+00 0. -1.
          4    1    1    2  501    0 -0.24690218199E+01  0.94708360916E-01 -0.21954336735E+01  0.33052938501E+01  0.00000000000E+00 0.  1.
         -4    1    1    2    0  501  0.24690218199E+01 -0.94708360916E-01 -0.65878775646E+01  0.70359909911E+01  0.00000000000E+00 0. -1.
<mgrwt>
<rscale>  0 0.24708376E+01</rscale>
<asrwt>0</asrwt>
<pdfrwt beam="1">0</pdfrwt>
<pdfrwt beam="2">0</pdfrwt>
<totfact> 0.22265774E+12</totfact>
</mgrwt>
</event>
<event>
 4    2  0.2027839E+006  0.3451072E+01  0.7546771E-02  0.2396365E+00
         22   -1    0    0    0    0  0.00000000000E+00  0.00000000000E+00  0.54615030323E+00  0.54615030323E+00  0.00000000000E+00 0.  1.
         22   -1    0    0    0    0 -0.00000000000E+00 -0.00000000000E+00 -0.76393499922E+02  0.76393499922E+02  0.00000000000E+00 0. -1.
          4    1    1    2  501    0  0.22319216103E+01  0.26321901159E+01 -0.54048652921E+01  0.64126802280E+01  0.00000000000E+00 0.  1.
         -4    1    1    2    0  501 -0.22319216103E+01 -0.26321901159E+01 -0.70442484326E+02  0.70526969997E+02  0.00000000000E+00 0. -1.
<mgrwt>
<rscale>  0 0.34510721E+01</rscale>
<asrwt>0</asrwt>
<pdfrwt beam="1">0</pdfrwt>
<pdfrwt beam="2">0</pdfrwt>
<totfact> 0.23598944E+11</totfact>
</mgrwt>
</event>
<event>
 4    2  0.2027839E+006  0.2557159E+01  0.7546771E-02  0.2683855E+00
         22   -1    0    0    0    0  0.00000000000E+00  0.00000000000E+00  0.34082648841E+02  0.34082648841E+02  0.00000000000E+00 0. -1.
         22   -1    0    0    0    0 -0.00000000000E+00 -0.00000000000E+00 -0.26906338797E+00  0.26906338797E+00  0.00000000000E+00 0.  1.
          4    1    1    2  501    0 -0.67968895062E-02  0.25571496408E+01  0.77062746323E+01  0.81194660657E+01  0.00000000000E+00 0.  1.
         -4    1    1    2    0  501  0.67968895062E-02 -0.25571496408E+01  0.26107310821E+02  0.26232246163E+02  0.00000000000E+00 0. -1.
<mgrwt>
<rscale>  0 0.25571587E+01</rscale>
<asrwt>0</asrwt>
<pdfrwt beam="1">0</pdfrwt>
<pdfrwt beam="2">0</pdfrwt>
<totfact> 0.15220171E+12</totfact>
</mgrwt>
</event>
<event>
 4    2  0.2027839E+006  0.3195865E+01  0.7546771E-02  0.2463688E+00
         22   -1    0    0    0    0  0.00000000000E+00  0.00000000000E+00  0.24682505927E+01  0.24682505927E+01  0.00000000000E+00 0. -1.
         22   -1    0    0    0    0 -0.00000000000E+00 -0.00000000000E+00 -0.67293331031E+01  0.67293331031E+01  0.00000000000E+00 0.  1.
          4    1    1    2  501    0 -0.16766372314E+01  0.27207422214E+01  0.72324701235E+00  0.32766807721E+01  0.00000000000E+00 0. -1.
         -4    1    1    2    0  501  0.16766372314E+01 -0.27207422214E+01 -0.49843295228E+01  0.59209029238E+01  0.00000000000E+00 0.  1.
<mgrwt>
<rscale>  0 0.31958646E+01</rscale>
<asrwt>0</asrwt>
<pdfrwt beam="1">0</pdfrwt>
<pdfrwt beam="2">0</pdfrwt>
<totfact> 0.90240179E+11</totfact>
</mgrwt>
</event>
<event>
 4    2  0.2027839E+006  0.2316389E+01  0.7546771E-02  0.2795465E+00
         22   -1    0    0    0    0  0.00000000000E+00  0.00000000000E+00  0.57498295235E+00  0.57498295235E+00  0.00000000000E+00 0.  1.
         22   -1    0    0    0    0 -0.00000000000E+00 -0.00000000000E+00 -0.14124614181E+02  0.14124614181E+02  0.00000000000E+00 0. -1.
          4    1    1    2  501    0  0.15366869825E+01 -0.17332775766E+01 -0.24934737825E+01  0.34033908891E+01  0.00000000000E+00 0.  1.
         -4    1    1    2    0  501 -0.15366869825E+01  0.17332775766E+01 -0.11056157446E+02  0.11296206244E+02  0.00000000000E+00 0. -1.
<mgrwt>
<rscale>  0 0.23163890E+01</rscale>
<asrwt>0</asrwt>
<pdfrwt beam="1">0</pdfrwt>
<pdfrwt beam="2">0</pdfrwt>
<totfact> 0.19538158E+12</totfact>
</mgrwt>
</event>
<event>
 4    2  0.2027839E+006  0.2147310E+01  0.7546771E-02  0.2887922E+00
         22   -1    0    0    0    0  0.00000000000E+00  0.00000000000E+00  0.27910605920E+01  0.27910605920E+01  0.00000000000E+00 0.  1.
         22   -1    0    0    0    0 -0.00000000000E+00 -0.00000000000E+00 -0.19146214073E+01  0.19146214073E+01  0.00000000000E+00 0. -1.
          4    1    1    2  501    0 -0.16992582466E+01  0.13128061263E+01  0.13095535878E+01  0.25151280511E+01  0.00000000000E+00 0.  1.
         -4    1    1    2    0  501  0.16992582466E+01 -0.13128061263E+01 -0.43311440306E+00  0.21905539482E+01  0.00000000000E+00 0. -1.
<mgrwt>
<rscale>  0 0.21473096E+01</rscale>
<asrwt>0</asrwt>
<pdfrwt beam="1">0</pdfrwt>
<pdfrwt beam="2">0</pdfrwt>
<totfact> 0.34209281E+12</totfact>
</mgrwt>
</event>
<event>
 4    2  0.2027839E+006  0.3665253E+01  0.7546771E-02  0.2346246E+00
         22   -1    0    0    0    0  0.00000000000E+00  0.00000000000E+00  0.17079689954E+01  0.17079689954E+01  0.00000000000E+00 0.  1.
         22   -1    0    0    0    0 -0.00000000000E+00 -0.00000000000E+00 -0.10034212803E+02  0.10034212803E+02  0.00000000000E+00 0. -1.
          4    1    1    2  501    0  0.37846025511E+00 -0.36456616382E+01 -0.14336715853E+01  0.39356695948E+01  0.00000000000E+00 0.  1.
         -4    1    1    2    0  501 -0.37846025511E+00  0.36456616382E+01 -0.68925722223E+01  0.78065122036E+01  0.00000000000E+00 0. -1.
<mgrwt>
<rscale>  0 0.36652532E+01</rscale>
<asrwt>0</asrwt>
<pdfrwt beam="1">0</pdfrwt>
<pdfrwt beam="2">0</pdfrwt>
<totfact> 0.85493282E+11</totfact>
</mgrwt>
</event>
<event>
 4    2  0.2027839E+006  0.2242702E+01  0.7546771E-02  0.2834122E+00
         22   -1    0    0    0    0  0.00000000000E+00  0.00000000000E+00  0.34826459389E+00  0.34826459389E+00  0.00000000000E+00 0. -1.
         22   -1    0    0    0    0 -0.00000000000E+00 -0.00000000000E+00 -0.28220827812E+02  0.28220827812E+02  0.00000000000E+00 0.  1.
          4    1    1    2  501    0 -0.11870606711E+01 -0.19027877861E+01 -0.39550480109E+01  0.45466602209E+01  0.00000000000E+00 0. -1.
         -4    1    1    2    0  501  0.11870606711E+01  0.19027877861E+01 -0.23917515207E+02  0.24022432185E+02  0.00000000000E+00 0.  1.
<mgrwt>
<rscale>  0 0.22427025E+01</rscale>
<asrwt>0</asrwt>
<pdfrwt beam="1">0</pdfrwt>
<pdfrwt beam="2">0</pdfrwt>
<totfact> 0.14500855E+12</totfact>
</mgrwt>
</event>
<event>
 4    2  0.2027839E+006  0.4766082E+01  0.7546771E-02  0.2152005E+00
         22   -1    0    0    0    0  0.00000000000E+00  0.00000000000E+00  0.16355848006E+02  0.16355848006E+02  0.00000000000E+00 0. -1.
         22   -1    0    0    0    0 -0.00000000000E+00 -0.00000000000E+00 -0.14843902481E+01  0.14843902481E+01  0.00000000000E+00 0.  1.
          4    1    1    2  501    0 -0.10411574133E+01 -0.46509707668E+01  0.96989601146E+01  0.10806727772E+02  0.00000000000E+00 0. -1.
         -4    1    1    2    0  501  0.10411574133E+01  0.46509707668E+01  0.51724976438E+01  0.70335104826E+01  0.00000000000E+00 0.  1.
<mgrwt>
<rscale>  0 0.47660820E+01</rscale>
<asrwt>0</asrwt>
<pdfrwt beam="1">0</pdfrwt>
<pdfrwt beam="2">0</pdfrwt>
<totfact> 0.55293567E+11</totfact>
</mgrwt>
</event>
<event>
 4    2  0.2027839E+006  0.3307475E+01  0.7546771E-02  0.2433121E+00
         22   -1    0    0    0    0  0.00000000000E+00  0.00000000000E+00  0.10630346085E+01  0.10630346085E+01  0.00000000000E+00 0.  1.
         22   -1    0    0    0    0 -0.00000000000E+00 -0.00000000000E+00 -0.23679258514E+02  0.23679258514E+02  0.00000000000E+00 0. -1.
          4    1    1    2  501    0  0.16794092949E+01 -0.28493820942E+01 -0.20057667416E+01  0.38681383275E+01  0.00000000000E+00 0.  1.
         -4    1    1    2    0  501 -0.16794092949E+01  0.28493820942E+01 -0.20610457164E+02  0.20874154795E+02  0.00000000000E+00 0. -1.
<mgrwt>
<rscale>  0 0.33074755E+01</rscale>
<asrwt>0</asrwt>
<pdfrwt beam="1">0</pdfrwt>
<pdfrwt beam="2">0</pdfrwt>
<totfact> 0.51132567E+11</totfact>
</mgrwt>
</event>
<event>
 4    2  0.2027839E+006  0.3483342E+01  0.7546771E-02  0.2388471E+00
         22   -1    0    0    0    0  0.00000000000E+00  0.00000000000E+00  0.42104401607E+00  0.42104401607E+00  0.00000000000E+00 0. -1.
         22   -1    0    0    0    0 -0.00000000000E+00 -0.00000000000E+00 -0.32726854131E+02  0.32726854131E+02  0.00000000000E+00 0.  1.
          4    1    1    2  501    0  0.20845382407E+01 -0.27907659572E+01 -0.10425011654E+02  0.10991566871E+02  0.00000000000E+00 0. -1.
         -4    1    1    2    0  501 -0.20845382407E+01  0.27907659572E+01 -0.21880798461E+02  0.22156331276E+02  0.00000000000E+00 0.  1.
<mgrwt>
<rscale>  0 0.34833424E+01</rscale>
<asrwt>0</asrwt>
<pdfrwt beam="1">0</pdfrwt>
<pdfrwt beam="2">0</pdfrwt>
<totfact> 0.96973713E+11</totfact>
</mgrwt>
</event>
<event>
 4    2  0.2027839E+006  0.2809605E+01  0.7546771E-02  0.2586001E+00
         22   -1    0    0    0    0  0.00000000000E+00  0.00000000000E+00  0.13844467481E+02  0.13844467481E+02  0.00000000000E+00 0. -1.
         22   -1    0    0    0    0 -0.00000000000E+00 -0.00000000000E+00 -0.61335941415E+00  0.61335941415E+00  0.00000000000E+00 0.  1.
          4    1    1    2  501    0  0.26345184076E+01 -0.97631473690E+00  0.85335143926E+01  0.89841385560E+01  0.00000000000E+00 0. -1.
         -4    1    1    2    0  501 -0.26345184076E+01  0.97631473690E+00  0.46975936745E+01  0.54736883393E+01  0.00000000000E+00 0.  1.
<mgrwt>
<rscale>  0 0.28096045E+01</rscale>
<asrwt>0</asrwt>
<pdfrwt beam="1">0</pdfrwt>
<pdfrwt beam="2">0</pdfrwt>
<totfact> 0.18612547E+12</totfact>
</mgrwt>
</event>
<event>
 4    2  0.2027839E+006  0.2195270E+01  0.7546771E-02  0.2860312E+00
         22   -1    0    0    0    0  0.00000000000E+00  0.00000000000E+00  0.40401392170E+02  0.40401392170E+02  0.00000000000E+00 0.  1.
         22   -1    0    0    0    0 -0.00000000000E+00 -0.00000000000E+00 -0.12064170508E+00  0.12064170508E+00  0.00000000000E+00 0. -1.
          4    1    1    2  501    0  0.62736639270E-01  0.21943737787E+01  0.22290303913E+02  0.22398144135E+02  0.00000000000E+00 0. -1.
         -4    1    1    2    0  501 -0.62736639270E-01 -0.21943737787E+01  0.17990446552E+02  0.18123889740E+02  0.00000000000E+00 0.  1.
<mgrwt>
<rscale>  0 0.21952704E+01</rscale>
<asrwt>0</asrwt>
<pdfrwt beam="1">0</pdfrwt>
<pdfrwt beam="2">0</pdfrwt>
<totfact> 0.29865465E+12</totfact>
</mgrwt>
</event>
<event>
 4    2  0.2027839E+006  0.2953476E+01  0.7546771E-02  0.2537089E+00
         22   -1    0    0    0    0  0.00000000000E+00  0.00000000000E+00  0.11184498768E+02  0.11184498768E+02  0.00000000000E+00 0.  1.
         22   -1    0    0    0    0 -0.00000000000E+00 -0.00000000000E+00 -0.81519139215E+00  0.81519139215E+00  0.00000000000E+00 0. -1.
          4    1    1    2  501    0 -0.12791630611E+01  0.26620975726E+01  0.64326620700E+01  0.70782881356E+01  0.00000000000E+00 0. -1.
         -4    1    1    2    0  501  0.12791630611E+01 -0.26620975726E+01  0.39366453055E+01  0.49214020242E+01  0.00000000000E+00 0.  1.
<mgrwt>
<rscale>  0 0.29534762E+01</rscale>
<asrwt>0</asrwt>
<pdfrwt beam="1">0</pdfrwt>
<pdfrwt beam="2">0</pdfrwt>
<totfact> 0.17486167E+12</totfact>
</mgrwt>
</event>
<event>
 4    2  0.2027839E+006  0.2130049E+01  0.7546771E-02  0.2898152E+00
         22   -1    0    0    0    0  0.00000000000E+00  0.00000000000E+00  0.22309161332E+02  0.22309161332E+02  0.00000000000E+00 0.  1.
         22   -1    0    0    0    0 -0.00000000000E+00 -0.00000000000E+00 -0.22334915393E+00  0.22334915393E+00  0.00000000000E+00 0. -1.
          4    1    1    2  501    0 -0.95379768651E+00  0.19045677241E+01  0.76736802199E+01  0.79638229739E+01  0.00000000000E+00 0. -1.
         -4    1    1    2    0  501  0.95379768651E+00 -0.19045677241E+01  0.14412131958E+02  0.14568687512E+02  0.00000000000E+00 0.  1.
<mgrwt>
<rscale>  0 0.21300489E+01</rscale>
<asrwt>0</asrwt>
<pdfrwt beam="1">0</pdfrwt>
<pdfrwt beam="2">0</pdfrwt>
<totfact> 0.32084861E+12</totfact>
</mgrwt>
</event>
<event>
 4    2  0.2027839E+006  0.2348640E+01  0.7546771E-02  0.2779270E+00
         22   -1    0    0    0    0  0.00000000000E+00  0.00000000000E+00  0.38522546354E+01  0.38522546354E+01  0.00000000000E+00 0.  1.
         22   -1    0    0    0    0 -0.00000000000E+00 -0.00000000000E+00 -0.75158771948E+01  0.75158771948E+01  0.00000000000E+00 0. -1.
          4    1    1    2  501    0  0.15818785833E+00  0.23433064215E+01  0.32822091032E+01  0.40359639469E+01  0.00000000000E+00 0.  1.
         -4    1    1    2    0  501 -0.15818785833E+00 -0.23433064215E+01 -0.69458316626E+01  0.73321678833E+01  0.00000000000E+00 0. -1.
<mgrwt>
<rscale>  0 0.23486397E+01</rscale>
<asrwt>0</asrwt>
<pdfrwt beam="1">0</pdfrwt>
<pdfrwt beam="2">0</pdfrwt>
<totfact> 0.46980759E+11</totfact>
</mgrwt>
</event>
<event>
 4    2  0.2027839E+006  0.2034866E+01  0.7546771E-02  0.2957581E+00
         22   -1    0    0    0    0  0.00000000000E+00  0.00000000000E+00  0.41934313647E+00  0.41934313647E+00  0.00000000000E+00 0.  1.
         22   -1    0    0    0    0 -0.00000000000E+00 -0.00000000000E+00 -0.13913001815E+02  0.13913001815E+02  0.00000000000E+00 0. -1.
          4    1    1    2  501    0 -0.13865697700E+00 -0.20301361706E+01 -0.28858006714E+01  0.35310797419E+01  0.00000000000E+00 0.  1.
         -4    1    1    2    0  501  0.13865697700E+00  0.20301361706E+01 -0.10607858007E+02  0.10801265210E+02  0.00000000000E+00 0. -1.
<mgrwt>
<rscale>  0 0.20348658E+01</rscale>
<asrwt>0</asrwt>
<pdfrwt beam="1">0</pdfrwt>
<pdfrwt beam="2">0</pdfrwt>
<totfact> 0.28422490E+12</totfact>
</mgrwt>
</event>
<event>
 4    2  0.2027839E+006  0.2003194E+01  0.7546771E-02  0.2978576E+00
         22   -1    0    0    0    0  0.00000000000E+00  0.00000000000E+00  0.16213119003E+02  0.16213119003E+02  0.00000000000E+00 0.  1.
         22   -1    0    0    0    0 -0.00000000000E+00 -0.00000000000E+00 -0.28136372484E+00  0.28136372484E+00  0.00000000000E+00 0. -1.
          4    1    1    2  501    0 -0.19329927685E+01  0.52566467146E+00  0.10826939241E+02  0.11010694697E+02  0.00000000000E+00 0.  1.
         -4    1    1    2    0  501  0.19329927685E+01 -0.52566467146E+00  0.51048160373E+01  0.54837880307E+01  0.00000000000E+00 0. -1.
<mgrwt>
<rscale>  0 0.20031935E+01</rscale>
<asrwt>0</asrwt>
<pdfrwt beam="1">0</pdfrwt>
<pdfrwt beam="2">0</pdfrwt>
<totfact> 0.36859415E+12</totfact>
</mgrwt>
</event>
<event>
 4    2  0.2027839E+006  0.2454837E+01  0.7546771E-02  0.2728782E+00
         22   -1    0    0    0    0  0.00000000000E+00  0.00000000000E+00  0.17988794723E+02  0.17988794723E+02  0.00000000000E+00 0.  1.
         22   -1    0    0    0    0 -0.00000000000E+00 -0.00000000000E+00 -0.36407375546E+00  0.36407375546E+00  0.00000000000E+00 0. -1.
          4    1    1    2  501    0 -0.16050921014E+01 -0.18573918301E+01  0.62191448867E+01  0.66861041112E+01  0.00000000000E+00 0. -1.
         -4    1    1    2    0  501  0.16050921014E+01  0.18573918301E+01  0.11405576081E+02  0.11666764367E+02  0.00000000000E+00 0.  1.
<mgrwt>
<rscale>  0 0.24548371E+01</rscale>
<asrwt>0</asrwt>
<pdfrwt beam="1">0</pdfrwt>
<pdfrwt beam="2">0</pdfrwt>
<totfact> 0.24273176E+12</totfact>
</mgrwt>
</event>
<event>
 4    2  0.2027839E+006  0.4012282E+01  0.7546771E-02  0.2274953E+00
         22   -1    0    0    0    0  0.00000000000E+00  0.00000000000E+00  0.64999312639E+00  0.64999312639E+00  0.00000000000E+00 0.  1.
         22   -1    0    0    0    0 -0.00000000000E+00 -0.00000000000E+00 -0.31153261180E+02  0.31153261180E+02  0.00000000000E+00 0. -1.
          4    1    1    2  501    0 -0.39735987666E+01  0.55580794470E+00 -0.80519807215E+01  0.89962660682E+01  0.00000000000E+00 0.  1.
         -4    1    1    2    0  501  0.39735987666E+01 -0.55580794470E+00 -0.22451287332E+02  0.22806988238E+02  0.00000000000E+00 0. -1.
<mgrwt>
<rscale>  0 0.40122823E+01</rscale>
<asrwt>0</asrwt>
<pdfrwt beam="1">0</pdfrwt>
<pdfrwt beam="2">0</pdfrwt>
<totfact> 0.63230535E+11</totfact>
</mgrwt>
</event>
<event>
 4    2  0.2027839E+006  0.2599066E+01  0.7546771E-02  0.2666403E+00
         22   -1    0    0    0    0  0.00000000000E+00  0.00000000000E+00  0.48172658537E+02  0.48172658537E+02  0.00000000000E+00 0.  1.
         22   -1    0    0    0    0 -0.00000000000E+00 -0.00000000000E+00 -0.60660552979E+00  0.60660552979E+00  0.00000000000E+00 0. -1.
          4    1    1    2  501    0  0.25977127067E+01 -0.83852596072E-01  0.45168604874E+02  0.45243320046E+02  0.00000000000E+00 0.  1.
         -4    1    1    2    0  501 -0.25977127067E+01  0.83852596072E-01  0.23974481338E+01  0.35359440209E+01  0.00000000000E+00 0. -1.
<mgrwt>
<rscale>  0 0.25990657E+01</rscale>
<asrwt>0</asrwt>
<pdfrwt beam="1">0</pdfrwt>
<pdfrwt beam="2">0</pdfrwt>
<totfact> 0.38876977E+11</totfact>
</mgrwt>
</event>
<event>
 4    2  0.2027839E+006  0.2949781E+01  0.7546771E-02  0.2538292E+00
         22   -1    0    0    0    0  0.00000000000E+00  0.00000000000E+00  0.41998438738E+01  0.41998438738E+01  0.00000000000E+00 0.  1.
         22   -1    0    0    0    0 -0.00000000000E+00 -0.00000000000E+00 -0.27392800086E+01  0.27392800086E+01  0.00000000000E+00 0. -1.
          4    1    1    2  501    0 -0.63947901795E-02 -0.29497743036E+01  0.24429676253E+01  0.38300522390E+01  0.00000000000E+00 0.  1.
         -4    1    1    2    0  501  0.63947901795E-02  0.29497743036E+01 -0.98240376008E+00  0.31090716433E+01  0.00000000000E+00 0. -1.
<mgrwt>
<rscale>  0 0.29497812E+01</rscale>
<asrwt>0</asrwt>
<pdfrwt beam="1">0</pdfrwt>
<pdfrwt beam="2">0</pdfrwt>
<totfact> 0.13982490E+12</totfact>
</mgrwt>
</event>
<event>
 4    2  0.2027839E+006  0.2883926E+01  0.7546771E-02  0.2560183E+00
         22   -1    0    0    0    0  0.00000000000E+00  0.00000000000E+00  0.65092041859E+01  0.65092041859E+01  0.00000000000E+00 0. -1.
         22   -1    0    0    0    0 -0.00000000000E+00 -0.00000000000E+00 -0.12781275372E+02  0.12781275372E+02  0.00000000000E+00 0.  1.
          4    1    1    2  501    0  0.17283303783E+01  0.23086588300E+01  0.60143988115E+01  0.66700842989E+01  0.00000000000E+00 0. -1.
         -4    1    1    2    0  501 -0.17283303783E+01 -0.23086588300E+01 -0.12286469998E+02  0.12620395259E+02  0.00000000000E+00 0.  1.
<mgrwt>
<rscale>  0 0.28839264E+01</rscale>
<asrwt>0</asrwt>
<pdfrwt beam="1">0</pdfrwt>
<pdfrwt beam="2">0</pdfrwt>
<totfact> 0.13276712E+11</totfact>
</mgrwt>
</event>
<event>
 4    2  0.2027839E+006  0.2303509E+01  0.7546771E-02  0.2802052E+00
         22   -1    0    0    0    0  0.00000000000E+00  0.00000000000E+00  0.17133576402E+01  0.17133576402E+01  0.00000000000E+00 0.  1.
         22   -1    0    0    0    0 -0.00000000000E+00 -0.00000000000E+00 -0.49062997705E+01  0.49062997705E+01  0.00000000000E+00 0. -1.
          4    1    1    2  501    0 -0.96394740297E+00  0.20921186640E+01  0.41350873790E+00  0.23403300144E+01  0.00000000000E+00 0.  1.
         -4    1    1    2    0  501  0.96394740297E+00 -0.20921186640E+01 -0.36064508682E+01  0.42793273963E+01  0.00000000000E+00 0. -1.
<mgrwt>
<rscale>  0 0.23035093E+01</rscale>
<asrwt>0</asrwt>
<pdfrwt beam="1">0</pdfrwt>
<pdfrwt beam="2">0</pdfrwt>
<totfact> 0.20051071E+12</totfact>
</mgrwt>
</event>
<event>
 4    2  0.2027839E+006  0.3011681E+01  0.7546771E-02  0.2518502E+00
         22   -1    0    0    0    0  0.00000000000E+00  0.00000000000E+00  0.38779025348E+01  0.38779025348E+01  0.00000000000E+00 0. -1.
         22   -1    0    0    0    0 -0.00000000000E+00 -0.00000000000E+00 -0.33112471678E+01  0.33112471678E+01  0.00000000000E+00 0.  1.
          4    1    1    2  501    0 -0.20994566441E+01  0.21592827913E+01  0.22311584806E+01  0.37481046595E+01  0.00000000000E+00 0. -1.
         -4    1    1    2    0  501  0.20994566441E+01 -0.21592827913E+01 -0.16645031137E+01  0.34410450431E+01  0.00000000000E+00 0.  1.
<mgrwt>
<rscale>  0 0.30116807E+01</rscale>
<asrwt>0</asrwt>
<pdfrwt beam="1">0</pdfrwt>
<pdfrwt beam="2">0</pdfrwt>
<totfact> 0.12306541E+12</totfact>
</mgrwt>
</event>
<event>
 4    2  0.2027839E+006  0.6066894E+01  0.7546771E-02  0.2013740E+00
         22   -1    0    0    0    0  0.00000000000E+00  0.00000000000E+00  0.19912326424E+01  0.19912326424E+01  0.00000000000E+00 0. -1.
         22   -1    0    0    0    0 -0.00000000000E+00 -0.00000000000E+00 -0.47953652406E+02  0.47953652406E+02  0.00000000000E+00 0.  1.
          4    1    1    2  501    0 -0.59491172464E+01 -0.11896259114E+01 -0.34048015696E+01  0.69570021956E+01  0.00000000000E+00 0. -1.
         -4    1    1    2    0  501  0.59491172464E+01  0.11896259114E+01 -0.42557618194E+02  0.42987882852E+02  0.00000000000E+00 0.  1.
<mgrwt>
<rscale>  0 0.60668942E+01</rscale>
<asrwt>0</asrwt>
<pdfrwt beam="1">0</pdfrwt>
<pdfrwt beam="2">0</pdfrwt>
<totfact> 0.10037681E+11</totfact>
</mgrwt>
</event>
<event>
 4    2  0.2027839E+006  0.2603205E+01  0.7546771E-02  0.2664708E+00
         22   -1    0    0    0    0  0.00000000000E+00  0.00000000000E+00  0.17452878893E+00  0.17452878893E+00  0.00000000000E+00 0. -1.
         22   -1    0    0    0    0 -0.00000000000E+00 -0.00000000000E+00 -0.38869391787E+02  0.38869391787E+02  0.00000000000E+00 0.  1.
          4    1    1    2  501    0  0.23571484169E+01 -0.11047748715E+01 -0.19981287538E+02  0.20150149573E+02  0.00000000000E+00 0. -1.
         -4    1    1    2    0  501 -0.23571484169E+01  0.11047748715E+01 -0.18713575461E+02  0.18893771003E+02  0.00000000000E+00 0.  1.
<mgrwt>
<rscale>  0 0.26032050E+01</rscale>
<asrwt>0</asrwt>
<pdfrwt beam="1">0</pdfrwt>
<pdfrwt beam="2">0</pdfrwt>
<totfact> 0.20831809E+12</totfact>
</mgrwt>
</event>
<event>
 4    2  0.2027839E+006  0.3019164E+01  0.7546771E-02  0.2516159E+00
         22   -1    0    0    0    0  0.00000000000E+00  0.00000000000E+00  0.12828949501E+01  0.12828949501E+01  0.00000000000E+00 0.  1.
         22   -1    0    0    0    0 -0.00000000000E+00 -0.00000000000E+00 -0.88215715839E+01  0.88215715839E+01  0.00000000000E+00 0. -1.
          4    1    1    2  501    0  0.22825740941E+01  0.19761597335E+01 -0.15408847634E+01  0.33896427011E+01  0.00000000000E+00 0.  1.
         -4    1    1    2    0  501 -0.22825740941E+01 -0.19761597335E+01 -0.59977918704E+01  0.67148238329E+01  0.00000000000E+00 0. -1.
<mgrwt>
<rscale>  0 0.30191641E+01</rscale>
<asrwt>0</asrwt>
<pdfrwt beam="1">0</pdfrwt>
<pdfrwt beam="2">0</pdfrwt>
<totfact> 0.13883224E+12</totfact>
</mgrwt>
</event>
<event>
 4    2  0.2027839E+006  0.2012137E+01  0.7546771E-02  0.2972582E+00
         22   -1    0    0    0    0  0.00000000000E+00  0.00000000000E+00  0.64674081133E-01  0.64674081133E-01  0.00000000000E+00 0.  1.
         22   -1    0    0    0    0 -0.00000000000E+00 -0.00000000000E+00 -0.92536132217E+02  0.92536132217E+02  0.00000000000E+00 0. -1.
          4    1    1    2  501    0 -0.42268786872E+00  0.19672393101E+01 -0.19901782694E+02  0.20003240986E+02  0.00000000000E+00 0.  1.
         -4    1    1    2    0  501  0.42268786872E+00 -0.19672393101E+01 -0.72569675442E+02  0.72597565313E+02  0.00000000000E+00 0. -1.
<mgrwt>
<rscale>  0 0.20121371E+01</rscale>
<asrwt>0</asrwt>
<pdfrwt beam="1">0</pdfrwt>
<pdfrwt beam="2">0</pdfrwt>
<totfact> 0.19553408E+12</totfact>
</mgrwt>
</event>
<event>
 4    2  0.2027839E+006  0.2951272E+01  0.7546771E-02  0.2537806E+00
         22   -1    0    0    0    0  0.00000000000E+00  0.00000000000E+00  0.17800497593E+01  0.17800497593E+01  0.00000000000E+00 0. -1.
         22   -1    0    0    0    0 -0.00000000000E+00 -0.00000000000E+00 -0.58601267549E+01  0.58601267549E+01  0.00000000000E+00 0.  1.
          4    1    1    2  501    0  0.26108950833E+01  0.13759472742E+01 -0.48824557175E+00  0.29913855946E+01  0.00000000000E+00 0. -1.
         -4    1    1    2    0  501 -0.26108950833E+01 -0.13759472742E+01 -0.35918314238E+01  0.46487909196E+01  0.00000000000E+00 0.  1.
<mgrwt>
<rscale>  0 0.29512716E+01</rscale>
<asrwt>0</asrwt>
<pdfrwt beam="1">0</pdfrwt>
<pdfrwt beam="2">0</pdfrwt>
<totfact> 0.15541015E+12</totfact>
</mgrwt>
</event>
<event>
 4    2  0.2027839E+006  0.3619887E+01  0.7546771E-02  0.2356431E+00
         22   -1    0    0    0    0  0.00000000000E+00  0.00000000000E+00  0.20731380477E+01  0.20731380477E+01  0.00000000000E+00 0.  1.
         22   -1    0    0    0    0 -0.00000000000E+00 -0.00000000000E+00 -0.70888431471E+01  0.70888431471E+01  0.00000000000E+00 0. -1.
          4    1    1    2  501    0 -0.36008644626E+00 -0.36019327202E+01 -0.99983388328E+00  0.37554293182E+01  0.00000000000E+00 0. -1.
         -4    1    1    2    0  501  0.36008644626E+00  0.36019327202E+01 -0.40158712161E+01  0.54065518766E+01  0.00000000000E+00 0.  1.
<mgrwt>
<rscale>  0 0.36198870E+01</rscale>
<asrwt>0</asrwt>
<pdfrwt beam="1">0</pdfrwt>
<pdfrwt beam="2">0</pdfrwt>
<totfact> 0.10382513E+12</totfact>
</mgrwt>
</event>
<event>
 4    2  0.2027839E+006  0.2691773E+01  0.7546771E-02  0.2629580E+00
         22   -1    0    0    0    0  0.00000000000E+00  0.00000000000E+00  0.21454622777E+00  0.21454622777E+00  0.00000000000E+00 0. -1.
         22   -1    0    0    0    0 -0.00000000000E+00 -0.00000000000E+00 -0.56357683669E+02  0.56357683669E+02  0.00000000000E+00 0.  1.
          4    1    1    2  501    0  0.22478933918E+01 -0.14807493373E+01 -0.10164937550E+02  0.10515303072E+02  0.00000000000E+00 0. -1.
         -4    1    1    2    0  501 -0.22478933918E+01  0.14807493373E+01 -0.45978199891E+02  0.46056926825E+02  0.00000000000E+00 0.  1.
<mgrwt>
<rscale>  0 0.26917733E+01</rscale>
<asrwt>0</asrwt>
<pdfrwt beam="1">0</pdfrwt>
<pdfrwt beam="2">0</pdfrwt>
<totfact> 0.10161452E+12</totfact>
</mgrwt>
</event>
<event>
 4    2  0.2027839E+006  0.2324648E+01  0.7546771E-02  0.2791277E+00
         22   -1    0    0    0    0  0.00000000000E+00  0.00000000000E+00  0.82572597490E+00  0.82572597490E+00  0.00000000000E+00 0.  1.
         22   -1    0    0    0    0 -0.00000000000E+00 -0.00000000000E+00 -0.17007970160E+02  0.17007970160E+02  0.00000000000E+00 0. -1.
          4    1    1    2  501    0 -0.17225496585E+01  0.15610288800E+01 -0.10971745629E+01  0.25705603498E+01  0.00000000000E+00 0.  1.
         -4    1    1    2    0  501  0.17225496585E+01 -0.15610288800E+01 -0.15085069622E+02  0.15263135785E+02  0.00000000000E+00 0. -1.
<mgrwt>
<rscale>  0 0.23246480E+01</rscale>
<asrwt>0</asrwt>
<pdfrwt beam="1">0</pdfrwt>
<pdfrwt beam="2">0</pdfrwt>
<totfact> 0.10305781E+12</totfact>
</mgrwt>
</event>
<event>
 4    2  0.2027839E+006  0.2752835E+01  0.7546771E-02  0.2606572E+00
         22   -1    0    0    0    0  0.00000000000E+00  0.00000000000E+00  0.76118437153E+01  0.76118437153E+01  0.00000000000E+00 0.  1.
         22   -1    0    0    0    0 -0.00000000000E+00 -0.00000000000E+00 -0.22131724259E+01  0.22131724259E+01  0.00000000000E+00 0. -1.
          4    1    1    2  501    0 -0.27526891233E+01 -0.28338038315E-01  0.63430887140E+01  0.69146854511E+01  0.00000000000E+00 0.  1.
         -4    1    1    2    0  501  0.27526891233E+01  0.28338038315E-01 -0.94441742452E+00  0.29103306901E+01  0.00000000000E+00 0. -1.
<mgrwt>
<rscale>  0 0.27528350E+01</rscale>
<asrwt>0</asrwt>
<pdfrwt beam="1">0</pdfrwt>
<pdfrwt beam="2">0</pdfrwt>
<totfact> 0.88380212E+11</totfact>
</mgrwt>
</event>
<event>
 4    2  0.2027839E+006  0.2309642E+01  0.7546771E-02  0.2798906E+00
         22   -1    0    0    0    0  0.00000000000E+00  0.00000000000E+00  0.86529188882E+01  0.86529188882E+01  0.00000000000E+00 0.  1.
         22   -1    0    0    0    0 -0.00000000000E+00 -0.00000000000E+00 -0.20505423306E+01  0.20505423306E+01  0.00000000000E+00 0. -1.
          4    1    1    2  501    0  0.15235538027E+01 -0.17358663481E+01  0.77766948168E+01  0.81124244491E+01  0.00000000000E+00 0.  1.
         -4    1    1    2    0  501 -0.15235538027E+01  0.17358663481E+01 -0.11743182592E+01  0.25910367697E+01  0.00000000000E+00 0. -1.
<mgrwt>
<rscale>  0 0.23096424E+01</rscale>
<asrwt>0</asrwt>
<pdfrwt beam="1">0</pdfrwt>
<pdfrwt beam="2">0</pdfrwt>
<totfact> 0.82763224E+11</totfact>
</mgrwt>
</event>
<event>
 4    2  0.2027839E+006  0.2866322E+01  0.7546771E-02  0.2566189E+00
         22   -1    0    0    0    0  0.00000000000E+00  0.00000000000E+00  0.19781653369E+02  0.19781653369E+02  0.00000000000E+00 0.  1.
         22   -1    0    0    0    0 -0.00000000000E+00 -0.00000000000E+00 -0.53969795407E+00  0.53969795407E+00  0.00000000000E+00 0. -1.
          4    1    1    2  501    0 -0.17711657379E+01  0.22536139604E+01  0.47433217002E+01  0.55421029136E+01  0.00000000000E+00 0.  1.
         -4    1    1    2    0  501  0.17711657379E+01 -0.22536139604E+01  0.14498633715E+02  0.14779248410E+02  0.00000000000E+00 0. -1.
<mgrwt>
<rscale>  0 0.28663224E+01</rscale>
<asrwt>0</asrwt>
<pdfrwt beam="1">0</pdfrwt>
<pdfrwt beam="2">0</pdfrwt>
<totfact> 0.13839098E+12</totfact>
</mgrwt>
</event>
<event>
 4    2  0.2027839E+006  0.2519589E+01  0.7546771E-02  0.2699957E+00
         22   -1    0    0    0    0  0.00000000000E+00  0.00000000000E+00  0.16558580435E+02  0.16558580435E+02  0.00000000000E+00 0. -1.
         22   -1    0    0    0    0 -0.00000000000E+00 -0.00000000000E+00 -0.12128633648E+01  0.12128633648E+01  0.00000000000E+00 0.  1.
          4    1    1    2  501    0 -0.10517226267E+01  0.22895866633E+01  0.15021195328E+02  0.15231041876E+02  0.00000000000E+00 0. -1.
         -4    1    1    2    0  501  0.10517226267E+01 -0.22895866633E+01  0.32452174300E+00  0.25404019237E+01  0.00000000000E+00 0.  1.
<mgrwt>
<rscale>  0 0.25195888E+01</rscale>
<asrwt>0</asrwt>
<pdfrwt beam="1">0</pdfrwt>
<pdfrwt beam="2">0</pdfrwt>
<totfact> 0.68672842E+11</totfact>
</mgrwt>
</event>
<event>
 4    2  0.2027839E+006  0.2055842E+01  0.7546771E-02  0.2944024E+00
         22   -1    0    0    0    0  0.00000000000E+00  0.00000000000E+00  0.61266571042E+00  0.61266571042E+00  0.00000000000E+00 0. -1.
         22   -1    0    0    0    0 -0.00000000000E+00 -0.00000000000E+00 -0.71368446350E+01  0.71368446350E+01  0.00000000000E+00 0.  1.
          4    1    1    2  501    0  0.19267838032E+01  0.71693072942E+00 -0.39701613322E+01  0.44708686515E+01  0.00000000000E+00 0. -1.
         -4    1    1    2    0  501 -0.19267838032E+01 -0.71693072942E+00 -0.25540175924E+01  0.32786416939E+01  0.00000000000E+00 0.  1.
<mgrwt>
<rscale>  0 0.20558418E+01</rscale>
<asrwt>0</asrwt>
<pdfrwt beam="1">0</pdfrwt>
<pdfrwt beam="2">0</pdfrwt>
<totfact> 0.41572313E+12</totfact>
</mgrwt>
</event>
<event>
 4    2  0.2027839E+006  0.2175160E+01  0.7546771E-02  0.2871747E+00
         22   -1    0    0    0    0  0.00000000000E+00  0.00000000000E+00  0.28877662780E+01  0.28877662780E+01  0.00000000000E+00 0.  1.
         22   -1    0    0    0    0 -0.00000000000E+00 -0.00000000000E+00 -0.16402365875E+01  0.16402365875E+01  0.00000000000E+00 0. -1.
          4    1    1    2  501    0 -0.95391609275E-01  0.21730668004E+01  0.54802534262E+00  0.22431341142E+01  0.00000000000E+00 0. -1.
         -4    1    1    2    0  501  0.95391609275E-01 -0.21730668004E+01  0.69950434779E+00  0.22848687513E+01  0.00000000000E+00 0.  1.
<mgrwt>
<rscale>  0 0.21751595E+01</rscale>
<asrwt>0</asrwt>
<pdfrwt beam="1">0</pdfrwt>
<pdfrwt beam="2">0</pdfrwt>
<totfact> 0.39304764E+12</totfact>
</mgrwt>
</event>
<event>
 4    2  0.2027839E+006  0.2525780E+01  0.7546771E-02  0.2697273E+00
         22   -1    0    0    0    0  0.00000000000E+00  0.00000000000E+00  0.32413333215E+00  0.32413333215E+00  0.00000000000E+00 0. -1.
         22   -1    0    0    0    0 -0.00000000000E+00 -0.00000000000E+00 -0.46423857587E+02  0.46423857587E+02  0.00000000000E+00 0.  1.
          4    1    1    2  501    0 -0.17881112304E+01  0.17838782039E+01 -0.40790076178E+02  0.40868201304E+02  0.00000000000E+00 0.  1.
         -4    1    1    2    0  501  0.17881112304E+01 -0.17838782039E+01 -0.53096480771E+01  0.58797896154E+01  0.00000000000E+00 0. -1.
<mgrwt>
<rscale>  0 0.25257797E+01</rscale>
<asrwt>0</asrwt>
<pdfrwt beam="1">0</pdfrwt>
<pdfrwt beam="2">0</pdfrwt>
<totfact> 0.82722194E+11</totfact>
</mgrwt>
</event>
<event>
 4    2  0.2027839E+006  0.2058553E+01  0.7546771E-02  0.2942291E+00
         22   -1    0    0    0    0  0.00000000000E+00  0.00000000000E+00  0.75995930553E-01  0.75995930553E-01  0.00000000000E+00 0. -1.
         22   -1    0    0    0    0 -0.00000000000E+00 -0.00000000000E+00 -0.63101285190E+02  0.63101285190E+02  0.00000000000E+00 0.  1.
          4    1    1    2  501    0 -0.17786856501E+01 -0.10363010233E+01 -0.20739181973E+02  0.20841096693E+02  0.00000000000E+00 0. -1.
         -4    1    1    2    0  501  0.17786856501E+01  0.10363010233E+01 -0.42286107286E+02  0.42336184427E+02  0.00000000000E+00 0.  1.
<mgrwt>
<rscale>  0 0.20585535E+01</rscale>
<asrwt>0</asrwt>
<pdfrwt beam="1">0</pdfrwt>
<pdfrwt beam="2">0</pdfrwt>
<totfact> 0.27640271E+12</totfact>
</mgrwt>
</event>
<event>
 4    2  0.2027839E+006  0.2718338E+01  0.7546771E-02  0.2619455E+00
         22   -1    0    0    0    0  0.00000000000E+00  0.00000000000E+00  0.19801176148E+01  0.19801176148E+01  0.00000000000E+00 0. -1.
         22   -1    0    0    0    0 -0.00000000000E+00 -0.00000000000E+00 -0.38585876427E+01  0.38585876427E+01  0.00000000000E+00 0.  1.
          4    1    1    2  501    0 -0.25004633644E+01 -0.10663229177E+01 -0.41000244061E+00  0.27490841389E+01  0.00000000000E+00 0. -1.
         -4    1    1    2    0  501  0.25004633644E+01  0.10663229177E+01 -0.14684675873E+01  0.30896211186E+01  0.00000000000E+00 0.  1.
<mgrwt>
<rscale>  0 0.27183380E+01</rscale>
<asrwt>0</asrwt>
<pdfrwt beam="1">0</pdfrwt>
<pdfrwt beam="2">0</pdfrwt>
<totfact> 0.22520945E+12</totfact>
</mgrwt>
</event>
<event>
 4    2  0.2027839E+006  0.5258297E+01  0.7546771E-02  0.2093378E+00
         22   -1    0    0    0    0  0.00000000000E+00  0.00000000000E+00  0.16903280864E+01  0.16903280864E+01  0.00000000000E+00 0.  1.
         22   -1    0    0    0    0 -0.00000000000E+00 -0.00000000000E+00 -0.34175879166E+02  0.34175879166E+02  0.00000000000E+00 0. -1.
          4    1    1    2  501    0  0.50368706330E+01 -0.15098415132E+01 -0.32940012882E+01  0.62048474321E+01  0.00000000000E+00 0.  1.
         -4    1    1    2    0  501 -0.50368706330E+01  0.15098415132E+01 -0.29191549791E+02  0.29661359820E+02  0.00000000000E+00 0. -1.
<mgrwt>
<rscale>  0 0.52582970E+01</rscale>
<asrwt>0</asrwt>
<pdfrwt beam="1">0</pdfrwt>
<pdfrwt beam="2">0</pdfrwt>
<totfact> 0.18834035E+11</totfact>
</mgrwt>
</event>
<event>
 4    2  0.2027839E+006  0.2619560E+01  0.7546771E-02  0.2658057E+00
         22   -1    0    0    0    0  0.00000000000E+00  0.00000000000E+00  0.40361687474E+02  0.40361687474E+02  0.00000000000E+00 0. -1.
         22   -1    0    0    0    0 -0.00000000000E+00 -0.00000000000E+00 -0.18773134505E+00  0.18773134505E+00  0.00000000000E+00 0.  1.
          4    1    1    2  501    0 -0.13739577153E+01 -0.22303220411E+01  0.26315315290E+02  0.26445376061E+02  0.00000000000E+00 0. -1.
         -4    1    1    2    0  501  0.13739577153E+01  0.22303220411E+01  0.13858640839E+02  0.14104042758E+02  0.00000000000E+00 0.  1.
<mgrwt>
<rscale>  0 0.26195603E+01</rscale>
<asrwt>0</asrwt>
<pdfrwt beam="1">0</pdfrwt>
<pdfrwt beam="2">0</pdfrwt>
<totfact> 0.18290263E+12</totfact>
</mgrwt>
</event>
<event>
 4    2  0.2027839E+006  0.3060770E+01  0.7546771E-02  0.2503318E+00
         22   -1    0    0    0    0  0.00000000000E+00  0.00000000000E+00  0.10233880120E+02  0.10233880120E+02  0.00000000000E+00 0. -1.
         22   -1    0    0    0    0 -0.00000000000E+00 -0.00000000000E+00 -0.24738952467E+01  0.24738952467E+01  0.00000000000E+00 0.  1.
          4    1    1    2  501    0  0.10625852765E+01 -0.28704055768E+01  0.89231043058E+01  0.94334567417E+01  0.00000000000E+00 0. -1.
         -4    1    1    2    0  501 -0.10625852765E+01  0.28704055768E+01 -0.11631194324E+01  0.32743186251E+01  0.00000000000E+00 0.  1.
<mgrwt>
<rscale>  0 0.30607704E+01</rscale>
<asrwt>0</asrwt>
<pdfrwt beam="1">0</pdfrwt>
<pdfrwt beam="2">0</pdfrwt>
<totfact> 0.54351354E+11</totfact>
</mgrwt>
</event>
<event>
 4    2  0.2027839E+006  0.2005220E+01  0.7546771E-02  0.2977213E+00
         22   -1    0    0    0    0  0.00000000000E+00  0.00000000000E+00  0.35205875199E+00  0.35205875199E+00  0.00000000000E+00 0. -1.
         22   -1    0    0    0    0 -0.00000000000E+00 -0.00000000000E+00 -0.11452872626E+02  0.11452872626E+02  0.00000000000E+00 0.  1.
          4    1    1    2  501    0 -0.19834291687E+01 -0.29481825410E+00 -0.52396706799E+01  0.56102636216E+01  0.00000000000E+00 0.  1.
         -4    1    1    2    0  501  0.19834291687E+01  0.29481825410E+00 -0.58611431937E+01  0.61946677560E+01  0.00000000000E+00 0. -1.
<mgrwt>
<rscale>  0 0.20052205E+01</rscale>
<asrwt>0</asrwt>
<pdfrwt beam="1">0</pdfrwt>
<pdfrwt beam="2">0</pdfrwt>
<totfact> 0.43889305E+12</totfact>
</mgrwt>
</event>
<event>
 4    2  0.2027839E+006  0.2580985E+01  0.7546771E-02  0.2673869E+00
         22   -1    0    0    0    0  0.00000000000E+00  0.00000000000E+00  0.75277052001E+01  0.75277052001E+01  0.00000000000E+00 0. -1.
         22   -1    0    0    0    0 -0.00000000000E+00 -0.00000000000E+00 -0.88632848600E+00  0.88632848600E+00  0.00000000000E+00 0.  1.
          4    1    1    2  501    0  0.10159035958E+01  0.23726401100E+01  0.34878866386E+01  0.43389900221E+01  0.00000000000E+00 0. -1.
         -4    1    1    2    0  501 -0.10159035958E+01 -0.23726401100E+01  0.31534900755E+01  0.40750436641E+01  0.00000000000E+00 0.  1.
<mgrwt>
<rscale>  0 0.25809845E+01</rscale>
<asrwt>0</asrwt>
<pdfrwt beam="1">0</pdfrwt>
<pdfrwt beam="2">0</pdfrwt>
<totfact> 0.25639152E+12</totfact>
</mgrwt>
</event>
<event>
 4    2  0.2027839E+006  0.2011877E+01  0.7546771E-02  0.2972755E+00
         22   -1    0    0    0    0  0.00000000000E+00  0.00000000000E+00  0.98249872789E+01  0.98249872789E+01  0.00000000000E+00 0. -1.
         22   -1    0    0    0    0 -0.00000000000E+00 -0.00000000000E+00 -0.43645923466E+00  0.43645923466E+00  0.00000000000E+00 0.  1.
          4    1    1    2  501    0 -0.17642179035E+01  0.96704989002E+00  0.59094673785E+01  0.62425519620E+01  0.00000000000E+00 0. -1.
         -4    1    1    2    0  501  0.17642179035E+01 -0.96704989002E+00  0.34790606657E+01  0.40188945516E+01  0.00000000000E+00 0.  1.
<mgrwt>
<rscale>  0 0.20118773E+01</rscale>
<asrwt>0</asrwt>
<pdfrwt beam="1">0</pdfrwt>
<pdfrwt beam="2">0</pdfrwt>
<totfact> 0.41508757E+12</totfact>
</mgrwt>
</event>
<event>
 4    2  0.2027839E+006  0.5208220E+01  0.7546771E-02  0.2098940E+00
         22   -1    0    0    0    0  0.00000000000E+00  0.00000000000E+00  0.10059362143E+01  0.10059362143E+01  0.00000000000E+00 0. -1.
         22   -1    0    0    0    0 -0.00000000000E+00 -0.00000000000E+00 -0.27936093498E+02  0.27936093498E+02  0.00000000000E+00 0.  1.
          4    1    1    2  501    0  0.20925898947E+01  0.47693423153E+01 -0.16162433237E+02  0.16980865901E+02  0.00000000000E+00 0. -1.
         -4    1    1    2    0  501 -0.20925898947E+01 -0.47693423153E+01 -0.10767724047E+02  0.11961163812E+02  0.00000000000E+00 0.  1.
<mgrwt>
<rscale>  0 0.52082203E+01</rscale>
<asrwt>0</asrwt>
<pdfrwt beam="1">0</pdfrwt>
<pdfrwt beam="2">0</pdfrwt>
<totfact> 0.44196837E+11</totfact>
</mgrwt>
</event>
<event>
 4    2  0.2027839E+006  0.2512510E+01  0.7546771E-02  0.2703040E+00
         22   -1    0    0    0    0  0.00000000000E+00  0.00000000000E+00  0.19173952954E+02  0.19173952954E+02  0.00000000000E+00 0.  1.
         22   -1    0    0    0    0 -0.00000000000E+00 -0.00000000000E+00 -0.73421857028E+00  0.73421857028E+00  0.00000000000E+00 0. -1.
          4    1    1    2  501    0  0.25123229573E+01  0.30670245343E-01  0.16612654503E+02  0.16801577216E+02  0.00000000000E+00 0.  1.
         -4    1    1    2    0  501 -0.25123229573E+01 -0.30670245343E-01  0.18270798804E+01  0.31065943081E+01  0.00000000000E+00 0. -1.
<mgrwt>
<rscale>  0 0.25125102E+01</rscale>
<asrwt>0</asrwt>
<pdfrwt beam="1">0</pdfrwt>
<pdfrwt beam="2">0</pdfrwt>
<totfact> 0.10150614E+12</totfact>
</mgrwt>
</event>
<event>
 4    2  0.2027839E+006  0.2003268E+01  0.7546771E-02  0.2978526E+00
         22   -1    0    0    0    0  0.00000000000E+00  0.00000000000E+00  0.55375222677E+02  0.55375222677E+02  0.00000000000E+00 0.  1.
         22   -1    0    0    0    0 -0.00000000000E+00 -0.00000000000E+00 -0.15554758836E+01  0.15554758836E+01  0.00000000000E+00 0. -1.
          4    1    1    2  501    0  0.45554142403E-01  0.20027499923E+01  0.54704203199E+02  0.54740870749E+02  0.00000000000E+00 0.  1.
         -4    1    1    2    0  501 -0.45554142403E-01 -0.20027499923E+01 -0.88445640560E+00  0.21898278117E+01  0.00000000000E+00 0. -1.
<mgrwt>
<rscale>  0 0.20032680E+01</rscale>
<asrwt>0</asrwt>
<pdfrwt beam="1">0</pdfrwt>
<pdfrwt beam="2">0</pdfrwt>
<totfact> 0.11034505E+11</totfact>
</mgrwt>
</event>
<event>
 4    2  0.2027839E+006  0.2438275E+01  0.7546771E-02  0.2736384E+00
         22   -1    0    0    0    0  0.00000000000E+00  0.00000000000E+00  0.73338388754E+00  0.73338388754E+00  0.00000000000E+00 0.  1.
         22   -1    0    0    0    0 -0.00000000000E+00 -0.00000000000E+00 -0.16566999043E+02  0.16566999043E+02  0.00000000000E+00 0. -1.
          4    1    1    2  501    0 -0.80760709578E+00 -0.23006429133E+01 -0.17352001962E+01  0.29926755181E+01  0.00000000000E+00 0.  1.
         -4    1    1    2    0  501  0.80760709578E+00  0.23006429133E+01 -0.14098414959E+02  0.14307707412E+02  0.00000000000E+00 0. -1.
<mgrwt>
<rscale>  0 0.24382754E+01</rscale>
<asrwt>0</asrwt>
<pdfrwt beam="1">0</pdfrwt>
<pdfrwt beam="2">0</pdfrwt>
<totfact> 0.12183211E+12</totfact>
</mgrwt>
</event>
<event>
 4    2  0.2027839E+006  0.2934116E+01  0.7546771E-02  0.2543419E+00
         22   -1    0    0    0    0  0.00000000000E+00  0.00000000000E+00  0.20559030770E+01  0.20559030770E+01  0.00000000000E+00 0. -1.
         22   -1    0    0    0    0 -0.00000000000E+00 -0.00000000000E+00 -0.79786130099E+01  0.79786130099E+01  0.00000000000E+00 0.  1.
          4    1    1    2  501    0 -0.93692566753E+00  0.27805046826E+01  0.49714457562E+00  0.29759349330E+01  0.00000000000E+00 0. -1.
         -4    1    1    2    0  501  0.93692566753E+00 -0.27805046826E+01 -0.64198545085E+01  0.70585811540E+01  0.00000000000E+00 0.  1.
<mgrwt>
<rscale>  0 0.29341159E+01</rscale>
<asrwt>0</asrwt>
<pdfrwt beam="1">0</pdfrwt>
<pdfrwt beam="2">0</pdfrwt>
<totfact> 0.90976627E+11</totfact>
</mgrwt>
</event>
<event>
 4    2  0.2027839E+006  0.3618689E+01  0.7546771E-02  0.2356703E+00
         22   -1    0    0    0    0  0.00000000000E+00  0.00000000000E+00  0.68161000715E+02  0.68161000715E+02  0.00000000000E+00 0.  1.
         22   -1    0    0    0    0 -0.00000000000E+00 -0.00000000000E+00 -0.33569894846E+00  0.33569894846E+00  0.00000000000E+00 0. -1.
          4    1    1    2  501    0 -0.24617096189E+01 -0.26523374503E+01  0.56310902077E+02  0.56427055576E+02  0.00000000000E+00 0.  1.
         -4    1    1    2    0  501  0.24617096189E+01  0.26523374503E+01  0.11514399689E+02  0.12069644087E+02  0.00000000000E+00 0. -1.
<mgrwt>
<rscale>  0 0.36186887E+01</rscale>
<asrwt>0</asrwt>
<pdfrwt beam="1">0</pdfrwt>
<pdfrwt beam="2">0</pdfrwt>
<totfact> 0.47689993E+11</totfact>
</mgrwt>
</event>
<event>
 4    2  0.2027839E+006  0.5866804E+01  0.7546771E-02  0.2031843E+00
         22   -1    0    0    0    0  0.00000000000E+00  0.00000000000E+00  0.11490547218E+02  0.11490547218E+02  0.00000000000E+00 0. -1.
         22   -1    0    0    0    0 -0.00000000000E+00 -0.00000000000E+00 -0.12714666336E+02  0.12714666336E+02  0.00000000000E+00 0.  1.
          4    1    1    2  501    0  0.32724652660E+01 -0.48693285737E+01  0.99693129893E+01  0.11567479896E+02  0.00000000000E+00 0. -1.
         -4    1    1    2    0  501 -0.32724652660E+01  0.48693285737E+01 -0.11193432107E+02  0.12637733658E+02  0.00000000000E+00 0.  1.
<mgrwt>
<rscale>  0 0.58668040E+01</rscale>
<asrwt>0</asrwt>
<pdfrwt beam="1">0</pdfrwt>
<pdfrwt beam="2">0</pdfrwt>
<totfact> 0.67374418E+10</totfact>
</mgrwt>
</event>
<event>
 4    2  0.2027839E+006  0.3163936E+01  0.7546771E-02  0.2472783E+00
         22   -1    0    0    0    0  0.00000000000E+00  0.00000000000E+00  0.16850910759E+01  0.16850910759E+01  0.00000000000E+00 0.  1.
         22   -1    0    0    0    0 -0.00000000000E+00 -0.00000000000E+00 -0.59441737516E+01  0.59441737516E+01  0.00000000000E+00 0. -1.
          4    1    1    2  501    0 -0.75673795418E+00 -0.30721062666E+01 -0.20362967482E+01  0.37625780644E+01  0.00000000000E+00 0. -1.
         -4    1    1    2    0  501  0.75673795418E+00  0.30721062666E+01 -0.22227859275E+01  0.38666867631E+01  0.00000000000E+00 0.  1.
<mgrwt>
<rscale>  0 0.31639357E+01</rscale>
<asrwt>0</asrwt>
<pdfrwt beam="1">0</pdfrwt>
<pdfrwt beam="2">0</pdfrwt>
<totfact> 0.16277854E+12</totfact>
</mgrwt>
</event>
<event>
 4    2  0.2027839E+006  0.2393880E+01  0.7546771E-02  0.2757248E+00
         22   -1    0    0    0    0  0.00000000000E+00  0.00000000000E+00  0.44041293029E+00  0.44041293029E+00  0.00000000000E+00 0. -1.
         22   -1    0    0    0    0 -0.00000000000E+00 -0.00000000000E+00 -0.48765067196E+02  0.48765067196E+02  0.00000000000E+00 0.  1.
          4    1    1    2  501    0 -0.18883412289E+01  0.14713357923E+01 -0.30961564234E+01  0.39136742594E+01  0.00000000000E+00 0. -1.
         -4    1    1    2    0  501  0.18883412289E+01 -0.14713357923E+01 -0.45228497842E+02  0.45291805867E+02  0.00000000000E+00 0.  1.
<mgrwt>
<rscale>  0 0.23938800E+01</rscale>
<asrwt>0</asrwt>
<pdfrwt beam="1">0</pdfrwt>
<pdfrwt beam="2">0</pdfrwt>
<totfact> 0.54928156E+11</totfact>
</mgrwt>
</event>
<event>
 4    2  0.2027839E+006  0.2117672E+01  0.7546771E-02  0.2905586E+00
         22   -1    0    0    0    0  0.00000000000E+00  0.00000000000E+00  0.13540333277E+01  0.13540333277E+01  0.00000000000E+00 0.  1.
         22   -1    0    0    0    0 -0.00000000000E+00 -0.00000000000E+00 -0.25464043156E+02  0.25464043156E+02  0.00000000000E+00 0. -1.
          4    1    1    2  501    0  0.14646684239E+01  0.15294703215E+01  0.45164595128E+00  0.21652983909E+01  0.00000000000E+00 0.  1.
         -4    1    1    2    0  501 -0.14646684239E+01 -0.15294703215E+01 -0.24561655780E+02  0.24652778093E+02  0.00000000000E+00 0. -1.
<mgrwt>
<rscale>  0 0.21176716E+01</rscale>
<asrwt>0</asrwt>
<pdfrwt beam="1">0</pdfrwt>
<pdfrwt beam="2">0</pdfrwt>
<totfact> 0.35357981E+11</totfact>
</mgrwt>
</event>
<event>
 4    2  0.2027839E+006  0.3606707E+01  0.7546771E-02  0.2359432E+00
         22   -1    0    0    0    0  0.00000000000E+00  0.00000000000E+00  0.10001948930E+00  0.10001948930E+00  0.00000000000E+00 0. -1.
         22   -1    0    0    0    0 -0.00000000000E+00 -0.00000000000E+00 -0.13295703691E+03  0.13295703691E+03  0.00000000000E+00 0.  1.
          4    1    1    2  501    0 -0.35440317090E+01 -0.66945736576E+00 -0.76252313827E+02  0.76337564134E+02  0.00000000000E+00 0.  1.
         -4    1    1    2    0  501  0.35440317090E+01  0.66945736576E+00 -0.56604703594E+02  0.56719492265E+02  0.00000000000E+00 0. -1.
<mgrwt>
<rscale>  0 0.36067068E+01</rscale>
<asrwt>0</asrwt>
<pdfrwt beam="1">0</pdfrwt>
<pdfrwt beam="2">0</pdfrwt>
<totfact> 0.72058343E+11</totfact>
</mgrwt>
</event>
<event>
 4    2  0.2027839E+006  0.2014046E+01  0.7546771E-02  0.2971309E+00
         22   -1    0    0    0    0  0.00000000000E+00  0.00000000000E+00  0.99278867489E+01  0.99278867489E+01  0.00000000000E+00 0. -1.
         22   -1    0    0    0    0 -0.00000000000E+00 -0.00000000000E+00 -0.45573331621E+00  0.45573331621E+00  0.00000000000E+00 0.  1.
          4    1    1    2  501    0  0.16898252280E+01 -0.10958437638E+01  0.64060048221E+01  0.67151530613E+01  0.00000000000E+00 0. -1.
         -4    1    1    2    0  501 -0.16898252280E+01  0.10958437638E+01  0.30661486106E+01  0.36684670038E+01  0.00000000000E+00 0.  1.
<mgrwt>
<rscale>  0 0.20140464E+01</rscale>
<asrwt>0</asrwt>
<pdfrwt beam="1">0</pdfrwt>
<pdfrwt beam="2">0</pdfrwt>
<totfact> 0.39039666E+12</totfact>
</mgrwt>
</event>
<event>
 4    2  0.2027839E+006  0.2058516E+01  0.7546771E-02  0.2942315E+00
         22   -1    0    0    0    0  0.00000000000E+00  0.00000000000E+00  0.24866459559E+01  0.24866459559E+01  0.00000000000E+00 0. -1.
         22   -1    0    0    0    0 -0.00000000000E+00 -0.00000000000E+00 -0.16364289487E+02  0.16364289487E+02  0.00000000000E+00 0.  1.
          4    1    1    2  501    0  0.11063952301E+01 -0.17359088009E+01  0.19823961319E+01  0.28578635716E+01  0.00000000000E+00 0. -1.
         -4    1    1    2    0  501 -0.11063952301E+01  0.17359088009E+01 -0.15860039663E+02  0.15993071871E+02  0.00000000000E+00 0.  1.
<mgrwt>
<rscale>  0 0.20585164E+01</rscale>
<asrwt>0</asrwt>
<pdfrwt beam="1">0</pdfrwt>
<pdfrwt beam="2">0</pdfrwt>
<totfact> 0.30422959E+11</totfact>
</mgrwt>
</event>
<event>
 4    2  0.2027839E+006  0.3050541E+01  0.7546771E-02  0.2506446E+00
         22   -1    0    0    0    0  0.00000000000E+00  0.00000000000E+00  0.20572258500E+02  0.20572258500E+02  0.00000000000E+00 0.  1.
         22   -1    0    0    0    0 -0.00000000000E+00 -0.00000000000E+00 -0.40101042987E+01  0.40101042987E+01  0.00000000000E+00 0. -1.
          4    1    1    2  501    0 -0.18715512126E+01 -0.24089616909E+01  0.19858288149E+02  0.20091227154E+02  0.00000000000E+00 0.  1.
         -4    1    1    2    0  501  0.18715512126E+01  0.24089616909E+01 -0.32961339479E+01  0.44911356439E+01  0.00000000000E+00 0. -1.
<mgrwt>
<rscale>  0 0.30505410E+01</rscale>
<asrwt>0</asrwt>
<pdfrwt beam="1">0</pdfrwt>
<pdfrwt beam="2">0</pdfrwt>
<totfact> 0.13093484E+11</totfact>
</mgrwt>
</event>
<event>
 4    2  0.2027839E+006  0.2499619E+01  0.7546771E-02  0.2708698E+00
         22   -1    0    0    0    0  0.00000000000E+00  0.00000000000E+00  0.15311411610E+02  0.15311411610E+02  0.00000000000E+00 0.  1.
         22   -1    0    0    0    0 -0.00000000000E+00 -0.00000000000E+00 -0.50117228683E+00  0.50117228683E+00  0.00000000000E+00 0. -1.
          4    1    1    2  501    0 -0.66368178806E-01 -0.24987378441E+01  0.10812843562E+02  0.11098003490E+02  0.00000000000E+00 0.  1.
         -4    1    1    2    0  501  0.66368178806E-01  0.24987378441E+01  0.39973957607E+01  0.47145804072E+01  0.00000000000E+00 0. -1.
<mgrwt>
<rscale>  0 0.24996191E+01</rscale>
<asrwt>0</asrwt>
<pdfrwt beam="1">0</pdfrwt>
<pdfrwt beam="2">0</pdfrwt>
<totfact> 0.20666233E+12</totfact>
</mgrwt>
</event>
<event>
 4    2  0.2027839E+006  0.2337595E+01  0.7546771E-02  0.2784769E+00
         22   -1    0    0    0    0  0.00000000000E+00  0.00000000000E+00  0.29199124808E+01  0.29199124808E+01  0.00000000000E+00 0. -1.
         22   -1    0    0    0    0 -0.00000000000E+00 -0.00000000000E+00 -0.19814601085E+01  0.19814601085E+01  0.00000000000E+00 0.  1.
          4    1    1    2  501    0  0.22973889840E+01 -0.43168889218E+00  0.10467788959E+01  0.25612687286E+01  0.00000000000E+00 0.  1.
         -4    1    1    2    0  501 -0.22973889840E+01  0.43168889218E+00 -0.10832652356E+00  0.23401038608E+01  0.00000000000E+00 0. -1.
<mgrwt>
<rscale>  0 0.23375952E+01</rscale>
<asrwt>0</asrwt>
<pdfrwt beam="1">0</pdfrwt>
<pdfrwt beam="2">0</pdfrwt>
<totfact> 0.31192426E+12</totfact>
</mgrwt>
</event>
<event>
 4    2  0.2027839E+006  0.2553064E+01  0.7546771E-02  0.2685588E+00
         22   -1    0    0    0    0  0.00000000000E+00  0.00000000000E+00  0.11729650072E+02  0.11729650072E+02  0.00000000000E+00 0.  1.
         22   -1    0    0    0    0 -0.00000000000E+00 -0.00000000000E+00 -0.61412749508E+00  0.61412749508E+00  0.00000000000E+00 0. -1.
          4    1    1    2  501    0  0.89576662274E+00 -0.23907612488E+01  0.74614974305E+01  0.78861956035E+01  0.00000000000E+00 0.  1.
         -4    1    1    2    0  501 -0.89576662274E+00  0.23907612488E+01  0.36540251462E+01  0.44575819634E+01  0.00000000000E+00 0. -1.
<mgrwt>
<rscale>  0 0.25530643E+01</rscale>
<asrwt>0</asrwt>
<pdfrwt beam="1">0</pdfrwt>
<pdfrwt beam="2">0</pdfrwt>
<totfact> 0.22760307E+12</totfact>
</mgrwt>
</event>
<event>
 4    2  0.2027839E+006  0.2845422E+01  0.7546771E-02  0.2573406E+00
         22   -1    0    0    0    0  0.00000000000E+00  0.00000000000E+00  0.55948770752E+01  0.55948770752E+01  0.00000000000E+00 0.  1.
         22   -1    0    0    0    0 -0.00000000000E+00 -0.00000000000E+00 -0.29133517656E+01  0.29133517656E+01  0.00000000000E+00 0. -1.
          4    1    1    2  501    0  0.84948088280E+00 -0.27156599638E+01  0.43587322155E+01  0.52052832138E+01  0.00000000000E+00 0.  1.
         -4    1    1    2    0  501 -0.84948088280E+00  0.27156599638E+01 -0.16772069059E+01  0.33029456269E+01  0.00000000000E+00 0. -1.
<mgrwt>
<rscale>  0 0.28454221E+01</rscale>
<asrwt>0</asrwt>
<pdfrwt beam="1">0</pdfrwt>
<pdfrwt beam="2">0</pdfrwt>
<totfact> 0.92687355E+11</totfact>
</mgrwt>
</event>
<event>
 4    2  0.2027839E+006  0.2885833E+01  0.7546771E-02  0.2559537E+00
         22   -1    0    0    0    0  0.00000000000E+00  0.00000000000E+00  0.58333251956E+02  0.58333251956E+02  0.00000000000E+00 0.  1.
         22   -1    0    0    0    0 -0.00000000000E+00 -0.00000000000E+00 -0.94233725601E+01  0.94233725601E+01  0.00000000000E+00 0. -1.
          4    1    1    2  501    0  0.28710635487E+01  0.29159227978E+00  0.58075640041E+02  0.58147295707E+02  0.00000000000E+00 0.  1.
         -4    1    1    2    0  501 -0.28710635487E+01 -0.29159227978E+00 -0.91657606447E+01  0.96093288088E+01  0.00000000000E+00 0. -1.
<mgrwt>
<rscale>  0 0.28858330E+01</rscale>
<asrwt>0</asrwt>
<pdfrwt beam="1">0</pdfrwt>
<pdfrwt beam="2">0</pdfrwt>
<totfact> 0.12359444E+10</totfact>
</mgrwt>
</event>
<event>
 4    2  0.2027839E+006  0.2435851E+01  0.7546771E-02  0.2737505E+00
         22   -1    0    0    0    0  0.00000000000E+00  0.00000000000E+00  0.11194079003E+01  0.11194079003E+01  0.00000000000E+00 0.  1.
         22   -1    0    0    0    0 -0.00000000000E+00 -0.00000000000E+00 -0.73754485319E+01  0.73754485319E+01  0.00000000000E+00 0. -1.
          4    1    1    2  501    0  0.11363265732E+01 -0.21545611543E+01 -0.87512950997E+00  0.25882858242E+01  0.00000000000E+00 0.  1.
         -4    1    1    2    0  501 -0.11363265732E+01  0.21545611543E+01 -0.53809111216E+01  0.59065706080E+01  0.00000000000E+00 0. -1.
<mgrwt>
<rscale>  0 0.24358514E+01</rscale>
<asrwt>0</asrwt>
<pdfrwt beam="1">0</pdfrwt>
<pdfrwt beam="2">0</pdfrwt>
<totfact> 0.20125860E+12</totfact>
</mgrwt>
</event>
<event>
 4    2  0.2027839E+006  0.2050911E+01  0.7546771E-02  0.2947187E+00
         22   -1    0    0    0    0  0.00000000000E+00  0.00000000000E+00  0.19960749603E+00  0.19960749603E+00  0.00000000000E+00 0.  1.
         22   -1    0    0    0    0 -0.00000000000E+00 -0.00000000000E+00 -0.21258198989E+02  0.21258198989E+02  0.00000000000E+00 0. -1.
          4    1    1    2  501    0  0.17189973822E+00 -0.20436940681E+01 -0.95266172775E+01  0.97448792561E+01  0.00000000000E+00 0.  1.
         -4    1    1    2    0  501 -0.17189973822E+00  0.20436940681E+01 -0.11531974216E+02  0.11712927229E+02  0.00000000000E+00 0. -1.
<mgrwt>
<rscale>  0 0.20509108E+01</rscale>
<asrwt>0</asrwt>
<pdfrwt beam="1">0</pdfrwt>
<pdfrwt beam="2">0</pdfrwt>
<totfact> 0.38638132E+12</totfact>
</mgrwt>
</event>
<event>
 4    2  0.2027839E+006  0.3831897E+01  0.7546771E-02  0.2310627E+00
         22   -1    0    0    0    0  0.00000000000E+00  0.00000000000E+00  0.22312074265E+01  0.22312074265E+01  0.00000000000E+00 0. -1.
         22   -1    0    0    0    0 -0.00000000000E+00 -0.00000000000E+00 -0.14764973350E+02  0.14764973350E+02  0.00000000000E+00 0.  1.
          4    1    1    2  501    0 -0.17488434489E+01  0.34095425866E+01  0.59985485827E-01  0.38323664122E+01  0.00000000000E+00 0. -1.
         -4    1    1    2    0  501  0.17488434489E+01 -0.34095425866E+01 -0.12593751410E+02  0.13163814365E+02  0.00000000000E+00 0.  1.
<mgrwt>
<rscale>  0 0.38318969E+01</rscale>
<asrwt>0</asrwt>
<pdfrwt beam="1">0</pdfrwt>
<pdfrwt beam="2">0</pdfrwt>
<totfact> 0.39173010E+11</totfact>
</mgrwt>
</event>
<event>
 4    2  0.2027839E+006  0.2184766E+01  0.7546771E-02  0.2866260E+00
         22   -1    0    0    0    0  0.00000000000E+00  0.00000000000E+00  0.36671233432E+01  0.36671233432E+01  0.00000000000E+00 0.  1.
         22   -1    0    0    0    0 -0.00000000000E+00 -0.00000000000E+00 -0.14850650367E+01  0.14850650367E+01  0.00000000000E+00 0. -1.
          4    1    1    2  501    0 -0.88579483633E-01  0.21829697759E+01  0.19964307330E+01  0.29595504792E+01  0.00000000000E+00 0.  1.
         -4    1    1    2    0  501  0.88579483633E-01 -0.21829697759E+01  0.18562757350E+00  0.21926379007E+01  0.00000000000E+00 0. -1.
<mgrwt>
<rscale>  0 0.21847662E+01</rscale>
<asrwt>0</asrwt>
<pdfrwt beam="1">0</pdfrwt>
<pdfrwt beam="2">0</pdfrwt>
<totfact> 0.33318638E+12</totfact>
</mgrwt>
</event>
<event>
 4    2  0.2027839E+006  0.2287797E+01  0.7546771E-02  0.2810183E+00
         22   -1    0    0    0    0  0.00000000000E+00  0.00000000000E+00  0.43993052420E+01  0.43993052420E+01  0.00000000000E+00 0.  1.
         22   -1    0    0    0    0 -0.00000000000E+00 -0.00000000000E+00 -0.14612726833E+01  0.14612726833E+01  0.00000000000E+00 0. -1.
          4    1    1    2  501    0  0.21633229640E+01 -0.74434593004E+00  0.27321755375E+01  0.35635376072E+01  0.00000000000E+00 0.  1.
         -4    1    1    2    0  501 -0.21633229640E+01  0.74434593004E+00  0.20585702126E+00  0.22970403181E+01  0.00000000000E+00 0. -1.
<mgrwt>
<rscale>  0 0.22877974E+01</rscale>
<asrwt>0</asrwt>
<pdfrwt beam="1">0</pdfrwt>
<pdfrwt beam="2">0</pdfrwt>
<totfact> 0.27398052E+12</totfact>
</mgrwt>
</event>
<event>
 4    2  0.2027839E+006  0.2346269E+01  0.7546771E-02  0.2780446E+00
         22   -1    0    0    0    0  0.00000000000E+00  0.00000000000E+00  0.49851052528E+02  0.49851052528E+02  0.00000000000E+00 0.  1.
         22   -1    0    0    0    0 -0.00000000000E+00 -0.00000000000E+00 -0.11043535151E+00  0.11043535151E+00  0.00000000000E+00 0. -1.
          4    1    1    2  501    0  0.23265357293E+01  0.30366013551E+00  0.25066776950E+02  0.25176343751E+02  0.00000000000E+00 0.  1.
         -4    1    1    2    0  501 -0.23265357293E+01 -0.30366013551E+00  0.24673840226E+02  0.24785144129E+02  0.00000000000E+00 0. -1.
<mgrwt>
<rscale>  0 0.23462689E+01</rscale>
<asrwt>0</asrwt>
<pdfrwt beam="1">0</pdfrwt>
<pdfrwt beam="2">0</pdfrwt>
<totfact> 0.25021319E+12</totfact>
</mgrwt>
</event>
<event>
 4    2  0.2027839E+006  0.2398410E+01  0.7546771E-02  0.2755086E+00
         22   -1    0    0    0    0  0.00000000000E+00  0.00000000000E+00  0.21512860767E+01  0.21512860767E+01  0.00000000000E+00 0.  1.
         22   -1    0    0    0    0 -0.00000000000E+00 -0.00000000000E+00 -0.27367022245E+01  0.27367022245E+01  0.00000000000E+00 0. -1.
          4    1    1    2  501    0 -0.19404789152E+01 -0.14095783039E+01  0.77461433923E-01  0.23996603278E+01  0.00000000000E+00 0. -1.
         -4    1    1    2    0  501  0.19404789152E+01  0.14095783039E+01 -0.66287758170E+00  0.24883279735E+01  0.00000000000E+00 0.  1.
<mgrwt>
<rscale>  0 0.23984098E+01</rscale>
<asrwt>0</asrwt>
<pdfrwt beam="1">0</pdfrwt>
<pdfrwt beam="2">0</pdfrwt>
<totfact> 0.30585574E+12</totfact>
</mgrwt>
</event>
<event>
 4    2  0.2027839E+006  0.2261209E+01  0.7546771E-02  0.2824187E+00
         22   -1    0    0    0    0  0.00000000000E+00  0.00000000000E+00  0.19999583934E+01  0.19999583934E+01  0.00000000000E+00 0. -1.
         22   -1    0    0    0    0 -0.00000000000E+00 -0.00000000000E+00 -0.36968398528E+01  0.36968398528E+01  0.00000000000E+00 0.  1.
          4    1    1    2  501    0  0.21687580760E+01  0.63996318246E+00  0.73348616459E+00  0.23771971775E+01  0.00000000000E+00 0. -1.
         -4    1    1    2    0  501 -0.21687580760E+01 -0.63996318246E+00 -0.24303676240E+01  0.33196010686E+01  0.00000000000E+00 0.  1.
<mgrwt>
<rscale>  0 0.22612086E+01</rscale>
<asrwt>0</asrwt>
<pdfrwt beam="1">0</pdfrwt>
<pdfrwt beam="2">0</pdfrwt>
<totfact> 0.23410451E+12</totfact>
</mgrwt>
</event>
<event>
 4    2  0.2027839E+006  0.2462963E+01  0.7546771E-02  0.2725087E+00
         22   -1    0    0    0    0  0.00000000000E+00  0.00000000000E+00  0.32574398688E+01  0.32574398688E+01  0.00000000000E+00 0. -1.
         22   -1    0    0    0    0 -0.00000000000E+00 -0.00000000000E+00 -0.26003290434E+01  0.26003290434E+01  0.00000000000E+00 0.  1.
          4    1    1    2  501    0 -0.20159134129E+01 -0.14150198518E+01  0.18889615717E+01  0.31039271719E+01  0.00000000000E+00 0. -1.
         -4    1    1    2    0  501  0.20159134129E+01  0.14150198518E+01 -0.12318507463E+01  0.27538417403E+01  0.00000000000E+00 0.  1.
<mgrwt>
<rscale>  0 0.24629633E+01</rscale>
<asrwt>0</asrwt>
<pdfrwt beam="1">0</pdfrwt>
<pdfrwt beam="2">0</pdfrwt>
<totfact> 0.20022129E+12</totfact>
</mgrwt>
</event>
<event>
 4    2  0.2027839E+006  0.2117689E+01  0.7546771E-02  0.2905576E+00
         22   -1    0    0    0    0  0.00000000000E+00  0.00000000000E+00  0.80102014275E-01  0.80102014275E-01  0.00000000000E+00 0.  1.
         22   -1    0    0    0    0 -0.00000000000E+00 -0.00000000000E+00 -0.58606369836E+02  0.58606369836E+02  0.00000000000E+00 0. -1.
          4    1    1    2  501    0 -0.81804768396E+00 -0.19533059081E+01 -0.23058705579E+02  0.23155744621E+02  0.00000000000E+00 0. -1.
         -4    1    1    2    0  501  0.81804768396E+00  0.19533059081E+01 -0.35467562243E+02  0.35530727229E+02  0.00000000000E+00 0.  1.
<mgrwt>
<rscale>  0 0.21176888E+01</rscale>
<asrwt>0</asrwt>
<pdfrwt beam="1">0</pdfrwt>
<pdfrwt beam="2">0</pdfrwt>
<totfact> 0.28795341E+12</totfact>
</mgrwt>
</event>
<event>
 4    2  0.2027839E+006  0.2748406E+01  0.7546771E-02  0.2608210E+00
         22   -1    0    0    0    0  0.00000000000E+00  0.00000000000E+00  0.45719239552E+00  0.45719239552E+00  0.00000000000E+00 0. -1.
         22   -1    0    0    0    0 -0.00000000000E+00 -0.00000000000E+00 -0.20348867042E+02  0.20348867042E+02  0.00000000000E+00 0.  1.
          4    1    1    2  501    0 -0.23388712373E+01  0.14434047096E+01 -0.54344405049E+01  0.60898997875E+01  0.00000000000E+00 0. -1.
         -4    1    1    2    0  501  0.23388712373E+01 -0.14434047096E+01 -0.14457234142E+02  0.14716159650E+02  0.00000000000E+00 0.  1.
<mgrwt>
<rscale>  0 0.27484061E+01</rscale>
<asrwt>0</asrwt>
<pdfrwt beam="1">0</pdfrwt>
<pdfrwt beam="2">0</pdfrwt>
<totfact> 0.16112012E+12</totfact>
</mgrwt>
</event>
<event>
 4    2  0.2027839E+006  0.2246896E+01  0.7546771E-02  0.2831857E+00
         22   -1    0    0    0    0  0.00000000000E+00  0.00000000000E+00  0.10962400390E+01  0.10962400390E+01  0.00000000000E+00 0.  1.
         22   -1    0    0    0    0 -0.00000000000E+00 -0.00000000000E+00 -0.61869412973E+01  0.61869412973E+01  0.00000000000E+00 0. -1.
          4    1    1    2  501    0  0.72851704411E+00  0.21255131188E+01 -0.43865614333E+01  0.49285357166E+01  0.00000000000E+00 0. -1.
         -4    1    1    2    0  501 -0.72851704411E+00 -0.21255131188E+01 -0.70413982501E+00  0.23546456198E+01  0.00000000000E+00 0.  1.
<mgrwt>
<rscale>  0 0.22468963E+01</rscale>
<asrwt>0</asrwt>
<pdfrwt beam="1">0</pdfrwt>
<pdfrwt beam="2">0</pdfrwt>
<totfact> 0.25428061E+12</totfact>
</mgrwt>
</event>
<event>
 4    2  0.2027839E+006  0.2969721E+01  0.7546771E-02  0.2531836E+00
         22   -1    0    0    0    0  0.00000000000E+00  0.00000000000E+00  0.24935653689E+02  0.24935653689E+02  0.00000000000E+00 0. -1.
         22   -1    0    0    0    0 -0.00000000000E+00 -0.00000000000E+00 -0.94852111914E+00  0.94852111914E+00  0.00000000000E+00 0.  1.
          4    1    1    2  501    0  0.28253580454E+01 -0.91465448827E+00  0.22242562501E+02  0.22439938224E+02  0.00000000000E+00 0. -1.
         -4    1    1    2    0  501 -0.28253580454E+01  0.91465448827E+00  0.17445700690E+01  0.34442365836E+01  0.00000000000E+00 0.  1.
<mgrwt>
<rscale>  0 0.29697207E+01</rscale>
<asrwt>0</asrwt>
<pdfrwt beam="1">0</pdfrwt>
<pdfrwt beam="2">0</pdfrwt>
<totfact> 0.54569391E+11</totfact>
</mgrwt>
</event>
<event>
 4    2  0.2027839E+006  0.2920293E+01  0.7546771E-02  0.2547984E+00
         22   -1    0    0    0    0  0.00000000000E+00  0.00000000000E+00  0.50597757621E+01  0.50597757621E+01  0.00000000000E+00 0. -1.
         22   -1    0    0    0    0 -0.00000000000E+00 -0.00000000000E+00 -0.23138013786E+01  0.23138013786E+01  0.00000000000E+00 0.  1.
          4    1    1    2  501    0 -0.16243737964E+01 -0.24268334327E+01  0.32942149500E+01  0.44022679243E+01  0.00000000000E+00 0. -1.
         -4    1    1    2    0  501  0.16243737964E+01  0.24268334327E+01 -0.54824056648E+00  0.29713092164E+01  0.00000000000E+00 0.  1.
<mgrwt>
<rscale>  0 0.29202929E+01</rscale>
<asrwt>0</asrwt>
<pdfrwt beam="1">0</pdfrwt>
<pdfrwt beam="2">0</pdfrwt>
<totfact> 0.13655473E+12</totfact>
</mgrwt>
</event>
<event>
 4    2  0.2027839E+006  0.2266706E+01  0.7546771E-02  0.2821266E+00
         22   -1    0    0    0    0  0.00000000000E+00  0.00000000000E+00  0.11454308798E+01  0.11454308798E+01  0.00000000000E+00 0.  1.
         22   -1    0    0    0    0 -0.00000000000E+00 -0.00000000000E+00 -0.47880234130E+01  0.47880234130E+01  0.00000000000E+00 0. -1.
          4    1    1    2  501    0  0.22299496652E+01  0.40654610888E+00 -0.10757053644E+01  0.25090032441E+01  0.00000000000E+00 0. -1.
         -4    1    1    2    0  501 -0.22299496652E+01 -0.40654610888E+00 -0.25668871687E+01  0.34244510487E+01  0.00000000000E+00 0.  1.
<mgrwt>
<rscale>  0 0.22667058E+01</rscale>
<asrwt>0</asrwt>
<pdfrwt beam="1">0</pdfrwt>
<pdfrwt beam="2">0</pdfrwt>
<totfact> 0.32781788E+12</totfact>
</mgrwt>
</event>
<event>
 4    2  0.2027839E+006  0.2968679E+01  0.7546771E-02  0.2532171E+00
         22   -1    0    0    0    0  0.00000000000E+00  0.00000000000E+00  0.31070328730E+02  0.31070328730E+02  0.00000000000E+00 0.  1.
         22   -1    0    0    0    0 -0.00000000000E+00 -0.00000000000E+00 -0.43157669093E+00  0.43157669093E+00  0.00000000000E+00 0. -1.
          4    1    1    2  501    0  0.28212187172E+01 -0.92400337659E+00  0.60978442479E+01  0.67820912529E+01  0.00000000000E+00 0. -1.
         -4    1    1    2    0  501 -0.28212187172E+01  0.92400337659E+00  0.24540907791E+02  0.24719814168E+02  0.00000000000E+00 0.  1.
<mgrwt>
<rscale>  0 0.29686794E+01</rscale>
<asrwt>0</asrwt>
<pdfrwt beam="1">0</pdfrwt>
<pdfrwt beam="2">0</pdfrwt>
<totfact> 0.10078956E+12</totfact>
</mgrwt>
</event>
<event>
 4    2  0.2027839E+006  0.2281296E+01  0.7546771E-02  0.2813579E+00
         22   -1    0    0    0    0  0.00000000000E+00  0.00000000000E+00  0.37836026040E+00  0.37836026040E+00  0.00000000000E+00 0. -1.
         22   -1    0    0    0    0 -0.00000000000E+00 -0.00000000000E+00 -0.16918408500E+02  0.16918408500E+02  0.00000000000E+00 0.  1.
          4    1    1    2  501    0  0.22810141739E+01 -0.35845080645E-01 -0.45303032201E+01  0.50722734348E+01  0.00000000000E+00 0.  1.
         -4    1    1    2    0  501 -0.22810141739E+01  0.35845080645E-01 -0.12009745019E+02  0.12224495325E+02  0.00000000000E+00 0. -1.
<mgrwt>
<rscale>  0 0.22812958E+01</rscale>
<asrwt>0</asrwt>
<pdfrwt beam="1">0</pdfrwt>
<pdfrwt beam="2">0</pdfrwt>
<totfact> 0.25080063E+12</totfact>
</mgrwt>
</event>
<event>
 4    2  0.2027839E+006  0.4142616E+01  0.7546771E-02  0.2250835E+00
         22   -1    0    0    0    0  0.00000000000E+00  0.00000000000E+00  0.19843692691E+02  0.19843692691E+02  0.00000000000E+00 0. -1.
         22   -1    0    0    0    0 -0.00000000000E+00 -0.00000000000E+00 -0.15352446562E+01  0.15352446562E+01  0.00000000000E+00 0.  1.
          4    1    1    2  501    0  0.53050676990E+00 -0.41085068466E+01  0.16218076133E+02  0.16738795040E+02  0.00000000000E+00 0. -1.
         -4    1    1    2    0  501 -0.53050676990E+00  0.41085068466E+01  0.20903719016E+01  0.46401423069E+01  0.00000000000E+00 0.  1.
<mgrwt>
<rscale>  0 0.41426158E+01</rscale>
<asrwt>0</asrwt>
<pdfrwt beam="1">0</pdfrwt>
<pdfrwt beam="2">0</pdfrwt>
<totfact> 0.41847896E+11</totfact>
</mgrwt>
</event>
<event>
 4    2  0.2027839E+006  0.3453974E+01  0.7546771E-02  0.2395650E+00
         22   -1    0    0    0    0  0.00000000000E+00  0.00000000000E+00  0.29472856849E+01  0.29472856849E+01  0.00000000000E+00 0.  1.
         22   -1    0    0    0    0 -0.00000000000E+00 -0.00000000000E+00 -0.10775000478E+02  0.10775000478E+02  0.00000000000E+00 0. -1.
          4    1    1    2  501    0  0.11484569804E+01  0.32574507503E+01  0.15074737294E+01  0.37686092755E+01  0.00000000000E+00 0.  1.
         -4    1    1    2    0  501 -0.11484569804E+01 -0.32574507503E+01 -0.93351885221E+01  0.99536768869E+01  0.00000000000E+00 0. -1.
<mgrwt>
<rscale>  0 0.34539744E+01</rscale>
<asrwt>0</asrwt>
<pdfrwt beam="1">0</pdfrwt>
<pdfrwt beam="2">0</pdfrwt>
<totfact> 0.41634986E+11</totfact>
</mgrwt>
</event>
<event>
 4    2  0.2027839E+006  0.2594951E+01  0.7546771E-02  0.2668094E+00
         22   -1    0    0    0    0  0.00000000000E+00  0.00000000000E+00  0.65661716625E+01  0.65661716625E+01  0.00000000000E+00 0. -1.
         22   -1    0    0    0    0 -0.00000000000E+00 -0.00000000000E+00 -0.29514400780E+01  0.29514400780E+01  0.00000000000E+00 0.  1.
          4    1    1    2  501    0  0.20006339180E+01  0.16526450298E+01  0.56515093366E+01  0.62187884230E+01  0.00000000000E+00 0. -1.
         -4    1    1    2    0  501 -0.20006339180E+01 -0.16526450298E+01 -0.20367777521E+01  0.32988233174E+01  0.00000000000E+00 0.  1.
<mgrwt>
<rscale>  0 0.25949512E+01</rscale>
<asrwt>0</asrwt>
<pdfrwt beam="1">0</pdfrwt>
<pdfrwt beam="2">0</pdfrwt>
<totfact> 0.75447537E+11</totfact>
</mgrwt>
</event>
<event>
 4    2  0.2027839E+006  0.3209018E+01  0.7546771E-02  0.2459988E+00
         22   -1    0    0    0    0  0.00000000000E+00  0.00000000000E+00  0.15568580566E+01  0.15568580566E+01  0.00000000000E+00 0.  1.
         22   -1    0    0    0    0 -0.00000000000E+00 -0.00000000000E+00 -0.67327167979E+01  0.67327167979E+01  0.00000000000E+00 0. -1.
          4    1    1    2  501    0 -0.30893327465E+01  0.86822828530E+00 -0.31372101386E+01  0.44877482803E+01  0.00000000000E+00 0. -1.
         -4    1    1    2    0  501  0.30893327465E+01 -0.86822828530E+00 -0.20386486028E+01  0.38018265741E+01  0.00000000000E+00 0.  1.
<mgrwt>
<rscale>  0 0.32090181E+01</rscale>
<asrwt>0</asrwt>
<pdfrwt beam="1">0</pdfrwt>
<pdfrwt beam="2">0</pdfrwt>
<totfact> 0.15371146E+12</totfact>
</mgrwt>
</event>
<event>
 4    2  0.2027839E+006  0.3036478E+01  0.7546771E-02  0.2510777E+00
         22   -1    0    0    0    0  0.00000000000E+00  0.00000000000E+00  0.39986991081E+02  0.39986991081E+02  0.00000000000E+00 0. -1.
         22   -1    0    0    0    0 -0.00000000000E+00 -0.00000000000E+00 -0.23666863904E+00  0.23666863904E+00  0.00000000000E+00 0.  1.
          4    1    1    2  501    0  0.29704192811E+01  0.62992577137E+00  0.16649310869E+02  0.16923940133E+02  0.00000000000E+00 0.  1.
         -4    1    1    2    0  501 -0.29704192811E+01 -0.62992577137E+00  0.23101011573E+02  0.23299719588E+02  0.00000000000E+00 0. -1.
<mgrwt>
<rscale>  0 0.30364778E+01</rscale>
<asrwt>0</asrwt>
<pdfrwt beam="1">0</pdfrwt>
<pdfrwt beam="2">0</pdfrwt>
<totfact> 0.14295015E+12</totfact>
</mgrwt>
</event>
<event>
 4    2  0.2027839E+006  0.3003831E+01  0.7546771E-02  0.2520971E+00
         22   -1    0    0    0    0  0.00000000000E+00  0.00000000000E+00  0.37193444293E+00  0.37193444293E+00  0.00000000000E+00 0. -1.
         22   -1    0    0    0    0 -0.00000000000E+00 -0.00000000000E+00 -0.39850699048E+02  0.39850699048E+02  0.00000000000E+00 0.  1.
          4    1    1    2  501    0 -0.23649031212E+01 -0.18520892985E+01 -0.71599766271E+01  0.77645519409E+01  0.00000000000E+00 0. -1.
         -4    1    1    2    0  501  0.23649031212E+01  0.18520892985E+01 -0.32318787978E+02  0.32458081550E+02  0.00000000000E+00 0.  1.
<mgrwt>
<rscale>  0 0.30038311E+01</rscale>
<asrwt>0</asrwt>
<pdfrwt beam="1">0</pdfrwt>
<pdfrwt beam="2">0</pdfrwt>
<totfact> 0.86498116E+11</totfact>
</mgrwt>
</event>
<event>
 4    2  0.2027839E+006  0.2518143E+01  0.7546771E-02  0.2700585E+00
         22   -1    0    0    0    0  0.00000000000E+00  0.00000000000E+00  0.48857657418E+01  0.48857657418E+01  0.00000000000E+00 0.  1.
         22   -1    0    0    0    0 -0.00000000000E+00 -0.00000000000E+00 -0.28203281171E+01  0.28203281171E+01  0.00000000000E+00 0. -1.
          4    1    1    2  501    0  0.20457060489E+01  0.14683771671E+01  0.38636443278E+01  0.46118100822E+01  0.00000000000E+00 0.  1.
         -4    1    1    2    0  501 -0.20457060489E+01 -0.14683771671E+01 -0.17982067031E+01  0.30942837766E+01  0.00000000000E+00 0. -1.
<mgrwt>
<rscale>  0 0.25181431E+01</rscale>
<asrwt>0</asrwt>
<pdfrwt beam="1">0</pdfrwt>
<pdfrwt beam="2">0</pdfrwt>
<totfact> 0.11304128E+12</totfact>
</mgrwt>
</event>
<event>
 4    2  0.2027839E+006  0.2912262E+01  0.7546771E-02  0.2550655E+00
         22   -1    0    0    0    0  0.00000000000E+00  0.00000000000E+00  0.33120855351E+00  0.33120855351E+00  0.00000000000E+00 0. -1.
         22   -1    0    0    0    0 -0.00000000000E+00 -0.00000000000E+00 -0.47660866551E+02  0.47660866551E+02  0.00000000000E+00 0.  1.
          4    1    1    2  501    0 -0.19038691425E+01 -0.22037588645E+01 -0.73418080446E+01  0.78983173023E+01  0.00000000000E+00 0. -1.
         -4    1    1    2    0  501  0.19038691425E+01  0.22037588645E+01 -0.39987849953E+02  0.40093757803E+02  0.00000000000E+00 0.  1.
<mgrwt>
<rscale>  0 0.29122622E+01</rscale>
<asrwt>0</asrwt>
<pdfrwt beam="1">0</pdfrwt>
<pdfrwt beam="2">0</pdfrwt>
<totfact> 0.78002905E+11</totfact>
</mgrwt>
</event>
<event>
 4    2  0.2027839E+006  0.2062722E+01  0.7546771E-02  0.2939636E+00
         22   -1    0    0    0    0  0.00000000000E+00  0.00000000000E+00  0.88254898287E+00  0.88254898287E+00  0.00000000000E+00 0. -1.
         22   -1    0    0    0    0 -0.00000000000E+00 -0.00000000000E+00 -0.56591682001E+01  0.56591682001E+01  0.00000000000E+00 0.  1.
          4    1    1    2  501    0 -0.13627177920E+01  0.15484906498E+01 -0.11295723719E+01  0.23517561133E+01  0.00000000000E+00 0. -1.
         -4    1    1    2    0  501  0.13627177920E+01 -0.15484906498E+01 -0.36470468453E+01  0.41899610696E+01  0.00000000000E+00 0.  1.
<mgrwt>
<rscale>  0 0.20627222E+01</rscale>
<asrwt>0</asrwt>
<pdfrwt beam="1">0</pdfrwt>
<pdfrwt beam="2">0</pdfrwt>
<totfact> 0.36213935E+12</totfact>
</mgrwt>
</event>
<event>
 4    2  0.2027839E+006  0.4319704E+01  0.7546771E-02  0.2220053E+00
         22   -1    0    0    0    0  0.00000000000E+00  0.00000000000E+00  0.12865688428E+02  0.12865688428E+02  0.00000000000E+00 0.  1.
         22   -1    0    0    0    0 -0.00000000000E+00 -0.00000000000E+00 -0.20851783273E+01  0.20851783273E+01  0.00000000000E+00 0. -1.
          4    1    1    2  501    0  0.32593197276E+01  0.28349028906E+01  0.95149380430E+01  0.10449587812E+02  0.00000000000E+00 0. -1.
         -4    1    1    2    0  501 -0.32593197276E+01 -0.28349028906E+01  0.12655720573E+01  0.45012789425E+01  0.00000000000E+00 0.  1.
<mgrwt>
<rscale>  0 0.43197036E+01</rscale>
<asrwt>0</asrwt>
<pdfrwt beam="1">0</pdfrwt>
<pdfrwt beam="2">0</pdfrwt>
<totfact> 0.50164379E+11</totfact>
</mgrwt>
</event>
<event>
 4    2  0.2027839E+006  0.3928267E+01  0.7546771E-02  0.2291220E+00
         22   -1    0    0    0    0  0.00000000000E+00  0.00000000000E+00  0.11385161570E+02  0.11385161570E+02  0.00000000000E+00 0.  1.
         22   -1    0    0    0    0 -0.00000000000E+00 -0.00000000000E+00 -0.16551028526E+01  0.16551028526E+01  0.00000000000E+00 0. -1.
          4    1    1    2  501    0  0.24971431363E+01 -0.30324176826E+01  0.76396268141E+01  0.85904120217E+01  0.00000000000E+00 0.  1.
         -4    1    1    2    0  501 -0.24971431363E+01  0.30324176826E+01  0.20904319029E+01  0.44498524005E+01  0.00000000000E+00 0. -1.
<mgrwt>
<rscale>  0 0.39282669E+01</rscale>
<asrwt>0</asrwt>
<pdfrwt beam="1">0</pdfrwt>
<pdfrwt beam="2">0</pdfrwt>
<totfact> 0.76048390E+11</totfact>
</mgrwt>
</event>
<event>
 4    2  0.2027839E+006  0.2124910E+01  0.7546771E-02  0.2901228E+00
         22   -1    0    0    0    0  0.00000000000E+00  0.00000000000E+00  0.30109394817E+01  0.30109394817E+01  0.00000000000E+00 0. -1.
         22   -1    0    0    0    0 -0.00000000000E+00 -0.00000000000E+00 -0.16801207698E+01  0.16801207698E+01  0.00000000000E+00 0.  1.
          4    1    1    2  501    0 -0.15915355512E+01 -0.14079268859E+01  0.14342191370E+01  0.25636357112E+01  0.00000000000E+00 0. -1.
         -4    1    1    2    0  501  0.15915355512E+01  0.14079268859E+01 -0.10340042506E+00  0.21274245403E+01  0.00000000000E+00 0.  1.
<mgrwt>
<rscale>  0 0.21249102E+01</rscale>
<asrwt>0</asrwt>
<pdfrwt beam="1">0</pdfrwt>
<pdfrwt beam="2">0</pdfrwt>
<totfact> 0.36410600E+12</totfact>
</mgrwt>
</event>
<event>
 4    2  0.2027839E+006  0.3429569E+01  0.7546771E-02  0.2401697E+00
         22   -1    0    0    0    0  0.00000000000E+00  0.00000000000E+00  0.23643242601E+02  0.23643242601E+02  0.00000000000E+00 0.  1.
         22   -1    0    0    0    0 -0.00000000000E+00 -0.00000000000E+00 -0.49748324299E+00  0.49748324299E+00  0.00000000000E+00 0. -1.
          4    1    1    2  501    0 -0.20269355754E+01  0.27664920156E+01  0.11526842454E+02  0.12026223133E+02  0.00000000000E+00 0. -1.
         -4    1    1    2    0  501  0.20269355754E+01 -0.27664920156E+01  0.11618916904E+02  0.12114502711E+02  0.00000000000E+00 0.  1.
<mgrwt>
<rscale>  0 0.34295693E+01</rscale>
<asrwt>0</asrwt>
<pdfrwt beam="1">0</pdfrwt>
<pdfrwt beam="2">0</pdfrwt>
<totfact> 0.12137409E+12</totfact>
</mgrwt>
</event>
<event>
 4    2  0.2027839E+006  0.2100204E+01  0.7546771E-02  0.2916223E+00
         22   -1    0    0    0    0  0.00000000000E+00  0.00000000000E+00  0.60876862963E+00  0.60876862963E+00  0.00000000000E+00 0. -1.
         22   -1    0    0    0    0 -0.00000000000E+00 -0.00000000000E+00 -0.36781366092E+02  0.36781366092E+02  0.00000000000E+00 0.  1.
          4    1    1    2  501    0  0.20436696113E+01 -0.48401692116E+00 -0.13334887356E+01  0.24877801486E+01  0.00000000000E+00 0. -1.
         -4    1    1    2    0  501 -0.20436696113E+01  0.48401692116E+00 -0.34839108727E+02  0.34902354573E+02  0.00000000000E+00 0.  1.
<mgrwt>
<rscale>  0 0.21002042E+01</rscale>
<asrwt>0</asrwt>
<pdfrwt beam="1">0</pdfrwt>
<pdfrwt beam="2">0</pdfrwt>
<totfact> 0.55020994E+11</totfact>
</mgrwt>
</event>
<event>
 4    2  0.2027839E+006  0.2046091E+01  0.7546771E-02  0.2950292E+00
         22   -1    0    0    0    0  0.00000000000E+00  0.00000000000E+00  0.22168109310E+00  0.22168109310E+00  0.00000000000E+00 0.  1.
         22   -1    0    0    0    0 -0.00000000000E+00 -0.00000000000E+00 -0.39563378783E+02  0.39563378783E+02  0.00000000000E+00 0. -1.
          4    1    1    2  501    0  0.10749280749E+01 -0.17409821905E+01 -0.52895009868E+01  0.56714469091E+01  0.00000000000E+00 0.  1.
         -4    1    1    2    0  501 -0.10749280749E+01  0.17409821905E+01 -0.34052196703E+02  0.34113612967E+02  0.00000000000E+00 0. -1.
<mgrwt>
<rscale>  0 0.20460912E+01</rscale>
<asrwt>0</asrwt>
<pdfrwt beam="1">0</pdfrwt>
<pdfrwt beam="2">0</pdfrwt>
<totfact> 0.15591141E+12</totfact>
</mgrwt>
</event>
<event>
 4    2  0.2027839E+006  0.1749751E+02  0.7546771E-02  0.1574697E+00
         22   -1    0    0    0    0  0.00000000000E+00  0.00000000000E+00  0.48379132016E+02  0.48379132016E+02  0.00000000000E+00 0.  1.
         22   -1    0    0    0    0 -0.00000000000E+00 -0.00000000000E+00 -0.73840214064E+01  0.73840214064E+01  0.00000000000E+00 0. -1.
          4    1    1    2  501    0 -0.89102549152E+01  0.15058896135E+02  0.31039551125E+02  0.35631681541E+02  0.00000000000E+00 0.  1.
         -4    1    1    2    0  501  0.89102549152E+01 -0.15058896135E+02  0.99555594854E+01  0.20131471881E+02  0.00000000000E+00 0. -1.
<mgrwt>
<rscale>  0 0.17497514E+02</rscale>
<asrwt>0</asrwt>
<pdfrwt beam="1">0</pdfrwt>
<pdfrwt beam="2">0</pdfrwt>
<totfact> 0.21238481E+10</totfact>
</mgrwt>
</event>
<event>
 4    2  0.2027839E+006  0.7782598E+01  0.7546771E-02  0.1889092E+00
         22   -1    0    0    0    0  0.00000000000E+00  0.00000000000E+00  0.13511993958E+02  0.13511993958E+02  0.00000000000E+00 0. -1.
         22   -1    0    0    0    0 -0.00000000000E+00 -0.00000000000E+00 -0.60248174319E+01  0.60248174319E+01  0.00000000000E+00 0.  1.
          4    1    1    2  501    0  0.23206081401E+01  0.74285667326E+01  0.86858409393E+01  0.11662446513E+02  0.00000000000E+00 0. -1.
         -4    1    1    2    0  501 -0.23206081401E+01 -0.74285667326E+01 -0.11986644133E+01  0.78743648770E+01  0.00000000000E+00 0.  1.
<mgrwt>
<rscale>  0 0.77825976E+01</rscale>
<asrwt>0</asrwt>
<pdfrwt beam="1">0</pdfrwt>
<pdfrwt beam="2">0</pdfrwt>
<totfact> 0.13601228E+11</totfact>
</mgrwt>
</event>
<event>
 4    2  0.2027839E+006  0.2258567E+01  0.7546771E-02  0.2825596E+00
         22   -1    0    0    0    0  0.00000000000E+00  0.00000000000E+00  0.10194818118E+02  0.10194818118E+02  0.00000000000E+00 0.  1.
         22   -1    0    0    0    0 -0.00000000000E+00 -0.00000000000E+00 -0.11150794283E+01  0.11150794283E+01  0.00000000000E+00 0. -1.
          4    1    1    2  501    0  0.11730849677E+01 -0.19300249564E+01  0.87385482871E+01  0.90257050051E+01  0.00000000000E+00 0.  1.
         -4    1    1    2    0  501 -0.11730849677E+01  0.19300249564E+01  0.34119040254E+00  0.22841925410E+01  0.00000000000E+00 0. -1.
<mgrwt>
<rscale>  0 0.22585670E+01</rscale>
<asrwt>0</asrwt>
<pdfrwt beam="1">0</pdfrwt>
<pdfrwt beam="2">0</pdfrwt>
<totfact> 0.13686188E+12</totfact>
</mgrwt>
</event>
<event>
 4    2  0.2027839E+006  0.2205085E+01  0.7546771E-02  0.2854805E+00
         22   -1    0    0    0    0  0.00000000000E+00  0.00000000000E+00  0.58451590453E+01  0.58451590453E+01  0.00000000000E+00 0. -1.
         22   -1    0    0    0    0 -0.00000000000E+00 -0.00000000000E+00 -0.10014313590E+01  0.10014313590E+01  0.00000000000E+00 0.  1.
          4    1    1    2  501    0  0.21125611965E+01  0.63204697698E+00  0.38305048524E+01  0.44198603614E+01  0.00000000000E+00 0. -1.
         -4    1    1    2    0  501 -0.21125611965E+01 -0.63204697698E+00  0.10132228339E+01  0.24267300430E+01  0.00000000000E+00 0.  1.
<mgrwt>
<rscale>  0 0.22050846E+01</rscale>
<asrwt>0</asrwt>
<pdfrwt beam="1">0</pdfrwt>
<pdfrwt beam="2">0</pdfrwt>
<totfact> 0.30170953E+12</totfact>
</mgrwt>
</event>
<event>
 4    2  0.2027839E+006  0.4517426E+01  0.7546771E-02  0.2188103E+00
         22   -1    0    0    0    0  0.00000000000E+00  0.00000000000E+00  0.27577277936E+02  0.27577277936E+02  0.00000000000E+00 0. -1.
         22   -1    0    0    0    0 -0.00000000000E+00 -0.00000000000E+00 -0.13295919912E+01  0.13295919912E+01  0.00000000000E+00 0.  1.
          4    1    1    2  501    0 -0.80222796915E+00  0.44456237664E+01  0.22748566651E+02  0.23192766654E+02  0.00000000000E+00 0. -1.
         -4    1    1    2    0  501  0.80222796915E+00 -0.44456237664E+01  0.34991192943E+01  0.57141032737E+01  0.00000000000E+00 0.  1.
<mgrwt>
<rscale>  0 0.45174263E+01</rscale>
<asrwt>0</asrwt>
<pdfrwt beam="1">0</pdfrwt>
<pdfrwt beam="2">0</pdfrwt>
<totfact> 0.32643990E+11</totfact>
</mgrwt>
</event>
<event>
 4    2  0.2027839E+006  0.3229185E+01  0.7546771E-02  0.2454367E+00
         22   -1    0    0    0    0  0.00000000000E+00  0.00000000000E+00  0.35035670446E+01  0.35035670446E+01  0.00000000000E+00 0. -1.
         22   -1    0    0    0    0 -0.00000000000E+00 -0.00000000000E+00 -0.58295266974E+01  0.58295266974E+01  0.00000000000E+00 0.  1.
          4    1    1    2  501    0  0.94052090610E+00 -0.30891842541E+01  0.21017535932E+01  0.38529218908E+01  0.00000000000E+00 0. -1.
         -4    1    1    2    0  501 -0.94052090610E+00  0.30891842541E+01 -0.44277132459E+01  0.54801718512E+01  0.00000000000E+00 0.  1.
<mgrwt>
<rscale>  0 0.32291855E+01</rscale>
<asrwt>0</asrwt>
<pdfrwt beam="1">0</pdfrwt>
<pdfrwt beam="2">0</pdfrwt>
<totfact> 0.71134098E+11</totfact>
</mgrwt>
</event>
<event>
 4    2  0.2027839E+006  0.4842448E+01  0.7546771E-02  0.2142293E+00
         22   -1    0    0    0    0  0.00000000000E+00  0.00000000000E+00  0.34274420094E+02  0.34274420094E+02  0.00000000000E+00 0.  1.
         22   -1    0    0    0    0 -0.00000000000E+00 -0.00000000000E+00 -0.12465819330E+01  0.12465819330E+01  0.00000000000E+00 0. -1.
          4    1    1    2  501    0 -0.47215546161E+01  0.10752785754E+01  0.28443484698E+02  0.28852748981E+02  0.00000000000E+00 0.  1.
         -4    1    1    2    0  501  0.47215546161E+01 -0.10752785754E+01  0.45843534629E+01  0.66682530456E+01  0.00000000000E+00 0. -1.
<mgrwt>
<rscale>  0 0.48424479E+01</rscale>
<asrwt>0</asrwt>
<pdfrwt beam="1">0</pdfrwt>
<pdfrwt beam="2">0</pdfrwt>
<totfact> 0.26632577E+11</totfact>
</mgrwt>
</event>
<event>
 4    2  0.2027839E+006  0.3597190E+01  0.7546771E-02  0.2361610E+00
         22   -1    0    0    0    0  0.00000000000E+00  0.00000000000E+00  0.16733380764E+03  0.16733380764E+03  0.00000000000E+00 0.  1.
         22   -1    0    0    0    0 -0.00000000000E+00 -0.00000000000E+00 -0.88061835430E-01  0.88061835430E-01  0.00000000000E+00 0. -1.
          4    1    1    2  501    0  0.20877335215E+01 -0.29293592212E+01  0.11284710161E+03  0.11290442028E+03  0.00000000000E+00 0.  1.
         -4    1    1    2    0  501 -0.20877335215E+01  0.29293592212E+01  0.54398644190E+02  0.54517449192E+02  0.00000000000E+00 0. -1.
<mgrwt>
<rscale>  0 0.35971901E+01</rscale>
<asrwt>0</asrwt>
<pdfrwt beam="1">0</pdfrwt>
<pdfrwt beam="2">0</pdfrwt>
<totfact> 0.58966163E+11</totfact>
</mgrwt>
</event>
<event>
 4    2  0.2027839E+006  0.2042673E+01  0.7546771E-02  0.2952503E+00
         22   -1    0    0    0    0  0.00000000000E+00  0.00000000000E+00  0.18662684840E+00  0.18662684840E+00  0.00000000000E+00 0. -1.
         22   -1    0    0    0    0 -0.00000000000E+00 -0.00000000000E+00 -0.24939894506E+02  0.24939894506E+02  0.00000000000E+00 0.  1.
          4    1    1    2  501    0  0.20375136287E+01  0.14508571574E+00 -0.83339897353E+01  0.85806699365E+01  0.00000000000E+00 0. -1.
         -4    1    1    2    0  501 -0.20375136287E+01 -0.14508571574E+00 -0.16419277923E+02  0.16545851418E+02  0.00000000000E+00 0.  1.
<mgrwt>
<rscale>  0 0.20426727E+01</rscale>
<asrwt>0</asrwt>
<pdfrwt beam="1">0</pdfrwt>
<pdfrwt beam="2">0</pdfrwt>
<totfact> 0.34076684E+12</totfact>
</mgrwt>
</event>
<event>
 4    2  0.2027839E+006  0.2117411E+01  0.7546771E-02  0.2905744E+00
         22   -1    0    0    0    0  0.00000000000E+00  0.00000000000E+00  0.58242109954E+01  0.58242109954E+01  0.00000000000E+00 0.  1.
         22   -1    0    0    0    0 -0.00000000000E+00 -0.00000000000E+00 -0.12455725745E+01  0.12455725745E+01  0.00000000000E+00 0. -1.
          4    1    1    2  501    0 -0.19085108180E+01 -0.91706823758E+00  0.44740363666E+01  0.49497908142E+01  0.00000000000E+00 0.  1.
         -4    1    1    2    0  501  0.19085108180E+01  0.91706823758E+00  0.10460205425E+00  0.21199927557E+01  0.00000000000E+00 0. -1.
<mgrwt>
<rscale>  0 0.21174106E+01</rscale>
<asrwt>0</asrwt>
<pdfrwt beam="1">0</pdfrwt>
<pdfrwt beam="2">0</pdfrwt>
<totfact> 0.23605914E+12</totfact>
</mgrwt>
</event>
<event>
 4    2  0.2027839E+006  0.2245255E+01  0.7546771E-02  0.2832742E+00
         22   -1    0    0    0    0  0.00000000000E+00  0.00000000000E+00  0.51402948555E+01  0.51402948555E+01  0.00000000000E+00 0. -1.
         22   -1    0    0    0    0 -0.00000000000E+00 -0.00000000000E+00 -0.13658807805E+01  0.13658807805E+01  0.00000000000E+00 0.  1.
          4    1    1    2  501    0 -0.20733164081E+01  0.86170030136E+00  0.15972797608E+00  0.22509290002E+01  0.00000000000E+00 0.  1.
         -4    1    1    2    0  501  0.20733164081E+01 -0.86170030136E+00  0.36146860990E+01  0.42552466358E+01  0.00000000000E+00 0. -1.
<mgrwt>
<rscale>  0 0.22452546E+01</rscale>
<asrwt>0</asrwt>
<pdfrwt beam="1">0</pdfrwt>
<pdfrwt beam="2">0</pdfrwt>
<totfact> 0.24630974E+12</totfact>
</mgrwt>
</event>
<event>
 4    2  0.2027839E+006  0.2385653E+01  0.7546771E-02  0.2761194E+00
         22   -1    0    0    0    0  0.00000000000E+00  0.00000000000E+00  0.52985542872E+00  0.52985542872E+00  0.00000000000E+00 0.  1.
         22   -1    0    0    0    0 -0.00000000000E+00 -0.00000000000E+00 -0.10751914446E+02  0.10751914446E+02  0.00000000000E+00 0. -1.
          4    1    1    2  501    0  0.23174068019E+01 -0.56653837603E+00 -0.49338545457E+01  0.54803522419E+01  0.00000000000E+00 0.  1.
         -4    1    1    2    0  501 -0.23174068019E+01  0.56653837603E+00 -0.52882044715E+01  0.58014176328E+01  0.00000000000E+00 0. -1.
<mgrwt>
<rscale>  0 0.23856530E+01</rscale>
<asrwt>0</asrwt>
<pdfrwt beam="1">0</pdfrwt>
<pdfrwt beam="2">0</pdfrwt>
<totfact> 0.29900071E+12</totfact>
</mgrwt>
</event>
<event>
 4    2  0.2027839E+006  0.2009958E+01  0.7546771E-02  0.2974037E+00
         22   -1    0    0    0    0  0.00000000000E+00  0.00000000000E+00  0.64020185458E+01  0.64020185458E+01  0.00000000000E+00 0. -1.
         22   -1    0    0    0    0 -0.00000000000E+00 -0.00000000000E+00 -0.91317813376E+00  0.91317813376E+00  0.00000000000E+00 0.  1.
          4    1    1    2  501    0 -0.20088415058E+01  0.66985416881E-01  0.47774745104E+01  0.51830680044E+01  0.00000000000E+00 0. -1.
         -4    1    1    2    0  501  0.20088415058E+01 -0.66985416881E-01  0.71136590169E+00  0.21321286752E+01  0.00000000000E+00 0.  1.
<mgrwt>
<rscale>  0 0.20099580E+01</rscale>
<asrwt>0</asrwt>
<pdfrwt beam="1">0</pdfrwt>
<pdfrwt beam="2">0</pdfrwt>
<totfact> 0.30075287E+12</totfact>
</mgrwt>
</event>
<event>
 4    2  0.2027839E+006  0.2082401E+01  0.7546771E-02  0.2927241E+00
         22   -1    0    0    0    0  0.00000000000E+00  0.00000000000E+00  0.23188574629E+02  0.23188574629E+02  0.00000000000E+00 0.  1.
         22   -1    0    0    0    0 -0.00000000000E+00 -0.00000000000E+00 -0.38578862292E+00  0.38578862292E+00  0.00000000000E+00 0. -1.
          4    1    1    2  501    0 -0.20784151275E+01 -0.12878522482E+00  0.19862454075E+02  0.19971316355E+02  0.00000000000E+00 0.  1.
         -4    1    1    2    0  501  0.20784151275E+01  0.12878522482E+00  0.29403319317E+01  0.36030468974E+01  0.00000000000E+00 0. -1.
<mgrwt>
<rscale>  0 0.20824013E+01</rscale>
<asrwt>0</asrwt>
<pdfrwt beam="1">0</pdfrwt>
<pdfrwt beam="2">0</pdfrwt>
<totfact> 0.16563110E+12</totfact>
</mgrwt>
</event>
<event>
 4    2  0.2027839E+006  0.2177415E+01  0.7546771E-02  0.2870454E+00
         22   -1    0    0    0    0  0.00000000000E+00  0.00000000000E+00  0.25959354831E+01  0.25959354831E+01  0.00000000000E+00 0. -1.
         22   -1    0    0    0    0 -0.00000000000E+00 -0.00000000000E+00 -0.28484088459E+01  0.28484088459E+01  0.00000000000E+00 0.  1.
          4    1    1    2  501    0 -0.77490765536E+00 -0.20348600290E+01  0.15043663605E+01  0.26465553761E+01  0.00000000000E+00 0. -1.
         -4    1    1    2    0  501  0.77490765536E+00  0.20348600290E+01 -0.17568397232E+01  0.27977889529E+01  0.00000000000E+00 0.  1.
<mgrwt>
<rscale>  0 0.21774153E+01</rscale>
<asrwt>0</asrwt>
<pdfrwt beam="1">0</pdfrwt>
<pdfrwt beam="2">0</pdfrwt>
<totfact> 0.23466520E+12</totfact>
</mgrwt>
</event>
<event>
 4    2  0.2027839E+006  0.2970936E+01  0.7546771E-02  0.2531445E+00
         22   -1    0    0    0    0  0.00000000000E+00  0.00000000000E+00  0.44125976598E+01  0.44125976598E+01  0.00000000000E+00 0. -1.
         22   -1    0    0    0    0 -0.00000000000E+00 -0.00000000000E+00 -0.30030178052E+01  0.30030178052E+01  0.00000000000E+00 0.  1.
          4    1    1    2  501    0  0.78161850833E+00 -0.28662747089E+01  0.28473381448E+01  0.41150689800E+01  0.00000000000E+00 0. -1.
         -4    1    1    2    0  501 -0.78161850833E+00  0.28662747089E+01 -0.14377582901E+01  0.33005464851E+01  0.00000000000E+00 0.  1.
<mgrwt>
<rscale>  0 0.29709356E+01</rscale>
<asrwt>0</asrwt>
<pdfrwt beam="1">0</pdfrwt>
<pdfrwt beam="2">0</pdfrwt>
<totfact> 0.11849361E+12</totfact>
</mgrwt>
</event>
<event>
 4    2  0.2027839E+006  0.3356353E+01  0.7546771E-02  0.2420300E+00
         22   -1    0    0    0    0  0.00000000000E+00  0.00000000000E+00  0.15785403764E+02  0.15785403764E+02  0.00000000000E+00 0. -1.
         22   -1    0    0    0    0 -0.00000000000E+00 -0.00000000000E+00 -0.61129387627E+01  0.61129387627E+01  0.00000000000E+00 0.  1.
          4    1    1    2  501    0 -0.21265657996E+01 -0.25966951280E+01  0.15126457597E+02  0.15494348232E+02  0.00000000000E+00 0. -1.
         -4    1    1    2    0  501  0.21265657996E+01  0.25966951280E+01 -0.54539925962E+01  0.64039942947E+01  0.00000000000E+00 0.  1.
<mgrwt>
<rscale>  0 0.33563533E+01</rscale>
<asrwt>0</asrwt>
<pdfrwt beam="1">0</pdfrwt>
<pdfrwt beam="2">0</pdfrwt>
<totfact> 0.11042056E+11</totfact>
</mgrwt>
</event>
<event>
 4    2  0.2027839E+006  0.2930773E+01  0.7546771E-02  0.2544520E+00
         22   -1    0    0    0    0  0.00000000000E+00  0.00000000000E+00  0.31873275845E+02  0.31873275845E+02  0.00000000000E+00 0.  1.
         22   -1    0    0    0    0 -0.00000000000E+00 -0.00000000000E+00 -0.45538034400E+00  0.45538034400E+00  0.00000000000E+00 0. -1.
          4    1    1    2  501    0 -0.29002897029E+01  0.42160106423E+00  0.26036624689E+02  0.26201054426E+02  0.00000000000E+00 0.  1.
         -4    1    1    2    0  501  0.29002897029E+01 -0.42160106423E+00  0.53812708117E+01  0.61276017631E+01  0.00000000000E+00 0. -1.
<mgrwt>
<rscale>  0 0.29307726E+01</rscale>
<asrwt>0</asrwt>
<pdfrwt beam="1">0</pdfrwt>
<pdfrwt beam="2">0</pdfrwt>
<totfact> 0.91826861E+11</totfact>
</mgrwt>
</event>
<event>
 4    2  0.2027839E+006  0.2514600E+01  0.7546771E-02  0.2702128E+00
         22   -1    0    0    0    0  0.00000000000E+00  0.00000000000E+00  0.58854820848E+01  0.58854820848E+01  0.00000000000E+00 0.  1.
         22   -1    0    0    0    0 -0.00000000000E+00 -0.00000000000E+00 -0.11509862299E+01  0.11509862299E+01  0.00000000000E+00 0. -1.
          4    1    1    2  501    0  0.14040805095E+01 -0.20860900389E+01  0.14595602959E+01  0.29074954832E+01  0.00000000000E+00 0. -1.
         -4    1    1    2    0  501 -0.14040805095E+01  0.20860900389E+01  0.32749355589E+01  0.41289728314E+01  0.00000000000E+00 0.  1.
<mgrwt>
<rscale>  0 0.25146001E+01</rscale>
<asrwt>0</asrwt>
<pdfrwt beam="1">0</pdfrwt>
<pdfrwt beam="2">0</pdfrwt>
<totfact> 0.25523267E+12</totfact>
</mgrwt>
</event>
<event>
 4    2  0.2027839E+006  0.2098393E+01  0.7546771E-02  0.2917335E+00
         22   -1    0    0    0    0  0.00000000000E+00  0.00000000000E+00  0.11007074438E+02  0.11007074438E+02  0.00000000000E+00 0.  1.
         22   -1    0    0    0    0 -0.00000000000E+00 -0.00000000000E+00 -0.43656920417E+00  0.43656920417E+00  0.00000000000E+00 0. -1.
          4    1    1    2  501    0 -0.19038698064E+01 -0.88234544146E+00  0.69404001509E+01  0.72506832762E+01  0.00000000000E+00 0.  1.
         -4    1    1    2    0  501  0.19038698064E+01  0.88234544146E+00  0.36301050835E+01  0.41929603664E+01  0.00000000000E+00 0. -1.
<mgrwt>
<rscale>  0 0.20983931E+01</rscale>
<asrwt>0</asrwt>
<pdfrwt beam="1">0</pdfrwt>
<pdfrwt beam="2">0</pdfrwt>
<totfact> 0.36157292E+12</totfact>
</mgrwt>
</event>
<event>
 4    2  0.2027839E+006  0.2922765E+01  0.7546771E-02  0.2547165E+00
         22   -1    0    0    0    0  0.00000000000E+00  0.00000000000E+00  0.15876123228E+01  0.15876123228E+01  0.00000000000E+00 0.  1.
         22   -1    0    0    0    0 -0.00000000000E+00 -0.00000000000E+00 -0.12120351996E+02  0.12120351996E+02  0.00000000000E+00 0. -1.
          4    1    1    2  501    0 -0.73901825286E+00 -0.28277921992E+01 -0.15541267214E+00  0.29268942241E+01  0.00000000000E+00 0.  1.
         -4    1    1    2    0  501  0.73901825286E+00  0.28277921992E+01 -0.10377327002E+02  0.10781070095E+02  0.00000000000E+00 0. -1.
<mgrwt>
<rscale>  0 0.29227652E+01</rscale>
<asrwt>0</asrwt>
<pdfrwt beam="1">0</pdfrwt>
<pdfrwt beam="2">0</pdfrwt>
<totfact> 0.73928736E+11</totfact>
</mgrwt>
</event>
<event>
 4    2  0.2027839E+006  0.3679638E+01  0.7546771E-02  0.2343062E+00
         22   -1    0    0    0    0  0.00000000000E+00  0.00000000000E+00  0.15426898178E+01  0.15426898178E+01  0.00000000000E+00 0.  1.
         22   -1    0    0    0    0 -0.00000000000E+00 -0.00000000000E+00 -0.88341387460E+01  0.88341387460E+01  0.00000000000E+00 0. -1.
          4    1    1    2  501    0 -0.36310134544E+01 -0.59621789728E+00 -0.40640684571E+01  0.54823705558E+01  0.00000000000E+00 0.  1.
         -4    1    1    2    0  501  0.36310134544E+01  0.59621789728E+00 -0.32273804712E+01  0.48944580081E+01  0.00000000000E+00 0. -1.
<mgrwt>
<rscale>  0 0.36796378E+01</rscale>
<asrwt>0</asrwt>
<pdfrwt beam="1">0</pdfrwt>
<pdfrwt beam="2">0</pdfrwt>
<totfact> 0.11212733E+12</totfact>
</mgrwt>
</event>
<event>
 4    2  0.2027839E+006  0.2032975E+01  0.7546771E-02  0.2958816E+00
         22   -1    0    0    0    0  0.00000000000E+00  0.00000000000E+00  0.21729892911E+00  0.21729892911E+00  0.00000000000E+00 0.  1.
         22   -1    0    0    0    0 -0.00000000000E+00 -0.00000000000E+00 -0.26370859036E+02  0.26370859036E+02  0.00000000000E+00 0. -1.
          4    1    1    2  501    0  0.12795645579E+01  0.15797792754E+01 -0.60578603067E+01  0.63898872848E+01  0.00000000000E+00 0.  1.
         -4    1    1    2    0  501 -0.12795645579E+01 -0.15797792754E+01 -0.20095699801E+02  0.20198270681E+02  0.00000000000E+00 0. -1.
<mgrwt>
<rscale>  0 0.20329752E+01</rscale>
<asrwt>0</asrwt>
<pdfrwt beam="1">0</pdfrwt>
<pdfrwt beam="2">0</pdfrwt>
<totfact> 0.26799335E+12</totfact>
</mgrwt>
</event>
<event>
 4    2  0.2027839E+006  0.2395894E+01  0.7546771E-02  0.2756285E+00
         22   -1    0    0    0    0  0.00000000000E+00  0.00000000000E+00  0.19341236342E+01  0.19341236342E+01  0.00000000000E+00 0. -1.
         22   -1    0    0    0    0 -0.00000000000E+00 -0.00000000000E+00 -0.46973784691E+01  0.46973784691E+01  0.00000000000E+00 0.  1.
          4    1    1    2  501    0 -0.23953679780E+01  0.50220621545E-01  0.63028995293E+00  0.24774130228E+01  0.00000000000E+00 0. -1.
         -4    1    1    2    0  501  0.23953679780E+01 -0.50220621545E-01 -0.33935447879E+01  0.41540890805E+01  0.00000000000E+00 0.  1.
<mgrwt>
<rscale>  0 0.23958944E+01</rscale>
<asrwt>0</asrwt>
<pdfrwt beam="1">0</pdfrwt>
<pdfrwt beam="2">0</pdfrwt>
<totfact> 0.18352259E+12</totfact>
</mgrwt>
</event>
<event>
 4    2  0.2027839E+006  0.4457092E+01  0.7546771E-02  0.2197600E+00
         22   -1    0    0    0    0  0.00000000000E+00  0.00000000000E+00  0.10894725860E+02  0.10894725860E+02  0.00000000000E+00 0. -1.
         22   -1    0    0    0    0 -0.00000000000E+00 -0.00000000000E+00 -0.34848836395E+01  0.34848836395E+01  0.00000000000E+00 0.  1.
          4    1    1    2  501    0 -0.41695002271E+01  0.15750999518E+01  0.86693380048E+01  0.97479789414E+01  0.00000000000E+00 0. -1.
         -4    1    1    2    0  501  0.41695002271E+01 -0.15750999518E+01 -0.12594957838E+01  0.46316305586E+01  0.00000000000E+00 0.  1.
<mgrwt>
<rscale>  0 0.44570923E+01</rscale>
<asrwt>0</asrwt>
<pdfrwt beam="1">0</pdfrwt>
<pdfrwt beam="2">0</pdfrwt>
<totfact> 0.33766676E+11</totfact>
</mgrwt>
</event>
<event>
 4    2  0.2027839E+006  0.2327105E+01  0.7546771E-02  0.2790036E+00
         22   -1    0    0    0    0  0.00000000000E+00  0.00000000000E+00  0.34379778206E+02  0.34379778206E+02  0.00000000000E+00 0.  1.
         22   -1    0    0    0    0 -0.00000000000E+00 -0.00000000000E+00 -0.15856326428E+00  0.15856326428E+00  0.00000000000E+00 0. -1.
          4    1    1    2  501    0 -0.22689698289E+01  0.51690926499E+00  0.18513006621E+02  0.18658693240E+02  0.00000000000E+00 0.  1.
         -4    1    1    2    0  501  0.22689698289E+01 -0.51690926499E+00  0.15708208321E+02  0.15879648230E+02  0.00000000000E+00 0. -1.
<mgrwt>
<rscale>  0 0.23271053E+01</rscale>
<asrwt>0</asrwt>
<pdfrwt beam="1">0</pdfrwt>
<pdfrwt beam="2">0</pdfrwt>
<totfact> 0.27155810E+12</totfact>
</mgrwt>
</event>
<event>
 4    2  0.2027839E+006  0.3548736E+01  0.7546771E-02  0.2372859E+00
         22   -1    0    0    0    0  0.00000000000E+00  0.00000000000E+00  0.63195881163E+02  0.63195881163E+02  0.00000000000E+00 0. -1.
         22   -1    0    0    0    0 -0.00000000000E+00 -0.00000000000E+00 -0.15610690175E+01  0.15610690175E+01  0.00000000000E+00 0.  1.
          4    1    1    2  501    0 -0.14226294967E+01  0.32511003276E+01  0.61058717739E+02  0.61161757169E+02  0.00000000000E+00 0. -1.
         -4    1    1    2    0  501  0.14226294967E+01 -0.32511003276E+01  0.57609440613E+00  0.35951930115E+01  0.00000000000E+00 0.  1.
<mgrwt>
<rscale>  0 0.35487361E+01</rscale>
<asrwt>0</asrwt>
<pdfrwt beam="1">0</pdfrwt>
<pdfrwt beam="2">0</pdfrwt>
<totfact> 0.92115813E+10</totfact>
</mgrwt>
</event>
<event>
 4    2  0.2027839E+006  0.2013522E+01  0.7546771E-02  0.2971658E+00
         22   -1    0    0    0    0  0.00000000000E+00  0.00000000000E+00  0.26301453172E+02  0.26301453172E+02  0.00000000000E+00 0. -1.
         22   -1    0    0    0    0 -0.00000000000E+00 -0.00000000000E+00 -0.20899153442E+00  0.20899153442E+00  0.00000000000E+00 0.  1.
          4    1    1    2  501    0  0.19891783589E+01  0.31215231997E+00  0.19836585059E+02  0.19938514900E+02  0.00000000000E+00 0. -1.
         -4    1    1    2    0  501 -0.19891783589E+01 -0.31215231997E+00  0.62558765793E+01  0.65719298071E+01  0.00000000000E+00 0.  1.
<mgrwt>
<rscale>  0 0.20135217E+01</rscale>
<asrwt>0</asrwt>
<pdfrwt beam="1">0</pdfrwt>
<pdfrwt beam="2">0</pdfrwt>
<totfact> 0.28084595E+12</totfact>
</mgrwt>
</event>
<event>
 4    2  0.2027839E+006  0.2057148E+01  0.7546771E-02  0.2943189E+00
         22   -1    0    0    0    0  0.00000000000E+00  0.00000000000E+00  0.19055829477E+02  0.19055829477E+02  0.00000000000E+00 0.  1.
         22   -1    0    0    0    0 -0.00000000000E+00 -0.00000000000E+00 -0.29255236706E+00  0.29255236706E+00  0.00000000000E+00 0. -1.
          4    1    1    2  501    0  0.18815212262E+01  0.83170567174E+00  0.14129874884E+02  0.14278838212E+02  0.00000000000E+00 0.  1.
         -4    1    1    2    0  501 -0.18815212262E+01 -0.83170567174E+00  0.46334022260E+01  0.50695436320E+01  0.00000000000E+00 0. -1.
<mgrwt>
<rscale>  0 0.20571476E+01</rscale>
<asrwt>0</asrwt>
<pdfrwt beam="1">0</pdfrwt>
<pdfrwt beam="2">0</pdfrwt>
<totfact> 0.28881649E+12</totfact>
</mgrwt>
</event>
<event>
 4    2  0.2027839E+006  0.3930378E+01  0.7546771E-02  0.2290804E+00
         22   -1    0    0    0    0  0.00000000000E+00  0.00000000000E+00  0.74290123493E+01  0.74290123493E+01  0.00000000000E+00 0.  1.
         22   -1    0    0    0    0 -0.00000000000E+00 -0.00000000000E+00 -0.33181208795E+01  0.33181208795E+01  0.00000000000E+00 0. -1.
          4    1    1    2  501    0 -0.34038687404E+01  0.19650820836E+01  0.53386937906E+01  0.66294435202E+01  0.00000000000E+00 0.  1.
         -4    1    1    2    0  501  0.34038687404E+01 -0.19650820836E+01 -0.12278023209E+01  0.41176897086E+01  0.00000000000E+00 0. -1.
<mgrwt>
<rscale>  0 0.39303778E+01</rscale>
<asrwt>0</asrwt>
<pdfrwt beam="1">0</pdfrwt>
<pdfrwt beam="2">0</pdfrwt>
<totfact> 0.56760964E+11</totfact>
</mgrwt>
</event>
<event>
 4    2  0.2027839E+006  0.2558473E+01  0.7546771E-02  0.2683299E+00
         22   -1    0    0    0    0  0.00000000000E+00  0.00000000000E+00  0.42014189476E+01  0.42014189476E+01  0.00000000000E+00 0. -1.
         22   -1    0    0    0    0 -0.00000000000E+00 -0.00000000000E+00 -0.20808270743E+01  0.20808270743E+01  0.00000000000E+00 0.  1.
          4    1    1    2  501    0  0.10124674662E+01 -0.23496155919E+01  0.26348176176E+01  0.36726077490E+01  0.00000000000E+00 0. -1.
         -4    1    1    2    0  501 -0.10124674662E+01  0.23496155919E+01 -0.51422574430E+00  0.26096382730E+01  0.00000000000E+00 0.  1.
<mgrwt>
<rscale>  0 0.25584729E+01</rscale>
<asrwt>0</asrwt>
<pdfrwt beam="1">0</pdfrwt>
<pdfrwt beam="2">0</pdfrwt>
<totfact> 0.19236612E+12</totfact>
</mgrwt>
</event>
<event>
 4    2  0.2027839E+006  0.2923249E+01  0.7546771E-02  0.2547005E+00
         22   -1    0    0    0    0  0.00000000000E+00  0.00000000000E+00  0.59343014098E+01  0.59343014098E+01  0.00000000000E+00 0.  1.
         22   -1    0    0    0    0 -0.00000000000E+00 -0.00000000000E+00 -0.87205715773E+01  0.87205715773E+01  0.00000000000E+00 0. -1.
          4    1    1    2  501    0  0.23490861020E+01 -0.17398795267E+01  0.53020465651E+01  0.60545093989E+01  0.00000000000E+00 0.  1.
         -4    1    1    2    0  501 -0.23490861020E+01  0.17398795267E+01 -0.80883167326E+01  0.86003635882E+01  0.00000000000E+00 0. -1.
<mgrwt>
<rscale>  0 0.29232493E+01</rscale>
<asrwt>0</asrwt>
<pdfrwt beam="1">0</pdfrwt>
<pdfrwt beam="2">0</pdfrwt>
<totfact> 0.23573042E+11</totfact>
</mgrwt>
</event>
<event>
 4    2  0.2027839E+006  0.9696763E+01  0.7546771E-02  0.1791576E+00
         22   -1    0    0    0    0  0.00000000000E+00  0.00000000000E+00  0.11566673310E+02  0.11566673310E+02  0.00000000000E+00 0.  1.
         22   -1    0    0    0    0 -0.00000000000E+00 -0.00000000000E+00 -0.13887186185E+02  0.13887186185E+02  0.00000000000E+00 0. -1.
          4    1    1    2  501    0 -0.48876189381E+01 -0.83748662718E+01  0.70348344150E+01  0.11979820499E+02  0.00000000000E+00 0.  1.
         -4    1    1    2    0  501  0.48876189381E+01  0.83748662718E+01 -0.93553472900E+01  0.13474038996E+02  0.00000000000E+00 0. -1.
<mgrwt>
<rscale>  0 0.96967626E+01</rscale>
<asrwt>0</asrwt>
<pdfrwt beam="1">0</pdfrwt>
<pdfrwt beam="2">0</pdfrwt>
<totfact> 0.59992910E+10</totfact>
</mgrwt>
</event>
<event>
 4    2  0.2027839E+006  0.3739883E+01  0.7546771E-02  0.2329956E+00
         22   -1    0    0    0    0  0.00000000000E+00  0.00000000000E+00  0.27835831600E+02  0.27835831600E+02  0.00000000000E+00 0. -1.
         22   -1    0    0    0    0 -0.00000000000E+00 -0.00000000000E+00 -0.15656642160E+01  0.15656642160E+01  0.00000000000E+00 0.  1.
          4    1    1    2  501    0  0.48841238619E+00  0.37078531525E+01  0.25249320061E+02  0.25524789622E+02  0.00000000000E+00 0. -1.
         -4    1    1    2    0  501 -0.48841238619E+00 -0.37078531525E+01  0.10208473221E+01  0.38767061939E+01  0.00000000000E+00 0.  1.
<mgrwt>
<rscale>  0 0.37398826E+01</rscale>
<asrwt>0</asrwt>
<pdfrwt beam="1">0</pdfrwt>
<pdfrwt beam="2">0</pdfrwt>
<totfact> 0.26733220E+11</totfact>
</mgrwt>
</event>
<event>
 4    2  0.2027839E+006  0.2280502E+01  0.7546771E-02  0.2813994E+00
         22   -1    0    0    0    0  0.00000000000E+00  0.00000000000E+00  0.87318606469E+01  0.87318606469E+01  0.00000000000E+00 0.  1.
         22   -1    0    0    0    0 -0.00000000000E+00 -0.00000000000E+00 -0.91305151183E+00  0.91305151183E+00  0.00000000000E+00 0. -1.
          4    1    1    2  501    0  0.20768405479E+01 -0.94203117617E+00  0.67529480505E+01  0.71276220979E+01  0.00000000000E+00 0.  1.
         -4    1    1    2    0  501 -0.20768405479E+01  0.94203117617E+00  0.10658610846E+01  0.25172900608E+01  0.00000000000E+00 0. -1.
<mgrwt>
<rscale>  0 0.22805020E+01</rscale>
<asrwt>0</asrwt>
<pdfrwt beam="1">0</pdfrwt>
<pdfrwt beam="2">0</pdfrwt>
<totfact> 0.20735991E+12</totfact>
</mgrwt>
</event>
<event>
 4    2  0.2027839E+006  0.2131701E+01  0.7546771E-02  0.2897166E+00
         22   -1    0    0    0    0  0.00000000000E+00  0.00000000000E+00  0.35669290463E+01  0.35669290463E+01  0.00000000000E+00 0.  1.
         22   -1    0    0    0    0 -0.00000000000E+00 -0.00000000000E+00 -0.14096090794E+01  0.14096090794E+01  0.00000000000E+00 0. -1.
          4    1    1    2  501    0 -0.47073663821E+00  0.20790754945E+01  0.18505334527E+01  0.28228747677E+01  0.00000000000E+00 0. -1.
         -4    1    1    2    0  501  0.47073663821E+00 -0.20790754945E+01  0.30678651430E+00  0.21536633580E+01  0.00000000000E+00 0.  1.
<mgrwt>
<rscale>  0 0.21317007E+01</rscale>
<asrwt>0</asrwt>
<pdfrwt beam="1">0</pdfrwt>
<pdfrwt beam="2">0</pdfrwt>
<totfact> 0.36546186E+12</totfact>
</mgrwt>
</event>
<event>
 4    2  0.2027839E+006  0.3062796E+01  0.7546771E-02  0.2502701E+00
         22   -1    0    0    0    0  0.00000000000E+00  0.00000000000E+00  0.67023804112E+01  0.67023804112E+01  0.00000000000E+00 0.  1.
         22   -1    0    0    0    0 -0.00000000000E+00 -0.00000000000E+00 -0.16830033540E+01  0.16830033540E+01  0.00000000000E+00 0. -1.
          4    1    1    2  501    0  0.14284257010E+01 -0.27093019397E+01  0.42301520852E+01  0.52225380466E+01  0.00000000000E+00 0.  1.
         -4    1    1    2    0  501 -0.14284257010E+01  0.27093019397E+01  0.78922497200E+00  0.31628457187E+01  0.00000000000E+00 0. -1.
<mgrwt>
<rscale>  0 0.30627956E+01</rscale>
<asrwt>0</asrwt>
<pdfrwt beam="1">0</pdfrwt>
<pdfrwt beam="2">0</pdfrwt>
<totfact> 0.14127211E+12</totfact>
</mgrwt>
</event>
<event>
 4    2  0.2027839E+006  0.2695228E+01  0.7546771E-02  0.2628253E+00
         22   -1    0    0    0    0  0.00000000000E+00  0.00000000000E+00  0.20221578465E+01  0.20221578465E+01  0.00000000000E+00 0. -1.
         22   -1    0    0    0    0 -0.00000000000E+00 -0.00000000000E+00 -0.47451494243E+01  0.47451494243E+01  0.00000000000E+00 0.  1.
          4    1    1    2  501    0 -0.15303896269E+01  0.22185945548E+01  0.30629656162E+00  0.27125765966E+01  0.00000000000E+00 0. -1.
         -4    1    1    2    0  501  0.15303896269E+01 -0.22185945548E+01 -0.30292881394E+01  0.40547306742E+01  0.00000000000E+00 0.  1.
<mgrwt>
<rscale>  0 0.26952280E+01</rscale>
<asrwt>0</asrwt>
<pdfrwt beam="1">0</pdfrwt>
<pdfrwt beam="2">0</pdfrwt>
<totfact> 0.17224049E+12</totfact>
</mgrwt>
</event>
<event>
 4    2  0.2027839E+006  0.2143327E+01  0.7546771E-02  0.2890268E+00
         22   -1    0    0    0    0  0.00000000000E+00  0.00000000000E+00  0.26399652285E+02  0.26399652285E+02  0.00000000000E+00 0. -1.
         22   -1    0    0    0    0 -0.00000000000E+00 -0.00000000000E+00 -0.17418257379E+00  0.17418257379E+00  0.00000000000E+00 0.  1.
          4    1    1    2  501    0 -0.75012147874E+00 -0.20077773535E+01  0.13528720647E+02  0.13697449926E+02  0.00000000000E+00 0. -1.
         -4    1    1    2    0  501  0.75012147874E+00  0.20077773535E+01  0.12696749064E+02  0.12876384932E+02  0.00000000000E+00 0.  1.
<mgrwt>
<rscale>  0 0.21433274E+01</rscale>
<asrwt>0</asrwt>
<pdfrwt beam="1">0</pdfrwt>
<pdfrwt beam="2">0</pdfrwt>
<totfact> 0.34249870E+12</totfact>
</mgrwt>
</event>
<event>
 4    2  0.2027839E+006  0.3401198E+01  0.7546771E-02  0.2408823E+00
         22   -1    0    0    0    0  0.00000000000E+00  0.00000000000E+00  0.19546430361E+02  0.19546430361E+02  0.00000000000E+00 0.  1.
         22   -1    0    0    0    0 -0.00000000000E+00 -0.00000000000E+00 -0.66669074894E+00  0.66669074894E+00  0.00000000000E+00 0. -1.
          4    1    1    2  501    0 -0.24849106417E+01 -0.23223616374E+01  0.12826526170E+02  0.13269812285E+02  0.00000000000E+00 0.  1.
         -4    1    1    2    0  501  0.24849106417E+01  0.23223616374E+01  0.60532134420E+01  0.69433088255E+01  0.00000000000E+00 0. -1.
<mgrwt>
<rscale>  0 0.34011975E+01</rscale>
<asrwt>0</asrwt>
<pdfrwt beam="1">0</pdfrwt>
<pdfrwt beam="2">0</pdfrwt>
<totfact> 0.11057664E+12</totfact>
</mgrwt>
</event>
<event>
 4    2  0.2027839E+006  0.2245901E+01  0.7546771E-02  0.2832394E+00
         22   -1    0    0    0    0  0.00000000000E+00  0.00000000000E+00  0.61818019924E+01  0.61818019924E+01  0.00000000000E+00 0. -1.
         22   -1    0    0    0    0 -0.00000000000E+00 -0.00000000000E+00 -0.82431447384E+00  0.82431447384E+00  0.00000000000E+00 0.  1.
          4    1    1    2  501    0 -0.33593413461E+00  0.22206347483E+01  0.30315189198E+01  0.37728208796E+01  0.00000000000E+00 0.  1.
         -4    1    1    2    0  501  0.33593413461E+00 -0.22206347483E+01  0.23259685987E+01  0.32332955867E+01  0.00000000000E+00 0. -1.
<mgrwt>
<rscale>  0 0.22459008E+01</rscale>
<asrwt>0</asrwt>
<pdfrwt beam="1">0</pdfrwt>
<pdfrwt beam="2">0</pdfrwt>
<totfact> 0.35237841E+12</totfact>
</mgrwt>
</event>
<event>
 4    2  0.2027839E+006  0.2296347E+01  0.7546771E-02  0.2805745E+00
         22   -1    0    0    0    0  0.00000000000E+00  0.00000000000E+00  0.93789290360E+00  0.93789290360E+00  0.00000000000E+00 0. -1.
         22   -1    0    0    0    0 -0.00000000000E+00 -0.00000000000E+00 -0.66049434945E+01  0.66049434945E+01  0.00000000000E+00 0.  1.
          4    1    1    2  501    0 -0.14062529967E+01 -0.18153959672E+01 -0.13789178435E+01  0.26785489407E+01  0.00000000000E+00 0. -1.
         -4    1    1    2    0  501  0.14062529967E+01  0.18153959672E+01 -0.42881327474E+01  0.48642874574E+01  0.00000000000E+00 0.  1.
<mgrwt>
<rscale>  0 0.22963471E+01</rscale>
<asrwt>0</asrwt>
<pdfrwt beam="1">0</pdfrwt>
<pdfrwt beam="2">0</pdfrwt>
<totfact> 0.28108757E+12</totfact>
</mgrwt>
</event>
<event>
 4    2  0.2027839E+006  0.2718126E+01  0.7546771E-02  0.2619535E+00
         22   -1    0    0    0    0  0.00000000000E+00  0.00000000000E+00  0.37959006626E+01  0.37959006626E+01  0.00000000000E+00 0. -1.
         22   -1    0    0    0    0 -0.00000000000E+00 -0.00000000000E+00 -0.81083345091E+01  0.81083345091E+01  0.00000000000E+00 0.  1.
          4    1    1    2  501    0 -0.37015577771E+00  0.26928038556E+01  0.30325653642E+01  0.40724268677E+01  0.00000000000E+00 0. -1.
         -4    1    1    2    0  501  0.37015577771E+00 -0.26928038556E+01 -0.73449992107E+01  0.78318083039E+01  0.00000000000E+00 0.  1.
<mgrwt>
<rscale>  0 0.27181258E+01</rscale>
<asrwt>0</asrwt>
<pdfrwt beam="1">0</pdfrwt>
<pdfrwt beam="2">0</pdfrwt>
<totfact> 0.43641451E+11</totfact>
</mgrwt>
</event>
<event>
 4    2  0.2027839E+006  0.2106008E+01  0.7546771E-02  0.2912669E+00
         22   -1    0    0    0    0  0.00000000000E+00  0.00000000000E+00  0.18457111653E+01  0.18457111653E+01  0.00000000000E+00 0.  1.
         22   -1    0    0    0    0 -0.00000000000E+00 -0.00000000000E+00 -0.25155818614E+01  0.25155818614E+01  0.00000000000E+00 0. -1.
          4    1    1    2  501    0  0.16158777609E+01 -0.13506332372E+01 -0.79622305742E+00  0.22514977763E+01  0.00000000000E+00 0. -1.
         -4    1    1    2    0  501 -0.16158777609E+01  0.13506332372E+01  0.12635236135E+00  0.21097952504E+01  0.00000000000E+00 0.  1.
<mgrwt>
<rscale>  0 0.21060083E+01</rscale>
<asrwt>0</asrwt>
<pdfrwt beam="1">0</pdfrwt>
<pdfrwt beam="2">0</pdfrwt>
<totfact> 0.40281679E+12</totfact>
</mgrwt>
</event>
<event>
 4    2  0.2027839E+006  0.3796396E+01  0.7546771E-02  0.2317989E+00
         22   -1    0    0    0    0  0.00000000000E+00  0.00000000000E+00  0.21222545501E+01  0.21222545501E+01  0.00000000000E+00 0.  1.
         22   -1    0    0    0    0 -0.00000000000E+00 -0.00000000000E+00 -0.72399273256E+01  0.72399273256E+01  0.00000000000E+00 0. -1.
          4    1    1    2  501    0 -0.13197913482E+01  0.35596031635E+01 -0.13934274322E+01  0.40440405405E+01  0.00000000000E+00 0.  1.
         -4    1    1    2    0  501  0.13197913482E+01 -0.35596031635E+01 -0.37242453432E+01  0.53181413352E+01  0.00000000000E+00 0. -1.
<mgrwt>
<rscale>  0 0.37963962E+01</rscale>
<asrwt>0</asrwt>
<pdfrwt beam="1">0</pdfrwt>
<pdfrwt beam="2">0</pdfrwt>
<totfact> 0.98527342E+11</totfact>
</mgrwt>
</event>
<event>
 4    2  0.2027839E+006  0.2369434E+01  0.7546771E-02  0.2769049E+00
         22   -1    0    0    0    0  0.00000000000E+00  0.00000000000E+00  0.15825153850E+01  0.15825153850E+01  0.00000000000E+00 0. -1.
         22   -1    0    0    0    0 -0.00000000000E+00 -0.00000000000E+00 -0.43844709741E+01  0.43844709741E+01  0.00000000000E+00 0.  1.
          4    1    1    2  501    0 -0.10070363870E+01 -0.21447837706E+01 -0.97567184071E-01  0.23714424013E+01  0.00000000000E+00 0. -1.
         -4    1    1    2    0  501  0.10070363870E+01  0.21447837706E+01 -0.27043884051E+01  0.35955439578E+01  0.00000000000E+00 0.  1.
<mgrwt>
<rscale>  0 0.23694345E+01</rscale>
<asrwt>0</asrwt>
<pdfrwt beam="1">0</pdfrwt>
<pdfrwt beam="2">0</pdfrwt>
<totfact> 0.25096494E+12</totfact>
</mgrwt>
</event>
<event>
 4    2  0.2027839E+006  0.4420961E+01  0.7546771E-02  0.2203391E+00
         22   -1    0    0    0    0  0.00000000000E+00  0.00000000000E+00  0.35047356974E+02  0.35047356974E+02  0.00000000000E+00 0. -1.
         22   -1    0    0    0    0 -0.00000000000E+00 -0.00000000000E+00 -0.57563736114E+00  0.57563736114E+00  0.00000000000E+00 0.  1.
          4    1    1    2  501    0  0.34500033521E+01 -0.27644850155E+01  0.20382549810E+02  0.20856491491E+02  0.00000000000E+00 0. -1.
         -4    1    1    2    0  501 -0.34500033521E+01  0.27644850155E+01  0.14089169803E+02  0.14766502844E+02  0.00000000000E+00 0.  1.
<mgrwt>
<rscale>  0 0.44209615E+01</rscale>
<asrwt>0</asrwt>
<pdfrwt beam="1">0</pdfrwt>
<pdfrwt beam="2">0</pdfrwt>
<totfact> 0.62390431E+11</totfact>
</mgrwt>
</event>
<event>
 4    2  0.2027839E+006  0.2587083E+01  0.7546771E-02  0.2671340E+00
         22   -1    0    0    0    0  0.00000000000E+00  0.00000000000E+00  0.18489335893E+02  0.18489335893E+02  0.00000000000E+00 0. -1.
         22   -1    0    0    0    0 -0.00000000000E+00 -0.00000000000E+00 -0.38997146612E+00  0.38997146612E+00  0.00000000000E+00 0.  1.
          4    1    1    2  501    0 -0.23299252916E+01 -0.11244750189E+01  0.11578150854E+02  0.11863666092E+02  0.00000000000E+00 0.  1.
         -4    1    1    2    0  501  0.23299252916E+01  0.11244750189E+01  0.65212135721E+01  0.70156412669E+01  0.00000000000E+00 0. -1.
<mgrwt>
<rscale>  0 0.25870825E+01</rscale>
<asrwt>0</asrwt>
<pdfrwt beam="1">0</pdfrwt>
<pdfrwt beam="2">0</pdfrwt>
<totfact> 0.21715471E+12</totfact>
</mgrwt>
</event>
<event>
 4    2  0.2027839E+006  0.3390123E+01  0.7546771E-02  0.2411632E+00
         22   -1    0    0    0    0  0.00000000000E+00  0.00000000000E+00  0.43991405925E+01  0.43991405925E+01  0.00000000000E+00 0.  1.
         22   -1    0    0    0    0 -0.00000000000E+00 -0.00000000000E+00 -0.37435852312E+01  0.37435852312E+01  0.00000000000E+00 0. -1.
          4    1    1    2  501    0  0.12255902085E+01  0.31608323068E+01  0.25656529448E+01  0.42515299909E+01  0.00000000000E+00 0.  1.
         -4    1    1    2    0  501 -0.12255902085E+01 -0.31608323068E+01 -0.19100975834E+01  0.38911958328E+01  0.00000000000E+00 0. -1.
<mgrwt>
<rscale>  0 0.33901227E+01</rscale>
<asrwt>0</asrwt>
<pdfrwt beam="1">0</pdfrwt>
<pdfrwt beam="2">0</pdfrwt>
<totfact> 0.91859241E+11</totfact>
</mgrwt>
</event>
<event>
 4    2  0.2027839E+006  0.2509420E+01  0.7546771E-02  0.2704392E+00
         22   -1    0    0    0    0  0.00000000000E+00  0.00000000000E+00  0.54897936148E+00  0.54897936148E+00  0.00000000000E+00 0. -1.
         22   -1    0    0    0    0 -0.00000000000E+00 -0.00000000000E+00 -0.14082098712E+02  0.14082098712E+02  0.00000000000E+00 0.  1.
          4    1    1    2  501    0 -0.21842355224E+01  0.12354364424E+01 -0.36162906104E+01  0.44016753401E+01  0.00000000000E+00 0. -1.
         -4    1    1    2    0  501  0.21842355224E+01 -0.12354364424E+01 -0.99168287397E+01  0.10229402733E+02  0.00000000000E+00 0.  1.
<mgrwt>
<rscale>  0 0.25094199E+01</rscale>
<asrwt>0</asrwt>
<pdfrwt beam="1">0</pdfrwt>
<pdfrwt beam="2">0</pdfrwt>
<totfact> 0.20665037E+12</totfact>
</mgrwt>
</event>
<event>
 4    2  0.2027839E+006  0.2371756E+01  0.7546771E-02  0.2767919E+00
         22   -1    0    0    0    0  0.00000000000E+00  0.00000000000E+00  0.11581435033E+00  0.11581435033E+00  0.00000000000E+00 0.  1.
         22   -1    0    0    0    0 -0.00000000000E+00 -0.00000000000E+00 -0.48805783120E+02  0.48805783120E+02  0.00000000000E+00 0. -1.
          4    1    1    2  501    0 -0.17469659679E+01 -0.16041616580E+01 -0.22648611828E+02  0.22772457980E+02  0.00000000000E+00 0. -1.
         -4    1    1    2    0  501  0.17469659679E+01  0.16041616580E+01 -0.26041356942E+02  0.26149139490E+02  0.00000000000E+00 0.  1.
<mgrwt>
<rscale>  0 0.23717556E+01</rscale>
<asrwt>0</asrwt>
<pdfrwt beam="1">0</pdfrwt>
<pdfrwt beam="2">0</pdfrwt>
<totfact> 0.24408578E+12</totfact>
</mgrwt>
</event>
<event>
 4    2  0.2027839E+006  0.2900515E+01  0.7546771E-02  0.2554585E+00
         22   -1    0    0    0    0  0.00000000000E+00  0.00000000000E+00  0.73251449510E+00  0.73251449510E+00  0.00000000000E+00 0.  1.
         22   -1    0    0    0    0 -0.00000000000E+00 -0.00000000000E+00 -0.15247765098E+02  0.15247765098E+02  0.00000000000E+00 0. -1.
          4    1    1    2  501    0 -0.28828132005E+01 -0.31996068077E+00 -0.11226800605E+02  0.11595431799E+02  0.00000000000E+00 0. -1.
         -4    1    1    2    0  501  0.28828132005E+01  0.31996068077E+00 -0.32884499978E+01  0.43848477938E+01  0.00000000000E+00 0.  1.
<mgrwt>
<rscale>  0 0.29005149E+01</rscale>
<asrwt>0</asrwt>
<pdfrwt beam="1">0</pdfrwt>
<pdfrwt beam="2">0</pdfrwt>
<totfact> 0.13515099E+12</totfact>
</mgrwt>
</event>
<event>
 4    2  0.2027839E+006  0.2138216E+01  0.7546771E-02  0.2893292E+00
         22   -1    0    0    0    0  0.00000000000E+00  0.00000000000E+00  0.68308587219E+00  0.68308587219E+00  0.00000000000E+00 0.  1.
         22   -1    0    0    0    0 -0.00000000000E+00 -0.00000000000E+00 -0.75396652241E+01  0.75396652241E+01  0.00000000000E+00 0. -1.
          4    1    1    2  501    0  0.20891293032E+01 -0.45552650149E+00 -0.20506362326E+01  0.29626127992E+01  0.00000000000E+00 0. -1.
         -4    1    1    2    0  501 -0.20891293032E+01  0.45552650149E+00 -0.48059431192E+01  0.52601382971E+01  0.00000000000E+00 0.  1.
<mgrwt>
<rscale>  0 0.21382155E+01</rscale>
<asrwt>0</asrwt>
<pdfrwt beam="1">0</pdfrwt>
<pdfrwt beam="2">0</pdfrwt>
<totfact> 0.34409518E+12</totfact>
</mgrwt>
</event>
<event>
 4    2  0.2027839E+006  0.2245868E+01  0.7546771E-02  0.2832412E+00
         22   -1    0    0    0    0  0.00000000000E+00  0.00000000000E+00  0.66075266150E+00  0.66075266150E+00  0.00000000000E+00 0. -1.
         22   -1    0    0    0    0 -0.00000000000E+00 -0.00000000000E+00 -0.81539944834E+01  0.81539944834E+01  0.00000000000E+00 0.  1.
          4    1    1    2  501    0 -0.13223058143E+01 -0.18153316768E+01 -0.26331962324E+01  0.34608733235E+01  0.00000000000E+00 0. -1.
         -4    1    1    2    0  501  0.13223058143E+01  0.18153316768E+01 -0.48600455896E+01  0.53538738215E+01  0.00000000000E+00 0.  1.
<mgrwt>
<rscale>  0 0.22458677E+01</rscale>
<asrwt>0</asrwt>
<pdfrwt beam="1">0</pdfrwt>
<pdfrwt beam="2">0</pdfrwt>
<totfact> 0.32525323E+12</totfact>
</mgrwt>
</event>
<event>
 4    2  0.2027839E+006  0.2103954E+01  0.7546771E-02  0.2913925E+00
         22   -1    0    0    0    0  0.00000000000E+00  0.00000000000E+00  0.12415521174E+01  0.12415521174E+01  0.00000000000E+00 0. -1.
         22   -1    0    0    0    0 -0.00000000000E+00 -0.00000000000E+00 -0.17183344796E+02  0.17183344796E+02  0.00000000000E+00 0.  1.
          4    1    1    2  501    0 -0.12822210011E+01 -0.16680928156E+01  0.23029746757E+00  0.21165210277E+01  0.00000000000E+00 0. -1.
         -4    1    1    2    0  501  0.12822210011E+01  0.16680928156E+01 -0.16172090146E+02  0.16308375885E+02  0.00000000000E+00 0.  1.
<mgrwt>
<rscale>  0 0.21039545E+01</rscale>
<asrwt>0</asrwt>
<pdfrwt beam="1">0</pdfrwt>
<pdfrwt beam="2">0</pdfrwt>
<totfact> 0.63858506E+11</totfact>
</mgrwt>
</event>
<event>
 4    2  0.2027839E+006  0.3087853E+01  0.7546771E-02  0.2495126E+00
         22   -1    0    0    0    0  0.00000000000E+00  0.00000000000E+00  0.18282630546E+01  0.18282630546E+01  0.00000000000E+00 0.  1.
         22   -1    0    0    0    0 -0.00000000000E+00 -0.00000000000E+00 -0.52322862073E+01  0.52322862073E+01  0.00000000000E+00 0. -1.
          4    1    1    2  501    0 -0.77701609679E+00 -0.29884913334E+01 -0.19034998569E+01  0.36274159080E+01  0.00000000000E+00 0. -1.
         -4    1    1    2    0  501  0.77701609679E+00  0.29884913334E+01 -0.15005232959E+01  0.34331333539E+01  0.00000000000E+00 0.  1.
<mgrwt>
<rscale>  0 0.30878527E+01</rscale>
<asrwt>0</asrwt>
<pdfrwt beam="1">0</pdfrwt>
<pdfrwt beam="2">0</pdfrwt>
<totfact> 0.17239335E+12</totfact>
</mgrwt>
</event>
<event>
 4    2  0.2027839E+006  0.2161651E+01  0.7546771E-02  0.2879542E+00
         22   -1    0    0    0    0  0.00000000000E+00  0.00000000000E+00  0.43581348136E+01  0.43581348136E+01  0.00000000000E+00 0. -1.
         22   -1    0    0    0    0 -0.00000000000E+00 -0.00000000000E+00 -0.13612185410E+01  0.13612185410E+01  0.00000000000E+00 0.  1.
          4    1    1    2  501    0 -0.21615355691E+01  0.22385397103E-01  0.28161848291E+01  0.35501597308E+01  0.00000000000E+00 0. -1.
         -4    1    1    2    0  501  0.21615355691E+01 -0.22385397103E-01  0.18073144342E+00  0.21691936238E+01  0.00000000000E+00 0.  1.
<mgrwt>
<rscale>  0 0.21616515E+01</rscale>
<asrwt>0</asrwt>
<pdfrwt beam="1">0</pdfrwt>
<pdfrwt beam="2">0</pdfrwt>
<totfact> 0.30055723E+12</totfact>
</mgrwt>
</event>
<event>
 4    2  0.2027839E+006  0.3172622E+01  0.7546771E-02  0.2470293E+00
         22   -1    0    0    0    0  0.00000000000E+00  0.00000000000E+00  0.98258789217E+01  0.98258789217E+01  0.00000000000E+00 0. -1.
         22   -1    0    0    0    0 -0.00000000000E+00 -0.00000000000E+00 -0.10652121150E+01  0.10652121150E+01  0.00000000000E+00 0.  1.
          4    1    1    2  501    0 -0.72651515679E+00 -0.30883174778E+01  0.54463714734E+01  0.63030541282E+01  0.00000000000E+00 0.  1.
         -4    1    1    2    0  501  0.72651515679E+00  0.30883174778E+01  0.33142953334E+01  0.45880369085E+01  0.00000000000E+00 0. -1.
<mgrwt>
<rscale>  0 0.31726218E+01</rscale>
<asrwt>0</asrwt>
<pdfrwt beam="1">0</pdfrwt>
<pdfrwt beam="2">0</pdfrwt>
<totfact> 0.15080517E+12</totfact>
</mgrwt>
</event>
<event>
 4    2  0.2027839E+006  0.2780874E+01  0.7546771E-02  0.2596316E+00
         22   -1    0    0    0    0  0.00000000000E+00  0.00000000000E+00  0.61873356207E+01  0.61873356207E+01  0.00000000000E+00 0.  1.
         22   -1    0    0    0    0 -0.00000000000E+00 -0.00000000000E+00 -0.17069031332E+01  0.17069031332E+01  0.00000000000E+00 0. -1.
          4    1    1    2  501    0 -0.16767478153E+01 -0.22185077297E+01  0.42826959928E+01  0.51063435793E+01  0.00000000000E+00 0.  1.
         -4    1    1    2    0  501  0.16767478153E+01  0.22185077297E+01  0.19773649461E+00  0.27878951745E+01  0.00000000000E+00 0. -1.
<mgrwt>
<rscale>  0 0.27808739E+01</rscale>
<asrwt>0</asrwt>
<pdfrwt beam="1">0</pdfrwt>
<pdfrwt beam="2">0</pdfrwt>
<totfact> 0.15290327E+12</totfact>
</mgrwt>
</event>
<event>
 4    2  0.2027839E+006  0.2441653E+01  0.7546771E-02  0.2734826E+00
         22   -1    0    0    0    0  0.00000000000E+00  0.00000000000E+00  0.16186487458E+02  0.16186487458E+02  0.00000000000E+00 0. -1.
         22   -1    0    0    0    0 -0.00000000000E+00 -0.00000000000E+00 -0.38898263647E+00  0.38898263647E+00  0.00000000000E+00 0.  1.
          4    1    1    2  501    0  0.15098255500E+00  0.24369806112E+01  0.98092761454E+01  0.10108588859E+02  0.00000000000E+00 0. -1.
         -4    1    1    2    0  501 -0.15098255500E+00 -0.24369806112E+01  0.59882286764E+01  0.64668812353E+01  0.00000000000E+00 0.  1.
<mgrwt>
<rscale>  0 0.24416532E+01</rscale>
<asrwt>0</asrwt>
<pdfrwt beam="1">0</pdfrwt>
<pdfrwt beam="2">0</pdfrwt>
<totfact> 0.25677302E+12</totfact>
</mgrwt>
</event>
<event>
 4    2  0.2027839E+006  0.2447988E+01  0.7546771E-02  0.2731914E+00
         22   -1    0    0    0    0  0.00000000000E+00  0.00000000000E+00  0.39706903292E+02  0.39706903292E+02  0.00000000000E+00 0. -1.
         22   -1    0    0    0    0 -0.00000000000E+00 -0.00000000000E+00 -0.25939683639E+00  0.25939683639E+00  0.00000000000E+00 0.  1.
          4    1    1    2  501    0  0.22052933051E+01 -0.10626980212E+01  0.32646239948E+02  0.32737892852E+02  0.00000000000E+00 0. -1.
         -4    1    1    2    0  501 -0.22052933051E+01  0.10626980212E+01  0.68012665071E+01  0.72284072759E+01  0.00000000000E+00 0.  1.
<mgrwt>
<rscale>  0 0.24479881E+01</rscale>
<asrwt>0</asrwt>
<pdfrwt beam="1">0</pdfrwt>
<pdfrwt beam="2">0</pdfrwt>
<totfact> 0.13019337E+12</totfact>
</mgrwt>
</event>
<event>
 4    2  0.2027839E+006  0.2948522E+01  0.7546771E-02  0.2538702E+00
         22   -1    0    0    0    0  0.00000000000E+00  0.00000000000E+00  0.55545162546E+01  0.55545162546E+01  0.00000000000E+00 0. -1.
         22   -1    0    0    0    0 -0.00000000000E+00 -0.00000000000E+00 -0.38348213127E+01  0.38348213127E+01  0.00000000000E+00 0.  1.
          4    1    1    2  501    0 -0.16877593610E+01 -0.24176951199E+01  0.44715471642E+01  0.53561661097E+01  0.00000000000E+00 0. -1.
         -4    1    1    2    0  501  0.16877593610E+01  0.24176951199E+01 -0.27518522223E+01  0.40331714576E+01  0.00000000000E+00 0.  1.
<mgrwt>
<rscale>  0 0.29485219E+01</rscale>
<asrwt>0</asrwt>
<pdfrwt beam="1">0</pdfrwt>
<pdfrwt beam="2">0</pdfrwt>
<totfact> 0.67757097E+11</totfact>
</mgrwt>
</event>
<event>
 4    2  0.2027839E+006  0.2658958E+01  0.7546771E-02  0.2642344E+00
         22   -1    0    0    0    0  0.00000000000E+00  0.00000000000E+00  0.51227005612E+00  0.51227005612E+00  0.00000000000E+00 0.  1.
         22   -1    0    0    0    0 -0.00000000000E+00 -0.00000000000E+00 -0.13825036630E+02  0.13825036630E+02  0.00000000000E+00 0. -1.
          4    1    1    2  501    0  0.16155554264E+01 -0.21118803242E+01 -0.69526262367E+01  0.74437268506E+01  0.00000000000E+00 0. -1.
         -4    1    1    2    0  501 -0.16155554264E+01  0.21118803242E+01 -0.63601403370E+01  0.68935798353E+01  0.00000000000E+00 0.  1.
<mgrwt>
<rscale>  0 0.26589580E+01</rscale>
<asrwt>0</asrwt>
<pdfrwt beam="1">0</pdfrwt>
<pdfrwt beam="2">0</pdfrwt>
<totfact> 0.22857453E+12</totfact>
</mgrwt>
</event>
<event>
 4    2  0.2027839E+006  0.3229184E+01  0.7546771E-02  0.2454367E+00
         22   -1    0    0    0    0  0.00000000000E+00  0.00000000000E+00  0.54861402116E+01  0.54861402116E+01  0.00000000000E+00 0.  1.
         22   -1    0    0    0    0 -0.00000000000E+00 -0.00000000000E+00 -0.48597481735E+01  0.48597481735E+01  0.00000000000E+00 0. -1.
          4    1    1    2  501    0 -0.32041599058E+01 -0.40123696474E+00  0.43496987893E+01  0.54173343409E+01  0.00000000000E+00 0.  1.
         -4    1    1    2    0  501  0.32041599058E+01  0.40123696474E+00 -0.37233067512E+01  0.49285540442E+01  0.00000000000E+00 0. -1.
<mgrwt>
<rscale>  0 0.32291844E+01</rscale>
<asrwt>0</asrwt>
<pdfrwt beam="1">0</pdfrwt>
<pdfrwt beam="2">0</pdfrwt>
<totfact> 0.52004786E+11</totfact>
</mgrwt>
</event>
<event>
 4    2  0.2027839E+006  0.2893366E+01  0.7546771E-02  0.2556990E+00
         22   -1    0    0    0    0  0.00000000000E+00  0.00000000000E+00  0.51200248409E+00  0.51200248409E+00  0.00000000000E+00 0.  1.
         22   -1    0    0    0    0 -0.00000000000E+00 -0.00000000000E+00 -0.16636295365E+02  0.16636295365E+02  0.00000000000E+00 0. -1.
          4    1    1    2  501    0 -0.11118551113E+01  0.26712070753E+01 -0.69386212382E+01  0.75177146604E+01  0.00000000000E+00 0. -1.
         -4    1    1    2    0  501  0.11118551113E+01 -0.26712070753E+01 -0.91856716428E+01  0.96305831888E+01  0.00000000000E+00 0.  1.
<mgrwt>
<rscale>  0 0.28933664E+01</rscale>
<asrwt>0</asrwt>
<pdfrwt beam="1">0</pdfrwt>
<pdfrwt beam="2">0</pdfrwt>
<totfact> 0.18209967E+12</totfact>
</mgrwt>
</event>
<event>
 4    2  0.2027839E+006  0.3289337E+01  0.7546771E-02  0.2437964E+00
         22   -1    0    0    0    0  0.00000000000E+00  0.00000000000E+00  0.74655850321E+01  0.74655850321E+01  0.00000000000E+00 0. -1.
         22   -1    0    0    0    0 -0.00000000000E+00 -0.00000000000E+00 -0.15514197657E+01  0.15514197657E+01  0.00000000000E+00 0.  1.
          4    1    1    2  501    0  0.32257090331E+01  0.64384938608E+00  0.41138872853E+01  0.52672392574E+01  0.00000000000E+00 0.  1.
         -4    1    1    2    0  501 -0.32257090331E+01 -0.64384938608E+00  0.18002779811E+01  0.37497655403E+01  0.00000000000E+00 0. -1.
<mgrwt>
<rscale>  0 0.32893374E+01</rscale>
<asrwt>0</asrwt>
<pdfrwt beam="1">0</pdfrwt>
<pdfrwt beam="2">0</pdfrwt>
<totfact> 0.13638261E+12</totfact>
</mgrwt>
</event>
<event>
 4    2  0.2027839E+006  0.3621724E+01  0.7546771E-02  0.2356014E+00
         22   -1    0    0    0    0  0.00000000000E+00  0.00000000000E+00  0.82940846924E+01  0.82940846924E+01  0.00000000000E+00 0. -1.
         22   -1    0    0    0    0 -0.00000000000E+00 -0.00000000000E+00 -0.76926447596E+01  0.76926447596E+01  0.00000000000E+00 0.  1.
          4    1    1    2  501    0  0.19055472560E+01  0.30798979254E+01  0.74252134020E+01  0.82613967125E+01  0.00000000000E+00 0. -1.
         -4    1    1    2    0  501 -0.19055472560E+01 -0.30798979254E+01 -0.68237734692E+01  0.77253327395E+01  0.00000000000E+00 0.  1.
<mgrwt>
<rscale>  0 0.36217236E+01</rscale>
<asrwt>0</asrwt>
<pdfrwt beam="1">0</pdfrwt>
<pdfrwt beam="2">0</pdfrwt>
<totfact> 0.18364207E+11</totfact>
</mgrwt>
</event>
<event>
 4    2  0.2027839E+006  0.2162489E+01  0.7546771E-02  0.2879057E+00
         22   -1    0    0    0    0  0.00000000000E+00  0.00000000000E+00  0.14462528489E+00  0.14462528489E+00  0.00000000000E+00 0.  1.
         22   -1    0    0    0    0 -0.00000000000E+00 -0.00000000000E+00 -0.45649303839E+02  0.45649303839E+02  0.00000000000E+00 0. -1.
          4    1    1    2  501    0 -0.20054481067E+01 -0.80903313534E+00 -0.10386273531E+02  0.10609007238E+02  0.00000000000E+00 0.  1.
         -4    1    1    2    0  501  0.20054481067E+01  0.80903313534E+00 -0.35118405023E+02  0.35184921886E+02  0.00000000000E+00 0. -1.
<mgrwt>
<rscale>  0 0.21624885E+01</rscale>
<asrwt>0</asrwt>
<pdfrwt beam="1">0</pdfrwt>
<pdfrwt beam="2">0</pdfrwt>
<totfact> 0.20823681E+12</totfact>
</mgrwt>
</event>
<event>
 4    2  0.2027839E+006  0.2200404E+01  0.7546771E-02  0.2857426E+00
         22   -1    0    0    0    0  0.00000000000E+00  0.00000000000E+00  0.34513476159E+01  0.34513476159E+01  0.00000000000E+00 0.  1.
         22   -1    0    0    0    0 -0.00000000000E+00 -0.00000000000E+00 -0.32244190822E+01  0.32244190822E+01  0.00000000000E+00 0. -1.
          4    1    1    2  501    0 -0.17527351797E+01 -0.13302993295E+01  0.26222661947E+01  0.34231647509E+01  0.00000000000E+00 0.  1.
         -4    1    1    2    0  501  0.17527351797E+01  0.13302993295E+01 -0.23953376610E+01  0.32526019471E+01  0.00000000000E+00 0. -1.
<mgrwt>
<rscale>  0 0.22004038E+01</rscale>
<asrwt>0</asrwt>
<pdfrwt beam="1">0</pdfrwt>
<pdfrwt beam="2">0</pdfrwt>
<totfact> 0.14555695E+12</totfact>
</mgrwt>
</event>
<event>
 4    2  0.2027839E+006  0.3017435E+01  0.7546771E-02  0.2516699E+00
         22   -1    0    0    0    0  0.00000000000E+00  0.00000000000E+00  0.86039126966E+00  0.86039126966E+00  0.00000000000E+00 0.  1.
         22   -1    0    0    0    0 -0.00000000000E+00 -0.00000000000E+00 -0.42884611829E+02  0.42884611829E+02  0.00000000000E+00 0. -1.
          4    1    1    2  501    0 -0.24526541619E+01 -0.17576685067E+01 -0.20291221742E+01  0.36362408907E+01  0.00000000000E+00 0. -1.
         -4    1    1    2    0  501  0.24526541619E+01  0.17576685067E+01 -0.39995098385E+02  0.40108762208E+02  0.00000000000E+00 0.  1.
<mgrwt>
<rscale>  0 0.30174345E+01</rscale>
<asrwt>0</asrwt>
<pdfrwt beam="1">0</pdfrwt>
<pdfrwt beam="2">0</pdfrwt>
<totfact> 0.30439854E+11</totfact>
</mgrwt>
</event>
<event>
 4    2  0.2027839E+006  0.2098195E+01  0.7546771E-02  0.2917457E+00
         22   -1    0    0    0    0  0.00000000000E+00  0.00000000000E+00  0.41909644643E+01  0.41909644643E+01  0.00000000000E+00 0. -1.
         22   -1    0    0    0    0 -0.00000000000E+00 -0.00000000000E+00 -0.10517098921E+01  0.10517098921E+01  0.00000000000E+00 0.  1.
          4    1    1    2  501    0  0.17114085266E+01 -0.12138801755E+01  0.14791194744E+01  0.25671421163E+01  0.00000000000E+00 0. -1.
         -4    1    1    2    0  501 -0.17114085266E+01  0.12138801755E+01  0.16601350977E+01  0.26755322402E+01  0.00000000000E+00 0.  1.
<mgrwt>
<rscale>  0 0.20981955E+01</rscale>
<asrwt>0</asrwt>
<pdfrwt beam="1">0</pdfrwt>
<pdfrwt beam="2">0</pdfrwt>
<totfact> 0.42295939E+12</totfact>
</mgrwt>
</event>
<event>
 4    2  0.2027839E+006  0.2946449E+01  0.7546771E-02  0.2539378E+00
         22   -1    0    0    0    0  0.00000000000E+00  0.00000000000E+00  0.44585742686E+00  0.44585742686E+00  0.00000000000E+00 0.  1.
         22   -1    0    0    0    0 -0.00000000000E+00 -0.00000000000E+00 -0.26071438569E+02  0.26071438569E+02  0.00000000000E+00 0. -1.
          4    1    1    2  501    0 -0.24533010403E+01  0.16318324726E+01 -0.61419129119E+01  0.68120964050E+01  0.00000000000E+00 0.  1.
         -4    1    1    2    0  501  0.24533010403E+01 -0.16318324726E+01 -0.19483668230E+02  0.19705199591E+02  0.00000000000E+00 0. -1.
<mgrwt>
<rscale>  0 0.29464493E+01</rscale>
<asrwt>0</asrwt>
<pdfrwt beam="1">0</pdfrwt>
<pdfrwt beam="2">0</pdfrwt>
<totfact> 0.12141503E+12</totfact>
</mgrwt>
</event>
<event>
 4    2  0.2027839E+006  0.3679592E+01  0.7546771E-02  0.2343072E+00
         22   -1    0    0    0    0  0.00000000000E+00  0.00000000000E+00  0.27355586492E+00  0.27355586492E+00  0.00000000000E+00 0. -1.
         22   -1    0    0    0    0 -0.00000000000E+00 -0.00000000000E+00 -0.57198529385E+02  0.57198529385E+02  0.00000000000E+00 0.  1.
          4    1    1    2  501    0 -0.30212468563E+00 -0.36671679747E+01 -0.17916071300E+02  0.18290024907E+02  0.00000000000E+00 0. -1.
         -4    1    1    2    0  501  0.30212468563E+00  0.36671679747E+01 -0.39008902220E+02  0.39182060343E+02  0.00000000000E+00 0.  1.
<mgrwt>
<rscale>  0 0.36795924E+01</rscale>
<asrwt>0</asrwt>
<pdfrwt beam="1">0</pdfrwt>
<pdfrwt beam="2">0</pdfrwt>
<totfact> 0.75927621E+11</totfact>
</mgrwt>
</event>
<event>
 4    2  0.2027839E+006  0.3980460E+01  0.7546771E-02  0.2281045E+00
         22   -1    0    0    0    0  0.00000000000E+00  0.00000000000E+00  0.23344198690E+02  0.23344198690E+02  0.00000000000E+00 0. -1.
         22   -1    0    0    0    0 -0.00000000000E+00 -0.00000000000E+00 -0.67880233449E+00  0.67880233449E+00  0.00000000000E+00 0.  1.
          4    1    1    2  501    0 -0.39334212677E+00  0.39609779867E+01  0.11468714257E+02  0.12139829955E+02  0.00000000000E+00 0.  1.
         -4    1    1    2    0  501  0.39334212677E+00 -0.39609779867E+01  0.11196682099E+02  0.11883171069E+02  0.00000000000E+00 0. -1.
<mgrwt>
<rscale>  0 0.39804604E+01</rscale>
<asrwt>0</asrwt>
<pdfrwt beam="1">0</pdfrwt>
<pdfrwt beam="2">0</pdfrwt>
<totfact> 0.86760290E+11</totfact>
</mgrwt>
</event>
<event>
 4    2  0.2027839E+006  0.3026874E+01  0.7546771E-02  0.2513755E+00
         22   -1    0    0    0    0  0.00000000000E+00  0.00000000000E+00  0.49302144833E+01  0.49302144833E+01  0.00000000000E+00 0. -1.
         22   -1    0    0    0    0 -0.00000000000E+00 -0.00000000000E+00 -0.34727398632E+01  0.34727398632E+01  0.00000000000E+00 0.  1.
          4    1    1    2  501    0 -0.25082564498E+01 -0.16942888101E+01  0.35933954154E+01  0.46983460496E+01  0.00000000000E+00 0. -1.
         -4    1    1    2    0  501  0.25082564498E+01  0.16942888101E+01 -0.21359207952E+01  0.37046082969E+01  0.00000000000E+00 0.  1.
<mgrwt>
<rscale>  0 0.30268738E+01</rscale>
<asrwt>0</asrwt>
<pdfrwt beam="1">0</pdfrwt>
<pdfrwt beam="2">0</pdfrwt>
<totfact> 0.87681666E+11</totfact>
</mgrwt>
</event>
<event>
 4    2  0.2027839E+006  0.4997796E+01  0.7546771E-02  0.2123267E+00
         22   -1    0    0    0    0  0.00000000000E+00  0.00000000000E+00  0.71514828898E+01  0.71514828898E+01  0.00000000000E+00 0. -1.
         22   -1    0    0    0    0 -0.00000000000E+00 -0.00000000000E+00 -0.37996209440E+01  0.37996209440E+01  0.00000000000E+00 0.  1.
          4    1    1    2  501    0 -0.36972626944E+01 -0.33627689808E+01  0.11970459473E+00  0.49992295246E+01  0.00000000000E+00 0. -1.
         -4    1    1    2    0  501  0.36972626944E+01  0.33627689808E+01  0.32321573511E+01  0.59518743092E+01  0.00000000000E+00 0.  1.
<mgrwt>
<rscale>  0 0.49977962E+01</rscale>
<asrwt>0</asrwt>
<pdfrwt beam="1">0</pdfrwt>
<pdfrwt beam="2">0</pdfrwt>
<totfact> 0.50677995E+11</totfact>
</mgrwt>
</event>
<event>
 4    2  0.2027839E+006  0.5653489E+01  0.7546771E-02  0.2052232E+00
         22   -1    0    0    0    0  0.00000000000E+00  0.00000000000E+00  0.56651350071E+02  0.56651350071E+02  0.00000000000E+00 0.  1.
         22   -1    0    0    0    0 -0.00000000000E+00 -0.00000000000E+00 -0.11675943100E+01  0.11675943100E+01  0.00000000000E+00 0. -1.
          4    1    1    2  501    0 -0.22062912923E+01  0.52052108123E+01  0.48524462268E+02  0.48852690604E+02  0.00000000000E+00 0.  1.
         -4    1    1    2    0  501  0.22062912923E+01 -0.52052108123E+01  0.69592934927E+01  0.89662537765E+01  0.00000000000E+00 0. -1.
<mgrwt>
<rscale>  0 0.56534893E+01</rscale>
<asrwt>0</asrwt>
<pdfrwt beam="1">0</pdfrwt>
<pdfrwt beam="2">0</pdfrwt>
<totfact> 0.14883426E+11</totfact>
</mgrwt>
</event>
<event>
 4    2  0.2027839E+006  0.2512653E+01  0.7546771E-02  0.2702978E+00
         22   -1    0    0    0    0  0.00000000000E+00  0.00000000000E+00  0.26334399439E+01  0.26334399439E+01  0.00000000000E+00 0. -1.
         22   -1    0    0    0    0 -0.00000000000E+00 -0.00000000000E+00 -0.26016546715E+01  0.26016546715E+01  0.00000000000E+00 0.  1.
          4    1    1    2  501    0 -0.78306558003E+00 -0.23875157731E+01  0.74930786096E+00  0.26220002937E+01  0.00000000000E+00 0. -1.
         -4    1    1    2    0  501  0.78306558003E+00  0.23875157731E+01 -0.71752258859E+00  0.26130943218E+01  0.00000000000E+00 0.  1.
<mgrwt>
<rscale>  0 0.25126526E+01</rscale>
<asrwt>0</asrwt>
<pdfrwt beam="1">0</pdfrwt>
<pdfrwt beam="2">0</pdfrwt>
<totfact> 0.25649533E+12</totfact>
</mgrwt>
</event>
<event>
 4    2  0.2027839E+006  0.2096777E+01  0.7546771E-02  0.2918330E+00
         22   -1    0    0    0    0  0.00000000000E+00  0.00000000000E+00  0.52121860959E+00  0.52121860959E+00  0.00000000000E+00 0.  1.
         22   -1    0    0    0    0 -0.00000000000E+00 -0.00000000000E+00 -0.99595620831E+01  0.99595620831E+01  0.00000000000E+00 0. -1.
          4    1    1    2  501    0 -0.16130381954E+01 -0.13396192096E+01 -0.67694746116E+01  0.70867664251E+01  0.00000000000E+00 0.  1.
         -4    1    1    2    0  501  0.16130381954E+01  0.13396192096E+01 -0.26688688619E+01  0.33940142676E+01  0.00000000000E+00 0. -1.
<mgrwt>
<rscale>  0 0.20967765E+01</rscale>
<asrwt>0</asrwt>
<pdfrwt beam="1">0</pdfrwt>
<pdfrwt beam="2">0</pdfrwt>
<totfact> 0.33421251E+12</totfact>
</mgrwt>
</event>
<event>
 4    2  0.2027839E+006  0.2426190E+01  0.7546771E-02  0.2741993E+00
         22   -1    0    0    0    0  0.00000000000E+00  0.00000000000E+00  0.19390235411E+02  0.19390235411E+02  0.00000000000E+00 0. -1.
         22   -1    0    0    0    0 -0.00000000000E+00 -0.00000000000E+00 -0.85154941820E+00  0.85154941820E+00  0.00000000000E+00 0.  1.
          4    1    1    2  501    0  0.10904329945E+01 -0.21673383198E+01  0.17388180373E+02  0.17556628840E+02  0.00000000000E+00 0. -1.
         -4    1    1    2    0  501 -0.10904329945E+01  0.21673383198E+01  0.11505056190E+01  0.26851559894E+01  0.00000000000E+00 0.  1.
<mgrwt>
<rscale>  0 0.24261903E+01</rscale>
<asrwt>0</asrwt>
<pdfrwt beam="1">0</pdfrwt>
<pdfrwt beam="2">0</pdfrwt>
<totfact> 0.84565830E+11</totfact>
</mgrwt>
</event>
<event>
 4    2  0.2027839E+006  0.4915806E+01  0.7546771E-02  0.2133190E+00
         22   -1    0    0    0    0  0.00000000000E+00  0.00000000000E+00  0.32807877202E+01  0.32807877202E+01  0.00000000000E+00 0. -1.
         22   -1    0    0    0    0 -0.00000000000E+00 -0.00000000000E+00 -0.82950236405E+01  0.82950236405E+01  0.00000000000E+00 0.  1.
          4    1    1    2  501    0 -0.49138286542E+01  0.13941051146E+00 -0.44444624952E+01  0.66270954577E+01  0.00000000000E+00 0.  1.
         -4    1    1    2    0  501  0.49138286542E+01 -0.13941051146E+00 -0.56977342514E+00  0.49487159031E+01  0.00000000000E+00 0. -1.
<mgrwt>
<rscale>  0 0.49158059E+01</rscale>
<asrwt>0</asrwt>
<pdfrwt beam="1">0</pdfrwt>
<pdfrwt beam="2">0</pdfrwt>
<totfact> 0.50385862E+11</totfact>
</mgrwt>
</event>
<event>
 4    2  0.2027839E+006  0.2305904E+01  0.7546771E-02  0.2800822E+00
         22   -1    0    0    0    0  0.00000000000E+00  0.00000000000E+00  0.63005813273E+00  0.63005813273E+00  0.00000000000E+00 0.  1.
         22   -1    0    0    0    0 -0.00000000000E+00 -0.00000000000E+00 -0.21330810703E+02  0.21330810703E+02  0.00000000000E+00 0. -1.
          4    1    1    2  501    0 -0.21417724631E+01  0.85440243492E+00 -0.18140842031E+01  0.29339554019E+01  0.00000000000E+00 0.  1.
         -4    1    1    2    0  501  0.21417724631E+01 -0.85440243492E+00 -0.18886668367E+02  0.19026913434E+02  0.00000000000E+00 0. -1.
<mgrwt>
<rscale>  0 0.23059039E+01</rscale>
<asrwt>0</asrwt>
<pdfrwt beam="1">0</pdfrwt>
<pdfrwt beam="2">0</pdfrwt>
<totfact> 0.10570791E+12</totfact>
</mgrwt>
</event>
<event>
 4    2  0.2027839E+006  0.2042904E+01  0.7546771E-02  0.2952354E+00
         22   -1    0    0    0    0  0.00000000000E+00  0.00000000000E+00  0.83298043377E+01  0.83298043377E+01  0.00000000000E+00 0.  1.
         22   -1    0    0    0    0 -0.00000000000E+00 -0.00000000000E+00 -0.18798027941E+01  0.18798027941E+01  0.00000000000E+00 0. -1.
          4    1    1    2  501    0  0.10057398435E+00 -0.20404266311E+01  0.75968958634E+01  0.78667835055E+01  0.00000000000E+00 0.  1.
         -4    1    1    2    0  501 -0.10057398435E+00  0.20404266311E+01 -0.11468943198E+01  0.23428236264E+01  0.00000000000E+00 0. -1.
<mgrwt>
<rscale>  0 0.20429038E+01</rscale>
<asrwt>0</asrwt>
<pdfrwt beam="1">0</pdfrwt>
<pdfrwt beam="2">0</pdfrwt>
<totfact> 0.95805518E+11</totfact>
</mgrwt>
</event>
<event>
 4    2  0.2027839E+006  0.2011135E+01  0.7546771E-02  0.2973251E+00
         22   -1    0    0    0    0  0.00000000000E+00  0.00000000000E+00  0.74630191567E+01  0.74630191567E+01  0.00000000000E+00 0.  1.
         22   -1    0    0    0    0 -0.00000000000E+00 -0.00000000000E+00 -0.69846116935E+00  0.69846116935E+00  0.00000000000E+00 0. -1.
          4    1    1    2  501    0  0.19094934723E+01 -0.63126683844E+00  0.53139164618E+01  0.56817577654E+01  0.00000000000E+00 0.  1.
         -4    1    1    2    0  501 -0.19094934723E+01  0.63126683844E+00  0.14506415256E+01  0.24797225606E+01  0.00000000000E+00 0. -1.
<mgrwt>
<rscale>  0 0.20111348E+01</rscale>
<asrwt>0</asrwt>
<pdfrwt beam="1">0</pdfrwt>
<pdfrwt beam="2">0</pdfrwt>
<totfact> 0.33963344E+12</totfact>
</mgrwt>
</event>
<event>
 4    2  0.2027839E+006  0.2418396E+01  0.7546771E-02  0.2745638E+00
         22   -1    0    0    0    0  0.00000000000E+00  0.00000000000E+00  0.28501631771E+01  0.28501631771E+01  0.00000000000E+00 0. -1.
         22   -1    0    0    0    0 -0.00000000000E+00 -0.00000000000E+00 -0.25782312939E+01  0.25782312939E+01  0.00000000000E+00 0.  1.
          4    1    1    2  501    0 -0.16925488814E+01 -0.17274017801E+01  0.13621446620E+01  0.27756218594E+01  0.00000000000E+00 0. -1.
         -4    1    1    2    0  501  0.16925488814E+01  0.17274017801E+01 -0.10902127788E+01  0.26527726117E+01  0.00000000000E+00 0.  1.
<mgrwt>
<rscale>  0 0.24183959E+01</rscale>
<asrwt>0</asrwt>
<pdfrwt beam="1">0</pdfrwt>
<pdfrwt beam="2">0</pdfrwt>
<totfact> 0.23638076E+12</totfact>
</mgrwt>
</event>
<event>
 4    2  0.2027839E+006  0.2498504E+01  0.7546771E-02  0.2709190E+00
         22   -1    0    0    0    0  0.00000000000E+00  0.00000000000E+00  0.12351034074E+01  0.12351034074E+01  0.00000000000E+00 0.  1.
         22   -1    0    0    0    0 -0.00000000000E+00 -0.00000000000E+00 -0.61566136623E+01  0.61566136623E+01  0.00000000000E+00 0. -1.
          4    1    1    2  501    0 -0.13199057226E+01  0.21214077347E+01 -0.89686314200E+00  0.26545970294E+01  0.00000000000E+00 0.  1.
         -4    1    1    2    0  501  0.13199057226E+01 -0.21214077347E+01 -0.40246471128E+01  0.47371200403E+01  0.00000000000E+00 0. -1.
<mgrwt>
<rscale>  0 0.24985039E+01</rscale>
<asrwt>0</asrwt>
<pdfrwt beam="1">0</pdfrwt>
<pdfrwt beam="2">0</pdfrwt>
<totfact> 0.22312915E+12</totfact>
</mgrwt>
</event>
<event>
 4    2  0.2027839E+006  0.2297960E+01  0.7546771E-02  0.2804911E+00
         22   -1    0    0    0    0  0.00000000000E+00  0.00000000000E+00  0.68538181304E+01  0.68538181304E+01  0.00000000000E+00 0.  1.
         22   -1    0    0    0    0 -0.00000000000E+00 -0.00000000000E+00 -0.14287529589E+01  0.14287529589E+01  0.00000000000E+00 0. -1.
          4    1    1    2  501    0  0.22282850384E+01  0.56157578266E+00  0.55235583183E+01  0.59825009877E+01  0.00000000000E+00 0.  1.
         -4    1    1    2    0  501 -0.22282850384E+01 -0.56157578266E+00 -0.98493146857E-01  0.23000701016E+01  0.00000000000E+00 0. -1.
<mgrwt>
<rscale>  0 0.22979603E+01</rscale>
<asrwt>0</asrwt>
<pdfrwt beam="1">0</pdfrwt>
<pdfrwt beam="2">0</pdfrwt>
<totfact> 0.16608797E+12</totfact>
</mgrwt>
</event>
<event>
 4    2  0.2027839E+006  0.2319456E+01  0.7546771E-02  0.2793906E+00
         22   -1    0    0    0    0  0.00000000000E+00  0.00000000000E+00  0.87450394421E+00  0.87450394421E+00  0.00000000000E+00 0. -1.
         22   -1    0    0    0    0 -0.00000000000E+00 -0.00000000000E+00 -0.62781637848E+01  0.62781637848E+01  0.00000000000E+00 0.  1.
          4    1    1    2  501    0  0.19358815234E+01 -0.12775911891E+01 -0.21946871377E+01  0.31932002993E+01  0.00000000000E+00 0.  1.
         -4    1    1    2    0  501 -0.19358815234E+01  0.12775911891E+01 -0.32089727030E+01  0.39594674298E+01  0.00000000000E+00 0. -1.
<mgrwt>
<rscale>  0 0.23194561E+01</rscale>
<asrwt>0</asrwt>
<pdfrwt beam="1">0</pdfrwt>
<pdfrwt beam="2">0</pdfrwt>
<totfact> 0.32342856E+12</totfact>
</mgrwt>
</event>
<event>
 4    2  0.2027839E+006  0.2151685E+01  0.7546771E-02  0.2885354E+00
         22   -1    0    0    0    0  0.00000000000E+00  0.00000000000E+00  0.13045384442E+01  0.13045384442E+01  0.00000000000E+00 0. -1.
         22   -1    0    0    0    0 -0.00000000000E+00 -0.00000000000E+00 -0.64380502212E+01  0.64380502212E+01  0.00000000000E+00 0.  1.
          4    1    1    2  501    0  0.21479735051E+01  0.12633389937E+00  0.26586227043E-01  0.21518497300E+01  0.00000000000E+00 0. -1.
         -4    1    1    2    0  501 -0.21479735051E+01 -0.12633389937E+00 -0.51600980040E+01  0.55907389354E+01  0.00000000000E+00 0.  1.
<mgrwt>
<rscale>  0 0.21516855E+01</rscale>
<asrwt>0</asrwt>
<pdfrwt beam="1">0</pdfrwt>
<pdfrwt beam="2">0</pdfrwt>
<totfact> 0.19867722E+12</totfact>
</mgrwt>
</event>
<event>
 4    2  0.2027839E+006  0.2204164E+01  0.7546771E-02  0.2855319E+00
         22   -1    0    0    0    0  0.00000000000E+00  0.00000000000E+00  0.27603894422E+01  0.27603894422E+01  0.00000000000E+00 0.  1.
         22   -1    0    0    0    0 -0.00000000000E+00 -0.00000000000E+00 -0.19282258956E+01  0.19282258956E+01  0.00000000000E+00 0. -1.
          4    1    1    2  501    0  0.21507813604E+01  0.48216219366E+00  0.11084803382E+01  0.24671987154E+01  0.00000000000E+00 0. -1.
         -4    1    1    2    0  501 -0.21507813604E+01 -0.48216219366E+00 -0.27631679163E+00  0.22214166224E+01  0.00000000000E+00 0.  1.
<mgrwt>
<rscale>  0 0.22041644E+01</rscale>
<asrwt>0</asrwt>
<pdfrwt beam="1">0</pdfrwt>
<pdfrwt beam="2">0</pdfrwt>
<totfact> 0.34370725E+12</totfact>
</mgrwt>
</event>
<event>
 4    2  0.2027839E+006  0.4549906E+01  0.7546771E-02  0.2183078E+00
         22   -1    0    0    0    0  0.00000000000E+00  0.00000000000E+00  0.73550442872E+01  0.73550442872E+01  0.00000000000E+00 0. -1.
         22   -1    0    0    0    0 -0.00000000000E+00 -0.00000000000E+00 -0.11711108284E+02  0.11711108284E+02  0.00000000000E+00 0.  1.
          4    1    1    2  501    0  0.14755110120E+01  0.43040110872E+01  0.61308656781E+01  0.76347336658E+01  0.00000000000E+00 0. -1.
         -4    1    1    2    0  501 -0.14755110120E+01 -0.43040110872E+01 -0.10486929675E+02  0.11431418905E+02  0.00000000000E+00 0.  1.
<mgrwt>
<rscale>  0 0.45499060E+01</rscale>
<asrwt>0</asrwt>
<pdfrwt beam="1">0</pdfrwt>
<pdfrwt beam="2">0</pdfrwt>
<totfact> 0.12764273E+11</totfact>
</mgrwt>
</event>
<event>
 4    2  0.2027839E+006  0.3587259E+01  0.7546771E-02  0.2363894E+00
         22   -1    0    0    0    0  0.00000000000E+00  0.00000000000E+00  0.38023642603E+01  0.38023642603E+01  0.00000000000E+00 0. -1.
         22   -1    0    0    0    0 -0.00000000000E+00 -0.00000000000E+00 -0.50977537380E+01  0.50977537380E+01  0.00000000000E+00 0.  1.
          4    1    1    2  501    0 -0.28243807046E+01 -0.22116283205E+01  0.19322458640E+01  0.40745552238E+01  0.00000000000E+00 0. -1.
         -4    1    1    2    0  501  0.28243807046E+01  0.22116283205E+01 -0.32276353417E+01  0.48255627746E+01  0.00000000000E+00 0.  1.
<mgrwt>
<rscale>  0 0.35872589E+01</rscale>
<asrwt>0</asrwt>
<pdfrwt beam="1">0</pdfrwt>
<pdfrwt beam="2">0</pdfrwt>
<totfact> 0.75770597E+11</totfact>
</mgrwt>
</event>
<event>
 4    2  0.2027839E+006  0.4172938E+01  0.7546771E-02  0.2245407E+00
         22   -1    0    0    0    0  0.00000000000E+00  0.00000000000E+00  0.83481467252E+01  0.83481467252E+01  0.00000000000E+00 0. -1.
         22   -1    0    0    0    0 -0.00000000000E+00 -0.00000000000E+00 -0.49773631054E+01  0.49773631054E+01  0.00000000000E+00 0.  1.
          4    1    1    2  501    0  0.23947508399E+01  0.34173934972E+01  0.67636281387E+01  0.79473313444E+01  0.00000000000E+00 0. -1.
         -4    1    1    2    0  501 -0.23947508399E+01 -0.34173934972E+01 -0.33928445189E+01  0.53781784862E+01  0.00000000000E+00 0.  1.
<mgrwt>
<rscale>  0 0.41729378E+01</rscale>
<asrwt>0</asrwt>
<pdfrwt beam="1">0</pdfrwt>
<pdfrwt beam="2">0</pdfrwt>
<totfact> 0.30611574E+11</totfact>
</mgrwt>
</event>
<event>
 4    2  0.2027839E+006  0.2079767E+01  0.7546771E-02  0.2928887E+00
         22   -1    0    0    0    0  0.00000000000E+00  0.00000000000E+00  0.13060219147E+02  0.13060219147E+02  0.00000000000E+00 0. -1.
         22   -1    0    0    0    0 -0.00000000000E+00 -0.00000000000E+00 -0.76811671737E+00  0.76811671737E+00  0.00000000000E+00 0.  1.
          4    1    1    2  501    0 -0.35548993061E+00 -0.20491601936E+01  0.11360759081E+02  0.11549557459E+02  0.00000000000E+00 0. -1.
         -4    1    1    2    0  501  0.35548993061E+00  0.20491601936E+01  0.93134334842E+00  0.22787784057E+01  0.00000000000E+00 0.  1.
<mgrwt>
<rscale>  0 0.20797670E+01</rscale>
<asrwt>0</asrwt>
<pdfrwt beam="1">0</pdfrwt>
<pdfrwt beam="2">0</pdfrwt>
<totfact> 0.15484885E+12</totfact>
</mgrwt>
</event>
<event>
 4    2  0.2027839E+006  0.2007881E+01  0.7546771E-02  0.2975427E+00
         22   -1    0    0    0    0  0.00000000000E+00  0.00000000000E+00  0.16485047519E+01  0.16485047519E+01  0.00000000000E+00 0. -1.
         22   -1    0    0    0    0 -0.00000000000E+00 -0.00000000000E+00 -0.32766384541E+01  0.32766384541E+01  0.00000000000E+00 0.  1.
          4    1    1    2  501    0  0.78214730003E+00  0.18492789769E+01  0.42611264013E+00  0.20525981379E+01  0.00000000000E+00 0. -1.
         -4    1    1    2    0  501 -0.78214730003E+00 -0.18492789769E+01 -0.20542463423E+01  0.28725450681E+01  0.00000000000E+00 0.  1.
<mgrwt>
<rscale>  0 0.20078813E+01</rscale>
<asrwt>0</asrwt>
<pdfrwt beam="1">0</pdfrwt>
<pdfrwt beam="2">0</pdfrwt>
<totfact> 0.33711098E+12</totfact>
</mgrwt>
</event>
<event>
 4    2  0.2027839E+006  0.2721869E+01  0.7546771E-02  0.2618122E+00
         22   -1    0    0    0    0  0.00000000000E+00  0.00000000000E+00  0.17585833346E+01  0.17585833346E+01  0.00000000000E+00 0.  1.
         22   -1    0    0    0    0 -0.00000000000E+00 -0.00000000000E+00 -0.75642855222E+01  0.75642855222E+01  0.00000000000E+00 0. -1.
          4    1    1    2  501    0 -0.76691151056E+00 -0.26115930567E+01  0.19994950092E+00  0.27292034299E+01  0.00000000000E+00 0.  1.
         -4    1    1    2    0  501  0.76691151056E+00  0.26115930567E+01 -0.60056516885E+01  0.65936654269E+01  0.00000000000E+00 0. -1.
<mgrwt>
<rscale>  0 0.27218691E+01</rscale>
<asrwt>0</asrwt>
<pdfrwt beam="1">0</pdfrwt>
<pdfrwt beam="2">0</pdfrwt>
<totfact> 0.11618794E+12</totfact>
</mgrwt>
</event>
<event>
 4    2  0.2027839E+006  0.1271654E+02  0.7546771E-02  0.1684765E+00
         22   -1    0    0    0    0  0.00000000000E+00  0.00000000000E+00  0.20785554882E+02  0.20785554882E+02  0.00000000000E+00 0. -1.
         22   -1    0    0    0    0 -0.00000000000E+00 -0.00000000000E+00 -0.86581063924E+01  0.86581063924E+01  0.00000000000E+00 0.  1.
          4    1    1    2  501    0  0.60875331101E+01  0.11164782355E+02  0.13751789550E+01  0.12790681825E+02  0.00000000000E+00 0.  1.
         -4    1    1    2    0  501 -0.60875331101E+01 -0.11164782355E+02  0.10752269534E+02  0.16652979449E+02  0.00000000000E+00 0. -1.
<mgrwt>
<rscale>  0 0.12716541E+02</rscale>
<asrwt>0</asrwt>
<pdfrwt beam="1">0</pdfrwt>
<pdfrwt beam="2">0</pdfrwt>
<totfact> 0.51720485E+10</totfact>
</mgrwt>
</event>
<event>
 4    2  0.2027839E+006  0.2697433E+01  0.7546771E-02  0.2627408E+00
         22   -1    0    0    0    0  0.00000000000E+00  0.00000000000E+00  0.29922272567E+01  0.29922272567E+01  0.00000000000E+00 0.  1.
         22   -1    0    0    0    0 -0.00000000000E+00 -0.00000000000E+00 -0.76378270631E+01  0.76378270631E+01  0.00000000000E+00 0. -1.
          4    1    1    2  501    0 -0.11541553502E+00 -0.26949624064E+01  0.20653225540E+01  0.33973078120E+01  0.00000000000E+00 0.  1.
         -4    1    1    2    0  501  0.11541553502E+00  0.26949624064E+01 -0.67109223605E+01  0.72327465078E+01  0.00000000000E+00 0. -1.
<mgrwt>
<rscale>  0 0.26974327E+01</rscale>
<asrwt>0</asrwt>
<pdfrwt beam="1">0</pdfrwt>
<pdfrwt beam="2">0</pdfrwt>
<totfact> 0.61961185E+11</totfact>
</mgrwt>
</event>
<event>
 4    2  0.2027839E+006  0.3081887E+01  0.7546771E-02  0.2496920E+00
         22   -1    0    0    0    0  0.00000000000E+00  0.00000000000E+00  0.28534880781E+02  0.28534880781E+02  0.00000000000E+00 0. -1.
         22   -1    0    0    0    0 -0.00000000000E+00 -0.00000000000E+00 -0.33356687269E+00  0.33356687269E+00  0.00000000000E+00 0.  1.
          4    1    1    2  501    0 -0.30114851740E+01 -0.65497086416E+00  0.14766613799E+02  0.15084790780E+02  0.00000000000E+00 0. -1.
         -4    1    1    2    0  501  0.30114851740E+01  0.65497086416E+00  0.13434700109E+02  0.13783656873E+02  0.00000000000E+00 0.  1.
<mgrwt>
<rscale>  0 0.30818874E+01</rscale>
<asrwt>0</asrwt>
<pdfrwt beam="1">0</pdfrwt>
<pdfrwt beam="2">0</pdfrwt>
<totfact> 0.15008863E+12</totfact>
</mgrwt>
</event>
<event>
 4    2  0.2027839E+006  0.2172996E+01  0.7546771E-02  0.2872989E+00
         22   -1    0    0    0    0  0.00000000000E+00  0.00000000000E+00  0.13398348282E+01  0.13398348282E+01  0.00000000000E+00 0. -1.
         22   -1    0    0    0    0 -0.00000000000E+00 -0.00000000000E+00 -0.37492373805E+01  0.37492373805E+01  0.00000000000E+00 0.  1.
          4    1    1    2  501    0 -0.20949409596E+01  0.57717719082E+00 -0.58137204273E+00  0.22494231674E+01  0.00000000000E+00 0. -1.
         -4    1    1    2    0  501  0.20949409596E+01 -0.57717719082E+00 -0.18280305095E+01  0.28396490413E+01  0.00000000000E+00 0.  1.
<mgrwt>
<rscale>  0 0.21729959E+01</rscale>
<asrwt>0</asrwt>
<pdfrwt beam="1">0</pdfrwt>
<pdfrwt beam="2">0</pdfrwt>
<totfact> 0.36538973E+12</totfact>
</mgrwt>
</event>
<event>
 4    2  0.2027839E+006  0.2936726E+01  0.7546771E-02  0.2542561E+00
         22   -1    0    0    0    0  0.00000000000E+00  0.00000000000E+00  0.58392838390E+01  0.58392838390E+01  0.00000000000E+00 0. -1.
         22   -1    0    0    0    0 -0.00000000000E+00 -0.00000000000E+00 -0.15156543181E+01  0.15156543181E+01  0.00000000000E+00 0.  1.
          4    1    1    2  501    0  0.21797317432E+01  0.19680273422E+01  0.27494368035E+01  0.40229050235E+01  0.00000000000E+00 0. -1.
         -4    1    1    2    0  501 -0.21797317432E+01 -0.19680273422E+01  0.15741927174E+01  0.33320331336E+01  0.00000000000E+00 0.  1.
<mgrwt>
<rscale>  0 0.29367264E+01</rscale>
<asrwt>0</asrwt>
<pdfrwt beam="1">0</pdfrwt>
<pdfrwt beam="2">0</pdfrwt>
<totfact> 0.18785245E+12</totfact>
</mgrwt>
</event>
<event>
 4    2  0.2027839E+006  0.2228767E+01  0.7546771E-02  0.2841706E+00
         22   -1    0    0    0    0  0.00000000000E+00  0.00000000000E+00  0.53662082903E+01  0.53662082903E+01  0.00000000000E+00 0.  1.
         22   -1    0    0    0    0 -0.00000000000E+00 -0.00000000000E+00 -0.92857270128E+00  0.92857270128E+00  0.00000000000E+00 0. -1.
          4    1    1    2  501    0 -0.22035099204E+01 -0.33458360662E+00  0.20432083096E+01  0.30235909703E+01  0.00000000000E+00 0. -1.
         -4    1    1    2    0  501  0.22035099204E+01  0.33458360662E+00  0.23944272794E+01  0.32711900213E+01  0.00000000000E+00 0.  1.
<mgrwt>
<rscale>  0 0.22287670E+01</rscale>
<asrwt>0</asrwt>
<pdfrwt beam="1">0</pdfrwt>
<pdfrwt beam="2">0</pdfrwt>
<totfact> 0.36402896E+12</totfact>
</mgrwt>
</event>
<event>
 4    2  0.2027839E+006  0.4500335E+01  0.7546771E-02  0.2190771E+00
         22   -1    0    0    0    0  0.00000000000E+00  0.00000000000E+00  0.92795456612E+00  0.92795456612E+00  0.00000000000E+00 0.  1.
         22   -1    0    0    0    0 -0.00000000000E+00 -0.00000000000E+00 -0.25662833188E+02  0.25662833188E+02  0.00000000000E+00 0. -1.
          4    1    1    2  501    0  0.37655110668E+01 -0.24645369140E+01 -0.72262083638E+01  0.85129961301E+01  0.00000000000E+00 0.  1.
         -4    1    1    2    0  501 -0.37655110668E+01  0.24645369140E+01 -0.17508670258E+02  0.18077791624E+02  0.00000000000E+00 0. -1.
<mgrwt>
<rscale>  0 0.45003351E+01</rscale>
<asrwt>0</asrwt>
<pdfrwt beam="1">0</pdfrwt>
<pdfrwt beam="2">0</pdfrwt>
<totfact> 0.53958054E+11</totfact>
</mgrwt>
</event>
<event>
 4    2  0.2027839E+006  0.2943293E+01  0.7546771E-02  0.2540409E+00
         22   -1    0    0    0    0  0.00000000000E+00  0.00000000000E+00  0.66502447099E+00  0.66502447099E+00  0.00000000000E+00 0. -1.
         22   -1    0    0    0    0 -0.00000000000E+00 -0.00000000000E+00 -0.15522288763E+02  0.15522288763E+02  0.00000000000E+00 0.  1.
          4    1    1    2  501    0 -0.29212018869E+01 -0.35993531401E+00 -0.41832447875E+01  0.51149301898E+01  0.00000000000E+00 0. -1.
         -4    1    1    2    0  501  0.29212018869E+01  0.35993531401E+00 -0.10674019504E+02  0.11072383044E+02  0.00000000000E+00 0.  1.
<mgrwt>
<rscale>  0 0.29432930E+01</rscale>
<asrwt>0</asrwt>
<pdfrwt beam="1">0</pdfrwt>
<pdfrwt beam="2">0</pdfrwt>
<totfact> 0.14754380E+12</totfact>
</mgrwt>
</event>
<event>
 4    2  0.2027839E+006  0.2806947E+01  0.7546771E-02  0.2586947E+00
         22   -1    0    0    0    0  0.00000000000E+00  0.00000000000E+00  0.54115239850E+00  0.54115239850E+00  0.00000000000E+00 0. -1.
         22   -1    0    0    0    0 -0.00000000000E+00 -0.00000000000E+00 -0.15956171404E+02  0.15956171404E+02  0.00000000000E+00 0.  1.
          4    1    1    2  501    0  0.24313158711E+01 -0.14027315734E+01 -0.10147867404E+02  0.10528920438E+02  0.00000000000E+00 0. -1.
         -4    1    1    2    0  501 -0.24313158711E+01  0.14027315734E+01 -0.52671516009E+01  0.59684033643E+01  0.00000000000E+00 0.  1.
<mgrwt>
<rscale>  0 0.28069472E+01</rscale>
<asrwt>0</asrwt>
<pdfrwt beam="1">0</pdfrwt>
<pdfrwt beam="2">0</pdfrwt>
<totfact> 0.18010318E+12</totfact>
</mgrwt>
</event>
<event>
 4    2  0.2027839E+006  0.2102650E+01  0.7546771E-02  0.2914723E+00
         22   -1    0    0    0    0  0.00000000000E+00  0.00000000000E+00  0.16855493974E+02  0.16855493974E+02  0.00000000000E+00 0. -1.
         22   -1    0    0    0    0 -0.00000000000E+00 -0.00000000000E+00 -0.51885687407E+00  0.51885687407E+00  0.00000000000E+00 0.  1.
          4    1    1    2  501    0  0.20680362702E+01  0.37995203780E+00  0.14277029411E+02  0.14431032755E+02  0.00000000000E+00 0. -1.
         -4    1    1    2    0  501 -0.20680362702E+01 -0.37995203780E+00  0.20596076889E+01  0.29433180933E+01  0.00000000000E+00 0.  1.
<mgrwt>
<rscale>  0 0.21026501E+01</rscale>
<asrwt>0</asrwt>
<pdfrwt beam="1">0</pdfrwt>
<pdfrwt beam="2">0</pdfrwt>
<totfact> 0.17648832E+12</totfact>
</mgrwt>
</event>
<event>
 4    2  0.2027839E+006  0.2459501E+01  0.7546771E-02  0.2726659E+00
         22   -1    0    0    0    0  0.00000000000E+00  0.00000000000E+00  0.78711668524E+01  0.78711668524E+01  0.00000000000E+00 0.  1.
         22   -1    0    0    0    0 -0.00000000000E+00 -0.00000000000E+00 -0.17003814728E+01  0.17003814728E+01  0.00000000000E+00 0. -1.
          4    1    1    2  501    0  0.17957186142E+01  0.16806364911E+01  0.66282596046E+01  0.70698634883E+01  0.00000000000E+00 0.  1.
         -4    1    1    2    0  501 -0.17957186142E+01 -0.16806364911E+01 -0.45747422505E+00  0.25016848369E+01  0.00000000000E+00 0. -1.
<mgrwt>
<rscale>  0 0.24595008E+01</rscale>
<asrwt>0</asrwt>
<pdfrwt beam="1">0</pdfrwt>
<pdfrwt beam="2">0</pdfrwt>
<totfact> 0.11515831E+12</totfact>
</mgrwt>
</event>
<event>
 4    2  0.2027839E+006  0.2621528E+01  0.7546771E-02  0.2657262E+00
         22   -1    0    0    0    0  0.00000000000E+00  0.00000000000E+00  0.91105764397E+02  0.91105764397E+02  0.00000000000E+00 0.  1.
         22   -1    0    0    0    0 -0.00000000000E+00 -0.00000000000E+00 -0.18874715511E+01  0.18874715511E+01  0.00000000000E+00 0. -1.
          4    1    1    2  501    0  0.11147478163E+01  0.23727084194E+01  0.90167166199E+02  0.90205267409E+02  0.00000000000E+00 0.  1.
         -4    1    1    2    0  501 -0.11147478163E+01 -0.23727084194E+01 -0.94887335281E+00  0.27879685395E+01  0.00000000000E+00 0. -1.
<mgrwt>
<rscale>  0 0.26215278E+01</rscale>
<asrwt>0</asrwt>
<pdfrwt beam="1">0</pdfrwt>
<pdfrwt beam="2">0</pdfrwt>
<totfact> 0.44865072E+10</totfact>
</mgrwt>
</event>
<event>
 4    2  0.2027839E+006  0.2777169E+01  0.7546771E-02  0.2597661E+00
         22   -1    0    0    0    0  0.00000000000E+00  0.00000000000E+00  0.14384792657E+01  0.14384792657E+01  0.00000000000E+00 0. -1.
         22   -1    0    0    0    0 -0.00000000000E+00 -0.00000000000E+00 -0.88594926613E+01  0.88594926613E+01  0.00000000000E+00 0.  1.
          4    1    1    2  501    0 -0.14743067335E+01 -0.23535270963E+01 -0.47520076184E+00  0.28175318812E+01  0.00000000000E+00 0. -1.
         -4    1    1    2    0  501  0.14743067335E+01  0.23535270963E+01 -0.69458126337E+01  0.74804400459E+01  0.00000000000E+00 0.  1.
<mgrwt>
<rscale>  0 0.27771694E+01</rscale>
<asrwt>0</asrwt>
<pdfrwt beam="1">0</pdfrwt>
<pdfrwt beam="2">0</pdfrwt>
<totfact> 0.12110192E+12</totfact>
</mgrwt>
</event>
<event>
 4    2  0.2027839E+006  0.2138828E+01  0.7546771E-02  0.2892929E+00
         22   -1    0    0    0    0  0.00000000000E+00  0.00000000000E+00  0.10494416839E+00  0.10494416839E+00  0.00000000000E+00 0.  1.
         22   -1    0    0    0    0 -0.00000000000E+00 -0.00000000000E+00 -0.76347590240E+02  0.76347590240E+02  0.00000000000E+00 0. -1.
          4    1    1    2  501    0 -0.21384885201E+01 -0.38096551561E-01 -0.13082385921E+02  0.13256070529E+02  0.00000000000E+00 0.  1.
         -4    1    1    2    0  501  0.21384885201E+01  0.38096551561E-01 -0.63160260151E+02  0.63196463879E+02  0.00000000000E+00 0. -1.
<mgrwt>
<rscale>  0 0.21388278E+01</rscale>
<asrwt>0</asrwt>
<pdfrwt beam="1">0</pdfrwt>
<pdfrwt beam="2">0</pdfrwt>
<totfact> 0.14940280E+12</totfact>
</mgrwt>
</event>
<event>
 4    2  0.2027839E+006  0.3144321E+01  0.7546771E-02  0.2478451E+00
         22   -1    0    0    0    0  0.00000000000E+00  0.00000000000E+00  0.35147082934E+01  0.35147082934E+01  0.00000000000E+00 0.  1.
         22   -1    0    0    0    0 -0.00000000000E+00 -0.00000000000E+00 -0.42320038740E+01  0.42320038740E+01  0.00000000000E+00 0. -1.
          4    1    1    2  501    0  0.30048052074E+01 -0.92622867215E+00  0.18842600793E+01  0.36656772817E+01  0.00000000000E+00 0.  1.
         -4    1    1    2    0  501 -0.30048052074E+01  0.92622867215E+00 -0.26015556599E+01  0.40810348858E+01  0.00000000000E+00 0. -1.
<mgrwt>
<rscale>  0 0.31443209E+01</rscale>
<asrwt>0</asrwt>
<pdfrwt beam="1">0</pdfrwt>
<pdfrwt beam="2">0</pdfrwt>
<totfact> 0.10354179E+12</totfact>
</mgrwt>
</event>
<event>
 4    2  0.2027839E+006  0.5828762E+01  0.7546771E-02  0.2035393E+00
         22   -1    0    0    0    0  0.00000000000E+00  0.00000000000E+00  0.85356739527E+01  0.85356739527E+01  0.00000000000E+00 0. -1.
         22   -1    0    0    0    0 -0.00000000000E+00 -0.00000000000E+00 -0.50206324599E+01  0.50206324599E+01  0.00000000000E+00 0.  1.
          4    1    1    2  501    0 -0.57890486509E+01 -0.67925534880E+00  0.48429811338E+01  0.75781883306E+01  0.00000000000E+00 0. -1.
         -4    1    1    2    0  501  0.57890486509E+01  0.67925534880E+00 -0.13279396410E+01  0.59781180820E+01  0.00000000000E+00 0.  1.
<mgrwt>
<rscale>  0 0.58287625E+01</rscale>
<asrwt>0</asrwt>
<pdfrwt beam="1">0</pdfrwt>
<pdfrwt beam="2">0</pdfrwt>
<totfact> 0.29500068E+11</totfact>
</mgrwt>
</event>
<event>
 4    2  0.2027839E+006  0.3438200E+01  0.7546771E-02  0.2399550E+00
         22   -1    0    0    0    0  0.00000000000E+00  0.00000000000E+00  0.37620898429E+02  0.37620898429E+02  0.00000000000E+00 0. -1.
         22   -1    0    0    0    0 -0.00000000000E+00 -0.00000000000E+00 -0.32026106248E+00  0.32026106248E+00  0.00000000000E+00 0.  1.
          4    1    1    2  501    0  0.20393676148E+01 -0.27680675396E+01  0.21255901093E+02  0.21532174749E+02  0.00000000000E+00 0. -1.
         -4    1    1    2    0  501 -0.20393676148E+01  0.27680675396E+01  0.16044736273E+02  0.16408984742E+02  0.00000000000E+00 0.  1.
<mgrwt>
<rscale>  0 0.34381998E+01</rscale>
<asrwt>0</asrwt>
<pdfrwt beam="1">0</pdfrwt>
<pdfrwt beam="2">0</pdfrwt>
<totfact> 0.11024718E+12</totfact>
</mgrwt>
</event>
<event>
 4    2  0.2027839E+006  0.2492650E+01  0.7546771E-02  0.2711779E+00
         22   -1    0    0    0    0  0.00000000000E+00  0.00000000000E+00  0.33278262465E+01  0.33278262465E+01  0.00000000000E+00 0. -1.
         22   -1    0    0    0    0 -0.00000000000E+00 -0.00000000000E+00 -0.21182000186E+01  0.21182000186E+01  0.00000000000E+00 0.  1.
          4    1    1    2  501    0 -0.71997238570E+00 -0.23864081462E+01 -0.33277154527E+00  0.25147645969E+01  0.00000000000E+00 0.  1.
         -4    1    1    2    0  501  0.71997238570E+00  0.23864081462E+01  0.15423977732E+01  0.29312616682E+01  0.00000000000E+00 0. -1.
<mgrwt>
<rscale>  0 0.24926500E+01</rscale>
<asrwt>0</asrwt>
<pdfrwt beam="1">0</pdfrwt>
<pdfrwt beam="2">0</pdfrwt>
<totfact> 0.24779281E+12</totfact>
</mgrwt>
</event>
<event>
 4    2  0.2027839E+006  0.2384555E+01  0.7546771E-02  0.2761723E+00
         22   -1    0    0    0    0  0.00000000000E+00  0.00000000000E+00  0.11841501812E+01  0.11841501812E+01  0.00000000000E+00 0. -1.
         22   -1    0    0    0    0 -0.00000000000E+00 -0.00000000000E+00 -0.54189832579E+01  0.54189832579E+01  0.00000000000E+00 0.  1.
          4    1    1    2  501    0  0.14417006778E+01  0.18993689969E+01 -0.10032424322E+01  0.25870057612E+01  0.00000000000E+00 0.  1.
         -4    1    1    2    0  501 -0.14417006778E+01 -0.18993689969E+01 -0.32315906445E+01  0.40161276778E+01  0.00000000000E+00 0. -1.
<mgrwt>
<rscale>  0 0.23845552E+01</rscale>
<asrwt>0</asrwt>
<pdfrwt beam="1">0</pdfrwt>
<pdfrwt beam="2">0</pdfrwt>
<totfact> 0.27253260E+12</totfact>
</mgrwt>
</event>
<event>
 4    2  0.2027839E+006  0.3707003E+01  0.7546771E-02  0.2337063E+00
         22   -1    0    0    0    0  0.00000000000E+00  0.00000000000E+00  0.14674781460E+01  0.14674781460E+01  0.00000000000E+00 0.  1.
         22   -1    0    0    0    0 -0.00000000000E+00 -0.00000000000E+00 -0.95303695830E+01  0.95303695830E+01  0.00000000000E+00 0. -1.
          4    1    1    2  501    0 -0.36878324164E+01  0.37651607927E+00 -0.47573804310E+01  0.60311309764E+01  0.00000000000E+00 0. -1.
         -4    1    1    2    0  501  0.36878324164E+01 -0.37651607927E+00 -0.33055110059E+01  0.49667167525E+01  0.00000000000E+00 0.  1.
<mgrwt>
<rscale>  0 0.37070031E+01</rscale>
<asrwt>0</asrwt>
<pdfrwt beam="1">0</pdfrwt>
<pdfrwt beam="2">0</pdfrwt>
<totfact> 0.10837267E+12</totfact>
</mgrwt>
</event>
<event>
 4    2  0.2027839E+006  0.2085216E+01  0.7546771E-02  0.2925487E+00
         22   -1    0    0    0    0  0.00000000000E+00  0.00000000000E+00  0.12327573063E+01  0.12327573063E+01  0.00000000000E+00 0.  1.
         22   -1    0    0    0    0 -0.00000000000E+00 -0.00000000000E+00 -0.94417376613E+01  0.94417376613E+01  0.00000000000E+00 0. -1.
          4    1    1    2  501    0 -0.16127239436E+01  0.13218349172E+01  0.11979695431E+00  0.20886544417E+01  0.00000000000E+00 0.  1.
         -4    1    1    2    0  501  0.16127239436E+01 -0.13218349172E+01 -0.83287773093E+01  0.85858405258E+01  0.00000000000E+00 0. -1.
<mgrwt>
<rscale>  0 0.20852161E+01</rscale>
<asrwt>0</asrwt>
<pdfrwt beam="1">0</pdfrwt>
<pdfrwt beam="2">0</pdfrwt>
<totfact> 0.13387285E+12</totfact>
</mgrwt>
</event>
<event>
 4    2  0.2027839E+006  0.6208513E+01  0.7546771E-02  0.2001478E+00
         22   -1    0    0    0    0  0.00000000000E+00  0.00000000000E+00  0.42212615607E+02  0.42212615607E+02  0.00000000000E+00 0. -1.
         22   -1    0    0    0    0 -0.00000000000E+00 -0.00000000000E+00 -0.22367670353E+01  0.22367670353E+01  0.00000000000E+00 0.  1.
          4    1    1    2  501    0  0.40534933938E+01 -0.47026402284E+01  0.37084522549E+02  0.37600630933E+02  0.00000000000E+00 0. -1.
         -4    1    1    2    0  501 -0.40534933938E+01  0.47026402284E+01  0.28913260220E+01  0.68487517093E+01  0.00000000000E+00 0.  1.
<mgrwt>
<rscale>  0 0.62085130E+01</rscale>
<asrwt>0</asrwt>
<pdfrwt beam="1">0</pdfrwt>
<pdfrwt beam="2">0</pdfrwt>
<totfact> 0.10365395E+11</totfact>
</mgrwt>
</event>
<event>
 4    2  0.2027839E+006  0.3312730E+01  0.7546771E-02  0.2431727E+00
         22   -1    0    0    0    0  0.00000000000E+00  0.00000000000E+00  0.31358667531E+01  0.31358667531E+01  0.00000000000E+00 0.  1.
         22   -1    0    0    0    0 -0.00000000000E+00 -0.00000000000E+00 -0.95257710282E+01  0.95257710282E+01  0.00000000000E+00 0. -1.
          4    1    1    2  501    0 -0.12458267669E+01  0.30695437266E+01  0.18404209374E+01  0.37896348437E+01  0.00000000000E+00 0.  1.
         -4    1    1    2    0  501  0.12458267669E+01 -0.30695437266E+01 -0.82303252125E+01  0.88720029376E+01  0.00000000000E+00 0. -1.
<mgrwt>
<rscale>  0 0.33127304E+01</rscale>
<asrwt>0</asrwt>
<pdfrwt beam="1">0</pdfrwt>
<pdfrwt beam="2">0</pdfrwt>
<totfact> 0.44959091E+11</totfact>
</mgrwt>
</event>
<event>
 4    2  0.2027839E+006  0.2919486E+01  0.7546771E-02  0.2548252E+00
         22   -1    0    0    0    0  0.00000000000E+00  0.00000000000E+00  0.15232680589E+01  0.15232680589E+01  0.00000000000E+00 0.  1.
         22   -1    0    0    0    0 -0.00000000000E+00 -0.00000000000E+00 -0.16383043053E+02  0.16383043053E+02  0.00000000000E+00 0. -1.
          4    1    1    2  501    0 -0.32484640427E+00 -0.29013569274E+01 -0.16480140173E+00  0.29241334970E+01  0.00000000000E+00 0.  1.
         -4    1    1    2    0  501  0.32484640427E+00  0.29013569274E+01 -0.14694973592E+02  0.14982177615E+02  0.00000000000E+00 0. -1.
<mgrwt>
<rscale>  0 0.29194858E+01</rscale>
<asrwt>0</asrwt>
<pdfrwt beam="1">0</pdfrwt>
<pdfrwt beam="2">0</pdfrwt>
<totfact> 0.53562201E+11</totfact>
</mgrwt>
</event>
<event>
 4    2  0.2027839E+006  0.5874293E+01  0.7546771E-02  0.2031148E+00
         22   -1    0    0    0    0  0.00000000000E+00  0.00000000000E+00  0.36739414910E+01  0.36739414910E+01  0.00000000000E+00 0.  1.
         22   -1    0    0    0    0 -0.00000000000E+00 -0.00000000000E+00 -0.11343057159E+02  0.11343057159E+02  0.00000000000E+00 0. -1.
          4    1    1    2  501    0  0.34721828751E+01  0.47382760107E+01 -0.69482304042E+01  0.90986383169E+01  0.00000000000E+00 0. -1.
         -4    1    1    2    0  501 -0.34721828751E+01 -0.47382760107E+01 -0.72088526395E+00  0.59183603333E+01  0.00000000000E+00 0.  1.
<mgrwt>
<rscale>  0 0.58742926E+01</rscale>
<asrwt>0</asrwt>
<pdfrwt beam="1">0</pdfrwt>
<pdfrwt beam="2">0</pdfrwt>
<totfact> 0.30218714E+11</totfact>
</mgrwt>
</event>
<event>
 4    2  0.2027839E+006  0.2037516E+01  0.7546771E-02  0.2955853E+00
         22   -1    0    0    0    0  0.00000000000E+00  0.00000000000E+00  0.52465084612E+02  0.52465084612E+02  0.00000000000E+00 0. -1.
         22   -1    0    0    0    0 -0.00000000000E+00 -0.00000000000E+00 -0.87103301727E-01  0.87103301727E-01  0.00000000000E+00 0.  1.
          4    1    1    2  501    0 -0.18542699496E+01  0.84448419299E+00  0.34139777552E+02  0.34200524585E+02  0.00000000000E+00 0. -1.
         -4    1    1    2    0  501  0.18542699496E+01 -0.84448419299E+00  0.18238203759E+02  0.18351663329E+02  0.00000000000E+00 0.  1.
<mgrwt>
<rscale>  0 0.20375158E+01</rscale>
<asrwt>0</asrwt>
<pdfrwt beam="1">0</pdfrwt>
<pdfrwt beam="2">0</pdfrwt>
<totfact> 0.30410684E+12</totfact>
</mgrwt>
</event>
<event>
 4    2  0.2027839E+006  0.4170904E+01  0.7546771E-02  0.2245769E+00
         22   -1    0    0    0    0  0.00000000000E+00  0.00000000000E+00  0.10020533733E+02  0.10020533733E+02  0.00000000000E+00 0. -1.
         22   -1    0    0    0    0 -0.00000000000E+00 -0.00000000000E+00 -0.17555162083E+01  0.17555162083E+01  0.00000000000E+00 0.  1.
          4    1    1    2  501    0 -0.11461681762E+01 -0.40103285663E+01  0.47520722566E+01  0.63228654445E+01  0.00000000000E+00 0.  1.
         -4    1    1    2    0  501  0.11461681762E+01  0.40103285663E+01  0.35129452679E+01  0.54531844965E+01  0.00000000000E+00 0. -1.
<mgrwt>
<rscale>  0 0.41709036E+01</rscale>
<asrwt>0</asrwt>
<pdfrwt beam="1">0</pdfrwt>
<pdfrwt beam="2">0</pdfrwt>
<totfact> 0.82963913E+11</totfact>
</mgrwt>
</event>
<event>
 4    2  0.2027839E+006  0.2069825E+01  0.7546771E-02  0.2935136E+00
         22   -1    0    0    0    0  0.00000000000E+00  0.00000000000E+00  0.20160206548E+02  0.20160206548E+02  0.00000000000E+00 0. -1.
         22   -1    0    0    0    0 -0.00000000000E+00 -0.00000000000E+00 -0.21294059255E+00  0.21294059255E+00  0.00000000000E+00 0.  1.
          4    1    1    2  501    0 -0.20683662353E+01 -0.77685641163E-01  0.10433587235E+02  0.10636912923E+02  0.00000000000E+00 0. -1.
         -4    1    1    2    0  501  0.20683662353E+01  0.77685641163E-01  0.95136787203E+01  0.97362342174E+01  0.00000000000E+00 0.  1.
<mgrwt>
<rscale>  0 0.20698246E+01</rscale>
<asrwt>0</asrwt>
<pdfrwt beam="1">0</pdfrwt>
<pdfrwt beam="2">0</pdfrwt>
<totfact> 0.38410516E+12</totfact>
</mgrwt>
</event>
<event>
 4    2  0.2027839E+006  0.2030168E+01  0.7546771E-02  0.2960654E+00
         22   -1    0    0    0    0  0.00000000000E+00  0.00000000000E+00  0.40772929350E+00  0.40772929350E+00  0.00000000000E+00 0. -1.
         22   -1    0    0    0    0 -0.00000000000E+00 -0.00000000000E+00 -0.10148179858E+02  0.10148179858E+02  0.00000000000E+00 0.  1.
          4    1    1    2  501    0 -0.15441427999E+01  0.13180304624E+01 -0.51997501748E+01  0.55820232145E+01  0.00000000000E+00 0. -1.
         -4    1    1    2    0  501  0.15441427999E+01 -0.13180304624E+01 -0.45407003899E+01  0.49738859373E+01  0.00000000000E+00 0.  1.
<mgrwt>
<rscale>  0 0.20301678E+01</rscale>
<asrwt>0</asrwt>
<pdfrwt beam="1">0</pdfrwt>
<pdfrwt beam="2">0</pdfrwt>
<totfact> 0.43095758E+12</totfact>
</mgrwt>
</event>
<event>
 4    2  0.2027839E+006  0.2378056E+01  0.7546771E-02  0.2764861E+00
         22   -1    0    0    0    0  0.00000000000E+00  0.00000000000E+00  0.83263040394E+00  0.83263040394E+00  0.00000000000E+00 0. -1.
         22   -1    0    0    0    0 -0.00000000000E+00 -0.00000000000E+00 -0.79991504140E+01  0.79991504140E+01  0.00000000000E+00 0.  1.
          4    1    1    2  501    0 -0.15877782794E+01  0.17703422894E+01 -0.18677508527E+01  0.30238460500E+01  0.00000000000E+00 0. -1.
         -4    1    1    2    0  501  0.15877782794E+01 -0.17703422894E+01 -0.52987691573E+01  0.58079347679E+01  0.00000000000E+00 0.  1.
<mgrwt>
<rscale>  0 0.23780563E+01</rscale>
<asrwt>0</asrwt>
<pdfrwt beam="1">0</pdfrwt>
<pdfrwt beam="2">0</pdfrwt>
<totfact> 0.25594559E+12</totfact>
</mgrwt>
</event>
<event>
 4    2  0.2027839E+006  0.3913640E+01  0.7546771E-02  0.2294113E+00
         22   -1    0    0    0    0  0.00000000000E+00  0.00000000000E+00  0.17839097587E+02  0.17839097587E+02  0.00000000000E+00 0.  1.
         22   -1    0    0    0    0 -0.00000000000E+00 -0.00000000000E+00 -0.12920437569E+01  0.12920437569E+01  0.00000000000E+00 0. -1.
          4    1    1    2  501    0  0.26579162048E+01  0.28726402583E+01  0.13813919964E+02  0.14357610016E+02  0.00000000000E+00 0.  1.
         -4    1    1    2    0  501 -0.26579162048E+01 -0.28726402583E+01  0.27331338659E+01  0.47735313275E+01  0.00000000000E+00 0. -1.
<mgrwt>
<rscale>  0 0.39136403E+01</rscale>
<asrwt>0</asrwt>
<pdfrwt beam="1">0</pdfrwt>
<pdfrwt beam="2">0</pdfrwt>
<totfact> 0.58244324E+11</totfact>
</mgrwt>
</event>
<event>
 4    2  0.2027839E+006  0.2331231E+01  0.7546771E-02  0.2787959E+00
         22   -1    0    0    0    0  0.00000000000E+00  0.00000000000E+00  0.75785141097E+00  0.75785141097E+00  0.00000000000E+00 0. -1.
         22   -1    0    0    0    0 -0.00000000000E+00 -0.00000000000E+00 -0.74553647271E+01  0.74553647271E+01  0.00000000000E+00 0.  1.
          4    1    1    2  501    0 -0.84720551558E+00 -0.21718375979E+01 -0.25468888992E+01  0.34527204929E+01  0.00000000000E+00 0. -1.
         -4    1    1    2    0  501  0.84720551558E+00  0.21718375979E+01 -0.41506244170E+01  0.47604956452E+01  0.00000000000E+00 0.  1.
<mgrwt>
<rscale>  0 0.23312305E+01</rscale>
<asrwt>0</asrwt>
<pdfrwt beam="1">0</pdfrwt>
<pdfrwt beam="2">0</pdfrwt>
<totfact> 0.30997131E+12</totfact>
</mgrwt>
</event>
<event>
 4    2  0.2027839E+006  0.2114546E+01  0.7546771E-02  0.2907477E+00
         22   -1    0    0    0    0  0.00000000000E+00  0.00000000000E+00  0.50514498878E+01  0.50514498878E+01  0.00000000000E+00 0. -1.
         22   -1    0    0    0    0 -0.00000000000E+00 -0.00000000000E+00 -0.24531997938E+01  0.24531997938E+01  0.00000000000E+00 0.  1.
          4    1    1    2  501    0  0.13328422568E+01 -0.16415959126E+01  0.42990714043E+01  0.47909623836E+01  0.00000000000E+00 0. -1.
         -4    1    1    2    0  501 -0.13328422568E+01  0.16415959126E+01 -0.17008213103E+01  0.27136872980E+01  0.00000000000E+00 0.  1.
<mgrwt>
<rscale>  0 0.21145462E+01</rscale>
<asrwt>0</asrwt>
<pdfrwt beam="1">0</pdfrwt>
<pdfrwt beam="2">0</pdfrwt>
<totfact> 0.12781980E+12</totfact>
</mgrwt>
</event>
<event>
 4    2  0.2027839E+006  0.2546876E+01  0.7546771E-02  0.2688218E+00
         22   -1    0    0    0    0  0.00000000000E+00  0.00000000000E+00  0.43936445017E+01  0.43936445017E+01  0.00000000000E+00 0. -1.
         22   -1    0    0    0    0 -0.00000000000E+00 -0.00000000000E+00 -0.20728947721E+01  0.20728947721E+01  0.00000000000E+00 0.  1.
          4    1    1    2  501    0 -0.19795926315E+01  0.16024327770E+01  0.28948700564E+01  0.38557554947E+01  0.00000000000E+00 0. -1.
         -4    1    1    2    0  501  0.19795926315E+01 -0.16024327770E+01 -0.57412032678E+00  0.26107837790E+01  0.00000000000E+00 0.  1.
<mgrwt>
<rscale>  0 0.25468761E+01</rscale>
<asrwt>0</asrwt>
<pdfrwt beam="1">0</pdfrwt>
<pdfrwt beam="2">0</pdfrwt>
<totfact> 0.18329174E+12</totfact>
</mgrwt>
</event>
<event>
 4    2  0.2027839E+006  0.2358711E+01  0.7546771E-02  0.2774299E+00
         22   -1    0    0    0    0  0.00000000000E+00  0.00000000000E+00  0.38243228588E+01  0.38243228588E+01  0.00000000000E+00 0. -1.
         22   -1    0    0    0    0 -0.00000000000E+00 -0.00000000000E+00 -0.21182648121E+01  0.21182648121E+01  0.00000000000E+00 0.  1.
          4    1    1    2  501    0  0.20914728335E+01 -0.10905312824E+01  0.25159578009E+01  0.34487042128E+01  0.00000000000E+00 0. -1.
         -4    1    1    2    0  501 -0.20914728335E+01  0.10905312824E+01 -0.80989975421E+00  0.24938834582E+01  0.00000000000E+00 0.  1.
<mgrwt>
<rscale>  0 0.23587109E+01</rscale>
<asrwt>0</asrwt>
<pdfrwt beam="1">0</pdfrwt>
<pdfrwt beam="2">0</pdfrwt>
<totfact> 0.21047984E+12</totfact>
</mgrwt>
</event>
<event>
 4    2  0.2027839E+006  0.2380752E+01  0.7546771E-02  0.2763557E+00
         22   -1    0    0    0    0  0.00000000000E+00  0.00000000000E+00  0.75737438713E+01  0.75737438713E+01  0.00000000000E+00 0. -1.
         22   -1    0    0    0    0 -0.00000000000E+00 -0.00000000000E+00 -0.74935926014E+00  0.74935926014E+00  0.00000000000E+00 0.  1.
          4    1    1    2  501    0 -0.34856241810E+00 -0.23550970489E+01  0.35632439440E+01  0.42854037468E+01  0.00000000000E+00 0. -1.
         -4    1    1    2    0  501  0.34856241810E+00  0.23550970489E+01  0.32611406672E+01  0.40376993846E+01  0.00000000000E+00 0.  1.
<mgrwt>
<rscale>  0 0.23807515E+01</rscale>
<asrwt>0</asrwt>
<pdfrwt beam="1">0</pdfrwt>
<pdfrwt beam="2">0</pdfrwt>
<totfact> 0.30809413E+12</totfact>
</mgrwt>
</event>
<event>
 4    2  0.2027839E+006  0.2714594E+01  0.7546771E-02  0.2620871E+00
         22   -1    0    0    0    0  0.00000000000E+00  0.00000000000E+00  0.39940818151E+01  0.39940818151E+01  0.00000000000E+00 0.  1.
         22   -1    0    0    0    0 -0.00000000000E+00 -0.00000000000E+00 -0.29403304664E+01  0.29403304664E+01  0.00000000000E+00 0. -1.
          4    1    1    2  501    0 -0.20769242915E+01 -0.17479723971E+01 -0.15893262272E+01  0.31456286924E+01  0.00000000000E+00 0. -1.
         -4    1    1    2    0  501  0.20769242915E+01  0.17479723971E+01  0.26430775759E+01  0.37887835892E+01  0.00000000000E+00 0.  1.
<mgrwt>
<rscale>  0 0.27145943E+01</rscale>
<asrwt>0</asrwt>
<pdfrwt beam="1">0</pdfrwt>
<pdfrwt beam="2">0</pdfrwt>
<totfact> 0.13657907E+12</totfact>
</mgrwt>
</event>
<event>
 4    2  0.2027839E+006  0.2157981E+01  0.7546771E-02  0.2881677E+00
         22   -1    0    0    0    0  0.00000000000E+00  0.00000000000E+00  0.91457697809E+00  0.91457697809E+00  0.00000000000E+00 0.  1.
         22   -1    0    0    0    0 -0.00000000000E+00 -0.00000000000E+00 -0.73066231891E+01  0.73066231891E+01  0.00000000000E+00 0. -1.
          4    1    1    2  501    0 -0.20907718168E+01  0.53437564673E+00 -0.93288008605E+00  0.23509890209E+01  0.00000000000E+00 0.  1.
         -4    1    1    2    0  501  0.20907718168E+01 -0.53437564673E+00 -0.54591661250E+01  0.58702111463E+01  0.00000000000E+00 0. -1.
<mgrwt>
<rscale>  0 0.21579815E+01</rscale>
<asrwt>0</asrwt>
<pdfrwt beam="1">0</pdfrwt>
<pdfrwt beam="2">0</pdfrwt>
<totfact> 0.25636746E+12</totfact>
</mgrwt>
</event>
<event>
 4    2  0.2027839E+006  0.3141762E+01  0.7546771E-02  0.2479195E+00
         22   -1    0    0    0    0  0.00000000000E+00  0.00000000000E+00  0.25161476617E+00  0.25161476617E+00  0.00000000000E+00 0. -1.
         22   -1    0    0    0    0 -0.00000000000E+00 -0.00000000000E+00 -0.41309679287E+02  0.41309679287E+02  0.00000000000E+00 0.  1.
          4    1    1    2  501    0 -0.17544766263E+01  0.26062387631E+01 -0.15865602715E+02  0.16173682890E+02  0.00000000000E+00 0. -1.
         -4    1    1    2    0  501  0.17544766263E+01 -0.26062387631E+01 -0.25192461805E+02  0.25387611162E+02  0.00000000000E+00 0.  1.
<mgrwt>
<rscale>  0 0.31417620E+01</rscale>
<asrwt>0</asrwt>
<pdfrwt beam="1">0</pdfrwt>
<pdfrwt beam="2">0</pdfrwt>
<totfact> 0.12796221E+12</totfact>
</mgrwt>
</event>
<event>
 4    2  0.2027839E+006  0.3539723E+01  0.7546771E-02  0.2374981E+00
         22   -1    0    0    0    0  0.00000000000E+00  0.00000000000E+00  0.13319326871E+01  0.13319326871E+01  0.00000000000E+00 0. -1.
         22   -1    0    0    0    0 -0.00000000000E+00 -0.00000000000E+00 -0.94371662903E+01  0.94371662903E+01  0.00000000000E+00 0.  1.
          4    1    1    2  501    0  0.23056434892E+01  0.26858228457E+01 -0.37487369458E+01  0.51558379481E+01  0.00000000000E+00 0. -1.
         -4    1    1    2    0  501 -0.23056434892E+01 -0.26858228457E+01 -0.43564966574E+01  0.56132610293E+01  0.00000000000E+00 0.  1.
<mgrwt>
<rscale>  0 0.35397226E+01</rscale>
<asrwt>0</asrwt>
<pdfrwt beam="1">0</pdfrwt>
<pdfrwt beam="2">0</pdfrwt>
<totfact> 0.12258591E+12</totfact>
</mgrwt>
</event>
<event>
 4    2  0.2027839E+006  0.2322357E+01  0.7546771E-02  0.2792436E+00
         22   -1    0    0    0    0  0.00000000000E+00  0.00000000000E+00  0.61763949008E+00  0.61763949008E+00  0.00000000000E+00 0. -1.
         22   -1    0    0    0    0 -0.00000000000E+00 -0.00000000000E+00 -0.20360985925E+02  0.20360985925E+02  0.00000000000E+00 0.  1.
          4    1    1    2  501    0 -0.19972714833E+01  0.11850094401E+01 -0.19445584586E+01  0.30289681989E+01  0.00000000000E+00 0. -1.
         -4    1    1    2    0  501  0.19972714833E+01 -0.11850094401E+01 -0.17798787977E+02  0.17949657217E+02  0.00000000000E+00 0.  1.
<mgrwt>
<rscale>  0 0.23223567E+01</rscale>
<asrwt>0</asrwt>
<pdfrwt beam="1">0</pdfrwt>
<pdfrwt beam="2">0</pdfrwt>
<totfact> 0.11459231E+12</totfact>
</mgrwt>
</event>
<event>
 4    2  0.2027839E+006  0.2006670E+01  0.7546771E-02  0.2976240E+00
         22   -1    0    0    0    0  0.00000000000E+00  0.00000000000E+00  0.21309339968E+00  0.21309339968E+00  0.00000000000E+00 0. -1.
         22   -1    0    0    0    0 -0.00000000000E+00 -0.00000000000E+00 -0.21143594977E+02  0.21143594977E+02  0.00000000000E+00 0.  1.
          4    1    1    2  501    0  0.11887186237E+01 -0.16166855425E+01 -0.69840979556E+01  0.72666600555E+01  0.00000000000E+00 0. -1.
         -4    1    1    2    0  501 -0.11887186237E+01  0.16166855425E+01 -0.13946403622E+02  0.14090028321E+02  0.00000000000E+00 0.  1.
<mgrwt>
<rscale>  0 0.20066699E+01</rscale>
<asrwt>0</asrwt>
<pdfrwt beam="1">0</pdfrwt>
<pdfrwt beam="2">0</pdfrwt>
<totfact> 0.36162500E+12</totfact>
</mgrwt>
</event>
<event>
 4    2  0.2027839E+006  0.2869235E+01  0.7546771E-02  0.2565191E+00
         22   -1    0    0    0    0  0.00000000000E+00  0.00000000000E+00  0.66412793384E+01  0.66412793384E+01  0.00000000000E+00 0. -1.
         22   -1    0    0    0    0 -0.00000000000E+00 -0.00000000000E+00 -0.86410791763E+01  0.86410791763E+01  0.00000000000E+00 0.  1.
          4    1    1    2  501    0  0.28016849783E+01  0.61892861693E+00  0.60719940158E+01  0.67157741682E+01  0.00000000000E+00 0. -1.
         -4    1    1    2    0  501 -0.28016849783E+01 -0.61892861693E+00 -0.80717938537E+01  0.85665843465E+01  0.00000000000E+00 0.  1.
<mgrwt>
<rscale>  0 0.28692353E+01</rscale>
<asrwt>0</asrwt>
<pdfrwt beam="1">0</pdfrwt>
<pdfrwt beam="2">0</pdfrwt>
<totfact> 0.20841856E+11</totfact>
</mgrwt>
</event>
<event>
 4    2  0.2027839E+006  0.2228431E+01  0.7546771E-02  0.2841890E+00
         22   -1    0    0    0    0  0.00000000000E+00  0.00000000000E+00  0.70506904364E+00  0.70506904364E+00  0.00000000000E+00 0.  1.
         22   -1    0    0    0    0 -0.00000000000E+00 -0.00000000000E+00 -0.94450560464E+01  0.94450560464E+01  0.00000000000E+00 0. -1.
          4    1    1    2  501    0 -0.15550040721E+00 -0.22229986751E+01 -0.18107147442E+01  0.28713396474E+01  0.00000000000E+00 0. -1.
         -4    1    1    2    0  501  0.15550040721E+00  0.22229986751E+01 -0.69292722586E+01  0.72787854426E+01  0.00000000000E+00 0.  1.
<mgrwt>
<rscale>  0 0.22284307E+01</rscale>
<asrwt>0</asrwt>
<pdfrwt beam="1">0</pdfrwt>
<pdfrwt beam="2">0</pdfrwt>
<totfact> 0.25310106E+12</totfact>
</mgrwt>
</event>
<event>
 4    2  0.2027839E+006  0.3842086E+01  0.7546771E-02  0.2308536E+00
         22   -1    0    0    0    0  0.00000000000E+00  0.00000000000E+00  0.58679690375E+02  0.58679690375E+02  0.00000000000E+00 0.  1.
         22   -1    0    0    0    0 -0.00000000000E+00 -0.00000000000E+00 -0.27290247771E+00  0.27290247771E+00  0.00000000000E+00 0. -1.
          4    1    1    2  501    0 -0.56779148580E+00 -0.37998997694E+01  0.37445978554E+02  0.37642568129E+02  0.00000000000E+00 0.  1.
         -4    1    1    2    0  501  0.56779148580E+00  0.37998997694E+01  0.20960809343E+02  0.21310024724E+02  0.00000000000E+00 0. -1.
<mgrwt>
<rscale>  0 0.38420861E+01</rscale>
<asrwt>0</asrwt>
<pdfrwt beam="1">0</pdfrwt>
<pdfrwt beam="2">0</pdfrwt>
<totfact> 0.73577858E+11</totfact>
</mgrwt>
</event>
<event>
 4    2  0.2027839E+006  0.2059863E+01  0.7546771E-02  0.2941456E+00
         22   -1    0    0    0    0  0.00000000000E+00  0.00000000000E+00  0.68881664552E+00  0.68881664552E+00  0.00000000000E+00 0.  1.
         22   -1    0    0    0    0 -0.00000000000E+00 -0.00000000000E+00 -0.64521542030E+01  0.64521542030E+01  0.00000000000E+00 0. -1.
          4    1    1    2  501    0 -0.10079077415E+01 -0.17964291812E+01 -0.21217598039E+01  0.29571777904E+01  0.00000000000E+00 0.  1.
         -4    1    1    2    0  501  0.10079077415E+01  0.17964291812E+01 -0.36415777536E+01  0.41837930582E+01  0.00000000000E+00 0. -1.
<mgrwt>
<rscale>  0 0.20598631E+01</rscale>
<asrwt>0</asrwt>
<pdfrwt beam="1">0</pdfrwt>
<pdfrwt beam="2">0</pdfrwt>
<totfact> 0.41063868E+12</totfact>
</mgrwt>
</event>
<event>
 4    2  0.2027839E+006  0.2312731E+01  0.7546771E-02  0.2797328E+00
         22   -1    0    0    0    0  0.00000000000E+00  0.00000000000E+00  0.72240605239E+01  0.72240605239E+01  0.00000000000E+00 0. -1.
         22   -1    0    0    0    0 -0.00000000000E+00 -0.00000000000E+00 -0.78946983017E+00  0.78946983017E+00  0.00000000000E+00 0.  1.
          4    1    1    2  501    0 -0.58587529597E-02  0.23127238732E+01  0.42161769727E+01  0.48088329462E+01  0.00000000000E+00 0. -1.
         -4    1    1    2    0  501  0.58587529597E-02 -0.23127238732E+01  0.22184137209E+01  0.32046974079E+01  0.00000000000E+00 0.  1.
<mgrwt>
<rscale>  0 0.23127313E+01</rscale>
<asrwt>0</asrwt>
<pdfrwt beam="1">0</pdfrwt>
<pdfrwt beam="2">0</pdfrwt>
<totfact> 0.30728050E+12</totfact>
</mgrwt>
</event>
<event>
 4    2  0.2027839E+006  0.2585761E+01  0.7546771E-02  0.2671887E+00
         22   -1    0    0    0    0  0.00000000000E+00  0.00000000000E+00  0.74987551654E+01  0.74987551654E+01  0.00000000000E+00 0. -1.
         22   -1    0    0    0    0 -0.00000000000E+00 -0.00000000000E+00 -0.11565448770E+01  0.11565448770E+01  0.00000000000E+00 0.  1.
          4    1    1    2  501    0 -0.24754466248E+01 -0.74721243465E+00  0.52422901141E+01  0.58453201841E+01  0.00000000000E+00 0.  1.
         -4    1    1    2    0  501  0.24754466248E+01  0.74721243465E+00  0.10999201743E+01  0.28099798583E+01  0.00000000000E+00 0. -1.
<mgrwt>
<rscale>  0 0.25857615E+01</rscale>
<asrwt>0</asrwt>
<pdfrwt beam="1">0</pdfrwt>
<pdfrwt beam="2">0</pdfrwt>
<totfact> 0.19006652E+12</totfact>
</mgrwt>
</event>
<event>
 4    2  0.2027839E+006  0.2276431E+01  0.7546771E-02  0.2816131E+00
         22   -1    0    0    0    0  0.00000000000E+00  0.00000000000E+00  0.76033884223E-01  0.76033884223E-01  0.00000000000E+00 0. -1.
         22   -1    0    0    0    0 -0.00000000000E+00 -0.00000000000E+00 -0.86421172499E+02  0.86421172499E+02  0.00000000000E+00 0.  1.
          4    1    1    2  501    0  0.19438672054E+01 -0.11847025558E+01 -0.23289753318E+02  0.23400742498E+02  0.00000000000E+00 0. -1.
         -4    1    1    2    0  501 -0.19438672054E+01  0.11847025558E+01 -0.63055385298E+02  0.63096463886E+02  0.00000000000E+00 0.  1.
<mgrwt>
<rscale>  0 0.22764314E+01</rscale>
<asrwt>0</asrwt>
<pdfrwt beam="1">0</pdfrwt>
<pdfrwt beam="2">0</pdfrwt>
<totfact> 0.17989880E+12</totfact>
</mgrwt>
</event>
<event>
 4    2  0.2027839E+006  0.3724390E+01  0.7546771E-02  0.2333292E+00
         22   -1    0    0    0    0  0.00000000000E+00  0.00000000000E+00  0.63880160503E+01  0.63880160503E+01  0.00000000000E+00 0.  1.
         22   -1    0    0    0    0 -0.00000000000E+00 -0.00000000000E+00 -0.28057391062E+01  0.28057391062E+01  0.00000000000E+00 0. -1.
          4    1    1    2  501    0  0.32532071876E+00  0.37101542504E+01  0.39768484331E+01  0.54485228817E+01  0.00000000000E+00 0.  1.
         -4    1    1    2    0  501 -0.32532071876E+00 -0.37101542504E+01 -0.39457148911E+00  0.37452322748E+01  0.00000000000E+00 0. -1.
<mgrwt>
<rscale>  0 0.37243896E+01</rscale>
<asrwt>0</asrwt>
<pdfrwt beam="1">0</pdfrwt>
<pdfrwt beam="2">0</pdfrwt>
<totfact> 0.82711860E+11</totfact>
</mgrwt>
</event>
<event>
 4    2  0.2027839E+006  0.4978796E+01  0.7546771E-02  0.2125543E+00
         22   -1    0    0    0    0  0.00000000000E+00  0.00000000000E+00  0.20070961516E+01  0.20070961516E+01  0.00000000000E+00 0.  1.
         22   -1    0    0    0    0 -0.00000000000E+00 -0.00000000000E+00 -0.21421939568E+02  0.21421939568E+02  0.00000000000E+00 0. -1.
          4    1    1    2  501    0  0.49747592986E+01 -0.20045166445E+00 -0.20842469888E+01  0.53974527750E+01  0.00000000000E+00 0.  1.
         -4    1    1    2    0  501 -0.49747592986E+01  0.20045166445E+00 -0.17330596427E+02  0.18031582944E+02  0.00000000000E+00 0. -1.
<mgrwt>
<rscale>  0 0.49787961E+01</rscale>
<asrwt>0</asrwt>
<pdfrwt beam="1">0</pdfrwt>
<pdfrwt beam="2">0</pdfrwt>
<totfact> 0.27913652E+11</totfact>
</mgrwt>
</event>
<event>
 4    2  0.2027839E+006  0.3168312E+01  0.7546771E-02  0.2471527E+00
         22   -1    0    0    0    0  0.00000000000E+00  0.00000000000E+00  0.79599552232E+01  0.79599552232E+01  0.00000000000E+00 0. -1.
         22   -1    0    0    0    0 -0.00000000000E+00 -0.00000000000E+00 -0.12735944088E+01  0.12735944088E+01  0.00000000000E+00 0.  1.
          4    1    1    2  501    0  0.13621656869E+00 -0.31653825257E+01  0.38006844533E+01  0.49480707150E+01  0.00000000000E+00 0. -1.
         -4    1    1    2    0  501 -0.13621656869E+00  0.31653825257E+01  0.28856763611E+01  0.42854789170E+01  0.00000000000E+00 0.  1.
<mgrwt>
<rscale>  0 0.31683121E+01</rscale>
<asrwt>0</asrwt>
<pdfrwt beam="1">0</pdfrwt>
<pdfrwt beam="2">0</pdfrwt>
<totfact> 0.15842614E+12</totfact>
</mgrwt>
</event>
<event>
 4    2  0.2027839E+006  0.4326736E+01  0.7546771E-02  0.2218874E+00
         22   -1    0    0    0    0  0.00000000000E+00  0.00000000000E+00  0.38880922581E+00  0.38880922581E+00  0.00000000000E+00 0. -1.
         22   -1    0    0    0    0 -0.00000000000E+00 -0.00000000000E+00 -0.11256623248E+03  0.11256623248E+03  0.00000000000E+00 0.  1.
          4    1    1    2  501    0 -0.27531175399E+01 -0.33378116195E+01 -0.13364531048E+02  0.14047467129E+02  0.00000000000E+00 0. -1.
         -4    1    1    2    0  501  0.27531175399E+01  0.33378116195E+01 -0.98812892207E+02  0.98907574578E+02  0.00000000000E+00 0.  1.
<mgrwt>
<rscale>  0 0.43267358E+01</rscale>
<asrwt>0</asrwt>
<pdfrwt beam="1">0</pdfrwt>
<pdfrwt beam="2">0</pdfrwt>
<totfact> 0.20147856E+11</totfact>
</mgrwt>
</event>
<event>
 4    2  0.2027839E+006  0.2027749E+01  0.7546771E-02  0.2962242E+00
         22   -1    0    0    0    0  0.00000000000E+00  0.00000000000E+00  0.88983810375E+01  0.88983810375E+01  0.00000000000E+00 0. -1.
         22   -1    0    0    0    0 -0.00000000000E+00 -0.00000000000E+00 -0.14377570391E+01  0.14377570391E+01  0.00000000000E+00 0.  1.
          4    1    1    2  501    0 -0.15565135991E+01  0.12996277811E+01  0.79876538260E+01  0.82410181772E+01  0.00000000000E+00 0. -1.
         -4    1    1    2    0  501  0.15565135991E+01 -0.12996277811E+01 -0.52702982751E+00  0.20951198994E+01  0.00000000000E+00 0.  1.
<mgrwt>
<rscale>  0 0.20277492E+01</rscale>
<asrwt>0</asrwt>
<pdfrwt beam="1">0</pdfrwt>
<pdfrwt beam="2">0</pdfrwt>
<totfact> 0.12052068E+12</totfact>
</mgrwt>
</event>
<event>
 4    2  0.2027839E+006  0.2115261E+01  0.7546771E-02  0.2907044E+00
         22   -1    0    0    0    0  0.00000000000E+00  0.00000000000E+00  0.32492829236E+01  0.32492829236E+01  0.00000000000E+00 0.  1.
         22   -1    0    0    0    0 -0.00000000000E+00 -0.00000000000E+00 -0.14703013626E+01  0.14703013626E+01  0.00000000000E+00 0. -1.
          4    1    1    2  501    0 -0.36907860082E+00 -0.20828131003E+01  0.14838741973E+01  0.25838366933E+01  0.00000000000E+00 0.  1.
         -4    1    1    2    0  501  0.36907860082E+00  0.20828131003E+01  0.29510736365E+00  0.21357475929E+01  0.00000000000E+00 0. -1.
<mgrwt>
<rscale>  0 0.21152611E+01</rscale>
<asrwt>0</asrwt>
<pdfrwt beam="1">0</pdfrwt>
<pdfrwt beam="2">0</pdfrwt>
<totfact> 0.38838287E+12</totfact>
</mgrwt>
</event>
<event>
 4    2  0.2027839E+006  0.3529787E+01  0.7546771E-02  0.2377331E+00
         22   -1    0    0    0    0  0.00000000000E+00  0.00000000000E+00  0.10460606397E+01  0.10460606397E+01  0.00000000000E+00 0.  1.
         22   -1    0    0    0    0 -0.00000000000E+00 -0.00000000000E+00 -0.22004158947E+02  0.22004158947E+02  0.00000000000E+00 0. -1.
          4    1    1    2  501    0 -0.11420096241E+01 -0.33399420019E+01 -0.26733651546E+01  0.44278978994E+01  0.00000000000E+00 0.  1.
         -4    1    1    2    0  501  0.11420096241E+01  0.33399420019E+01 -0.18284733153E+02  0.18622321687E+02  0.00000000000E+00 0. -1.
<mgrwt>
<rscale>  0 0.35297873E+01</rscale>
<asrwt>0</asrwt>
<pdfrwt beam="1">0</pdfrwt>
<pdfrwt beam="2">0</pdfrwt>
<totfact> 0.57106700E+11</totfact>
</mgrwt>
</event>
<event>
 4    2  0.2027839E+006  0.2258197E+01  0.7546771E-02  0.2825793E+00
         22   -1    0    0    0    0  0.00000000000E+00  0.00000000000E+00  0.40079207649E+01  0.40079207649E+01  0.00000000000E+00 0. -1.
         22   -1    0    0    0    0 -0.00000000000E+00 -0.00000000000E+00 -0.17791618386E+01  0.17791618386E+01  0.00000000000E+00 0.  1.
          4    1    1    2  501    0 -0.10229006355E+01 -0.20132384677E+01  0.26587368453E+01  0.34883142706E+01  0.00000000000E+00 0. -1.
         -4    1    1    2    0  501  0.10229006355E+01  0.20132384677E+01 -0.42997791900E+00  0.22987683330E+01  0.00000000000E+00 0.  1.
<mgrwt>
<rscale>  0 0.22581973E+01</rscale>
<asrwt>0</asrwt>
<pdfrwt beam="1">0</pdfrwt>
<pdfrwt beam="2">0</pdfrwt>
<totfact> 0.24372120E+12</totfact>
</mgrwt>
</event>
<event>
 4    2  0.2027839E+006  0.2007841E+01  0.7546771E-02  0.2975454E+00
         22   -1    0    0    0    0  0.00000000000E+00  0.00000000000E+00  0.97482708830E+02  0.97482708830E+02  0.00000000000E+00 0. -1.
         22   -1    0    0    0    0 -0.00000000000E+00 -0.00000000000E+00 -0.48244425543E-01  0.48244425543E-01  0.00000000000E+00 0.  1.
          4    1    1    2  501    0 -0.63618752951E+00  0.19043873026E+01  0.67144939611E+02  0.67174953226E+02  0.00000000000E+00 0. -1.
         -4    1    1    2    0  501  0.63618752951E+00 -0.19043873026E+01  0.30289524794E+02  0.30356000030E+02  0.00000000000E+00 0.  1.
<mgrwt>
<rscale>  0 0.20078410E+01</rscale>
<asrwt>0</asrwt>
<pdfrwt beam="1">0</pdfrwt>
<pdfrwt beam="2">0</pdfrwt>
<totfact> 0.25100296E+12</totfact>
</mgrwt>
</event>
<event>
 4    2  0.2027839E+006  0.2133756E+01  0.7546771E-02  0.2895941E+00
         22   -1    0    0    0    0  0.00000000000E+00  0.00000000000E+00  0.49309437499E+01  0.49309437499E+01  0.00000000000E+00 0.  1.
         22   -1    0    0    0    0 -0.00000000000E+00 -0.00000000000E+00 -0.16128753794E+01  0.16128753794E+01  0.00000000000E+00 0. -1.
          4    1    1    2  501    0  0.13654911112E+01 -0.16396190131E+01  0.37983776316E+01  0.43566717933E+01  0.00000000000E+00 0.  1.
         -4    1    1    2    0  501 -0.13654911112E+01  0.16396190131E+01 -0.48030926111E+00  0.21871473359E+01  0.00000000000E+00 0. -1.
<mgrwt>
<rscale>  0 0.21337564E+01</rscale>
<asrwt>0</asrwt>
<pdfrwt beam="1">0</pdfrwt>
<pdfrwt beam="2">0</pdfrwt>
<totfact> 0.21370327E+12</totfact>
</mgrwt>
</event>
<event>
 4    2  0.2027839E+006  0.2117506E+01  0.7546771E-02  0.2905687E+00
         22   -1    0    0    0    0  0.00000000000E+00  0.00000000000E+00  0.48694979613E+01  0.48694979613E+01  0.00000000000E+00 0.  1.
         22   -1    0    0    0    0 -0.00000000000E+00 -0.00000000000E+00 -0.27510293156E+01  0.27510293156E+01  0.00000000000E+00 0. -1.
          4    1    1    2  501    0  0.12206817487E+01  0.17302502162E+01  0.41670858849E+01  0.46742309008E+01  0.00000000000E+00 0.  1.
         -4    1    1    2    0  501 -0.12206817487E+01 -0.17302502162E+01 -0.20486172392E+01  0.29462963760E+01  0.00000000000E+00 0. -1.
<mgrwt>
<rscale>  0 0.21175055E+01</rscale>
<asrwt>0</asrwt>
<pdfrwt beam="1">0</pdfrwt>
<pdfrwt beam="2">0</pdfrwt>
<totfact> 0.11682157E+12</totfact>
</mgrwt>
</event>
<event>
 4    2  0.2027839E+006  0.2353190E+01  0.7546771E-02  0.2777019E+00
         22   -1    0    0    0    0  0.00000000000E+00  0.00000000000E+00  0.30959876953E+01  0.30959876953E+01  0.00000000000E+00 0.  1.
         22   -1    0    0    0    0 -0.00000000000E+00 -0.00000000000E+00 -0.36675324446E+01  0.36675324446E+01  0.00000000000E+00 0. -1.
          4    1    1    2  501    0  0.20699118756E+01 -0.11193600658E+01  0.21347589121E+01  0.31772154070E+01  0.00000000000E+00 0. -1.
         -4    1    1    2    0  501 -0.20699118756E+01  0.11193600658E+01 -0.27063036614E+01  0.35863047330E+01  0.00000000000E+00 0.  1.
<mgrwt>
<rscale>  0 0.23531898E+01</rscale>
<asrwt>0</asrwt>
<pdfrwt beam="1">0</pdfrwt>
<pdfrwt beam="2">0</pdfrwt>
<totfact> 0.14214676E+12</totfact>
</mgrwt>
</event>
<event>
 4    2  0.2027839E+006  0.3216403E+01  0.7546771E-02  0.2457923E+00
         22   -1    0    0    0    0  0.00000000000E+00  0.00000000000E+00  0.13347792455E+01  0.13347792455E+01  0.00000000000E+00 0. -1.
         22   -1    0    0    0    0 -0.00000000000E+00 -0.00000000000E+00 -0.78709332779E+01  0.78709332779E+01  0.00000000000E+00 0.  1.
          4    1    1    2  501    0  0.62289914927E+00 -0.31555102152E+01 -0.26987897763E+01  0.41986562523E+01  0.00000000000E+00 0. -1.
         -4    1    1    2    0  501 -0.62289914927E+00  0.31555102152E+01 -0.38373642561E+01  0.50070562711E+01  0.00000000000E+00 0.  1.
<mgrwt>
<rscale>  0 0.32164030E+01</rscale>
<asrwt>0</asrwt>
<pdfrwt beam="1">0</pdfrwt>
<pdfrwt beam="2">0</pdfrwt>
<totfact> 0.15216291E+12</totfact>
</mgrwt>
</event>
<event>
 4    2  0.2027839E+006  0.2091608E+01  0.7546771E-02  0.2921520E+00
         22   -1    0    0    0    0  0.00000000000E+00  0.00000000000E+00  0.24061558137E+01  0.24061558137E+01  0.00000000000E+00 0. -1.
         22   -1    0    0    0    0 -0.00000000000E+00 -0.00000000000E+00 -0.21521962452E+01  0.21521962452E+01  0.00000000000E+00 0.  1.
          4    1    1    2  501    0  0.19287392523E+01 -0.80919107318E+00 -0.77090472835E+00  0.22291521699E+01  0.00000000000E+00 0.  1.
         -4    1    1    2    0  501 -0.19287392523E+01  0.80919107318E+00  0.10248642968E+01  0.23291998890E+01  0.00000000000E+00 0. -1.
<mgrwt>
<rscale>  0 0.20916083E+01</rscale>
<asrwt>0</asrwt>
<pdfrwt beam="1">0</pdfrwt>
<pdfrwt beam="2">0</pdfrwt>
<totfact> 0.35509632E+12</totfact>
</mgrwt>
</event>
<event>
 4    2  0.2027839E+006  0.3463925E+01  0.7546771E-02  0.2393206E+00
         22   -1    0    0    0    0  0.00000000000E+00  0.00000000000E+00  0.21153336918E+01  0.21153336918E+01  0.00000000000E+00 0.  1.
         22   -1    0    0    0    0 -0.00000000000E+00 -0.00000000000E+00 -0.56890701867E+01  0.56890701867E+01  0.00000000000E+00 0. -1.
          4    1    1    2  501    0  0.28858697030E+00 -0.34518825066E+01 -0.15749082210E+01  0.38051427283E+01  0.00000000000E+00 0. -1.
         -4    1    1    2    0  501 -0.28858697030E+00  0.34518825066E+01 -0.19988282739E+01  0.39992611502E+01  0.00000000000E+00 0.  1.
<mgrwt>
<rscale>  0 0.34639248E+01</rscale>
<asrwt>0</asrwt>
<pdfrwt beam="1">0</pdfrwt>
<pdfrwt beam="2">0</pdfrwt>
<totfact> 0.13185224E+12</totfact>
</mgrwt>
</event>
<event>
 4    2  0.2027839E+006  0.2630612E+01  0.7546771E-02  0.2653605E+00
         22   -1    0    0    0    0  0.00000000000E+00  0.00000000000E+00  0.28452804472E+01  0.28452804472E+01  0.00000000000E+00 0.  1.
         22   -1    0    0    0    0 -0.00000000000E+00 -0.00000000000E+00 -0.26465947993E+01  0.26465947993E+01  0.00000000000E+00 0. -1.
          4    1    1    2  501    0 -0.25965511686E+01  0.42194915234E+00  0.88099816160E+00  0.27742164334E+01  0.00000000000E+00 0.  1.
         -4    1    1    2    0  501  0.25965511686E+01 -0.42194915234E+00 -0.68231251365E+00  0.27176588132E+01  0.00000000000E+00 0. -1.
<mgrwt>
<rscale>  0 0.26306119E+01</rscale>
<asrwt>0</asrwt>
<pdfrwt beam="1">0</pdfrwt>
<pdfrwt beam="2">0</pdfrwt>
<totfact> 0.22974920E+12</totfact>
</mgrwt>
</event>
<event>
 4    2  0.2027839E+006  0.2482560E+01  0.7546771E-02  0.2716269E+00
         22   -1    0    0    0    0  0.00000000000E+00  0.00000000000E+00  0.79402528708E+00  0.79402528708E+00  0.00000000000E+00 0. -1.
         22   -1    0    0    0    0 -0.00000000000E+00 -0.00000000000E+00 -0.98817830556E+01  0.98817830556E+01  0.00000000000E+00 0.  1.
          4    1    1    2  501    0  0.19997123484E+01  0.14711405590E+01 -0.20715039182E+01  0.32333005588E+01  0.00000000000E+00 0. -1.
         -4    1    1    2    0  501 -0.19997123484E+01 -0.14711405590E+01 -0.70162538503E+01  0.74425077838E+01  0.00000000000E+00 0.  1.
<mgrwt>
<rscale>  0 0.24825600E+01</rscale>
<asrwt>0</asrwt>
<pdfrwt beam="1">0</pdfrwt>
<pdfrwt beam="2">0</pdfrwt>
<totfact> 0.20937686E+12</totfact>
</mgrwt>
</event>
<event>
 4    2  0.2027839E+006  0.2362900E+01  0.7546771E-02  0.2772243E+00
         22   -1    0    0    0    0  0.00000000000E+00  0.00000000000E+00  0.22501674890E+01  0.22501674890E+01  0.00000000000E+00 0.  1.
         22   -1    0    0    0    0 -0.00000000000E+00 -0.00000000000E+00 -0.27037195001E+01  0.27037195001E+01  0.00000000000E+00 0. -1.
          4    1    1    2  501    0  0.22818015043E+01  0.61374203356E+00  0.48368534356E+00  0.24118973652E+01  0.00000000000E+00 0.  1.
         -4    1    1    2    0  501 -0.22818015043E+01 -0.61374203356E+00 -0.93723735462E+00  0.25419896238E+01  0.00000000000E+00 0. -1.
<mgrwt>
<rscale>  0 0.23629002E+01</rscale>
<asrwt>0</asrwt>
<pdfrwt beam="1">0</pdfrwt>
<pdfrwt beam="2">0</pdfrwt>
<totfact> 0.29445277E+12</totfact>
</mgrwt>
</event>
<event>
 4    2  0.2027839E+006  0.2424059E+01  0.7546771E-02  0.2742987E+00
         22   -1    0    0    0    0  0.00000000000E+00  0.00000000000E+00  0.23115444230E+00  0.23115444230E+00  0.00000000000E+00 0.  1.
         22   -1    0    0    0    0 -0.00000000000E+00 -0.00000000000E+00 -0.25421859193E+02  0.25421859193E+02  0.00000000000E+00 0. -1.
          4    1    1    2  501    0 -0.23751530506E+01  0.48446846979E+00 -0.12689108418E+02  0.12918573225E+02  0.00000000000E+00 0.  1.
         -4    1    1    2    0  501  0.23751530506E+01 -0.48446846979E+00 -0.12501596333E+02  0.12734440411E+02  0.00000000000E+00 0. -1.
<mgrwt>
<rscale>  0 0.24240589E+01</rscale>
<asrwt>0</asrwt>
<pdfrwt beam="1">0</pdfrwt>
<pdfrwt beam="2">0</pdfrwt>
<totfact> 0.26199321E+12</totfact>
</mgrwt>
</event>
<event>
 4    2  0.2027839E+006  0.2881569E+01  0.7546771E-02  0.2560984E+00
         22   -1    0    0    0    0  0.00000000000E+00  0.00000000000E+00  0.55334201080E+02  0.55334201080E+02  0.00000000000E+00 0. -1.
         22   -1    0    0    0    0 -0.00000000000E+00 -0.00000000000E+00 -0.36133000660E+00  0.36133000660E+00  0.00000000000E+00 0.  1.
          4    1    1    2  501    0  0.16173333123E+01 -0.23848837401E+01  0.48780447735E+02  0.48865483920E+02  0.00000000000E+00 0. -1.
         -4    1    1    2    0  501 -0.16173333123E+01  0.23848837401E+01  0.61924233379E+01  0.68300471662E+01  0.00000000000E+00 0.  1.
<mgrwt>
<rscale>  0 0.28815686E+01</rscale>
<asrwt>0</asrwt>
<pdfrwt beam="1">0</pdfrwt>
<pdfrwt beam="2">0</pdfrwt>
<totfact> 0.58070829E+11</totfact>
</mgrwt>
</event>
<event>
 4    2  0.2027839E+006  0.2636700E+01  0.7546771E-02  0.2651168E+00
         22   -1    0    0    0    0  0.00000000000E+00  0.00000000000E+00  0.11056507066E+01  0.11056507066E+01  0.00000000000E+00 0. -1.
         22   -1    0    0    0    0 -0.00000000000E+00 -0.00000000000E+00 -0.69595923800E+01  0.69595923800E+01  0.00000000000E+00 0.  1.
          4    1    1    2  501    0  0.26121070171E+01 -0.35928184114E+00 -0.16741444788E+01  0.31232909321E+01  0.00000000000E+00 0. -1.
         -4    1    1    2    0  501 -0.26121070171E+01  0.35928184114E+00 -0.41797971946E+01  0.49419521546E+01  0.00000000000E+00 0.  1.
<mgrwt>
<rscale>  0 0.26366999E+01</rscale>
<asrwt>0</asrwt>
<pdfrwt beam="1">0</pdfrwt>
<pdfrwt beam="2">0</pdfrwt>
<totfact> 0.21881464E+12</totfact>
</mgrwt>
</event>
<event>
 4    2  0.2027839E+006  0.2405905E+01  0.7546771E-02  0.2751525E+00
         22   -1    0    0    0    0  0.00000000000E+00  0.00000000000E+00  0.41826328518E+01  0.41826328518E+01  0.00000000000E+00 0. -1.
         22   -1    0    0    0    0 -0.00000000000E+00 -0.00000000000E+00 -0.39544787143E+01  0.39544787143E+01  0.00000000000E+00 0.  1.
          4    1    1    2  501    0 -0.20283774119E+01  0.12938560970E+01  0.33943534913E+01  0.41605305129E+01  0.00000000000E+00 0. -1.
         -4    1    1    2    0  501  0.20283774119E+01 -0.12938560970E+01 -0.31661993538E+01  0.39765810533E+01  0.00000000000E+00 0.  1.
<mgrwt>
<rscale>  0 0.24059049E+01</rscale>
<asrwt>0</asrwt>
<pdfrwt beam="1">0</pdfrwt>
<pdfrwt beam="2">0</pdfrwt>
<totfact> 0.91404616E+11</totfact>
</mgrwt>
</event>
<event>
 4    2  0.2027839E+006  0.2145591E+01  0.7546771E-02  0.2888934E+00
         22   -1    0    0    0    0  0.00000000000E+00  0.00000000000E+00  0.52079998759E+01  0.52079998759E+01  0.00000000000E+00 0.  1.
         22   -1    0    0    0    0 -0.00000000000E+00 -0.00000000000E+00 -0.97166964757E+00  0.97166964757E+00  0.00000000000E+00 0. -1.
          4    1    1    2  501    0  0.19388340790E+01 -0.91895714656E+00  0.30465946170E+01  0.37262982413E+01  0.00000000000E+00 0.  1.
         -4    1    1    2    0  501 -0.19388340790E+01  0.91895714656E+00  0.11897356114E+01  0.24533712822E+01  0.00000000000E+00 0. -1.
<mgrwt>
<rscale>  0 0.21455908E+01</rscale>
<asrwt>0</asrwt>
<pdfrwt beam="1">0</pdfrwt>
<pdfrwt beam="2">0</pdfrwt>
<totfact> 0.35814733E+12</totfact>
</mgrwt>
</event>
<event>
 4    2  0.2027839E+006  0.2732828E+01  0.7546771E-02  0.2614007E+00
         22   -1    0    0    0    0  0.00000000000E+00  0.00000000000E+00  0.11962840934E+02  0.11962840934E+02  0.00000000000E+00 0.  1.
         22   -1    0    0    0    0 -0.00000000000E+00 -0.00000000000E+00 -0.18232659797E+01  0.18232659797E+01  0.00000000000E+00 0. -1.
          4    1    1    2  501    0  0.18515296413E+01  0.20100217292E+01  0.10659517766E+02  0.11004256830E+02  0.00000000000E+00 0.  1.
         -4    1    1    2    0  501 -0.18515296413E+01 -0.20100217292E+01 -0.51994281164E+00  0.27818500844E+01  0.00000000000E+00 0. -1.
<mgrwt>
<rscale>  0 0.27328281E+01</rscale>
<asrwt>0</asrwt>
<pdfrwt beam="1">0</pdfrwt>
<pdfrwt beam="2">0</pdfrwt>
<totfact> 0.64032972E+11</totfact>
</mgrwt>
</event>
<event>
 4    2  0.2027839E+006  0.2599834E+01  0.7546771E-02  0.2666088E+00
         22   -1    0    0    0    0  0.00000000000E+00  0.00000000000E+00  0.32473354598E+01  0.32473354598E+01  0.00000000000E+00 0.  1.
         22   -1    0    0    0    0 -0.00000000000E+00 -0.00000000000E+00 -0.90668546684E+01  0.90668546684E+01  0.00000000000E+00 0. -1.
          4    1    1    2  501    0 -0.19962439021E+01 -0.16655772368E+01  0.24945919948E+01  0.36030718102E+01  0.00000000000E+00 0.  1.
         -4    1    1    2    0  501  0.19962439021E+01  0.16655772368E+01 -0.83141112034E+01  0.87111183180E+01  0.00000000000E+00 0. -1.
<mgrwt>
<rscale>  0 0.25998341E+01</rscale>
<asrwt>0</asrwt>
<pdfrwt beam="1">0</pdfrwt>
<pdfrwt beam="2">0</pdfrwt>
<totfact> 0.45809768E+11</totfact>
</mgrwt>
</event>
<event>
 4    2  0.2027839E+006  0.2962795E+01  0.7546771E-02  0.2534069E+00
         22   -1    0    0    0    0  0.00000000000E+00  0.00000000000E+00  0.21683833992E+01  0.21683833992E+01  0.00000000000E+00 0. -1.
         22   -1    0    0    0    0 -0.00000000000E+00 -0.00000000000E+00 -0.40880526598E+01  0.40880526598E+01  0.00000000000E+00 0.  1.
          4    1    1    2  501    0 -0.31667132701E+00 -0.29458228829E+01 -0.12685136920E+01  0.32229303706E+01  0.00000000000E+00 0. -1.
         -4    1    1    2    0  501  0.31667132701E+00  0.29458228829E+01 -0.65115556870E+00  0.30335056884E+01  0.00000000000E+00 0.  1.
<mgrwt>
<rscale>  0 0.29627948E+01</rscale>
<asrwt>0</asrwt>
<pdfrwt beam="1">0</pdfrwt>
<pdfrwt beam="2">0</pdfrwt>
<totfact> 0.18940103E+12</totfact>
</mgrwt>
</event>
<event>
 4    2  0.2027839E+006  0.2288880E+01  0.7546771E-02  0.2809619E+00
         22   -1    0    0    0    0  0.00000000000E+00  0.00000000000E+00  0.92671649960E+00  0.92671649960E+00  0.00000000000E+00 0.  1.
         22   -1    0    0    0    0 -0.00000000000E+00 -0.00000000000E+00 -0.11578033979E+02  0.11578033979E+02  0.00000000000E+00 0. -1.
          4    1    1    2  501    0  0.20868857049E+01 -0.94014842453E+00 -0.85302380574E+00  0.24426667023E+01  0.00000000000E+00 0.  1.
         -4    1    1    2    0  501 -0.20868857049E+01  0.94014842453E+00 -0.97982936733E+01  0.10062083776E+02  0.00000000000E+00 0. -1.
<mgrwt>
<rscale>  0 0.22888799E+01</rscale>
<asrwt>0</asrwt>
<pdfrwt beam="1">0</pdfrwt>
<pdfrwt beam="2">0</pdfrwt>
<totfact> 0.14486445E+12</totfact>
</mgrwt>
</event>
<event>
 4    2  0.2027839E+006  0.3775142E+01  0.7546771E-02  0.2322454E+00
         22   -1    0    0    0    0  0.00000000000E+00  0.00000000000E+00  0.28651726369E+01  0.28651726369E+01  0.00000000000E+00 0.  1.
         22   -1    0    0    0    0 -0.00000000000E+00 -0.00000000000E+00 -0.57209224399E+01  0.57209224399E+01  0.00000000000E+00 0. -1.
          4    1    1    2  501    0 -0.40439421029E+00 -0.37534200424E+01 -0.29789654007E+01  0.48089428724E+01  0.00000000000E+00 0. -1.
         -4    1    1    2    0  501  0.40439421029E+00  0.37534200424E+01  0.12321559769E+00  0.37771522044E+01  0.00000000000E+00 0.  1.
<mgrwt>
<rscale>  0 0.37751419E+01</rscale>
<asrwt>0</asrwt>
<pdfrwt beam="1">0</pdfrwt>
<pdfrwt beam="2">0</pdfrwt>
<totfact> 0.92040815E+11</totfact>
</mgrwt>
</event>
<event>
 4    2  0.2027839E+006  0.2293128E+01  0.7546771E-02  0.2807412E+00
         22   -1    0    0    0    0  0.00000000000E+00  0.00000000000E+00  0.18042650820E+02  0.18042650820E+02  0.00000000000E+00 0.  1.
         22   -1    0    0    0    0 -0.00000000000E+00 -0.00000000000E+00 -0.37866318575E+00  0.37866318575E+00  0.00000000000E+00 0. -1.
          4    1    1    2  501    0 -0.13813428886E+00 -0.22889642223E+01  0.13252458023E+02  0.13449389649E+02  0.00000000000E+00 0.  1.
         -4    1    1    2    0  501  0.13813428886E+00  0.22889642223E+01  0.44115296109E+01  0.49719243559E+01  0.00000000000E+00 0. -1.
<mgrwt>
<rscale>  0 0.22931285E+01</rscale>
<asrwt>0</asrwt>
<pdfrwt beam="1">0</pdfrwt>
<pdfrwt beam="2">0</pdfrwt>
<totfact> 0.23137657E+12</totfact>
</mgrwt>
</event>
<event>
 4    2  0.2027839E+006  0.2572078E+01  0.7546771E-02  0.2677582E+00
         22   -1    0    0    0    0  0.00000000000E+00  0.00000000000E+00  0.65119690155E+01  0.65119690155E+01  0.00000000000E+00 0.  1.
         22   -1    0    0    0    0 -0.00000000000E+00 -0.00000000000E+00 -0.18075130602E+01  0.18075130602E+01  0.00000000000E+00 0. -1.
          4    1    1    2  501    0  0.23317979864E+01  0.10854965184E+01  0.51050547262E+01  0.57163946940E+01  0.00000000000E+00 0.  1.
         -4    1    1    2    0  501 -0.23317979864E+01 -0.10854965184E+01 -0.40059877087E+00  0.26030873816E+01  0.00000000000E+00 0. -1.
<mgrwt>
<rscale>  0 0.25720779E+01</rscale>
<asrwt>0</asrwt>
<pdfrwt beam="1">0</pdfrwt>
<pdfrwt beam="2">0</pdfrwt>
<totfact> 0.13465398E+12</totfact>
</mgrwt>
</event>
<event>
 4    2  0.2027839E+006  0.4156597E+01  0.7546771E-02  0.2248324E+00
         22   -1    0    0    0    0  0.00000000000E+00  0.00000000000E+00  0.71822009847E+00  0.71822009847E+00  0.00000000000E+00 0.  1.
         22   -1    0    0    0    0 -0.00000000000E+00 -0.00000000000E+00 -0.24055991860E+02  0.24055991860E+02  0.00000000000E+00 0. -1.
          4    1    1    2  501    0  0.29557789868E+01  0.29224427153E+01 -0.11627164639E+02  0.12347803788E+02  0.00000000000E+00 0. -1.
         -4    1    1    2    0  501 -0.29557789868E+01 -0.29224427153E+01 -0.11710607123E+02  0.12426408171E+02  0.00000000000E+00 0.  1.
<mgrwt>
<rscale>  0 0.41565973E+01</rscale>
<asrwt>0</asrwt>
<pdfrwt beam="1">0</pdfrwt>
<pdfrwt beam="2">0</pdfrwt>
<totfact> 0.78359040E+11</totfact>
</mgrwt>
</event>
<event>
 4    2  0.2027839E+006  0.2015120E+01  0.7546771E-02  0.2970594E+00
         22   -1    0    0    0    0  0.00000000000E+00  0.00000000000E+00  0.34674470806E+01  0.34674470806E+01  0.00000000000E+00 0.  1.
         22   -1    0    0    0    0 -0.00000000000E+00 -0.00000000000E+00 -0.33236996072E+01  0.33236996072E+01  0.00000000000E+00 0. -1.
          4    1    1    2  501    0  0.19737341014E+01  0.40630356571E+00  0.28045261622E+01  0.34534151047E+01  0.00000000000E+00 0.  1.
         -4    1    1    2    0  501 -0.19737341014E+01 -0.40630356571E+00 -0.26607786887E+01  0.33377315831E+01  0.00000000000E+00 0. -1.
<mgrwt>
<rscale>  0 0.20151201E+01</rscale>
<asrwt>0</asrwt>
<pdfrwt beam="1">0</pdfrwt>
<pdfrwt beam="2">0</pdfrwt>
<totfact> 0.13970815E+12</totfact>
</mgrwt>
</event>
<event>
 4    2  0.2027839E+006  0.2018246E+01  0.7546771E-02  0.2968517E+00
         22   -1    0    0    0    0  0.00000000000E+00  0.00000000000E+00  0.38620462664E+00  0.38620462664E+00  0.00000000000E+00 0. -1.
         22   -1    0    0    0    0 -0.00000000000E+00 -0.00000000000E+00 -0.13986657878E+02  0.13986657878E+02  0.00000000000E+00 0.  1.
          4    1    1    2  501    0  0.94712927210E+00  0.17822071898E+01 -0.10364009915E+02  0.10558693946E+02  0.00000000000E+00 0. -1.
         -4    1    1    2    0  501 -0.94712927210E+00 -0.17822071898E+01 -0.32364433368E+01  0.38141685591E+01  0.00000000000E+00 0.  1.
<mgrwt>
<rscale>  0 0.20182459E+01</rscale>
<asrwt>0</asrwt>
<pdfrwt beam="1">0</pdfrwt>
<pdfrwt beam="2">0</pdfrwt>
<totfact> 0.30980817E+12</totfact>
</mgrwt>
</event>
<event>
 4    2  0.2027839E+006  0.2219741E+01  0.7546771E-02  0.2846667E+00
         22   -1    0    0    0    0  0.00000000000E+00  0.00000000000E+00  0.10063699286E+01  0.10063699286E+01  0.00000000000E+00 0.  1.
         22   -1    0    0    0    0 -0.00000000000E+00 -0.00000000000E+00 -0.85686691750E+01  0.85686691750E+01  0.00000000000E+00 0. -1.
          4    1    1    2  501    0 -0.20182065985E+00 -0.22105469996E+01 -0.64684568041E+00  0.23120681111E+01  0.00000000000E+00 0.  1.
         -4    1    1    2    0  501  0.20182065985E+00  0.22105469996E+01 -0.69154535660E+01  0.72629709926E+01  0.00000000000E+00 0. -1.
<mgrwt>
<rscale>  0 0.22197409E+01</rscale>
<asrwt>0</asrwt>
<pdfrwt beam="1">0</pdfrwt>
<pdfrwt beam="2">0</pdfrwt>
<totfact> 0.18982963E+12</totfact>
</mgrwt>
</event>
<event>
 4    2  0.2027839E+006  0.2319255E+01  0.7546771E-02  0.2794008E+00
         22   -1    0    0    0    0  0.00000000000E+00  0.00000000000E+00  0.36658354020E+01  0.36658354020E+01  0.00000000000E+00 0.  1.
         22   -1    0    0    0    0 -0.00000000000E+00 -0.00000000000E+00 -0.22614421069E+01  0.22614421069E+01  0.00000000000E+00 0. -1.
          4    1    1    2  501    0 -0.98314994659E+00 -0.21005615632E+01  0.24584088265E+01  0.33797509755E+01  0.00000000000E+00 0.  1.
         -4    1    1    2    0  501  0.98314994659E+00  0.21005615632E+01 -0.10540155313E+01  0.25475265334E+01  0.00000000000E+00 0. -1.
<mgrwt>
<rscale>  0 0.23192548E+01</rscale>
<asrwt>0</asrwt>
<pdfrwt beam="1">0</pdfrwt>
<pdfrwt beam="2">0</pdfrwt>
<totfact> 0.20504966E+12</totfact>
</mgrwt>
</event>
<event>
 4    2  0.2027839E+006  0.2311555E+01  0.7546771E-02  0.2797929E+00
         22   -1    0    0    0    0  0.00000000000E+00  0.00000000000E+00  0.50415090098E+00  0.50415090098E+00  0.00000000000E+00 0. -1.
         22   -1    0    0    0    0 -0.00000000000E+00 -0.00000000000E+00 -0.12079224901E+02  0.12079224901E+02  0.00000000000E+00 0.  1.
          4    1    1    2  501    0  0.11377418353E+01  0.20121705148E+01 -0.35847514435E+01  0.42654108332E+01  0.00000000000E+00 0. -1.
         -4    1    1    2    0  501 -0.11377418353E+01 -0.20121705148E+01 -0.79903225564E+01  0.83179649686E+01  0.00000000000E+00 0.  1.
<mgrwt>
<rscale>  0 0.23115550E+01</rscale>
<asrwt>0</asrwt>
<pdfrwt beam="1">0</pdfrwt>
<pdfrwt beam="2">0</pdfrwt>
<totfact> 0.27450509E+12</totfact>
</mgrwt>
</event>
<event>
 4    2  0.2027839E+006  0.2349234E+01  0.7546771E-02  0.2778976E+00
         22   -1    0    0    0    0  0.00000000000E+00  0.00000000000E+00  0.23257654300E+01  0.23257654300E+01  0.00000000000E+00 0.  1.
         22   -1    0    0    0    0 -0.00000000000E+00 -0.00000000000E+00 -0.89242547429E+01  0.89242547429E+01  0.00000000000E+00 0. -1.
          4    1    1    2  501    0 -0.22644267783E+01  0.62551644090E+00  0.15202509890E+01  0.27982248877E+01  0.00000000000E+00 0.  1.
         -4    1    1    2    0  501  0.22644267783E+01 -0.62551644090E+00 -0.81187403020E+01  0.84517952852E+01  0.00000000000E+00 0. -1.
<mgrwt>
<rscale>  0 0.23492338E+01</rscale>
<asrwt>0</asrwt>
<pdfrwt beam="1">0</pdfrwt>
<pdfrwt beam="2">0</pdfrwt>
<totfact> 0.68904387E+11</totfact>
</mgrwt>
</event>
<event>
 4    2  0.2027839E+006  0.2171478E+01  0.7546771E-02  0.2873863E+00
         22   -1    0    0    0    0  0.00000000000E+00  0.00000000000E+00  0.18633200204E+01  0.18633200204E+01  0.00000000000E+00 0.  1.
         22   -1    0    0    0    0 -0.00000000000E+00 -0.00000000000E+00 -0.36774213767E+01  0.36774213767E+01  0.00000000000E+00 0. -1.
          4    1    1    2  501    0 -0.11625816382E+01  0.18340446281E+01  0.64003465142E+00  0.22638374761E+01  0.00000000000E+00 0.  1.
         -4    1    1    2    0  501  0.11625816382E+01 -0.18340446281E+01 -0.24541360077E+01  0.32769039210E+01  0.00000000000E+00 0. -1.
<mgrwt>
<rscale>  0 0.21714778E+01</rscale>
<asrwt>0</asrwt>
<pdfrwt beam="1">0</pdfrwt>
<pdfrwt beam="2">0</pdfrwt>
<totfact> 0.25564306E+12</totfact>
</mgrwt>
</event>
<event>
 4    2  0.2027839E+006  0.2607324E+01  0.7546771E-02  0.2663025E+00
         22   -1    0    0    0    0  0.00000000000E+00  0.00000000000E+00  0.33169522146E+01  0.33169522146E+01  0.00000000000E+00 0. -1.
         22   -1    0    0    0    0 -0.00000000000E+00 -0.00000000000E+00 -0.28877950441E+01  0.28877950441E+01  0.00000000000E+00 0.  1.
          4    1    1    2  501    0 -0.19013787903E+01 -0.17840676963E+01  0.18860764632E+01  0.32179843496E+01  0.00000000000E+00 0.  1.
         -4    1    1    2    0  501  0.19013787903E+01  0.17840676963E+01 -0.14569192927E+01  0.29867629090E+01  0.00000000000E+00 0. -1.
<mgrwt>
<rscale>  0 0.26073241E+01</rscale>
<asrwt>0</asrwt>
<pdfrwt beam="1">0</pdfrwt>
<pdfrwt beam="2">0</pdfrwt>
<totfact> 0.17347079E+12</totfact>
</mgrwt>
</event>
<event>
 4    2  0.2027839E+006  0.2873527E+01  0.7546771E-02  0.2563723E+00
         22   -1    0    0    0    0  0.00000000000E+00  0.00000000000E+00  0.93124291146E+01  0.93124291146E+01  0.00000000000E+00 0.  1.
         22   -1    0    0    0    0 -0.00000000000E+00 -0.00000000000E+00 -0.94287850998E+00  0.94287850998E+00  0.00000000000E+00 0. -1.
          4    1    1    2  501    0  0.24329888335E+01 -0.15289605022E+01  0.29329348481E+01  0.41060031301E+01  0.00000000000E+00 0.  1.
         -4    1    1    2    0  501 -0.24329888335E+01  0.15289605022E+01  0.54366157565E+01  0.61493044945E+01  0.00000000000E+00 0. -1.
<mgrwt>
<rscale>  0 0.28735266E+01</rscale>
<asrwt>0</asrwt>
<pdfrwt beam="1">0</pdfrwt>
<pdfrwt beam="2">0</pdfrwt>
<totfact> 0.18496778E+12</totfact>
</mgrwt>
</event>
<event>
 4    2  0.2027839E+006  0.7523801E+01  0.7546771E-02  0.1905074E+00
         22   -1    0    0    0    0  0.00000000000E+00  0.00000000000E+00  0.47862795383E+01  0.47862795383E+01  0.00000000000E+00 0.  1.
         22   -1    0    0    0    0 -0.00000000000E+00 -0.00000000000E+00 -0.16669250170E+02  0.16669250170E+02  0.00000000000E+00 0. -1.
          4    1    1    2  501    0 -0.59597789259E+01 -0.45922350509E+01 -0.15956112275E+00  0.75254931640E+01  0.00000000000E+00 0.  1.
         -4    1    1    2    0  501  0.59597789259E+01  0.45922350509E+01 -0.11723409509E+02  0.13930036544E+02  0.00000000000E+00 0. -1.
<mgrwt>
<rscale>  0 0.75238014E+01</rscale>
<asrwt>0</asrwt>
<pdfrwt beam="1">0</pdfrwt>
<pdfrwt beam="2">0</pdfrwt>
<totfact> 0.13801545E+11</totfact>
</mgrwt>
</event>
<event>
 4    2  0.2027839E+006  0.2362046E+01  0.7546771E-02  0.2772661E+00
         22   -1    0    0    0    0  0.00000000000E+00  0.00000000000E+00  0.14843847835E+02  0.14843847835E+02  0.00000000000E+00 0.  1.
         22   -1    0    0    0    0 -0.00000000000E+00 -0.00000000000E+00 -0.72780399039E+00  0.72780399039E+00  0.00000000000E+00 0. -1.
          4    1    1    2  501    0  0.22650987911E+01  0.66976684238E+00  0.12472194670E+02  0.12693892234E+02  0.00000000000E+00 0.  1.
         -4    1    1    2    0  501 -0.22650987911E+01 -0.66976684238E+00  0.16438491740E+01  0.28777595910E+01  0.00000000000E+00 0. -1.
<mgrwt>
<rscale>  0 0.23620458E+01</rscale>
<asrwt>0</asrwt>
<pdfrwt beam="1">0</pdfrwt>
<pdfrwt beam="2">0</pdfrwt>
<totfact> 0.14071390E+12</totfact>
</mgrwt>
</event>
<event>
 4    2  0.2027839E+006  0.4304831E+01  0.7546771E-02  0.2222555E+00
         22   -1    0    0    0    0  0.00000000000E+00  0.00000000000E+00  0.54809268343E+01  0.54809268343E+01  0.00000000000E+00 0.  1.
         22   -1    0    0    0    0 -0.00000000000E+00 -0.00000000000E+00 -0.33852434614E+01  0.33852434614E+01  0.00000000000E+00 0. -1.
          4    1    1    2  501    0  0.59133982846E-01 -0.43044252751E+01  0.12028937124E+01  0.44697345626E+01  0.00000000000E+00 0.  1.
         -4    1    1    2    0  501 -0.59133982846E-01  0.43044252751E+01  0.89278966058E+00  0.43964357331E+01  0.00000000000E+00 0. -1.
<mgrwt>
<rscale>  0 0.43048314E+01</rscale>
<asrwt>0</asrwt>
<pdfrwt beam="1">0</pdfrwt>
<pdfrwt beam="2">0</pdfrwt>
<totfact> 0.79687442E+11</totfact>
</mgrwt>
</event>
<event>
 4    2  0.2027839E+006  0.2590997E+01  0.7546771E-02  0.2669723E+00
         22   -1    0    0    0    0  0.00000000000E+00  0.00000000000E+00  0.20868447842E+01  0.20868447842E+01  0.00000000000E+00 0. -1.
         22   -1    0    0    0    0 -0.00000000000E+00 -0.00000000000E+00 -0.40561310847E+01  0.40561310847E+01  0.00000000000E+00 0.  1.
          4    1    1    2  501    0 -0.25733890918E+01  0.30155573344E+00  0.41243809941E+00  0.26236182009E+01  0.00000000000E+00 0. -1.
         -4    1    1    2    0  501  0.25733890918E+01 -0.30155573344E+00 -0.23817244000E+01  0.35193576680E+01  0.00000000000E+00 0.  1.
<mgrwt>
<rscale>  0 0.25909974E+01</rscale>
<asrwt>0</asrwt>
<pdfrwt beam="1">0</pdfrwt>
<pdfrwt beam="2">0</pdfrwt>
<totfact> 0.19983754E+12</totfact>
</mgrwt>
</event>
<event>
 4    2  0.2027839E+006  0.3095129E+01  0.7546771E-02  0.2492947E+00
         22   -1    0    0    0    0  0.00000000000E+00  0.00000000000E+00  0.59725065786E+01  0.59725065786E+01  0.00000000000E+00 0.  1.
         22   -1    0    0    0    0 -0.00000000000E+00 -0.00000000000E+00 -0.29142819853E+01  0.29142819853E+01  0.00000000000E+00 0. -1.
          4    1    1    2  501    0  0.25275751198E+01  0.17863887837E+01  0.45085455591E+01  0.54687113593E+01  0.00000000000E+00 0.  1.
         -4    1    1    2    0  501 -0.25275751198E+01 -0.17863887837E+01 -0.14503209658E+01  0.34180772046E+01  0.00000000000E+00 0. -1.
<mgrwt>
<rscale>  0 0.30951286E+01</rscale>
<asrwt>0</asrwt>
<pdfrwt beam="1">0</pdfrwt>
<pdfrwt beam="2">0</pdfrwt>
<totfact> 0.85729918E+11</totfact>
</mgrwt>
</event>
<event>
 4    2  0.2027839E+006  0.2395334E+01  0.7546771E-02  0.2756553E+00
         22   -1    0    0    0    0  0.00000000000E+00  0.00000000000E+00  0.80384311567E+00  0.80384311567E+00  0.00000000000E+00 0.  1.
         22   -1    0    0    0    0 -0.00000000000E+00 -0.00000000000E+00 -0.82236323000E+01  0.82236323000E+01  0.00000000000E+00 0. -1.
          4    1    1    2  501    0  0.23351521280E+01 -0.53356172954E+00 -0.20696910356E+01  0.31656349384E+01  0.00000000000E+00 0.  1.
         -4    1    1    2    0  501 -0.23351521280E+01  0.53356172954E+00 -0.53500981487E+01  0.58618404773E+01  0.00000000000E+00 0. -1.
<mgrwt>
<rscale>  0 0.23953337E+01</rscale>
<asrwt>0</asrwt>
<pdfrwt beam="1">0</pdfrwt>
<pdfrwt beam="2">0</pdfrwt>
<totfact> 0.25768613E+12</totfact>
</mgrwt>
</event>
<event>
 4    2  0.2027839E+006  0.3359519E+01  0.7546771E-02  0.2419481E+00
         22   -1    0    0    0    0  0.00000000000E+00  0.00000000000E+00  0.37949478675E+01  0.37949478675E+01  0.00000000000E+00 0. -1.
         22   -1    0    0    0    0 -0.00000000000E+00 -0.00000000000E+00 -0.11619453799E+02  0.11619453799E+02  0.00000000000E+00 0.  1.
          4    1    1    2  501    0 -0.32697133114E+01 -0.77158590961E+00  0.27358299249E+01  0.43325668296E+01  0.00000000000E+00 0. -1.
         -4    1    1    2    0  501  0.32697133114E+01  0.77158590961E+00 -0.10560335857E+02  0.11081834837E+02  0.00000000000E+00 0.  1.
<mgrwt>
<rscale>  0 0.33595193E+01</rscale>
<asrwt>0</asrwt>
<pdfrwt beam="1">0</pdfrwt>
<pdfrwt beam="2">0</pdfrwt>
<totfact> 0.28249867E+11</totfact>
</mgrwt>
</event>
<event>
 4    2  0.2027839E+006  0.7411942E+01  0.7546771E-02  0.1912242E+00
         22   -1    0    0    0    0  0.00000000000E+00  0.00000000000E+00  0.11590340869E+02  0.11590340869E+02  0.00000000000E+00 0. -1.
         22   -1    0    0    0    0 -0.00000000000E+00 -0.00000000000E+00 -0.13121985347E+02  0.13121985347E+02  0.00000000000E+00 0.  1.
          4    1    1    2  501    0  0.67889300570E+01 -0.29744444429E+01  0.91097044684E+01  0.11744088154E+02  0.00000000000E+00 0. -1.
         -4    1    1    2    0  501 -0.67889300570E+01  0.29744444429E+01 -0.10641348946E+02  0.12968238063E+02  0.00000000000E+00 0.  1.
<mgrwt>
<rscale>  0 0.74119425E+01</rscale>
<asrwt>0</asrwt>
<pdfrwt beam="1">0</pdfrwt>
<pdfrwt beam="2">0</pdfrwt>
<totfact> 0.64146865E+10</totfact>
</mgrwt>
</event>
<event>
 4    2  0.2027839E+006  0.2501998E+01  0.7546771E-02  0.2707650E+00
         22   -1    0    0    0    0  0.00000000000E+00  0.00000000000E+00  0.69286502876E+00  0.69286502876E+00  0.00000000000E+00 0.  1.
         22   -1    0    0    0    0 -0.00000000000E+00 -0.00000000000E+00 -0.91209325667E+01  0.91209325667E+01  0.00000000000E+00 0. -1.
          4    1    1    2  501    0  0.12788078521E+01  0.21504990075E+01 -0.46904782708E+01  0.53160682758E+01  0.00000000000E+00 0.  1.
         -4    1    1    2    0  501 -0.12788078521E+01 -0.21504990075E+01 -0.37375892671E+01  0.44977293197E+01  0.00000000000E+00 0. -1.
<mgrwt>
<rscale>  0 0.25019983E+01</rscale>
<asrwt>0</asrwt>
<pdfrwt beam="1">0</pdfrwt>
<pdfrwt beam="2">0</pdfrwt>
<totfact> 0.26929637E+12</totfact>
</mgrwt>
</event>
<event>
 4    2  0.2027839E+006  0.3331985E+01  0.7546771E-02  0.2426651E+00
         22   -1    0    0    0    0  0.00000000000E+00  0.00000000000E+00  0.64197037457E+01  0.64197037457E+01  0.00000000000E+00 0. -1.
         22   -1    0    0    0    0 -0.00000000000E+00 -0.00000000000E+00 -0.10781672471E+02  0.10781672471E+02  0.00000000000E+00 0.  1.
          4    1    1    2  501    0 -0.19245433996E+01  0.27199741395E+01  0.56997982498E+01  0.66022592122E+01  0.00000000000E+00 0. -1.
         -4    1    1    2    0  501  0.19245433996E+01 -0.27199741395E+01 -0.10061766975E+02  0.10599117005E+02  0.00000000000E+00 0.  1.
<mgrwt>
<rscale>  0 0.33319854E+01</rscale>
<asrwt>0</asrwt>
<pdfrwt beam="1">0</pdfrwt>
<pdfrwt beam="2">0</pdfrwt>
<totfact> 0.16606805E+11</totfact>
</mgrwt>
</event>
<event>
 4    2  0.2027839E+006  0.2890717E+01  0.7546771E-02  0.2557885E+00
         22   -1    0    0    0    0  0.00000000000E+00  0.00000000000E+00  0.12717050473E+01  0.12717050473E+01  0.00000000000E+00 0.  1.
         22   -1    0    0    0    0 -0.00000000000E+00 -0.00000000000E+00 -0.68240324943E+01  0.68240324943E+01  0.00000000000E+00 0. -1.
          4    1    1    2  501    0 -0.29443337231E+00 -0.28756829184E+01 -0.19965451999E+01  0.35131803246E+01  0.00000000000E+00 0.  1.
         -4    1    1    2    0  501  0.29443337231E+00  0.28756829184E+01 -0.35557822472E+01  0.45825572170E+01  0.00000000000E+00 0. -1.
<mgrwt>
<rscale>  0 0.28907167E+01</rscale>
<asrwt>0</asrwt>
<pdfrwt beam="1">0</pdfrwt>
<pdfrwt beam="2">0</pdfrwt>
<totfact> 0.19084667E+12</totfact>
</mgrwt>
</event>
<event>
 4    2  0.2027839E+006  0.2252983E+01  0.7546771E-02  0.2828584E+00
         22   -1    0    0    0    0  0.00000000000E+00  0.00000000000E+00  0.96907100003E+00  0.96907100003E+00  0.00000000000E+00 0. -1.
         22   -1    0    0    0    0 -0.00000000000E+00 -0.00000000000E+00 -0.85041769516E+01  0.85041769516E+01  0.00000000000E+00 0.  1.
          4    1    1    2  501    0 -0.50198334793E+00 -0.21963477110E+01 -0.83208757567E+00  0.24017286031E+01  0.00000000000E+00 0.  1.
         -4    1    1    2    0  501  0.50198334793E+00  0.21963477110E+01 -0.67030183759E+01  0.70715193485E+01  0.00000000000E+00 0. -1.
<mgrwt>
<rscale>  0 0.22529826E+01</rscale>
<asrwt>0</asrwt>
<pdfrwt beam="1">0</pdfrwt>
<pdfrwt beam="2">0</pdfrwt>
<totfact> 0.20000635E+12</totfact>
</mgrwt>
</event>
<event>
 4    2  0.2027839E+006  0.2856610E+01  0.7546771E-02  0.2569531E+00
         22   -1    0    0    0    0  0.00000000000E+00  0.00000000000E+00  0.59860331758E+02  0.59860331758E+02  0.00000000000E+00 0. -1.
         22   -1    0    0    0    0 -0.00000000000E+00 -0.00000000000E+00 -0.13632382358E+00  0.13632382358E+00  0.00000000000E+00 0.  1.
          4    1    1    2  501    0 -0.13389969925E+01  0.25233526401E+01  0.29998040554E+02  0.30133746176E+02  0.00000000000E+00 0.  1.
         -4    1    1    2    0  501  0.13389969925E+01 -0.25233526401E+01  0.29725967381E+02  0.29862909406E+02  0.00000000000E+00 0. -1.
<mgrwt>
<rscale>  0 0.28566101E+01</rscale>
<asrwt>0</asrwt>
<pdfrwt beam="1">0</pdfrwt>
<pdfrwt beam="2">0</pdfrwt>
<totfact> 0.15535186E+12</totfact>
</mgrwt>
</event>
<event>
 4    2  0.2027839E+006  0.2476791E+01  0.7546771E-02  0.2718852E+00
         22   -1    0    0    0    0  0.00000000000E+00  0.00000000000E+00  0.63750055888E+02  0.63750055888E+02  0.00000000000E+00 0.  1.
         22   -1    0    0    0    0 -0.00000000000E+00 -0.00000000000E+00 -0.99417129024E-01  0.99417129024E-01  0.00000000000E+00 0. -1.
          4    1    1    2  501    0  0.15954972046E+01 -0.18944341651E+01  0.37543847724E+02  0.37625456729E+02  0.00000000000E+00 0.  1.
         -4    1    1    2    0  501 -0.15954972046E+01  0.18944341651E+01  0.26106791035E+02  0.26224016288E+02  0.00000000000E+00 0. -1.
<mgrwt>
<rscale>  0 0.24767907E+01</rscale>
<asrwt>0</asrwt>
<pdfrwt beam="1">0</pdfrwt>
<pdfrwt beam="2">0</pdfrwt>
<totfact> 0.20260205E+12</totfact>
</mgrwt>
</event>
<event>
 4    2  0.2027839E+006  0.2011232E+01  0.7546771E-02  0.2973186E+00
         22   -1    0    0    0    0  0.00000000000E+00  0.00000000000E+00  0.29445784607E+01  0.29445784607E+01  0.00000000000E+00 0.  1.
         22   -1    0    0    0    0 -0.00000000000E+00 -0.00000000000E+00 -0.23253819611E+01  0.23253819611E+01  0.00000000000E+00 0. -1.
          4    1    1    2  501    0  0.18609386785E+01 -0.76286328515E+00  0.19952563205E+01  0.28330374055E+01  0.00000000000E+00 0.  1.
         -4    1    1    2    0  501 -0.18609386785E+01  0.76286328515E+00 -0.13760598208E+01  0.24369230163E+01  0.00000000000E+00 0. -1.
<mgrwt>
<rscale>  0 0.20112318E+01</rscale>
<asrwt>0</asrwt>
<pdfrwt beam="1">0</pdfrwt>
<pdfrwt beam="2">0</pdfrwt>
<totfact> 0.25655114E+12</totfact>
</mgrwt>
</event>
<event>
 4    2  0.2027839E+006  0.3787438E+01  0.7546771E-02  0.2319866E+00
         22   -1    0    0    0    0  0.00000000000E+00  0.00000000000E+00  0.36988085967E+00  0.36988085967E+00  0.00000000000E+00 0.  1.
         22   -1    0    0    0    0 -0.00000000000E+00 -0.00000000000E+00 -0.52875190959E+02  0.52875190959E+02  0.00000000000E+00 0. -1.
          4    1    1    2  501    0  0.36939963985E+01  0.83610675942E+00 -0.12508134400E+02  0.13068975097E+02  0.00000000000E+00 0.  1.
         -4    1    1    2    0  501 -0.36939963985E+01 -0.83610675942E+00 -0.39997175700E+02  0.40176096723E+02  0.00000000000E+00 0. -1.
<mgrwt>
<rscale>  0 0.37874376E+01</rscale>
<asrwt>0</asrwt>
<pdfrwt beam="1">0</pdfrwt>
<pdfrwt beam="2">0</pdfrwt>
<totfact> 0.60081587E+11</totfact>
</mgrwt>
</event>
<event>
 4    2  0.2027839E+006  0.6407692E+01  0.7546771E-02  0.1984946E+00
         22   -1    0    0    0    0  0.00000000000E+00  0.00000000000E+00  0.45149184847E+01  0.45149184847E+01  0.00000000000E+00 0. -1.
         22   -1    0    0    0    0 -0.00000000000E+00 -0.00000000000E+00 -0.77069015583E+02  0.77069015583E+02  0.00000000000E+00 0.  1.
          4    1    1    2  501    0  0.52974728009E+01 -0.36048990207E+01  0.20327182890E+01  0.67223848944E+01  0.00000000000E+00 0. -1.
         -4    1    1    2    0  501 -0.52974728009E+01  0.36048990207E+01 -0.74586815388E+02  0.74861549174E+02  0.00000000000E+00 0.  1.
<mgrwt>
<rscale>  0 0.64076919E+01</rscale>
<asrwt>0</asrwt>
<pdfrwt beam="1">0</pdfrwt>
<pdfrwt beam="2">0</pdfrwt>
<totfact> 0.20416364E+10</totfact>
</mgrwt>
</event>
<event>
 4    2  0.2027839E+006  0.2440009E+01  0.7546771E-02  0.2735584E+00
         22   -1    0    0    0    0  0.00000000000E+00  0.00000000000E+00  0.35747199258E+01  0.35747199258E+01  0.00000000000E+00 0.  1.
         22   -1    0    0    0    0 -0.00000000000E+00 -0.00000000000E+00 -0.54816361291E+01  0.54816361291E+01  0.00000000000E+00 0. -1.
          4    1    1    2  501    0 -0.95177750345E+00 -0.22467229505E+01  0.28247088236E+01  0.37326430811E+01  0.00000000000E+00 0.  1.
         -4    1    1    2    0  501  0.95177750345E+00  0.22467229505E+01 -0.47316250269E+01  0.53237129738E+01  0.00000000000E+00 0. -1.
<mgrwt>
<rscale>  0 0.24400091E+01</rscale>
<asrwt>0</asrwt>
<pdfrwt beam="1">0</pdfrwt>
<pdfrwt beam="2">0</pdfrwt>
<totfact> 0.74743924E+11</totfact>
</mgrwt>
</event>
<event>
 4    2  0.2027839E+006  0.2300819E+01  0.7546771E-02  0.2803436E+00
         22   -1    0    0    0    0  0.00000000000E+00  0.00000000000E+00  0.31267633031E+01  0.31267633031E+01  0.00000000000E+00 0.  1.
         22   -1    0    0    0    0 -0.00000000000E+00 -0.00000000000E+00 -0.22398330953E+01  0.22398330953E+01  0.00000000000E+00 0. -1.
          4    1    1    2  501    0  0.78788360398E+00  0.21617145314E+01  0.17692350901E+01  0.29024064313E+01  0.00000000000E+00 0.  1.
         -4    1    1    2    0  501 -0.78788360398E+00 -0.21617145314E+01 -0.88230488234E+00  0.24641899671E+01  0.00000000000E+00 0. -1.
<mgrwt>
<rscale>  0 0.23008195E+01</rscale>
<asrwt>0</asrwt>
<pdfrwt beam="1">0</pdfrwt>
<pdfrwt beam="2">0</pdfrwt>
<totfact> 0.24982453E+12</totfact>
</mgrwt>
</event>
<event>
 4    2  0.2027839E+006  0.3107539E+01  0.7546771E-02  0.2489252E+00
         22   -1    0    0    0    0  0.00000000000E+00  0.00000000000E+00  0.60506963237E+01  0.60506963237E+01  0.00000000000E+00 0. -1.
         22   -1    0    0    0    0 -0.00000000000E+00 -0.00000000000E+00 -0.22708175891E+01  0.22708175891E+01  0.00000000000E+00 0.  1.
          4    1    1    2  501    0 -0.19223862286E+01 -0.24415630969E+01  0.41581343488E+01  0.51910384732E+01  0.00000000000E+00 0. -1.
         -4    1    1    2    0  501  0.19223862286E+01  0.24415630969E+01 -0.37825561410E+00  0.31304754396E+01  0.00000000000E+00 0.  1.
<mgrwt>
<rscale>  0 0.31075391E+01</rscale>
<asrwt>0</asrwt>
<pdfrwt beam="1">0</pdfrwt>
<pdfrwt beam="2">0</pdfrwt>
<totfact> 0.11285573E+12</totfact>
</mgrwt>
</event>
<event>
 4    2  0.2027839E+006  0.2786238E+01  0.7546771E-02  0.2594376E+00
         22   -1    0    0    0    0  0.00000000000E+00  0.00000000000E+00  0.50760796078E+01  0.50760796078E+01  0.00000000000E+00 0.  1.
         22   -1    0    0    0    0 -0.00000000000E+00 -0.00000000000E+00 -0.22193356351E+01  0.22193356351E+01  0.00000000000E+00 0. -1.
          4    1    1    2  501    0 -0.88202025607E-01  0.27848415121E+01  0.34622614344E+01  0.44441395213E+01  0.00000000000E+00 0.  1.
         -4    1    1    2    0  501  0.88202025607E-01 -0.27848415121E+01 -0.60551746170E+00  0.28512757217E+01  0.00000000000E+00 0. -1.
<mgrwt>
<rscale>  0 0.27862379E+01</rscale>
<asrwt>0</asrwt>
<pdfrwt beam="1">0</pdfrwt>
<pdfrwt beam="2">0</pdfrwt>
<totfact> 0.14277785E+12</totfact>
</mgrwt>
</event>
<event>
 4    2  0.2027839E+006  0.4351573E+01  0.7546771E-02  0.2214738E+00
         22   -1    0    0    0    0  0.00000000000E+00  0.00000000000E+00  0.23039726451E+01  0.23039726451E+01  0.00000000000E+00 0.  1.
         22   -1    0    0    0    0 -0.00000000000E+00 -0.00000000000E+00 -0.10666658723E+02  0.10666658723E+02  0.00000000000E+00 0. -1.
          4    1    1    2  501    0 -0.42555564469E+01 -0.90908125711E+00 -0.10746483019E+01  0.44823050295E+01  0.00000000000E+00 0.  1.
         -4    1    1    2    0  501  0.42555564469E+01  0.90908125711E+00 -0.72880377756E+01  0.84883263382E+01  0.00000000000E+00 0. -1.
<mgrwt>
<rscale>  0 0.43515732E+01</rscale>
<asrwt>0</asrwt>
<pdfrwt beam="1">0</pdfrwt>
<pdfrwt beam="2">0</pdfrwt>
<totfact> 0.56144325E+11</totfact>
</mgrwt>
</event>
<event>
 4    2  0.2027839E+006  0.4320763E+01  0.7546771E-02  0.2219875E+00
         22   -1    0    0    0    0  0.00000000000E+00  0.00000000000E+00  0.50982107460E+00  0.50982107460E+00  0.00000000000E+00 0.  1.
         22   -1    0    0    0    0 -0.00000000000E+00 -0.00000000000E+00 -0.39802093010E+02  0.39802093010E+02  0.00000000000E+00 0. -1.
          4    1    1    2  501    0  0.36480040927E+01  0.23153962511E+01 -0.13945878956E+02  0.14599881285E+02  0.00000000000E+00 0.  1.
         -4    1    1    2    0  501 -0.36480040927E+01 -0.23153962511E+01 -0.25346392979E+02  0.25712032800E+02  0.00000000000E+00 0. -1.
<mgrwt>
<rscale>  0 0.43207631E+01</rscale>
<asrwt>0</asrwt>
<pdfrwt beam="1">0</pdfrwt>
<pdfrwt beam="2">0</pdfrwt>
<totfact> 0.60723353E+11</totfact>
</mgrwt>
</event>
<event>
 4    2  0.2027839E+006  0.2277347E+01  0.7546771E-02  0.2815650E+00
         22   -1    0    0    0    0  0.00000000000E+00  0.00000000000E+00  0.27977235578E+00  0.27977235578E+00  0.00000000000E+00 0.  1.
         22   -1    0    0    0    0 -0.00000000000E+00 -0.00000000000E+00 -0.25524127829E+02  0.25524127829E+02  0.00000000000E+00 0. -1.
          4    1    1    2  501    0 -0.18717792389E+01  0.12972099683E+01 -0.58720771672E+01  0.62982220887E+01  0.00000000000E+00 0. -1.
         -4    1    1    2    0  501  0.18717792389E+01 -0.12972099683E+01 -0.19372278306E+02  0.19505678096E+02  0.00000000000E+00 0.  1.
<mgrwt>
<rscale>  0 0.22773474E+01</rscale>
<asrwt>0</asrwt>
<pdfrwt beam="1">0</pdfrwt>
<pdfrwt beam="2">0</pdfrwt>
<totfact> 0.21053431E+12</totfact>
</mgrwt>
</event>
<event>
 4    2  0.2027839E+006  0.2004555E+01  0.7546771E-02  0.2977660E+00
         22   -1    0    0    0    0  0.00000000000E+00  0.00000000000E+00  0.44490898177E+01  0.44490898177E+01  0.00000000000E+00 0.  1.
         22   -1    0    0    0    0 -0.00000000000E+00 -0.00000000000E+00 -0.95717943059E+00  0.95717943059E+00  0.00000000000E+00 0. -1.
          4    1    1    2  501    0  0.19960705573E+01  0.18423291611E+00  0.23881199548E+01  0.31179089717E+01  0.00000000000E+00 0.  1.
         -4    1    1    2    0  501 -0.19960705573E+01 -0.18423291611E+00  0.11037904323E+01  0.22883602766E+01  0.00000000000E+00 0. -1.
<mgrwt>
<rscale>  0 0.20045547E+01</rscale>
<asrwt>0</asrwt>
<pdfrwt beam="1">0</pdfrwt>
<pdfrwt beam="2">0</pdfrwt>
<totfact> 0.43892414E+12</totfact>
</mgrwt>
</event>
<event>
 4    2  0.2027839E+006  0.3246803E+01  0.7546771E-02  0.2449507E+00
         22   -1    0    0    0    0  0.00000000000E+00  0.00000000000E+00  0.10201340047E+02  0.10201340047E+02  0.00000000000E+00 0.  1.
         22   -1    0    0    0    0 -0.00000000000E+00 -0.00000000000E+00 -0.14574933079E+01  0.14574933079E+01  0.00000000000E+00 0. -1.
          4    1    1    2  501    0 -0.10614302112E+01  0.30684031211E+01  0.75165510815E+01  0.81878124043E+01  0.00000000000E+00 0.  1.
         -4    1    1    2    0  501  0.10614302112E+01 -0.30684031211E+01  0.12272956572E+01  0.34710209503E+01  0.00000000000E+00 0. -1.
<mgrwt>
<rscale>  0 0.32468033E+01</rscale>
<asrwt>0</asrwt>
<pdfrwt beam="1">0</pdfrwt>
<pdfrwt beam="2">0</pdfrwt>
<totfact> 0.10059303E+12</totfact>
</mgrwt>
</event>
<event>
 4    2  0.2027839E+006  0.2738830E+01  0.7546771E-02  0.2611766E+00
         22   -1    0    0    0    0  0.00000000000E+00  0.00000000000E+00  0.22611585500E+00  0.22611585500E+00  0.00000000000E+00 0. -1.
         22   -1    0    0    0    0 -0.00000000000E+00 -0.00000000000E+00 -0.35686672983E+02  0.35686672983E+02  0.00000000000E+00 0.  1.
          4    1    1    2  501    0 -0.61919831248E-01  0.27381303428E+01 -0.12965697287E+02  0.13251811121E+02  0.00000000000E+00 0. -1.
         -4    1    1    2    0  501  0.61919831248E-01 -0.27381303428E+01 -0.22494859841E+02  0.22660977717E+02  0.00000000000E+00 0.  1.
<mgrwt>
<rscale>  0 0.27388304E+01</rscale>
<asrwt>0</asrwt>
<pdfrwt beam="1">0</pdfrwt>
<pdfrwt beam="2">0</pdfrwt>
<totfact> 0.17426213E+12</totfact>
</mgrwt>
</event>
<event>
 4    2  0.2027839E+006  0.3030282E+01  0.7546771E-02  0.2512697E+00
         22   -1    0    0    0    0  0.00000000000E+00  0.00000000000E+00  0.61507344193E+00  0.61507344193E+00  0.00000000000E+00 0. -1.
         22   -1    0    0    0    0 -0.00000000000E+00 -0.00000000000E+00 -0.38055378250E+02  0.38055378250E+02  0.00000000000E+00 0.  1.
          4    1    1    2  501    0  0.21765525340E+01 -0.21083706988E+01 -0.36474076315E+01  0.47419606037E+01  0.00000000000E+00 0. -1.
         -4    1    1    2    0  501 -0.21765525340E+01  0.21083706988E+01 -0.33792897176E+02  0.33928491088E+02  0.00000000000E+00 0.  1.
<mgrwt>
<rscale>  0 0.30302818E+01</rscale>
<asrwt>0</asrwt>
<pdfrwt beam="1">0</pdfrwt>
<pdfrwt beam="2">0</pdfrwt>
<totfact> 0.52047426E+11</totfact>
</mgrwt>
</event>
<event>
 4    2  0.2027839E+006  0.2525537E+01  0.7546771E-02  0.2697378E+00
         22   -1    0    0    0    0  0.00000000000E+00  0.00000000000E+00  0.59229511512E+01  0.59229511512E+01  0.00000000000E+00 0. -1.
         22   -1    0    0    0    0 -0.00000000000E+00 -0.00000000000E+00 -0.10543387107E+02  0.10543387107E+02  0.00000000000E+00 0.  1.
          4    1    1    2  501    0 -0.25254243473E+01 -0.23806829564E-01  0.54911675063E+01  0.60441091553E+01  0.00000000000E+00 0. -1.
         -4    1    1    2    0  501  0.25254243473E+01  0.23806829564E-01 -0.10111603462E+02  0.10422229102E+02  0.00000000000E+00 0.  1.
<mgrwt>
<rscale>  0 0.25255366E+01</rscale>
<asrwt>0</asrwt>
<pdfrwt beam="1">0</pdfrwt>
<pdfrwt beam="2">0</pdfrwt>
<totfact> 0.18781314E+11</totfact>
</mgrwt>
</event>
<event>
 4    2  0.2027839E+006  0.3874316E+01  0.7546771E-02  0.2301983E+00
         22   -1    0    0    0    0  0.00000000000E+00  0.00000000000E+00  0.18797985964E+02  0.18797985964E+02  0.00000000000E+00 0.  1.
         22   -1    0    0    0    0 -0.00000000000E+00 -0.00000000000E+00 -0.13039060318E+01  0.13039060318E+01  0.00000000000E+00 0. -1.
          4    1    1    2  501    0 -0.21299403629E+01 -0.32363063302E+01  0.15004541533E+02  0.15496663874E+02  0.00000000000E+00 0.  1.
         -4    1    1    2    0  501  0.21299403629E+01  0.32363063302E+01  0.24895383996E+01  0.46052281220E+01  0.00000000000E+00 0. -1.
<mgrwt>
<rscale>  0 0.38743160E+01</rscale>
<asrwt>0</asrwt>
<pdfrwt beam="1">0</pdfrwt>
<pdfrwt beam="2">0</pdfrwt>
<totfact> 0.54008804E+11</totfact>
</mgrwt>
</event>
<event>
 4    2  0.2027839E+006  0.3729698E+01  0.7546771E-02  0.2332146E+00
         22   -1    0    0    0    0  0.00000000000E+00  0.00000000000E+00  0.96217775121E+00  0.96217775121E+00  0.00000000000E+00 0. -1.
         22   -1    0    0    0    0 -0.00000000000E+00 -0.00000000000E+00 -0.14663737080E+02  0.14663737080E+02  0.00000000000E+00 0.  1.
          4    1    1    2  501    0 -0.28157741447E+01  0.24458261900E+01 -0.59241315325E+01  0.70004274297E+01  0.00000000000E+00 0. -1.
         -4    1    1    2    0  501  0.28157741447E+01 -0.24458261900E+01 -0.77774277962E+01  0.86254874013E+01  0.00000000000E+00 0.  1.
<mgrwt>
<rscale>  0 0.37296984E+01</rscale>
<asrwt>0</asrwt>
<pdfrwt beam="1">0</pdfrwt>
<pdfrwt beam="2">0</pdfrwt>
<totfact> 0.10395527E+12</totfact>
</mgrwt>
</event>
<event>
 4    2  0.2027839E+006  0.2749141E+01  0.7546771E-02  0.2607937E+00
         22   -1    0    0    0    0  0.00000000000E+00  0.00000000000E+00  0.61293718169E+01  0.61293718169E+01  0.00000000000E+00 0.  1.
         22   -1    0    0    0    0 -0.00000000000E+00 -0.00000000000E+00 -0.16858827520E+01  0.16858827520E+01  0.00000000000E+00 0. -1.
          4    1    1    2  501    0 -0.26701412065E+01  0.65431252654E+00  0.42469622907E+01  0.50590975128E+01  0.00000000000E+00 0.  1.
         -4    1    1    2    0  501  0.26701412065E+01 -0.65431252654E+00  0.19652677417E+00  0.27561570562E+01  0.00000000000E+00 0. -1.
<mgrwt>
<rscale>  0 0.27491415E+01</rscale>
<asrwt>0</asrwt>
<pdfrwt beam="1">0</pdfrwt>
<pdfrwt beam="2">0</pdfrwt>
<totfact> 0.15685325E+12</totfact>
</mgrwt>
</event>
<event>
 4    2  0.2027839E+006  0.2543470E+01  0.7546771E-02  0.2689670E+00
         22   -1    0    0    0    0  0.00000000000E+00  0.00000000000E+00  0.84366194679E+01  0.84366194679E+01  0.00000000000E+00 0.  1.
         22   -1    0    0    0    0 -0.00000000000E+00 -0.00000000000E+00 -0.46025717733E+01  0.46025717733E+01  0.00000000000E+00 0. -1.
          4    1    1    2  501    0  0.14839379663E+01 -0.20657128233E+01  0.78687984408E+01  0.82696572032E+01  0.00000000000E+00 0.  1.
         -4    1    1    2    0  501 -0.14839379663E+01  0.20657128233E+01 -0.40347507462E+01  0.47695340380E+01  0.00000000000E+00 0. -1.
<mgrwt>
<rscale>  0 0.25434703E+01</rscale>
<asrwt>0</asrwt>
<pdfrwt beam="1">0</pdfrwt>
<pdfrwt beam="2">0</pdfrwt>
<totfact> 0.33156487E+11</totfact>
</mgrwt>
</event>
<event>
 4    2  0.2027839E+006  0.2005119E+01  0.7546771E-02  0.2977281E+00
         22   -1    0    0    0    0  0.00000000000E+00  0.00000000000E+00  0.11097958944E+02  0.11097958944E+02  0.00000000000E+00 0. -1.
         22   -1    0    0    0    0 -0.00000000000E+00 -0.00000000000E+00 -0.24404096349E+01  0.24404096349E+01  0.00000000000E+00 0.  1.
          4    1    1    2  501    0 -0.15067234712E+01 -0.13229833054E+01  0.10575349264E+02  0.10763759218E+02  0.00000000000E+00 0. -1.
         -4    1    1    2    0  501  0.15067234712E+01  0.13229833054E+01 -0.19177999542E+01  0.27746093616E+01  0.00000000000E+00 0.  1.
<mgrwt>
<rscale>  0 0.20051186E+01</rscale>
<asrwt>0</asrwt>
<pdfrwt beam="1">0</pdfrwt>
<pdfrwt beam="2">0</pdfrwt>
<totfact> 0.50038775E+11</totfact>
</mgrwt>
</event>
<event>
 4    2  0.2027839E+006  0.2050868E+01  0.7546771E-02  0.2947214E+00
         22   -1    0    0    0    0  0.00000000000E+00  0.00000000000E+00  0.35046801603E+02  0.35046801603E+02  0.00000000000E+00 0. -1.
         22   -1    0    0    0    0 -0.00000000000E+00 -0.00000000000E+00 -0.12817318923E+00  0.12817318923E+00  0.00000000000E+00 0.  1.
          4    1    1    2  501    0  0.65046392940E+00  0.19449820735E+01  0.13021538489E+02  0.13182053072E+02  0.00000000000E+00 0.  1.
         -4    1    1    2    0  501 -0.65046392940E+00 -0.19449820735E+01  0.21897089925E+02  0.21992921720E+02  0.00000000000E+00 0. -1.
<mgrwt>
<rscale>  0 0.20508678E+01</rscale>
<asrwt>0</asrwt>
<pdfrwt beam="1">0</pdfrwt>
<pdfrwt beam="2">0</pdfrwt>
<totfact> 0.33557000E+12</totfact>
</mgrwt>
</event>
<event>
 4    2  0.2027839E+006  0.2561543E+01  0.7546771E-02  0.2682004E+00
         22   -1    0    0    0    0  0.00000000000E+00  0.00000000000E+00  0.15588022212E+01  0.15588022212E+01  0.00000000000E+00 0.  1.
         22   -1    0    0    0    0 -0.00000000000E+00 -0.00000000000E+00 -0.42249092404E+01  0.42249092404E+01  0.00000000000E+00 0. -1.
          4    1    1    2  501    0 -0.18792739226E+01 -0.17406411141E+01 -0.15086999342E+01  0.29728231457E+01  0.00000000000E+00 0. -1.
         -4    1    1    2    0  501  0.18792739226E+01  0.17406411141E+01 -0.11574070850E+01  0.28108883159E+01  0.00000000000E+00 0.  1.
<mgrwt>
<rscale>  0 0.25615429E+01</rscale>
<asrwt>0</asrwt>
<pdfrwt beam="1">0</pdfrwt>
<pdfrwt beam="2">0</pdfrwt>
<totfact> 0.26678078E+12</totfact>
</mgrwt>
</event>
<event>
 4    2  0.2027839E+006  0.6351234E+01  0.7546771E-02  0.1989550E+00
         22   -1    0    0    0    0  0.00000000000E+00  0.00000000000E+00  0.10058718030E+02  0.10058718030E+02  0.00000000000E+00 0. -1.
         22   -1    0    0    0    0 -0.00000000000E+00 -0.00000000000E+00 -0.40171167112E+01  0.40171167112E+01  0.00000000000E+00 0.  1.
          4    1    1    2  501    0 -0.10743628745E+01  0.62597063596E+01  0.27302546676E+01  0.69132098076E+01  0.00000000000E+00 0.  1.
         -4    1    1    2    0  501  0.10743628745E+01 -0.62597063596E+01  0.33113466512E+01  0.71626249335E+01  0.00000000000E+00 0. -1.
<mgrwt>
<rscale>  0 0.63512345E+01</rscale>
<asrwt>0</asrwt>
<pdfrwt beam="1">0</pdfrwt>
<pdfrwt beam="2">0</pdfrwt>
<totfact> 0.31480174E+11</totfact>
</mgrwt>
</event>
<event>
 4    2  0.2027839E+006  0.2192410E+01  0.7546771E-02  0.2861926E+00
         22   -1    0    0    0    0  0.00000000000E+00  0.00000000000E+00  0.50939735517E+02  0.50939735517E+02  0.00000000000E+00 0. -1.
         22   -1    0    0    0    0 -0.00000000000E+00 -0.00000000000E+00 -0.95313774737E-01  0.95313774737E-01  0.00000000000E+00 0.  1.
          4    1    1    2  501    0  0.13229933341E+01 -0.17482425007E+01  0.27975084856E+02  0.28060863064E+02  0.00000000000E+00 0.  1.
         -4    1    1    2    0  501 -0.13229933341E+01  0.17482425007E+01  0.22869336887E+02  0.22974186228E+02  0.00000000000E+00 0. -1.
<mgrwt>
<rscale>  0 0.21924104E+01</rscale>
<asrwt>0</asrwt>
<pdfrwt beam="1">0</pdfrwt>
<pdfrwt beam="2">0</pdfrwt>
<totfact> 0.28623854E+12</totfact>
</mgrwt>
</event>
<event>
 4    2  0.2027839E+006  0.2174622E+01  0.7546771E-02  0.2872055E+00
         22   -1    0    0    0    0  0.00000000000E+00  0.00000000000E+00  0.72980572894E+01  0.72980572894E+01  0.00000000000E+00 0. -1.
         22   -1    0    0    0    0 -0.00000000000E+00 -0.00000000000E+00 -0.64814991257E+00  0.64814991257E+00  0.00000000000E+00 0.  1.
          4    1    1    2  501    0 -0.21721999409E+01 -0.10261536311E+00  0.32602972554E+01  0.39189948570E+01  0.00000000000E+00 0. -1.
         -4    1    1    2    0  501  0.21721999409E+01  0.10261536311E+00  0.33896101214E+01  0.40272123449E+01  0.00000000000E+00 0.  1.
<mgrwt>
<rscale>  0 0.21746224E+01</rscale>
<asrwt>0</asrwt>
<pdfrwt beam="1">0</pdfrwt>
<pdfrwt beam="2">0</pdfrwt>
<totfact> 0.37974592E+12</totfact>
</mgrwt>
</event>
<event>
 4    2  0.2027839E+006  0.4075980E+01  0.7546771E-02  0.2263002E+00
         22   -1    0    0    0    0  0.00000000000E+00  0.00000000000E+00  0.54640205149E+02  0.54640205149E+02  0.00000000000E+00 0. -1.
         22   -1    0    0    0    0 -0.00000000000E+00 -0.00000000000E+00 -0.10275747784E+01  0.10275747784E+01  0.00000000000E+00 0.  1.
          4    1    1    2  501    0 -0.40514982642E+01 -0.44606228101E+00  0.50161993759E+02  0.50327320886E+02  0.00000000000E+00 0. -1.
         -4    1    1    2    0  501  0.40514982642E+01  0.44606228101E+00  0.34506366120E+01  0.53404590412E+01  0.00000000000E+00 0.  1.
<mgrwt>
<rscale>  0 0.40759796E+01</rscale>
<asrwt>0</asrwt>
<pdfrwt beam="1">0</pdfrwt>
<pdfrwt beam="2">0</pdfrwt>
<totfact> 0.18073365E+11</totfact>
</mgrwt>
</event>
<event>
 4    2  0.2027839E+006  0.9538197E+01  0.7546771E-02  0.1798525E+00
         22   -1    0    0    0    0  0.00000000000E+00  0.00000000000E+00  0.13092780435E+02  0.13092780435E+02  0.00000000000E+00 0.  1.
         22   -1    0    0    0    0 -0.00000000000E+00 -0.00000000000E+00 -0.39449580438E+02  0.39449580438E+02  0.00000000000E+00 0. -1.
          4    1    1    2  501    0 -0.80463725113E+01 -0.51218244251E+01  0.10667090807E+02  0.14309577992E+02  0.00000000000E+00 0.  1.
         -4    1    1    2    0  501  0.80463725113E+01  0.51218244251E+01 -0.37023890811E+02  0.38232782881E+02  0.00000000000E+00 0. -1.
<mgrwt>
<rscale>  0 0.95381967E+01</rscale>
<asrwt>0</asrwt>
<pdfrwt beam="1">0</pdfrwt>
<pdfrwt beam="2">0</pdfrwt>
<totfact> 0.13860348E+10</totfact>
</mgrwt>
</event>
<event>
 4    2  0.2027839E+006  0.2084287E+01  0.7546771E-02  0.2926065E+00
         22   -1    0    0    0    0  0.00000000000E+00  0.00000000000E+00  0.99982537173E+01  0.99982537173E+01  0.00000000000E+00 0. -1.
         22   -1    0    0    0    0 -0.00000000000E+00 -0.00000000000E+00 -0.47561548846E+00  0.47561548846E+00  0.00000000000E+00 0.  1.
          4    1    1    2  501    0  0.16399898616E+01 -0.12863460606E+01  0.63010531370E+01  0.66368308378E+01  0.00000000000E+00 0. -1.
         -4    1    1    2    0  501 -0.16399898616E+01  0.12863460606E+01  0.32215850918E+01  0.38370383680E+01  0.00000000000E+00 0.  1.
<mgrwt>
<rscale>  0 0.20842872E+01</rscale>
<asrwt>0</asrwt>
<pdfrwt beam="1">0</pdfrwt>
<pdfrwt beam="2">0</pdfrwt>
<totfact> 0.36887791E+12</totfact>
</mgrwt>
</event>
<event>
 4    2  0.2027839E+006  0.3615511E+01  0.7546771E-02  0.2357425E+00
         22   -1    0    0    0    0  0.00000000000E+00  0.00000000000E+00  0.19741005206E+02  0.19741005206E+02  0.00000000000E+00 0. -1.
         22   -1    0    0    0    0 -0.00000000000E+00 -0.00000000000E+00 -0.10978435104E+01  0.10978435104E+01  0.00000000000E+00 0.  1.
          4    1    1    2  501    0  0.71316712601E+00 -0.35444766687E+01  0.15885353941E+02  0.16291604956E+02  0.00000000000E+00 0. -1.
         -4    1    1    2    0  501 -0.71316712601E+00  0.35444766687E+01  0.27578077537E+01  0.45472437598E+01  0.00000000000E+00 0.  1.
<mgrwt>
<rscale>  0 0.36155113E+01</rscale>
<asrwt>0</asrwt>
<pdfrwt beam="1">0</pdfrwt>
<pdfrwt beam="2">0</pdfrwt>
<totfact> 0.61886026E+11</totfact>
</mgrwt>
</event>
<event>
 4    2  0.2027839E+006  0.3132175E+01  0.7546771E-02  0.2481992E+00
         22   -1    0    0    0    0  0.00000000000E+00  0.00000000000E+00  0.14846874652E+01  0.14846874652E+01  0.00000000000E+00 0.  1.
         22   -1    0    0    0    0 -0.00000000000E+00 -0.00000000000E+00 -0.67557679423E+01  0.67557679423E+01  0.00000000000E+00 0. -1.
          4    1    1    2  501    0 -0.90170715301E+00  0.29995744525E+01 -0.32453057773E+01  0.45102696454E+01  0.00000000000E+00 0. -1.
         -4    1    1    2    0  501  0.90170715301E+00 -0.29995744525E+01 -0.20257746998E+01  0.37301857622E+01  0.00000000000E+00 0.  1.
<mgrwt>
<rscale>  0 0.31321754E+01</rscale>
<asrwt>0</asrwt>
<pdfrwt beam="1">0</pdfrwt>
<pdfrwt beam="2">0</pdfrwt>
<totfact> 0.16168054E+12</totfact>
</mgrwt>
</event>
<event>
 4    2  0.2027839E+006  0.3783712E+01  0.7546771E-02  0.2320648E+00
         22   -1    0    0    0    0  0.00000000000E+00  0.00000000000E+00  0.52442250593E+02  0.52442250593E+02  0.00000000000E+00 0.  1.
         22   -1    0    0    0    0 -0.00000000000E+00 -0.00000000000E+00 -0.27304705245E+00  0.27304705245E+00  0.00000000000E+00 0. -1.
          4    1    1    2  501    0 -0.18237557113E+01 -0.33151762614E+01  0.26448101191E+02  0.26717382640E+02  0.00000000000E+00 0.  1.
         -4    1    1    2    0  501  0.18237557113E+01  0.33151762614E+01  0.25721102350E+02  0.25997915005E+02  0.00000000000E+00 0. -1.
<mgrwt>
<rscale>  0 0.37837123E+01</rscale>
<asrwt>0</asrwt>
<pdfrwt beam="1">0</pdfrwt>
<pdfrwt beam="2">0</pdfrwt>
<totfact> 0.85386784E+11</totfact>
</mgrwt>
</event>
<event>
 4    2  0.2027839E+006  0.2775084E+01  0.7546771E-02  0.2598419E+00
         22   -1    0    0    0    0  0.00000000000E+00  0.00000000000E+00  0.24096371814E+02  0.24096371814E+02  0.00000000000E+00 0. -1.
         22   -1    0    0    0    0 -0.00000000000E+00 -0.00000000000E+00 -0.57807851509E+00  0.57807851509E+00  0.00000000000E+00 0.  1.
          4    1    1    2  501    0 -0.20509251153E+01  0.18694372531E+01  0.20008884916E+02  0.20200410022E+02  0.00000000000E+00 0. -1.
         -4    1    1    2    0  501  0.20509251153E+01 -0.18694372531E+01  0.35094083827E+01  0.44740403070E+01  0.00000000000E+00 0.  1.
<mgrwt>
<rscale>  0 0.27750837E+01</rscale>
<asrwt>0</asrwt>
<pdfrwt beam="1">0</pdfrwt>
<pdfrwt beam="2">0</pdfrwt>
<totfact> 0.10000775E+12</totfact>
</mgrwt>
</event>
<event>
 4    2  0.2027839E+006  0.2007492E+01  0.7546771E-02  0.2975689E+00
         22   -1    0    0    0    0  0.00000000000E+00  0.00000000000E+00  0.59275231283E+00  0.59275231283E+00  0.00000000000E+00 0. -1.
         22   -1    0    0    0    0 -0.00000000000E+00 -0.00000000000E+00 -0.73472895519E+01  0.73472895519E+01  0.00000000000E+00 0.  1.
          4    1    1    2  501    0  0.15005958986E+00  0.20018753211E+01 -0.22925896892E+01  0.30472922677E+01  0.00000000000E+00 0. -1.
         -4    1    1    2    0  501 -0.15005958986E+00 -0.20018753211E+01 -0.44619475498E+01  0.48927495970E+01  0.00000000000E+00 0.  1.
<mgrwt>
<rscale>  0 0.20074916E+01</rscale>
<asrwt>0</asrwt>
<pdfrwt beam="1">0</pdfrwt>
<pdfrwt beam="2">0</pdfrwt>
<totfact> 0.41680649E+12</totfact>
</mgrwt>
</event>
<event>
 4    2  0.2027839E+006  0.2070230E+01  0.7546771E-02  0.2934881E+00
         22   -1    0    0    0    0  0.00000000000E+00  0.00000000000E+00  0.53079332238E+00  0.53079332238E+00  0.00000000000E+00 0.  1.
         22   -1    0    0    0    0 -0.00000000000E+00 -0.00000000000E+00 -0.10353070477E+02  0.10353070477E+02  0.00000000000E+00 0. -1.
          4    1    1    2  501    0  0.15317792340E+01  0.13926602602E+01 -0.23581021316E+01  0.31379126637E+01  0.00000000000E+00 0.  1.
         -4    1    1    2    0  501 -0.15317792340E+01 -0.13926602602E+01 -0.74641750230E+01  0.77459511357E+01  0.00000000000E+00 0. -1.
<mgrwt>
<rscale>  0 0.20702295E+01</rscale>
<asrwt>0</asrwt>
<pdfrwt beam="1">0</pdfrwt>
<pdfrwt beam="2">0</pdfrwt>
<totfact> 0.31238872E+12</totfact>
</mgrwt>
</event>
<event>
 4    2  0.2027839E+006  0.3447727E+01  0.7546771E-02  0.2397191E+00
         22   -1    0    0    0    0  0.00000000000E+00  0.00000000000E+00  0.28729105397E+02  0.28729105397E+02  0.00000000000E+00 0.  1.
         22   -1    0    0    0    0 -0.00000000000E+00 -0.00000000000E+00 -0.97644860211E+00  0.97644860211E+00  0.00000000000E+00 0. -1.
          4    1    1    2  501    0  0.22592922443E+01 -0.26043076142E+01  0.25151387829E+02  0.25386593496E+02  0.00000000000E+00 0.  1.
         -4    1    1    2    0  501 -0.22592922443E+01  0.26043076142E+01  0.26012689653E+01  0.43189605027E+01  0.00000000000E+00 0. -1.
<mgrwt>
<rscale>  0 0.34477267E+01</rscale>
<asrwt>0</asrwt>
<pdfrwt beam="1">0</pdfrwt>
<pdfrwt beam="2">0</pdfrwt>
<totfact> 0.44126756E+11</totfact>
</mgrwt>
</event>
<event>
 4    2  0.2027839E+006  0.2806790E+01  0.7546771E-02  0.2587003E+00
         22   -1    0    0    0    0  0.00000000000E+00  0.00000000000E+00  0.23764826263E+00  0.23764826263E+00  0.00000000000E+00 0.  1.
         22   -1    0    0    0    0 -0.00000000000E+00 -0.00000000000E+00 -0.58208467917E+02  0.58208467917E+02  0.00000000000E+00 0. -1.
          4    1    1    2  501    0  0.12187935109E+01  0.25283612210E+01 -0.98115827263E+01  0.10205156720E+02  0.00000000000E+00 0.  1.
         -4    1    1    2    0  501 -0.12187935109E+01 -0.25283612210E+01 -0.48159236928E+02  0.48240959459E+02  0.00000000000E+00 0. -1.
<mgrwt>
<rscale>  0 0.28067896E+01</rscale>
<asrwt>0</asrwt>
<pdfrwt beam="1">0</pdfrwt>
<pdfrwt beam="2">0</pdfrwt>
<totfact> 0.86822064E+11</totfact>
</mgrwt>
</event>
<event>
 4    2  0.2027839E+006  0.2318329E+01  0.7546771E-02  0.2794479E+00
         22   -1    0    0    0    0  0.00000000000E+00  0.00000000000E+00  0.71631291637E+01  0.71631291637E+01  0.00000000000E+00 0. -1.
         22   -1    0    0    0    0 -0.00000000000E+00 -0.00000000000E+00 -0.16055690201E+01  0.16055690201E+01  0.00000000000E+00 0.  1.
          4    1    1    2  501    0  0.17832863323E+01  0.14813973091E+01  0.59786815582E+01  0.64124317778E+01  0.00000000000E+00 0. -1.
         -4    1    1    2    0  501 -0.17832863323E+01 -0.14813973091E+01 -0.42112141460E+00  0.23562664060E+01  0.00000000000E+00 0.  1.
<mgrwt>
<rscale>  0 0.23183287E+01</rscale>
<asrwt>0</asrwt>
<pdfrwt beam="1">0</pdfrwt>
<pdfrwt beam="2">0</pdfrwt>
<totfact> 0.13775026E+12</totfact>
</mgrwt>
</event>
<event>
 4    2  0.2027839E+006  0.2579856E+01  0.7546771E-02  0.2674338E+00
         22   -1    0    0    0    0  0.00000000000E+00  0.00000000000E+00  0.91047738434E+01  0.91047738434E+01  0.00000000000E+00 0. -1.
         22   -1    0    0    0    0 -0.00000000000E+00 -0.00000000000E+00 -0.73809404907E+00  0.73809404907E+00  0.00000000000E+00 0.  1.
          4    1    1    2  501    0  0.21413037725E+01  0.14389143566E+01  0.37011050720E+01  0.45115224842E+01  0.00000000000E+00 0.  1.
         -4    1    1    2    0  501 -0.21413037725E+01 -0.14389143566E+01  0.46655747223E+01  0.53313454082E+01  0.00000000000E+00 0. -1.
<mgrwt>
<rscale>  0 0.25798559E+01</rscale>
<asrwt>0</asrwt>
<pdfrwt beam="1">0</pdfrwt>
<pdfrwt beam="2">0</pdfrwt>
<totfact> 0.25117576E+12</totfact>
</mgrwt>
</event>
<event>
 4    2  0.2027839E+006  0.2310010E+01  0.7546771E-02  0.2798719E+00
         22   -1    0    0    0    0  0.00000000000E+00  0.00000000000E+00  0.26236539193E+02  0.26236539193E+02  0.00000000000E+00 0. -1.
         22   -1    0    0    0    0 -0.00000000000E+00 -0.00000000000E+00 -0.62225879553E+00  0.62225879553E+00  0.00000000000E+00 0.  1.
          4    1    1    2  501    0  0.65868208357E+00  0.22141099067E+01  0.23825377780E+02  0.23937100307E+02  0.00000000000E+00 0. -1.
         -4    1    1    2    0  501 -0.65868208357E+00 -0.22141099067E+01  0.17889026179E+01  0.29216976816E+01  0.00000000000E+00 0.  1.
<mgrwt>
<rscale>  0 0.23100097E+01</rscale>
<asrwt>0</asrwt>
<pdfrwt beam="1">0</pdfrwt>
<pdfrwt beam="2">0</pdfrwt>
<totfact> 0.82636113E+11</totfact>
</mgrwt>
</event>
<event>
 4    2  0.2027839E+006  0.2034678E+01  0.7546771E-02  0.2957703E+00
         22   -1    0    0    0    0  0.00000000000E+00  0.00000000000E+00  0.55621336371E+00  0.55621336371E+00  0.00000000000E+00 0.  1.
         22   -1    0    0    0    0 -0.00000000000E+00 -0.00000000000E+00 -0.78817306099E+01  0.78817306099E+01  0.00000000000E+00 0. -1.
          4    1    1    2  501    0 -0.63576501951E-01 -0.20336848619E+01 -0.26674059253E+01  0.33548428368E+01  0.00000000000E+00 0.  1.
         -4    1    1    2    0  501  0.63576501951E-01  0.20336848619E+01 -0.46581113209E+01  0.50831011368E+01  0.00000000000E+00 0. -1.
<mgrwt>
<rscale>  0 0.20346784E+01</rscale>
<asrwt>0</asrwt>
<pdfrwt beam="1">0</pdfrwt>
<pdfrwt beam="2">0</pdfrwt>
<totfact> 0.41174771E+12</totfact>
</mgrwt>
</event>
<event>
 4    2  0.2027839E+006  0.2206680E+01  0.7546771E-02  0.2853914E+00
         22   -1    0    0    0    0  0.00000000000E+00  0.00000000000E+00  0.10379081526E+00  0.10379081526E+00  0.00000000000E+00 0.  1.
         22   -1    0    0    0    0 -0.00000000000E+00 -0.00000000000E+00 -0.56718205612E+02  0.56718205612E+02  0.00000000000E+00 0. -1.
          4    1    1    2  501    0  0.75606579592E+00 -0.20731139009E+01 -0.40118296975E+02  0.40178939619E+02  0.00000000000E+00 0. -1.
         -4    1    1    2    0  501 -0.75606579592E+00  0.20731139009E+01 -0.16496117822E+02  0.16643056809E+02  0.00000000000E+00 0.  1.
<mgrwt>
<rscale>  0 0.22066800E+01</rscale>
<asrwt>0</asrwt>
<pdfrwt beam="1">0</pdfrwt>
<pdfrwt beam="2">0</pdfrwt>
<totfact> 0.22587582E+12</totfact>
</mgrwt>
</event>
<event>
 4    2  0.2027839E+006  0.2126433E+01  0.7546771E-02  0.2900315E+00
         22   -1    0    0    0    0  0.00000000000E+00  0.00000000000E+00  0.85887562300E-01  0.85887562300E-01  0.00000000000E+00 0. -1.
         22   -1    0    0    0    0 -0.00000000000E+00 -0.00000000000E+00 -0.62777150747E+02  0.62777150747E+02  0.00000000000E+00 0.  1.
          4    1    1    2  501    0 -0.34379396834E+00  0.20984572325E+01 -0.43971867059E+02  0.44023253057E+02  0.00000000000E+00 0.  1.
         -4    1    1    2    0  501  0.34379396834E+00 -0.20984572325E+01 -0.18719396125E+02  0.18839785252E+02  0.00000000000E+00 0. -1.
<mgrwt>
<rscale>  0 0.21264329E+01</rscale>
<asrwt>0</asrwt>
<pdfrwt beam="1">0</pdfrwt>
<pdfrwt beam="2">0</pdfrwt>
<totfact> 0.24314269E+12</totfact>
</mgrwt>
</event>
<event>
 4    2  0.2027839E+006  0.2079455E+01  0.7546771E-02  0.2929083E+00
         22   -1    0    0    0    0  0.00000000000E+00  0.00000000000E+00  0.24271774564E+01  0.24271774564E+01  0.00000000000E+00 0. -1.
         22   -1    0    0    0    0 -0.00000000000E+00 -0.00000000000E+00 -0.18103832572E+01  0.18103832572E+01  0.00000000000E+00 0.  1.
          4    1    1    2  501    0 -0.16849368610E+01  0.12186549020E+01  0.57580002285E+00  0.21577019400E+01  0.00000000000E+00 0. -1.
         -4    1    1    2    0  501  0.16849368610E+01 -0.12186549020E+01  0.40994176332E-01  0.20798587736E+01  0.00000000000E+00 0.  1.
<mgrwt>
<rscale>  0 0.20794547E+01</rscale>
<asrwt>0</asrwt>
<pdfrwt beam="1">0</pdfrwt>
<pdfrwt beam="2">0</pdfrwt>
<totfact> 0.42940620E+12</totfact>
</mgrwt>
</event>
<event>
 4    2  0.2027839E+006  0.2752567E+01  0.7546771E-02  0.2606671E+00
         22   -1    0    0    0    0  0.00000000000E+00  0.00000000000E+00  0.45278150991E+01  0.45278150991E+01  0.00000000000E+00 0.  1.
         22   -1    0    0    0    0 -0.00000000000E+00 -0.00000000000E+00 -0.34809972103E+02  0.34809972103E+02  0.00000000000E+00 0. -1.
          4    1    1    2  501    0  0.19692189893E+01  0.19232267795E+01  0.40492409052E+01  0.48962206426E+01  0.00000000000E+00 0.  1.
         -4    1    1    2    0  501 -0.19692189893E+01 -0.19232267795E+01 -0.34331397909E+02  0.34441566559E+02  0.00000000000E+00 0. -1.
<mgrwt>
<rscale>  0 0.27525669E+01</rscale>
<asrwt>0</asrwt>
<pdfrwt beam="1">0</pdfrwt>
<pdfrwt beam="2">0</pdfrwt>
<totfact> 0.58289866E+10</totfact>
</mgrwt>
</event>
<event>
 4    2  0.2027839E+006  0.2237235E+01  0.7546771E-02  0.2837086E+00
         22   -1    0    0    0    0  0.00000000000E+00  0.00000000000E+00  0.64107522203E+01  0.64107522203E+01  0.00000000000E+00 0.  1.
         22   -1    0    0    0    0 -0.00000000000E+00 -0.00000000000E+00 -0.39535323747E+01  0.39535323747E+01  0.00000000000E+00 0. -1.
          4    1    1    2  501    0  0.19235960601E+01 -0.11423661033E+01  0.58709455441E+01  0.62827719757E+01  0.00000000000E+00 0.  1.
         -4    1    1    2    0  501 -0.19235960601E+01  0.11423661033E+01 -0.34137256985E+01  0.40815126193E+01  0.00000000000E+00 0. -1.
<mgrwt>
<rscale>  0 0.22372354E+01</rscale>
<asrwt>0</asrwt>
<pdfrwt beam="1">0</pdfrwt>
<pdfrwt beam="2">0</pdfrwt>
<totfact> 0.55113222E+11</totfact>
</mgrwt>
</event>
<event>
 4    2  0.2027839E+006  0.2286866E+01  0.7546771E-02  0.2810668E+00
         22   -1    0    0    0    0  0.00000000000E+00  0.00000000000E+00  0.54481108073E+00  0.54481108073E+00  0.00000000000E+00 0. -1.
         22   -1    0    0    0    0 -0.00000000000E+00 -0.00000000000E+00 -0.20498363649E+02  0.20498363649E+02  0.00000000000E+00 0.  1.
          4    1    1    2  501    0 -0.49181454847E+00  0.22333553242E+01 -0.23046101475E+01  0.32466883876E+01  0.00000000000E+00 0. -1.
         -4    1    1    2    0  501  0.49181454847E+00 -0.22333553242E+01 -0.17648942420E+02  0.17796486342E+02  0.00000000000E+00 0.  1.
<mgrwt>
<rscale>  0 0.22868663E+01</rscale>
<asrwt>0</asrwt>
<pdfrwt beam="1">0</pdfrwt>
<pdfrwt beam="2">0</pdfrwt>
<totfact> 0.13097154E+12</totfact>
</mgrwt>
</event>
<event>
 4    2  0.2027839E+006  0.3704454E+01  0.7546771E-02  0.2337619E+00
         22   -1    0    0    0    0  0.00000000000E+00  0.00000000000E+00  0.40308242751E+00  0.40308242751E+00  0.00000000000E+00 0. -1.
         22   -1    0    0    0    0 -0.00000000000E+00 -0.00000000000E+00 -0.34935249965E+02  0.34935249965E+02  0.00000000000E+00 0.  1.
          4    1    1    2  501    0  0.35640804465E+01  0.10101039172E+01 -0.14445642574E+02  0.14913067046E+02  0.00000000000E+00 0.  1.
         -4    1    1    2    0  501 -0.35640804465E+01 -0.10101039172E+01 -0.20086524964E+02  0.20425265347E+02  0.00000000000E+00 0. -1.
<mgrwt>
<rscale>  0 0.37044540E+01</rscale>
<asrwt>0</asrwt>
<pdfrwt beam="1">0</pdfrwt>
<pdfrwt beam="2">0</pdfrwt>
<totfact> 0.93663483E+11</totfact>
</mgrwt>
</event>
<event>
 4    2  0.2027839E+006  0.3098764E+01  0.7546771E-02  0.2491862E+00
         22   -1    0    0    0    0  0.00000000000E+00  0.00000000000E+00  0.61766965840E+01  0.61766965840E+01  0.00000000000E+00 0.  1.
         22   -1    0    0    0    0 -0.00000000000E+00 -0.00000000000E+00 -0.24214622216E+01  0.24214622216E+01  0.00000000000E+00 0. -1.
          4    1    1    2  501    0  0.22417427406E+01  0.21393750354E+01  0.44498477182E+01  0.54224976507E+01  0.00000000000E+00 0.  1.
         -4    1    1    2    0  501 -0.22417427406E+01 -0.21393750354E+01 -0.69461335579E+00  0.31756611550E+01  0.00000000000E+00 0. -1.
<mgrwt>
<rscale>  0 0.30987636E+01</rscale>
<asrwt>0</asrwt>
<pdfrwt beam="1">0</pdfrwt>
<pdfrwt beam="2">0</pdfrwt>
<totfact> 0.10220259E+12</totfact>
</mgrwt>
</event>
<event>
 4    2  0.2027839E+006  0.2839947E+01  0.7546771E-02  0.2575313E+00
         22   -1    0    0    0    0  0.00000000000E+00  0.00000000000E+00  0.38293924065E+01  0.38293924065E+01  0.00000000000E+00 0.  1.
         22   -1    0    0    0    0 -0.00000000000E+00 -0.00000000000E+00 -0.32240278595E+01  0.32240278595E+01  0.00000000000E+00 0. -1.
          4    1    1    2  501    0  0.24472792903E+01 -0.14408761453E+01  0.23793464588E+01  0.37049412360E+01  0.00000000000E+00 0.  1.
         -4    1    1    2    0  501 -0.24472792903E+01  0.14408761453E+01 -0.17739819118E+01  0.33484790300E+01  0.00000000000E+00 0. -1.
<mgrwt>
<rscale>  0 0.28399472E+01</rscale>
<asrwt>0</asrwt>
<pdfrwt beam="1">0</pdfrwt>
<pdfrwt beam="2">0</pdfrwt>
<totfact> 0.12886417E+12</totfact>
</mgrwt>
</event>
<event>
 4    2  0.2027839E+006  0.4466756E+01  0.7546771E-02  0.2196064E+00
         22   -1    0    0    0    0  0.00000000000E+00  0.00000000000E+00  0.35305142507E+01  0.35305142507E+01  0.00000000000E+00 0. -1.
         22   -1    0    0    0    0 -0.00000000000E+00 -0.00000000000E+00 -0.67602556474E+01  0.67602556474E+01  0.00000000000E+00 0.  1.
          4    1    1    2  501    0  0.42041593363E+01 -0.15089568940E+01  0.46913216705E+00  0.44913240390E+01  0.00000000000E+00 0. -1.
         -4    1    1    2    0  501 -0.42041593363E+01  0.15089568940E+01 -0.36988735637E+01  0.57994458591E+01  0.00000000000E+00 0.  1.
<mgrwt>
<rscale>  0 0.44667557E+01</rscale>
<asrwt>0</asrwt>
<pdfrwt beam="1">0</pdfrwt>
<pdfrwt beam="2">0</pdfrwt>
<totfact> 0.59087108E+11</totfact>
</mgrwt>
</event>
<event>
 4    2  0.2027839E+006  0.2057068E+01  0.7546771E-02  0.2943240E+00
         22   -1    0    0    0    0  0.00000000000E+00  0.00000000000E+00  0.15590823367E+02  0.15590823367E+02  0.00000000000E+00 0. -1.
         22   -1    0    0    0    0 -0.00000000000E+00 -0.00000000000E+00 -0.34012519934E+00  0.34012519934E+00  0.00000000000E+00 0.  1.
          4    1    1    2  501    0  0.16410861012E+01 -0.12403086001E+01  0.11205603160E+02  0.11392851759E+02  0.00000000000E+00 0. -1.
         -4    1    1    2    0  501 -0.16410861012E+01  0.12403086001E+01  0.40450950077E+01  0.45380968077E+01  0.00000000000E+00 0.  1.
<mgrwt>
<rscale>  0 0.20570681E+01</rscale>
<asrwt>0</asrwt>
<pdfrwt beam="1">0</pdfrwt>
<pdfrwt beam="2">0</pdfrwt>
<totfact> 0.31270383E+12</totfact>
</mgrwt>
</event>
<event>
 4    2  0.2027839E+006  0.3451887E+01  0.7546771E-02  0.2396164E+00
         22   -1    0    0    0    0  0.00000000000E+00  0.00000000000E+00  0.18336527030E+01  0.18336527030E+01  0.00000000000E+00 0. -1.
         22   -1    0    0    0    0 -0.00000000000E+00 -0.00000000000E+00 -0.58126856931E+02  0.58126856931E+02  0.00000000000E+00 0.  1.
          4    1    1    2  501    0 -0.34228266493E+01 -0.44697125501E+00  0.10819035383E+00  0.34535823034E+01  0.00000000000E+00 0. -1.
         -4    1    1    2    0  501  0.34228266493E+01  0.44697125501E+00 -0.56401394582E+02  0.56506927331E+02  0.00000000000E+00 0.  1.
<mgrwt>
<rscale>  0 0.34518872E+01</rscale>
<asrwt>0</asrwt>
<pdfrwt beam="1">0</pdfrwt>
<pdfrwt beam="2">0</pdfrwt>
<totfact> 0.85577217E+10</totfact>
</mgrwt>
</event>
<event>
 4    2  0.2027839E+006  0.2994617E+01  0.7546771E-02  0.2523884E+00
         22   -1    0    0    0    0  0.00000000000E+00  0.00000000000E+00  0.10293474851E+02  0.10293474851E+02  0.00000000000E+00 0. -1.
         22   -1    0    0    0    0 -0.00000000000E+00 -0.00000000000E+00 -0.13807551647E+01  0.13807551647E+01  0.00000000000E+00 0.  1.
          4    1    1    2  501    0 -0.25715913084E+01 -0.15344862516E+01  0.80023151266E+01  0.85442833110E+01  0.00000000000E+00 0. -1.
         -4    1    1    2    0  501  0.25715913084E+01  0.15344862516E+01  0.91040456006E+00  0.31299467051E+01  0.00000000000E+00 0.  1.
<mgrwt>
<rscale>  0 0.29946168E+01</rscale>
<asrwt>0</asrwt>
<pdfrwt beam="1">0</pdfrwt>
<pdfrwt beam="2">0</pdfrwt>
<totfact> 0.10588449E+12</totfact>
</mgrwt>
</event>
<event>
 4    2  0.2027839E+006  0.5236249E+01  0.7546771E-02  0.2095817E+00
         22   -1    0    0    0    0  0.00000000000E+00  0.00000000000E+00  0.65851733263E+01  0.65851733263E+01  0.00000000000E+00 0. -1.
         22   -1    0    0    0    0 -0.00000000000E+00 -0.00000000000E+00 -0.41640290304E+01  0.41640290304E+01  0.00000000000E+00 0.  1.
          4    1    1    2  501    0  0.44728585626E+01  0.27224699756E+01  0.12623650323E+01  0.53862669785E+01  0.00000000000E+00 0. -1.
         -4    1    1    2    0  501 -0.44728585626E+01 -0.27224699756E+01  0.11587792636E+01  0.53629353782E+01  0.00000000000E+00 0.  1.
<mgrwt>
<rscale>  0 0.52362493E+01</rscale>
<asrwt>0</asrwt>
<pdfrwt beam="1">0</pdfrwt>
<pdfrwt beam="2">0</pdfrwt>
<totfact> 0.50217203E+11</totfact>
</mgrwt>
</event>
<event>
 4    2  0.2027839E+006  0.2615457E+01  0.7546771E-02  0.2659718E+00
         22   -1    0    0    0    0  0.00000000000E+00  0.00000000000E+00  0.15833479816E+01  0.15833479816E+01  0.00000000000E+00 0.  1.
         22   -1    0    0    0    0 -0.00000000000E+00 -0.00000000000E+00 -0.45606816474E+01  0.45606816474E+01  0.00000000000E+00 0. -1.
          4    1    1    2  501    0 -0.25279207694E+01 -0.67099235809E+00 -0.78346117714E+00  0.27302793954E+01  0.00000000000E+00 0.  1.
         -4    1    1    2    0  501  0.25279207694E+01  0.67099235809E+00 -0.21938724887E+01  0.34137502336E+01  0.00000000000E+00 0. -1.
<mgrwt>
<rscale>  0 0.26154568E+01</rscale>
<asrwt>0</asrwt>
<pdfrwt beam="1">0</pdfrwt>
<pdfrwt beam="2">0</pdfrwt>
<totfact> 0.23942017E+12</totfact>
</mgrwt>
</event>
<event>
 4    2  0.2027839E+006  0.2252065E+01  0.7546771E-02  0.2829076E+00
         22   -1    0    0    0    0  0.00000000000E+00  0.00000000000E+00  0.26487741403E+01  0.26487741403E+01  0.00000000000E+00 0.  1.
         22   -1    0    0    0    0 -0.00000000000E+00 -0.00000000000E+00 -0.19453247537E+01  0.19453247537E+01  0.00000000000E+00 0. -1.
          4    1    1    2  501    0 -0.22260562449E+01 -0.34128030447E+00  0.63852832085E-01  0.22529704472E+01  0.00000000000E+00 0.  1.
         -4    1    1    2    0  501  0.22260562449E+01  0.34128030447E+00  0.63959655453E+00  0.23411284468E+01  0.00000000000E+00 0. -1.
<mgrwt>
<rscale>  0 0.22520654E+01</rscale>
<asrwt>0</asrwt>
<pdfrwt beam="1">0</pdfrwt>
<pdfrwt beam="2">0</pdfrwt>
<totfact> 0.35698186E+12</totfact>
</mgrwt>
</event>
<event>
 4    2  0.2027839E+006  0.2783497E+01  0.7546771E-02  0.2595367E+00
         22   -1    0    0    0    0  0.00000000000E+00  0.00000000000E+00  0.38902437365E+00  0.38902437365E+00  0.00000000000E+00 0.  1.
         22   -1    0    0    0    0 -0.00000000000E+00 -0.00000000000E+00 -0.33944236070E+02  0.33944236070E+02  0.00000000000E+00 0. -1.
          4    1    1    2  501    0  0.11524856110E+01 -0.25336992440E+01 -0.57418583666E+01  0.63809711208E+01  0.00000000000E+00 0.  1.
         -4    1    1    2    0  501 -0.11524856110E+01  0.25336992440E+01 -0.27813353330E+02  0.27952289323E+02  0.00000000000E+00 0. -1.
<mgrwt>
<rscale>  0 0.27834969E+01</rscale>
<asrwt>0</asrwt>
<pdfrwt beam="1">0</pdfrwt>
<pdfrwt beam="2">0</pdfrwt>
<totfact> 0.10115258E+12</totfact>
</mgrwt>
</event>
<event>
 4    2  0.2027839E+006  0.5030985E+01  0.7546771E-02  0.2119323E+00
         22   -1    0    0    0    0  0.00000000000E+00  0.00000000000E+00  0.24460467297E+02  0.24460467297E+02  0.00000000000E+00 0. -1.
         22   -1    0    0    0    0 -0.00000000000E+00 -0.00000000000E+00 -0.14033589337E+01  0.14033589337E+01  0.00000000000E+00 0.  1.
          4    1    1    2  501    0 -0.14161961822E+01  0.48275454089E+01  0.18156106882E+02  0.18840250089E+02  0.00000000000E+00 0. -1.
         -4    1    1    2    0  501  0.14161961822E+01 -0.48275454089E+01  0.49010014815E+01  0.70235761421E+01  0.00000000000E+00 0.  1.
<mgrwt>
<rscale>  0 0.50309846E+01</rscale>
<asrwt>0</asrwt>
<pdfrwt beam="1">0</pdfrwt>
<pdfrwt beam="2">0</pdfrwt>
<totfact> 0.35703242E+11</totfact>
</mgrwt>
</event>
<event>
 4    2  0.2027839E+006  0.2915499E+01  0.7546771E-02  0.2549577E+00
         22   -1    0    0    0    0  0.00000000000E+00  0.00000000000E+00  0.41467313048E+01  0.41467313048E+01  0.00000000000E+00 0.  1.
         22   -1    0    0    0    0 -0.00000000000E+00 -0.00000000000E+00 -0.21125364092E+01  0.21125364092E+01  0.00000000000E+00 0. -1.
          4    1    1    2  501    0 -0.13328093384E+01  0.25930197624E+01  0.15562549695E+01  0.33048542707E+01  0.00000000000E+00 0.  1.
         -4    1    1    2    0  501  0.13328093384E+01 -0.25930197624E+01  0.47793992614E+00  0.29544134433E+01  0.00000000000E+00 0. -1.
<mgrwt>
<rscale>  0 0.29154986E+01</rscale>
<asrwt>0</asrwt>
<pdfrwt beam="1">0</pdfrwt>
<pdfrwt beam="2">0</pdfrwt>
<totfact> 0.19196774E+12</totfact>
</mgrwt>
</event>
<event>
 4    2  0.2027839E+006  0.3561533E+01  0.7546771E-02  0.2369862E+00
         22   -1    0    0    0    0  0.00000000000E+00  0.00000000000E+00  0.60353571007E+01  0.60353571007E+01  0.00000000000E+00 0. -1.
         22   -1    0    0    0    0 -0.00000000000E+00 -0.00000000000E+00 -0.39044764179E+01  0.39044764179E+01  0.00000000000E+00 0.  1.
          4    1    1    2  501    0 -0.22709561558E+01  0.27435875819E+01  0.44424986085E+01  0.56938834347E+01  0.00000000000E+00 0. -1.
         -4    1    1    2    0  501  0.22709561558E+01 -0.27435875819E+01 -0.23116179257E+01  0.42459500840E+01  0.00000000000E+00 0.  1.
<mgrwt>
<rscale>  0 0.35615326E+01</rscale>
<asrwt>0</asrwt>
<pdfrwt beam="1">0</pdfrwt>
<pdfrwt beam="2">0</pdfrwt>
<totfact> 0.60102333E+11</totfact>
</mgrwt>
</event>
<event>
 4    2  0.2027839E+006  0.2647634E+01  0.7546771E-02  0.2646817E+00
         22   -1    0    0    0    0  0.00000000000E+00  0.00000000000E+00  0.24179951966E+01  0.24179951966E+01  0.00000000000E+00 0.  1.
         22   -1    0    0    0    0 -0.00000000000E+00 -0.00000000000E+00 -0.34683981415E+01  0.34683981415E+01  0.00000000000E+00 0. -1.
          4    1    1    2  501    0 -0.11773363326E+01 -0.23714642514E+01 -0.17176290281E+01  0.31559805154E+01  0.00000000000E+00 0.  1.
         -4    1    1    2    0  501  0.11773363326E+01  0.23714642514E+01  0.66722608320E+00  0.27304128226E+01  0.00000000000E+00 0. -1.
<mgrwt>
<rscale>  0 0.26476336E+01</rscale>
<asrwt>0</asrwt>
<pdfrwt beam="1">0</pdfrwt>
<pdfrwt beam="2">0</pdfrwt>
<totfact> 0.20245000E+12</totfact>
</mgrwt>
</event>
<event>
 4    2  0.2027839E+006  0.2447877E+01  0.7546771E-02  0.2731965E+00
         22   -1    0    0    0    0  0.00000000000E+00  0.00000000000E+00  0.34637511914E+02  0.34637511914E+02  0.00000000000E+00 0. -1.
         22   -1    0    0    0    0 -0.00000000000E+00 -0.00000000000E+00 -0.17350269586E+01  0.17350269586E+01  0.00000000000E+00 0.  1.
          4    1    1    2  501    0  0.17532649333E+01  0.17082632803E+01  0.33707059434E+02  0.33795827509E+02  0.00000000000E+00 0. -1.
         -4    1    1    2    0  501 -0.17532649333E+01 -0.17082632803E+01 -0.80457447805E+00  0.25767113637E+01  0.00000000000E+00 0.  1.
<mgrwt>
<rscale>  0 0.24478769E+01</rscale>
<asrwt>0</asrwt>
<pdfrwt beam="1">0</pdfrwt>
<pdfrwt beam="2">0</pdfrwt>
<totfact> 0.17962181E+11</totfact>
</mgrwt>
</event>
<event>
 4    2  0.2027839E+006  0.2118009E+01  0.7546771E-02  0.2905383E+00
         22   -1    0    0    0    0  0.00000000000E+00  0.00000000000E+00  0.17359570165E+01  0.17359570165E+01  0.00000000000E+00 0. -1.
         22   -1    0    0    0    0 -0.00000000000E+00 -0.00000000000E+00 -0.27683364651E+01  0.27683364651E+01  0.00000000000E+00 0.  1.
          4    1    1    2  501    0  0.35629387965E+00  0.20878259708E+01  0.64739705056E-01  0.21189983111E+01  0.00000000000E+00 0. -1.
         -4    1    1    2    0  501 -0.35629387965E+00 -0.20878259708E+01 -0.10971191537E+01  0.23852951705E+01  0.00000000000E+00 0.  1.
<mgrwt>
<rscale>  0 0.21180091E+01</rscale>
<asrwt>0</asrwt>
<pdfrwt beam="1">0</pdfrwt>
<pdfrwt beam="2">0</pdfrwt>
<totfact> 0.38674744E+12</totfact>
</mgrwt>
</event>
<event>
 4    2  0.2027839E+006  0.2420035E+01  0.7546771E-02  0.2744869E+00
         22   -1    0    0    0    0  0.00000000000E+00  0.00000000000E+00  0.11297083404E+01  0.11297083404E+01  0.00000000000E+00 0. -1.
         22   -1    0    0    0    0 -0.00000000000E+00 -0.00000000000E+00 -0.51866899200E+01  0.51866899200E+01  0.00000000000E+00 0.  1.
          4    1    1    2  501    0 -0.21497134049E+01  0.11114421579E+01 -0.19585282612E+01  0.31132626525E+01  0.00000000000E+00 0. -1.
         -4    1    1    2    0  501  0.21497134049E+01 -0.11114421579E+01 -0.20984533184E+01  0.32031356079E+01  0.00000000000E+00 0.  1.
<mgrwt>
<rscale>  0 0.24200354E+01</rscale>
<asrwt>0</asrwt>
<pdfrwt beam="1">0</pdfrwt>
<pdfrwt beam="2">0</pdfrwt>
<totfact> 0.30296345E+12</totfact>
</mgrwt>
</event>
<event>
 4    2  0.2027839E+006  0.2533598E+01  0.7546771E-02  0.2693901E+00
         22   -1    0    0    0    0  0.00000000000E+00  0.00000000000E+00  0.18515743233E+02  0.18515743233E+02  0.00000000000E+00 0.  1.
         22   -1    0    0    0    0 -0.00000000000E+00 -0.00000000000E+00 -0.14206919348E+01  0.14206919348E+01  0.00000000000E+00 0. -1.
          4    1    1    2  501    0 -0.22038013911E+01  0.12499517616E+01  0.17214573786E+02  0.17400019271E+02  0.00000000000E+00 0.  1.
         -4    1    1    2    0  501  0.22038013911E+01 -0.12499517616E+01 -0.11952248806E+00  0.25364158971E+01  0.00000000000E+00 0. -1.
<mgrwt>
<rscale>  0 0.25335982E+01</rscale>
<asrwt>0</asrwt>
<pdfrwt beam="1">0</pdfrwt>
<pdfrwt beam="2">0</pdfrwt>
<totfact> 0.49869301E+11</totfact>
</mgrwt>
</event>
<event>
 4    2  0.2027839E+006  0.2171318E+01  0.7546771E-02  0.2873955E+00
         22   -1    0    0    0    0  0.00000000000E+00  0.00000000000E+00  0.34644804069E+01  0.34644804069E+01  0.00000000000E+00 0.  1.
         22   -1    0    0    0    0 -0.00000000000E+00 -0.00000000000E+00 -0.14214867597E+01  0.14214867597E+01  0.00000000000E+00 0. -1.
          4    1    1    2  501    0  0.17924709986E+01  0.12254260222E+01  0.51691146213E+00  0.22319988074E+01  0.00000000000E+00 0. -1.
         -4    1    1    2    0  501 -0.17924709986E+01 -0.12254260222E+01  0.15260821850E+01  0.26539683592E+01  0.00000000000E+00 0.  1.
<mgrwt>
<rscale>  0 0.21713179E+01</rscale>
<asrwt>0</asrwt>
<pdfrwt beam="1">0</pdfrwt>
<pdfrwt beam="2">0</pdfrwt>
<totfact> 0.37454253E+12</totfact>
</mgrwt>
</event>
<event>
 4    2  0.2027839E+006  0.2009822E+01  0.7546771E-02  0.2974129E+00
         22   -1    0    0    0    0  0.00000000000E+00  0.00000000000E+00  0.88319095187E+00  0.88319095187E+00  0.00000000000E+00 0.  1.
         22   -1    0    0    0    0 -0.00000000000E+00 -0.00000000000E+00 -0.61707405641E+01  0.61707405641E+01  0.00000000000E+00 0. -1.
          4    1    1    2  501    0 -0.18281838801E+01  0.83494090140E+00 -0.84945017821E+00  0.21819597186E+01  0.00000000000E+00 0.  1.
         -4    1    1    2    0  501  0.18281838801E+01 -0.83494090140E+00 -0.44380994340E+01  0.48719717974E+01  0.00000000000E+00 0. -1.
<mgrwt>
<rscale>  0 0.20098215E+01</rscale>
<asrwt>0</asrwt>
<pdfrwt beam="1">0</pdfrwt>
<pdfrwt beam="2">0</pdfrwt>
<totfact> 0.32642816E+12</totfact>
</mgrwt>
</event>
<event>
 4    2  0.2027839E+006  0.3149292E+01  0.7546771E-02  0.2477009E+00
         22   -1    0    0    0    0  0.00000000000E+00  0.00000000000E+00  0.20841658555E+02  0.20841658555E+02  0.00000000000E+00 0. -1.
         22   -1    0    0    0    0 -0.00000000000E+00 -0.00000000000E+00 -0.63448972889E+00  0.63448972889E+00  0.00000000000E+00 0.  1.
          4    1    1    2  501    0  0.29952023561E+01 -0.97303689453E+00  0.15472479997E+02  0.15789733222E+02  0.00000000000E+00 0. -1.
         -4    1    1    2    0  501 -0.29952023561E+01  0.97303689453E+00  0.47346888292E+01  0.56864150624E+01  0.00000000000E+00 0.  1.
<mgrwt>
<rscale>  0 0.31492917E+01</rscale>
<asrwt>0</asrwt>
<pdfrwt beam="1">0</pdfrwt>
<pdfrwt beam="2">0</pdfrwt>
<totfact> 0.10796325E+12</totfact>
</mgrwt>
</event>
<event>
 4    2  0.2027839E+006  0.3627790E+01  0.7546771E-02  0.2354641E+00
         22   -1    0    0    0    0  0.00000000000E+00  0.00000000000E+00  0.53960035045E+00  0.53960035045E+00  0.00000000000E+00 0. -1.
         22   -1    0    0    0    0 -0.00000000000E+00 -0.00000000000E+00 -0.25884993064E+02  0.25884993064E+02  0.00000000000E+00 0.  1.
          4    1    1    2  501    0 -0.21965889219E+01  0.28871889763E+01 -0.15847896066E+02  0.16257818820E+02  0.00000000000E+00 0.  1.
         -4    1    1    2    0  501  0.21965889219E+01 -0.28871889763E+01 -0.94974966473E+01  0.10166774594E+02  0.00000000000E+00 0. -1.
<mgrwt>
<rscale>  0 0.36277904E+01</rscale>
<asrwt>0</asrwt>
<pdfrwt beam="1">0</pdfrwt>
<pdfrwt beam="2">0</pdfrwt>
<totfact> 0.98776743E+11</totfact>
</mgrwt>
</event>
<event>
 4    2  0.2027839E+006  0.2253396E+01  0.7546771E-02  0.2828362E+00
         22   -1    0    0    0    0  0.00000000000E+00  0.00000000000E+00  0.20272739126E+01  0.20272739126E+01  0.00000000000E+00 0. -1.
         22   -1    0    0    0    0 -0.00000000000E+00 -0.00000000000E+00 -0.90722582597E+01  0.90722582597E+01  0.00000000000E+00 0.  1.
          4    1    1    2  501    0  0.16878657905E+01 -0.14929511684E+01  0.11994168989E+01  0.25527230589E+01  0.00000000000E+00 0. -1.
         -4    1    1    2    0  501 -0.16878657905E+01  0.14929511684E+01 -0.82444012459E+01  0.85468091135E+01  0.00000000000E+00 0.  1.
<mgrwt>
<rscale>  0 0.22533961E+01</rscale>
<asrwt>0</asrwt>
<pdfrwt beam="1">0</pdfrwt>
<pdfrwt beam="2">0</pdfrwt>
<totfact> 0.79212331E+11</totfact>
</mgrwt>
</event>
<event>
 4    2  0.2027839E+006  0.2828609E+01  0.7546771E-02  0.2579282E+00
         22   -1    0    0    0    0  0.00000000000E+00  0.00000000000E+00  0.86183513834E+01  0.86183513834E+01  0.00000000000E+00 0.  1.
         22   -1    0    0    0    0 -0.00000000000E+00 -0.00000000000E+00 -0.15270029035E+01  0.15270029035E+01  0.00000000000E+00 0. -1.
          4    1    1    2  501    0 -0.76635531873E+00 -0.27228162878E+01  0.67217960922E+01  0.72927067484E+01  0.00000000000E+00 0.  1.
         -4    1    1    2    0  501  0.76635531873E+00  0.27228162878E+01  0.36955238760E+00  0.28526475385E+01  0.00000000000E+00 0. -1.
<mgrwt>
<rscale>  0 0.28286090E+01</rscale>
<asrwt>0</asrwt>
<pdfrwt beam="1">0</pdfrwt>
<pdfrwt beam="2">0</pdfrwt>
<totfact> 0.11688483E+12</totfact>
</mgrwt>
</event>
<event>
 4    2  0.2027839E+006  0.2937060E+01  0.7546771E-02  0.2542451E+00
         22   -1    0    0    0    0  0.00000000000E+00  0.00000000000E+00  0.16870165344E+01  0.16870165344E+01  0.00000000000E+00 0.  1.
         22   -1    0    0    0    0 -0.00000000000E+00 -0.00000000000E+00 -0.58133495549E+01  0.58133495549E+01  0.00000000000E+00 0. -1.
          4    1    1    2  501    0  0.33719203013E-01 -0.29368666721E+01 -0.76184372855E+00  0.30342591684E+01  0.00000000000E+00 0.  1.
         -4    1    1    2    0  501 -0.33719203013E-01  0.29368666721E+01 -0.33644892919E+01  0.44661069209E+01  0.00000000000E+00 0. -1.
<mgrwt>
<rscale>  0 0.29370602E+01</rscale>
<asrwt>0</asrwt>
<pdfrwt beam="1">0</pdfrwt>
<pdfrwt beam="2">0</pdfrwt>
<totfact> 0.16692502E+12</totfact>
</mgrwt>
</event>
<event>
 4    2  0.2027839E+006  0.2221847E+01  0.7546771E-02  0.2845506E+00
         22   -1    0    0    0    0  0.00000000000E+00  0.00000000000E+00  0.43171985496E+02  0.43171985496E+02  0.00000000000E+00 0. -1.
         22   -1    0    0    0    0 -0.00000000000E+00 -0.00000000000E+00 -0.11742042701E+00  0.11742042701E+00  0.00000000000E+00 0.  1.
          4    1    1    2  501    0  0.21973063208E+01  0.32931701599E+00  0.18025717300E+02  0.18162133381E+02  0.00000000000E+00 0.  1.
         -4    1    1    2    0  501 -0.21973063208E+01 -0.32931701599E+00  0.25028847769E+02  0.25127272542E+02  0.00000000000E+00 0. -1.
<mgrwt>
<rscale>  0 0.22218472E+01</rscale>
<asrwt>0</asrwt>
<pdfrwt beam="1">0</pdfrwt>
<pdfrwt beam="2">0</pdfrwt>
<totfact> 0.28229988E+12</totfact>
</mgrwt>
</event>
<event>
 4    2  0.2027839E+006  0.2610668E+01  0.7546771E-02  0.2661663E+00
         22   -1    0    0    0    0  0.00000000000E+00  0.00000000000E+00  0.43565164002E+01  0.43565164002E+01  0.00000000000E+00 0.  1.
         22   -1    0    0    0    0 -0.00000000000E+00 -0.00000000000E+00 -0.15645897798E+01  0.15645897798E+01  0.00000000000E+00 0. -1.
          4    1    1    2  501    0  0.15159580242E+01 -0.21254319899E+01  0.14230640989E+01  0.29733316842E+01  0.00000000000E+00 0. -1.
         -4    1    1    2    0  501 -0.15159580242E+01  0.21254319899E+01  0.13688625215E+01  0.29477744957E+01  0.00000000000E+00 0.  1.
<mgrwt>
<rscale>  0 0.26106685E+01</rscale>
<asrwt>0</asrwt>
<pdfrwt beam="1">0</pdfrwt>
<pdfrwt beam="2">0</pdfrwt>
<totfact> 0.25621017E+12</totfact>
</mgrwt>
</event>
<event>
 4    2  0.2027839E+006  0.2645279E+01  0.7546771E-02  0.2647751E+00
         22   -1    0    0    0    0  0.00000000000E+00  0.00000000000E+00  0.93699547998E+00  0.93699547998E+00  0.00000000000E+00 0. -1.
         22   -1    0    0    0    0 -0.00000000000E+00 -0.00000000000E+00 -0.10711728212E+02  0.10711728212E+02  0.00000000000E+00 0.  1.
          4    1    1    2  501    0 -0.25759921132E+01 -0.60147161431E+00 -0.16822833088E+01  0.31348972234E+01  0.00000000000E+00 0. -1.
         -4    1    1    2    0  501  0.25759921132E+01  0.60147161431E+00 -0.80924494236E+01  0.85138264690E+01  0.00000000000E+00 0.  1.
<mgrwt>
<rscale>  0 0.26452795E+01</rscale>
<asrwt>0</asrwt>
<pdfrwt beam="1">0</pdfrwt>
<pdfrwt beam="2">0</pdfrwt>
<totfact> 0.15724507E+12</totfact>
</mgrwt>
</event>
<event>
 4    2  0.2027839E+006  0.2459769E+01  0.7546771E-02  0.2726537E+00
         22   -1    0    0    0    0  0.00000000000E+00  0.00000000000E+00  0.27345328349E+02  0.27345328349E+02  0.00000000000E+00 0.  1.
         22   -1    0    0    0    0 -0.00000000000E+00 -0.00000000000E+00 -0.12623989224E+01  0.12623989224E+01  0.00000000000E+00 0. -1.
          4    1    1    2  501    0 -0.21821974769E+01  0.11351117931E+01  0.26031463507E+02  0.26147419699E+02  0.00000000000E+00 0.  1.
         -4    1    1    2    0  501  0.21821974769E+01 -0.11351117931E+01  0.51465920072E-01  0.24603075726E+01  0.00000000000E+00 0. -1.
<mgrwt>
<rscale>  0 0.24597692E+01</rscale>
<asrwt>0</asrwt>
<pdfrwt beam="1">0</pdfrwt>
<pdfrwt beam="2">0</pdfrwt>
<totfact> 0.35016945E+11</totfact>
</mgrwt>
</event>
<event>
 4    2  0.2027839E+006  0.3679339E+01  0.7546771E-02  0.2343127E+00
         22   -1    0    0    0    0  0.00000000000E+00  0.00000000000E+00  0.28069165258E+01  0.28069165258E+01  0.00000000000E+00 0. -1.
         22   -1    0    0    0    0 -0.00000000000E+00 -0.00000000000E+00 -0.11580819706E+02  0.11580819706E+02  0.00000000000E+00 0.  1.
          4    1    1    2  501    0 -0.34231607688E+01  0.13488917580E+01  0.11084399130E+01  0.38426784493E+01  0.00000000000E+00 0. -1.
         -4    1    1    2    0  501  0.34231607688E+01 -0.13488917580E+01 -0.98823430933E+01  0.10545057783E+02  0.00000000000E+00 0.  1.
<mgrwt>
<rscale>  0 0.36793394E+01</rscale>
<asrwt>0</asrwt>
<pdfrwt beam="1">0</pdfrwt>
<pdfrwt beam="2">0</pdfrwt>
<totfact> 0.40374333E+11</totfact>
</mgrwt>
</event>
<event>
 4    2  0.2027839E+006  0.4269747E+01  0.7546771E-02  0.2228518E+00
         22   -1    0    0    0    0  0.00000000000E+00  0.00000000000E+00  0.15868203529E+01  0.15868203529E+01  0.00000000000E+00 0. -1.
         22   -1    0    0    0    0 -0.00000000000E+00 -0.00000000000E+00 -0.16555259957E+02  0.16555259957E+02  0.00000000000E+00 0.  1.
          4    1    1    2  501    0  0.30428249309E+01  0.29953225642E+01 -0.24661204392E+01  0.49307698024E+01  0.00000000000E+00 0. -1.
         -4    1    1    2    0  501 -0.30428249309E+01 -0.29953225642E+01 -0.12502319165E+02  0.13211310508E+02  0.00000000000E+00 0.  1.
<mgrwt>
<rscale>  0 0.42697472E+01</rscale>
<asrwt>0</asrwt>
<pdfrwt beam="1">0</pdfrwt>
<pdfrwt beam="2">0</pdfrwt>
<totfact> 0.50444219E+11</totfact>
</mgrwt>
</event>
<event>
 4    2  0.2027839E+006  0.4338080E+01  0.7546771E-02  0.2216980E+00
         22   -1    0    0    0    0  0.00000000000E+00  0.00000000000E+00  0.71153137866E+01  0.71153137866E+01  0.00000000000E+00 0.  1.
         22   -1    0    0    0    0 -0.00000000000E+00 -0.00000000000E+00 -0.29039798143E+01  0.29039798143E+01  0.00000000000E+00 0. -1.
          4    1    1    2  501    0  0.42588390705E+01 -0.82536739147E+00  0.36021388110E+01  0.56386474951E+01  0.00000000000E+00 0.  1.
         -4    1    1    2    0  501 -0.42588390705E+01  0.82536739147E+00  0.60919516122E+00  0.43806461058E+01  0.00000000000E+00 0. -1.
<mgrwt>
<rscale>  0 0.43380804E+01</rscale>
<asrwt>0</asrwt>
<pdfrwt beam="1">0</pdfrwt>
<pdfrwt beam="2">0</pdfrwt>
<totfact> 0.69852651E+11</totfact>
</mgrwt>
</event>
<event>
 4    2  0.2027839E+006  0.5268489E+01  0.7546771E-02  0.2092257E+00
         22   -1    0    0    0    0  0.00000000000E+00  0.00000000000E+00  0.15582083735E+01  0.15582083735E+01  0.00000000000E+00 0. -1.
         22   -1    0    0    0    0 -0.00000000000E+00 -0.00000000000E+00 -0.23476342962E+02  0.23476342962E+02  0.00000000000E+00 0.  1.
          4    1    1    2  501    0  0.35723521439E+01  0.38723735927E+01 -0.17106814231E+02  0.17899722629E+02  0.00000000000E+00 0.  1.
         -4    1    1    2    0  501 -0.35723521439E+01 -0.38723735927E+01 -0.48113203575E+01  0.71348287060E+01  0.00000000000E+00 0. -1.
<mgrwt>
<rscale>  0 0.52684891E+01</rscale>
<asrwt>0</asrwt>
<pdfrwt beam="1">0</pdfrwt>
<pdfrwt beam="2">0</pdfrwt>
<totfact> 0.33332119E+11</totfact>
</mgrwt>
</event>
<event>
 4    2  0.2027839E+006  0.2193794E+01  0.7546771E-02  0.2861145E+00
         22   -1    0    0    0    0  0.00000000000E+00  0.00000000000E+00  0.11942885538E+02  0.11942885538E+02  0.00000000000E+00 0.  1.
         22   -1    0    0    0    0 -0.00000000000E+00 -0.00000000000E+00 -0.40392801310E+00  0.40392801310E+00  0.00000000000E+00 0. -1.
          4    1    1    2  501    0  0.19909171405E+01  0.92140088614E+00  0.54702273745E+01  0.58937355032E+01  0.00000000000E+00 0.  1.
         -4    1    1    2    0  501 -0.19909171405E+01 -0.92140088614E+00  0.60687301501E+01  0.64530780476E+01  0.00000000000E+00 0. -1.
<mgrwt>
<rscale>  0 0.21937937E+01</rscale>
<asrwt>0</asrwt>
<pdfrwt beam="1">0</pdfrwt>
<pdfrwt beam="2">0</pdfrwt>
<totfact> 0.35734499E+12</totfact>
</mgrwt>
</event>
<event>
 4    2  0.2027839E+006  0.3030810E+01  0.7546771E-02  0.2512532E+00
         22   -1    0    0    0    0  0.00000000000E+00  0.00000000000E+00  0.81162691255E+01  0.81162691255E+01  0.00000000000E+00 0. -1.
         22   -1    0    0    0    0 -0.00000000000E+00 -0.00000000000E+00 -0.54502743855E+01  0.54502743855E+01  0.00000000000E+00 0.  1.
          4    1    1    2  501    0  0.29910073118E+01 -0.48957856044E+00  0.73710421758E+01  0.79698227498E+01  0.00000000000E+00 0. -1.
         -4    1    1    2    0  501 -0.29910073118E+01  0.48957856044E+00 -0.47050474358E+01  0.55967207612E+01  0.00000000000E+00 0.  1.
<mgrwt>
<rscale>  0 0.30308104E+01</rscale>
<asrwt>0</asrwt>
<pdfrwt beam="1">0</pdfrwt>
<pdfrwt beam="2">0</pdfrwt>
<totfact> 0.28435903E+11</totfact>
</mgrwt>
</event>
<event>
 4    2  0.2027839E+006  0.4124187E+01  0.7546771E-02  0.2254166E+00
         22   -1    0    0    0    0  0.00000000000E+00  0.00000000000E+00  0.42619903771E+02  0.42619903771E+02  0.00000000000E+00 0.  1.
         22   -1    0    0    0    0 -0.00000000000E+00 -0.00000000000E+00 -0.57158307740E+00  0.57158307740E+00  0.00000000000E+00 0. -1.
          4    1    1    2  501    0 -0.40955217430E+01 -0.48540695501E+00  0.32887909819E+02  0.33145490350E+02  0.00000000000E+00 0.  1.
         -4    1    1    2    0  501  0.40955217430E+01  0.48540695501E+00  0.91604108739E+01  0.10045996498E+02  0.00000000000E+00 0. -1.
<mgrwt>
<rscale>  0 0.41241870E+01</rscale>
<asrwt>0</asrwt>
<pdfrwt beam="1">0</pdfrwt>
<pdfrwt beam="2">0</pdfrwt>
<totfact> 0.48818009E+11</totfact>
</mgrwt>
</event>
<event>
 4    2  0.2027839E+006  0.2112601E+01  0.7546771E-02  0.2908656E+00
         22   -1    0    0    0    0  0.00000000000E+00  0.00000000000E+00  0.39607644953E+00  0.39607644953E+00  0.00000000000E+00 0.  1.
         22   -1    0    0    0    0 -0.00000000000E+00 -0.00000000000E+00 -0.12406142955E+02  0.12406142955E+02  0.00000000000E+00 0. -1.
          4    1    1    2  501    0  0.11699822583E+01 -0.17590407165E+01 -0.40664237270E+01  0.45824539992E+01  0.00000000000E+00 0.  1.
         -4    1    1    2    0  501 -0.11699822583E+01  0.17590407165E+01 -0.79436427788E+01  0.82197654057E+01  0.00000000000E+00 0. -1.
<mgrwt>
<rscale>  0 0.21126009E+01</rscale>
<asrwt>0</asrwt>
<pdfrwt beam="1">0</pdfrwt>
<pdfrwt beam="2">0</pdfrwt>
<totfact> 0.34874729E+12</totfact>
</mgrwt>
</event>
<event>
 4    2  0.2027839E+006  0.3040351E+01  0.7546771E-02  0.2509581E+00
         22   -1    0    0    0    0  0.00000000000E+00  0.00000000000E+00  0.66649931814E+01  0.66649931814E+01  0.00000000000E+00 0.  1.
         22   -1    0    0    0    0 -0.00000000000E+00 -0.00000000000E+00 -0.19452078699E+01  0.19452078699E+01  0.00000000000E+00 0. -1.
          4    1    1    2  501    0 -0.30050182954E+01 -0.46216793461E+00  0.46662890297E+01  0.55693794506E+01  0.00000000000E+00 0.  1.
         -4    1    1    2    0  501  0.30050182954E+01  0.46216793461E+00  0.53496281814E-01  0.30408216008E+01  0.00000000000E+00 0. -1.
<mgrwt>
<rscale>  0 0.30403510E+01</rscale>
<asrwt>0</asrwt>
<pdfrwt beam="1">0</pdfrwt>
<pdfrwt beam="2">0</pdfrwt>
<totfact> 0.12031768E+12</totfact>
</mgrwt>
</event>
<event>
 4    2  0.2027839E+006  0.2369495E+01  0.7546771E-02  0.2769020E+00
         22   -1    0    0    0    0  0.00000000000E+00  0.00000000000E+00  0.93744621721E+00  0.93744621721E+00  0.00000000000E+00 0.  1.
         22   -1    0    0    0    0 -0.00000000000E+00 -0.00000000000E+00 -0.64550501040E+01  0.64550501040E+01  0.00000000000E+00 0. -1.
          4    1    1    2  501    0  0.23530849389E+01 -0.27838493366E+00 -0.17657835927E+01  0.29550801338E+01  0.00000000000E+00 0.  1.
         -4    1    1    2    0  501 -0.23530849389E+01  0.27838493366E+00 -0.37518202941E+01  0.44374161874E+01  0.00000000000E+00 0. -1.
<mgrwt>
<rscale>  0 0.23694951E+01</rscale>
<asrwt>0</asrwt>
<pdfrwt beam="1">0</pdfrwt>
<pdfrwt beam="2">0</pdfrwt>
<totfact> 0.28905500E+12</totfact>
</mgrwt>
</event>
<event>
 4    2  0.2027839E+006  0.3035533E+01  0.7546771E-02  0.2511069E+00
         22   -1    0    0    0    0  0.00000000000E+00  0.00000000000E+00  0.77723733657E+00  0.77723733657E+00  0.00000000000E+00 0.  1.
         22   -1    0    0    0    0 -0.00000000000E+00 -0.00000000000E+00 -0.25348712951E+02  0.25348712951E+02  0.00000000000E+00 0. -1.
          4    1    1    2  501    0 -0.69783892003E-01  0.30347310735E+01 -0.27550689777E+01  0.40993740439E+01  0.00000000000E+00 0.  1.
         -4    1    1    2    0  501  0.69783892003E-01 -0.30347310735E+01 -0.21816406637E+02  0.22026576244E+02  0.00000000000E+00 0. -1.
<mgrwt>
<rscale>  0 0.30355333E+01</rscale>
<asrwt>0</asrwt>
<pdfrwt beam="1">0</pdfrwt>
<pdfrwt beam="2">0</pdfrwt>
<totfact> 0.67059356E+11</totfact>
</mgrwt>
</event>
<event>
 4    2  0.2027839E+006  0.3089096E+01  0.7546771E-02  0.2494753E+00
         22   -1    0    0    0    0  0.00000000000E+00  0.00000000000E+00  0.12694394224E+02  0.12694394224E+02  0.00000000000E+00 0. -1.
         22   -1    0    0    0    0 -0.00000000000E+00 -0.00000000000E+00 -0.11438954739E+01  0.11438954739E+01  0.00000000000E+00 0.  1.
          4    1    1    2  501    0 -0.19061692122E+01 -0.24308505160E+01  0.98266432844E+01  0.10300749174E+02  0.00000000000E+00 0. -1.
         -4    1    1    2    0  501  0.19061692122E+01  0.24308505160E+01  0.17238554661E+01  0.35375405248E+01  0.00000000000E+00 0.  1.
<mgrwt>
<rscale>  0 0.30890962E+01</rscale>
<asrwt>0</asrwt>
<pdfrwt beam="1">0</pdfrwt>
<pdfrwt beam="2">0</pdfrwt>
<totfact> 0.10179885E+12</totfact>
</mgrwt>
</event>
<event>
 4    2  0.2027839E+006  0.3467596E+01  0.7546771E-02  0.2392307E+00
         22   -1    0    0    0    0  0.00000000000E+00  0.00000000000E+00  0.32165575269E+00  0.32165575269E+00  0.00000000000E+00 0. -1.
         22   -1    0    0    0    0 -0.00000000000E+00 -0.00000000000E+00 -0.43594749123E+02  0.43594749123E+02  0.00000000000E+00 0.  1.
          4    1    1    2  501    0 -0.30649792603E+01  0.16217653201E+01 -0.29925741288E+02  0.30125972387E+02  0.00000000000E+00 0.  1.
         -4    1    1    2    0  501  0.30649792603E+01 -0.16217653201E+01 -0.13347352082E+02  0.13790432489E+02  0.00000000000E+00 0. -1.
<mgrwt>
<rscale>  0 0.34675958E+01</rscale>
<asrwt>0</asrwt>
<pdfrwt beam="1">0</pdfrwt>
<pdfrwt beam="2">0</pdfrwt>
<totfact> 0.90595963E+11</totfact>
</mgrwt>
</event>
<event>
 4    2  0.2027839E+006  0.3625472E+01  0.7546771E-02  0.2355165E+00
         22   -1    0    0    0    0  0.00000000000E+00  0.00000000000E+00  0.66953066194E+02  0.66953066194E+02  0.00000000000E+00 0.  1.
         22   -1    0    0    0    0 -0.00000000000E+00 -0.00000000000E+00 -0.26122618384E+00  0.26122618384E+00  0.00000000000E+00 0. -1.
          4    1    1    2  501    0  0.18369372206E+01 -0.31256536808E+01  0.16593592773E+02  0.16985033718E+02  0.00000000000E+00 0. -1.
         -4    1    1    2    0  501 -0.18369372206E+01  0.31256536808E+01  0.50098247237E+02  0.50229258660E+02  0.00000000000E+00 0.  1.
<mgrwt>
<rscale>  0 0.36254723E+01</rscale>
<asrwt>0</asrwt>
<pdfrwt beam="1">0</pdfrwt>
<pdfrwt beam="2">0</pdfrwt>
<totfact> 0.64721645E+11</totfact>
</mgrwt>
</event>
<event>
 4    2  0.2027839E+006  0.2095420E+01  0.7546771E-02  0.2919166E+00
         22   -1    0    0    0    0  0.00000000000E+00  0.00000000000E+00  0.45258263974E+02  0.45258263974E+02  0.00000000000E+00 0.  1.
         22   -1    0    0    0    0 -0.00000000000E+00 -0.00000000000E+00 -0.22588491107E+00  0.22588491107E+00  0.00000000000E+00 0. -1.
          4    1    1    2  501    0 -0.19775692114E+01  0.69282293787E+00  0.39693701208E+02  0.39748971046E+02  0.00000000000E+00 0.  1.
         -4    1    1    2    0  501  0.19775692114E+01 -0.69282293787E+00  0.53386778546E+01  0.57351778390E+01  0.00000000000E+00 0. -1.
<mgrwt>
<rscale>  0 0.20954197E+01</rscale>
<asrwt>0</asrwt>
<pdfrwt beam="1">0</pdfrwt>
<pdfrwt beam="2">0</pdfrwt>
<totfact> 0.12813723E+12</totfact>
</mgrwt>
</event>
<event>
 4    2  0.2027839E+006  0.2230671E+01  0.7546771E-02  0.2840664E+00
         22   -1    0    0    0    0  0.00000000000E+00  0.00000000000E+00  0.11785067385E+02  0.11785067385E+02  0.00000000000E+00 0. -1.
         22   -1    0    0    0    0 -0.00000000000E+00 -0.00000000000E+00 -0.45764121240E+00  0.45764121240E+00  0.00000000000E+00 0.  1.
          4    1    1    2  501    0  0.99686641222E+00 -0.19955322892E+01  0.73667197494E+01  0.76970417452E+01  0.00000000000E+00 0. -1.
         -4    1    1    2    0  501 -0.99686641222E+00  0.19955322892E+01  0.39607064234E+01  0.45456668525E+01  0.00000000000E+00 0.  1.
<mgrwt>
<rscale>  0 0.22306707E+01</rscale>
<asrwt>0</asrwt>
<pdfrwt beam="1">0</pdfrwt>
<pdfrwt beam="2">0</pdfrwt>
<totfact> 0.31552749E+12</totfact>
</mgrwt>
</event>
<event>
 4    2  0.2027839E+006  0.2774531E+01  0.7546771E-02  0.2598620E+00
         22   -1    0    0    0    0  0.00000000000E+00  0.00000000000E+00  0.49768898793E+01  0.49768898793E+01  0.00000000000E+00 0. -1.
         22   -1    0    0    0    0 -0.00000000000E+00 -0.00000000000E+00 -0.30922668766E+01  0.30922668766E+01  0.00000000000E+00 0.  1.
          4    1    1    2  501    0 -0.27712082868E+01 -0.13575197689E+00  0.37946167203E+01  0.47007595154E+01  0.00000000000E+00 0. -1.
         -4    1    1    2    0  501  0.27712082868E+01  0.13575197689E+00 -0.19099937177E+01  0.33683972405E+01  0.00000000000E+00 0.  1.
<mgrwt>
<rscale>  0 0.27745313E+01</rscale>
<asrwt>0</asrwt>
<pdfrwt beam="1">0</pdfrwt>
<pdfrwt beam="2">0</pdfrwt>
<totfact> 0.99325626E+11</totfact>
</mgrwt>
</event>
<event>
 4    2  0.2027839E+006  0.3328413E+01  0.7546771E-02  0.2427589E+00
         22   -1    0    0    0    0  0.00000000000E+00  0.00000000000E+00  0.16317702662E+02  0.16317702662E+02  0.00000000000E+00 0. -1.
         22   -1    0    0    0    0 -0.00000000000E+00 -0.00000000000E+00 -0.71554799188E+00  0.71554799188E+00  0.00000000000E+00 0.  1.
          4    1    1    2  501    0 -0.21979601123E+01 -0.24994604294E+01  0.97280922793E+01  0.10281736745E+02  0.00000000000E+00 0. -1.
         -4    1    1    2    0  501  0.21979601123E+01  0.24994604294E+01  0.58740623908E+01  0.67515139091E+01  0.00000000000E+00 0.  1.
<mgrwt>
<rscale>  0 0.33284127E+01</rscale>
<asrwt>0</asrwt>
<pdfrwt beam="1">0</pdfrwt>
<pdfrwt beam="2">0</pdfrwt>
<totfact> 0.12766050E+12</totfact>
</mgrwt>
</event>
<event>
 4    2  0.2027839E+006  0.2091909E+01  0.7546771E-02  0.2921334E+00
         22   -1    0    0    0    0  0.00000000000E+00  0.00000000000E+00  0.67779224047E+01  0.67779224047E+01  0.00000000000E+00 0.  1.
         22   -1    0    0    0    0 -0.00000000000E+00 -0.00000000000E+00 -0.86171203665E+00  0.86171203665E+00  0.00000000000E+00 0. -1.
          4    1    1    2  501    0 -0.19505475644E+01 -0.75594091529E+00  0.48708765501E+01  0.53010867597E+01  0.00000000000E+00 0.  1.
         -4    1    1    2    0  501  0.19505475644E+01  0.75594091529E+00  0.10453338180E+01  0.23385476816E+01  0.00000000000E+00 0. -1.
<mgrwt>
<rscale>  0 0.20919088E+01</rscale>
<asrwt>0</asrwt>
<pdfrwt beam="1">0</pdfrwt>
<pdfrwt beam="2">0</pdfrwt>
<totfact> 0.30015719E+12</totfact>
</mgrwt>
</event>
<event>
 4    2  0.2027839E+006  0.2353611E+01  0.7546771E-02  0.2776811E+00
         22   -1    0    0    0    0  0.00000000000E+00  0.00000000000E+00  0.22319618640E+01  0.22319618640E+01  0.00000000000E+00 0.  1.
         22   -1    0    0    0    0 -0.00000000000E+00 -0.00000000000E+00 -0.31116648893E+01  0.31116648893E+01  0.00000000000E+00 0. -1.
          4    1    1    2  501    0  0.18660353373E+01  0.14343627268E+01  0.76214250402E+00  0.24739332062E+01  0.00000000000E+00 0.  1.
         -4    1    1    2    0  501 -0.18660353373E+01 -0.14343627268E+01 -0.16418455293E+01  0.28696935471E+01  0.00000000000E+00 0. -1.
<mgrwt>
<rscale>  0 0.23536109E+01</rscale>
<asrwt>0</asrwt>
<pdfrwt beam="1">0</pdfrwt>
<pdfrwt beam="2">0</pdfrwt>
<totfact> 0.25227263E+12</totfact>
</mgrwt>
</event>
<event>
 4    2  0.2027839E+006  0.2124058E+01  0.7546771E-02  0.2901740E+00
         22   -1    0    0    0    0  0.00000000000E+00  0.00000000000E+00  0.33940628000E+01  0.33940628000E+01  0.00000000000E+00 0.  1.
         22   -1    0    0    0    0 -0.00000000000E+00 -0.00000000000E+00 -0.13561874476E+01  0.13561874476E+01  0.00000000000E+00 0. -1.
          4    1    1    2  501    0 -0.19215942611E+01  0.90504126184E+00  0.68432103432E+00  0.22315733168E+01  0.00000000000E+00 0. -1.
         -4    1    1    2    0  501  0.19215942611E+01 -0.90504126184E+00  0.13535543181E+01  0.25186769309E+01  0.00000000000E+00 0.  1.
<mgrwt>
<rscale>  0 0.21240584E+01</rscale>
<asrwt>0</asrwt>
<pdfrwt beam="1">0</pdfrwt>
<pdfrwt beam="2">0</pdfrwt>
<totfact> 0.40496102E+12</totfact>
</mgrwt>
</event>
<event>
 4    2  0.2027839E+006  0.2088287E+01  0.7546771E-02  0.2923578E+00
         22   -1    0    0    0    0  0.00000000000E+00  0.00000000000E+00  0.28584705279E+00  0.28584705279E+00  0.00000000000E+00 0. -1.
         22   -1    0    0    0    0 -0.00000000000E+00 -0.00000000000E+00 -0.15293618269E+02  0.15293618269E+02  0.00000000000E+00 0.  1.
          4    1    1    2  501    0 -0.13144094285E+01 -0.16227356783E+01 -0.78891331032E+01  0.81608433600E+01  0.00000000000E+00 0.  1.
         -4    1    1    2    0  501  0.13144094285E+01  0.16227356783E+01 -0.71186381133E+01  0.74186219620E+01  0.00000000000E+00 0. -1.
<mgrwt>
<rscale>  0 0.20882872E+01</rscale>
<asrwt>0</asrwt>
<pdfrwt beam="1">0</pdfrwt>
<pdfrwt beam="2">0</pdfrwt>
<totfact> 0.38917043E+12</totfact>
</mgrwt>
</event>
<event>
 4    2  0.2027839E+006  0.2408204E+01  0.7546771E-02  0.2750437E+00
         22   -1    0    0    0    0  0.00000000000E+00  0.00000000000E+00  0.14541577637E+02  0.14541577637E+02  0.00000000000E+00 0. -1.
         22   -1    0    0    0    0 -0.00000000000E+00 -0.00000000000E+00 -0.42478845720E+00  0.42478845720E+00  0.00000000000E+00 0.  1.
          4    1    1    2  501    0 -0.16723541166E+01  0.17328235840E+01  0.52081117803E+01  0.57379329188E+01  0.00000000000E+00 0.  1.
         -4    1    1    2    0  501  0.16723541166E+01 -0.17328235840E+01  0.89086773997E+01  0.92284331756E+01  0.00000000000E+00 0. -1.
<mgrwt>
<rscale>  0 0.24082039E+01</rscale>
<asrwt>0</asrwt>
<pdfrwt beam="1">0</pdfrwt>
<pdfrwt beam="2">0</pdfrwt>
<totfact> 0.26535192E+12</totfact>
</mgrwt>
</event>
<event>
 4    2  0.2027839E+006  0.2399916E+01  0.7546771E-02  0.2754369E+00
         22   -1    0    0    0    0  0.00000000000E+00  0.00000000000E+00  0.15819751586E+01  0.15819751586E+01  0.00000000000E+00 0.  1.
         22   -1    0    0    0    0 -0.00000000000E+00 -0.00000000000E+00 -0.41392544771E+01  0.41392544771E+01  0.00000000000E+00 0. -1.
          4    1    1    2  501    0 -0.19480599731E+01  0.14016621689E+01 -0.28591736442E+00  0.24168870958E+01  0.00000000000E+00 0.  1.
         -4    1    1    2    0  501  0.19480599731E+01 -0.14016621689E+01 -0.22713619540E+01  0.33043425399E+01  0.00000000000E+00 0. -1.
<mgrwt>
<rscale>  0 0.23999155E+01</rscale>
<asrwt>0</asrwt>
<pdfrwt beam="1">0</pdfrwt>
<pdfrwt beam="2">0</pdfrwt>
<totfact> 0.26868779E+12</totfact>
</mgrwt>
</event>
<event>
 4    2  0.2027839E+006  0.2502813E+01  0.7546771E-02  0.2707291E+00
         22   -1    0    0    0    0  0.00000000000E+00  0.00000000000E+00  0.42828293220E+01  0.42828293220E+01  0.00000000000E+00 0.  1.
         22   -1    0    0    0    0 -0.00000000000E+00 -0.00000000000E+00 -0.15717451001E+01  0.15717451001E+01  0.00000000000E+00 0. -1.
          4    1    1    2  501    0 -0.19476068963E+01  0.15719102363E+01  0.21269295598E+01  0.32844944461E+01  0.00000000000E+00 0.  1.
         -4    1    1    2    0  501  0.19476068963E+01 -0.15719102363E+01  0.58415466204E+00  0.25700799760E+01  0.00000000000E+00 0. -1.
<mgrwt>
<rscale>  0 0.25028133E+01</rscale>
<asrwt>0</asrwt>
<pdfrwt beam="1">0</pdfrwt>
<pdfrwt beam="2">0</pdfrwt>
<totfact> 0.26004421E+12</totfact>
</mgrwt>
</event>
<event>
 4    2  0.2027839E+006  0.2320870E+01  0.7546771E-02  0.2793189E+00
         22   -1    0    0    0    0  0.00000000000E+00  0.00000000000E+00  0.42050883922E+00  0.42050883922E+00  0.00000000000E+00 0.  1.
         22   -1    0    0    0    0 -0.00000000000E+00 -0.00000000000E+00 -0.12834392898E+02  0.12834392898E+02  0.00000000000E+00 0. -1.
          4    1    1    2  501    0  0.16399456039E+01 -0.16422596163E+01 -0.59140964959E+01  0.63531862552E+01  0.00000000000E+00 0. -1.
         -4    1    1    2    0  501 -0.16399456039E+01  0.16422596163E+01 -0.64997875626E+01  0.69017154817E+01  0.00000000000E+00 0.  1.
<mgrwt>
<rscale>  0 0.23208701E+01</rscale>
<asrwt>0</asrwt>
<pdfrwt beam="1">0</pdfrwt>
<pdfrwt beam="2">0</pdfrwt>
<totfact> 0.31278940E+12</totfact>
</mgrwt>
</event>
<event>
 4    2  0.2027839E+006  0.3034898E+01  0.7546771E-02  0.2511266E+00
         22   -1    0    0    0    0  0.00000000000E+00  0.00000000000E+00  0.16934904231E+01  0.16934904231E+01  0.00000000000E+00 0.  1.
         22   -1    0    0    0    0 -0.00000000000E+00 -0.00000000000E+00 -0.15053912695E+02  0.15053912695E+02  0.00000000000E+00 0. -1.
          4    1    1    2  501    0 -0.29823539340E+01 -0.56229284639E+00  0.11994401483E-01  0.30349220910E+01  0.00000000000E+00 0.  1.
         -4    1    1    2    0  501  0.29823539340E+01  0.56229284639E+00 -0.13372416673E+02  0.13712481027E+02  0.00000000000E+00 0. -1.
<mgrwt>
<rscale>  0 0.30348984E+01</rscale>
<asrwt>0</asrwt>
<pdfrwt beam="1">0</pdfrwt>
<pdfrwt beam="2">0</pdfrwt>
<totfact> 0.52621208E+11</totfact>
</mgrwt>
</event>
<event>
 4    2  0.2027839E+006  0.2326152E+01  0.7546771E-02  0.2790517E+00
         22   -1    0    0    0    0  0.00000000000E+00  0.00000000000E+00  0.51558998754E+00  0.51558998754E+00  0.00000000000E+00 0.  1.
         22   -1    0    0    0    0 -0.00000000000E+00 -0.00000000000E+00 -0.49929858632E+02  0.49929858632E+02  0.00000000000E+00 0. -1.
          4    1    1    2  501    0  0.23236019196E+01  0.10888949692E+00 -0.22913777717E+01  0.32651791522E+01  0.00000000000E+00 0.  1.
         -4    1    1    2    0  501 -0.23236019196E+01 -0.10888949692E+00 -0.47122890873E+02  0.47180269467E+02  0.00000000000E+00 0. -1.
<mgrwt>
<rscale>  0 0.23261519E+01</rscale>
<asrwt>0</asrwt>
<pdfrwt beam="1">0</pdfrwt>
<pdfrwt beam="2">0</pdfrwt>
<totfact> 0.44570462E+11</totfact>
</mgrwt>
</event>
<event>
 4    2  0.2027839E+006  0.2495027E+01  0.7546771E-02  0.2710727E+00
         22   -1    0    0    0    0  0.00000000000E+00  0.00000000000E+00  0.12927490903E+02  0.12927490903E+02  0.00000000000E+00 0. -1.
         22   -1    0    0    0    0 -0.00000000000E+00 -0.00000000000E+00 -0.59168107038E+00  0.59168107038E+00  0.00000000000E+00 0.  1.
          4    1    1    2  501    0  0.22859731199E+01  0.99974329636E+00  0.90842734015E+01  0.94206784786E+01  0.00000000000E+00 0. -1.
         -4    1    1    2    0  501 -0.22859731199E+01 -0.99974329636E+00  0.32515364309E+01  0.40984934946E+01  0.00000000000E+00 0.  1.
<mgrwt>
<rscale>  0 0.24950270E+01</rscale>
<asrwt>0</asrwt>
<pdfrwt beam="1">0</pdfrwt>
<pdfrwt beam="2">0</pdfrwt>
<totfact> 0.21083580E+12</totfact>
</mgrwt>
</event>
<event>
 4    2  0.2027839E+006  0.2184971E+01  0.7546771E-02  0.2866143E+00
         22   -1    0    0    0    0  0.00000000000E+00  0.00000000000E+00  0.87836676992E+01  0.87836676992E+01  0.00000000000E+00 0. -1.
         22   -1    0    0    0    0 -0.00000000000E+00 -0.00000000000E+00 -0.36251868372E+01  0.36251868372E+01  0.00000000000E+00 0.  1.
          4    1    1    2  501    0  0.15538970745E+01  0.15360671686E+01  0.82996792869E+01  0.85824690346E+01  0.00000000000E+00 0. -1.
         -4    1    1    2    0  501 -0.15538970745E+01 -0.15360671686E+01 -0.31411984249E+01  0.38263855019E+01  0.00000000000E+00 0.  1.
<mgrwt>
<rscale>  0 0.21849710E+01</rscale>
<asrwt>0</asrwt>
<pdfrwt beam="1">0</pdfrwt>
<pdfrwt beam="2">0</pdfrwt>
<totfact> 0.41833451E+11</totfact>
</mgrwt>
</event>
<event>
 4    2  0.2027839E+006  0.3532964E+01  0.7546771E-02  0.2376578E+00
         22   -1    0    0    0    0  0.00000000000E+00  0.00000000000E+00  0.61197835179E+01  0.61197835179E+01  0.00000000000E+00 0. -1.
         22   -1    0    0    0    0 -0.00000000000E+00 -0.00000000000E+00 -0.22630224160E+01  0.22630224160E+01  0.00000000000E+00 0.  1.
          4    1    1    2  501    0 -0.47166697153E+00 -0.35013377371E+01  0.32453940810E+01  0.47973345122E+01  0.00000000000E+00 0. -1.
         -4    1    1    2    0  501  0.47166697153E+00  0.35013377371E+01  0.61136702087E+00  0.35854714216E+01  0.00000000000E+00 0.  1.
<mgrwt>
<rscale>  0 0.35329641E+01</rscale>
<asrwt>0</asrwt>
<pdfrwt beam="1">0</pdfrwt>
<pdfrwt beam="2">0</pdfrwt>
<totfact> 0.11178580E+12</totfact>
</mgrwt>
</event>
<event>
 4    2  0.2027839E+006  0.4069078E+01  0.7546771E-02  0.2264281E+00
         22   -1    0    0    0    0  0.00000000000E+00  0.00000000000E+00  0.74443828760E+01  0.74443828760E+01  0.00000000000E+00 0. -1.
         22   -1    0    0    0    0 -0.00000000000E+00 -0.00000000000E+00 -0.58423642005E+01  0.58423642005E+01  0.00000000000E+00 0.  1.
          4    1    1    2  501    0  0.37135022609E+01  0.16635195663E+01  0.60290832634E+01  0.72737364117E+01  0.00000000000E+00 0. -1.
         -4    1    1    2    0  501 -0.37135022609E+01 -0.16635195663E+01 -0.44270645879E+01  0.60130106648E+01  0.00000000000E+00 0.  1.
<mgrwt>
<rscale>  0 0.40690781E+01</rscale>
<asrwt>0</asrwt>
<pdfrwt beam="1">0</pdfrwt>
<pdfrwt beam="2">0</pdfrwt>
<totfact> 0.29044602E+11</totfact>
</mgrwt>
</event>
<event>
 4    2  0.2027839E+006  0.2145786E+01  0.7546771E-02  0.2888819E+00
         22   -1    0    0    0    0  0.00000000000E+00  0.00000000000E+00  0.21508840830E+02  0.21508840830E+02  0.00000000000E+00 0. -1.
         22   -1    0    0    0    0 -0.00000000000E+00 -0.00000000000E+00 -0.21430436922E+00  0.21430436922E+00  0.00000000000E+00 0.  1.
          4    1    1    2  501    0  0.21385444179E+01  0.17613407466E+00  0.11006536332E+02  0.11213752158E+02  0.00000000000E+00 0. -1.
         -4    1    1    2    0  501 -0.21385444179E+01 -0.17613407466E+00  0.10288000129E+02  0.10509393041E+02  0.00000000000E+00 0.  1.
<mgrwt>
<rscale>  0 0.21457855E+01</rscale>
<asrwt>0</asrwt>
<pdfrwt beam="1">0</pdfrwt>
<pdfrwt beam="2">0</pdfrwt>
<totfact> 0.35174409E+12</totfact>
</mgrwt>
</event>
<event>
 4    2  0.2027839E+006  0.3532678E+01  0.7546771E-02  0.2376646E+00
         22   -1    0    0    0    0  0.00000000000E+00  0.00000000000E+00  0.11340593942E+00  0.11340593942E+00  0.00000000000E+00 0.  1.
         22   -1    0    0    0    0 -0.00000000000E+00 -0.00000000000E+00 -0.11224028670E+03  0.11224028670E+03  0.00000000000E+00 0. -1.
          4    1    1    2  501    0  0.13201493831E+01 -0.32767388321E+01 -0.48207820262E+02  0.48337084585E+02  0.00000000000E+00 0.  1.
         -4    1    1    2    0  501 -0.13201493831E+01  0.32767388321E+01 -0.63919060499E+02  0.64016608055E+02  0.00000000000E+00 0. -1.
<mgrwt>
<rscale>  0 0.35326777E+01</rscale>
<asrwt>0</asrwt>
<pdfrwt beam="1">0</pdfrwt>
<pdfrwt beam="2">0</pdfrwt>
<totfact> 0.80060159E+11</totfact>
</mgrwt>
</event>
<event>
 4    2  0.2027839E+006  0.2055552E+01  0.7546771E-02  0.2944209E+00
         22   -1    0    0    0    0  0.00000000000E+00  0.00000000000E+00  0.55830312695E+00  0.55830312695E+00  0.00000000000E+00 0.  1.
         22   -1    0    0    0    0 -0.00000000000E+00 -0.00000000000E+00 -0.93743367558E+01  0.93743367558E+01  0.00000000000E+00 0. -1.
          4    1    1    2  501    0  0.19998543806E+01 -0.47526618949E+00 -0.22280423201E+01  0.30314135440E+01  0.00000000000E+00 0.  1.
         -4    1    1    2    0  501 -0.19998543806E+01  0.47526618949E+00 -0.65879913087E+01  0.69012263387E+01  0.00000000000E+00 0. -1.
<mgrwt>
<rscale>  0 0.20555524E+01</rscale>
<asrwt>0</asrwt>
<pdfrwt beam="1">0</pdfrwt>
<pdfrwt beam="2">0</pdfrwt>
<totfact> 0.33271885E+12</totfact>
</mgrwt>
</event>
<event>
 4    2  0.2027839E+006  0.2725869E+01  0.7546771E-02  0.2616617E+00
         22   -1    0    0    0    0  0.00000000000E+00  0.00000000000E+00  0.14021321088E+02  0.14021321088E+02  0.00000000000E+00 0.  1.
         22   -1    0    0    0    0 -0.00000000000E+00 -0.00000000000E+00 -0.84747158383E+00  0.84747158383E+00  0.00000000000E+00 0. -1.
          4    1    1    2  501    0 -0.25403410323E+01 -0.98844656671E+00  0.11137658912E+02  0.11466377162E+02  0.00000000000E+00 0.  1.
         -4    1    1    2    0  501  0.25403410323E+01  0.98844656671E+00  0.20361905921E+01  0.34024155100E+01  0.00000000000E+00 0. -1.
<mgrwt>
<rscale>  0 0.27258685E+01</rscale>
<asrwt>0</asrwt>
<pdfrwt beam="1">0</pdfrwt>
<pdfrwt beam="2">0</pdfrwt>
<totfact> 0.12693485E+12</totfact>
</mgrwt>
</event>
<event>
 4    2  0.2027839E+006  0.2713960E+01  0.7546771E-02  0.2621111E+00
         22   -1    0    0    0    0  0.00000000000E+00  0.00000000000E+00  0.37113054401E+01  0.37113054401E+01  0.00000000000E+00 0. -1.
         22   -1    0    0    0    0 -0.00000000000E+00 -0.00000000000E+00 -0.37281048999E+01  0.37281048999E+01  0.00000000000E+00 0.  1.
          4    1    1    2  501    0  0.25127848146E+01 -0.10254223612E+01  0.25353358005E+01  0.37139609805E+01  0.00000000000E+00 0. -1.
         -4    1    1    2    0  501 -0.25127848146E+01  0.10254223612E+01 -0.25521352602E+01  0.37254493595E+01  0.00000000000E+00 0.  1.
<mgrwt>
<rscale>  0 0.27139599E+01</rscale>
<asrwt>0</asrwt>
<pdfrwt beam="1">0</pdfrwt>
<pdfrwt beam="2">0</pdfrwt>
<totfact> 0.11275795E+12</totfact>
</mgrwt>
</event>
<event>
 4    2  0.2027839E+006  0.2160962E+01  0.7546771E-02  0.2879943E+00
         22   -1    0    0    0    0  0.00000000000E+00  0.00000000000E+00  0.42843538106E+02  0.42843538106E+02  0.00000000000E+00 0. -1.
         22   -1    0    0    0    0 -0.00000000000E+00 -0.00000000000E+00 -0.12283046748E+00  0.12283046748E+00  0.00000000000E+00 0.  1.
          4    1    1    2  501    0 -0.28882641438E+00 -0.21415735953E+01  0.28570311735E+02  0.28651919147E+02  0.00000000000E+00 0.  1.
         -4    1    1    2    0  501  0.28882641438E+00  0.21415735953E+01  0.14150395903E+02  0.14314449427E+02  0.00000000000E+00 0. -1.
<mgrwt>
<rscale>  0 0.21609623E+01</rscale>
<asrwt>0</asrwt>
<pdfrwt beam="1">0</pdfrwt>
<pdfrwt beam="2">0</pdfrwt>
<totfact> 0.27122693E+12</totfact>
</mgrwt>
</event>
<event>
 4    2  0.2027839E+006  0.2338844E+01  0.7546771E-02  0.2784144E+00
         22   -1    0    0    0    0  0.00000000000E+00  0.00000000000E+00  0.20985210978E+02  0.20985210978E+02  0.00000000000E+00 0. -1.
         22   -1    0    0    0    0 -0.00000000000E+00 -0.00000000000E+00 -0.27668886306E+00  0.27668886306E+00  0.00000000000E+00 0.  1.
          4    1    1    2  501    0  0.19455716946E+01  0.12980527982E+01  0.12912305032E+02  0.13122416375E+02  0.00000000000E+00 0. -1.
         -4    1    1    2    0  501 -0.19455716946E+01 -0.12980527982E+01  0.77962170827E+01  0.81394834656E+01  0.00000000000E+00 0.  1.
<mgrwt>
<rscale>  0 0.23388438E+01</rscale>
<asrwt>0</asrwt>
<pdfrwt beam="1">0</pdfrwt>
<pdfrwt beam="2">0</pdfrwt>
<totfact> 0.27261409E+12</totfact>
</mgrwt>
</event>
<event>
 4    2  0.2027839E+006  0.2593460E+01  0.7546771E-02  0.2668707E+00
         22   -1    0    0    0    0  0.00000000000E+00  0.00000000000E+00  0.36783318894E+01  0.36783318894E+01  0.00000000000E+00 0. -1.
         22   -1    0    0    0    0 -0.00000000000E+00 -0.00000000000E+00 -0.29644346731E+01  0.29644346731E+01  0.00000000000E+00 0.  1.
          4    1    1    2  501    0  0.23885586892E+01  0.10103572020E+01  0.24129059850E+01  0.35423367400E+01  0.00000000000E+00 0. -1.
         -4    1    1    2    0  501 -0.23885586892E+01 -0.10103572020E+01 -0.16990087687E+01  0.31004298224E+01  0.00000000000E+00 0.  1.
<mgrwt>
<rscale>  0 0.25934599E+01</rscale>
<asrwt>0</asrwt>
<pdfrwt beam="1">0</pdfrwt>
<pdfrwt beam="2">0</pdfrwt>
<totfact> 0.14903258E+12</totfact>
</mgrwt>
</event>
<event>
 4    2  0.2027839E+006  0.2245265E+01  0.7546771E-02  0.2832737E+00
         22   -1    0    0    0    0  0.00000000000E+00  0.00000000000E+00  0.19118249252E+02  0.19118249252E+02  0.00000000000E+00 0.  1.
         22   -1    0    0    0    0 -0.00000000000E+00 -0.00000000000E+00 -0.34118903388E+00  0.34118903388E+00  0.00000000000E+00 0. -1.
          4    1    1    2  501    0 -0.15239348122E+01  0.16488901936E+01  0.14025794979E+02  0.14204370488E+02  0.00000000000E+00 0.  1.
         -4    1    1    2    0  501  0.15239348122E+01 -0.16488901936E+01  0.47512652393E+01  0.52550677975E+01  0.00000000000E+00 0. -1.
<mgrwt>
<rscale>  0 0.22452653E+01</rscale>
<asrwt>0</asrwt>
<pdfrwt beam="1">0</pdfrwt>
<pdfrwt beam="2">0</pdfrwt>
<totfact> 0.24206730E+12</totfact>
</mgrwt>
</event>
<event>
 4    2  0.2027839E+006  0.3314126E+01  0.7546771E-02  0.2431357E+00
         22   -1    0    0    0    0  0.00000000000E+00  0.00000000000E+00  0.52451728131E+00  0.52451728131E+00  0.00000000000E+00 0.  1.
         22   -1    0    0    0    0 -0.00000000000E+00 -0.00000000000E+00 -0.21116191584E+02  0.21116191584E+02  0.00000000000E+00 0. -1.
          4    1    1    2  501    0 -0.23586582208E+01 -0.23281240350E+01 -0.11284017846E+02  0.11760633014E+02  0.00000000000E+00 0.  1.
         -4    1    1    2    0  501  0.23586582208E+01  0.23281240350E+01 -0.93076564560E+01  0.98800758513E+01  0.00000000000E+00 0. -1.
<mgrwt>
<rscale>  0 0.33141258E+01</rscale>
<asrwt>0</asrwt>
<pdfrwt beam="1">0</pdfrwt>
<pdfrwt beam="2">0</pdfrwt>
<totfact> 0.13174169E+12</totfact>
</mgrwt>
</event>
<event>
 4    2  0.2027839E+006  0.2606140E+01  0.7546771E-02  0.2663508E+00
         22   -1    0    0    0    0  0.00000000000E+00  0.00000000000E+00  0.78191673803E+01  0.78191673803E+01  0.00000000000E+00 0.  1.
         22   -1    0    0    0    0 -0.00000000000E+00 -0.00000000000E+00 -0.12027374646E+01  0.12027374646E+01  0.00000000000E+00 0. -1.
          4    1    1    2  501    0  0.21324348944E+01  0.14982284644E+01  0.56857427630E+01  0.62545693599E+01  0.00000000000E+00 0.  1.
         -4    1    1    2    0  501 -0.21324348944E+01 -0.14982284644E+01  0.93068715274E+00  0.27673354850E+01  0.00000000000E+00 0. -1.
<mgrwt>
<rscale>  0 0.26061403E+01</rscale>
<asrwt>0</asrwt>
<pdfrwt beam="1">0</pdfrwt>
<pdfrwt beam="2">0</pdfrwt>
<totfact> 0.17283272E+12</totfact>
</mgrwt>
</event>
<event>
 4    2  0.2027839E+006  0.2937691E+01  0.7546771E-02  0.2542245E+00
         22   -1    0    0    0    0  0.00000000000E+00  0.00000000000E+00  0.13084162500E+02  0.13084162500E+02  0.00000000000E+00 0. -1.
         22   -1    0    0    0    0 -0.00000000000E+00 -0.00000000000E+00 -0.14112452101E+01  0.14112452101E+01  0.00000000000E+00 0.  1.
          4    1    1    2  501    0 -0.27141643795E+01 -0.11239832518E+01  0.11125926498E+02  0.11507226732E+02  0.00000000000E+00 0. -1.
         -4    1    1    2    0  501  0.27141643795E+01  0.11239832518E+01  0.54699079171E+00  0.29881809777E+01  0.00000000000E+00 0.  1.
<mgrwt>
<rscale>  0 0.29376907E+01</rscale>
<asrwt>0</asrwt>
<pdfrwt beam="1">0</pdfrwt>
<pdfrwt beam="2">0</pdfrwt>
<totfact> 0.77100899E+11</totfact>
</mgrwt>
</event>
<event>
 4    2  0.2027839E+006  0.2330619E+01  0.7546771E-02  0.2788267E+00
         22   -1    0    0    0    0  0.00000000000E+00  0.00000000000E+00  0.13864080307E+01  0.13864080307E+01  0.00000000000E+00 0. -1.
         22   -1    0    0    0    0 -0.00000000000E+00 -0.00000000000E+00 -0.78759632276E+01  0.78759632276E+01  0.00000000000E+00 0.  1.
          4    1    1    2  501    0  0.21169736055E+01  0.97478632399E+00  0.38310971736E-01  0.23309340090E+01  0.00000000000E+00 0. -1.
         -4    1    1    2    0  501 -0.21169736055E+01 -0.97478632399E+00 -0.65278661687E+01  0.69314372493E+01  0.00000000000E+00 0.  1.
<mgrwt>
<rscale>  0 0.23306192E+01</rscale>
<asrwt>0</asrwt>
<pdfrwt beam="1">0</pdfrwt>
<pdfrwt beam="2">0</pdfrwt>
<totfact> 0.14555555E+12</totfact>
</mgrwt>
</event>
<event>
 4    2  0.2027839E+006  0.2304367E+01  0.7546771E-02  0.2801611E+00
         22   -1    0    0    0    0  0.00000000000E+00  0.00000000000E+00  0.49060355515E+00  0.49060355515E+00  0.00000000000E+00 0.  1.
         22   -1    0    0    0    0 -0.00000000000E+00 -0.00000000000E+00 -0.21097311834E+02  0.21097311834E+02  0.00000000000E+00 0. -1.
          4    1    1    2  501    0 -0.69757216387E+00  0.21962472478E+01 -0.27710072504E+01  0.36039686568E+01  0.00000000000E+00 0.  1.
         -4    1    1    2    0  501  0.69757216387E+00 -0.21962472478E+01 -0.17835701028E+02  0.17983946732E+02  0.00000000000E+00 0. -1.
<mgrwt>
<rscale>  0 0.23043674E+01</rscale>
<asrwt>0</asrwt>
<pdfrwt beam="1">0</pdfrwt>
<pdfrwt beam="2">0</pdfrwt>
<totfact> 0.14222446E+12</totfact>
</mgrwt>
</event>
<event>
 4    2  0.2027839E+006  0.7559139E+01  0.7546771E-02  0.1902843E+00
         22   -1    0    0    0    0  0.00000000000E+00  0.00000000000E+00  0.92968550418E+01  0.92968550418E+01  0.00000000000E+00 0. -1.
         22   -1    0    0    0    0 -0.00000000000E+00 -0.00000000000E+00 -0.61992758840E+01  0.61992758840E+01  0.00000000000E+00 0.  1.
          4    1    1    2  501    0 -0.60196438023E+01  0.45721410512E+01  0.22655256152E+01  0.78913364909E+01  0.00000000000E+00 0. -1.
         -4    1    1    2    0  501  0.60196438023E+01 -0.45721410512E+01  0.83205354270E+00  0.76047944349E+01  0.00000000000E+00 0.  1.
<mgrwt>
<rscale>  0 0.75591392E+01</rscale>
<asrwt>0</asrwt>
<pdfrwt beam="1">0</pdfrwt>
<pdfrwt beam="2">0</pdfrwt>
<totfact> 0.20715932E+11</totfact>
</mgrwt>
</event>
<event>
 4    2  0.2027839E+006  0.2931523E+01  0.7546771E-02  0.2544272E+00
         22   -1    0    0    0    0  0.00000000000E+00  0.00000000000E+00  0.47918735159E+00  0.47918735159E+00  0.00000000000E+00 0.  1.
         22   -1    0    0    0    0 -0.00000000000E+00 -0.00000000000E+00 -0.18477634960E+02  0.18477634960E+02  0.00000000000E+00 0. -1.
          4    1    1    2  501    0  0.12174001793E+01  0.26667889782E+01 -0.10624767964E+02  0.11021774854E+02  0.00000000000E+00 0. -1.
         -4    1    1    2    0  501 -0.12174001793E+01 -0.26667889782E+01 -0.73736796445E+01  0.79350474574E+01  0.00000000000E+00 0.  1.
<mgrwt>
<rscale>  0 0.29315229E+01</rscale>
<asrwt>0</asrwt>
<pdfrwt beam="1">0</pdfrwt>
<pdfrwt beam="2">0</pdfrwt>
<totfact> 0.17230341E+12</totfact>
</mgrwt>
</event>
<event>
 4    2  0.2027839E+006  0.2815779E+01  0.7546771E-02  0.2583809E+00
         22   -1    0    0    0    0  0.00000000000E+00  0.00000000000E+00  0.40670376847E+01  0.40670376847E+01  0.00000000000E+00 0.  1.
         22   -1    0    0    0    0 -0.00000000000E+00 -0.00000000000E+00 -0.20287458133E+01  0.20287458133E+01  0.00000000000E+00 0. -1.
          4    1    1    2  501    0  0.54439528721E+00 -0.27626513257E+01  0.16216066234E+01  0.32493409512E+01  0.00000000000E+00 0.  1.
         -4    1    1    2    0  501 -0.54439528721E+00  0.27626513257E+01  0.41668524803E+00  0.28464425468E+01  0.00000000000E+00 0. -1.
<mgrwt>
<rscale>  0 0.28157785E+01</rscale>
<asrwt>0</asrwt>
<pdfrwt beam="1">0</pdfrwt>
<pdfrwt beam="2">0</pdfrwt>
<totfact> 0.20583082E+12</totfact>
</mgrwt>
</event>
<event>
 4    2  0.2027839E+006  0.9346637E+01  0.7546771E-02  0.1807153E+00
         22   -1    0    0    0    0  0.00000000000E+00  0.00000000000E+00  0.85764517888E+02  0.85764517888E+02  0.00000000000E+00 0. -1.
         22   -1    0    0    0    0 -0.00000000000E+00 -0.00000000000E+00 -0.10213809064E+01  0.10213809064E+01  0.00000000000E+00 0.  1.
          4    1    1    2  501    0 -0.73242606849E+01  0.58064466191E+01  0.44636362053E+02  0.45604434371E+02  0.00000000000E+00 0. -1.
         -4    1    1    2    0  501  0.73242606849E+01 -0.58064466191E+01  0.40106774928E+02  0.41181464423E+02  0.00000000000E+00 0.  1.
<mgrwt>
<rscale>  0 0.93466367E+01</rscale>
<asrwt>0</asrwt>
<pdfrwt beam="1">0</pdfrwt>
<pdfrwt beam="2">0</pdfrwt>
<totfact> 0.98807218E+10</totfact>
</mgrwt>
</event>
<event>
 4    2  0.2027839E+006  0.2175622E+01  0.7546771E-02  0.2871482E+00
         22   -1    0    0    0    0  0.00000000000E+00  0.00000000000E+00  0.33318755557E+00  0.33318755557E+00  0.00000000000E+00 0.  1.
         22   -1    0    0    0    0 -0.00000000000E+00 -0.00000000000E+00 -0.40611329752E+02  0.40611329752E+02  0.00000000000E+00 0. -1.
          4    1    1    2  501    0 -0.12419434499E+01  0.17863114860E+01 -0.36313839807E+01  0.42332353907E+01  0.00000000000E+00 0.  1.
         -4    1    1    2    0  501  0.12419434499E+01 -0.17863114860E+01 -0.36646758216E+02  0.36711281917E+02  0.00000000000E+00 0. -1.
<mgrwt>
<rscale>  0 0.21756223E+01</rscale>
<asrwt>0</asrwt>
<pdfrwt beam="1">0</pdfrwt>
<pdfrwt beam="2">0</pdfrwt>
<totfact> 0.95498105E+11</totfact>
</mgrwt>
</event>
<event>
 4    2  0.2027839E+006  0.2634020E+01  0.7546771E-02  0.2652240E+00
         22   -1    0    0    0    0  0.00000000000E+00  0.00000000000E+00  0.12453169095E+02  0.12453169095E+02  0.00000000000E+00 0. -1.
         22   -1    0    0    0    0 -0.00000000000E+00 -0.00000000000E+00 -0.56433835554E+00  0.56433835554E+00  0.00000000000E+00 0.  1.
          4    1    1    2  501    0 -0.11676709576E+01 -0.23610600567E+01  0.52089142269E+01  0.58370238546E+01  0.00000000000E+00 0. -1.
         -4    1    1    2    0  501  0.11676709576E+01  0.23610600567E+01  0.66799165127E+01  0.71804835960E+01  0.00000000000E+00 0.  1.
<mgrwt>
<rscale>  0 0.26340198E+01</rscale>
<asrwt>0</asrwt>
<pdfrwt beam="1">0</pdfrwt>
<pdfrwt beam="2">0</pdfrwt>
<totfact> 0.23283164E+12</totfact>
</mgrwt>
</event>
<event>
 4    2  0.2027839E+006  0.2459281E+01  0.7546771E-02  0.2726758E+00
         22   -1    0    0    0    0  0.00000000000E+00  0.00000000000E+00  0.93010243888E+00  0.93010243888E+00  0.00000000000E+00 0. -1.
         22   -1    0    0    0    0 -0.00000000000E+00 -0.00000000000E+00 -0.13695031967E+02  0.13695031967E+02  0.00000000000E+00 0.  1.
          4    1    1    2  501    0 -0.15275820176E+01 -0.19273186325E+01 -0.10830625638E+01  0.26872083002E+01  0.00000000000E+00 0. -1.
         -4    1    1    2    0  501  0.15275820176E+01  0.19273186325E+01 -0.11681866964E+02  0.11937926106E+02  0.00000000000E+00 0.  1.
<mgrwt>
<rscale>  0 0.24592812E+01</rscale>
<asrwt>0</asrwt>
<pdfrwt beam="1">0</pdfrwt>
<pdfrwt beam="2">0</pdfrwt>
<totfact> 0.11750830E+12</totfact>
</mgrwt>
</event>
<event>
 4    2  0.2027839E+006  0.2010818E+01  0.7546771E-02  0.2973463E+00
         22   -1    0    0    0    0  0.00000000000E+00  0.00000000000E+00  0.63265750597E-01  0.63265750597E-01  0.00000000000E+00 0. -1.
         22   -1    0    0    0    0 -0.00000000000E+00 -0.00000000000E+00 -0.65901479769E+02  0.65901479769E+02  0.00000000000E+00 0.  1.
          4    1    1    2  501    0 -0.20107152656E+01  0.20289619814E-01 -0.27187245700E+02  0.27261506127E+02  0.00000000000E+00 0. -1.
         -4    1    1    2    0  501  0.20107152656E+01 -0.20289619814E-01 -0.38650968319E+02  0.38703239393E+02  0.00000000000E+00 0.  1.
<mgrwt>
<rscale>  0 0.20108176E+01</rscale>
<asrwt>0</asrwt>
<pdfrwt beam="1">0</pdfrwt>
<pdfrwt beam="2">0</pdfrwt>
<totfact> 0.31912066E+12</totfact>
</mgrwt>
</event>
<event>
 4    2  0.2027839E+006  0.2368004E+01  0.7546771E-02  0.2769747E+00
         22   -1    0    0    0    0  0.00000000000E+00  0.00000000000E+00  0.89759315806E+00  0.89759315806E+00  0.00000000000E+00 0. -1.
         22   -1    0    0    0    0 -0.00000000000E+00 -0.00000000000E+00 -0.11536135042E+02  0.11536135042E+02  0.00000000000E+00 0.  1.
          4    1    1    2  501    0 -0.84604645627E+00 -0.22117071188E+01 -0.11098207985E+01  0.26151759387E+01  0.00000000000E+00 0. -1.
         -4    1    1    2    0  501  0.84604645627E+00  0.22117071188E+01 -0.95287210859E+01  0.98185522618E+01  0.00000000000E+00 0.  1.
<mgrwt>
<rscale>  0 0.23680040E+01</rscale>
<asrwt>0</asrwt>
<pdfrwt beam="1">0</pdfrwt>
<pdfrwt beam="2">0</pdfrwt>
<totfact> 0.15090177E+12</totfact>
</mgrwt>
</event>
<event>
 4    2  0.2027839E+006  0.5009384E+01  0.7546771E-02  0.2121885E+00
         22   -1    0    0    0    0  0.00000000000E+00  0.00000000000E+00  0.68398679422E+01  0.68398679422E+01  0.00000000000E+00 0. -1.
         22   -1    0    0    0    0 -0.00000000000E+00 -0.00000000000E+00 -0.17044150326E+02  0.17044150326E+02  0.00000000000E+00 0.  1.
          4    1    1    2  501    0  0.46647018833E+01  0.18260582715E+01  0.54768125822E+01  0.74222239613E+01  0.00000000000E+00 0. -1.
         -4    1    1    2    0  501 -0.46647018833E+01 -0.18260582715E+01 -0.15681094966E+02  0.16461794307E+02  0.00000000000E+00 0.  1.
<mgrwt>
<rscale>  0 0.50093844E+01</rscale>
<asrwt>0</asrwt>
<pdfrwt beam="1">0</pdfrwt>
<pdfrwt beam="2">0</pdfrwt>
<totfact> 0.87834253E+10</totfact>
</mgrwt>
</event>
<event>
 4    2  0.2027839E+006  0.2911881E+01  0.7546771E-02  0.2550781E+00
         22   -1    0    0    0    0  0.00000000000E+00  0.00000000000E+00  0.21961307908E+00  0.21961307908E+00  0.00000000000E+00 0.  1.
         22   -1    0    0    0    0 -0.00000000000E+00 -0.00000000000E+00 -0.12129364692E+03  0.12129364692E+03  0.00000000000E+00 0. -1.
          4    1    1    2  501    0 -0.14496503084E+01 -0.25253846116E+01 -0.10373619385E+02  0.10774554868E+02  0.00000000000E+00 0.  1.
         -4    1    1    2    0  501  0.14496503084E+01  0.25253846116E+01 -0.11070041446E+03  0.11073870513E+03  0.00000000000E+00 0. -1.
<mgrwt>
<rscale>  0 0.29118814E+01</rscale>
<asrwt>0</asrwt>
<pdfrwt beam="1">0</pdfrwt>
<pdfrwt beam="2">0</pdfrwt>
<totfact> 0.34337294E+11</totfact>
</mgrwt>
</event>
<event>
 4    2  0.2027839E+006  0.3001634E+01  0.7546771E-02  0.2521664E+00
         22   -1    0    0    0    0  0.00000000000E+00  0.00000000000E+00  0.12083059925E+01  0.12083059925E+01  0.00000000000E+00 0.  1.
         22   -1    0    0    0    0 -0.00000000000E+00 -0.00000000000E+00 -0.94857108459E+01  0.94857108459E+01  0.00000000000E+00 0. -1.
          4    1    1    2  501    0  0.14175672568E+01  0.26458097414E+01 -0.16656512984E+01  0.34328123111E+01  0.00000000000E+00 0.  1.
         -4    1    1    2    0  501 -0.14175672568E+01 -0.26458097414E+01 -0.66117535551E+01  0.72612045274E+01  0.00000000000E+00 0. -1.
<mgrwt>
<rscale>  0 0.30016339E+01</rscale>
<asrwt>0</asrwt>
<pdfrwt beam="1">0</pdfrwt>
<pdfrwt beam="2">0</pdfrwt>
<totfact> 0.13622793E+12</totfact>
</mgrwt>
</event>
<event>
 4    2  0.2027839E+006  0.2146551E+01  0.7546771E-02  0.2888368E+00
         22   -1    0    0    0    0  0.00000000000E+00  0.00000000000E+00  0.63245330090E+01  0.63245330090E+01  0.00000000000E+00 0. -1.
         22   -1    0    0    0    0 -0.00000000000E+00 -0.00000000000E+00 -0.19775160061E+01  0.19775160061E+01  0.00000000000E+00 0.  1.
          4    1    1    2  501    0  0.16045137536E+01  0.14259098340E+01  0.54724310739E+01  0.58783658528E+01  0.00000000000E+00 0. -1.
         -4    1    1    2    0  501 -0.16045137536E+01 -0.14259098340E+01 -0.11254140711E+01  0.24236831623E+01  0.00000000000E+00 0.  1.
<mgrwt>
<rscale>  0 0.21465515E+01</rscale>
<asrwt>0</asrwt>
<pdfrwt beam="1">0</pdfrwt>
<pdfrwt beam="2">0</pdfrwt>
<totfact> 0.12565867E+12</totfact>
</mgrwt>
</event>
<event>
 4    2  0.2027839E+006  0.2258697E+01  0.7546771E-02  0.2825526E+00
         22   -1    0    0    0    0  0.00000000000E+00  0.00000000000E+00  0.10368672764E+03  0.10368672764E+03  0.00000000000E+00 0.  1.
         22   -1    0    0    0    0 -0.00000000000E+00 -0.00000000000E+00 -0.52049459301E-01  0.52049459301E-01  0.00000000000E+00 0. -1.
          4    1    1    2  501    0 -0.22530613955E+01  0.15945617723E+00  0.63946906310E+02  0.63986784093E+02  0.00000000000E+00 0.  1.
         -4    1    1    2    0  501  0.22530613955E+01 -0.15945617723E+00  0.39687771868E+02  0.39751993004E+02  0.00000000000E+00 0. -1.
<mgrwt>
<rscale>  0 0.22586970E+01</rscale>
<asrwt>0</asrwt>
<pdfrwt beam="1">0</pdfrwt>
<pdfrwt beam="2">0</pdfrwt>
<totfact> 0.21170034E+12</totfact>
</mgrwt>
</event>
<event>
 4    2  0.2027839E+006  0.2051187E+01  0.7546771E-02  0.2947009E+00
         22   -1    0    0    0    0  0.00000000000E+00  0.00000000000E+00  0.12413031015E+01  0.12413031015E+01  0.00000000000E+00 0. -1.
         22   -1    0    0    0    0 -0.00000000000E+00 -0.00000000000E+00 -0.35515070820E+01  0.35515070820E+01  0.00000000000E+00 0.  1.
          4    1    1    2  501    0 -0.64901054655E+00  0.19458045033E+01 -0.16669606465E+01  0.26431283834E+01  0.00000000000E+00 0.  1.
         -4    1    1    2    0  501  0.64901054655E+00 -0.19458045033E+01 -0.64324333413E+00  0.21496818000E+01  0.00000000000E+00 0. -1.
<mgrwt>
<rscale>  0 0.20511874E+01</rscale>
<asrwt>0</asrwt>
<pdfrwt beam="1">0</pdfrwt>
<pdfrwt beam="2">0</pdfrwt>
<totfact> 0.42503477E+12</totfact>
</mgrwt>
</event>
<event>
 4    2  0.2027839E+006  0.2014394E+01  0.7546771E-02  0.2971077E+00
         22   -1    0    0    0    0  0.00000000000E+00  0.00000000000E+00  0.30382290788E+01  0.30382290788E+01  0.00000000000E+00 0. -1.
         22   -1    0    0    0    0 -0.00000000000E+00 -0.00000000000E+00 -0.13717661748E+01  0.13717661748E+01  0.00000000000E+00 0.  1.
          4    1    1    2  501    0  0.19726765648E+01 -0.40783603490E+00  0.11913847142E+01  0.23403377102E+01  0.00000000000E+00 0. -1.
         -4    1    1    2    0  501 -0.19726765648E+01  0.40783603490E+00  0.47507818972E+00  0.20696575434E+01  0.00000000000E+00 0.  1.
<mgrwt>
<rscale>  0 0.20143940E+01</rscale>
<asrwt>0</asrwt>
<pdfrwt beam="1">0</pdfrwt>
<pdfrwt beam="2">0</pdfrwt>
<totfact> 0.45497259E+12</totfact>
</mgrwt>
</event>
<event>
 4    2  0.2027839E+006  0.4074547E+01  0.7546771E-02  0.2263267E+00
         22   -1    0    0    0    0  0.00000000000E+00  0.00000000000E+00  0.11784212262E+02  0.11784212262E+02  0.00000000000E+00 0. -1.
         22   -1    0    0    0    0 -0.00000000000E+00 -0.00000000000E+00 -0.10820047130E+02  0.10820047130E+02  0.00000000000E+00 0.  1.
          4    1    1    2  501    0 -0.37975551045E+01 -0.14766532366E+01  0.11022763090E+02  0.11751733306E+02  0.00000000000E+00 0. -1.
         -4    1    1    2    0  501  0.37975551045E+01  0.14766532366E+01 -0.10058597958E+02  0.10852526086E+02  0.00000000000E+00 0.  1.
<mgrwt>
<rscale>  0 0.40745465E+01</rscale>
<asrwt>0</asrwt>
<pdfrwt beam="1">0</pdfrwt>
<pdfrwt beam="2">0</pdfrwt>
<totfact> 0.79527500E+10</totfact>
</mgrwt>
</event>
<event>
 4    2  0.2027839E+006  0.2702153E+01  0.7546771E-02  0.2625602E+00
         22   -1    0    0    0    0  0.00000000000E+00  0.00000000000E+00  0.25455470460E+01  0.25455470460E+01  0.00000000000E+00 0. -1.
         22   -1    0    0    0    0 -0.00000000000E+00 -0.00000000000E+00 -0.32983764879E+01  0.32983764879E+01  0.00000000000E+00 0.  1.
          4    1    1    2  501    0 -0.52700370579E+00  0.26502637385E+01 -0.14314087830E+01  0.30578688483E+01  0.00000000000E+00 0.  1.
         -4    1    1    2    0  501  0.52700370579E+00 -0.26502637385E+01  0.67857934110E+00  0.27860546857E+01  0.00000000000E+00 0. -1.
<mgrwt>
<rscale>  0 0.27021530E+01</rscale>
<asrwt>0</asrwt>
<pdfrwt beam="1">0</pdfrwt>
<pdfrwt beam="2">0</pdfrwt>
<totfact> 0.20226940E+12</totfact>
</mgrwt>
</event>
<event>
 4    2  0.2027839E+006  0.2322690E+01  0.7546771E-02  0.2792267E+00
         22   -1    0    0    0    0  0.00000000000E+00  0.00000000000E+00  0.93740199848E+01  0.93740199848E+01  0.00000000000E+00 0.  1.
         22   -1    0    0    0    0 -0.00000000000E+00 -0.00000000000E+00 -0.99780278180E+00  0.99780278180E+00  0.00000000000E+00 0. -1.
          4    1    1    2  501    0 -0.53547374640E+00 -0.22601236258E+01  0.75618119639E+01  0.79104924697E+01  0.00000000000E+00 0.  1.
         -4    1    1    2    0  501  0.53547374640E+00  0.22601236258E+01  0.81440523915E+00  0.24613302969E+01  0.00000000000E+00 0. -1.
<mgrwt>
<rscale>  0 0.23226905E+01</rscale>
<asrwt>0</asrwt>
<pdfrwt beam="1">0</pdfrwt>
<pdfrwt beam="2">0</pdfrwt>
<totfact> 0.17201129E+12</totfact>
</mgrwt>
</event>
<event>
 4    2  0.2027839E+006  0.2655890E+01  0.7546771E-02  0.2643552E+00
         22   -1    0    0    0    0  0.00000000000E+00  0.00000000000E+00  0.35880244268E+00  0.35880244268E+00  0.00000000000E+00 0.  1.
         22   -1    0    0    0    0 -0.00000000000E+00 -0.00000000000E+00 -0.39708131789E+02  0.39708131789E+02  0.00000000000E+00 0. -1.
          4    1    1    2  501    0 -0.17884343852E+01  0.19634807733E+01 -0.54395014056E+01  0.60532577872E+01  0.00000000000E+00 0.  1.
         -4    1    1    2    0  501  0.17884343852E+01 -0.19634807733E+01 -0.33909827941E+02  0.34013676445E+02  0.00000000000E+00 0. -1.
<mgrwt>
<rscale>  0 0.26558905E+01</rscale>
<asrwt>0</asrwt>
<pdfrwt beam="1">0</pdfrwt>
<pdfrwt beam="2">0</pdfrwt>
<totfact> 0.90483604E+11</totfact>
</mgrwt>
</event>
<event>
 4    2  0.2027839E+006  0.2125829E+01  0.7546771E-02  0.2900677E+00
         22   -1    0    0    0    0  0.00000000000E+00  0.00000000000E+00  0.12788419319E+01  0.12788419319E+01  0.00000000000E+00 0.  1.
         22   -1    0    0    0    0 -0.00000000000E+00 -0.00000000000E+00 -0.39546058233E+01  0.39546058233E+01  0.00000000000E+00 0. -1.
          4    1    1    2  501    0 -0.21250971744E+01 -0.55794616123E-01 -0.21914840379E+01  0.30531546519E+01  0.00000000000E+00 0. -1.
         -4    1    1    2    0  501  0.21250971744E+01  0.55794616123E-01 -0.48427985348E+00  0.21802931033E+01  0.00000000000E+00 0.  1.
<mgrwt>
<rscale>  0 0.21258295E+01</rscale>
<asrwt>0</asrwt>
<pdfrwt beam="1">0</pdfrwt>
<pdfrwt beam="2">0</pdfrwt>
<totfact> 0.36203135E+12</totfact>
</mgrwt>
</event>
<event>
 4    2  0.2027839E+006  0.3397722E+01  0.7546771E-02  0.2409703E+00
         22   -1    0    0    0    0  0.00000000000E+00  0.00000000000E+00  0.79922380375E+01  0.79922380375E+01  0.00000000000E+00 0.  1.
         22   -1    0    0    0    0 -0.00000000000E+00 -0.00000000000E+00 -0.31366702732E+02  0.31366702732E+02  0.00000000000E+00 0. -1.
          4    1    1    2  501    0 -0.10813670449E+01 -0.32210495049E+01  0.75337686444E+01  0.82645135722E+01  0.00000000000E+00 0.  1.
         -4    1    1    2    0  501  0.10813670449E+01  0.32210495049E+01 -0.30908233339E+02  0.31094427198E+02  0.00000000000E+00 0. -1.
<mgrwt>
<rscale>  0 0.33977220E+01</rscale>
<asrwt>0</asrwt>
<pdfrwt beam="1">0</pdfrwt>
<pdfrwt beam="2">0</pdfrwt>
<totfact> 0.33865149E+10</totfact>
</mgrwt>
</event>
<event>
 4    2  0.2027839E+006  0.2184061E+01  0.7546771E-02  0.2866661E+00
         22   -1    0    0    0    0  0.00000000000E+00  0.00000000000E+00  0.23772903727E+02  0.23772903727E+02  0.00000000000E+00 0.  1.
         22   -1    0    0    0    0 -0.00000000000E+00 -0.00000000000E+00 -0.41077791140E+00  0.41077791140E+00  0.00000000000E+00 0. -1.
          4    1    1    2  501    0 -0.21230797173E+01  0.51249794737E+00  0.20329286412E+02  0.20446271241E+02  0.00000000000E+00 0.  1.
         -4    1    1    2    0  501  0.21230797173E+01 -0.51249794737E+00  0.30328394036E+01  0.37374103976E+01  0.00000000000E+00 0. -1.
<mgrwt>
<rscale>  0 0.21840608E+01</rscale>
<asrwt>0</asrwt>
<pdfrwt beam="1">0</pdfrwt>
<pdfrwt beam="2">0</pdfrwt>
<totfact> 0.14958477E+12</totfact>
</mgrwt>
</event>
<event>
 4    2  0.2027839E+006  0.2121368E+01  0.7546771E-02  0.2903357E+00
         22   -1    0    0    0    0  0.00000000000E+00  0.00000000000E+00  0.49604148353E+01  0.49604148353E+01  0.00000000000E+00 0. -1.
         22   -1    0    0    0    0 -0.00000000000E+00 -0.00000000000E+00 -0.10629973238E+01  0.10629973238E+01  0.00000000000E+00 0.  1.
          4    1    1    2  501    0  0.81077226159E+00  0.19603187321E+01  0.31016171068E+01  0.37576894322E+01  0.00000000000E+00 0.  1.
         -4    1    1    2    0  501 -0.81077226159E+00 -0.19603187321E+01  0.79580040470E+00  0.22657227270E+01  0.00000000000E+00 0. -1.
<mgrwt>
<rscale>  0 0.21213678E+01</rscale>
<asrwt>0</asrwt>
<pdfrwt beam="1">0</pdfrwt>
<pdfrwt beam="2">0</pdfrwt>
<totfact> 0.34241390E+12</totfact>
</mgrwt>
</event>
<event>
 4    2  0.2027839E+006  0.2006146E+01  0.7546771E-02  0.2976591E+00
         22   -1    0    0    0    0  0.00000000000E+00  0.00000000000E+00  0.10653151892E+02  0.10653151892E+02  0.00000000000E+00 0.  1.
         22   -1    0    0    0    0 -0.00000000000E+00 -0.00000000000E+00 -0.67182803341E+00  0.67182803341E+00  0.00000000000E+00 0. -1.
          4    1    1    2  501    0 -0.13165367282E+01  0.15137217588E+01  0.87367875692E+01  0.89641552613E+01  0.00000000000E+00 0.  1.
         -4    1    1    2    0  501  0.13165367282E+01 -0.15137217588E+01  0.12445362898E+01  0.23608246645E+01  0.00000000000E+00 0. -1.
<mgrwt>
<rscale>  0 0.20061462E+01</rscale>
<asrwt>0</asrwt>
<pdfrwt beam="1">0</pdfrwt>
<pdfrwt beam="2">0</pdfrwt>
<totfact> 0.23107944E+12</totfact>
</mgrwt>
</event>
<event>
 4    2  0.2027839E+006  0.2599024E+01  0.7546771E-02  0.2666421E+00
         22   -1    0    0    0    0  0.00000000000E+00  0.00000000000E+00  0.19571845670E+02  0.19571845670E+02  0.00000000000E+00 0.  1.
         22   -1    0    0    0    0 -0.00000000000E+00 -0.00000000000E+00 -0.98996426811E+00  0.98996426811E+00  0.00000000000E+00 0. -1.
          4    1    1    2  501    0  0.62171385446E+00  0.25235679574E+01  0.17588379393E+02  0.17779370434E+02  0.00000000000E+00 0.  1.
         -4    1    1    2    0  501 -0.62171385446E+00 -0.25235679574E+01  0.99350200877E+00  0.27824395041E+01  0.00000000000E+00 0. -1.
<mgrwt>
<rscale>  0 0.25990235E+01</rscale>
<asrwt>0</asrwt>
<pdfrwt beam="1">0</pdfrwt>
<pdfrwt beam="2">0</pdfrwt>
<totfact> 0.70400388E+11</totfact>
</mgrwt>
</event>
<event>
 4    2  0.2027839E+006  0.2165721E+01  0.7546771E-02  0.2877184E+00
         22   -1    0    0    0    0  0.00000000000E+00  0.00000000000E+00  0.11858353852E+02  0.11858353852E+02  0.00000000000E+00 0.  1.
         22   -1    0    0    0    0 -0.00000000000E+00 -0.00000000000E+00 -0.60194921435E+00  0.60194921435E+00  0.00000000000E+00 0. -1.
          4    1    1    2  501    0  0.10760001609E+01  0.18795135353E+01  0.92765196888E+01  0.95259731793E+01  0.00000000000E+00 0.  1.
         -4    1    1    2    0  501 -0.10760001609E+01 -0.18795135353E+01  0.19798849488E+01  0.29343298871E+01  0.00000000000E+00 0. -1.
<mgrwt>
<rscale>  0 0.21657210E+01</rscale>
<asrwt>0</asrwt>
<pdfrwt beam="1">0</pdfrwt>
<pdfrwt beam="2">0</pdfrwt>
<totfact> 0.22973777E+12</totfact>
</mgrwt>
</event>
<event>
 4    2  0.2027839E+006  0.2028512E+01  0.7546771E-02  0.2961741E+00
         22   -1    0    0    0    0  0.00000000000E+00  0.00000000000E+00  0.23648791448E+02  0.23648791448E+02  0.00000000000E+00 0.  1.
         22   -1    0    0    0    0 -0.00000000000E+00 -0.00000000000E+00 -0.30448934803E+00  0.30448934803E+00  0.00000000000E+00 0. -1.
          4    1    1    2  501    0  0.13021801000E+01 -0.15553734032E+01  0.19512558250E+02  0.19617716200E+02  0.00000000000E+00 0.  1.
         -4    1    1    2    0  501 -0.13021801000E+01  0.15553734032E+01  0.38317438498E+01  0.43355645961E+01  0.00000000000E+00 0. -1.
<mgrwt>
<rscale>  0 0.20285116E+01</rscale>
<asrwt>0</asrwt>
<pdfrwt beam="1">0</pdfrwt>
<pdfrwt beam="2">0</pdfrwt>
<totfact> 0.21078913E+12</totfact>
</mgrwt>
</event>
<event>
 4    2  0.2027839E+006  0.2062765E+01  0.7546771E-02  0.2939609E+00
         22   -1    0    0    0    0  0.00000000000E+00  0.00000000000E+00  0.17348975477E+01  0.17348975477E+01  0.00000000000E+00 0. -1.
         22   -1    0    0    0    0 -0.00000000000E+00 -0.00000000000E+00 -0.30897634614E+01  0.30897634614E+01  0.00000000000E+00 0.  1.
          4    1    1    2  501    0 -0.15683669688E+01  0.13398597880E+01  0.41804007622E+00  0.21046987208E+01  0.00000000000E+00 0. -1.
         -4    1    1    2    0  501  0.15683669688E+01 -0.13398597880E+01 -0.17729059899E+01  0.27199622882E+01  0.00000000000E+00 0.  1.
<mgrwt>
<rscale>  0 0.20627649E+01</rscale>
<asrwt>0</asrwt>
<pdfrwt beam="1">0</pdfrwt>
<pdfrwt beam="2">0</pdfrwt>
<totfact> 0.34043183E+12</totfact>
</mgrwt>
</event>
<event>
 4    2  0.2027839E+006  0.2330507E+01  0.7546771E-02  0.2788323E+00
         22   -1    0    0    0    0  0.00000000000E+00  0.00000000000E+00  0.69695607149E+00  0.69695607149E+00  0.00000000000E+00 0.  1.
         22   -1    0    0    0    0 -0.00000000000E+00 -0.00000000000E+00 -0.16049036562E+02  0.16049036562E+02  0.00000000000E+00 0. -1.
          4    1    1    2  501    0  0.11402484482E+01  0.20325097002E+01 -0.16705755854E+01  0.28674178265E+01  0.00000000000E+00 0.  1.
         -4    1    1    2    0  501 -0.11402484482E+01 -0.20325097002E+01 -0.13681504905E+02  0.13878574807E+02  0.00000000000E+00 0. -1.
<mgrwt>
<rscale>  0 0.23305069E+01</rscale>
<asrwt>0</asrwt>
<pdfrwt beam="1">0</pdfrwt>
<pdfrwt beam="2">0</pdfrwt>
<totfact> 0.13425134E+12</totfact>
</mgrwt>
</event>
<event>
 4    2  0.2027839E+006  0.3238600E+01  0.7546771E-02  0.2451764E+00
         22   -1    0    0    0    0  0.00000000000E+00  0.00000000000E+00  0.15659637927E+02  0.15659637927E+02  0.00000000000E+00 0.  1.
         22   -1    0    0    0    0 -0.00000000000E+00 -0.00000000000E+00 -0.89993100066E+00  0.89993100066E+00  0.00000000000E+00 0. -1.
          4    1    1    2  501    0  0.22648376612E+01 -0.23149599878E+01  0.11567016095E+02  0.12011843769E+02  0.00000000000E+00 0.  1.
         -4    1    1    2    0  501 -0.22648376612E+01  0.23149599878E+01  0.31926908306E+01  0.45477251584E+01  0.00000000000E+00 0. -1.
<mgrwt>
<rscale>  0 0.32385999E+01</rscale>
<asrwt>0</asrwt>
<pdfrwt beam="1">0</pdfrwt>
<pdfrwt beam="2">0</pdfrwt>
<totfact> 0.10347593E+12</totfact>
</mgrwt>
</event>
<event>
 4    2  0.2027839E+006  0.2230246E+01  0.7546771E-02  0.2840896E+00
         22   -1    0    0    0    0  0.00000000000E+00  0.00000000000E+00  0.43951459282E+02  0.43951459282E+02  0.00000000000E+00 0. -1.
         22   -1    0    0    0    0 -0.00000000000E+00 -0.00000000000E+00 -0.12429374581E+00  0.12429374581E+00  0.00000000000E+00 0.  1.
          4    1    1    2  501    0  0.22240055931E+01  0.16672599325E+00  0.28506314430E+02  0.28593425133E+02  0.00000000000E+00 0. -1.
         -4    1    1    2    0  501 -0.22240055931E+01 -0.16672599325E+00  0.15320851106E+02  0.15482327895E+02  0.00000000000E+00 0.  1.
<mgrwt>
<rscale>  0 0.22302463E+01</rscale>
<asrwt>0</asrwt>
<pdfrwt beam="1">0</pdfrwt>
<pdfrwt beam="2">0</pdfrwt>
<totfact> 0.25891799E+12</totfact>
</mgrwt>
</event>
<event>
 4    2  0.2027839E+006  0.2206707E+01  0.7546771E-02  0.2853899E+00
         22   -1    0    0    0    0  0.00000000000E+00  0.00000000000E+00  0.11783416823E+01  0.11783416823E+01  0.00000000000E+00 0.  1.
         22   -1    0    0    0    0 -0.00000000000E+00 -0.00000000000E+00 -0.44774325059E+01  0.44774325059E+01  0.00000000000E+00 0. -1.
          4    1    1    2  501    0  0.16289501581E+01 -0.14886491184E+01 -0.24343900840E+01  0.32856977792E+01  0.00000000000E+00 0. -1.
         -4    1    1    2    0  501 -0.16289501581E+01  0.14886491184E+01 -0.86470073953E+00  0.23700764089E+01  0.00000000000E+00 0.  1.
<mgrwt>
<rscale>  0 0.22067068E+01</rscale>
<asrwt>0</asrwt>
<pdfrwt beam="1">0</pdfrwt>
<pdfrwt beam="2">0</pdfrwt>
<totfact> 0.34352105E+12</totfact>
</mgrwt>
</event>
<event>
 4    2  0.2027839E+006  0.2197276E+01  0.7546771E-02  0.2859183E+00
         22   -1    0    0    0    0  0.00000000000E+00  0.00000000000E+00  0.33865543522E+02  0.33865543522E+02  0.00000000000E+00 0.  1.
         22   -1    0    0    0    0 -0.00000000000E+00 -0.00000000000E+00 -0.26440927932E+00  0.26440927932E+00  0.00000000000E+00 0. -1.
          4    1    1    2  501    0  0.21242771133E+01  0.56166396429E+00  0.28384900614E+02  0.28469819151E+02  0.00000000000E+00 0.  1.
         -4    1    1    2    0  501 -0.21242771133E+01 -0.56166396429E+00  0.52162336288E+01  0.56601336498E+01  0.00000000000E+00 0. -1.
<mgrwt>
<rscale>  0 0.21972755E+01</rscale>
<asrwt>0</asrwt>
<pdfrwt beam="1">0</pdfrwt>
<pdfrwt beam="2">0</pdfrwt>
<totfact> 0.15647468E+12</totfact>
</mgrwt>
</event>
<event>
 4    2  0.2027839E+006  0.2249208E+01  0.7546771E-02  0.2830612E+00
         22   -1    0    0    0    0  0.00000000000E+00  0.00000000000E+00  0.89782003209E+02  0.89782003209E+02  0.00000000000E+00 0.  1.
         22   -1    0    0    0    0 -0.00000000000E+00 -0.00000000000E+00 -0.56467847942E-01  0.56467847942E-01  0.00000000000E+00 0. -1.
          4    1    1    2  501    0 -0.60301838623E+00 -0.21668652891E+01  0.42783765233E+02  0.42842846589E+02  0.00000000000E+00 0.  1.
         -4    1    1    2    0  501  0.60301838623E+00  0.21668652891E+01  0.46941770128E+02  0.46995624468E+02  0.00000000000E+00 0. -1.
<mgrwt>
<rscale>  0 0.22492079E+01</rscale>
<asrwt>0</asrwt>
<pdfrwt beam="1">0</pdfrwt>
<pdfrwt beam="2">0</pdfrwt>
<totfact> 0.23684473E+12</totfact>
</mgrwt>
</event>
<event>
 4    2  0.2027839E+006  0.2582945E+01  0.7546771E-02  0.2673054E+00
         22   -1    0    0    0    0  0.00000000000E+00  0.00000000000E+00  0.34815253701E+01  0.34815253701E+01  0.00000000000E+00 0.  1.
         22   -1    0    0    0    0 -0.00000000000E+00 -0.00000000000E+00 -0.56881456330E+01  0.56881456330E+01  0.00000000000E+00 0. -1.
          4    1    1    2  501    0 -0.25368197919E+01 -0.48595337389E+00  0.26301889605E+01  0.36863938078E+01  0.00000000000E+00 0.  1.
         -4    1    1    2    0  501  0.25368197919E+01  0.48595337389E+00 -0.48368092233E+01  0.54832771953E+01  0.00000000000E+00 0. -1.
<mgrwt>
<rscale>  0 0.25829451E+01</rscale>
<asrwt>0</asrwt>
<pdfrwt beam="1">0</pdfrwt>
<pdfrwt beam="2">0</pdfrwt>
<totfact> 0.73783648E+11</totfact>
</mgrwt>
</event>
<event>
 4    2  0.2027839E+006  0.2290426E+01  0.7546771E-02  0.2808815E+00
         22   -1    0    0    0    0  0.00000000000E+00  0.00000000000E+00  0.10298324989E+02  0.10298324989E+02  0.00000000000E+00 0.  1.
         22   -1    0    0    0    0 -0.00000000000E+00 -0.00000000000E+00 -0.55099311162E+00  0.55099311162E+00  0.00000000000E+00 0. -1.
          4    1    1    2  501    0 -0.13227831725E+01  0.18698390770E+01  0.33833920648E+01  0.40857551762E+01  0.00000000000E+00 0. -1.
         -4    1    1    2    0  501  0.13227831725E+01 -0.18698390770E+01  0.63639398122E+01  0.67635629241E+01  0.00000000000E+00 0.  1.
<mgrwt>
<rscale>  0 0.22904265E+01</rscale>
<asrwt>0</asrwt>
<pdfrwt beam="1">0</pdfrwt>
<pdfrwt beam="2">0</pdfrwt>
<totfact> 0.30141858E+12</totfact>
</mgrwt>
</event>
<event>
 4    2  0.2027839E+006  0.2117299E+01  0.7546771E-02  0.2905811E+00
         22   -1    0    0    0    0  0.00000000000E+00  0.00000000000E+00  0.17023655517E+02  0.17023655517E+02  0.00000000000E+00 0. -1.
         22   -1    0    0    0    0 -0.00000000000E+00 -0.00000000000E+00 -0.33767007238E+00  0.33767007238E+00  0.00000000000E+00 0.  1.
          4    1    1    2  501    0 -0.26912911889E+00 -0.21001252394E+01  0.12415838479E+02  0.12595078469E+02  0.00000000000E+00 0. -1.
         -4    1    1    2    0  501  0.26912911889E+00  0.21001252394E+01  0.42701469648E+01  0.47662471195E+01  0.00000000000E+00 0.  1.
<mgrwt>
<rscale>  0 0.21172993E+01</rscale>
<asrwt>0</asrwt>
<pdfrwt beam="1">0</pdfrwt>
<pdfrwt beam="2">0</pdfrwt>
<totfact> 0.28282253E+12</totfact>
</mgrwt>
</event>
<event>
 4    2  0.2027839E+006  0.9111089E+01  0.7546771E-02  0.1818131E+00
         22   -1    0    0    0    0  0.00000000000E+00  0.00000000000E+00  0.33324279851E+01  0.33324279851E+01  0.00000000000E+00 0. -1.
         22   -1    0    0    0    0 -0.00000000000E+00 -0.00000000000E+00 -0.26434420687E+02  0.26434420687E+02  0.00000000000E+00 0.  1.
          4    1    1    2  501    0 -0.89062575809E+01 -0.19210737571E+01 -0.79772767284E+01  0.12109867567E+02  0.00000000000E+00 0. -1.
         -4    1    1    2    0  501  0.89062575809E+01  0.19210737571E+01 -0.15124715973E+02  0.17656981105E+02  0.00000000000E+00 0.  1.
<mgrwt>
<rscale>  0 0.91110893E+01</rscale>
<asrwt>0</asrwt>
<pdfrwt beam="1">0</pdfrwt>
<pdfrwt beam="2">0</pdfrwt>
<totfact> 0.11873890E+11</totfact>
</mgrwt>
</event>
<event>
 4    2  0.2027839E+006  0.2035878E+01  0.7546771E-02  0.2956920E+00
         22   -1    0    0    0    0  0.00000000000E+00  0.00000000000E+00  0.51292806272E+00  0.51292806272E+00  0.00000000000E+00 0.  1.
         22   -1    0    0    0    0 -0.00000000000E+00 -0.00000000000E+00 -0.81468250151E+01  0.81468250151E+01  0.00000000000E+00 0. -1.
          4    1    1    2  501    0 -0.20341473815E+01 -0.83932964775E-01 -0.34267584885E+01  0.39859094383E+01  0.00000000000E+00 0.  1.
         -4    1    1    2    0  501  0.20341473815E+01  0.83932964775E-01 -0.42071384640E+01  0.46738436395E+01  0.00000000000E+00 0. -1.
<mgrwt>
<rscale>  0 0.20358783E+01</rscale>
<asrwt>0</asrwt>
<pdfrwt beam="1">0</pdfrwt>
<pdfrwt beam="2">0</pdfrwt>
<totfact> 0.43365197E+12</totfact>
</mgrwt>
</event>
<event>
 4    2  0.2027839E+006  0.3550565E+01  0.7546771E-02  0.2372430E+00
         22   -1    0    0    0    0  0.00000000000E+00  0.00000000000E+00  0.10570590737E+01  0.10570590737E+01  0.00000000000E+00 0.  1.
         22   -1    0    0    0    0 -0.00000000000E+00 -0.00000000000E+00 -0.15076087239E+02  0.15076087239E+02  0.00000000000E+00 0. -1.
          4    1    1    2  501    0  0.11637359209E+01  0.33544342968E+01 -0.33222481040E+01  0.48624935177E+01  0.00000000000E+00 0.  1.
         -4    1    1    2    0  501 -0.11637359209E+01 -0.33544342968E+01 -0.10696780061E+02  0.11270652795E+02  0.00000000000E+00 0. -1.
<mgrwt>
<rscale>  0 0.35505648E+01</rscale>
<asrwt>0</asrwt>
<pdfrwt beam="1">0</pdfrwt>
<pdfrwt beam="2">0</pdfrwt>
<totfact> 0.90236305E+11</totfact>
</mgrwt>
</event>
<event>
 4    2  0.2027839E+006  0.4689972E+01  0.7546771E-02  0.2162076E+00
         22   -1    0    0    0    0  0.00000000000E+00  0.00000000000E+00  0.45357286055E+00  0.45357286055E+00  0.00000000000E+00 0. -1.
         22   -1    0    0    0    0 -0.00000000000E+00 -0.00000000000E+00 -0.49227484386E+02  0.49227484386E+02  0.00000000000E+00 0.  1.
          4    1    1    2  501    0 -0.45982993030E+01  0.92275546662E+00 -0.21356032435E+02  0.21864948102E+02  0.00000000000E+00 0.  1.
         -4    1    1    2    0  501  0.45982993030E+01 -0.92275546662E+00 -0.27417879089E+02  0.27816109144E+02  0.00000000000E+00 0. -1.
<mgrwt>
<rscale>  0 0.46899717E+01</rscale>
<asrwt>0</asrwt>
<pdfrwt beam="1">0</pdfrwt>
<pdfrwt beam="2">0</pdfrwt>
<totfact> 0.52481160E+11</totfact>
</mgrwt>
</event>
<event>
 4    2  0.2027839E+006  0.2853109E+01  0.7546771E-02  0.2570741E+00
         22   -1    0    0    0    0  0.00000000000E+00  0.00000000000E+00  0.37520455871E+01  0.37520455871E+01  0.00000000000E+00 0.  1.
         22   -1    0    0    0    0 -0.00000000000E+00 -0.00000000000E+00 -0.32241375736E+01  0.32241375736E+01  0.00000000000E+00 0. -1.
          4    1    1    2  501    0  0.19862047068E+01  0.20482245641E+01  0.22588643484E+01  0.36390522320E+01  0.00000000000E+00 0.  1.
         -4    1    1    2    0  501 -0.19862047068E+01 -0.20482245641E+01 -0.17309563349E+01  0.33371309288E+01  0.00000000000E+00 0. -1.
<mgrwt>
<rscale>  0 0.28531094E+01</rscale>
<asrwt>0</asrwt>
<pdfrwt beam="1">0</pdfrwt>
<pdfrwt beam="2">0</pdfrwt>
<totfact> 0.13198614E+12</totfact>
</mgrwt>
</event>
<event>
 4    2  0.2027839E+006  0.2054822E+01  0.7546771E-02  0.2944677E+00
         22   -1    0    0    0    0  0.00000000000E+00  0.00000000000E+00  0.75221096007E+00  0.75221096007E+00  0.00000000000E+00 0.  1.
         22   -1    0    0    0    0 -0.00000000000E+00 -0.00000000000E+00 -0.61825543815E+01  0.61825543815E+01  0.00000000000E+00 0. -1.
          4    1    1    2  501    0 -0.25099192191E+00  0.20394352528E+01 -0.16629239967E+01  0.26434086544E+01  0.00000000000E+00 0.  1.
         -4    1    1    2    0  501  0.25099192191E+00 -0.20394352528E+01 -0.37674194247E+01  0.42913566872E+01  0.00000000000E+00 0. -1.
<mgrwt>
<rscale>  0 0.20548219E+01</rscale>
<asrwt>0</asrwt>
<pdfrwt beam="1">0</pdfrwt>
<pdfrwt beam="2">0</pdfrwt>
<totfact> 0.39096510E+12</totfact>
</mgrwt>
</event>
<event>
 4    2  0.2027839E+006  0.2550274E+01  0.7546771E-02  0.2686773E+00
         22   -1    0    0    0    0  0.00000000000E+00  0.00000000000E+00  0.21909389401E+01  0.21909389401E+01  0.00000000000E+00 0.  1.
         22   -1    0    0    0    0 -0.00000000000E+00 -0.00000000000E+00 -0.32052946620E+01  0.32052946620E+01  0.00000000000E+00 0. -1.
          4    1    1    2  501    0 -0.10727949934E+01  0.23136566141E+01  0.22610825746E+00  0.25602775182E+01  0.00000000000E+00 0.  1.
         -4    1    1    2    0  501  0.10727949934E+01 -0.23136566141E+01 -0.12404639793E+01  0.28359560839E+01  0.00000000000E+00 0. -1.
<mgrwt>
<rscale>  0 0.25502737E+01</rscale>
<asrwt>0</asrwt>
<pdfrwt beam="1">0</pdfrwt>
<pdfrwt beam="2">0</pdfrwt>
<totfact> 0.24897961E+12</totfact>
</mgrwt>
</event>
<event>
 4    2  0.2027839E+006  0.3979344E+01  0.7546771E-02  0.2281260E+00
         22   -1    0    0    0    0  0.00000000000E+00  0.00000000000E+00  0.40177200156E+02  0.40177200156E+02  0.00000000000E+00 0.  1.
         22   -1    0    0    0    0 -0.00000000000E+00 -0.00000000000E+00 -0.62360797713E+00  0.62360797713E+00  0.00000000000E+00 0. -1.
          4    1    1    2  501    0  0.31376282943E+01 -0.24475436621E+01  0.32151935917E+02  0.32397255509E+02  0.00000000000E+00 0.  1.
         -4    1    1    2    0  501 -0.31376282943E+01  0.24475436621E+01  0.74016562616E+01  0.84035526241E+01  0.00000000000E+00 0. -1.
<mgrwt>
<rscale>  0 0.39793443E+01</rscale>
<asrwt>0</asrwt>
<pdfrwt beam="1">0</pdfrwt>
<pdfrwt beam="2">0</pdfrwt>
<totfact> 0.47762613E+11</totfact>
</mgrwt>
</event>
<event>
 4    2  0.2027839E+006  0.3022735E+01  0.7546771E-02  0.2515044E+00
         22   -1    0    0    0    0  0.00000000000E+00  0.00000000000E+00  0.22204550779E+02  0.22204550779E+02  0.00000000000E+00 0. -1.
         22   -1    0    0    0    0 -0.00000000000E+00 -0.00000000000E+00 -0.74897602807E+00  0.74897602807E+00  0.00000000000E+00 0.  1.
          4    1    1    2  501    0  0.29524194950E+01  0.64818835406E+00  0.18431746929E+02  0.18677960913E+02  0.00000000000E+00 0. -1.
         -4    1    1    2    0  501 -0.29524194950E+01 -0.64818835406E+00  0.30238278219E+01  0.42755658940E+01  0.00000000000E+00 0.  1.
<mgrwt>
<rscale>  0 0.30227354E+01</rscale>
<asrwt>0</asrwt>
<pdfrwt beam="1">0</pdfrwt>
<pdfrwt beam="2">0</pdfrwt>
<totfact> 0.82620659E+11</totfact>
</mgrwt>
</event>
<event>
 4    2  0.2027839E+006  0.3299046E+01  0.7546771E-02  0.2435366E+00
         22   -1    0    0    0    0  0.00000000000E+00  0.00000000000E+00  0.54801505413E+01  0.54801505413E+01  0.00000000000E+00 0. -1.
         22   -1    0    0    0    0 -0.00000000000E+00 -0.00000000000E+00 -0.28501621934E+01  0.28501621934E+01  0.00000000000E+00 0.  1.
          4    1    1    2  501    0 -0.16506423494E+01  0.28564112898E+01  0.36084392639E+01  0.48892268861E+01  0.00000000000E+00 0. -1.
         -4    1    1    2    0  501  0.16506423494E+01 -0.28564112898E+01 -0.97845091602E+00  0.34410858486E+01  0.00000000000E+00 0.  1.
<mgrwt>
<rscale>  0 0.32990462E+01</rscale>
<asrwt>0</asrwt>
<pdfrwt beam="1">0</pdfrwt>
<pdfrwt beam="2">0</pdfrwt>
<totfact> 0.97459385E+11</totfact>
</mgrwt>
</event>
<event>
 4    2  0.2027839E+006  0.2275605E+01  0.7546771E-02  0.2816566E+00
         22   -1    0    0    0    0  0.00000000000E+00  0.00000000000E+00  0.17182577653E+02  0.17182577653E+02  0.00000000000E+00 0. -1.
         22   -1    0    0    0    0 -0.00000000000E+00 -0.00000000000E+00 -0.45029829909E+00  0.45029829909E+00  0.00000000000E+00 0.  1.
          4    1    1    2  501    0 -0.90958666726E+00 -0.20859118931E+01  0.13436353561E+02  0.13627691417E+02  0.00000000000E+00 0. -1.
         -4    1    1    2    0  501  0.90958666726E+00  0.20859118931E+01  0.32959257933E+01  0.40051845359E+01  0.00000000000E+00 0.  1.
<mgrwt>
<rscale>  0 0.22756046E+01</rscale>
<asrwt>0</asrwt>
<pdfrwt beam="1">0</pdfrwt>
<pdfrwt beam="2">0</pdfrwt>
<totfact> 0.20224208E+12</totfact>
</mgrwt>
</event>
<event>
 4    2  0.2027839E+006  0.2401164E+01  0.7546771E-02  0.2753775E+00
         22   -1    0    0    0    0  0.00000000000E+00  0.00000000000E+00  0.65256542924E+01  0.65256542924E+01  0.00000000000E+00 0. -1.
         22   -1    0    0    0    0 -0.00000000000E+00 -0.00000000000E+00 -0.99064581688E+00  0.99064581688E+00  0.00000000000E+00 0.  1.
          4    1    1    2  501    0  0.22493024519E+01  0.84037319656E+00  0.40033058788E+01  0.46681952175E+01  0.00000000000E+00 0. -1.
         -4    1    1    2    0  501 -0.22493024519E+01 -0.84037319656E+00  0.15317025967E+01  0.28481048918E+01  0.00000000000E+00 0.  1.
<mgrwt>
<rscale>  0 0.24011640E+01</rscale>
<asrwt>0</asrwt>
<pdfrwt beam="1">0</pdfrwt>
<pdfrwt beam="2">0</pdfrwt>
<totfact> 0.26790887E+12</totfact>
</mgrwt>
</event>
<event>
 4    2  0.2027839E+006  0.2058425E+01  0.7546771E-02  0.2942373E+00
         22   -1    0    0    0    0  0.00000000000E+00  0.00000000000E+00  0.25419922218E+01  0.25419922218E+01  0.00000000000E+00 0.  1.
         22   -1    0    0    0    0 -0.00000000000E+00 -0.00000000000E+00 -0.23281950668E+01  0.23281950668E+01  0.00000000000E+00 0. -1.
          4    1    1    2  501    0 -0.55272774947E-02  0.20584175436E+01  0.14047377274E+01  0.24920676992E+01  0.00000000000E+00 0.  1.
         -4    1    1    2    0  501  0.55272774947E-02 -0.20584175436E+01 -0.11909405723E+01  0.23781195894E+01  0.00000000000E+00 0. -1.
<mgrwt>
<rscale>  0 0.20584250E+01</rscale>
<asrwt>0</asrwt>
<pdfrwt beam="1">0</pdfrwt>
<pdfrwt beam="2">0</pdfrwt>
<totfact> 0.30408579E+12</totfact>
</mgrwt>
</event>
<event>
 4    2  0.2027839E+006  0.2302068E+01  0.7546771E-02  0.2802794E+00
         22   -1    0    0    0    0  0.00000000000E+00  0.00000000000E+00  0.27750156627E+02  0.27750156627E+02  0.00000000000E+00 0. -1.
         22   -1    0    0    0    0 -0.00000000000E+00 -0.00000000000E+00 -0.20568949560E+00  0.20568949560E+00  0.00000000000E+00 0.  1.
          4    1    1    2  501    0  0.22728193484E+01 -0.36579762332E+00  0.10033308587E+02  0.10294017529E+02  0.00000000000E+00 0.  1.
         -4    1    1    2    0  501 -0.22728193484E+01  0.36579762332E+00  0.17511158544E+02  0.17661828593E+02  0.00000000000E+00 0. -1.
<mgrwt>
<rscale>  0 0.23020677E+01</rscale>
<asrwt>0</asrwt>
<pdfrwt beam="1">0</pdfrwt>
<pdfrwt beam="2">0</pdfrwt>
<totfact> 0.26713120E+12</totfact>
</mgrwt>
</event>
<event>
 4    2  0.2027839E+006  0.2248296E+01  0.7546771E-02  0.2831102E+00
         22   -1    0    0    0    0  0.00000000000E+00  0.00000000000E+00  0.11294225104E+01  0.11294225104E+01  0.00000000000E+00 0. -1.
         22   -1    0    0    0    0 -0.00000000000E+00 -0.00000000000E+00 -0.58350677810E+01  0.58350677810E+01  0.00000000000E+00 0.  1.
          4    1    1    2  501    0  0.33904359958E+00 -0.22225855491E+01 -0.67200057287E+00  0.23465766247E+01  0.00000000000E+00 0. -1.
         -4    1    1    2    0  501 -0.33904359958E+00  0.22225855491E+01 -0.40336446977E+01  0.46179136667E+01  0.00000000000E+00 0.  1.
<mgrwt>
<rscale>  0 0.22482965E+01</rscale>
<asrwt>0</asrwt>
<pdfrwt beam="1">0</pdfrwt>
<pdfrwt beam="2">0</pdfrwt>
<totfact> 0.26349288E+12</totfact>
</mgrwt>
</event>
<event>
 4    2  0.2027839E+006  0.2423719E+01  0.7546771E-02  0.2743146E+00
         22   -1    0    0    0    0  0.00000000000E+00  0.00000000000E+00  0.68412211842E+01  0.68412211842E+01  0.00000000000E+00 0. -1.
         22   -1    0    0    0    0 -0.00000000000E+00 -0.00000000000E+00 -0.10272135575E+02  0.10272135575E+02  0.00000000000E+00 0.  1.
          4    1    1    2  501    0 -0.23335733184E+00 -0.24124592856E+01  0.64757778949E+01  0.69144858662E+01  0.00000000000E+00 0. -1.
         -4    1    1    2    0  501  0.23335733184E+00  0.24124592856E+01 -0.99066922855E+01  0.10198870893E+02  0.00000000000E+00 0.  1.
<mgrwt>
<rscale>  0 0.24237193E+01</rscale>
<asrwt>0</asrwt>
<pdfrwt beam="1">0</pdfrwt>
<pdfrwt beam="2">0</pdfrwt>
<totfact> 0.16322958E+11</totfact>
</mgrwt>
</event>
<event>
 4    2  0.2027839E+006  0.2098379E+01  0.7546771E-02  0.2917344E+00
         22   -1    0    0    0    0  0.00000000000E+00  0.00000000000E+00  0.54478128069E+02  0.54478128069E+02  0.00000000000E+00 0.  1.
         22   -1    0    0    0    0 -0.00000000000E+00 -0.00000000000E+00 -0.92776114433E-01  0.92776114433E-01  0.00000000000E+00 0. -1.
          4    1    1    2  501    0  0.64197389780E+00 -0.19977646189E+01  0.17399636292E+02  0.17525710743E+02  0.00000000000E+00 0. -1.
         -4    1    1    2    0  501 -0.64197389780E+00  0.19977646189E+01  0.36985715662E+02  0.37045193440E+02  0.00000000000E+00 0.  1.
<mgrwt>
<rscale>  0 0.20983789E+01</rscale>
<asrwt>0</asrwt>
<pdfrwt beam="1">0</pdfrwt>
<pdfrwt beam="2">0</pdfrwt>
<totfact> 0.26980940E+12</totfact>
</mgrwt>
</event>
<event>
 4    2  0.2027839E+006  0.2476763E+01  0.7546771E-02  0.2718864E+00
         22   -1    0    0    0    0  0.00000000000E+00  0.00000000000E+00  0.68517374296E+00  0.68517374296E+00  0.00000000000E+00 0.  1.
         22   -1    0    0    0    0 -0.00000000000E+00 -0.00000000000E+00 -0.91029253753E+01  0.91029253753E+01  0.00000000000E+00 0. -1.
          4    1    1    2  501    0  0.20577171062E+01  0.13784619770E+01 -0.35807846994E+01  0.43538920720E+01  0.00000000000E+00 0.  1.
         -4    1    1    2    0  501 -0.20577171062E+01 -0.13784619770E+01 -0.48369669330E+01  0.54342070463E+01  0.00000000000E+00 0. -1.
<mgrwt>
<rscale>  0 0.24767634E+01</rscale>
<asrwt>0</asrwt>
<pdfrwt beam="1">0</pdfrwt>
<pdfrwt beam="2">0</pdfrwt>
<totfact> 0.27338013E+12</totfact>
</mgrwt>
</event>
<event>
 4    2  0.2027839E+006  0.2207141E+01  0.7546771E-02  0.2853656E+00
         22   -1    0    0    0    0  0.00000000000E+00  0.00000000000E+00  0.49201474193E+01  0.49201474193E+01  0.00000000000E+00 0. -1.
         22   -1    0    0    0    0 -0.00000000000E+00 -0.00000000000E+00 -0.10582949257E+01  0.10582949257E+01  0.00000000000E+00 0.  1.
          4    1    1    2  501    0 -0.19292405760E+01  0.10721490206E+01  0.26896928799E+01  0.34793563357E+01  0.00000000000E+00 0. -1.
         -4    1    1    2    0  501  0.19292405760E+01 -0.10721490206E+01  0.11721596137E+01  0.24990860094E+01  0.00000000000E+00 0.  1.
<mgrwt>
<rscale>  0 0.22071413E+01</rscale>
<asrwt>0</asrwt>
<pdfrwt beam="1">0</pdfrwt>
<pdfrwt beam="2">0</pdfrwt>
<totfact> 0.34749667E+12</totfact>
</mgrwt>
</event>
<event>
 4    2  0.2027839E+006  0.2114878E+01  0.7546771E-02  0.2907276E+00
         22   -1    0    0    0    0  0.00000000000E+00  0.00000000000E+00  0.27763218939E+00  0.27763218939E+00  0.00000000000E+00 0.  1.
         22   -1    0    0    0    0 -0.00000000000E+00 -0.00000000000E+00 -0.24700339270E+02  0.24700339270E+02  0.00000000000E+00 0. -1.
          4    1    1    2  501    0  0.47672098210E+00  0.20604480182E+01 -0.48462998206E+01  0.52876583552E+01  0.00000000000E+00 0.  1.
         -4    1    1    2    0  501 -0.47672098210E+00 -0.20604480182E+01 -0.19576407260E+02  0.19690313105E+02  0.00000000000E+00 0. -1.
<mgrwt>
<rscale>  0 0.21148780E+01</rscale>
<asrwt>0</asrwt>
<pdfrwt beam="1">0</pdfrwt>
<pdfrwt beam="2">0</pdfrwt>
<totfact> 0.22131870E+12</totfact>
</mgrwt>
</event>
<event>
 4    2  0.2027839E+006  0.2451597E+01  0.7546771E-02  0.2730262E+00
         22   -1    0    0    0    0  0.00000000000E+00  0.00000000000E+00  0.25370692909E+00  0.25370692909E+00  0.00000000000E+00 0.  1.
         22   -1    0    0    0    0 -0.00000000000E+00 -0.00000000000E+00 -0.27407160095E+02  0.27407160095E+02  0.00000000000E+00 0. -1.
          4    1    1    2  501    0  0.24512694570E+01  0.40055434624E-01 -0.84833324853E+01  0.88304731722E+01  0.00000000000E+00 0.  1.
         -4    1    1    2    0  501 -0.24512694570E+01 -0.40055434624E-01 -0.18670120680E+02  0.18830393851E+02  0.00000000000E+00 0. -1.
<mgrwt>
<rscale>  0 0.24515967E+01</rscale>
<asrwt>0</asrwt>
<pdfrwt beam="1">0</pdfrwt>
<pdfrwt beam="2">0</pdfrwt>
<totfact> 0.21466864E+12</totfact>
</mgrwt>
</event>
<event>
 4    2  0.2027839E+006  0.3038032E+01  0.7546771E-02  0.2510297E+00
         22   -1    0    0    0    0  0.00000000000E+00  0.00000000000E+00  0.51880236323E+01  0.51880236323E+01  0.00000000000E+00 0. -1.
         22   -1    0    0    0    0 -0.00000000000E+00 -0.00000000000E+00 -0.18955761629E+01  0.18955761629E+01  0.00000000000E+00 0.  1.
          4    1    1    2  501    0  0.11558220021E+01  0.28095750138E+01  0.76799587009E+00  0.31336007907E+01  0.00000000000E+00 0.  1.
         -4    1    1    2    0  501 -0.11558220021E+01 -0.28095750138E+01  0.25244515993E+01  0.39499990046E+01  0.00000000000E+00 0. -1.
<mgrwt>
<rscale>  0 0.30380316E+01</rscale>
<asrwt>0</asrwt>
<pdfrwt beam="1">0</pdfrwt>
<pdfrwt beam="2">0</pdfrwt>
<totfact> 0.16701151E+12</totfact>
</mgrwt>
</event>
<event>
 4    2  0.2027839E+006  0.2173742E+01  0.7546771E-02  0.2872561E+00
         22   -1    0    0    0    0  0.00000000000E+00  0.00000000000E+00  0.27530935432E+01  0.27530935432E+01  0.00000000000E+00 0. -1.
         22   -1    0    0    0    0 -0.00000000000E+00 -0.00000000000E+00 -0.18411451973E+01  0.18411451973E+01  0.00000000000E+00 0.  1.
          4    1    1    2  501    0  0.17687399558E+01  0.12636117782E+01  0.10541267819E+01  0.24158516158E+01  0.00000000000E+00 0.  1.
         -4    1    1    2    0  501 -0.17687399558E+01 -0.12636117782E+01 -0.14217843596E+00  0.21783871247E+01  0.00000000000E+00 0. -1.
<mgrwt>
<rscale>  0 0.21737423E+01</rscale>
<asrwt>0</asrwt>
<pdfrwt beam="1">0</pdfrwt>
<pdfrwt beam="2">0</pdfrwt>
<totfact> 0.36368603E+12</totfact>
</mgrwt>
</event>
<event>
 4    2  0.2027839E+006  0.2016631E+01  0.7546771E-02  0.2969589E+00
         22   -1    0    0    0    0  0.00000000000E+00  0.00000000000E+00  0.80071453223E+00  0.80071453223E+00  0.00000000000E+00 0. -1.
         22   -1    0    0    0    0 -0.00000000000E+00 -0.00000000000E+00 -0.72237815143E+01  0.72237815143E+01  0.00000000000E+00 0.  1.
          4    1    1    2  501    0 -0.50350234259E+00 -0.19527636767E+01 -0.10252795461E+01  0.22622994350E+01  0.00000000000E+00 0. -1.
         -4    1    1    2    0  501  0.50350234259E+00  0.19527636767E+01 -0.53977874360E+01  0.57621966115E+01  0.00000000000E+00 0.  1.
<mgrwt>
<rscale>  0 0.20166310E+01</rscale>
<asrwt>0</asrwt>
<pdfrwt beam="1">0</pdfrwt>
<pdfrwt beam="2">0</pdfrwt>
<totfact> 0.30236930E+12</totfact>
</mgrwt>
</event>
<event>
 4    2  0.2027839E+006  0.2981091E+01  0.7546771E-02  0.2528189E+00
         22   -1    0    0    0    0  0.00000000000E+00  0.00000000000E+00  0.50853290250E+01  0.50853290250E+01  0.00000000000E+00 0.  1.
         22   -1    0    0    0    0 -0.00000000000E+00 -0.00000000000E+00 -0.10819332472E+02  0.10819332472E+02  0.00000000000E+00 0. -1.
          4    1    1    2  501    0  0.42110281493E+00 -0.29511994710E+01  0.44148248431E+01  0.53270615065E+01  0.00000000000E+00 0.  1.
         -4    1    1    2    0  501 -0.42110281493E+00  0.29511994710E+01 -0.10148828291E+02  0.10577599991E+02  0.00000000000E+00 0. -1.
<mgrwt>
<rscale>  0 0.29810914E+01</rscale>
<asrwt>0</asrwt>
<pdfrwt beam="1">0</pdfrwt>
<pdfrwt beam="2">0</pdfrwt>
<totfact> 0.21813850E+11</totfact>
</mgrwt>
</event>
<event>
 4    2  0.2027839E+006  0.1195742E+02  0.7546771E-02  0.1707846E+00
         22   -1    0    0    0    0  0.00000000000E+00  0.00000000000E+00  0.40046039053E+02  0.40046039053E+02  0.00000000000E+00 0.  1.
         22   -1    0    0    0    0 -0.00000000000E+00 -0.00000000000E+00 -0.40160568256E+01  0.40160568256E+01  0.00000000000E+00 0. -1.
          4    1    1    2  501    0 -0.61574641471E+01  0.10250150367E+02  0.10675925830E+02  0.16029826561E+02  0.00000000000E+00 0.  1.
         -4    1    1    2    0  501  0.61574641471E+01 -0.10250150367E+02  0.25354056397E+02  0.28032269317E+02  0.00000000000E+00 0. -1.
<mgrwt>
<rscale>  0 0.11957422E+02</rscale>
<asrwt>0</asrwt>
<pdfrwt beam="1">0</pdfrwt>
<pdfrwt beam="2">0</pdfrwt>
<totfact> 0.56025118E+10</totfact>
</mgrwt>
</event>
<event>
 4    2  0.2027839E+006  0.2845110E+01  0.7546771E-02  0.2573515E+00
         22   -1    0    0    0    0  0.00000000000E+00  0.00000000000E+00  0.18006743106E+01  0.18006743106E+01  0.00000000000E+00 0. -1.
         22   -1    0    0    0    0 -0.00000000000E+00 -0.00000000000E+00 -0.46158356994E+01  0.46158356994E+01  0.00000000000E+00 0.  1.
          4    1    1    2  501    0 -0.21092606082E+01 -0.19093640795E+01 -0.88923292874E+00  0.29808365776E+01  0.00000000000E+00 0.  1.
         -4    1    1    2    0  501  0.21092606082E+01  0.19093640795E+01 -0.19259284600E+01  0.34356734324E+01  0.00000000000E+00 0. -1.
<mgrwt>
<rscale>  0 0.28451101E+01</rscale>
<asrwt>0</asrwt>
<pdfrwt beam="1">0</pdfrwt>
<pdfrwt beam="2">0</pdfrwt>
<totfact> 0.20350393E+12</totfact>
</mgrwt>
</event>
<event>
 4    2  0.2027839E+006  0.3298984E+01  0.7546771E-02  0.2435382E+00
         22   -1    0    0    0    0  0.00000000000E+00  0.00000000000E+00  0.13245048993E+02  0.13245048993E+02  0.00000000000E+00 0. -1.
         22   -1    0    0    0    0 -0.00000000000E+00 -0.00000000000E+00 -0.21101416789E+01  0.21101416789E+01  0.00000000000E+00 0.  1.
          4    1    1    2  501    0  0.80722313795E+00 -0.31987003703E+01  0.11566799152E+02  0.12028056197E+02  0.00000000000E+00 0. -1.
         -4    1    1    2    0  501 -0.80722313795E+00  0.31987003703E+01 -0.43189183806E+00  0.33271344748E+01  0.00000000000E+00 0.  1.
<mgrwt>
<rscale>  0 0.32989837E+01</rscale>
<asrwt>0</asrwt>
<pdfrwt beam="1">0</pdfrwt>
<pdfrwt beam="2">0</pdfrwt>
<totfact> 0.47749054E+11</totfact>
</mgrwt>
</event>
<event>
 4    2  0.2027839E+006  0.2418403E+01  0.7546771E-02  0.2745634E+00
         22   -1    0    0    0    0  0.00000000000E+00  0.00000000000E+00  0.41801708641E+01  0.41801708641E+01  0.00000000000E+00 0.  1.
         22   -1    0    0    0    0 -0.00000000000E+00 -0.00000000000E+00 -0.28528709419E+01  0.28528709419E+01  0.00000000000E+00 0. -1.
          4    1    1    2  501    0  0.23659632009E+01  0.50088986214E+00  0.31738778358E+01  0.39902597709E+01  0.00000000000E+00 0.  1.
         -4    1    1    2    0  501 -0.23659632009E+01 -0.50088986214E+00 -0.18465779136E+01  0.30427820351E+01  0.00000000000E+00 0. -1.
<mgrwt>
<rscale>  0 0.24184029E+01</rscale>
<asrwt>0</asrwt>
<pdfrwt beam="1">0</pdfrwt>
<pdfrwt beam="2">0</pdfrwt>
<totfact> 0.13408997E+12</totfact>
</mgrwt>
</event>
<event>
 4    2  0.2027839E+006  0.2575346E+01  0.7546771E-02  0.2676216E+00
         22   -1    0    0    0    0  0.00000000000E+00  0.00000000000E+00  0.76021562529E+01  0.76021562529E+01  0.00000000000E+00 0.  1.
         22   -1    0    0    0    0 -0.00000000000E+00 -0.00000000000E+00 -0.11400674327E+01  0.11400674327E+01  0.00000000000E+00 0. -1.
          4    1    1    2  501    0  0.11266254344E+01 -0.23158421016E+01  0.53488868054E+01  0.59365814714E+01  0.00000000000E+00 0.  1.
         -4    1    1    2    0  501 -0.11266254344E+01  0.23158421016E+01  0.11132020148E+01  0.28056422143E+01  0.00000000000E+00 0. -1.
<mgrwt>
<rscale>  0 0.25753465E+01</rscale>
<asrwt>0</asrwt>
<pdfrwt beam="1">0</pdfrwt>
<pdfrwt beam="2">0</pdfrwt>
<totfact> 0.19006751E+12</totfact>
</mgrwt>
</event>
<event>
 4    2  0.2027839E+006  0.3083061E+01  0.7546771E-02  0.2496566E+00
         22   -1    0    0    0    0  0.00000000000E+00  0.00000000000E+00  0.15016107000E+01  0.15016107000E+01  0.00000000000E+00 0. -1.
         22   -1    0    0    0    0 -0.00000000000E+00 -0.00000000000E+00 -0.65793788492E+01  0.65793788492E+01  0.00000000000E+00 0.  1.
          4    1    1    2  501    0 -0.30445535963E+01  0.48575676231E+00 -0.17523255828E+01  0.35462531186E+01  0.00000000000E+00 0.  1.
         -4    1    1    2    0  501  0.30445535963E+01 -0.48575676231E+00 -0.33254425664E+01  0.45347364306E+01  0.00000000000E+00 0. -1.
<mgrwt>
<rscale>  0 0.30830612E+01</rscale>
<asrwt>0</asrwt>
<pdfrwt beam="1">0</pdfrwt>
<pdfrwt beam="2">0</pdfrwt>
<totfact> 0.16470862E+12</totfact>
</mgrwt>
</event>
<event>
 4    2  0.2027839E+006  0.2270019E+01  0.7546771E-02  0.2819512E+00
         22   -1    0    0    0    0  0.00000000000E+00  0.00000000000E+00  0.47864053495E+02  0.47864053495E+02  0.00000000000E+00 0.  1.
         22   -1    0    0    0    0 -0.00000000000E+00 -0.00000000000E+00 -0.94441823765E+00  0.94441823765E+00  0.00000000000E+00 0. -1.
          4    1    1    2  501    0  0.17127128031E+01  0.14898328021E+01  0.46430999428E+02  0.46486457112E+02  0.00000000000E+00 0.  1.
         -4    1    1    2    0  501 -0.17127128031E+01 -0.14898328021E+01  0.48863582895E+00  0.23220146205E+01  0.00000000000E+00 0. -1.
<mgrwt>
<rscale>  0 0.22700191E+01</rscale>
<asrwt>0</asrwt>
<pdfrwt beam="1">0</pdfrwt>
<pdfrwt beam="2">0</pdfrwt>
<totfact> 0.23704042E+11</totfact>
</mgrwt>
</event>
<event>
 4    2  0.2027839E+006  0.2787218E+01  0.7546771E-02  0.2594022E+00
         22   -1    0    0    0    0  0.00000000000E+00  0.00000000000E+00  0.25134583518E+01  0.25134583518E+01  0.00000000000E+00 0. -1.
         22   -1    0    0    0    0 -0.00000000000E+00 -0.00000000000E+00 -0.45724793710E+01  0.45724793710E+01  0.00000000000E+00 0.  1.
          4    1    1    2  501    0  0.24325441375E+01  0.13606302258E+01 -0.30463402861E+01  0.41290161940E+01  0.00000000000E+00 0.  1.
         -4    1    1    2    0  501 -0.24325441375E+01 -0.13606302258E+01  0.98731926687E+00  0.29569215287E+01  0.00000000000E+00 0. -1.
<mgrwt>
<rscale>  0 0.27872183E+01</rscale>
<asrwt>0</asrwt>
<pdfrwt beam="1">0</pdfrwt>
<pdfrwt beam="2">0</pdfrwt>
<totfact> 0.13981137E+12</totfact>
</mgrwt>
</event>
<event>
 4    2  0.2027839E+006  0.2177318E+01  0.7546771E-02  0.2870510E+00
         22   -1    0    0    0    0  0.00000000000E+00  0.00000000000E+00  0.80210149947E+01  0.80210149947E+01  0.00000000000E+00 0.  1.
         22   -1    0    0    0    0 -0.00000000000E+00 -0.00000000000E+00 -0.68632823092E+00  0.68632823092E+00  0.00000000000E+00 0. -1.
          4    1    1    2  501    0  0.99496439921E+00 -0.19366882137E+01  0.52895888110E+01  0.57201805201E+01  0.00000000000E+00 0.  1.
         -4    1    1    2    0  501 -0.99496439921E+00  0.19366882137E+01  0.20450979528E+01  0.29871627055E+01  0.00000000000E+00 0. -1.
<mgrwt>
<rscale>  0 0.21773184E+01</rscale>
<asrwt>0</asrwt>
<pdfrwt beam="1">0</pdfrwt>
<pdfrwt beam="2">0</pdfrwt>
<totfact> 0.31775218E+12</totfact>
</mgrwt>
</event>
<event>
 4    2  0.2027839E+006  0.2937098E+01  0.7546771E-02  0.2542439E+00
         22   -1    0    0    0    0  0.00000000000E+00  0.00000000000E+00  0.89303671019E-01  0.89303671019E-01  0.00000000000E+00 0. -1.
         22   -1    0    0    0    0 -0.00000000000E+00 -0.00000000000E+00 -0.96744188839E+02  0.96744188839E+02  0.00000000000E+00 0.  1.
          4    1    1    2  501    0  0.37854052760E+00  0.29126022847E+01 -0.46444559412E+02  0.46537336022E+02  0.00000000000E+00 0.  1.
         -4    1    1    2    0  501 -0.37854052760E+00 -0.29126022847E+01 -0.50210325755E+02  0.50296156488E+02  0.00000000000E+00 0. -1.
<mgrwt>
<rscale>  0 0.29370981E+01</rscale>
<asrwt>0</asrwt>
<pdfrwt beam="1">0</pdfrwt>
<pdfrwt beam="2">0</pdfrwt>
<totfact> 0.12869736E+12</totfact>
</mgrwt>
</event>
<event>
 4    2  0.2027839E+006  0.2054698E+01  0.7546771E-02  0.2944757E+00
         22   -1    0    0    0    0  0.00000000000E+00  0.00000000000E+00  0.18875379975E+03  0.18875379975E+03  0.00000000000E+00 0. -1.
         22   -1    0    0    0    0 -0.00000000000E+00 -0.00000000000E+00 -0.27735915018E-01  0.27735915018E-01  0.00000000000E+00 0.  1.
          4    1    1    2  501    0  0.18309843060E+01 -0.93235116042E+00  0.13589355449E+03  0.13590908701E+03  0.00000000000E+00 0.  1.
         -4    1    1    2    0  501 -0.18309843060E+01  0.93235116042E+00  0.52832509352E+02  0.52872448654E+02  0.00000000000E+00 0. -1.
<mgrwt>
<rscale>  0 0.20546976E+01</rscale>
<asrwt>0</asrwt>
<pdfrwt beam="1">0</pdfrwt>
<pdfrwt beam="2">0</pdfrwt>
<totfact> 0.17474403E+12</totfact>
</mgrwt>
</event>
<event>
 4    2  0.2027839E+006  0.2153636E+01  0.7546771E-02  0.2884212E+00
         22   -1    0    0    0    0  0.00000000000E+00  0.00000000000E+00  0.51046328544E+00  0.51046328544E+00  0.00000000000E+00 0. -1.
         22   -1    0    0    0    0 -0.00000000000E+00 -0.00000000000E+00 -0.11336274889E+02  0.11336274889E+02  0.00000000000E+00 0.  1.
          4    1    1    2  501    0  0.21286244328E+01  0.32727316978E+00 -0.27739250759E+01  0.35118100789E+01  0.00000000000E+00 0.  1.
         -4    1    1    2    0  501 -0.21286244328E+01 -0.32727316978E+00 -0.80518865272E+01  0.83349280951E+01  0.00000000000E+00 0. -1.
<mgrwt>
<rscale>  0 0.21536364E+01</rscale>
<asrwt>0</asrwt>
<pdfrwt beam="1">0</pdfrwt>
<pdfrwt beam="2">0</pdfrwt>
<totfact> 0.29242597E+12</totfact>
</mgrwt>
</event>
<event>
 4    2  0.2027839E+006  0.3645534E+01  0.7546771E-02  0.2350646E+00
         22   -1    0    0    0    0  0.00000000000E+00  0.00000000000E+00  0.77952903487E+01  0.77952903487E+01  0.00000000000E+00 0.  1.
         22   -1    0    0    0    0 -0.00000000000E+00 -0.00000000000E+00 -0.23321410426E+01  0.23321410426E+01  0.00000000000E+00 0. -1.
          4    1    1    2  501    0  0.33311669119E+01 -0.14809604830E+01  0.53577353117E+01  0.64803738023E+01  0.00000000000E+00 0.  1.
         -4    1    1    2    0  501 -0.33311669119E+01  0.14809604830E+01  0.10541399450E+00  0.36470575890E+01  0.00000000000E+00 0. -1.
<mgrwt>
<rscale>  0 0.36455338E+01</rscale>
<asrwt>0</asrwt>
<pdfrwt beam="1">0</pdfrwt>
<pdfrwt beam="2">0</pdfrwt>
<totfact> 0.80827261E+11</totfact>
</mgrwt>
</event>
<event>
 4    2  0.2027839E+006  0.2550854E+01  0.7546771E-02  0.2686526E+00
         22   -1    0    0    0    0  0.00000000000E+00  0.00000000000E+00  0.10082243474E+01  0.10082243474E+01  0.00000000000E+00 0. -1.
         22   -1    0    0    0    0 -0.00000000000E+00 -0.00000000000E+00 -0.31654954127E+02  0.31654954127E+02  0.00000000000E+00 0.  1.
          4    1    1    2  501    0  0.25303134188E+01  0.32306349300E+00 -0.75140357538E+00  0.26592223208E+01  0.00000000000E+00 0. -1.
         -4    1    1    2    0  501 -0.25303134188E+01 -0.32306349300E+00 -0.29895326204E+02  0.30003956154E+02  0.00000000000E+00 0.  1.
<mgrwt>
<rscale>  0 0.25508540E+01</rscale>
<asrwt>0</asrwt>
<pdfrwt beam="1">0</pdfrwt>
<pdfrwt beam="2">0</pdfrwt>
<totfact> 0.37593740E+11</totfact>
</mgrwt>
</event>
<event>
 4    2  0.2027839E+006  0.2704833E+01  0.7546771E-02  0.2624579E+00
         22   -1    0    0    0    0  0.00000000000E+00  0.00000000000E+00  0.41117080567E+02  0.41117080567E+02  0.00000000000E+00 0. -1.
         22   -1    0    0    0    0 -0.00000000000E+00 -0.00000000000E+00 -0.39053446001E+00  0.39053446001E+00  0.00000000000E+00 0.  1.
          4    1    1    2  501    0  0.26506853416E+01  0.53850846668E+00  0.35675919845E+02  0.35778308805E+02  0.00000000000E+00 0. -1.
         -4    1    1    2    0  501 -0.26506853416E+01 -0.53850846668E+00  0.50506262618E+01  0.57293062220E+01  0.00000000000E+00 0.  1.
<mgrwt>
<rscale>  0 0.27048335E+01</rscale>
<asrwt>0</asrwt>
<pdfrwt beam="1">0</pdfrwt>
<pdfrwt beam="2">0</pdfrwt>
<totfact> 0.78616905E+11</totfact>
</mgrwt>
</event>
<event>
 4    2  0.2027839E+006  0.2005505E+01  0.7546771E-02  0.2977022E+00
         22   -1    0    0    0    0  0.00000000000E+00  0.00000000000E+00  0.61309271902E+00  0.61309271902E+00  0.00000000000E+00 0. -1.
         22   -1    0    0    0    0 -0.00000000000E+00 -0.00000000000E+00 -0.13707111369E+02  0.13707111369E+02  0.00000000000E+00 0.  1.
          4    1    1    2  501    0  0.14727904456E+01 -0.13612264568E+01 -0.13768545932E+01  0.24326482965E+01  0.00000000000E+00 0. -1.
         -4    1    1    2    0  501 -0.14727904456E+01  0.13612264568E+01 -0.11717164057E+02  0.11887555791E+02  0.00000000000E+00 0.  1.
<mgrwt>
<rscale>  0 0.20055047E+01</rscale>
<asrwt>0</asrwt>
<pdfrwt beam="1">0</pdfrwt>
<pdfrwt beam="2">0</pdfrwt>
<totfact> 0.18848545E+12</totfact>
</mgrwt>
</event>
<event>
 4    2  0.2027839E+006  0.3209157E+01  0.7546771E-02  0.2459949E+00
         22   -1    0    0    0    0  0.00000000000E+00  0.00000000000E+00  0.55208120599E+00  0.55208120599E+00  0.00000000000E+00 0. -1.
         22   -1    0    0    0    0 -0.00000000000E+00 -0.00000000000E+00 -0.26018671761E+02  0.26018671761E+02  0.00000000000E+00 0.  1.
          4    1    1    2  501    0  0.14945534986E+01 -0.28398942506E+01 -0.19801336919E+02  0.20059701725E+02  0.00000000000E+00 0.  1.
         -4    1    1    2    0  501 -0.14945534986E+01  0.28398942506E+01 -0.56652536352E+01  0.65110512413E+01  0.00000000000E+00 0. -1.
<mgrwt>
<rscale>  0 0.32091571E+01</rscale>
<asrwt>0</asrwt>
<pdfrwt beam="1">0</pdfrwt>
<pdfrwt beam="2">0</pdfrwt>
<totfact> 0.95630586E+11</totfact>
</mgrwt>
</event>
<event>
 4    2  0.2027839E+006  0.3626942E+01  0.7546771E-02  0.2354833E+00
         22   -1    0    0    0    0  0.00000000000E+00  0.00000000000E+00  0.96681738551E+00  0.96681738551E+00  0.00000000000E+00 0.  1.
         22   -1    0    0    0    0 -0.00000000000E+00 -0.00000000000E+00 -0.16928955010E+02  0.16928955010E+02  0.00000000000E+00 0. -1.
          4    1    1    2  501    0 -0.13268254533E+01  0.33755356219E+01 -0.40168755350E+01  0.54120232430E+01  0.00000000000E+00 0. -1.
         -4    1    1    2    0  501  0.13268254533E+01 -0.33755356219E+01 -0.11945262090E+02  0.12483749153E+02  0.00000000000E+00 0.  1.
<mgrwt>
<rscale>  0 0.36269418E+01</rscale>
<asrwt>0</asrwt>
<pdfrwt beam="1">0</pdfrwt>
<pdfrwt beam="2">0</pdfrwt>
<totfact> 0.86601215E+11</totfact>
</mgrwt>
</event>
<event>
 4    2  0.2027839E+006  0.2333594E+01  0.7546771E-02  0.2786773E+00
         22   -1    0    0    0    0  0.00000000000E+00  0.00000000000E+00  0.29056090218E+01  0.29056090218E+01  0.00000000000E+00 0. -1.
         22   -1    0    0    0    0 -0.00000000000E+00 -0.00000000000E+00 -0.34859356542E+01  0.34859356542E+01  0.00000000000E+00 0.  1.
          4    1    1    2  501    0  0.22463339354E+01  0.63217549524E+00  0.18828604060E+01  0.29984704958E+01  0.00000000000E+00 0. -1.
         -4    1    1    2    0  501 -0.22463339354E+01 -0.63217549524E+00 -0.24631870384E+01  0.33930741802E+01  0.00000000000E+00 0.  1.
<mgrwt>
<rscale>  0 0.23335942E+01</rscale>
<asrwt>0</asrwt>
<pdfrwt beam="1">0</pdfrwt>
<pdfrwt beam="2">0</pdfrwt>
<totfact> 0.16248393E+12</totfact>
</mgrwt>
</event>
<event>
 4    2  0.2027839E+006  0.2092062E+01  0.7546771E-02  0.2921239E+00
         22   -1    0    0    0    0  0.00000000000E+00  0.00000000000E+00  0.31939811882E+02  0.31939811882E+02  0.00000000000E+00 0. -1.
         22   -1    0    0    0    0 -0.00000000000E+00 -0.00000000000E+00 -0.59201877999E+00  0.59201877999E+00  0.00000000000E+00 0.  1.
          4    1    1    2  501    0 -0.19767118618E+01 -0.68507991938E+00  0.29933614383E+02  0.30006632506E+02  0.00000000000E+00 0. -1.
         -4    1    1    2    0  501  0.19767118618E+01  0.68507991938E+00  0.14141787188E+01  0.25251981564E+01  0.00000000000E+00 0.  1.
<mgrwt>
<rscale>  0 0.20920622E+01</rscale>
<asrwt>0</asrwt>
<pdfrwt beam="1">0</pdfrwt>
<pdfrwt beam="2">0</pdfrwt>
<totfact> 0.68077398E+11</totfact>
</mgrwt>
</event>
<event>
 4    2  0.2027839E+006  0.3170846E+01  0.7546771E-02  0.2470801E+00
         22   -1    0    0    0    0  0.00000000000E+00  0.00000000000E+00  0.10101827538E+02  0.10101827538E+02  0.00000000000E+00 0. -1.
         22   -1    0    0    0    0 -0.00000000000E+00 -0.00000000000E+00 -0.14548331830E+01  0.14548331830E+01  0.00000000000E+00 0.  1.
          4    1    1    2  501    0  0.19755114773E+01  0.24802458501E+01  0.75710642608E+01  0.82082445818E+01  0.00000000000E+00 0. -1.
         -4    1    1    2    0  501 -0.19755114773E+01 -0.24802458501E+01  0.10759300944E+01  0.33484161393E+01  0.00000000000E+00 0.  1.
<mgrwt>
<rscale>  0 0.31708461E+01</rscale>
<asrwt>0</asrwt>
<pdfrwt beam="1">0</pdfrwt>
<pdfrwt beam="2">0</pdfrwt>
<totfact> 0.10200884E+12</totfact>
</mgrwt>
</event>
<event>
 4    2  0.2027839E+006  0.2877811E+01  0.7546771E-02  0.2562262E+00
         22   -1    0    0    0    0  0.00000000000E+00  0.00000000000E+00  0.11073999832E+02  0.11073999832E+02  0.00000000000E+00 0.  1.
         22   -1    0    0    0    0 -0.00000000000E+00 -0.00000000000E+00 -0.76333399436E+00  0.76333399436E+00  0.00000000000E+00 0. -1.
          4    1    1    2  501    0  0.28654272071E+01 -0.26668709737E+00  0.59980386728E+01  0.66526884045E+01  0.00000000000E+00 0. -1.
         -4    1    1    2    0  501 -0.28654272071E+01  0.26668709737E+00  0.43126271644E+01  0.51846454215E+01  0.00000000000E+00 0.  1.
<mgrwt>
<rscale>  0 0.28778108E+01</rscale>
<asrwt>0</asrwt>
<pdfrwt beam="1">0</pdfrwt>
<pdfrwt beam="2">0</pdfrwt>
<totfact> 0.19072224E+12</totfact>
</mgrwt>
</event>
<event>
 4    2  0.2027839E+006  0.3491233E+01  0.7546771E-02  0.2386560E+00
         22   -1    0    0    0    0  0.00000000000E+00  0.00000000000E+00  0.28855066144E+01  0.28855066144E+01  0.00000000000E+00 0.  1.
         22   -1    0    0    0    0 -0.00000000000E+00 -0.00000000000E+00 -0.12976217202E+02  0.12976217202E+02  0.00000000000E+00 0. -1.
          4    1    1    2  501    0 -0.17374162027E+01 -0.30282155690E+01  0.14679672735E+01  0.37872988409E+01  0.00000000000E+00 0.  1.
         -4    1    1    2    0  501  0.17374162027E+01  0.30282155690E+01 -0.11558677862E+02  0.12074424976E+02  0.00000000000E+00 0. -1.
<mgrwt>
<rscale>  0 0.34912325E+01</rscale>
<asrwt>0</asrwt>
<pdfrwt beam="1">0</pdfrwt>
<pdfrwt beam="2">0</pdfrwt>
<totfact> 0.34026411E+11</totfact>
</mgrwt>
</event>
<event>
 4    2  0.2027839E+006  0.3247917E+01  0.7546771E-02  0.2449201E+00
         22   -1    0    0    0    0  0.00000000000E+00  0.00000000000E+00  0.38127340018E+00  0.38127340018E+00  0.00000000000E+00 0.  1.
         22   -1    0    0    0    0 -0.00000000000E+00 -0.00000000000E+00 -0.27675441758E+02  0.27675441758E+02  0.00000000000E+00 0. -1.
          4    1    1    2  501    0 -0.65724580981E+00 -0.31807223515E+01 -0.13412801568E+02  0.13800442480E+02  0.00000000000E+00 0. -1.
         -4    1    1    2    0  501  0.65724580981E+00  0.31807223515E+01 -0.13881366790E+02  0.14256272679E+02  0.00000000000E+00 0.  1.
<mgrwt>
<rscale>  0 0.32479173E+01</rscale>
<asrwt>0</asrwt>
<pdfrwt beam="1">0</pdfrwt>
<pdfrwt beam="2">0</pdfrwt>
<totfact> 0.13426661E+12</totfact>
</mgrwt>
</event>
<event>
 4    2  0.2027839E+006  0.2326567E+01  0.7546771E-02  0.2790308E+00
         22   -1    0    0    0    0  0.00000000000E+00  0.00000000000E+00  0.32540158178E+00  0.32540158178E+00  0.00000000000E+00 0.  1.
         22   -1    0    0    0    0 -0.00000000000E+00 -0.00000000000E+00 -0.21795695583E+02  0.21795695583E+02  0.00000000000E+00 0. -1.
          4    1    1    2  501    0  0.17683543371E+01  0.15118990790E+01 -0.53529021610E+01  0.58366495039E+01  0.00000000000E+00 0.  1.
         -4    1    1    2    0  501 -0.17683543371E+01 -0.15118990790E+01 -0.16117391840E+02  0.16284447660E+02  0.00000000000E+00 0. -1.
<mgrwt>
<rscale>  0 0.23265674E+01</rscale>
<asrwt>0</asrwt>
<pdfrwt beam="1">0</pdfrwt>
<pdfrwt beam="2">0</pdfrwt>
<totfact> 0.21676538E+12</totfact>
</mgrwt>
</event>
<event>
 4    2  0.2027839E+006  0.3975103E+01  0.7546771E-02  0.2282079E+00
         22   -1    0    0    0    0  0.00000000000E+00  0.00000000000E+00  0.73275203554E+01  0.73275203554E+01  0.00000000000E+00 0.  1.
         22   -1    0    0    0    0 -0.00000000000E+00 -0.00000000000E+00 -0.22804393237E+01  0.22804393237E+01  0.00000000000E+00 0. -1.
          4    1    1    2  501    0 -0.11298497460E+01 -0.38111525829E+01  0.36437027045E+01  0.53924033471E+01  0.00000000000E+00 0.  1.
         -4    1    1    2    0  501  0.11298497460E+01  0.38111525829E+01  0.14033783272E+01  0.42155563320E+01  0.00000000000E+00 0. -1.
<mgrwt>
<rscale>  0 0.39751031E+01</rscale>
<asrwt>0</asrwt>
<pdfrwt beam="1">0</pdfrwt>
<pdfrwt beam="2">0</pdfrwt>
<totfact> 0.89349046E+11</totfact>
</mgrwt>
</event>
<event>
 4    2  0.2027839E+006  0.2494355E+01  0.7546771E-02  0.2711024E+00
         22   -1    0    0    0    0  0.00000000000E+00  0.00000000000E+00  0.19541872266E+02  0.19541872266E+02  0.00000000000E+00 0. -1.
         22   -1    0    0    0    0 -0.00000000000E+00 -0.00000000000E+00 -0.25710590045E+01  0.25710590045E+01  0.00000000000E+00 0.  1.
          4    1    1    2  501    0  0.23643084506E+01  0.79489182164E+00  0.18834674500E+02  0.18999125532E+02  0.00000000000E+00 0. -1.
         -4    1    1    2    0  501 -0.23643084506E+01 -0.79489182164E+00 -0.18638612389E+01  0.31138057382E+01  0.00000000000E+00 0.  1.
<mgrwt>
<rscale>  0 0.24943551E+01</rscale>
<asrwt>0</asrwt>
<pdfrwt beam="1">0</pdfrwt>
<pdfrwt beam="2">0</pdfrwt>
<totfact> 0.23484267E+11</totfact>
</mgrwt>
</event>
<event>
 4    2  0.2027839E+006  0.2418127E+01  0.7546771E-02  0.2745764E+00
         22   -1    0    0    0    0  0.00000000000E+00  0.00000000000E+00  0.52312511670E+00  0.52312511670E+00  0.00000000000E+00 0.  1.
         22   -1    0    0    0    0 -0.00000000000E+00 -0.00000000000E+00 -0.11187321969E+02  0.11187321969E+02  0.00000000000E+00 0. -1.
          4    1    1    2  501    0  0.23649249437E+01  0.50444635262E+00 -0.51603902309E+01  0.56988563280E+01  0.00000000000E+00 0. -1.
         -4    1    1    2    0  501 -0.23649249437E+01 -0.50444635262E+00 -0.55038066212E+01  0.60115907575E+01  0.00000000000E+00 0.  1.
<mgrwt>
<rscale>  0 0.24181266E+01</rscale>
<asrwt>0</asrwt>
<pdfrwt beam="1">0</pdfrwt>
<pdfrwt beam="2">0</pdfrwt>
<totfact> 0.28906757E+12</totfact>
</mgrwt>
</event>
<event>
 4    2  0.2027839E+006  0.2399811E+01  0.7546771E-02  0.2754418E+00
         22   -1    0    0    0    0  0.00000000000E+00  0.00000000000E+00  0.15235291382E+02  0.15235291382E+02  0.00000000000E+00 0.  1.
         22   -1    0    0    0    0 -0.00000000000E+00 -0.00000000000E+00 -0.21426799120E+01  0.21426799120E+01  0.00000000000E+00 0. -1.
          4    1    1    2  501    0  0.23998066818E+01  0.46634134678E-02  0.14431677260E+02  0.14629846288E+02  0.00000000000E+00 0.  1.
         -4    1    1    2    0  501 -0.23998066818E+01 -0.46634134678E-02 -0.13390657904E+01  0.27481250060E+01  0.00000000000E+00 0. -1.
<mgrwt>
<rscale>  0 0.23998112E+01</rscale>
<asrwt>0</asrwt>
<pdfrwt beam="1">0</pdfrwt>
<pdfrwt beam="2">0</pdfrwt>
<totfact> 0.39500311E+11</totfact>
</mgrwt>
</event>
<event>
 4    2  0.2027839E+006  0.2292092E+01  0.7546771E-02  0.2807950E+00
         22   -1    0    0    0    0  0.00000000000E+00  0.00000000000E+00  0.47022869712E+02  0.47022869712E+02  0.00000000000E+00 0. -1.
         22   -1    0    0    0    0 -0.00000000000E+00 -0.00000000000E+00 -0.16062378073E+00  0.16062378073E+00  0.00000000000E+00 0.  1.
          4    1    1    2  501    0  0.18953936871E+01  0.12888635849E+01  0.36447761936E+02  0.36519762277E+02  0.00000000000E+00 0. -1.
         -4    1    1    2    0  501 -0.18953936871E+01 -0.12888635849E+01  0.10414483995E+02  0.10663731217E+02  0.00000000000E+00 0.  1.
<mgrwt>
<rscale>  0 0.22920922E+01</rscale>
<asrwt>0</asrwt>
<pdfrwt beam="1">0</pdfrwt>
<pdfrwt beam="2">0</pdfrwt>
<totfact> 0.17824470E+12</totfact>
</mgrwt>
</event>
<event>
 4    2  0.2027839E+006  0.2174416E+01  0.7546771E-02  0.2872174E+00
         22   -1    0    0    0    0  0.00000000000E+00  0.00000000000E+00  0.47796999390E+01  0.47796999390E+01  0.00000000000E+00 0. -1.
         22   -1    0    0    0    0 -0.00000000000E+00 -0.00000000000E+00 -0.10231184116E+01  0.10231184116E+01  0.00000000000E+00 0.  1.
          4    1    1    2  501    0 -0.21332474265E+01 -0.42111788210E+00  0.24065610499E+01  0.32433965130E+01  0.00000000000E+00 0.  1.
         -4    1    1    2    0  501  0.21332474265E+01  0.42111788210E+00  0.13500204776E+01  0.25594218377E+01  0.00000000000E+00 0. -1.
<mgrwt>
<rscale>  0 0.21744160E+01</rscale>
<asrwt>0</asrwt>
<pdfrwt beam="1">0</pdfrwt>
<pdfrwt beam="2">0</pdfrwt>
<totfact> 0.37376908E+12</totfact>
</mgrwt>
</event>
<event>
 4    2  0.2027839E+006  0.2346497E+01  0.7546771E-02  0.2780333E+00
         22   -1    0    0    0    0  0.00000000000E+00  0.00000000000E+00  0.48847313438E+01  0.48847313438E+01  0.00000000000E+00 0.  1.
         22   -1    0    0    0    0 -0.00000000000E+00 -0.00000000000E+00 -0.44343376906E+01  0.44343376906E+01  0.00000000000E+00 0. -1.
          4    1    1    2  501    0  0.90865230462E+00 -0.21634232306E+01  0.42491652134E+01  0.48540142250E+01  0.00000000000E+00 0.  1.
         -4    1    1    2    0  501 -0.90865230462E+00  0.21634232306E+01 -0.37987715602E+01  0.44650548095E+01  0.00000000000E+00 0. -1.
<mgrwt>
<rscale>  0 0.23464972E+01</rscale>
<asrwt>0</asrwt>
<pdfrwt beam="1">0</pdfrwt>
<pdfrwt beam="2">0</pdfrwt>
<totfact> 0.66496124E+11</totfact>
</mgrwt>
</event>
<event>
 4    2  0.2027839E+006  0.2204791E+01  0.7546771E-02  0.2854969E+00
         22   -1    0    0    0    0  0.00000000000E+00  0.00000000000E+00  0.12508698598E+01  0.12508698598E+01  0.00000000000E+00 0.  1.
         22   -1    0    0    0    0 -0.00000000000E+00 -0.00000000000E+00 -0.40158516471E+01  0.40158516471E+01  0.00000000000E+00 0. -1.
          4    1    1    2  501    0  0.88398332670E+00  0.20198211892E+01 -0.18556919953E+01  0.28817871086E+01  0.00000000000E+00 0. -1.
         -4    1    1    2    0  501 -0.88398332670E+00 -0.20198211892E+01 -0.90928979198E+00  0.23849343983E+01  0.00000000000E+00 0.  1.
<mgrwt>
<rscale>  0 0.22047912E+01</rscale>
<asrwt>0</asrwt>
<pdfrwt beam="1">0</pdfrwt>
<pdfrwt beam="2">0</pdfrwt>
<totfact> 0.36468312E+12</totfact>
</mgrwt>
</event>
<event>
 4    2  0.2027839E+006  0.2123642E+01  0.7546771E-02  0.2901990E+00
         22   -1    0    0    0    0  0.00000000000E+00  0.00000000000E+00  0.24777134000E+00  0.24777134000E+00  0.00000000000E+00 0.  1.
         22   -1    0    0    0    0 -0.00000000000E+00 -0.00000000000E+00 -0.18261314795E+02  0.18261314795E+02  0.00000000000E+00 0. -1.
          4    1    1    2  501    0  0.21129863810E+01  0.21247323347E+00 -0.84779440590E+01  0.87398736713E+01  0.00000000000E+00 0.  1.
         -4    1    1    2    0  501 -0.21129863810E+01 -0.21247323347E+00 -0.95355993957E+01  0.97692124635E+01  0.00000000000E+00 0. -1.
<mgrwt>
<rscale>  0 0.21236422E+01</rscale>
<asrwt>0</asrwt>
<pdfrwt beam="1">0</pdfrwt>
<pdfrwt beam="2">0</pdfrwt>
<totfact> 0.36677980E+12</totfact>
</mgrwt>
</event>
<event>
 4    2  0.2027839E+006  0.2547622E+01  0.7546771E-02  0.2687900E+00
         22   -1    0    0    0    0  0.00000000000E+00  0.00000000000E+00  0.23632298298E+00  0.23632298298E+00  0.00000000000E+00 0.  1.
         22   -1    0    0    0    0 -0.00000000000E+00 -0.00000000000E+00 -0.29714461557E+02  0.29714461557E+02  0.00000000000E+00 0. -1.
          4    1    1    2  501    0 -0.24166493603E+01  0.80633935815E+00 -0.10617819901E+02  0.10919179308E+02  0.00000000000E+00 0.  1.
         -4    1    1    2    0  501  0.24166493603E+01 -0.80633935815E+00 -0.18860318673E+02  0.19031605233E+02  0.00000000000E+00 0. -1.
<mgrwt>
<rscale>  0 0.25476219E+01</rscale>
<asrwt>0</asrwt>
<pdfrwt beam="1">0</pdfrwt>
<pdfrwt beam="2">0</pdfrwt>
<totfact> 0.20971971E+12</totfact>
</mgrwt>
</event>
<event>
 4    2  0.2027839E+006  0.2592570E+01  0.7546771E-02  0.2669074E+00
         22   -1    0    0    0    0  0.00000000000E+00  0.00000000000E+00  0.47790680516E+01  0.47790680516E+01  0.00000000000E+00 0. -1.
         22   -1    0    0    0    0 -0.00000000000E+00 -0.00000000000E+00 -0.75087456190E+01  0.75087456190E+01  0.00000000000E+00 0.  1.
          4    1    1    2  501    0  0.22448326743E+01  0.12969755823E+01  0.41738670272E+01  0.49135104922E+01  0.00000000000E+00 0. -1.
         -4    1    1    2    0  501 -0.22448326743E+01 -0.12969755823E+01 -0.69035445946E+01  0.73743031784E+01  0.00000000000E+00 0.  1.
<mgrwt>
<rscale>  0 0.25925700E+01</rscale>
<asrwt>0</asrwt>
<pdfrwt beam="1">0</pdfrwt>
<pdfrwt beam="2">0</pdfrwt>
<totfact> 0.36478625E+11</totfact>
</mgrwt>
</event>
<event>
 4    2  0.2027839E+006  0.2904002E+01  0.7546771E-02  0.2553415E+00
         22   -1    0    0    0    0  0.00000000000E+00  0.00000000000E+00  0.16195707553E+01  0.16195707553E+01  0.00000000000E+00 0.  1.
         22   -1    0    0    0    0 -0.00000000000E+00 -0.00000000000E+00 -0.86063577062E+01  0.86063577062E+01  0.00000000000E+00 0. -1.
          4    1    1    2  501    0  0.27056581006E+01  0.10548187982E+01 -0.28005392729E+00  0.29174747054E+01  0.00000000000E+00 0.  1.
         -4    1    1    2    0  501 -0.27056581006E+01 -0.10548187982E+01 -0.67067330237E+01  0.73084537561E+01  0.00000000000E+00 0. -1.
<mgrwt>
<rscale>  0 0.29040021E+01</rscale>
<asrwt>0</asrwt>
<pdfrwt beam="1">0</pdfrwt>
<pdfrwt beam="2">0</pdfrwt>
<totfact> 0.10940818E+12</totfact>
</mgrwt>
</event>
<event>
 4    2  0.2027839E+006  0.5066445E+01  0.7546771E-02  0.2115155E+00
         22   -1    0    0    0    0  0.00000000000E+00  0.00000000000E+00  0.23493771372E+01  0.23493771372E+01  0.00000000000E+00 0. -1.
         22   -1    0    0    0    0 -0.00000000000E+00 -0.00000000000E+00 -0.10929630647E+02  0.10929630647E+02  0.00000000000E+00 0.  1.
          4    1    1    2  501    0 -0.27098868768E+01 -0.42808146004E+01 -0.44141786444E+01  0.67196602319E+01  0.00000000000E+00 0. -1.
         -4    1    1    2    0  501  0.27098868768E+01  0.42808146004E+01 -0.41660748658E+01  0.65593475526E+01  0.00000000000E+00 0.  1.
<mgrwt>
<rscale>  0 0.50664446E+01</rscale>
<asrwt>0</asrwt>
<pdfrwt beam="1">0</pdfrwt>
<pdfrwt beam="2">0</pdfrwt>
<totfact> 0.53286744E+11</totfact>
</mgrwt>
</event>
<event>
 4    2  0.2027839E+006  0.2188364E+01  0.7546771E-02  0.2864216E+00
         22   -1    0    0    0    0  0.00000000000E+00  0.00000000000E+00  0.53881656826E+02  0.53881656826E+02  0.00000000000E+00 0.  1.
         22   -1    0    0    0    0 -0.00000000000E+00 -0.00000000000E+00 -0.89576597008E-01  0.89576597008E-01  0.00000000000E+00 0. -1.
          4    1    1    2  501    0 -0.21090735543E+01  0.58373496694E+00  0.29277784677E+02  0.29359455263E+02  0.00000000000E+00 0.  1.
         -4    1    1    2    0  501  0.21090735543E+01 -0.58373496694E+00  0.24514295552E+02  0.24611778159E+02  0.00000000000E+00 0. -1.
<mgrwt>
<rscale>  0 0.21883642E+01</rscale>
<asrwt>0</asrwt>
<pdfrwt beam="1">0</pdfrwt>
<pdfrwt beam="2">0</pdfrwt>
<totfact> 0.28462413E+12</totfact>
</mgrwt>
</event>
<event>
 4    2  0.2027839E+006  0.2307305E+01  0.7546771E-02  0.2800103E+00
         22   -1    0    0    0    0  0.00000000000E+00  0.00000000000E+00  0.78736745560E+01  0.78736745560E+01  0.00000000000E+00 0.  1.
         22   -1    0    0    0    0 -0.00000000000E+00 -0.00000000000E+00 -0.69629455947E+00  0.69629455947E+00  0.00000000000E+00 0. -1.
          4    1    1    2  501    0  0.14575229510E+01  0.17886545206E+01  0.43178205835E+01  0.48956340486E+01  0.00000000000E+00 0.  1.
         -4    1    1    2    0  501 -0.14575229510E+01 -0.17886545206E+01  0.28595594130E+01  0.36743350668E+01  0.00000000000E+00 0. -1.
<mgrwt>
<rscale>  0 0.23073054E+01</rscale>
<asrwt>0</asrwt>
<pdfrwt beam="1">0</pdfrwt>
<pdfrwt beam="2">0</pdfrwt>
<totfact> 0.31964247E+12</totfact>
</mgrwt>
</event>
<event>
 4    2  0.2027839E+006  0.2797741E+01  0.7546771E-02  0.2590237E+00
         22   -1    0    0    0    0  0.00000000000E+00  0.00000000000E+00  0.88243787183E+01  0.88243787183E+01  0.00000000000E+00 0.  1.
         22   -1    0    0    0    0 -0.00000000000E+00 -0.00000000000E+00 -0.21256750876E+01  0.21256750876E+01  0.00000000000E+00 0. -1.
          4    1    1    2  501    0  0.23598918417E+01  0.15027526235E+01  0.75287515870E+01  0.80317778487E+01  0.00000000000E+00 0.  1.
         -4    1    1    2    0  501 -0.23598918417E+01 -0.15027526235E+01 -0.83004795632E+00  0.29182759571E+01  0.00000000000E+00 0. -1.
<mgrwt>
<rscale>  0 0.27977410E+01</rscale>
<asrwt>0</asrwt>
<pdfrwt beam="1">0</pdfrwt>
<pdfrwt beam="2">0</pdfrwt>
<totfact> 0.77531773E+11</totfact>
</mgrwt>
</event>
<event>
 4    2  0.2027839E+006  0.3329190E+01  0.7546771E-02  0.2427384E+00
         22   -1    0    0    0    0  0.00000000000E+00  0.00000000000E+00  0.41568093373E+00  0.41568093373E+00  0.00000000000E+00 0.  1.
         22   -1    0    0    0    0 -0.00000000000E+00 -0.00000000000E+00 -0.37265675702E+02  0.37265675702E+02  0.00000000000E+00 0. -1.
          4    1    1    2  501    0  0.64623515058E+00  0.32658666700E+01 -0.83756071608E+01  0.90130072832E+01  0.00000000000E+00 0.  1.
         -4    1    1    2    0  501 -0.64623515058E+00 -0.32658666700E+01 -0.28474387608E+02  0.28668349353E+02  0.00000000000E+00 0. -1.
<mgrwt>
<rscale>  0 0.33291898E+01</rscale>
<asrwt>0</asrwt>
<pdfrwt beam="1">0</pdfrwt>
<pdfrwt beam="2">0</pdfrwt>
<totfact> 0.83247050E+11</totfact>
</mgrwt>
</event>
<event>
 4    2  0.2027839E+006  0.4397943E+01  0.7546771E-02  0.2207122E+00
         22   -1    0    0    0    0  0.00000000000E+00  0.00000000000E+00  0.17078812362E+02  0.17078812362E+02  0.00000000000E+00 0. -1.
         22   -1    0    0    0    0 -0.00000000000E+00 -0.00000000000E+00 -0.11699605912E+01  0.11699605912E+01  0.00000000000E+00 0.  1.
          4    1    1    2  501    0  0.57360651555E+00  0.43603754611E+01  0.95869388004E+01  0.10547572904E+02  0.00000000000E+00 0. -1.
         -4    1    1    2    0  501 -0.57360651555E+00 -0.43603754611E+01  0.63219129700E+01  0.77012000491E+01  0.00000000000E+00 0.  1.
<mgrwt>
<rscale>  0 0.43979425E+01</rscale>
<asrwt>0</asrwt>
<pdfrwt beam="1">0</pdfrwt>
<pdfrwt beam="2">0</pdfrwt>
<totfact> 0.68880964E+11</totfact>
</mgrwt>
</event>
<event>
 4    2  0.2027839E+006  0.2393849E+01  0.7546771E-02  0.2757263E+00
         22   -1    0    0    0    0  0.00000000000E+00  0.00000000000E+00  0.19402574743E+02  0.19402574743E+02  0.00000000000E+00 0.  1.
         22   -1    0    0    0    0 -0.00000000000E+00 -0.00000000000E+00 -0.10880755650E+01  0.10880755650E+01  0.00000000000E+00 0. -1.
          4    1    1    2  501    0  0.21540893560E+01  0.10442269644E+01  0.17902217249E+02  0.18061558442E+02  0.00000000000E+00 0.  1.
         -4    1    1    2    0  501 -0.21540893560E+01 -0.10442269644E+01  0.41228192908E+00  0.24290918665E+01  0.00000000000E+00 0. -1.
<mgrwt>
<rscale>  0 0.23938486E+01</rscale>
<asrwt>0</asrwt>
<pdfrwt beam="1">0</pdfrwt>
<pdfrwt beam="2">0</pdfrwt>
<totfact> 0.63880524E+11</totfact>
</mgrwt>
</event>
<event>
 4    2  0.2027839E+006  0.2079762E+01  0.7546771E-02  0.2928890E+00
         22   -1    0    0    0    0  0.00000000000E+00  0.00000000000E+00  0.29919068540E+02  0.29919068540E+02  0.00000000000E+00 0.  1.
         22   -1    0    0    0    0 -0.00000000000E+00 -0.00000000000E+00 -0.16753040137E+00  0.16753040137E+00  0.00000000000E+00 0. -1.
          4    1    1    2  501    0  0.20764513466E+01 -0.11730182227E+00  0.20444840760E+02  0.20550350937E+02  0.00000000000E+00 0.  1.
         -4    1    1    2    0  501 -0.20764513466E+01  0.11730182227E+00  0.93066973782E+01  0.95362480044E+01  0.00000000000E+00 0. -1.
<mgrwt>
<rscale>  0 0.20797620E+01</rscale>
<asrwt>0</asrwt>
<pdfrwt beam="1">0</pdfrwt>
<pdfrwt beam="2">0</pdfrwt>
<totfact> 0.30512401E+12</totfact>
</mgrwt>
</event>
<event>
 4    2  0.2027839E+006  0.3726294E+01  0.7546771E-02  0.2332880E+00
         22   -1    0    0    0    0  0.00000000000E+00  0.00000000000E+00  0.90321083807E+01  0.90321083807E+01  0.00000000000E+00 0.  1.
         22   -1    0    0    0    0 -0.00000000000E+00 -0.00000000000E+00 -0.16096293837E+01  0.16096293837E+01  0.00000000000E+00 0. -1.
          4    1    1    2  501    0  0.35104103013E+01 -0.12499152163E+01  0.48389762650E+01  0.61074511725E+01  0.00000000000E+00 0. -1.
         -4    1    1    2    0  501 -0.35104103013E+01  0.12499152163E+01  0.25835027320E+01  0.45342865919E+01  0.00000000000E+00 0.  1.
<mgrwt>
<rscale>  0 0.37262942E+01</rscale>
<asrwt>0</asrwt>
<pdfrwt beam="1">0</pdfrwt>
<pdfrwt beam="2">0</pdfrwt>
<totfact> 0.10395783E+12</totfact>
</mgrwt>
</event>
<event>
 4    2  0.2027839E+006  0.4464715E+01  0.7546771E-02  0.2196388E+00
         22   -1    0    0    0    0  0.00000000000E+00  0.00000000000E+00  0.14798517474E+02  0.14798517474E+02  0.00000000000E+00 0. -1.
         22   -1    0    0    0    0 -0.00000000000E+00 -0.00000000000E+00 -0.17683112018E+01  0.17683112018E+01  0.00000000000E+00 0.  1.
          4    1    1    2  501    0 -0.25719054181E+01  0.36495177954E+01  0.10558337744E+02  0.11463514885E+02  0.00000000000E+00 0. -1.
         -4    1    1    2    0  501  0.25719054181E+01 -0.36495177954E+01  0.24718685283E+01  0.51033137901E+01  0.00000000000E+00 0.  1.
<mgrwt>
<rscale>  0 0.44647147E+01</rscale>
<asrwt>0</asrwt>
<pdfrwt beam="1">0</pdfrwt>
<pdfrwt beam="2">0</pdfrwt>
<totfact> 0.51125879E+11</totfact>
</mgrwt>
</event>
<event>
 4    2  0.2027839E+006  0.2201431E+01  0.7546771E-02  0.2856850E+00
         22   -1    0    0    0    0  0.00000000000E+00  0.00000000000E+00  0.31267114527E+00  0.31267114527E+00  0.00000000000E+00 0.  1.
         22   -1    0    0    0    0 -0.00000000000E+00 -0.00000000000E+00 -0.19323164373E+02  0.19323164373E+02  0.00000000000E+00 0. -1.
          4    1    1    2  501    0  0.14892484754E+01  0.16212450977E+01 -0.51379668140E+01  0.55897226827E+01  0.00000000000E+00 0.  1.
         -4    1    1    2    0  501 -0.14892484754E+01 -0.16212450977E+01 -0.13872526414E+02  0.14046112836E+02  0.00000000000E+00 0. -1.
<mgrwt>
<rscale>  0 0.22014306E+01</rscale>
<asrwt>0</asrwt>
<pdfrwt beam="1">0</pdfrwt>
<pdfrwt beam="2">0</pdfrwt>
<totfact> 0.26346351E+12</totfact>
</mgrwt>
</event>
<event>
 4    2  0.2027839E+006  0.2186246E+01  0.7546771E-02  0.2865418E+00
         22   -1    0    0    0    0  0.00000000000E+00  0.00000000000E+00  0.35996223277E+02  0.35996223277E+02  0.00000000000E+00 0. -1.
         22   -1    0    0    0    0 -0.00000000000E+00 -0.00000000000E+00 -0.66378096696E+00  0.66378096696E+00  0.00000000000E+00 0.  1.
          4    1    1    2  501    0 -0.15067073384E+01  0.15841417103E+01  0.34060665887E+02  0.34130757867E+02  0.00000000000E+00 0. -1.
         -4    1    1    2    0  501  0.15067073384E+01 -0.15841417103E+01  0.12717764233E+01  0.25292463764E+01  0.00000000000E+00 0.  1.
<mgrwt>
<rscale>  0 0.21862461E+01</rscale>
<asrwt>0</asrwt>
<pdfrwt beam="1">0</pdfrwt>
<pdfrwt beam="2">0</pdfrwt>
<totfact> 0.51291088E+11</totfact>
</mgrwt>
</event>
<event>
 4    2  0.2027839E+006  0.2848327E+01  0.7546771E-02  0.2572397E+00
         22   -1    0    0    0    0  0.00000000000E+00  0.00000000000E+00  0.10349294146E+03  0.10349294146E+03  0.00000000000E+00 0.  1.
         22   -1    0    0    0    0 -0.00000000000E+00 -0.00000000000E+00 -0.19199166843E+00  0.19199166843E+00  0.00000000000E+00 0. -1.
          4    1    1    2  501    0 -0.72180398075E+00 -0.27553526230E+01  0.91528524843E+02  0.91572833466E+02  0.00000000000E+00 0.  1.
         -4    1    1    2    0  501  0.72180398075E+00  0.27553526230E+01  0.11772424952E+02  0.12112099665E+02  0.00000000000E+00 0. -1.
<mgrwt>
<rscale>  0 0.28483274E+01</rscale>
<asrwt>0</asrwt>
<pdfrwt beam="1">0</pdfrwt>
<pdfrwt beam="2">0</pdfrwt>
<totfact> 0.50036174E+11</totfact>
</mgrwt>
</event>
<event>
 4    2  0.2027839E+006  0.2286495E+01  0.7546771E-02  0.2810862E+00
         22   -1    0    0    0    0  0.00000000000E+00  0.00000000000E+00  0.37588965857E+01  0.37588965857E+01  0.00000000000E+00 0. -1.
         22   -1    0    0    0    0 -0.00000000000E+00 -0.00000000000E+00 -0.14021206461E+01  0.14021206461E+01  0.00000000000E+00 0.  1.
          4    1    1    2  501    0  0.22587221665E+01  0.35529528916E+00  0.94702659187E+00  0.24748575583E+01  0.00000000000E+00 0.  1.
         -4    1    1    2    0  501 -0.22587221665E+01 -0.35529528916E+00  0.14097493478E+01  0.26861596735E+01  0.00000000000E+00 0. -1.
<mgrwt>
<rscale>  0 0.22864953E+01</rscale>
<asrwt>0</asrwt>
<pdfrwt beam="1">0</pdfrwt>
<pdfrwt beam="2">0</pdfrwt>
<totfact> 0.34576859E+12</totfact>
</mgrwt>
</event>
<event>
 4    2  0.2027839E+006  0.3108180E+01  0.7546771E-02  0.2489061E+00
         22   -1    0    0    0    0  0.00000000000E+00  0.00000000000E+00  0.76052362141E+01  0.76052362141E+01  0.00000000000E+00 0. -1.
         22   -1    0    0    0    0 -0.00000000000E+00 -0.00000000000E+00 -0.14704135206E+01  0.14704135206E+01  0.00000000000E+00 0.  1.
          4    1    1    2  501    0 -0.30873590245E+01 -0.35916146814E+00  0.47415346483E+01  0.56694738316E+01  0.00000000000E+00 0.  1.
         -4    1    1    2    0  501  0.30873590245E+01  0.35916146814E+00  0.13932880451E+01  0.34061759031E+01  0.00000000000E+00 0. -1.
<mgrwt>
<rscale>  0 0.31081800E+01</rscale>
<asrwt>0</asrwt>
<pdfrwt beam="1">0</pdfrwt>
<pdfrwt beam="2">0</pdfrwt>
<totfact> 0.14187600E+12</totfact>
</mgrwt>
</event>
<event>
 4    2  0.2027839E+006  0.2053784E+01  0.7546771E-02  0.2945342E+00
         22   -1    0    0    0    0  0.00000000000E+00  0.00000000000E+00  0.17176826874E+00  0.17176826874E+00  0.00000000000E+00 0. -1.
         22   -1    0    0    0    0 -0.00000000000E+00 -0.00000000000E+00 -0.24823253815E+02  0.24823253815E+02  0.00000000000E+00 0.  1.
          4    1    1    2  501    0 -0.20434842345E+01  0.20542883884E+00 -0.13621259952E+02  0.13775222375E+02  0.00000000000E+00 0.  1.
         -4    1    1    2    0  501  0.20434842345E+01 -0.20542883884E+00 -0.11030225595E+02  0.11219799708E+02  0.00000000000E+00 0. -1.
<mgrwt>
<rscale>  0 0.20537840E+01</rscale>
<asrwt>0</asrwt>
<pdfrwt beam="1">0</pdfrwt>
<pdfrwt beam="2">0</pdfrwt>
<totfact> 0.37598362E+12</totfact>
</mgrwt>
</event>
<event>
 4    2  0.2027839E+006  0.2697929E+01  0.7546771E-02  0.2627218E+00
         22   -1    0    0    0    0  0.00000000000E+00  0.00000000000E+00  0.67133909087E+02  0.67133909087E+02  0.00000000000E+00 0. -1.
         22   -1    0    0    0    0 -0.00000000000E+00 -0.00000000000E+00 -0.77814830132E+00  0.77814830132E+00  0.00000000000E+00 0.  1.
          4    1    1    2  501    0 -0.25300610194E+01 -0.93681088715E+00  0.64679598008E+02  0.64735841864E+02  0.00000000000E+00 0. -1.
         -4    1    1    2    0  501  0.25300610194E+01  0.93681088715E+00  0.16761627784E+01  0.31762155248E+01  0.00000000000E+00 0.  1.
<mgrwt>
<rscale>  0 0.26979295E+01</rscale>
<asrwt>0</asrwt>
<pdfrwt beam="1">0</pdfrwt>
<pdfrwt beam="2">0</pdfrwt>
<totfact> 0.18830230E+11</totfact>
</mgrwt>
</event>
<event>
 4    2  0.2027839E+006  0.2523044E+01  0.7546771E-02  0.2698457E+00
         22   -1    0    0    0    0  0.00000000000E+00  0.00000000000E+00  0.72129871092E+01  0.72129871092E+01  0.00000000000E+00 0.  1.
         22   -1    0    0    0    0 -0.00000000000E+00 -0.00000000000E+00 -0.14945336892E+01  0.14945336892E+01  0.00000000000E+00 0. -1.
          4    1    1    2  501    0  0.11296815712E+01  0.22560079883E+01  0.56452516625E+01  0.61834148194E+01  0.00000000000E+00 0.  1.
         -4    1    1    2    0  501 -0.11296815712E+01 -0.22560079883E+01  0.73201757471E-01  0.25241059790E+01  0.00000000000E+00 0. -1.
<mgrwt>
<rscale>  0 0.25230443E+01</rscale>
<asrwt>0</asrwt>
<pdfrwt beam="1">0</pdfrwt>
<pdfrwt beam="2">0</pdfrwt>
<totfact> 0.14836443E+12</totfact>
</mgrwt>
</event>
<event>
 4    2  0.2027839E+006  0.2187641E+01  0.7546771E-02  0.2864627E+00
         22   -1    0    0    0    0  0.00000000000E+00  0.00000000000E+00  0.13908918264E+01  0.13908918264E+01  0.00000000000E+00 0. -1.
         22   -1    0    0    0    0 -0.00000000000E+00 -0.00000000000E+00 -0.38991144526E+01  0.38991144526E+01  0.00000000000E+00 0.  1.
          4    1    1    2  501    0  0.14066529818E+01  0.16754401769E+01 -0.34727736634E+00  0.22150336266E+01  0.00000000000E+00 0. -1.
         -4    1    1    2    0  501 -0.14066529818E+01 -0.16754401769E+01 -0.21609452598E+01  0.30749726525E+01  0.00000000000E+00 0.  1.
<mgrwt>
<rscale>  0 0.21876408E+01</rscale>
<asrwt>0</asrwt>
<pdfrwt beam="1">0</pdfrwt>
<pdfrwt beam="2">0</pdfrwt>
<totfact> 0.33426830E+12</totfact>
</mgrwt>
</event>
<event>
 4    2  0.2027839E+006  0.2123250E+01  0.7546771E-02  0.2902225E+00
         22   -1    0    0    0    0  0.00000000000E+00  0.00000000000E+00  0.25197416224E+01  0.25197416224E+01  0.00000000000E+00 0. -1.
         22   -1    0    0    0    0 -0.00000000000E+00 -0.00000000000E+00 -0.19401176154E+01  0.19401176154E+01  0.00000000000E+00 0.  1.
          4    1    1    2  501    0  0.12767024508E+01  0.16965318590E+01 -0.33223410705E+00  0.21490856191E+01  0.00000000000E+00 0.  1.
         -4    1    1    2    0  501 -0.12767024508E+01 -0.16965318590E+01  0.91185811401E+00  0.23107736186E+01  0.00000000000E+00 0. -1.
<mgrwt>
<rscale>  0 0.21232497E+01</rscale>
<asrwt>0</asrwt>
<pdfrwt beam="1">0</pdfrwt>
<pdfrwt beam="2">0</pdfrwt>
<totfact> 0.37951473E+12</totfact>
</mgrwt>
</event>
<event>
 4    2  0.2027839E+006  0.2360106E+01  0.7546771E-02  0.2773613E+00
         22   -1    0    0    0    0  0.00000000000E+00  0.00000000000E+00  0.11589799283E+00  0.11589799283E+00  0.00000000000E+00 0.  1.
         22   -1    0    0    0    0 -0.00000000000E+00 -0.00000000000E+00 -0.48078302613E+02  0.48078302613E+02  0.00000000000E+00 0. -1.
          4    1    1    2  501    0 -0.17888034317E+01  0.15395729498E+01 -0.24446344182E+02  0.24560005018E+02  0.00000000000E+00 0. -1.
         -4    1    1    2    0  501  0.17888034317E+01 -0.15395729498E+01 -0.23516060438E+02  0.23634195588E+02  0.00000000000E+00 0.  1.
<mgrwt>
<rscale>  0 0.23601065E+01</rscale>
<asrwt>0</asrwt>
<pdfrwt beam="1">0</pdfrwt>
<pdfrwt beam="2">0</pdfrwt>
<totfact> 0.24875714E+12</totfact>
</mgrwt>
</event>
<event>
 4    2  0.2027839E+006  0.5061302E+01  0.7546771E-02  0.2115757E+00
         22   -1    0    0    0    0  0.00000000000E+00  0.00000000000E+00  0.74723802221E+01  0.74723802221E+01  0.00000000000E+00 0. -1.
         22   -1    0    0    0    0 -0.00000000000E+00 -0.00000000000E+00 -0.87102052319E+01  0.87102052319E+01  0.00000000000E+00 0.  1.
          4    1    1    2  501    0  0.45684730313E+01  0.21784941036E+01  0.56819979260E+01  0.76093286713E+01  0.00000000000E+00 0. -1.
         -4    1    1    2    0  501 -0.45684730313E+01 -0.21784941036E+01 -0.69198229358E+01  0.85732567826E+01  0.00000000000E+00 0.  1.
<mgrwt>
<rscale>  0 0.50613024E+01</rscale>
<asrwt>0</asrwt>
<pdfrwt beam="1">0</pdfrwt>
<pdfrwt beam="2">0</pdfrwt>
<totfact> 0.17927055E+11</totfact>
</mgrwt>
</event>
<event>
 4    2  0.2027839E+006  0.2150722E+01  0.7546771E-02  0.2885919E+00
         22   -1    0    0    0    0  0.00000000000E+00  0.00000000000E+00  0.44289468322E+00  0.44289468322E+00  0.00000000000E+00 0.  1.
         22   -1    0    0    0    0 -0.00000000000E+00 -0.00000000000E+00 -0.25224189958E+02  0.25224189958E+02  0.00000000000E+00 0. -1.
          4    1    1    2  501    0 -0.12878335875E+01  0.17225242882E+01 -0.25668930883E+01  0.33488125357E+01  0.00000000000E+00 0.  1.
         -4    1    1    2    0  501  0.12878335875E+01 -0.17225242882E+01 -0.22214402187E+02  0.22318272106E+02  0.00000000000E+00 0. -1.
<mgrwt>
<rscale>  0 0.21507220E+01</rscale>
<asrwt>0</asrwt>
<pdfrwt beam="1">0</pdfrwt>
<pdfrwt beam="2">0</pdfrwt>
<totfact> 0.12753350E+12</totfact>
</mgrwt>
</event>
<event>
 4    2  0.2027839E+006  0.2003162E+01  0.7546771E-02  0.2978597E+00
         22   -1    0    0    0    0  0.00000000000E+00  0.00000000000E+00  0.26685883987E+00  0.26685883987E+00  0.00000000000E+00 0. -1.
         22   -1    0    0    0    0 -0.00000000000E+00 -0.00000000000E+00 -0.18767844860E+02  0.18767844860E+02  0.00000000000E+00 0.  1.
          4    1    1    2  501    0  0.19750292644E+01 -0.33454181503E+00 -0.50068993314E+01  0.53927451021E+01  0.00000000000E+00 0. -1.
         -4    1    1    2    0  501 -0.19750292644E+01  0.33454181503E+00 -0.13494086689E+02  0.13641958598E+02  0.00000000000E+00 0.  1.
<mgrwt>
<rscale>  0 0.20031622E+01</rscale>
<asrwt>0</asrwt>
<pdfrwt beam="1">0</pdfrwt>
<pdfrwt beam="2">0</pdfrwt>
<totfact> 0.32625577E+12</totfact>
</mgrwt>
</event>
<event>
 4    2  0.2027839E+006  0.2536080E+01  0.7546771E-02  0.2692834E+00
         22   -1    0    0    0    0  0.00000000000E+00  0.00000000000E+00  0.23772325228E+00  0.23772325228E+00  0.00000000000E+00 0. -1.
         22   -1    0    0    0    0 -0.00000000000E+00 -0.00000000000E+00 -0.29322179437E+02  0.29322179437E+02  0.00000000000E+00 0.  1.
          4    1    1    2  501    0  0.23980852517E+01  0.82516144655E+00 -0.10432842912E+02  0.10736662215E+02  0.00000000000E+00 0. -1.
         -4    1    1    2    0  501 -0.23980852517E+01 -0.82516144655E+00 -0.18651613272E+02  0.18823240474E+02  0.00000000000E+00 0.  1.
<mgrwt>
<rscale>  0 0.25360805E+01</rscale>
<asrwt>0</asrwt>
<pdfrwt beam="1">0</pdfrwt>
<pdfrwt beam="2">0</pdfrwt>
<totfact> 0.21189423E+12</totfact>
</mgrwt>
</event>
<event>
 4    2  0.2027839E+006  0.2259926E+01  0.7546771E-02  0.2824871E+00
         22   -1    0    0    0    0  0.00000000000E+00  0.00000000000E+00  0.39232457087E+00  0.39232457087E+00  0.00000000000E+00 0.  1.
         22   -1    0    0    0    0 -0.00000000000E+00 -0.00000000000E+00 -0.13930950603E+02  0.13930950603E+02  0.00000000000E+00 0. -1.
          4    1    1    2  501    0 -0.67591378641E+00  0.21564794999E+01 -0.86027099725E+01  0.88945984817E+01  0.00000000000E+00 0.  1.
         -4    1    1    2    0  501  0.67591378641E+00 -0.21564794999E+01 -0.49359160597E+01  0.54286766922E+01  0.00000000000E+00 0. -1.
<mgrwt>
<rscale>  0 0.22599255E+01</rscale>
<asrwt>0</asrwt>
<pdfrwt beam="1">0</pdfrwt>
<pdfrwt beam="2">0</pdfrwt>
<totfact> 0.30588963E+12</totfact>
</mgrwt>
</event>
<event>
 4    2  0.2027839E+006  0.2090599E+01  0.7546771E-02  0.2922145E+00
         22   -1    0    0    0    0  0.00000000000E+00  0.00000000000E+00  0.54862676499E+02  0.54862676499E+02  0.00000000000E+00 0. -1.
         22   -1    0    0    0    0 -0.00000000000E+00 -0.00000000000E+00 -0.82845176777E-01  0.82845176777E-01  0.00000000000E+00 0.  1.
          4    1    1    2  501    0  0.18264011232E+01 -0.10172831578E+01  0.32772991006E+02  0.32839603310E+02  0.00000000000E+00 0.  1.
         -4    1    1    2    0  501 -0.18264011232E+01  0.10172831578E+01  0.22006840317E+02  0.22105918366E+02  0.00000000000E+00 0. -1.
<mgrwt>
<rscale>  0 0.20905995E+01</rscale>
<asrwt>0</asrwt>
<pdfrwt beam="1">0</pdfrwt>
<pdfrwt beam="2">0</pdfrwt>
<totfact> 0.30293899E+12</totfact>
</mgrwt>
</event>
<event>
 4    2  0.2027839E+006  0.2012397E+01  0.7546771E-02  0.2972408E+00
         22   -1    0    0    0    0  0.00000000000E+00  0.00000000000E+00  0.51620871434E+01  0.51620871434E+01  0.00000000000E+00 0. -1.
         22   -1    0    0    0    0 -0.00000000000E+00 -0.00000000000E+00 -0.81354224955E+00  0.81354224955E+00  0.00000000000E+00 0.  1.
          4    1    1    2  501    0  0.19595743010E-03 -0.20123970860E+01  0.16099127345E+01  0.25771226364E+01  0.00000000000E+00 0.  1.
         -4    1    1    2    0  501 -0.19595743010E-03  0.20123970860E+01  0.27386321594E+01  0.33985067566E+01  0.00000000000E+00 0. -1.
<mgrwt>
<rscale>  0 0.20123971E+01</rscale>
<asrwt>0</asrwt>
<pdfrwt beam="1">0</pdfrwt>
<pdfrwt beam="2">0</pdfrwt>
<totfact> 0.44311102E+12</totfact>
</mgrwt>
</event>
<event>
 4    2  0.2027839E+006  0.4113668E+01  0.7546771E-02  0.2256079E+00
         22   -1    0    0    0    0  0.00000000000E+00  0.00000000000E+00  0.16944001417E+01  0.16944001417E+01  0.00000000000E+00 0. -1.
         22   -1    0    0    0    0 -0.00000000000E+00 -0.00000000000E+00 -0.10510343829E+02  0.10510343829E+02  0.00000000000E+00 0.  1.
          4    1    1    2  501    0 -0.26090700806E+01 -0.31804110590E+01 -0.57694587988E+01  0.70858250064E+01  0.00000000000E+00 0. -1.
         -4    1    1    2    0  501  0.26090700806E+01  0.31804110590E+01 -0.30464848889E+01  0.51189189648E+01  0.00000000000E+00 0.  1.
<mgrwt>
<rscale>  0 0.41136676E+01</rscale>
<asrwt>0</asrwt>
<pdfrwt beam="1">0</pdfrwt>
<pdfrwt beam="2">0</pdfrwt>
<totfact> 0.81568916E+11</totfact>
</mgrwt>
</event>
<event>
 4    2  0.2027839E+006  0.3228302E+01  0.7546771E-02  0.2454612E+00
         22   -1    0    0    0    0  0.00000000000E+00  0.00000000000E+00  0.35456449614E+00  0.35456449614E+00  0.00000000000E+00 0. -1.
         22   -1    0    0    0    0 -0.00000000000E+00 -0.00000000000E+00 -0.57832449416E+02  0.57832449416E+02  0.00000000000E+00 0.  1.
          4    1    1    2  501    0 -0.32234461653E+01 -0.17700126122E+00 -0.83372532557E+01  0.89404544894E+01  0.00000000000E+00 0. -1.
         -4    1    1    2    0  501  0.32234461653E+01  0.17700126122E+00 -0.49140631664E+02  0.49246559423E+02  0.00000000000E+00 0.  1.
<mgrwt>
<rscale>  0 0.32283021E+01</rscale>
<asrwt>0</asrwt>
<pdfrwt beam="1">0</pdfrwt>
<pdfrwt beam="2">0</pdfrwt>
<totfact> 0.55929955E+11</totfact>
</mgrwt>
</event>
<event>
 4    2  0.2027839E+006  0.3192246E+01  0.7546771E-02  0.2464711E+00
         22   -1    0    0    0    0  0.00000000000E+00  0.00000000000E+00  0.27817306347E+01  0.27817306347E+01  0.00000000000E+00 0.  1.
         22   -1    0    0    0    0 -0.00000000000E+00 -0.00000000000E+00 -0.45321902665E+01  0.45321902665E+01  0.00000000000E+00 0. -1.
          4    1    1    2  501    0 -0.30441050966E+01 -0.96117728451E+00  0.72594054463E+00  0.32737482013E+01  0.00000000000E+00 0.  1.
         -4    1    1    2    0  501  0.30441050966E+01  0.96117728451E+00 -0.24764001764E+01  0.40401726999E+01  0.00000000000E+00 0. -1.
<mgrwt>
<rscale>  0 0.31922465E+01</rscale>
<asrwt>0</asrwt>
<pdfrwt beam="1">0</pdfrwt>
<pdfrwt beam="2">0</pdfrwt>
<totfact> 0.12554167E+12</totfact>
</mgrwt>
</event>
<event>
 4    2  0.2027839E+006  0.2723720E+01  0.7546771E-02  0.2617425E+00
         22   -1    0    0    0    0  0.00000000000E+00  0.00000000000E+00  0.32092422954E+01  0.32092422954E+01  0.00000000000E+00 0.  1.
         22   -1    0    0    0    0 -0.00000000000E+00 -0.00000000000E+00 -0.11674673391E+02  0.11674673391E+02  0.00000000000E+00 0. -1.
          4    1    1    2  501    0  0.58077290823E+00 -0.26610816381E+01  0.24318651998E+01  0.36513861759E+01  0.00000000000E+00 0.  1.
         -4    1    1    2    0  501 -0.58077290823E+00  0.26610816381E+01 -0.10897296295E+02  0.11232529510E+02  0.00000000000E+00 0. -1.
<mgrwt>
<rscale>  0 0.27237204E+01</rscale>
<asrwt>0</asrwt>
<pdfrwt beam="1">0</pdfrwt>
<pdfrwt beam="2">0</pdfrwt>
<totfact> 0.34187795E+11</totfact>
</mgrwt>
</event>
<event>
 4    2  0.2027839E+006  0.9131887E+01  0.7546771E-02  0.1817145E+00
         22   -1    0    0    0    0  0.00000000000E+00  0.00000000000E+00  0.38468506916E+01  0.38468506916E+01  0.00000000000E+00 0.  1.
         22   -1    0    0    0    0 -0.00000000000E+00 -0.00000000000E+00 -0.27374191857E+02  0.27374191857E+02  0.00000000000E+00 0. -1.
          4    1    1    2  501    0  0.78761557297E+01 -0.46214214322E+01 -0.46425943013E+01  0.10244268982E+02  0.00000000000E+00 0.  1.
         -4    1    1    2    0  501 -0.78761557297E+01  0.46214214322E+01 -0.18884746864E+02  0.20976773566E+02  0.00000000000E+00 0. -1.
<mgrwt>
<rscale>  0 0.91318873E+01</rscale>
<asrwt>0</asrwt>
<pdfrwt beam="1">0</pdfrwt>
<pdfrwt beam="2">0</pdfrwt>
<totfact> 0.95990169E+10</totfact>
</mgrwt>
</event>
<event>
 4    2  0.2027839E+006  0.2102706E+01  0.7546771E-02  0.2914689E+00
         22   -1    0    0    0    0  0.00000000000E+00  0.00000000000E+00  0.51998615322E+02  0.51998615322E+02  0.00000000000E+00 0. -1.
         22   -1    0    0    0    0 -0.00000000000E+00 -0.00000000000E+00 -0.13524306796E+00  0.13524306796E+00  0.00000000000E+00 0.  1.
          4    1    1    2  501    0  0.20805689290E+01 -0.30431323938E+00  0.41815195096E+02  0.41868029743E+02  0.00000000000E+00 0. -1.
         -4    1    1    2    0  501 -0.20805689290E+01  0.30431323938E+00  0.10048177157E+02  0.10265828647E+02  0.00000000000E+00 0.  1.
<mgrwt>
<rscale>  0 0.21027063E+01</rscale>
<asrwt>0</asrwt>
<pdfrwt beam="1">0</pdfrwt>
<pdfrwt beam="2">0</pdfrwt>
<totfact> 0.18899982E+12</totfact>
</mgrwt>
</event>
<event>
 4    2  0.2027839E+006  0.4376707E+01  0.7546771E-02  0.2210593E+00
         22   -1    0    0    0    0  0.00000000000E+00  0.00000000000E+00  0.11887228412E+01  0.11887228412E+01  0.00000000000E+00 0. -1.
         22   -1    0    0    0    0 -0.00000000000E+00 -0.00000000000E+00 -0.27951103912E+02  0.27951103912E+02  0.00000000000E+00 0.  1.
          4    1    1    2  501    0 -0.19217986966E+01 -0.39322073631E+01 -0.38997848157E+01  0.58620718679E+01  0.00000000000E+00 0. -1.
         -4    1    1    2    0  501  0.19217986966E+01  0.39322073631E+01 -0.22862596255E+02  0.23277754885E+02  0.00000000000E+00 0.  1.
<mgrwt>
<rscale>  0 0.43767071E+01</rscale>
<asrwt>0</asrwt>
<pdfrwt beam="1">0</pdfrwt>
<pdfrwt beam="2">0</pdfrwt>
<totfact> 0.36488718E+11</totfact>
</mgrwt>
</event>
<event>
 4    2  0.2027839E+006  0.3585169E+01  0.7546771E-02  0.2364376E+00
         22   -1    0    0    0    0  0.00000000000E+00  0.00000000000E+00  0.13109492310E+02  0.13109492310E+02  0.00000000000E+00 0. -1.
         22   -1    0    0    0    0 -0.00000000000E+00 -0.00000000000E+00 -0.98046861885E+00  0.98046861885E+00  0.00000000000E+00 0.  1.
          4    1    1    2  501    0  0.19899870155E+01 -0.29821786191E+01  0.60588912005E+01  0.70401420594E+01  0.00000000000E+00 0. -1.
         -4    1    1    2    0  501 -0.19899870155E+01  0.29821786191E+01  0.60701324911E+01  0.70498188698E+01  0.00000000000E+00 0.  1.
<mgrwt>
<rscale>  0 0.35851691E+01</rscale>
<asrwt>0</asrwt>
<pdfrwt beam="1">0</pdfrwt>
<pdfrwt beam="2">0</pdfrwt>
<totfact> 0.11673262E+12</totfact>
</mgrwt>
</event>
<event>
 4    2  0.2027839E+006  0.3573933E+01  0.7546771E-02  0.2366976E+00
         22   -1    0    0    0    0  0.00000000000E+00  0.00000000000E+00  0.10464373156E+01  0.10464373156E+01  0.00000000000E+00 0. -1.
         22   -1    0    0    0    0 -0.00000000000E+00 -0.00000000000E+00 -0.18751074898E+02  0.18751074898E+02  0.00000000000E+00 0.  1.
          4    1    1    2  501    0  0.22991777974E+01  0.27361972915E+01 -0.30041603005E+01  0.46688299684E+01  0.00000000000E+00 0. -1.
         -4    1    1    2    0  501 -0.22991777974E+01 -0.27361972915E+01 -0.14700477282E+02  0.15128682245E+02  0.00000000000E+00 0.  1.
<mgrwt>
<rscale>  0 0.35739326E+01</rscale>
<asrwt>0</asrwt>
<pdfrwt beam="1">0</pdfrwt>
<pdfrwt beam="2">0</pdfrwt>
<totfact> 0.69697118E+11</totfact>
</mgrwt>
</event>
<event>
 4    2  0.2027839E+006  0.3041155E+01  0.7546771E-02  0.2509333E+00
         22   -1    0    0    0    0  0.00000000000E+00  0.00000000000E+00  0.18049103263E+01  0.18049103263E+01  0.00000000000E+00 0. -1.
         22   -1    0    0    0    0 -0.00000000000E+00 -0.00000000000E+00 -0.17325895894E+02  0.17325895894E+02  0.00000000000E+00 0.  1.
          4    1    1    2  501    0  0.23784462415E+01 -0.18951563704E+01  0.26675159169E+00  0.30528315715E+01  0.00000000000E+00 0. -1.
         -4    1    1    2    0  501 -0.23784462415E+01  0.18951563704E+01 -0.15787737159E+02  0.16077974649E+02  0.00000000000E+00 0.  1.
<mgrwt>
<rscale>  0 0.30411551E+01</rscale>
<asrwt>0</asrwt>
<pdfrwt beam="1">0</pdfrwt>
<pdfrwt beam="2">0</pdfrwt>
<totfact> 0.41100968E+11</totfact>
</mgrwt>
</event>
<event>
 4    2  0.2027839E+006  0.2796125E+01  0.7546771E-02  0.2590817E+00
         22   -1    0    0    0    0  0.00000000000E+00  0.00000000000E+00  0.76654099270E+02  0.76654099270E+02  0.00000000000E+00 0. -1.
         22   -1    0    0    0    0 -0.00000000000E+00 -0.00000000000E+00 -0.10244171058E+00  0.10244171058E+00  0.00000000000E+00 0.  1.
          4    1    1    2  501    0  0.10383373729E+01  0.25961835241E+01  0.35740722446E+02  0.35849931023E+02  0.00000000000E+00 0. -1.
         -4    1    1    2    0  501 -0.10383373729E+01 -0.25961835241E+01  0.40810935113E+02  0.40906609958E+02  0.00000000000E+00 0.  1.
<mgrwt>
<rscale>  0 0.27961247E+01</rscale>
<asrwt>0</asrwt>
<pdfrwt beam="1">0</pdfrwt>
<pdfrwt beam="2">0</pdfrwt>
<totfact> 0.15262652E+12</totfact>
</mgrwt>
</event>
<event>
 4    2  0.2027839E+006  0.2526244E+01  0.7546771E-02  0.2697072E+00
         22   -1    0    0    0    0  0.00000000000E+00  0.00000000000E+00  0.53775607576E+00  0.53775607576E+00  0.00000000000E+00 0. -1.
         22   -1    0    0    0    0 -0.00000000000E+00 -0.00000000000E+00 -0.13583136252E+02  0.13583136252E+02  0.00000000000E+00 0.  1.
          4    1    1    2  501    0 -0.28619345479E+00 -0.25099800438E+01 -0.90318273224E+01  0.93784759580E+01  0.00000000000E+00 0.  1.
         -4    1    1    2    0  501  0.28619345479E+00  0.25099800438E+01 -0.40135528542E+01  0.47424163701E+01  0.00000000000E+00 0. -1.
<mgrwt>
<rscale>  0 0.25262436E+01</rscale>
<asrwt>0</asrwt>
<pdfrwt beam="1">0</pdfrwt>
<pdfrwt beam="2">0</pdfrwt>
<totfact> 0.22110240E+12</totfact>
</mgrwt>
</event>
<event>
 4    2  0.2027839E+006  0.2455890E+01  0.7546771E-02  0.2728302E+00
         22   -1    0    0    0    0  0.00000000000E+00  0.00000000000E+00  0.23746500608E+01  0.23746500608E+01  0.00000000000E+00 0. -1.
         22   -1    0    0    0    0 -0.00000000000E+00 -0.00000000000E+00 -0.26053389743E+01  0.26053389743E+01  0.00000000000E+00 0.  1.
          4    1    1    2  501    0 -0.23681905688E+01 -0.65043729606E+00  0.27925309784E+00  0.24717155052E+01  0.00000000000E+00 0. -1.
         -4    1    1    2    0  501  0.23681905688E+01  0.65043729606E+00 -0.50994201133E+00  0.25082735299E+01  0.00000000000E+00 0.  1.
<mgrwt>
<rscale>  0 0.24558899E+01</rscale>
<asrwt>0</asrwt>
<pdfrwt beam="1">0</pdfrwt>
<pdfrwt beam="2">0</pdfrwt>
<totfact> 0.28881332E+12</totfact>
</mgrwt>
</event>
<event>
 4    2  0.2027839E+006  0.2500316E+01  0.7546771E-02  0.2708391E+00
         22   -1    0    0    0    0  0.00000000000E+00  0.00000000000E+00  0.29233793338E+01  0.29233793338E+01  0.00000000000E+00 0.  1.
         22   -1    0    0    0    0 -0.00000000000E+00 -0.00000000000E+00 -0.33056113818E+01  0.33056113818E+01  0.00000000000E+00 0. -1.
          4    1    1    2  501    0 -0.98384136781E+00  0.22986160884E+01  0.16595250768E+01  0.30009337279E+01  0.00000000000E+00 0.  1.
         -4    1    1    2    0  501  0.98384136781E+00 -0.22986160884E+01 -0.20417571248E+01  0.32280569876E+01  0.00000000000E+00 0. -1.
<mgrwt>
<rscale>  0 0.25003159E+01</rscale>
<asrwt>0</asrwt>
<pdfrwt beam="1">0</pdfrwt>
<pdfrwt beam="2">0</pdfrwt>
<totfact> 0.17169452E+12</totfact>
</mgrwt>
</event>
<event>
 4    2  0.2027839E+006  0.2356776E+01  0.7546771E-02  0.2775251E+00
         22   -1    0    0    0    0  0.00000000000E+00  0.00000000000E+00  0.13721854820E+02  0.13721854820E+02  0.00000000000E+00 0. -1.
         22   -1    0    0    0    0 -0.00000000000E+00 -0.00000000000E+00 -0.43500788004E+00  0.43500788004E+00  0.00000000000E+00 0.  1.
          4    1    1    2  501    0  0.22260162585E+01  0.77410905025E+00  0.85092036251E+01  0.88295492263E+01  0.00000000000E+00 0. -1.
         -4    1    1    2    0  501 -0.22260162585E+01 -0.77410905025E+00  0.47776433153E+01  0.53273134743E+01  0.00000000000E+00 0.  1.
<mgrwt>
<rscale>  0 0.23567760E+01</rscale>
<asrwt>0</asrwt>
<pdfrwt beam="1">0</pdfrwt>
<pdfrwt beam="2">0</pdfrwt>
<totfact> 0.27740671E+12</totfact>
</mgrwt>
</event>
<event>
 4    2  0.2027839E+006  0.3079794E+01  0.7546771E-02  0.2497550E+00
         22   -1    0    0    0    0  0.00000000000E+00  0.00000000000E+00  0.37654184892E+01  0.37654184892E+01  0.00000000000E+00 0.  1.
         22   -1    0    0    0    0 -0.00000000000E+00 -0.00000000000E+00 -0.31814877508E+01  0.31814877508E+01  0.00000000000E+00 0. -1.
          4    1    1    2  501    0  0.27400737607E+01  0.14061044224E+01  0.18769729743E+01  0.36066828814E+01  0.00000000000E+00 0.  1.
         -4    1    1    2    0  501 -0.27400737607E+01 -0.14061044224E+01 -0.12930422359E+01  0.33402233585E+01  0.00000000000E+00 0. -1.
<mgrwt>
<rscale>  0 0.30797945E+01</rscale>
<asrwt>0</asrwt>
<pdfrwt beam="1">0</pdfrwt>
<pdfrwt beam="2">0</pdfrwt>
<totfact> 0.13350023E+12</totfact>
</mgrwt>
</event>
<event>
 4    2  0.2027839E+006  0.2004225E+01  0.7546771E-02  0.2977882E+00
         22   -1    0    0    0    0  0.00000000000E+00  0.00000000000E+00  0.14570187158E+01  0.14570187158E+01  0.00000000000E+00 0.  1.
         22   -1    0    0    0    0 -0.00000000000E+00 -0.00000000000E+00 -0.35729157303E+01  0.35729157303E+01  0.00000000000E+00 0. -1.
          4    1    1    2  501    0  0.11230925207E+01 -0.16599942257E+01  0.14392496295E+00  0.20093859844E+01  0.00000000000E+00 0.  1.
         -4    1    1    2    0  501 -0.11230925207E+01  0.16599942257E+01 -0.22598219774E+01  0.30205484616E+01  0.00000000000E+00 0. -1.
<mgrwt>
<rscale>  0 0.20042249E+01</rscale>
<asrwt>0</asrwt>
<pdfrwt beam="1">0</pdfrwt>
<pdfrwt beam="2">0</pdfrwt>
<totfact> 0.35111929E+12</totfact>
</mgrwt>
</event>
<event>
 4    2  0.2027839E+006  0.2240537E+01  0.7546771E-02  0.2835294E+00
         22   -1    0    0    0    0  0.00000000000E+00  0.00000000000E+00  0.20249986744E+02  0.20249986744E+02  0.00000000000E+00 0.  1.
         22   -1    0    0    0    0 -0.00000000000E+00 -0.00000000000E+00 -0.35691823871E+00  0.35691823871E+00  0.00000000000E+00 0. -1.
          4    1    1    2  501    0  0.22282832540E+01  0.23400644765E+00  0.15640891126E+02  0.15800553170E+02  0.00000000000E+00 0.  1.
         -4    1    1    2    0  501 -0.22282832540E+01 -0.23400644765E+00  0.42521773792E+01  0.48063518121E+01  0.00000000000E+00 0. -1.
<mgrwt>
<rscale>  0 0.22405368E+01</rscale>
<asrwt>0</asrwt>
<pdfrwt beam="1">0</pdfrwt>
<pdfrwt beam="2">0</pdfrwt>
<totfact> 0.21420213E+12</totfact>
</mgrwt>
</event>
<event>
 4    2  0.2027839E+006  0.2079345E+01  0.7546771E-02  0.2929151E+00
         22   -1    0    0    0    0  0.00000000000E+00  0.00000000000E+00  0.24911192250E+01  0.24911192250E+01  0.00000000000E+00 0.  1.
         22   -1    0    0    0    0 -0.00000000000E+00 -0.00000000000E+00 -0.17834266743E+01  0.17834266743E+01  0.00000000000E+00 0. -1.
          4    1    1    2  501    0  0.18231607051E+01  0.99987986487E+00  0.39762899518E-02  0.20793485787E+01  0.00000000000E+00 0. -1.
         -4    1    1    2    0  501 -0.18231607051E+01 -0.99987986487E+00  0.70371626076E+00  0.21951973206E+01  0.00000000000E+00 0.  1.
<mgrwt>
<rscale>  0 0.20793448E+01</rscale>
<asrwt>0</asrwt>
<pdfrwt beam="1">0</pdfrwt>
<pdfrwt beam="2">0</pdfrwt>
<totfact> 0.42389811E+12</totfact>
</mgrwt>
</event>
<event>
 4    2  0.2027839E+006  0.5182257E+01  0.7546771E-02  0.2101857E+00
         22   -1    0    0    0    0  0.00000000000E+00  0.00000000000E+00  0.11174234156E+02  0.11174234156E+02  0.00000000000E+00 0. -1.
         22   -1    0    0    0    0 -0.00000000000E+00 -0.00000000000E+00 -0.70215871838E+01  0.70215871838E+01  0.00000000000E+00 0.  1.
          4    1    1    2  501    0 -0.50909900683E+01 -0.96829975825E+00  0.94547090353E+01  0.10781804452E+02  0.00000000000E+00 0. -1.
         -4    1    1    2    0  501  0.50909900683E+01  0.96829975825E+00 -0.53020620630E+01  0.74140168881E+01  0.00000000000E+00 0.  1.
<mgrwt>
<rscale>  0 0.51822567E+01</rscale>
<asrwt>0</asrwt>
<pdfrwt beam="1">0</pdfrwt>
<pdfrwt beam="2">0</pdfrwt>
<totfact> 0.14286398E+11</totfact>
</mgrwt>
</event>
<event>
 4    2  0.2027839E+006  0.7565345E+01  0.7546771E-02  0.1902452E+00
         22   -1    0    0    0    0  0.00000000000E+00  0.00000000000E+00  0.12790584850E+02  0.12790584850E+02  0.00000000000E+00 0.  1.
         22   -1    0    0    0    0 -0.00000000000E+00 -0.00000000000E+00 -0.54564031229E+01  0.54564031229E+01  0.00000000000E+00 0. -1.
          4    1    1    2  501    0 -0.30261821493E+00  0.75592901942E+01  0.75369116921E+01  0.10678927094E+02  0.00000000000E+00 0. -1.
         -4    1    1    2    0  501  0.30261821493E+00 -0.75592901942E+01 -0.20272996530E+00  0.75680608787E+01  0.00000000000E+00 0.  1.
<mgrwt>
<rscale>  0 0.75653451E+01</rscale>
<asrwt>0</asrwt>
<pdfrwt beam="1">0</pdfrwt>
<pdfrwt beam="2">0</pdfrwt>
<totfact> 0.16364448E+11</totfact>
</mgrwt>
</event>
<event>
 4    2  0.2027839E+006  0.2408615E+01  0.7546771E-02  0.2750243E+00
         22   -1    0    0    0    0  0.00000000000E+00  0.00000000000E+00  0.28089346266E+00  0.28089346266E+00  0.00000000000E+00 0. -1.
         22   -1    0    0    0    0 -0.00000000000E+00 -0.00000000000E+00 -0.25747805196E+02  0.25747805196E+02  0.00000000000E+00 0.  1.
          4    1    1    2  501    0  0.19852592747E+01 -0.13638814967E+01 -0.69445599147E+01  0.73503972364E+01  0.00000000000E+00 0. -1.
         -4    1    1    2    0  501 -0.19852592747E+01  0.13638814967E+01 -0.18522351818E+02  0.18678301422E+02  0.00000000000E+00 0.  1.
<mgrwt>
<rscale>  0 0.24086152E+01</rscale>
<asrwt>0</asrwt>
<pdfrwt beam="1">0</pdfrwt>
<pdfrwt beam="2">0</pdfrwt>
<totfact> 0.20730004E+12</totfact>
</mgrwt>
</event>
<event>
 4    2  0.2027839E+006  0.2371212E+01  0.7546771E-02  0.2768183E+00
         22   -1    0    0    0    0  0.00000000000E+00  0.00000000000E+00  0.26471885941E+00  0.26471885941E+00  0.00000000000E+00 0. -1.
         22   -1    0    0    0    0 -0.00000000000E+00 -0.00000000000E+00 -0.30072646026E+02  0.30072646026E+02  0.00000000000E+00 0.  1.
          4    1    1    2  501    0 -0.22947224949E+01 -0.59740744634E+00 -0.66833214727E+01  0.70915042757E+01  0.00000000000E+00 0. -1.
         -4    1    1    2    0  501  0.22947224949E+01  0.59740744634E+00 -0.23124605694E+02  0.23245860609E+02  0.00000000000E+00 0.  1.
<mgrwt>
<rscale>  0 0.23712121E+01</rscale>
<asrwt>0</asrwt>
<pdfrwt beam="1">0</pdfrwt>
<pdfrwt beam="2">0</pdfrwt>
<totfact> 0.18191825E+12</totfact>
</mgrwt>
</event>
<event>
 4    2  0.2027839E+006  0.2381859E+01  0.7546771E-02  0.2763023E+00
         22   -1    0    0    0    0  0.00000000000E+00  0.00000000000E+00  0.33005651069E+01  0.33005651069E+01  0.00000000000E+00 0. -1.
         22   -1    0    0    0    0 -0.00000000000E+00 -0.00000000000E+00 -0.23326524730E+01  0.23326524730E+01  0.00000000000E+00 0.  1.
          4    1    1    2  501    0 -0.90099264042E+00  0.22048727366E+01  0.19287564318E+01  0.30648577285E+01  0.00000000000E+00 0. -1.
         -4    1    1    2    0  501  0.90099264042E+00 -0.22048727366E+01 -0.96084379786E+00  0.25683598515E+01  0.00000000000E+00 0.  1.
<mgrwt>
<rscale>  0 0.23818588E+01</rscale>
<asrwt>0</asrwt>
<pdfrwt beam="1">0</pdfrwt>
<pdfrwt beam="2">0</pdfrwt>
<totfact> 0.22370628E+12</totfact>
</mgrwt>
</event>
<event>
 4    2  0.2027839E+006  0.5205345E+01  0.7546771E-02  0.2099262E+00
         22   -1    0    0    0    0  0.00000000000E+00  0.00000000000E+00  0.61998574977E+01  0.61998574977E+01  0.00000000000E+00 0. -1.
         22   -1    0    0    0    0 -0.00000000000E+00 -0.00000000000E+00 -0.74909148539E+01  0.74909148539E+01  0.00000000000E+00 0.  1.
          4    1    1    2  501    0 -0.43793537931E+01 -0.28136938672E+01  0.37726817176E+01  0.64287432804E+01  0.00000000000E+00 0. -1.
         -4    1    1    2    0  501  0.43793537931E+01  0.28136938672E+01 -0.50637390737E+01  0.72620290712E+01  0.00000000000E+00 0.  1.
<mgrwt>
<rscale>  0 0.52053446E+01</rscale>
<asrwt>0</asrwt>
<pdfrwt beam="1">0</pdfrwt>
<pdfrwt beam="2">0</pdfrwt>
<totfact> 0.26860580E+11</totfact>
</mgrwt>
</event>
<event>
 4    2  0.2027839E+006  0.2140251E+01  0.7546771E-02  0.2892086E+00
         22   -1    0    0    0    0  0.00000000000E+00  0.00000000000E+00  0.21357459030E+01  0.21357459030E+01  0.00000000000E+00 0. -1.
         22   -1    0    0    0    0 -0.00000000000E+00 -0.00000000000E+00 -0.72204167482E+01  0.72204167482E+01  0.00000000000E+00 0.  1.
          4    1    1    2  501    0  0.18633910290E+01  0.10528279532E+01  0.13798899793E+01  0.25465209956E+01  0.00000000000E+00 0. -1.
         -4    1    1    2    0  501 -0.18633910290E+01 -0.10528279532E+01 -0.64645608244E+01  0.68096416557E+01  0.00000000000E+00 0.  1.
<mgrwt>
<rscale>  0 0.21402506E+01</rscale>
<asrwt>0</asrwt>
<pdfrwt beam="1">0</pdfrwt>
<pdfrwt beam="2">0</pdfrwt>
<totfact> 0.98114567E+11</totfact>
</mgrwt>
</event>
<event>
 4    2  0.2027839E+006  0.2698666E+01  0.7546771E-02  0.2626936E+00
         22   -1    0    0    0    0  0.00000000000E+00  0.00000000000E+00  0.73561225762E+00  0.73561225762E+00  0.00000000000E+00 0. -1.
         22   -1    0    0    0    0 -0.00000000000E+00 -0.00000000000E+00 -0.14365293883E+02  0.14365293883E+02  0.00000000000E+00 0.  1.
          4    1    1    2  501    0  0.26933284231E+01 -0.16964237181E+00 -0.26053920193E+01  0.37511150480E+01  0.00000000000E+00 0. -1.
         -4    1    1    2    0  501 -0.26933284231E+01  0.16964237181E+00 -0.11024289606E+02  0.11349791093E+02  0.00000000000E+00 0.  1.
<mgrwt>
<rscale>  0 0.26986657E+01</rscale>
<asrwt>0</asrwt>
<pdfrwt beam="1">0</pdfrwt>
<pdfrwt beam="2">0</pdfrwt>
<totfact> 0.14473657E+12</totfact>
</mgrwt>
</event>
<event>
 4    2  0.2027839E+006  0.2537495E+01  0.7546771E-02  0.2692227E+00
         22   -1    0    0    0    0  0.00000000000E+00  0.00000000000E+00  0.17205810776E+02  0.17205810776E+02  0.00000000000E+00 0. -1.
         22   -1    0    0    0    0 -0.00000000000E+00 -0.00000000000E+00 -0.43022731561E+00  0.43022731561E+00  0.00000000000E+00 0.  1.
          4    1    1    2  501    0  0.20753647050E+01  0.14600481878E+01  0.11569183730E+02  0.11844192314E+02  0.00000000000E+00 0.  1.
         -4    1    1    2    0  501 -0.20753647050E+01 -0.14600481878E+01  0.52063997299E+01  0.57918457781E+01  0.00000000000E+00 0. -1.
<mgrwt>
<rscale>  0 0.25374947E+01</rscale>
<asrwt>0</asrwt>
<pdfrwt beam="1">0</pdfrwt>
<pdfrwt beam="2">0</pdfrwt>
<totfact> 0.21255850E+12</totfact>
</mgrwt>
</event>
<event>
 4    2  0.2027839E+006  0.2486339E+01  0.7546771E-02  0.2714584E+00
         22   -1    0    0    0    0  0.00000000000E+00  0.00000000000E+00  0.28999129511E+00  0.28999129511E+00  0.00000000000E+00 0. -1.
         22   -1    0    0    0    0 -0.00000000000E+00 -0.00000000000E+00 -0.21646694389E+02  0.21646694389E+02  0.00000000000E+00 0.  1.
          4    1    1    2  501    0  0.12496644467E+01  0.21494698294E+01 -0.12031012181E+02  0.12285240570E+02  0.00000000000E+00 0. -1.
         -4    1    1    2    0  501 -0.12496644467E+01 -0.21494698294E+01 -0.93256909128E+01  0.96514451135E+01  0.00000000000E+00 0.  1.
<mgrwt>
<rscale>  0 0.24863390E+01</rscale>
<asrwt>0</asrwt>
<pdfrwt beam="1">0</pdfrwt>
<pdfrwt beam="2">0</pdfrwt>
<totfact> 0.24879788E+12</totfact>
</mgrwt>
</event>
<event>
 4    2  0.2027839E+006  0.3172079E+01  0.7546771E-02  0.2470448E+00
         22   -1    0    0    0    0  0.00000000000E+00  0.00000000000E+00  0.15265662586E+02  0.15265662586E+02  0.00000000000E+00 0.  1.
         22   -1    0    0    0    0 -0.00000000000E+00 -0.00000000000E+00 -0.86110524857E+00  0.86110524857E+00  0.00000000000E+00 0. -1.
          4    1    1    2  501    0  0.31643901355E+01  0.22072901841E+00  0.11107414814E+02  0.11551482592E+02  0.00000000000E+00 0.  1.
         -4    1    1    2    0  501 -0.31643901355E+01 -0.22072901841E+00  0.32971425237E+01  0.45752852425E+01  0.00000000000E+00 0. -1.
<mgrwt>
<rscale>  0 0.31720792E+01</rscale>
<asrwt>0</asrwt>
<pdfrwt beam="1">0</pdfrwt>
<pdfrwt beam="2">0</pdfrwt>
<totfact> 0.11227898E+12</totfact>
</mgrwt>
</event>
<event>
 4    2  0.2027839E+006  0.2814591E+01  0.7546771E-02  0.2584230E+00
         22   -1    0    0    0    0  0.00000000000E+00  0.00000000000E+00  0.86152799747E+01  0.86152799747E+01  0.00000000000E+00 0.  1.
         22   -1    0    0    0    0 -0.00000000000E+00 -0.00000000000E+00 -0.92872922284E+00  0.92872922284E+00  0.00000000000E+00 0. -1.
          4    1    1    2  501    0 -0.19831213068E+01  0.19972867297E+01  0.43184594627E+01  0.51547081905E+01  0.00000000000E+00 0.  1.
         -4    1    1    2    0  501  0.19831213068E+01 -0.19972867297E+01  0.33680912891E+01  0.43893010070E+01  0.00000000000E+00 0. -1.
<mgrwt>
<rscale>  0 0.28145913E+01</rscale>
<asrwt>0</asrwt>
<pdfrwt beam="1">0</pdfrwt>
<pdfrwt beam="2">0</pdfrwt>
<totfact> 0.20670184E+12</totfact>
</mgrwt>
</event>
<event>
 4    2  0.2027839E+006  0.7521443E+01  0.7546771E-02  0.1905224E+00
         22   -1    0    0    0    0  0.00000000000E+00  0.00000000000E+00  0.31027597549E+01  0.31027597549E+01  0.00000000000E+00 0. -1.
         22   -1    0    0    0    0 -0.00000000000E+00 -0.00000000000E+00 -0.18260154327E+02  0.18260154327E+02  0.00000000000E+00 0.  1.
          4    1    1    2  501    0  0.68586929823E+01 -0.30871394534E+01 -0.79918701423E+01  0.10974611055E+02  0.00000000000E+00 0.  1.
         -4    1    1    2    0  501 -0.68586929823E+01  0.30871394534E+01 -0.71655244295E+01  0.10388303027E+02  0.00000000000E+00 0. -1.
<mgrwt>
<rscale>  0 0.75214426E+01</rscale>
<asrwt>0</asrwt>
<pdfrwt beam="1">0</pdfrwt>
<pdfrwt beam="2">0</pdfrwt>
<totfact> 0.20521069E+11</totfact>
</mgrwt>
</event>
<event>
 4    2  0.2027839E+006  0.3149935E+01  0.7546771E-02  0.2476822E+00
         22   -1    0    0    0    0  0.00000000000E+00  0.00000000000E+00  0.85600398553E+00  0.85600398553E+00  0.00000000000E+00 0.  1.
         22   -1    0    0    0    0 -0.00000000000E+00 -0.00000000000E+00 -0.13667195061E+02  0.13667195061E+02  0.00000000000E+00 0. -1.
          4    1    1    2  501    0  0.21855739460E+01 -0.22683376565E+01 -0.35754503696E+01  0.47650744530E+01  0.00000000000E+00 0.  1.
         -4    1    1    2    0  501 -0.21855739460E+01  0.22683376565E+01 -0.92357407060E+01  0.97581245936E+01  0.00000000000E+00 0. -1.
<mgrwt>
<rscale>  0 0.31499348E+01</rscale>
<asrwt>0</asrwt>
<pdfrwt beam="1">0</pdfrwt>
<pdfrwt beam="2">0</pdfrwt>
<totfact> 0.12949593E+12</totfact>
</mgrwt>
</event>
<event>
 4    2  0.2027839E+006  0.2805048E+01  0.7546771E-02  0.2587624E+00
         22   -1    0    0    0    0  0.00000000000E+00  0.00000000000E+00  0.85425570125E+00  0.85425570125E+00  0.00000000000E+00 0. -1.
         22   -1    0    0    0    0 -0.00000000000E+00 -0.00000000000E+00 -0.99288571005E+01  0.99288571005E+01  0.00000000000E+00 0.  1.
          4    1    1    2  501    0  0.16176023342E+01 -0.22916495692E+01 -0.30872822819E+01  0.41712836091E+01  0.00000000000E+00 0.  1.
         -4    1    1    2    0  501 -0.16176023342E+01  0.22916495692E+01 -0.59873191173E+01  0.66118291926E+01  0.00000000000E+00 0. -1.
<mgrwt>
<rscale>  0 0.28050481E+01</rscale>
<asrwt>0</asrwt>
<pdfrwt beam="1">0</pdfrwt>
<pdfrwt beam="2">0</pdfrwt>
<totfact> 0.19155685E+12</totfact>
</mgrwt>
</event>
<event>
 4    2  0.2027839E+006  0.2077306E+01  0.7546771E-02  0.2930429E+00
         22   -1    0    0    0    0  0.00000000000E+00  0.00000000000E+00  0.15825144048E+02  0.15825144048E+02  0.00000000000E+00 0.  1.
         22   -1    0    0    0    0 -0.00000000000E+00 -0.00000000000E+00 -0.12037672158E+01  0.12037672158E+01  0.00000000000E+00 0. -1.
          4    1    1    2  501    0 -0.24472196380E+00 -0.20628405685E+01  0.14798946712E+02  0.14944029705E+02  0.00000000000E+00 0.  1.
         -4    1    1    2    0  501  0.24472196380E+00  0.20628405685E+01 -0.17756987970E+00  0.20848815585E+01  0.00000000000E+00 0. -1.
<mgrwt>
<rscale>  0 0.20773060E+01</rscale>
<asrwt>0</asrwt>
<pdfrwt beam="1">0</pdfrwt>
<pdfrwt beam="2">0</pdfrwt>
<totfact> 0.73247048E+11</totfact>
</mgrwt>
</event>
<event>
 4    2  0.2027839E+006  0.2782911E+01  0.7546771E-02  0.2595579E+00
         22   -1    0    0    0    0  0.00000000000E+00  0.00000000000E+00  0.41203723955E+00  0.41203723955E+00  0.00000000000E+00 0.  1.
         22   -1    0    0    0    0 -0.00000000000E+00 -0.00000000000E+00 -0.18907689873E+02  0.18907689873E+02  0.00000000000E+00 0. -1.
          4    1    1    2  501    0 -0.25893244273E+01  0.10198011545E+01 -0.85049347708E+01  0.89486597231E+01  0.00000000000E+00 0.  1.
         -4    1    1    2    0  501  0.25893244273E+01 -0.10198011545E+01 -0.99907178623E+01  0.10371067389E+02  0.00000000000E+00 0. -1.
<mgrwt>
<rscale>  0 0.27829113E+01</rscale>
<asrwt>0</asrwt>
<pdfrwt beam="1">0</pdfrwt>
<pdfrwt beam="2">0</pdfrwt>
<totfact> 0.19851276E+12</totfact>
</mgrwt>
</event>
<event>
 4    2  0.2027839E+006  0.2553386E+01  0.7546771E-02  0.2685452E+00
         22   -1    0    0    0    0  0.00000000000E+00  0.00000000000E+00  0.14379680933E+01  0.14379680933E+01  0.00000000000E+00 0.  1.
         22   -1    0    0    0    0 -0.00000000000E+00 -0.00000000000E+00 -0.70541481396E+01  0.70541481396E+01  0.00000000000E+00 0. -1.
          4    1    1    2  501    0  0.13055756922E+01  0.21943677783E+01 -0.27018798925E+00  0.25676408207E+01  0.00000000000E+00 0.  1.
         -4    1    1    2    0  501 -0.13055756922E+01 -0.21943677783E+01 -0.53459920571E+01  0.59244754122E+01  0.00000000000E+00 0. -1.
<mgrwt>
<rscale>  0 0.25533856E+01</rscale>
<asrwt>0</asrwt>
<pdfrwt beam="1">0</pdfrwt>
<pdfrwt beam="2">0</pdfrwt>
<totfact> 0.15928577E+12</totfact>
</mgrwt>
</event>
<event>
 4    2  0.2027839E+006  0.2434135E+01  0.7546771E-02  0.2738300E+00
         22   -1    0    0    0    0  0.00000000000E+00  0.00000000000E+00  0.50313761491E+00  0.50313761491E+00  0.00000000000E+00 0. -1.
         22   -1    0    0    0    0 -0.00000000000E+00 -0.00000000000E+00 -0.12102504959E+02  0.12102504959E+02  0.00000000000E+00 0.  1.
          4    1    1    2  501    0 -0.23002242222E+01  0.79622989905E+00 -0.47646455388E+01  0.53504075205E+01  0.00000000000E+00 0.  1.
         -4    1    1    2    0  501  0.23002242222E+01 -0.79622989905E+00 -0.68347218053E+01  0.72552350534E+01  0.00000000000E+00 0. -1.
<mgrwt>
<rscale>  0 0.24341351E+01</rscale>
<asrwt>0</asrwt>
<pdfrwt beam="1">0</pdfrwt>
<pdfrwt beam="2">0</pdfrwt>
<totfact> 0.27448826E+12</totfact>
</mgrwt>
</event>
<event>
 4    2  0.2027839E+006  0.3100870E+01  0.7546771E-02  0.2491234E+00
         22   -1    0    0    0    0  0.00000000000E+00  0.00000000000E+00  0.20015399501E+01  0.20015399501E+01  0.00000000000E+00 0.  1.
         22   -1    0    0    0    0 -0.00000000000E+00 -0.00000000000E+00 -0.50058843553E+01  0.50058843553E+01  0.00000000000E+00 0. -1.
          4    1    1    2  501    0  0.27684940369E+01 -0.13967240193E+01 -0.22057947097E+01  0.38053813896E+01  0.00000000000E+00 0. -1.
         -4    1    1    2    0  501 -0.27684940369E+01  0.13967240193E+01 -0.79854969551E+00  0.32020429159E+01  0.00000000000E+00 0.  1.
<mgrwt>
<rscale>  0 0.31008704E+01</rscale>
<asrwt>0</asrwt>
<pdfrwt beam="1">0</pdfrwt>
<pdfrwt beam="2">0</pdfrwt>
<totfact> 0.16360885E+12</totfact>
</mgrwt>
</event>
<event>
 4    2  0.2027839E+006  0.2022683E+01  0.7546771E-02  0.2965581E+00
         22   -1    0    0    0    0  0.00000000000E+00  0.00000000000E+00  0.11476985739E+02  0.11476985739E+02  0.00000000000E+00 0.  1.
         22   -1    0    0    0    0 -0.00000000000E+00 -0.00000000000E+00 -0.64300984208E+00  0.64300984208E+00  0.00000000000E+00 0. -1.
          4    1    1    2  501    0  0.17334824273E+01 -0.10422491425E+01  0.94623117730E+01  0.96760833342E+01  0.00000000000E+00 0.  1.
         -4    1    1    2    0  501 -0.17334824273E+01  0.10422491425E+01  0.13716641235E+01  0.24439122465E+01  0.00000000000E+00 0. -1.
<mgrwt>
<rscale>  0 0.20226825E+01</rscale>
<asrwt>0</asrwt>
<pdfrwt beam="1">0</pdfrwt>
<pdfrwt beam="2">0</pdfrwt>
<totfact> 0.22183765E+12</totfact>
</mgrwt>
</event>
<event>
 4    2  0.2027839E+006  0.2308891E+01  0.7546771E-02  0.2799291E+00
         22   -1    0    0    0    0  0.00000000000E+00  0.00000000000E+00  0.28653104448E+01  0.28653104448E+01  0.00000000000E+00 0. -1.
         22   -1    0    0    0    0 -0.00000000000E+00 -0.00000000000E+00 -0.72091707259E+01  0.72091707259E+01  0.00000000000E+00 0.  1.
          4    1    1    2  501    0 -0.16496819171E+01 -0.16154034118E+01  0.21668935120E+01  0.31664500790E+01  0.00000000000E+00 0. -1.
         -4    1    1    2    0  501  0.16496819171E+01  0.16154034118E+01 -0.65107537931E+01  0.69080310917E+01  0.00000000000E+00 0.  1.
<mgrwt>
<rscale>  0 0.23088912E+01</rscale>
<asrwt>0</asrwt>
<pdfrwt beam="1">0</pdfrwt>
<pdfrwt beam="2">0</pdfrwt>
<totfact> 0.69846087E+11</totfact>
</mgrwt>
</event>
<event>
 4    2  0.2027839E+006  0.2069772E+01  0.7546771E-02  0.2935170E+00
         22   -1    0    0    0    0  0.00000000000E+00  0.00000000000E+00  0.84121176026E+01  0.84121176026E+01  0.00000000000E+00 0.  1.
         22   -1    0    0    0    0 -0.00000000000E+00 -0.00000000000E+00 -0.82206214407E+00  0.82206214407E+00  0.00000000000E+00 0. -1.
          4    1    1    2  501    0 -0.14007545158E+01  0.15237590516E+01  0.66430991547E+01  0.69580687867E+01  0.00000000000E+00 0.  1.
         -4    1    1    2    0  501  0.14007545158E+01 -0.15237590516E+01  0.94695630386E+00  0.22761109600E+01  0.00000000000E+00 0. -1.
<mgrwt>
<rscale>  0 0.20697717E+01</rscale>
<asrwt>0</asrwt>
<pdfrwt beam="1">0</pdfrwt>
<pdfrwt beam="2">0</pdfrwt>
<totfact> 0.24442638E+12</totfact>
</mgrwt>
</event>
<event>
 4    2  0.2027839E+006  0.2699030E+01  0.7546771E-02  0.2626796E+00
         22   -1    0    0    0    0  0.00000000000E+00  0.00000000000E+00  0.18584387576E+02  0.18584387576E+02  0.00000000000E+00 0.  1.
         22   -1    0    0    0    0 -0.00000000000E+00 -0.00000000000E+00 -0.13695821764E+01  0.13695821764E+01  0.00000000000E+00 0. -1.
          4    1    1    2  501    0 -0.12866030036E+01 -0.23726387795E+01  0.17036589971E+02  0.17249062581E+02  0.00000000000E+00 0.  1.
         -4    1    1    2    0  501  0.12866030036E+01  0.23726387795E+01  0.17821542804E+00  0.27049071714E+01  0.00000000000E+00 0. -1.
<mgrwt>
<rscale>  0 0.26990298E+01</rscale>
<asrwt>0</asrwt>
<pdfrwt beam="1">0</pdfrwt>
<pdfrwt beam="2">0</pdfrwt>
<totfact> 0.51775446E+11</totfact>
</mgrwt>
</event>
<event>
 4    2  0.2027839E+006  0.5551712E+01  0.7546771E-02  0.2062388E+00
         22   -1    0    0    0    0  0.00000000000E+00  0.00000000000E+00  0.45451771149E+02  0.45451771149E+02  0.00000000000E+00 0. -1.
         22   -1    0    0    0    0 -0.00000000000E+00 -0.00000000000E+00 -0.17038376333E+01  0.17038376333E+01  0.00000000000E+00 0.  1.
          4    1    1    2  501    0 -0.47690403325E+01 -0.28421396374E+01  0.40167784164E+02  0.40549628704E+02  0.00000000000E+00 0. -1.
         -4    1    1    2    0  501  0.47690403325E+01  0.28421396374E+01  0.35801493519E+01  0.66059800783E+01  0.00000000000E+00 0.  1.
<mgrwt>
<rscale>  0 0.55517118E+01</rscale>
<asrwt>0</asrwt>
<pdfrwt beam="1">0</pdfrwt>
<pdfrwt beam="2">0</pdfrwt>
<totfact> 0.12893891E+11</totfact>
</mgrwt>
</event>
<event>
 4    2  0.2027839E+006  0.2936870E+01  0.7546771E-02  0.2542514E+00
         22   -1    0    0    0    0  0.00000000000E+00  0.00000000000E+00  0.65106570375E+02  0.65106570375E+02  0.00000000000E+00 0. -1.
         22   -1    0    0    0    0 -0.00000000000E+00 -0.00000000000E+00 -0.49362673262E+00  0.49362673262E+00  0.00000000000E+00 0.  1.
          4    1    1    2  501    0  0.54290026540E+00  0.28862541186E+01  0.60362017446E+02  0.60433420834E+02  0.00000000000E+00 0. -1.
         -4    1    1    2    0  501 -0.54290026540E+00 -0.28862541186E+01  0.42509261960E+01  0.51667762734E+01  0.00000000000E+00 0.  1.
<mgrwt>
<rscale>  0 0.29368697E+01</rscale>
<asrwt>0</asrwt>
<pdfrwt beam="1">0</pdfrwt>
<pdfrwt beam="2">0</pdfrwt>
<totfact> 0.32868709E+11</totfact>
</mgrwt>
</event>
<event>
 4    2  0.2027839E+006  0.2062514E+01  0.7546771E-02  0.2939768E+00
         22   -1    0    0    0    0  0.00000000000E+00  0.00000000000E+00  0.33225748435E+02  0.33225748435E+02  0.00000000000E+00 0. -1.
         22   -1    0    0    0    0 -0.00000000000E+00 -0.00000000000E+00 -0.34993852910E+00  0.34993852910E+00  0.00000000000E+00 0.  1.
          4    1    1    2  501    0  0.78062895360E+00  0.19090793163E+01  0.29806441972E+02  0.29877716587E+02  0.00000000000E+00 0. -1.
         -4    1    1    2    0  501 -0.78062895360E+00 -0.19090793163E+01  0.30693679338E+01  0.36979703774E+01  0.00000000000E+00 0.  1.
<mgrwt>
<rscale>  0 0.20625143E+01</rscale>
<asrwt>0</asrwt>
<pdfrwt beam="1">0</pdfrwt>
<pdfrwt beam="2">0</pdfrwt>
<totfact> 0.11709968E+12</totfact>
</mgrwt>
</event>
<event>
 4    2  0.2027839E+006  0.2049697E+01  0.7546771E-02  0.2947967E+00
         22   -1    0    0    0    0  0.00000000000E+00  0.00000000000E+00  0.19861662316E+01  0.19861662316E+01  0.00000000000E+00 0.  1.
         22   -1    0    0    0    0 -0.00000000000E+00 -0.00000000000E+00 -0.32911094430E+01  0.32911094430E+01  0.00000000000E+00 0. -1.
          4    1    1    2  501    0  0.20454979243E+01 -0.13113998970E+00  0.92471959528E+00  0.22486364279E+01  0.00000000000E+00 0.  1.
         -4    1    1    2    0  501 -0.20454979243E+01  0.13113998970E+00 -0.22296628067E+01  0.30286392467E+01  0.00000000000E+00 0. -1.
<mgrwt>
<rscale>  0 0.20496974E+01</rscale>
<asrwt>0</asrwt>
<pdfrwt beam="1">0</pdfrwt>
<pdfrwt beam="2">0</pdfrwt>
<totfact> 0.27043800E+12</totfact>
</mgrwt>
</event>
<event>
 4    2  0.2027839E+006  0.2274216E+01  0.7546771E-02  0.2817298E+00
         22   -1    0    0    0    0  0.00000000000E+00  0.00000000000E+00  0.30986342073E+02  0.30986342073E+02  0.00000000000E+00 0. -1.
         22   -1    0    0    0    0 -0.00000000000E+00 -0.00000000000E+00 -0.45041060169E+00  0.45041060169E+00  0.00000000000E+00 0.  1.
          4    1    1    2  501    0 -0.55972514626E+00 -0.22042604907E+01  0.27738275844E+02  0.27831349291E+02  0.00000000000E+00 0. -1.
         -4    1    1    2    0  501  0.55972514626E+00  0.22042604907E+01  0.27976556267E+01  0.36054033832E+01  0.00000000000E+00 0.  1.
<mgrwt>
<rscale>  0 0.22742156E+01</rscale>
<asrwt>0</asrwt>
<pdfrwt beam="1">0</pdfrwt>
<pdfrwt beam="2">0</pdfrwt>
<totfact> 0.96379119E+11</totfact>
</mgrwt>
</event>
<event>
 4    2  0.2027839E+006  0.7001776E+01  0.7546771E-02  0.1940004E+00
         22   -1    0    0    0    0  0.00000000000E+00  0.00000000000E+00  0.14020872404E+01  0.14020872404E+01  0.00000000000E+00 0.  1.
         22   -1    0    0    0    0 -0.00000000000E+00 -0.00000000000E+00 -0.52062741312E+02  0.52062741312E+02  0.00000000000E+00 0. -1.
          4    1    1    2  501    0 -0.69943917733E+01  0.32148510302E+00 -0.10011130470E+02  0.12216693588E+02  0.00000000000E+00 0.  1.
         -4    1    1    2    0  501  0.69943917733E+01 -0.32148510302E+00 -0.40649523601E+02  0.41248134964E+02  0.00000000000E+00 0. -1.
<mgrwt>
<rscale>  0 0.70017761E+01</rscale>
<asrwt>0</asrwt>
<pdfrwt beam="1">0</pdfrwt>
<pdfrwt beam="2">0</pdfrwt>
<totfact> 0.13496558E+11</totfact>
</mgrwt>
</event>
<event>
 4    2  0.2027839E+006  0.2133143E+01  0.7546771E-02  0.2896306E+00
         22   -1    0    0    0    0  0.00000000000E+00  0.00000000000E+00  0.24004750975E+02  0.24004750975E+02  0.00000000000E+00 0.  1.
         22   -1    0    0    0    0 -0.00000000000E+00 -0.00000000000E+00 -0.35609304701E+00  0.35609304701E+00  0.00000000000E+00 0. -1.
          4    1    1    2  501    0 -0.87939892251E+00  0.19434391726E+01  0.20154100711E+02  0.20266673969E+02  0.00000000000E+00 0.  1.
         -4    1    1    2    0  501  0.87939892251E+00 -0.19434391726E+01  0.34945572165E+01  0.40941700529E+01  0.00000000000E+00 0. -1.
<mgrwt>
<rscale>  0 0.21331428E+01</rscale>
<asrwt>0</asrwt>
<pdfrwt beam="1">0</pdfrwt>
<pdfrwt beam="2">0</pdfrwt>
<totfact> 0.17352891E+12</totfact>
</mgrwt>
</event>
<event>
 4    2  0.2027839E+006  0.2321639E+01  0.7546771E-02  0.2792799E+00
         22   -1    0    0    0    0  0.00000000000E+00  0.00000000000E+00  0.31736627425E+02  0.31736627425E+02  0.00000000000E+00 0. -1.
         22   -1    0    0    0    0 -0.00000000000E+00 -0.00000000000E+00 -0.23991679239E+00  0.23991679239E+00  0.00000000000E+00 0.  1.
          4    1    1    2  501    0 -0.10482393275E+01  0.20715218434E+01  0.24389514785E+02  0.24499764078E+02  0.00000000000E+00 0. -1.
         -4    1    1    2    0  501  0.10482393275E+01 -0.20715218434E+01  0.71071958483E+01  0.74767801400E+01  0.00000000000E+00 0.  1.
<mgrwt>
<rscale>  0 0.23216392E+01</rscale>
<asrwt>0</asrwt>
<pdfrwt beam="1">0</pdfrwt>
<pdfrwt beam="2">0</pdfrwt>
<totfact> 0.18958796E+12</totfact>
</mgrwt>
</event>
<event>
 4    2  0.2027839E+006  0.2110030E+01  0.7546771E-02  0.2910218E+00
         22   -1    0    0    0    0  0.00000000000E+00  0.00000000000E+00  0.28394553020E+01  0.28394553020E+01  0.00000000000E+00 0.  1.
         22   -1    0    0    0    0 -0.00000000000E+00 -0.00000000000E+00 -0.25519665721E+01  0.25519665721E+01  0.00000000000E+00 0. -1.
          4    1    1    2  501    0 -0.18212307931E+01 -0.10655261418E+01  0.18176423366E+01  0.27849688013E+01  0.00000000000E+00 0.  1.
         -4    1    1    2    0  501  0.18212307931E+01  0.10655261418E+01 -0.15301536067E+01  0.26064530728E+01  0.00000000000E+00 0. -1.
<mgrwt>
<rscale>  0 0.21100302E+01</rscale>
<asrwt>0</asrwt>
<pdfrwt beam="1">0</pdfrwt>
<pdfrwt beam="2">0</pdfrwt>
<totfact> 0.24025486E+12</totfact>
</mgrwt>
</event>
<event>
 4    2  0.2027839E+006  0.2104627E+01  0.7546771E-02  0.2913513E+00
         22   -1    0    0    0    0  0.00000000000E+00  0.00000000000E+00  0.96135708955E+00  0.96135708955E+00  0.00000000000E+00 0.  1.
         22   -1    0    0    0    0 -0.00000000000E+00 -0.00000000000E+00 -0.16440071838E+02  0.16440071838E+02  0.00000000000E+00 0. -1.
          4    1    1    2  501    0  0.15969637959E+01  0.13708251623E+01 -0.35789188135E+00  0.21348399448E+01  0.00000000000E+00 0.  1.
         -4    1    1    2    0  501 -0.15969637959E+01 -0.13708251623E+01 -0.15120822867E+02  0.15266588983E+02  0.00000000000E+00 0. -1.
<mgrwt>
<rscale>  0 0.21046270E+01</rscale>
<asrwt>0</asrwt>
<pdfrwt beam="1">0</pdfrwt>
<pdfrwt beam="2">0</pdfrwt>
<totfact> 0.90369694E+11</totfact>
</mgrwt>
</event>
<event>
 4    2  0.2027839E+006  0.2342478E+01  0.7546771E-02  0.2782332E+00
         22   -1    0    0    0    0  0.00000000000E+00  0.00000000000E+00  0.67068305384E+01  0.67068305384E+01  0.00000000000E+00 0.  1.
         22   -1    0    0    0    0 -0.00000000000E+00 -0.00000000000E+00 -0.11096510658E+01  0.11096510658E+01  0.00000000000E+00 0. -1.
          4    1    1    2  501    0 -0.12431996360E+01 -0.19853607011E+01  0.48017106542E+01  0.53426236678E+01  0.00000000000E+00 0.  1.
         -4    1    1    2    0  501  0.12431996360E+01  0.19853607011E+01  0.79546881838E+00  0.24738579364E+01  0.00000000000E+00 0. -1.
<mgrwt>
<rscale>  0 0.23424778E+01</rscale>
<asrwt>0</asrwt>
<pdfrwt beam="1">0</pdfrwt>
<pdfrwt beam="2">0</pdfrwt>
<totfact> 0.22775819E+12</totfact>
</mgrwt>
</event>
<event>
 4    2  0.2027839E+006  0.2774223E+01  0.7546771E-02  0.2598732E+00
         22   -1    0    0    0    0  0.00000000000E+00  0.00000000000E+00  0.44353619037E+00  0.44353619037E+00  0.00000000000E+00 0.  1.
         22   -1    0    0    0    0 -0.00000000000E+00 -0.00000000000E+00 -0.27671517639E+02  0.27671517639E+02  0.00000000000E+00 0. -1.
          4    1    1    2  501    0  0.26921974416E+01 -0.66961827823E+00 -0.50294208384E+01  0.57438131649E+01  0.00000000000E+00 0.  1.
         -4    1    1    2    0  501 -0.26921974416E+01  0.66961827823E+00 -0.22198560611E+02  0.22371240665E+02  0.00000000000E+00 0. -1.
<mgrwt>
<rscale>  0 0.27742234E+01</rscale>
<asrwt>0</asrwt>
<pdfrwt beam="1">0</pdfrwt>
<pdfrwt beam="2">0</pdfrwt>
<totfact> 0.11325767E+12</totfact>
</mgrwt>
</event>
<event>
 4    2  0.2027839E+006  0.2024373E+01  0.7546771E-02  0.2964465E+00
         22   -1    0    0    0    0  0.00000000000E+00  0.00000000000E+00  0.36621247924E+00  0.36621247924E+00  0.00000000000E+00 0.  1.
         22   -1    0    0    0    0 -0.00000000000E+00 -0.00000000000E+00 -0.12793727103E+02  0.12793727103E+02  0.00000000000E+00 0. -1.
          4    1    1    2  501    0  0.42142005064E+00 -0.19800230618E+01 -0.38844420721E+01  0.43802940992E+01  0.00000000000E+00 0. -1.
         -4    1    1    2    0  501 -0.42142005064E+00  0.19800230618E+01 -0.85430725522E+01  0.87796454835E+01  0.00000000000E+00 0.  1.
<mgrwt>
<rscale>  0 0.20243730E+01</rscale>
<asrwt>0</asrwt>
<pdfrwt beam="1">0</pdfrwt>
<pdfrwt beam="2">0</pdfrwt>
<totfact> 0.36683643E+12</totfact>
</mgrwt>
</event>
<event>
 4    2  0.2027839E+006  0.2180986E+01  0.7546771E-02  0.2868413E+00
         22   -1    0    0    0    0  0.00000000000E+00  0.00000000000E+00  0.58391643909E+00  0.58391643909E+00  0.00000000000E+00 0.  1.
         22   -1    0    0    0    0 -0.00000000000E+00 -0.00000000000E+00 -0.82654908423E+01  0.82654908423E+01  0.00000000000E+00 0. -1.
          4    1    1    2  501    0 -0.10726156730E+01  0.18989989201E+01 -0.33092303465E+01  0.39632949382E+01  0.00000000000E+00 0.  1.
         -4    1    1    2    0  501  0.10726156730E+01 -0.18989989201E+01 -0.43723440567E+01  0.48861123432E+01  0.00000000000E+00 0. -1.
<mgrwt>
<rscale>  0 0.21809863E+01</rscale>
<asrwt>0</asrwt>
<pdfrwt beam="1">0</pdfrwt>
<pdfrwt beam="2">0</pdfrwt>
<totfact> 0.36808744E+12</totfact>
</mgrwt>
</event>
<event>
 4    2  0.2027839E+006  0.2973481E+01  0.7546771E-02  0.2530627E+00
         22   -1    0    0    0    0  0.00000000000E+00  0.00000000000E+00  0.54136080897E+01  0.54136080897E+01  0.00000000000E+00 0.  1.
         22   -1    0    0    0    0 -0.00000000000E+00 -0.00000000000E+00 -0.37169520429E+01  0.37169520429E+01  0.00000000000E+00 0. -1.
          4    1    1    2  501    0 -0.27670435153E+01 -0.10886053013E+01  0.42665109378E+01  0.52004525668E+01  0.00000000000E+00 0.  1.
         -4    1    1    2    0  501  0.27670435153E+01  0.10886053013E+01 -0.25698548910E+01  0.39301075657E+01  0.00000000000E+00 0. -1.
<mgrwt>
<rscale>  0 0.29734813E+01</rscale>
<asrwt>0</asrwt>
<pdfrwt beam="1">0</pdfrwt>
<pdfrwt beam="2">0</pdfrwt>
<totfact> 0.72465875E+11</totfact>
</mgrwt>
</event>
<event>
 4    2  0.2027839E+006  0.4446347E+01  0.7546771E-02  0.2199314E+00
         22   -1    0    0    0    0  0.00000000000E+00  0.00000000000E+00  0.68821451321E+00  0.68821451321E+00  0.00000000000E+00 0.  1.
         22   -1    0    0    0    0 -0.00000000000E+00 -0.00000000000E+00 -0.37354422110E+02  0.37354422110E+02  0.00000000000E+00 0. -1.
          4    1    1    2  501    0 -0.44445413972E+01  0.12671608778E+00 -0.91915018176E+01  0.10210470648E+02  0.00000000000E+00 0.  1.
         -4    1    1    2    0  501  0.44445413972E+01 -0.12671608778E+00 -0.27474705779E+02  0.27832165975E+02  0.00000000000E+00 0. -1.
<mgrwt>
<rscale>  0 0.44463474E+01</rscale>
<asrwt>0</asrwt>
<pdfrwt beam="1">0</pdfrwt>
<pdfrwt beam="2">0</pdfrwt>
<totfact> 0.46936935E+11</totfact>
</mgrwt>
</event>
<event>
 4    2  0.2027839E+006  0.2090113E+01  0.7546771E-02  0.2922446E+00
         22   -1    0    0    0    0  0.00000000000E+00  0.00000000000E+00  0.10674275508E+02  0.10674275508E+02  0.00000000000E+00 0.  1.
         22   -1    0    0    0    0 -0.00000000000E+00 -0.00000000000E+00 -0.41265219355E+00  0.41265219355E+00  0.00000000000E+00 0. -1.
          4    1    1    2  501    0 -0.12064131120E+01 -0.17067918970E+01  0.46283228556E+01  0.50783800204E+01  0.00000000000E+00 0. -1.
         -4    1    1    2    0  501  0.12064131120E+01  0.17067918970E+01  0.56333004585E+01  0.60085476808E+01  0.00000000000E+00 0.  1.
<mgrwt>
<rscale>  0 0.20901127E+01</rscale>
<asrwt>0</asrwt>
<pdfrwt beam="1">0</pdfrwt>
<pdfrwt beam="2">0</pdfrwt>
<totfact> 0.39990325E+12</totfact>
</mgrwt>
</event>
<event>
 4    2  0.2027839E+006  0.2011990E+01  0.7546771E-02  0.2972679E+00
         22   -1    0    0    0    0  0.00000000000E+00  0.00000000000E+00  0.11205306714E+00  0.11205306714E+00  0.00000000000E+00 0. -1.
         22   -1    0    0    0    0 -0.00000000000E+00 -0.00000000000E+00 -0.43117452821E+02  0.43117452821E+02  0.00000000000E+00 0.  1.
          4    1    1    2  501    0 -0.10236067609E+01 -0.17321474765E+01 -0.12799354537E+02  0.12956526628E+02  0.00000000000E+00 0. -1.
         -4    1    1    2    0  501  0.10236067609E+01  0.17321474765E+01 -0.30206045217E+02  0.30272979261E+02  0.00000000000E+00 0.  1.
<mgrwt>
<rscale>  0 0.20119905E+01</rscale>
<asrwt>0</asrwt>
<pdfrwt beam="1">0</pdfrwt>
<pdfrwt beam="2">0</pdfrwt>
<totfact> 0.29779759E+12</totfact>
</mgrwt>
</event>
<event>
 4    2  0.2027839E+006  0.2832453E+01  0.7546771E-02  0.2577933E+00
         22   -1    0    0    0    0  0.00000000000E+00  0.00000000000E+00  0.24956871589E+01  0.24956871589E+01  0.00000000000E+00 0.  1.
         22   -1    0    0    0    0 -0.00000000000E+00 -0.00000000000E+00 -0.61374918564E+01  0.61374918564E+01  0.00000000000E+00 0. -1.
          4    1    1    2  501    0 -0.20921888884E+01 -0.19093291587E+01  0.11579364988E+01  0.30600014896E+01  0.00000000000E+00 0.  1.
         -4    1    1    2    0  501  0.20921888884E+01  0.19093291587E+01 -0.47997411963E+01  0.55731775257E+01  0.00000000000E+00 0. -1.
<mgrwt>
<rscale>  0 0.28324534E+01</rscale>
<asrwt>0</asrwt>
<pdfrwt beam="1">0</pdfrwt>
<pdfrwt beam="2">0</pdfrwt>
<totfact> 0.99427694E+11</totfact>
</mgrwt>
</event>
<event>
 4    2  0.2027839E+006  0.3406013E+01  0.7546771E-02  0.2407606E+00
         22   -1    0    0    0    0  0.00000000000E+00  0.00000000000E+00  0.30090933869E+01  0.30090933869E+01  0.00000000000E+00 0. -1.
         22   -1    0    0    0    0 -0.00000000000E+00 -0.00000000000E+00 -0.40980435644E+01  0.40980435644E+01  0.00000000000E+00 0.  1.
          4    1    1    2  501    0  0.32840886902E+00  0.33901438081E+01  0.32041172481E+00  0.34210511687E+01  0.00000000000E+00 0. -1.
         -4    1    1    2    0  501 -0.32840886902E+00 -0.33901438081E+01 -0.14093619023E+01  0.36860857826E+01  0.00000000000E+00 0.  1.
<mgrwt>
<rscale>  0 0.34060134E+01</rscale>
<asrwt>0</asrwt>
<pdfrwt beam="1">0</pdfrwt>
<pdfrwt beam="2">0</pdfrwt>
<totfact> 0.12898178E+12</totfact>
</mgrwt>
</event>
<event>
 4    2  0.2027839E+006  0.2065960E+01  0.7546771E-02  0.2937581E+00
         22   -1    0    0    0    0  0.00000000000E+00  0.00000000000E+00  0.12986434186E+02  0.12986434186E+02  0.00000000000E+00 0.  1.
         22   -1    0    0    0    0 -0.00000000000E+00 -0.00000000000E+00 -0.34156094459E+00  0.34156094459E+00  0.00000000000E+00 0. -1.
          4    1    1    2  501    0  0.18764725561E+01  0.86431583293E+00  0.50275814815E+01  0.54355097889E+01  0.00000000000E+00 0. -1.
         -4    1    1    2    0  501 -0.18764725561E+01 -0.86431583293E+00  0.76172917603E+01  0.78924853420E+01  0.00000000000E+00 0.  1.
<mgrwt>
<rscale>  0 0.20659601E+01</rscale>
<asrwt>0</asrwt>
<pdfrwt beam="1">0</pdfrwt>
<pdfrwt beam="2">0</pdfrwt>
<totfact> 0.38953660E+12</totfact>
</mgrwt>
</event>
<event>
 4    2  0.2027839E+006  0.2623095E+01  0.7546771E-02  0.2656629E+00
         22   -1    0    0    0    0  0.00000000000E+00  0.00000000000E+00  0.31140096455E+02  0.31140096455E+02  0.00000000000E+00 0. -1.
         22   -1    0    0    0    0 -0.00000000000E+00 -0.00000000000E+00 -0.25982935356E+00  0.25982935356E+00  0.00000000000E+00 0.  1.
          4    1    1    2  501    0 -0.10233475925E+01  0.24152410293E+01  0.21512719083E+02  0.21672049093E+02  0.00000000000E+00 0. -1.
         -4    1    1    2    0  501  0.10233475925E+01 -0.24152410293E+01  0.93675480182E+01  0.97278767158E+01  0.00000000000E+00 0.  1.
<mgrwt>
<rscale>  0 0.26230954E+01</rscale>
<asrwt>0</asrwt>
<pdfrwt beam="1">0</pdfrwt>
<pdfrwt beam="2">0</pdfrwt>
<totfact> 0.17767309E+12</totfact>
</mgrwt>
</event>
<event>
 4    2  0.2027839E+006  0.2454568E+01  0.7546771E-02  0.2728905E+00
         22   -1    0    0    0    0  0.00000000000E+00  0.00000000000E+00  0.11080943881E+00  0.11080943881E+00  0.00000000000E+00 0.  1.
         22   -1    0    0    0    0 -0.00000000000E+00 -0.00000000000E+00 -0.71292837131E+02  0.71292837131E+02  0.00000000000E+00 0. -1.
          4    1    1    2  501    0 -0.17747334431E+01  0.16956489526E+01 -0.18197735175E+02  0.18362528956E+02  0.00000000000E+00 0.  1.
         -4    1    1    2    0  501  0.17747334431E+01 -0.16956489526E+01 -0.52984292518E+02  0.53041117614E+02  0.00000000000E+00 0. -1.
<mgrwt>
<rscale>  0 0.24545680E+01</rscale>
<asrwt>0</asrwt>
<pdfrwt beam="1">0</pdfrwt>
<pdfrwt beam="2">0</pdfrwt>
<totfact> 0.15445013E+12</totfact>
</mgrwt>
</event>
<event>
 4    2  0.2027839E+006  0.2612993E+01  0.7546771E-02  0.2660718E+00
         22   -1    0    0    0    0  0.00000000000E+00  0.00000000000E+00  0.17119844533E+01  0.17119844533E+01  0.00000000000E+00 0.  1.
         22   -1    0    0    0    0 -0.00000000000E+00 -0.00000000000E+00 -0.18819873224E+02  0.18819873224E+02  0.00000000000E+00 0. -1.
          4    1    1    2  501    0 -0.15146739141E+01  0.21292007072E+01  0.55955163712E+00  0.26722332893E+01  0.00000000000E+00 0.  1.
         -4    1    1    2    0  501  0.15146739141E+01 -0.21292007072E+01 -0.17667440408E+02  0.17859624388E+02  0.00000000000E+00 0. -1.
<mgrwt>
<rscale>  0 0.26129931E+01</rscale>
<asrwt>0</asrwt>
<pdfrwt beam="1">0</pdfrwt>
<pdfrwt beam="2">0</pdfrwt>
<totfact> 0.39424696E+11</totfact>
</mgrwt>
</event>
<event>
 4    2  0.2027839E+006  0.2711913E+01  0.7546771E-02  0.2621887E+00
         22   -1    0    0    0    0  0.00000000000E+00  0.00000000000E+00  0.40515003666E+01  0.40515003666E+01  0.00000000000E+00 0. -1.
         22   -1    0    0    0    0 -0.00000000000E+00 -0.00000000000E+00 -0.18403525897E+01  0.18403525897E+01  0.00000000000E+00 0.  1.
          4    1    1    2  501    0 -0.23017301038E+01  0.14340546376E+01  0.76149661920E+00  0.28167980538E+01  0.00000000000E+00 0. -1.
         -4    1    1    2    0  501  0.23017301038E+01 -0.14340546376E+01  0.14496511577E+01  0.30750549025E+01  0.00000000000E+00 0.  1.
<mgrwt>
<rscale>  0 0.27119134E+01</rscale>
<asrwt>0</asrwt>
<pdfrwt beam="1">0</pdfrwt>
<pdfrwt beam="2">0</pdfrwt>
<totfact> 0.23143062E+12</totfact>
</mgrwt>
</event>
<event>
 4    2  0.2027839E+006  0.4337324E+01  0.7546771E-02  0.2217106E+00
         22   -1    0    0    0    0  0.00000000000E+00  0.00000000000E+00  0.19630853364E+02  0.19630853364E+02  0.00000000000E+00 0. -1.
         22   -1    0    0    0    0 -0.00000000000E+00 -0.00000000000E+00 -0.14637326463E+01  0.14637326463E+01  0.00000000000E+00 0.  1.
          4    1    1    2  501    0 -0.24091030228E+01  0.36067438429E+01  0.15281379415E+02  0.15884990883E+02  0.00000000000E+00 0. -1.
         -4    1    1    2    0  501  0.24091030228E+01 -0.36067438429E+01  0.28857413019E+01  0.52095951267E+01  0.00000000000E+00 0.  1.
<mgrwt>
<rscale>  0 0.43373239E+01</rscale>
<asrwt>0</asrwt>
<pdfrwt beam="1">0</pdfrwt>
<pdfrwt beam="2">0</pdfrwt>
<totfact> 0.44807002E+11</totfact>
</mgrwt>
</event>
<event>
 4    2  0.2027839E+006  0.3006896E+01  0.7546771E-02  0.2520005E+00
         22   -1    0    0    0    0  0.00000000000E+00  0.00000000000E+00  0.21986885468E+02  0.21986885468E+02  0.00000000000E+00 0.  1.
         22   -1    0    0    0    0 -0.00000000000E+00 -0.00000000000E+00 -0.68107889463E+00  0.68107889463E+00  0.00000000000E+00 0. -1.
          4    1    1    2  501    0 -0.21246425739E+01  0.21277487525E+01  0.17787232443E+02  0.18039596969E+02  0.00000000000E+00 0.  1.
         -4    1    1    2    0  501  0.21246425739E+01 -0.21277487525E+01  0.35185741308E+01  0.46283673941E+01  0.00000000000E+00 0. -1.
<mgrwt>
<rscale>  0 0.30068955E+01</rscale>
<asrwt>0</asrwt>
<pdfrwt beam="1">0</pdfrwt>
<pdfrwt beam="2">0</pdfrwt>
<totfact> 0.93177728E+11</totfact>
</mgrwt>
</event>
<event>
 4    2  0.2027839E+006  0.2015246E+01  0.7546771E-02  0.2970510E+00
         22   -1    0    0    0    0  0.00000000000E+00  0.00000000000E+00  0.27669741898E+02  0.27669741898E+02  0.00000000000E+00 0. -1.
         22   -1    0    0    0    0 -0.00000000000E+00 -0.00000000000E+00 -0.19179339559E+00  0.19179339559E+00  0.00000000000E+00 0.  1.
          4    1    1    2  501    0 -0.18946718371E+01 -0.68661067058E+00  0.69897305329E+01  0.72744448933E+01  0.00000000000E+00 0.  1.
         -4    1    1    2    0  501  0.18946718371E+01  0.68661067058E+00  0.20488217969E+02  0.20587090400E+02  0.00000000000E+00 0. -1.
<mgrwt>
<rscale>  0 0.20152458E+01</rscale>
<asrwt>0</asrwt>
<pdfrwt beam="1">0</pdfrwt>
<pdfrwt beam="2">0</pdfrwt>
<totfact> 0.28985103E+12</totfact>
</mgrwt>
</event>
<event>
 4    2  0.2027839E+006  0.2057007E+01  0.7546771E-02  0.2943279E+00
         22   -1    0    0    0    0  0.00000000000E+00  0.00000000000E+00  0.23357985276E+02  0.23357985276E+02  0.00000000000E+00 0. -1.
         22   -1    0    0    0    0 -0.00000000000E+00 -0.00000000000E+00 -0.11591774043E+01  0.11591774043E+01  0.00000000000E+00 0.  1.
          4    1    1    2  501    0 -0.97848411757E-01 -0.20546784346E+01  0.22359470908E+02  0.22453890912E+02  0.00000000000E+00 0. -1.
         -4    1    1    2    0  501  0.97848411757E-01  0.20546784346E+01 -0.16066303619E+00  0.20632717689E+01  0.00000000000E+00 0.  1.
<mgrwt>
<rscale>  0 0.20570070E+01</rscale>
<asrwt>0</asrwt>
<pdfrwt beam="1">0</pdfrwt>
<pdfrwt beam="2">0</pdfrwt>
<totfact> 0.47106744E+11</totfact>
</mgrwt>
</event>
<event>
 4    2  0.2027839E+006  0.5003875E+01  0.7546771E-02  0.2122541E+00
         22   -1    0    0    0    0  0.00000000000E+00  0.00000000000E+00  0.21742631785E+01  0.21742631785E+01  0.00000000000E+00 0.  1.
         22   -1    0    0    0    0 -0.00000000000E+00 -0.00000000000E+00 -0.15027875126E+02  0.15027875126E+02  0.00000000000E+00 0. -1.
          4    1    1    2  501    0 -0.48453647935E+01  0.12494814825E+01 -0.10584711601E+02  0.11707898344E+02  0.00000000000E+00 0. -1.
         -4    1    1    2    0  501  0.48453647935E+01 -0.12494814825E+01 -0.22689003457E+01  0.54942399598E+01  0.00000000000E+00 0.  1.
<mgrwt>
<rscale>  0 0.50038749E+01</rscale>
<asrwt>0</asrwt>
<pdfrwt beam="1">0</pdfrwt>
<pdfrwt beam="2">0</pdfrwt>
<totfact> 0.39498519E+11</totfact>
</mgrwt>
</event>
<event>
 4    2  0.2027839E+006  0.2975159E+01  0.7546771E-02  0.2530089E+00
         22   -1    0    0    0    0  0.00000000000E+00  0.00000000000E+00  0.16061992769E+02  0.16061992769E+02  0.00000000000E+00 0.  1.
         22   -1    0    0    0    0 -0.00000000000E+00 -0.00000000000E+00 -0.55448553360E+00  0.55448553360E+00  0.00000000000E+00 0. -1.
          4    1    1    2  501    0 -0.28650049950E+01 -0.80207092508E+00  0.71034052096E+01  0.77012944991E+01  0.00000000000E+00 0. -1.
         -4    1    1    2    0  501  0.28650049950E+01  0.80207092508E+00  0.84041020262E+01  0.89151838039E+01  0.00000000000E+00 0.  1.
<mgrwt>
<rscale>  0 0.29751591E+01</rscale>
<asrwt>0</asrwt>
<pdfrwt beam="1">0</pdfrwt>
<pdfrwt beam="2">0</pdfrwt>
<totfact> 0.17379110E+12</totfact>
</mgrwt>
</event>
<event>
 4    2  0.2027839E+006  0.2463226E+01  0.7546771E-02  0.2724968E+00
         22   -1    0    0    0    0  0.00000000000E+00  0.00000000000E+00  0.40998415398E+01  0.40998415398E+01  0.00000000000E+00 0.  1.
         22   -1    0    0    0    0 -0.00000000000E+00 -0.00000000000E+00 -0.63140078851E+01  0.63140078851E+01  0.00000000000E+00 0. -1.
          4    1    1    2  501    0 -0.20620561817E+01 -0.13473701604E+01  0.34489357686E+01  0.42382354798E+01  0.00000000000E+00 0.  1.
         -4    1    1    2    0  501  0.20620561817E+01  0.13473701604E+01 -0.56631021140E+01  0.61756139451E+01  0.00000000000E+00 0. -1.
<mgrwt>
<rscale>  0 0.24632259E+01</rscale>
<asrwt>0</asrwt>
<pdfrwt beam="1">0</pdfrwt>
<pdfrwt beam="2">0</pdfrwt>
<totfact> 0.53773793E+11</totfact>
</mgrwt>
</event>
<event>
 4    2  0.2027839E+006  0.3047561E+01  0.7546771E-02  0.2507361E+00
         22   -1    0    0    0    0  0.00000000000E+00  0.00000000000E+00  0.10748930366E+03  0.10748930366E+03  0.00000000000E+00 0.  1.
         22   -1    0    0    0    0 -0.00000000000E+00 -0.00000000000E+00 -0.47731051562E+00  0.47731051562E+00  0.00000000000E+00 0. -1.
          4    1    1    2  501    0 -0.28412941879E+01 -0.11021238655E+01  0.10235939719E+03  0.10240475488E+03  0.00000000000E+00 0.  1.
         -4    1    1    2    0  501  0.28412941879E+01  0.11021238655E+01  0.46525959588E+01  0.55618592964E+01  0.00000000000E+00 0. -1.
<mgrwt>
<rscale>  0 0.30475613E+01</rscale>
<asrwt>0</asrwt>
<pdfrwt beam="1">0</pdfrwt>
<pdfrwt beam="2">0</pdfrwt>
<totfact> 0.17076733E+11</totfact>
</mgrwt>
</event>
<event>
 4    2  0.2027839E+006  0.2328157E+01  0.7546771E-02  0.2789506E+00
         22   -1    0    0    0    0  0.00000000000E+00  0.00000000000E+00  0.44133727977E+01  0.44133727977E+01  0.00000000000E+00 0.  1.
         22   -1    0    0    0    0 -0.00000000000E+00 -0.00000000000E+00 -0.18421139447E+01  0.18421139447E+01  0.00000000000E+00 0. -1.
          4    1    1    2  501    0 -0.44776813681E+00 -0.22846925996E+01  0.30913131129E+01  0.38699526278E+01  0.00000000000E+00 0.  1.
         -4    1    1    2    0  501  0.44776813681E+00  0.22846925996E+01 -0.52005425991E+00  0.23855341147E+01  0.00000000000E+00 0. -1.
<mgrwt>
<rscale>  0 0.23281573E+01</rscale>
<asrwt>0</asrwt>
<pdfrwt beam="1">0</pdfrwt>
<pdfrwt beam="2">0</pdfrwt>
<totfact> 0.20899739E+12</totfact>
</mgrwt>
</event>
<event>
 4    2  0.2027839E+006  0.2082175E+01  0.7546771E-02  0.2927383E+00
         22   -1    0    0    0    0  0.00000000000E+00  0.00000000000E+00  0.14456329956E+00  0.14456329956E+00  0.00000000000E+00 0.  1.
         22   -1    0    0    0    0 -0.00000000000E+00 -0.00000000000E+00 -0.41145055515E+02  0.41145055515E+02  0.00000000000E+00 0. -1.
          4    1    1    2  501    0  0.16392780230E+01 -0.12838300166E+01 -0.97507499514E+01  0.99705855677E+01  0.00000000000E+00 0.  1.
         -4    1    1    2    0  501 -0.16392780230E+01  0.12838300166E+01 -0.31249742264E+02  0.31319033247E+02  0.00000000000E+00 0. -1.
<mgrwt>
<rscale>  0 0.20821748E+01</rscale>
<asrwt>0</asrwt>
<pdfrwt beam="1">0</pdfrwt>
<pdfrwt beam="2">0</pdfrwt>
<totfact> 0.23858078E+12</totfact>
</mgrwt>
</event>
<event>
 4    2  0.2027839E+006  0.2266747E+01  0.7546771E-02  0.2821244E+00
         22   -1    0    0    0    0  0.00000000000E+00  0.00000000000E+00  0.36509424444E+02  0.36509424444E+02  0.00000000000E+00 0. -1.
         22   -1    0    0    0    0 -0.00000000000E+00 -0.00000000000E+00 -0.73144230622E+00  0.73144230622E+00  0.00000000000E+00 0.  1.
          4    1    1    2  501    0 -0.20423090943E+01 -0.98342092834E+00  0.34622461686E+02  0.34696584794E+02  0.00000000000E+00 0. -1.
         -4    1    1    2    0  501  0.20423090943E+01  0.98342092834E+00  0.11555204518E+01  0.25442819563E+01  0.00000000000E+00 0.  1.
<mgrwt>
<rscale>  0 0.22667473E+01</rscale>
<asrwt>0</asrwt>
<pdfrwt beam="1">0</pdfrwt>
<pdfrwt beam="2">0</pdfrwt>
<totfact> 0.45110235E+11</totfact>
</mgrwt>
</event>
<event>
 4    2  0.2027839E+006  0.3263621E+01  0.7546771E-02  0.2444911E+00
         22   -1    0    0    0    0  0.00000000000E+00  0.00000000000E+00  0.40356826928E+01  0.40356826928E+01  0.00000000000E+00 0. -1.
         22   -1    0    0    0    0 -0.00000000000E+00 -0.00000000000E+00 -0.29881735442E+01  0.29881735442E+01  0.00000000000E+00 0.  1.
          4    1    1    2  501    0  0.17179816055E+01  0.27748441659E+01  0.17238087356E+01  0.36908992805E+01  0.00000000000E+00 0. -1.
         -4    1    1    2    0  501 -0.17179816055E+01 -0.27748441659E+01 -0.67629958696E+00  0.33329569564E+01  0.00000000000E+00 0.  1.
<mgrwt>
<rscale>  0 0.32636208E+01</rscale>
<asrwt>0</asrwt>
<pdfrwt beam="1">0</pdfrwt>
<pdfrwt beam="2">0</pdfrwt>
<totfact> 0.13240588E+12</totfact>
</mgrwt>
</event>
<event>
 4    2  0.2027839E+006  0.2110038E+01  0.7546771E-02  0.2910214E+00
         22   -1    0    0    0    0  0.00000000000E+00  0.00000000000E+00  0.29378607435E+01  0.29378607435E+01  0.00000000000E+00 0.  1.
         22   -1    0    0    0    0 -0.00000000000E+00 -0.00000000000E+00 -0.22294365906E+01  0.22294365906E+01  0.00000000000E+00 0. -1.
          4    1    1    2  501    0 -0.11784559841E+01 -0.17502862554E+01  0.18162973411E+01  0.27840970733E+01  0.00000000000E+00 0.  1.
         -4    1    1    2    0  501  0.11784559841E+01  0.17502862554E+01 -0.11078731881E+01  0.23832002608E+01  0.00000000000E+00 0. -1.
<mgrwt>
<rscale>  0 0.21100380E+01</rscale>
<asrwt>0</asrwt>
<pdfrwt beam="1">0</pdfrwt>
<pdfrwt beam="2">0</pdfrwt>
<totfact> 0.27013855E+12</totfact>
</mgrwt>
</event>
<event>
 4    2  0.2027839E+006  0.2780253E+01  0.7546771E-02  0.2596541E+00
         22   -1    0    0    0    0  0.00000000000E+00  0.00000000000E+00  0.15331942186E+02  0.15331942186E+02  0.00000000000E+00 0.  1.
         22   -1    0    0    0    0 -0.00000000000E+00 -0.00000000000E+00 -0.50423934387E+00  0.50423934387E+00  0.00000000000E+00 0. -1.
          4    1    1    2  501    0  0.12944240523E+01 -0.24605432090E+01  0.75109244768E+01  0.80089820206E+01  0.00000000000E+00 0.  1.
         -4    1    1    2    0  501 -0.12944240523E+01  0.24605432090E+01  0.73167783655E+01  0.78271995094E+01  0.00000000000E+00 0. -1.
<mgrwt>
<rscale>  0 0.27802530E+01</rscale>
<asrwt>0</asrwt>
<pdfrwt beam="1">0</pdfrwt>
<pdfrwt beam="2">0</pdfrwt>
<totfact> 0.20490811E+12</totfact>
</mgrwt>
</event>
<event>
 4    2  0.2027839E+006  0.2027388E+01  0.7546771E-02  0.2962480E+00
         22   -1    0    0    0    0  0.00000000000E+00  0.00000000000E+00  0.26763098401E+00  0.26763098401E+00  0.00000000000E+00 0.  1.
         22   -1    0    0    0    0 -0.00000000000E+00 -0.00000000000E+00 -0.23687718031E+02  0.23687718031E+02  0.00000000000E+00 0. -1.
          4    1    1    2  501    0 -0.18163083194E+01 -0.90073602745E+00 -0.46073407078E+01  0.50336755656E+01  0.00000000000E+00 0.  1.
         -4    1    1    2    0  501  0.18163083194E+01  0.90073602745E+00 -0.18812746339E+02  0.18921673449E+02  0.00000000000E+00 0. -1.
<mgrwt>
<rscale>  0 0.20273878E+01</rscale>
<asrwt>0</asrwt>
<pdfrwt beam="1">0</pdfrwt>
<pdfrwt beam="2">0</pdfrwt>
<totfact> 0.24307400E+12</totfact>
</mgrwt>
</event>
<event>
 4    2  0.2027839E+006  0.3265788E+01  0.7546771E-02  0.2444322E+00
         22   -1    0    0    0    0  0.00000000000E+00  0.00000000000E+00  0.67764688927E+00  0.67764688927E+00  0.00000000000E+00 0. -1.
         22   -1    0    0    0    0 -0.00000000000E+00 -0.00000000000E+00 -0.22299132071E+02  0.22299132071E+02  0.00000000000E+00 0.  1.
          4    1    1    2  501    0  0.48919279881E-01  0.32654211002E+01 -0.45794643401E+01  0.56246654745E+01  0.00000000000E+00 0. -1.
         -4    1    1    2    0  501 -0.48919279881E-01 -0.32654211002E+01 -0.17042020842E+02  0.17352113486E+02  0.00000000000E+00 0.  1.
<mgrwt>
<rscale>  0 0.32657875E+01</rscale>
<asrwt>0</asrwt>
<pdfrwt beam="1">0</pdfrwt>
<pdfrwt beam="2">0</pdfrwt>
<totfact> 0.92071944E+11</totfact>
</mgrwt>
</event>
<event>
 4    2  0.2027839E+006  0.2188786E+01  0.7546771E-02  0.2863977E+00
         22   -1    0    0    0    0  0.00000000000E+00  0.00000000000E+00  0.14302502396E+00  0.14302502396E+00  0.00000000000E+00 0.  1.
         22   -1    0    0    0    0 -0.00000000000E+00 -0.00000000000E+00 -0.33503959744E+02  0.33503959744E+02  0.00000000000E+00 0. -1.
          4    1    1    2  501    0  0.21803521105E+01 -0.19195792888E+00 -0.16937836487E+02  0.17078673486E+02  0.00000000000E+00 0.  1.
         -4    1    1    2    0  501 -0.21803521105E+01  0.19195792888E+00 -0.16423098233E+02  0.16568311282E+02  0.00000000000E+00 0. -1.
<mgrwt>
<rscale>  0 0.21887858E+01</rscale>
<asrwt>0</asrwt>
<pdfrwt beam="1">0</pdfrwt>
<pdfrwt beam="2">0</pdfrwt>
<totfact> 0.31480531E+12</totfact>
</mgrwt>
</event>
<event>
 4    2  0.2027839E+006  0.2298301E+01  0.7546771E-02  0.2804736E+00
         22   -1    0    0    0    0  0.00000000000E+00  0.00000000000E+00  0.71379748667E+01  0.71379748667E+01  0.00000000000E+00 0. -1.
         22   -1    0    0    0    0 -0.00000000000E+00 -0.00000000000E+00 -0.20805880130E+01  0.20805880130E+01  0.00000000000E+00 0.  1.
          4    1    1    2  501    0 -0.49446216441E+00 -0.22444807144E+01  0.62285587449E+01  0.66390609689E+01  0.00000000000E+00 0. -1.
         -4    1    1    2    0  501  0.49446216441E+00  0.22444807144E+01 -0.11711718913E+01  0.25795019109E+01  0.00000000000E+00 0.  1.
<mgrwt>
<rscale>  0 0.22983008E+01</rscale>
<asrwt>0</asrwt>
<pdfrwt beam="1">0</pdfrwt>
<pdfrwt beam="2">0</pdfrwt>
<totfact> 0.10253818E+12</totfact>
</mgrwt>
</event>
<event>
 4    2  0.2027839E+006  0.2087206E+01  0.7546771E-02  0.2924249E+00
         22   -1    0    0    0    0  0.00000000000E+00  0.00000000000E+00  0.25198146903E+01  0.25198146903E+01  0.00000000000E+00 0.  1.
         22   -1    0    0    0    0 -0.00000000000E+00 -0.00000000000E+00 -0.33107514746E+01  0.33107514746E+01  0.00000000000E+00 0. -1.
          4    1    1    2  501    0  0.20095135559E+01 -0.56416702790E+00 -0.24106053471E+01  0.31886434900E+01  0.00000000000E+00 0. -1.
         -4    1    1    2    0  501 -0.20095135559E+01  0.56416702790E+00  0.16196685627E+01  0.26419226749E+01  0.00000000000E+00 0.  1.
<mgrwt>
<rscale>  0 0.20872061E+01</rscale>
<asrwt>0</asrwt>
<pdfrwt beam="1">0</pdfrwt>
<pdfrwt beam="2">0</pdfrwt>
<totfact> 0.20376318E+12</totfact>
</mgrwt>
</event>
<event>
 4    2  0.2027839E+006  0.2094526E+01  0.7546771E-02  0.2919717E+00
         22   -1    0    0    0    0  0.00000000000E+00  0.00000000000E+00  0.26722996841E+01  0.26722996841E+01  0.00000000000E+00 0. -1.
         22   -1    0    0    0    0 -0.00000000000E+00 -0.00000000000E+00 -0.30777103933E+01  0.30777103933E+01  0.00000000000E+00 0.  1.
          4    1    1    2  501    0 -0.16068849731E+01 -0.13434879899E+01  0.17611422147E+01  0.27365418316E+01  0.00000000000E+00 0. -1.
         -4    1    1    2    0  501  0.16068849731E+01  0.13434879899E+01 -0.21665529239E+01  0.30134682457E+01  0.00000000000E+00 0.  1.
<mgrwt>
<rscale>  0 0.20945260E+01</rscale>
<asrwt>0</asrwt>
<pdfrwt beam="1">0</pdfrwt>
<pdfrwt beam="2">0</pdfrwt>
<totfact> 0.20725607E+12</totfact>
</mgrwt>
</event>
<event>
 4    2  0.2027839E+006  0.2060423E+01  0.7546771E-02  0.2941099E+00
         22   -1    0    0    0    0  0.00000000000E+00  0.00000000000E+00  0.57888966834E+00  0.57888966834E+00  0.00000000000E+00 0.  1.
         22   -1    0    0    0    0 -0.00000000000E+00 -0.00000000000E+00 -0.85073376963E+01  0.85073376963E+01  0.00000000000E+00 0. -1.
          4    1    1    2  501    0  0.18260011613E+01  0.95449607180E+00 -0.22767269609E+01  0.30706397781E+01  0.00000000000E+00 0. -1.
         -4    1    1    2    0  501 -0.18260011613E+01 -0.95449607180E+00 -0.56517210670E+01  0.60155875865E+01  0.00000000000E+00 0.  1.
<mgrwt>
<rscale>  0 0.20604230E+01</rscale>
<asrwt>0</asrwt>
<pdfrwt beam="1">0</pdfrwt>
<pdfrwt beam="2">0</pdfrwt>
<totfact> 0.35901680E+12</totfact>
</mgrwt>
</event>
<event>
 4    2  0.2027839E+006  0.2834278E+01  0.7546771E-02  0.2577294E+00
         22   -1    0    0    0    0  0.00000000000E+00  0.00000000000E+00  0.76267852476E+02  0.76267852476E+02  0.00000000000E+00 0. -1.
         22   -1    0    0    0    0 -0.00000000000E+00 -0.00000000000E+00 -0.15432041072E+00  0.15432041072E+00  0.00000000000E+00 0.  1.
          4    1    1    2  501    0 -0.17359369161E+01 -0.22404584620E+01  0.59586697349E+02  0.59654066349E+02  0.00000000000E+00 0. -1.
         -4    1    1    2    0  501  0.17359369161E+01  0.22404584620E+01  0.16526834717E+02  0.16768106538E+02  0.00000000000E+00 0.  1.
<mgrwt>
<rscale>  0 0.28342779E+01</rscale>
<asrwt>0</asrwt>
<pdfrwt beam="1">0</pdfrwt>
<pdfrwt beam="2">0</pdfrwt>
<totfact> 0.97536182E+11</totfact>
</mgrwt>
</event>
<event>
 4    2  0.2027839E+006  0.2689379E+01  0.7546771E-02  0.2630502E+00
         22   -1    0    0    0    0  0.00000000000E+00  0.00000000000E+00  0.14463037829E+01  0.14463037829E+01  0.00000000000E+00 0.  1.
         22   -1    0    0    0    0 -0.00000000000E+00 -0.00000000000E+00 -0.86006564221E+01  0.86006564221E+01  0.00000000000E+00 0. -1.
          4    1    1    2  501    0  0.10906951696E+01 -0.24582811145E+01 -0.32721727196E+00  0.27092126410E+01  0.00000000000E+00 0.  1.
         -4    1    1    2    0  501 -0.10906951696E+01  0.24582811145E+01 -0.68271353672E+01  0.73377475640E+01  0.00000000000E+00 0. -1.
<mgrwt>
<rscale>  0 0.26893795E+01</rscale>
<asrwt>0</asrwt>
<pdfrwt beam="1">0</pdfrwt>
<pdfrwt beam="2">0</pdfrwt>
<totfact> 0.12472632E+12</totfact>
</mgrwt>
</event>
<event>
 4    2  0.2027839E+006  0.2915096E+01  0.7546771E-02  0.2549711E+00
         22   -1    0    0    0    0  0.00000000000E+00  0.00000000000E+00  0.64276204054E+00  0.64276204054E+00  0.00000000000E+00 0.  1.
         22   -1    0    0    0    0 -0.00000000000E+00 -0.00000000000E+00 -0.13411720755E+02  0.13411720755E+02  0.00000000000E+00 0. -1.
          4    1    1    2  501    0  0.26355614363E+01  0.12456329945E+01 -0.55458987476E+01  0.62653634021E+01  0.00000000000E+00 0.  1.
         -4    1    1    2    0  501 -0.26355614363E+01 -0.12456329945E+01 -0.72230599672E+01  0.77891193938E+01  0.00000000000E+00 0. -1.
<mgrwt>
<rscale>  0 0.29150962E+01</rscale>
<asrwt>0</asrwt>
<pdfrwt beam="1">0</pdfrwt>
<pdfrwt beam="2">0</pdfrwt>
<totfact> 0.18351328E+12</totfact>
</mgrwt>
</event>
<event>
 4    2  0.2027839E+006  0.2535273E+01  0.7546771E-02  0.2693181E+00
         22   -1    0    0    0    0  0.00000000000E+00  0.00000000000E+00  0.19820243968E+02  0.19820243968E+02  0.00000000000E+00 0.  1.
         22   -1    0    0    0    0 -0.00000000000E+00 -0.00000000000E+00 -0.49163815107E+00  0.49163815107E+00  0.00000000000E+00 0. -1.
          4    1    1    2  501    0  0.22941002784E+01  0.10792183680E+01  0.15589478163E+02  0.15794284971E+02  0.00000000000E+00 0.  1.
         -4    1    1    2    0  501 -0.22941002784E+01 -0.10792183680E+01  0.37391276539E+01  0.45175971473E+01  0.00000000000E+00 0. -1.
<mgrwt>
<rscale>  0 0.25352728E+01</rscale>
<asrwt>0</asrwt>
<pdfrwt beam="1">0</pdfrwt>
<pdfrwt beam="2">0</pdfrwt>
<totfact> 0.15339315E+12</totfact>
</mgrwt>
</event>
<event>
 4    2  0.2027839E+006  0.2194633E+01  0.7546771E-02  0.2860671E+00
         22   -1    0    0    0    0  0.00000000000E+00  0.00000000000E+00  0.83674994463E+01  0.83674994463E+01  0.00000000000E+00 0.  1.
         22   -1    0    0    0    0 -0.00000000000E+00 -0.00000000000E+00 -0.64514218497E+00  0.64514218497E+00  0.00000000000E+00 0. -1.
          4    1    1    2  501    0 -0.19547264281E+01  0.99772768442E+00  0.53405849859E+01  0.57739296785E+01  0.00000000000E+00 0.  1.
         -4    1    1    2    0  501  0.19547264281E+01 -0.99772768442E+00  0.23817722754E+01  0.32387119528E+01  0.00000000000E+00 0. -1.
<mgrwt>
<rscale>  0 0.21946334E+01</rscale>
<asrwt>0</asrwt>
<pdfrwt beam="1">0</pdfrwt>
<pdfrwt beam="2">0</pdfrwt>
<totfact> 0.32395880E+12</totfact>
</mgrwt>
</event>
<event>
 4    2  0.2027839E+006  0.2996188E+01  0.7546771E-02  0.2523386E+00
         22   -1    0    0    0    0  0.00000000000E+00  0.00000000000E+00  0.26097264403E+00  0.26097264403E+00  0.00000000000E+00 0.  1.
         22   -1    0    0    0    0 -0.00000000000E+00 -0.00000000000E+00 -0.55244331371E+02  0.55244331371E+02  0.00000000000E+00 0. -1.
          4    1    1    2  501    0 -0.47609918653E+00 -0.29581200336E+01 -0.10443925634E+02  0.10865207187E+02  0.00000000000E+00 0.  1.
         -4    1    1    2    0  501  0.47609918653E+00  0.29581200336E+01 -0.44539433093E+02  0.44640096828E+02  0.00000000000E+00 0. -1.
<mgrwt>
<rscale>  0 0.29961883E+01</rscale>
<asrwt>0</asrwt>
<pdfrwt beam="1">0</pdfrwt>
<pdfrwt beam="2">0</pdfrwt>
<totfact> 0.83827997E+11</totfact>
</mgrwt>
</event>
<event>
 4    2  0.2027839E+006  0.3211447E+01  0.7546771E-02  0.2459308E+00
         22   -1    0    0    0    0  0.00000000000E+00  0.00000000000E+00  0.74717742084E+01  0.74717742084E+01  0.00000000000E+00 0.  1.
         22   -1    0    0    0    0 -0.00000000000E+00 -0.00000000000E+00 -0.14745475591E+01  0.14745475591E+01  0.00000000000E+00 0. -1.
          4    1    1    2  501    0  0.14386703780E+01 -0.28711699943E+01  0.41294228307E+01  0.52312066015E+01  0.00000000000E+00 0.  1.
         -4    1    1    2    0  501 -0.14386703780E+01  0.28711699943E+01  0.18678038186E+01  0.37151151661E+01  0.00000000000E+00 0. -1.
<mgrwt>
<rscale>  0 0.32114467E+01</rscale>
<asrwt>0</asrwt>
<pdfrwt beam="1">0</pdfrwt>
<pdfrwt beam="2">0</pdfrwt>
<totfact> 0.14445295E+12</totfact>
</mgrwt>
</event>
<event>
 4    2  0.2027839E+006  0.2245268E+01  0.7546771E-02  0.2832735E+00
         22   -1    0    0    0    0  0.00000000000E+00  0.00000000000E+00  0.48529536862E+00  0.48529536862E+00  0.00000000000E+00 0.  1.
         22   -1    0    0    0    0 -0.00000000000E+00 -0.00000000000E+00 -0.12302095275E+02  0.12302095275E+02  0.00000000000E+00 0. -1.
          4    1    1    2  501    0 -0.20363066947E+01 -0.94587756860E+00 -0.33863795155E+01  0.40631017158E+01  0.00000000000E+00 0. -1.
         -4    1    1    2    0  501  0.20363066947E+01  0.94587756860E+00 -0.84304203905E+01  0.87242889275E+01  0.00000000000E+00 0.  1.
<mgrwt>
<rscale>  0 0.22452682E+01</rscale>
<asrwt>0</asrwt>
<pdfrwt beam="1">0</pdfrwt>
<pdfrwt beam="2">0</pdfrwt>
<totfact> 0.28025223E+12</totfact>
</mgrwt>
</event>
<event>
 4    2  0.2027839E+006  0.4733877E+01  0.7546771E-02  0.2156176E+00
         22   -1    0    0    0    0  0.00000000000E+00  0.00000000000E+00  0.29391151995E+02  0.29391151995E+02  0.00000000000E+00 0.  1.
         22   -1    0    0    0    0 -0.00000000000E+00 -0.00000000000E+00 -0.14222187675E+01  0.14222187675E+01  0.00000000000E+00 0. -1.
          4    1    1    2  501    0 -0.39595585176E+01  0.25945115577E+01  0.24477919474E+02  0.24931468783E+02  0.00000000000E+00 0.  1.
         -4    1    1    2    0  501  0.39595585176E+01 -0.25945115577E+01  0.34910137537E+01  0.58819019803E+01  0.00000000000E+00 0. -1.
<mgrwt>
<rscale>  0 0.47338773E+01</rscale>
<asrwt>0</asrwt>
<pdfrwt beam="1">0</pdfrwt>
<pdfrwt beam="2">0</pdfrwt>
<totfact> 0.27864873E+11</totfact>
</mgrwt>
</event>
<event>
 4    2  0.2027839E+006  0.2204859E+01  0.7546771E-02  0.2854930E+00
         22   -1    0    0    0    0  0.00000000000E+00  0.00000000000E+00  0.44421460104E+00  0.44421460104E+00  0.00000000000E+00 0. -1.
         22   -1    0    0    0    0 -0.00000000000E+00 -0.00000000000E+00 -0.11881648912E+02  0.11881648912E+02  0.00000000000E+00 0.  1.
          4    1    1    2  501    0 -0.12336216726E+01  0.18274525748E+01 -0.74501690895E+01  0.77695833098E+01  0.00000000000E+00 0.  1.
         -4    1    1    2    0  501  0.12336216726E+01 -0.18274525748E+01 -0.39872652210E+01  0.45562802029E+01  0.00000000000E+00 0. -1.
<mgrwt>
<rscale>  0 0.22048595E+01</rscale>
<asrwt>0</asrwt>
<pdfrwt beam="1">0</pdfrwt>
<pdfrwt beam="2">0</pdfrwt>
<totfact> 0.32307019E+12</totfact>
</mgrwt>
</event>
<event>
 4    2  0.2027839E+006  0.2690488E+01  0.7546771E-02  0.2630075E+00
         22   -1    0    0    0    0  0.00000000000E+00  0.00000000000E+00  0.23197155064E+02  0.23197155064E+02  0.00000000000E+00 0. -1.
         22   -1    0    0    0    0 -0.00000000000E+00 -0.00000000000E+00 -0.13438029898E+01  0.13438029898E+01  0.00000000000E+00 0.  1.
          4    1    1    2  501    0 -0.12260786568E+01  0.23948816430E+01  0.21678473817E+02  0.21844792376E+02  0.00000000000E+00 0. -1.
         -4    1    1    2    0  501  0.12260786568E+01 -0.23948816430E+01  0.17487825811E+00  0.26961656778E+01  0.00000000000E+00 0.  1.
<mgrwt>
<rscale>  0 0.26904882E+01</rscale>
<asrwt>0</asrwt>
<pdfrwt beam="1">0</pdfrwt>
<pdfrwt beam="2">0</pdfrwt>
<totfact> 0.40114898E+11</totfact>
</mgrwt>
</event>
<event>
 4    2  0.2027839E+006  0.3320845E+01  0.7546771E-02  0.2429581E+00
         22   -1    0    0    0    0  0.00000000000E+00  0.00000000000E+00  0.42125593738E+02  0.42125593738E+02  0.00000000000E+00 0. -1.
         22   -1    0    0    0    0 -0.00000000000E+00 -0.00000000000E+00 -0.31322408335E+00  0.31322408335E+00  0.00000000000E+00 0.  1.
          4    1    1    2  501    0 -0.98538474314E+00  0.31712815730E+01  0.29504951196E+02  0.29691247111E+02  0.00000000000E+00 0.  1.
         -4    1    1    2    0  501  0.98538474314E+00 -0.31712815730E+01  0.12307418458E+02  0.12747570710E+02  0.00000000000E+00 0. -1.
<mgrwt>
<rscale>  0 0.33208448E+01</rscale>
<asrwt>0</asrwt>
<pdfrwt beam="1">0</pdfrwt>
<pdfrwt beam="2">0</pdfrwt>
<totfact> 0.97604026E+11</totfact>
</mgrwt>
</event>
<event>
 4    2  0.2027839E+006  0.2773700E+01  0.7546771E-02  0.2598923E+00
         22   -1    0    0    0    0  0.00000000000E+00  0.00000000000E+00  0.65733021112E+00  0.65733021112E+00  0.00000000000E+00 0. -1.
         22   -1    0    0    0    0 -0.00000000000E+00 -0.00000000000E+00 -0.17088300357E+02  0.17088300357E+02  0.00000000000E+00 0.  1.
          4    1    1    2  501    0  0.26314357592E+01  0.87690077156E+00 -0.32349541204E+01  0.42612600577E+01  0.00000000000E+00 0. -1.
         -4    1    1    2    0  501 -0.26314357592E+01 -0.87690077156E+00 -0.13196016025E+02  0.13484370510E+02  0.00000000000E+00 0.  1.
<mgrwt>
<rscale>  0 0.27736995E+01</rscale>
<asrwt>0</asrwt>
<pdfrwt beam="1">0</pdfrwt>
<pdfrwt beam="2">0</pdfrwt>
<totfact> 0.13276832E+12</totfact>
</mgrwt>
</event>
<event>
 4    2  0.2027839E+006  0.3268605E+01  0.7546771E-02  0.2443557E+00
         22   -1    0    0    0    0  0.00000000000E+00  0.00000000000E+00  0.72259969454E+01  0.72259969454E+01  0.00000000000E+00 0. -1.
         22   -1    0    0    0    0 -0.00000000000E+00 -0.00000000000E+00 -0.15564651667E+01  0.15564651667E+01  0.00000000000E+00 0.  1.
          4    1    1    2  501    0 -0.40608506400E+00  0.32432808077E+01  0.38174485936E+01  0.50256033709E+01  0.00000000000E+00 0. -1.
         -4    1    1    2    0  501  0.40608506400E+00 -0.32432808077E+01  0.18520831851E+01  0.37568587412E+01  0.00000000000E+00 0.  1.
<mgrwt>
<rscale>  0 0.32686045E+01</rscale>
<asrwt>0</asrwt>
<pdfrwt beam="1">0</pdfrwt>
<pdfrwt beam="2">0</pdfrwt>
<totfact> 0.14128836E+12</totfact>
</mgrwt>
</event>
<event>
 4    2  0.2027839E+006  0.2206668E+01  0.7546771E-02  0.2853920E+00
         22   -1    0    0    0    0  0.00000000000E+00  0.00000000000E+00  0.27358114706E+01  0.27358114706E+01  0.00000000000E+00 0.  1.
         22   -1    0    0    0    0 -0.00000000000E+00 -0.00000000000E+00 -0.11923489070E+02  0.11923489070E+02  0.00000000000E+00 0. -1.
          4    1    1    2  501    0 -0.53655651767E+00  0.21404422260E+01  0.21666494588E+01  0.30925322467E+01  0.00000000000E+00 0.  1.
         -4    1    1    2    0  501  0.53655651767E+00 -0.21404422260E+01 -0.11354327058E+02  0.11566768294E+02  0.00000000000E+00 0. -1.
<mgrwt>
<rscale>  0 0.22066685E+01</rscale>
<asrwt>0</asrwt>
<pdfrwt beam="1">0</pdfrwt>
<pdfrwt beam="2">0</pdfrwt>
<totfact> 0.40145523E+11</totfact>
</mgrwt>
</event>
<event>
 4    2  0.2027839E+006  0.2884141E+01  0.7546771E-02  0.2560111E+00
         22   -1    0    0    0    0  0.00000000000E+00  0.00000000000E+00  0.48860789239E+01  0.48860789239E+01  0.00000000000E+00 0.  1.
         22   -1    0    0    0    0 -0.00000000000E+00 -0.00000000000E+00 -0.17046504834E+01  0.17046504834E+01  0.00000000000E+00 0. -1.
          4    1    1    2  501    0 -0.21622488829E+01 -0.19086505446E+01  0.17093210200E+01  0.33526177060E+01  0.00000000000E+00 0. -1.
         -4    1    1    2    0  501  0.21622488829E+01  0.19086505446E+01  0.14721074205E+01  0.32381117013E+01  0.00000000000E+00 0.  1.
<mgrwt>
<rscale>  0 0.28841406E+01</rscale>
<asrwt>0</asrwt>
<pdfrwt beam="1">0</pdfrwt>
<pdfrwt beam="2">0</pdfrwt>
<totfact> 0.20268880E+12</totfact>
</mgrwt>
</event>
<event>
 4    2  0.2027839E+006  0.2209349E+01  0.7546771E-02  0.2852426E+00
         22   -1    0    0    0    0  0.00000000000E+00  0.00000000000E+00  0.46824557813E+01  0.46824557813E+01  0.00000000000E+00 0. -1.
         22   -1    0    0    0    0 -0.00000000000E+00 -0.00000000000E+00 -0.15895251734E+01  0.15895251734E+01  0.00000000000E+00 0.  1.
          4    1    1    2  501    0  0.20659880554E+01  0.78289034516E+00  0.33862402940E+01  0.40432471191E+01  0.00000000000E+00 0. -1.
         -4    1    1    2    0  501 -0.20659880554E+01 -0.78289034516E+00 -0.29330968605E+00  0.22287338355E+01  0.00000000000E+00 0.  1.
<mgrwt>
<rscale>  0 0.22093492E+01</rscale>
<asrwt>0</asrwt>
<pdfrwt beam="1">0</pdfrwt>
<pdfrwt beam="2">0</pdfrwt>
<totfact> 0.23103293E+12</totfact>
</mgrwt>
</event>
